Title
42779
    1SAPS     N    1   5.830   1.048   7.330 -0.3866 -0.0266 -0.0398
    1SAPS   HN1    2   5.784   1.104   7.405 -0.3703 -1.6785  1.2478
    1SAPS   HN2    3   5.923   1.020   7.367 -1.2076 -0.5866  1.7444
    1SAPS   HN3    4   5.844   1.093   7.238  0.9585 -1.0223 -0.3542
    1SAPS   C12    5   5.749   0.923   7.311 -0.5609  0.2262 -0.7478
    1SAPS  H12A    6   5.808   0.865   7.242  0.7204 -1.0857  1.3438
    1SAPS   C13    7   5.757   0.830   7.439  0.2455 -0.6185  0.4636
    1SAPS  O13A    8   5.827   0.875   7.538  0.8762  0.1214  0.1095
    1SAPS  O13B    9   5.677   0.735   7.456  0.7301  0.3293 -0.1037
    1SAPS   C11   10   5.602   0.959   7.267 -0.2566 -0.1946 -0.0074
    1SAPS  H11A   11   5.562   1.031   7.341  2.7948  2.8219 -1.0215
    1SAPS  H11B   12   5.552   0.859   7.261  0.2277 -0.3585 -2.4295
    1SAPS     P   13   5.549   0.951   7.018  0.0765 -0.2412  0.5816
    1SAPS   O13   14   5.408   0.901   7.047 -0.4826 -0.4495 -0.1530
    1SAPS   O14   15   5.574   1.036   6.902  0.2560 -0.0152 -0.0196
    1SAPS   O12   16   5.611   1.027   7.146  0.0284 -0.0799  0.3438
    1SAPS   O11   17   5.642   0.829   6.999  0.2360 -0.0954  0.1147
    1SAPS    C1   18   5.780   0.839   6.967  0.7243  0.9515 -0.4320
    1SAPS    HA   19   5.831   0.938   6.975  1.4293  0.4638  1.6395
    1SAPS    HB   20   5.826   0.769   7.040  1.7468  0.2763 -1.6741
    1SAPS    C2   21   5.800   0.773   6.832  0.6071 -0.4843 -0.5108
    1SAPS    HS   22   5.743   0.677   6.829 -2.0971  1.0118 -0.0569
    1SAPS   O21   23   5.939   0.773   6.804  0.4557 -0.2196 -0.7353
    1SAPS   C21   24   6.002   0.661   6.827  0.1870 -0.3361  0.6174
    1SAPS   O22   25   5.950   0.555   6.851  0.5655 -0.0916  0.0189
    1SAPS   C22   26   6.150   0.699   6.839  0.0149  0.2043  0.3874
    1SAPS   H2R   27   6.192   0.735   6.743  0.6229  0.9931  0.9462
    1SAPS   H2S   28   6.155   0.784   6.910 -1.6373 -1.3494  2.4791
    1SAPS    C3   29   5.724   0.846   6.720 -0.2455  0.1008 -0.2976
    1SAPS    HX   30   5.783   0.940   6.710 -1.1688  0.9000  1.2710
    1SAPS    HY   31   5.621   0.873   6.753  0.9378  2.2767  1.9382
    1SAPS   O31   32   5.728   0.753   6.601  0.2794  0.4739 -0.3982
    1SAPS   C31   33   5.782   0.799   6.491 -0.1976  0.0981  0.7406
    1SAPS   O32   34   5.845   0.905   6.490 -0.3277 -0.2988  0.2813
    1SAPS   C32   35   5.770   0.699   6.376 -0.2590  0.4053 -0.2999
    1SAPS   H2X   36   5.698   0.624   6.415 -0.7681  0.9397 -0.1981
    1SAPS   H2Y   37   5.873   0.657   6.381  0.0469  1.2397  0.6338
    1SAPS   C23   38   6.234   0.581   6.905 -0.3792 -0.7616  0.3885
    1SAPS   H3R   39   6.171   0.539   6.986  0.5310  0.3686  1.7233
    1SAPS   H3S   40   6.325   0.613   6.959  0.7559  1.0579 -2.3334
    1SAPS   C24   41   6.261   0.466   6.810  0.0226 -0.0003  0.0111
    1SAPS   H4R   42   6.169   0.426   6.763  1.7239 -3.2384 -0.8831
    1SAPS   H4S   43   6.321   0.388   6.861  0.8533 -1.0304 -2.3856
    1SAPS   C25   44   6.358   0.517   6.707 -0.3029 -0.4576 -0.4177
    1SAPS   H5R   45   6.447   0.566   6.750 -1.6411  0.9869  0.8394
    1SAPS   C26   46   6.347   0.510   6.572 -0.0041  0.1531  0.0683
    1SAPS   H6R   47   6.422   0.551   6.501 -1.2505  1.1222 -0.7248
    1SAPS   C27   48   6.234   0.449   6.508 -0.2431  0.4013  0.2829
    1SAPS   H7R   49   6.189   0.371   6.573 -2.6063  1.3244 -0.1656
    1SAPS   H7S   50   6.275   0.390   6.423 -0.4916  0.2436  0.2710
    1SAPS   C28   51   6.146   0.557   6.450  0.2406  0.1428 -0.6220
    1SAPS   H8R   52   6.103   0.618   6.531 -0.2625  0.3819 -1.0632
    1SAPS   C29   53   6.117   0.582   6.320  0.3721  0.3589 -0.9514
    1SAPS   H9R   54   6.054   0.671   6.304  1.1306  1.1230  0.1361
    1SAPS  C210   55   6.158   0.498   6.204  0.1491  0.5116  0.5424
    1SAPS  H10R   56   6.080   0.506   6.124  2.1824 -2.2602 -1.9337
    1SAPS  H10S   57   6.144   0.392   6.234  0.1996  0.8934  1.9811
    1SAPS  C211   58   6.298   0.527   6.153 -0.1656  0.2819  0.3196
    1SAPS  H11R   59   6.377   0.533   6.230  1.5444 -1.7177 -1.1566
    1SAPS  C212   60   6.339   0.521   6.026  0.0397 -0.5352 -0.1235
    1SAPS  H12R   61   6.445   0.542   6.005  0.1341 -1.4489 -0.5841
    1SAPS  C213   62   6.255   0.502   5.891 -0.9383  0.5686  0.4635
    1SAPS  H13R   63   6.158   0.455   5.918 -1.4099  0.8887 -0.6211
    1SAPS  H13S   64   6.314   0.432   5.829  0.7883  0.7768  1.8173
    1SAPS  C214   65   6.220   0.633   5.818  0.5086 -0.5987  0.5342
    1SAPS  H14R   66   6.206   0.718   5.887 -0.4735 -1.6570  1.7009
    1SAPS  C215   67   6.198   0.648   5.689  0.1991  0.1341  0.5655
    1SAPS  H15R   68   6.180   0.742   5.634 -2.4820 -0.2014  0.7479
    1SAPS  C216   69   6.210   0.537   5.581  0.4241  0.2027 -0.4551
    1SAPS  H16R   70   6.105   0.505   5.563 -0.3432  2.5439 -0.4563
    1SAPS  H16S   71   6.256   0.446   5.625  2.0149  0.3399 -1.7881
    1SAPS  C217   72   6.292   0.555   5.462  0.7564 -0.0027 -0.1712
    1SAPS  H17R   73   6.289   0.456   5.412  1.5545 -1.5333  2.5846
    1SAPS  H17S   74   6.401   0.563   5.487  0.7669  1.7479 -0.6078
    1SAPS  C218   75   6.249   0.674   5.381  0.2452  0.5894  0.0942
    1SAPS  H18R   76   6.280   0.773   5.421 -1.5704  1.3654 -0.3220
    1SAPS  H18S   77   6.139   0.687   5.381  0.2447  0.5723  0.4000
    1SAPS  C219   78   6.293   0.675   5.234  0.0063 -0.0740 -0.0589
    1SAPS  H19R   79   6.403   0.671   5.242 -0.0824 -1.3662  0.8321
    1SAPS  H19S   80   6.263   0.772   5.188 -0.0739 -0.0415  0.0618
    1SAPS  C220   81   6.243   0.559   5.153  0.3231  0.9918  0.3788
    1SAPS  H20R   82   6.270   0.461   5.199 -0.7523  1.4098  2.0135
    1SAPS  H20S   83   6.269   0.562   5.046  0.6823  0.4022  0.4448
    1SAPS  H20T   84   6.133   0.557   5.170  0.5272  0.1670  1.8278
    1SAPS   C33   85   5.729   0.756   6.242  0.1758  0.2908 -0.0330
    1SAPS   H3X   86   5.792   0.841   6.208 -1.4795  1.8450  0.6283
    1SAPS   H3Y   87   5.622   0.786   6.245  0.2745  0.6909  3.1081
    1SAPS   C34   88   5.749   0.649   6.127  0.0889  0.3888 -0.0083
    1SAPS   H4X   89   5.694   0.556   6.153  1.4560 -0.3048  0.5120
    1SAPS   H4Y   90   5.859   0.637   6.129  0.1023  0.6041  1.1860
    1SAPS   C35   91   5.715   0.701   5.985  0.2126 -0.4165 -0.0453
    1SAPS   H5X   92   5.791   0.780   5.966 -0.7621  0.9152  1.3307
    1SAPS   H5Y   93   5.617   0.754   5.994  1.0837  0.9637  2.1107
    1SAPS   C36   94   5.715   0.588   5.876 -0.2586 -0.0985  0.4221
    1SAPS   H6X   95   5.627   0.527   5.905 -1.3215  1.2271  0.0573
    1SAPS   H6Y   96   5.808   0.527   5.874 -0.5338 -0.5092 -0.1286
    1SAPS   C37   97   5.700   0.647   5.730 -0.5639  0.3469 -0.3153
    1SAPS   H7X   98   5.747   0.747   5.728 -1.0679  0.5988  0.1346
    1SAPS   H7Y   99   5.594   0.652   5.699 -1.0011 -2.3281  0.4734
    1SAPS   C38  100   5.769   0.548   5.631 -0.6429 -0.5232 -0.5091
    1SAPS   H8X  101   5.749   0.439   5.645  1.0704 -0.7275  0.5626
    1SAPS   H8Y  102   5.879   0.548   5.646 -0.1269  0.6062 -3.4819
    1SAPS   C39  103   5.748   0.581   5.488 -0.3515  0.8049  1.3245
    1SAPS   H9X  104   5.794   0.678   5.461  0.5324 -0.1231 -0.7282
    1SAPS   H9Y  105   5.638   0.577   5.475 -0.1240 -1.3895 -0.4760
    1SAPS  C310  106   5.801   0.465   5.401  0.8115 -0.5878  0.1332
    1SAPS  H10X  107   5.739   0.373   5.408 -1.2943  0.8363  1.4394
    1SAPS  H10Y  108   5.907   0.457   5.433  1.1321 -1.6598 -1.1251
    1SAPS  C311  109   5.802   0.509   5.252  1.0159  0.5935 -0.0210
    1SAPS  H11X  110   5.867   0.597   5.233  2.9189 -0.5825  0.8117
    1SAPS  H11Y  111   5.703   0.540   5.211  1.2726  0.6113 -0.6427
    1SAPS  C312  112   5.861   0.400   5.169 -0.8145  0.1046 -0.1115
    1SAPS  H12X  113   5.820   0.302   5.200 -0.8899 -0.5433 -2.0770
    1SAPS  H12Y  114   5.972   0.393   5.177 -0.9291 -5.7687  1.1343
    1SAPS  C313  115   5.830   0.420   5.022 -0.0216 -0.4643  0.3532
    1SAPS  H13X  116   5.852   0.524   4.992  0.6871 -1.3536 -2.5416
    1SAPS  H13Y  117   5.720   0.414   5.005  0.0867  2.0721 -1.9921
    1SAPS  C314  118   5.889   0.314   4.926 -0.4013 -0.3931  0.1141
    1SAPS  H14X  119   5.865   0.346   4.822  1.3778  3.1868  0.6591
    1SAPS  H14Y  120   5.852   0.215   4.959  0.9897 -0.3992  1.7803
    1SAPS  C315  121   6.045   0.307   4.921 -0.6425 -0.5950 -0.0512
    1SAPS  H15X  122   6.074   0.225   4.851 -1.1571  1.1689 -2.4891
    1SAPS  H15Y  123   6.096   0.294   5.018 -0.0509  1.2581 -0.0736
    1SAPS  C316  124   6.105   0.445   4.863  0.4917  0.0881 -0.1164
    1SAPS  H16X  125   6.090   0.521   4.943 -1.6357  0.4809 -0.8241
    1SAPS  H16Y  126   6.031   0.476   4.786 -1.4629 -2.1062  0.7379
    1SAPS  C317  127   6.241   0.442   4.797  0.5998  0.0791 -0.2357
    1SAPS  H17X  128   6.250   0.350   4.736  2.0709 -1.3949  2.0625
    1SAPS  H17Y  129   6.319   0.429   4.875 -0.2863 -1.4039  0.4553
    1SAPS  C318  130   6.273   0.564   4.712  0.1544  0.9304  0.0905
    1SAPS  H18X  131   6.213   0.556   4.619  1.0545 -1.8892 -0.3537
    1SAPS  H18Y  132   6.383   0.575   4.696  0.2932  0.3018  0.5844
    1SAPS  H18Z  133   6.264   0.656   4.773  0.8621  0.0089  1.6610
    2SAPS     N  134   0.140   2.963   6.628  0.0861 -0.5856 -0.6772
    2SAPS   HN1  135   0.061   2.934   6.568 -0.2022  2.7431 -2.1565
    2SAPS   HN2  136   0.122   3.058   6.667 -0.2169 -0.8327 -0.1945
    2SAPS   HN3  137   0.226   2.963   6.569 -0.6719 -0.8111 -1.7939
    2SAPS   C12  138   0.165   2.867   6.746 -0.2888  0.0582  0.0483
    2SAPS  H12A  139   0.219   2.779   6.717  3.4533  1.3816  2.2414
    2SAPS   C13  140   0.258   2.941   6.846 -0.3514  1.3371 -0.3432
    2SAPS  O13A  141   0.331   3.036   6.810 -0.8831  0.1233 -0.2980
    2SAPS  O13B  142   0.282   2.872   6.955 -0.3955 -0.0557 -0.1202
    2SAPS   C11  143   0.028   2.824   6.815 -0.4509  0.2372  0.3531
    2SAPS  H11A  144   0.055   2.752   6.895 -0.7144  0.9239  1.0767
    2SAPS  H11B  145  -0.032   2.761   6.747  1.5680 -1.0096 -0.3723
    2SAPS     P  146  -0.191   2.925   6.924 -0.2902 -0.1775 -0.3470
    2SAPS   O13  147  -0.226   2.783   6.943 -0.1211  0.9314 -0.3857
    2SAPS   O14  148  -0.195   3.001   7.048  0.1399 -0.2706  0.0707
    2SAPS   O12  149  -0.051   2.938   6.859 -0.2922  0.2923 -0.1251
    2SAPS   O11  150  -0.290   2.986   6.813  0.7668 -0.2879  0.0996
    2SAPS    C1  151  -0.251   2.987   6.679  0.3447 -0.3922  0.0609
    2SAPS    HA  152  -0.152   3.034   6.662  0.1285  0.3618  0.8053
    2SAPS    HB  153  -0.240   2.886   6.635 -2.6301 -1.1886  0.9065
    2SAPS    C2  154  -0.346   3.066   6.595 -0.3338 -0.1506 -0.0569
    2SAPS    HS  155  -0.340   3.170   6.632  1.4435 -0.2310 -0.0383
    2SAPS   O21  156  -0.471   3.004   6.620 -0.2465 -0.2115  0.5986
    2SAPS   C21  157  -0.584   3.068   6.599 -0.3369  0.1288 -0.3573
    2SAPS   O22  158  -0.583   3.193   6.589  0.2949  0.1310 -0.0004
    2SAPS   C22  159  -0.707   2.981   6.611  0.5035  0.5997 -0.2129
    2SAPS   H2R  160  -0.690   2.883   6.562 -0.6799  1.2635 -2.0463
    2SAPS   H2S  161  -0.712   2.957   6.719  2.5307 -3.0376 -0.7668
    2SAPS    C3  162  -0.308   3.049   6.445  0.1345 -0.2321 -0.2075
    2SAPS    HX  163  -0.321   2.940   6.433  0.6129 -0.2064 -1.0971
    2SAPS    HY  164  -0.203   3.085   6.441  0.3301 -0.4538  1.9447
    2SAPS   O31  165  -0.397   3.124   6.364 -0.3657  0.4971 -0.4238
    2SAPS   C31  166  -0.351   3.132   6.245  0.1280  0.1172 -0.4271
    2SAPS   O32  167  -0.246   3.078   6.211 -0.8884  0.7209  0.1461
    2SAPS   C32  168  -0.459   3.184   6.147 -0.3205 -0.3181 -0.0203
    2SAPS   H2X  169  -0.472   3.294   6.157  0.7652 -0.2649  1.1336
    2SAPS   H2Y  170  -0.559   3.144   6.174 -0.3817 -0.9441 -1.1147
    2SAPS   C23  171  -0.834   3.058   6.565 -0.5846  0.4681  0.1683
    2SAPS   H3R  172  -0.831   3.165   6.597  0.9876 -0.1408  2.2934
    2SAPS   H3S  173  -0.926   3.028   6.620  0.6890 -1.5405  1.3334
    2SAPS   C24  174  -0.870   3.055   6.413  0.0189  0.3459  0.1390
    2SAPS   H4R  175  -0.785   3.092   6.352 -0.5547 -0.1405 -0.9708
    2SAPS   H4S  176  -0.954   3.126   6.400  0.0790  0.2694 -0.6961
    2SAPS   C25  177  -0.900   2.926   6.350  0.2060  0.6641  0.6840
    2SAPS   H5R  178  -0.890   2.833   6.408 -0.5045 -1.1732 -1.9261
    2SAPS   C26  179  -0.926   2.904   6.217  0.1368 -0.0626  0.7574
    2SAPS   H6R  180  -0.945   2.801   6.184  2.6790 -0.1612 -0.7001
    2SAPS   C27  181  -0.926   3.007   6.112  0.5231 -0.0452 -0.5459
    2SAPS   H7R  182  -0.876   3.100   6.146 -3.6818  2.1511  0.4077
    2SAPS   H7S  183  -1.022   3.064   6.119  0.4451 -0.2483  0.0228
    2SAPS   C28  184  -0.874   2.969   5.974  0.4871  0.2341  0.6448
    2SAPS   H8R  185  -0.768   2.939   5.977  0.6625  0.6477 -0.8218
    2SAPS   C29  186  -0.930   2.968   5.850 -0.2070  0.2508 -0.8053
    2SAPS   H9R  187  -0.869   2.932   5.767  1.4195  1.5664 -0.2346
    2SAPS  C210  188  -1.075   3.013   5.820 -0.1628  0.3917  0.1379
    2SAPS  H10R  189  -1.113   3.056   5.915 -0.5592 -0.6967  0.4996
    2SAPS  H10S  190  -1.141   2.925   5.799  0.8810 -0.5874  0.8450
    2SAPS  C211  191  -1.087   3.128   5.725  0.0427 -0.1048 -0.0961
    2SAPS  H11R  192  -1.151   3.214   5.751 -0.3016 -0.2527 -0.4342
    2SAPS  C212  193  -1.036   3.144   5.600  0.7364 -0.0138  0.7149
    2SAPS  H12R  194  -1.059   3.234   5.542  1.0823  0.5433  1.4280
    2SAPS  C213  195  -0.964   3.041   5.514 -0.2174 -0.1652 -0.0043
    2SAPS  H13R  196  -1.032   2.953   5.508  1.7247 -1.9311  2.1685
    2SAPS  H13S  197  -0.884   3.001   5.580  0.6026 -0.5796 -1.2047
    2SAPS  C214  198  -0.919   3.080   5.378  0.3962 -0.1481  0.7331
    2SAPS  H14R  199  -0.816   3.117   5.373  0.5004 -0.6044 -1.2525
    2SAPS  C215  200  -0.992   3.070   5.259 -0.0349  0.3399 -0.2855
    2SAPS  H15R  201  -0.936   3.092   5.167  0.6769 -0.4515 -0.0558
    2SAPS  C216  202  -1.127   3.006   5.240 -0.5163  0.2844  0.3864
    2SAPS  H16R  203  -1.200   3.089   5.253  0.0516  0.8737 -0.0750
    2SAPS  H16S  204  -1.139   2.918   5.307  0.1194 -0.1593 -0.0746
    2SAPS  C217  205  -1.162   2.963   5.091 -0.8504 -0.5562 -0.6221
    2SAPS  H17R  206  -1.268   2.932   5.103 -0.9962  0.4467  1.0439
    2SAPS  H17S  207  -1.108   2.871   5.060  1.2739  0.1389  0.7817
    2SAPS  C218  208  -1.152   3.069   4.982 -0.1278  0.3736  0.0559
    2SAPS  H18R  209  -1.056   3.121   4.963 -0.6957  0.1141 -4.7464
    2SAPS  H18S  210  -1.224   3.142   5.025 -0.6192  0.8620 -1.5163
    2SAPS  C219  211  -1.205   3.015   4.844  0.0732 -0.4660  0.0440
    2SAPS  H19R  212  -1.313   3.038   4.830  0.0062  0.2890  1.5538
    2SAPS  H19S  213  -1.180   2.907   4.846  0.8571 -0.2836  1.7329
    2SAPS  C220  214  -1.142   3.080   4.718 -0.2337 -0.2829  0.3621
    2SAPS  H20R  215  -1.142   3.191   4.725 -1.1687  0.0198 -2.8426
    2SAPS  H20S  216  -1.208   3.063   4.630 -0.9668  3.1342  0.1059
    2SAPS  H20T  217  -1.036   3.047   4.706 -0.7388 -2.0637  0.4600
    2SAPS   C33  218  -0.423   3.139   6.000 -0.1367 -0.3450 -0.0933
    2SAPS   H3X  219  -0.434   3.029   5.993  2.0465 -0.5672 -0.4896
    2SAPS   H3Y  220  -0.315   3.145   5.976  0.1916  0.4174  1.4434
    2SAPS   C34  221  -0.506   3.218   5.900 -0.6171 -0.3368  0.7122
    2SAPS   H4X  222  -0.463   3.318   5.920 -1.1809 -0.0610  0.5537
    2SAPS   H4Y  223  -0.610   3.204   5.935 -0.9290 -1.6681 -0.6532
    2SAPS   C35  224  -0.485   3.181   5.753  0.1608 -0.4969  0.3586
    2SAPS   H5X  225  -0.385   3.226   5.732 -0.7102  1.3404 -0.0834
    2SAPS   H5Y  226  -0.546   3.237   5.679 -0.7421 -1.8113  0.0817
    2SAPS   C36  227  -0.499   3.034   5.723 -0.2201  0.1643  0.6193
    2SAPS   H6X  228  -0.585   2.993   5.779 -1.7662  0.9836 -1.0639
    2SAPS   H6Y  229  -0.400   2.988   5.745 -0.3109 -1.3029 -1.7547
    2SAPS   C37  230  -0.541   3.011   5.574 -0.2123 -0.2474 -0.9953
    2SAPS   H7X  231  -0.646   3.040   5.554  0.4852  1.1693 -2.8421
    2SAPS   H7Y  232  -0.541   2.901   5.555 -1.9692 -0.5754  0.5297
    2SAPS   C38  233  -0.451   3.093   5.476  0.5909  0.4181 -0.5722
    2SAPS   H8X  234  -0.351   3.081   5.523 -0.5281 -1.4389  1.5180
    2SAPS   H8Y  235  -0.462   3.204   5.479  3.0374  0.7145  1.0131
    2SAPS   C39  236  -0.465   3.050   5.333 -0.2739  0.3426  0.1934
    2SAPS   H9X  237  -0.571   3.060   5.301  0.5470  0.0391 -2.9068
    2SAPS   H9Y  238  -0.420   2.948   5.327  0.5788  0.4661  3.1224
    2SAPS  C310  239  -0.398   3.135   5.229 -0.2544 -0.5371 -0.3252
    2SAPS  H10X  240  -0.292   3.148   5.259 -0.2270 -0.5884 -0.3996
    2SAPS  H10Y  241  -0.434   3.239   5.216 -2.1720 -0.9606  1.1501
    2SAPS  C311  242  -0.405   3.083   5.081 -0.1167  0.5453  0.2830
    2SAPS  H11X  243  -0.351   3.152   5.013  1.6267 -0.4607  0.5816
    2SAPS  H11Y  244  -0.511   3.064   5.054 -0.3721  2.3266 -0.0633
    2SAPS  C312  245  -0.336   2.947   5.072  0.0913  0.1922  0.2116
    2SAPS  H12X  246  -0.383   2.871   5.138  0.1426 -0.1103 -0.0953
    2SAPS  H12Y  247  -0.234   2.958   5.114  0.9751 -0.7556 -1.5447
    2SAPS  C313  248  -0.336   2.874   4.934  0.9028 -0.0419  0.0718
    2SAPS  H13X  249  -0.316   2.943   4.849  1.9099 -0.8128 -0.3474
    2SAPS  H13Y  250  -0.443   2.845   4.932  1.1691 -1.6664  3.0639
    2SAPS  C314  251  -0.257   2.747   4.927 -0.6090  0.3343  0.1136
    2SAPS  H14X  252  -0.250   2.701   5.028  0.9015  0.8426  0.2622
    2SAPS  H14Y  253  -0.151   2.775   4.911 -0.4114  0.5963  1.6648
    2SAPS  C315  254  -0.297   2.648   4.818  0.3205  0.1457  0.6488
    2SAPS  H15X  255  -0.217   2.570   4.817  0.7968  0.5039 -2.6332
    2SAPS  H15Y  256  -0.296   2.706   4.723  3.6327  1.6261  1.4453
    2SAPS  C316  257  -0.429   2.586   4.840  0.6029  0.1142 -0.4103
    2SAPS  H16X  258  -0.513   2.657   4.825  1.6506  1.4708 -0.0151
    2SAPS  H16Y  259  -0.434   2.584   4.951 -0.7020  2.1884 -0.3864
    2SAPS  C317  260  -0.451   2.447   4.782  0.7875  1.5015 -0.1155
    2SAPS  H17X  261  -0.351   2.401   4.766  0.3296 -1.2013  3.4726
    2SAPS  H17Y  262  -0.502   2.474   4.687  0.4381  0.0155 -0.3642
    2SAPS  C318  263  -0.528   2.343   4.866 -0.0966  0.1822  0.0647
    2SAPS  H18X  264  -0.614   2.391   4.916 -0.6555 -0.7255  0.0061
    2SAPS  H18Y  265  -0.454   2.305   4.940 -0.6849  0.1220  0.6276
    2SAPS  H18Z  266  -0.556   2.248   4.816 -0.0249 -2.0391  3.8828
    3SAPS     N  267   5.705   1.255   6.888 -0.0966 -0.2020 -0.2775
    3SAPS   HN1  268   5.611   1.293   6.863 -0.1910  0.0549  0.4382
    3SAPS   HN2  269   5.771   1.258   6.808  1.2491 -3.8457  0.5016
    3SAPS   HN3  270   5.678   1.157   6.908 -1.8660  0.2582 -0.2697
    3SAPS   C12  271   5.759   1.327   7.007 -0.5476 -0.3491 -0.2427
    3SAPS  H12A  272   5.673   1.351   7.069 -0.8077 -0.0243 -0.7179
    3SAPS   C13  273   5.870   1.267   7.091  0.2757  0.5188 -0.0473
    3SAPS  O13A  274   5.906   1.147   7.075 -0.0582 -0.2954  0.2140
    3SAPS  O13B  275   5.889   1.325   7.202  0.0513  0.8259  0.0691
    3SAPS   C11  276   5.810   1.458   6.947 -0.8088  0.1386  0.1516
    3SAPS  H11A  277   5.898   1.447   6.881 -1.1681  2.7305 -0.8602
    3SAPS  H11B  278   5.859   1.518   7.026 -0.4377 -1.8817  1.5410
    3SAPS     P  279   5.647   1.660   6.902  0.0672 -0.0256  0.2292
    3SAPS   O13  280   5.513   1.686   6.838 -0.1440  0.0071  0.1980
    3SAPS   O14  281   5.653   1.691   7.044 -0.1650  0.1146  0.3018
    3SAPS   O12  282   5.697   1.515   6.875 -0.0630  0.6762  0.2733
    3SAPS   O11  283   5.748   1.753   6.818  0.0494  0.4858  0.2881
    3SAPS    C1  284   5.863   1.706   6.745 -0.2775 -0.1910  0.0531
    3SAPS    HA  285   5.943   1.732   6.818  0.7918 -3.0415  0.0117
    3SAPS    HB  286   5.876   1.596   6.738  1.5253  0.0649 -1.5521
    3SAPS    C2  287   5.882   1.766   6.608 -0.1536 -0.4043 -0.6886
    3SAPS    HS  288   5.978   1.726   6.569 -0.7656 -2.0698 -0.5528
    3SAPS   O21  289   5.885   1.912   6.630  0.8735  0.1735 -0.1007
    3SAPS   C21  290   5.956   1.980   6.543  1.0780  0.3926 -0.0860
    3SAPS   O22  291   6.017   1.927   6.451 -0.1597 -0.2339 -0.5242
    3SAPS   C22  292   5.957   2.127   6.578 -0.9673 -0.0919 -0.0051
    3SAPS   H2R  293   5.888   2.136   6.665  0.8739 -0.1226  1.5035
    3SAPS   H2S  294   6.059   2.154   6.611  0.1157 -3.5746 -0.1467
    3SAPS    C3  295   5.761   1.732   6.514  0.3889 -0.2513  0.2593
    3SAPS    HX  296   5.670   1.779   6.557  1.1400  0.7294  0.8039
    3SAPS    HY  297   5.741   1.623   6.516 -0.0824 -0.1553  1.6767
    3SAPS   O31  298   5.778   1.779   6.382 -0.4867  0.1639  0.2492
    3SAPS   C31  299   5.856   1.716   6.296 -0.8273 -0.3034 -0.6037
    3SAPS   O32  300   5.927   1.617   6.320 -0.0209 -0.2044  0.6084
    3SAPS   C32  301   5.873   1.801   6.164  0.6076  0.3254 -0.3499
    3SAPS   H2X  302   5.962   1.757   6.113 -0.9622 -0.9529 -2.1656
    3SAPS   H2Y  303   5.886   1.908   6.189  0.0848 -0.1959  2.4419
    3SAPS   C23  304   5.906   2.233   6.475 -0.0451 -0.3571  0.2341
    3SAPS   H3R  305   5.866   2.320   6.531 -0.6927  0.5246 -1.5072
    3SAPS   H3S  306   5.830   2.181   6.413  1.4742 -0.3547 -1.7366
    3SAPS   C24  307   6.018   2.287   6.375  0.0851 -0.3081  0.3043
    3SAPS   H4R  308   6.054   2.190   6.333 -1.7129 -1.5046  1.3615
    3SAPS   H4S  309   6.092   2.346   6.433  0.3053 -0.9810  0.7175
    3SAPS   C25  310   5.963   2.370   6.267  0.3677 -0.1767  0.1510
    3SAPS   H5R  311   5.935   2.471   6.302 -1.4422 -0.9459  1.0167
    3SAPS   C26  312   5.952   2.348   6.131  0.7341  0.5297  0.6813
    3SAPS   H6R  313   5.913   2.422   6.060  0.4403 -0.6666 -0.4579
    3SAPS   C27  314   6.003   2.226   6.054 -0.1114  0.6135 -0.4917
    3SAPS   H7R  315   5.917   2.185   5.997 -0.5259 -1.5145  1.5102
    3SAPS   H7S  316   6.032   2.139   6.116 -0.0708 -0.1385 -1.5245
    3SAPS   C28  317   6.118   2.240   5.969 -0.8705 -0.7092 -0.3769
    3SAPS   H8R  318   6.176   2.333   5.971 -2.7756  0.5310  0.6167
    3SAPS   C29  319   6.163   2.148   5.884  0.4047  0.0946  0.4063
    3SAPS   H9R  320   6.253   2.175   5.827 -0.2738  0.6620 -0.4165
    3SAPS  C210  321   6.104   2.009   5.849  0.2100 -0.2887 -0.1050
    3SAPS  H10R  322   6.016   1.990   5.914 -0.1927 -0.1363 -0.6070
    3SAPS  H10S  323   6.168   1.922   5.878 -0.1618  0.0436  1.8603
    3SAPS  C211  324   6.065   1.995   5.707 -0.4929  0.0266  0.5855
    3SAPS  H11R  325   6.138   1.932   5.655  1.1543  1.7424  0.7285
    3SAPS  C212  326   5.952   2.023   5.642 -0.1506 -0.1601  0.3583
    3SAPS  H12R  327   5.948   2.002   5.534 -1.8361  1.2586  0.1060
    3SAPS  C213  328   5.834   2.100   5.692 -0.3424 -0.4203  0.0966
    3SAPS  H13R  329   5.814   2.187   5.626 -1.9202 -0.5832  0.3304
    3SAPS  H13S  330   5.858   2.140   5.792  1.3634 -1.7334  0.2619
    3SAPS  C214  331   5.707   2.007   5.681  0.7838  0.0164 -0.2690
    3SAPS  H14R  332   5.674   1.953   5.772  1.4821 -0.6547 -0.4083
    3SAPS  C215  333   5.640   1.977   5.564 -0.0984  0.2439  0.0972
    3SAPS  H15R  334   5.547   1.919   5.572 -2.2996  3.4195 -0.7071
    3SAPS  C216  335   5.677   2.032   5.439  0.6909  0.2543  0.5051
    3SAPS  H16R  336   5.769   1.987   5.397  1.0795  0.8960  0.6575
    3SAPS  H16S  337   5.690   2.142   5.438 -1.7686  0.5864 -0.6867
    3SAPS  C217  338   5.567   2.003   5.334  0.7117 -0.4667  0.1532
    3SAPS  H17R  339   5.475   2.055   5.367 -0.0690  0.2269 -2.8599
    3SAPS  H17S  340   5.532   1.900   5.314 -0.4776  0.0977 -0.7766
    3SAPS  C218  341   5.591   2.074   5.199 -0.5082 -0.1956  0.2279
    3SAPS  H18R  342   5.687   2.032   5.161 -1.2961 -1.6777 -0.2214
    3SAPS  H18S  343   5.611   2.182   5.215  2.2396 -0.4410 -1.0567
    3SAPS  C219  344   5.488   2.048   5.091  0.4223 -0.2569  0.4220
    3SAPS  H19R  345   5.525   2.089   4.995 -2.3872  1.7624  0.0831
    3SAPS  H19S  346   5.487   1.938   5.077  2.2329 -0.2908  0.4052
    3SAPS  C220  347   5.350   2.090   5.120 -0.4918  0.6872 -0.8260
    3SAPS  H20R  348   5.275   2.094   5.038 -2.2098  1.8769  0.6999
    3SAPS  H20S  349   5.356   2.191   5.165  0.4657 -1.3419  4.2641
    3SAPS  H20T  350   5.312   2.020   5.198  3.7544 -1.6873 -0.6231
    3SAPS   C33  351   5.745   1.793   6.076 -0.9305 -0.1292 -0.6846
    3SAPS   H3X  352   5.674   1.877   6.090 -2.1641 -1.0630 -1.0780
    3SAPS   H3Y  353   5.694   1.701   6.115  2.3508 -1.9710 -0.3896
    3SAPS   C34  354   5.777   1.767   5.927  0.7270 -0.6573 -0.4119
    3SAPS   H4X  355   5.820   1.862   5.890 -0.5316 -0.7120 -2.1158
    3SAPS   H4Y  356   5.679   1.752   5.877  0.0461 -1.7575  1.1679
    3SAPS   C35  357   5.876   1.653   5.896  0.4298 -0.2934  0.1265
    3SAPS   H5X  358   5.979   1.683   5.925  1.0101 -1.0883 -1.0561
    3SAPS   H5Y  359   5.861   1.556   5.948 -0.5877  0.5983  1.5847
    3SAPS   C36  360   5.896   1.629   5.745  0.4310  0.0760  0.2817
    3SAPS   H6X  361   5.979   1.556   5.742 -0.0061 -0.4018 -0.5277
    3SAPS   H6Y  362   5.916   1.718   5.681 -1.1379 -0.0488 -0.4207
    3SAPS   C37  363   5.778   1.556   5.674 -0.0911  0.1616 -0.0917
    3SAPS   H7X  364   5.686   1.616   5.690  0.6229  1.6860 -1.5711
    3SAPS   H7Y  365   5.771   1.462   5.733 -0.7643  0.9075  1.0601
    3SAPS   C38  366   5.802   1.514   5.535 -0.1136  0.5306  0.8411
    3SAPS   H8X  367   5.872   1.428   5.538 -0.3949  0.2991  0.7896
    3SAPS   H8Y  368   5.858   1.591   5.479 -0.8475  1.0344  0.7834
    3SAPS   C39  369   5.676   1.463   5.460 -0.4447  0.7000  0.6860
    3SAPS   H9X  370   5.607   1.550   5.457 -2.3761 -0.7816 -1.8363
    3SAPS   H9Y  371   5.632   1.372   5.505 -1.1815  0.4971 -0.4087
    3SAPS  C310  372   5.699   1.417   5.318 -0.2588  0.0736 -0.0470
    3SAPS  H10X  373   5.599   1.416   5.269 -0.4894  1.2547  0.3491
    3SAPS  H10Y  374   5.741   1.314   5.325  1.5736  0.8477  1.0801
    3SAPS  C311  375   5.795   1.498   5.232  0.0769 -0.1075 -0.0816
    3SAPS  H11X  376   5.895   1.496   5.279 -0.6065 -1.4695  1.4005
    3SAPS  H11Y  377   5.771   1.606   5.243  0.4507 -0.2294  2.7381
    3SAPS  C312  378   5.813   1.469   5.084 -0.2584  0.4778  0.4094
    3SAPS  H12X  379   5.863   1.371   5.067 -0.0890  0.3949  1.2994
    3SAPS  H12Y  380   5.878   1.545   5.036  0.3261 -1.4001 -1.9860
    3SAPS  C313  381   5.676   1.481   5.005 -0.0057  0.1941 -0.1082
    3SAPS  H13X  382   5.614   1.392   5.030 -1.4014  0.9627 -0.7270
    3SAPS  H13Y  383   5.683   1.453   4.898  2.0086 -1.5827  0.4383
    3SAPS  C314  384   5.579   1.594   5.038  0.6090 -0.2750 -0.5928
    3SAPS  H14X  385   5.634   1.690   5.044 -0.3463  0.2764 -0.4745
    3SAPS  H14Y  386   5.546   1.574   5.143  2.8829  0.5990  0.3551
    3SAPS  C315  387   5.460   1.598   4.948  0.0850  0.0366  0.4768
    3SAPS  H15X  388   5.378   1.654   4.999 -0.0776 -2.2228  2.9521
    3SAPS  H15Y  389   5.414   1.498   4.933 -0.9641  0.6784 -0.7387
    3SAPS  C316  390   5.474   1.672   4.816  0.3184  0.0017 -0.0908
    3SAPS  H16X  391   5.550   1.613   4.760 -0.9878 -1.5985 -0.2257
    3SAPS  H16Y  392   5.508   1.777   4.836 -1.5707  0.5077  0.6771
    3SAPS  C317  393   5.345   1.672   4.738 -0.0381 -0.5050 -0.7827
    3SAPS  H17X  394   5.271   1.741   4.784 -1.2394 -1.3515 -1.4106
    3SAPS  H17Y  395   5.303   1.570   4.729 -0.1976 -0.6522  1.2270
    3SAPS  C318  396   5.383   1.728   4.597  0.6576 -0.1141 -0.0290
    3SAPS  H18X  397   5.430   1.829   4.606 -0.2657  0.8739 -3.9464
    3SAPS  H18Y  398   5.290   1.746   4.537  0.3529 -0.7393  0.2512
    3SAPS  H18Z  399   5.451   1.660   4.542 -1.1539  0.3182 -3.0467
    4SAPS     N  400   3.510   5.771   7.308 -0.0648 -0.7922 -0.2607
    4SAPS   HN1  401   3.515   5.816   7.214 -0.6489  0.5065  0.3029
    4SAPS   HN2  402   3.447   5.689   7.300 -0.3980 -0.4590 -1.1498
    4SAPS   HN3  403   3.469   5.833   7.381  0.9314 -1.7931  1.2049
    4SAPS   C12  404   3.646   5.721   7.341 -0.3782  0.1747  0.1209
    4SAPS  H12A  405   3.718   5.798   7.316 -0.1898 -0.1941 -0.4895
    4SAPS   C13  406   3.665   5.675   7.490 -0.0549  0.3838 -0.1139
    4SAPS  O13A  407   3.558   5.642   7.548 -0.4013  0.1414 -0.1535
    4SAPS  O13B  408   3.780   5.649   7.538 -0.4005 -0.0354 -0.2533
    4SAPS   C11  409   3.675   5.591   7.255 -0.0198  0.5513  1.2034
    4SAPS  H11A  410   3.594   5.516   7.271  2.0442 -1.8998  0.8331
    4SAPS  H11B  411   3.770   5.553   7.298 -0.8189  0.0606  2.6089
    4SAPS     P  412   3.691   5.501   7.010  0.1262  0.0879 -0.2176
    4SAPS   O13  413   3.813   5.416   7.029 -0.4769  0.0430  0.0914
    4SAPS   O14  414   3.563   5.429   7.020  0.3264 -0.6263  0.7735
    4SAPS   O12  415   3.693   5.623   7.120  0.0583 -0.3141  0.7232
    4SAPS   O11  416   3.701   5.571   6.874  0.6234  0.2424 -0.2346
    4SAPS    C1  417   3.788   5.681   6.857  0.1618 -0.0656  0.0885
    4SAPS    HA  418   3.750   5.767   6.916  0.0883 -0.8059  1.1430
    4SAPS    HB  419   3.890   5.661   6.895 -0.0922  2.1859  2.1890
    4SAPS    C2  420   3.795   5.731   6.703 -0.1501  0.3732 -0.6948
    4SAPS    HS  421   3.700   5.784   6.684 -0.2991  0.4760  0.2984
    4SAPS   O21  422   3.818   5.616   6.619  0.1321  0.7263  0.5375
    4SAPS   C21  423   3.705   5.546   6.586 -0.3856  0.0166  0.5319
    4SAPS   O22  424   3.592   5.579   6.619 -0.6490 -0.1534 -0.1210
    4SAPS   C22  425   3.741   5.416   6.512  0.5792 -0.1714  0.1110
    4SAPS   H2R  426   3.750   5.441   6.404  4.4404 -1.1400  0.0450
    4SAPS   H2S  427   3.837   5.387   6.560  0.5021  0.1196  0.4445
    4SAPS    C3  428   3.909   5.836   6.675 -0.4121 -0.2181 -0.0938
    4SAPS    HX  429   4.006   5.782   6.678  0.9154  2.0114  2.7781
    4SAPS    HY  430   3.906   5.912   6.757 -2.7947  2.6521 -2.5812
    4SAPS   O31  431   3.890   5.907   6.548 -0.6335 -0.1660 -0.5932
    4SAPS   C31  432   3.986   5.987   6.515  0.6368 -0.5982 -0.5027
    4SAPS   O32  433   4.098   6.003   6.568 -0.2555  0.0100 -0.1714
    4SAPS   C32  434   3.936   6.050   6.386  0.0150  0.0736 -0.2610
    4SAPS   H2X  435   3.875   6.140   6.409  2.0251  1.7675 -1.1548
    4SAPS   H2Y  436   3.870   5.976   6.337  0.6168 -0.6872  0.0593
    4SAPS   C23  437   3.642   5.298   6.522 -0.0892  0.1387  0.3859
    4SAPS   H3R  438   3.603   5.294   6.626 -1.8997  0.9125 -0.2312
    4SAPS   H3S  439   3.716   5.216   6.511  0.5125  0.8415 -1.0965
    4SAPS   C24  440   3.522   5.296   6.418 -0.6570  0.0267  0.5379
    4SAPS   H4R  441   3.469   5.394   6.427 -0.3927  0.3572 -1.1775
    4SAPS   H4S  442   3.453   5.214   6.446 -0.6662 -0.4246 -0.7666
    4SAPS   C25  443   3.581   5.267   6.283  0.1489  0.2718  0.5696
    4SAPS   H5R  444   3.621   5.165   6.278  1.2087  0.7456 -2.2665
    4SAPS   C26  445   3.576   5.349   6.175 -0.1737  0.3143 -0.1453
    4SAPS   H6R  446   3.638   5.317   6.090 -0.1009 -3.5187  1.1651
    4SAPS   C27  447   3.528   5.496   6.171 -0.7012  0.1717  0.4209
    4SAPS   H7R  448   3.624   5.549   6.151  0.1756 -1.2885  0.6516
    4SAPS   H7S  449   3.508   5.531   6.275  1.2320  0.7852  0.6199
    4SAPS   C28  450   3.407   5.528   6.083 -0.2402 -0.1510  0.7190
    4SAPS   H8R  451   3.313   5.522   6.140 -0.2836 -0.4944  0.6099
    4SAPS   C29  452   3.415   5.554   5.948 -0.1866 -0.0935 -0.8430
    4SAPS   H9R  453   3.324   5.571   5.890  0.4260 -1.1481 -2.1656
    4SAPS  C210  454   3.538   5.565   5.867  0.3936 -0.0355 -0.6157
    4SAPS  H10R  455   3.631   5.542   5.923 -1.4765 -0.0854  2.7263
    4SAPS  H10S  456   3.545   5.674   5.842  1.5957 -0.0150 -0.2478
    4SAPS  C211  457   3.528   5.474   5.743  0.2887  0.2249 -0.1653
    4SAPS  H11R  458   3.517   5.367   5.768 -1.8054 -0.1383 -2.3347
    4SAPS  C212  459   3.509   5.523   5.618  0.3637  0.2484 -0.7050
    4SAPS  H12R  460   3.497   5.444   5.542 -2.1201 -1.9729  1.7645
    4SAPS  C213  461   3.509   5.670   5.577  0.6904  0.4383  0.3100
    4SAPS  H13R  462   3.560   5.697   5.483  0.3804 -0.5417 -0.1502
    4SAPS  H13S  463   3.549   5.733   5.659 -0.5827  0.8704  0.6151
    4SAPS  C214  464   3.364   5.714   5.560  0.1949 -0.4210  0.1794
    4SAPS  H14R  465   3.300   5.699   5.648  1.0785  1.6640  1.2582
    4SAPS  C215  466   3.311   5.769   5.449  0.2476 -0.4241  0.3395
    4SAPS  H15R  467   3.205   5.796   5.440  0.6382  0.8982 -0.7238
    4SAPS  C216  468   3.389   5.815   5.330 -0.0645  0.2069  0.8397
    4SAPS  H16R  469   3.484   5.856   5.371 -0.0564 -0.3597  1.4112
    4SAPS  H16S  470   3.342   5.899   5.275  1.3607 -1.0002 -2.4905
    4SAPS  C217  471   3.444   5.706   5.237 -0.3930  0.3701  0.0024
    4SAPS  H17R  472   3.524   5.643   5.281 -1.5350 -0.6089  0.7478
    4SAPS  H17S  473   3.493   5.758   5.152  1.5574 -1.0725  0.1854
    4SAPS  C218  474   3.344   5.596   5.184  0.1770 -0.3603  0.3399
    4SAPS  H18R  475   3.306   5.530   5.264 -0.2640  1.0078  1.3001
    4SAPS  H18S  476   3.387   5.533   5.103 -0.7454  0.1132 -0.5496
    4SAPS  C219  477   3.217   5.655   5.114  0.2752  0.3936  1.0359
    4SAPS  H19R  478   3.183   5.748   5.165  0.3623  0.2479  1.3655
    4SAPS  H19S  479   3.135   5.581   5.126  2.0037 -1.6036  1.1238
    4SAPS  C220  480   3.235   5.679   4.967 -0.3270  0.8323 -0.5385
    4SAPS  H20R  481   3.320   5.742   4.932  0.4122 -0.3101 -0.9033
    4SAPS  H20S  482   3.140   5.709   4.919 -1.4811 -2.9190 -0.9630
    4SAPS  H20T  483   3.258   5.582   4.916 -1.4320 -0.8941  2.0551
    4SAPS   C33  484   4.054   6.077   6.291  0.1956  0.1294  0.7120
    4SAPS   H3X  485   4.091   5.982   6.248 -2.3527  0.5050 -2.7211
    4SAPS   H3Y  486   4.139   6.122   6.348  1.0755 -1.2648  0.5506
    4SAPS   C34  487   4.020   6.152   6.164  0.9963 -0.6017  0.5631
    4SAPS   H4X  488   4.086   6.241   6.164 -1.6401  1.4993  1.8474
    4SAPS   H4Y  489   3.918   6.194   6.176  0.1374 -2.4047 -0.0518
    4SAPS   C35  490   4.014   6.071   6.033  0.5140 -0.0400 -0.0638
    4SAPS   H5X  491   3.928   6.001   6.031 -0.8854  1.5826 -2.3324
    4SAPS   H5Y  492   4.105   6.008   6.029  0.1546 -0.7213  1.6334
    4SAPS   C36  493   4.008   6.164   5.911 -0.0929  0.1820  0.1891
    4SAPS   H6X  494   4.081   6.247   5.914  0.4272 -0.2616  0.0454
    4SAPS   H6Y  495   3.907   6.210   5.915 -0.1590  0.0141  0.6123
    4SAPS   C37  496   4.023   6.081   5.782 -0.1714 -0.6994  0.1282
    4SAPS   H7X  497   4.079   5.989   5.808  0.6432  0.0631  1.1880
    4SAPS   H7Y  498   4.098   6.130   5.716 -0.1530  1.7051  1.8006
    4SAPS   C38  499   3.896   6.035   5.708  0.4416  0.5504  0.3191
    4SAPS   H8X  500   3.856   6.124   5.654  2.1509  0.1822 -1.6855
    4SAPS   H8Y  501   3.826   5.995   5.784 -2.1476  0.3203 -1.9951
    4SAPS   C39  502   3.924   5.918   5.607  0.8968  0.2093 -0.5580
    4SAPS   H9X  503   3.891   5.824   5.656 -1.1184  0.2299 -1.7833
    4SAPS   H9Y  504   4.035   5.909   5.607  1.0040  1.3482 -0.1023
    4SAPS  C310  505   3.852   5.945   5.472  0.2850  0.3673 -0.3028
    4SAPS  H10X  506   3.879   6.046   5.434  1.1144  0.2457 -0.0564
    4SAPS  H10Y  507   3.742   5.949   5.492 -0.4431 -0.4988 -3.5713
    4SAPS  C311  508   3.887   5.848   5.367 -1.0556  0.3323 -0.0547
    4SAPS  H11X  509   3.858   5.745   5.397 -2.1162 -0.0334 -2.1609
    4SAPS  H11Y  510   3.995   5.867   5.344 -0.3173 -0.2992  2.5579
    4SAPS  C312  511   3.811   5.868   5.234  0.9266 -0.4053  0.2848
    4SAPS  H12X  512   3.791   5.977   5.223 -2.0026 -0.8155  0.7068
    4SAPS  H12Y  513   3.711   5.820   5.239 -0.2452  1.9221  0.6080
    4SAPS  C313  514   3.875   5.817   5.108  1.1170 -0.2200 -0.0422
    4SAPS  H13X  515   3.968   5.876   5.093  0.0061  1.9246  1.0827
    4SAPS  H13Y  516   3.797   5.833   5.030  0.8150  0.6599  0.4366
    4SAPS  C314  517   3.909   5.671   5.097  0.5920  0.4949  0.2806
    4SAPS  H14X  518   3.994   5.651   5.166 -0.1933  1.1299  1.4831
    4SAPS  H14Y  519   3.948   5.665   4.994 -1.1241 -0.1382 -0.3611
    4SAPS  C315  520   3.797   5.569   5.094 -0.2228  0.0752 -0.1744
    4SAPS  H15X  521   3.714   5.587   5.022 -0.1876  1.6725  0.1657
    4SAPS  H15Y  522   3.755   5.572   5.196 -0.1174  1.2751 -0.1593
    4SAPS  C316  523   3.847   5.420   5.079  1.1468 -0.6598 -0.1895
    4SAPS  H16X  524   3.956   5.422   5.099  1.0731  1.6618  0.3063
    4SAPS  H16Y  525   3.827   5.379   4.978  1.1810 -2.8200  0.6455
    4SAPS  C317  526   3.805   5.329   5.191 -0.7499  0.3369  0.3515
    4SAPS  H17X  527   3.696   5.309   5.186 -0.7539 -1.6110  4.2999
    4SAPS  H17Y  528   3.831   5.373   5.290 -0.7314  1.8644 -0.3179
    4SAPS  C318  529   3.874   5.190   5.182  0.0240  0.0424 -0.9983
    4SAPS  H18X  530   3.855   5.136   5.086  1.4837 -2.1171 -0.1377
    4SAPS  H18Y  531   3.830   5.131   5.265  1.5110  0.2112 -0.0588
    4SAPS  H18Z  532   3.981   5.201   5.210 -0.6716  0.2623  1.8865
    5SAPS     N  533   5.583   4.006   7.450 -0.2505 -0.3506 -0.1921
    5SAPS   HN1  534   5.574   3.905   7.430 -0.7355 -0.3602  0.0634
    5SAPS   HN2  535   5.507   4.044   7.510  0.5216 -0.6713  1.0191
    5SAPS   HN3  536   5.593   4.054   7.358  1.7290 -1.1999 -0.4665
    5SAPS   C12  537   5.720   4.015   7.512  0.1776 -0.3262  0.0971
    5SAPS  H12A  538   5.796   4.042   7.439 -1.3188  1.5503 -0.8319
    5SAPS   C13  539   5.724   4.125   7.622  0.4113 -0.0235 -0.6820
    5SAPS  O13A  540   5.616   4.169   7.668  0.4518  0.2608  0.2807
    5SAPS  O13B  541   5.834   4.151   7.681 -0.2338  0.7956  0.4292
    5SAPS   C11  542   5.754   3.887   7.587  1.0131 -0.5711  0.8953
    5SAPS  H11A  543   5.694   3.881   7.680 -0.0562  2.1265  0.4823
    5SAPS  H11B  544   5.859   3.896   7.621  0.8541  0.7794  1.0664
    5SAPS     P  545   5.850   3.708   7.436  0.2689  0.4666  0.1649
    5SAPS   O13  546   5.960   3.693   7.533 -0.8742 -0.1443 -0.0670
    5SAPS   O14  547   5.798   3.582   7.374 -0.1133  0.4906  0.3233
    5SAPS   O12  548   5.723   3.775   7.501  0.3496 -0.3010  0.1695
    5SAPS   O11  549   5.874   3.812   7.319 -0.2870 -0.3886  0.5469
    5SAPS    C1  550   5.827   3.785   7.187  0.2870 -0.2752  0.0473
    5SAPS    HA  551   5.722   3.750   7.180 -0.7353  2.6203 -0.5310
    5SAPS    HB  552   5.827   3.882   7.133  0.3757  0.4539  1.3102
    5SAPS    C2  553   5.925   3.692   7.109 -0.0546  0.7728  0.1390
    5SAPS    HS  554   5.953   3.618   7.188 -0.1150  0.8426  0.2258
    5SAPS   O21  555   6.037   3.779   7.070 -0.5520 -0.2235 -0.4389
    5SAPS   C21  556   6.156   3.726   7.062 -0.2486 -0.1881  0.1649
    5SAPS   O22  557   6.189   3.615   7.102  0.1840  0.2664  0.2957
    5SAPS   C22  558   6.256   3.831   7.001 -0.3317  0.0430  0.5347
    5SAPS   H2R  559   6.236   3.932   7.042  0.7174 -0.3556  2.1213
    5SAPS   H2S  560   6.351   3.797   7.047 -0.4923  1.0459  1.6463
    5SAPS    C3  561   5.863   3.623   6.980  0.6556  0.3478 -0.0917
    5SAPS    HX  562   5.793   3.543   7.012  0.6173 -0.3678 -1.8719
    5SAPS    HY  563   5.942   3.570   6.924 -2.3234 -1.3151 -3.0643
    5SAPS   O31  564   5.789   3.722   6.901  0.3799 -0.8495 -0.2511
    5SAPS   C31  565   5.829   3.758   6.783  1.0714  1.4083 -0.5814
    5SAPS   O32  566   5.935   3.726   6.730  0.1034 -0.1078 -0.1854
    5SAPS   C32  567   5.715   3.831   6.715 -0.3492 -0.0099  0.1759
    5SAPS   H2X  568   5.639   3.863   6.790  0.1249  1.6618 -0.0161
    5SAPS   H2Y  569   5.669   3.765   6.639 -0.6981  1.3221 -0.8151
    5SAPS   C23  570   6.261   3.827   6.844  0.5756 -0.0186  0.1917
    5SAPS   H3R  571   6.166   3.854   6.793  0.3754 -0.4556  0.3264
    5SAPS   H3S  572   6.286   3.723   6.813  1.0249  0.7685 -2.2785
    5SAPS   C24  573   6.372   3.914   6.781  0.7239 -0.1910  0.1649
    5SAPS   H4R  574   6.353   4.023   6.796 -1.9008 -0.7199  1.3004
    5SAPS   H4S  575   6.363   3.898   6.672  0.2566 -0.9970  0.3103
    5SAPS   C25  576   6.501   3.866   6.823 -0.6346  0.4004 -0.0725
    5SAPS   H5R  577   6.514   3.872   6.932 -0.3860  1.3072 -0.1435
    5SAPS   C26  578   6.596   3.801   6.754 -0.3899  0.5833 -0.2508
    5SAPS   H6R  579   6.688   3.772   6.806 -0.6338 -0.5124 -0.4048
    5SAPS   C27  580   6.601   3.758   6.610  0.0697 -0.1330 -0.2909
    5SAPS   H7R  581   6.705   3.726   6.589  0.0484 -0.6820  0.4031
    5SAPS   H7S  582   6.586   3.844   6.541 -2.1595 -0.4023 -0.2239
    5SAPS   C28  583   6.516   3.640   6.574  0.4139  0.0183 -0.4943
    5SAPS   H8R  584   6.441   3.612   6.649 -0.2772 -1.3906 -1.6650
    5SAPS   C29  585   6.504   3.588   6.447 -0.4798  1.0830  0.1966
    5SAPS   H9R  586   6.430   3.508   6.430  1.6338 -1.2831  1.3884
    5SAPS  C210  587   6.593   3.612   6.329  0.6165 -0.8215  0.3546
    5SAPS  H10R  588   6.660   3.696   6.358 -0.3221  0.0633  0.0227
    5SAPS  H10S  589   6.553   3.649   6.232 -1.4399 -1.0354  1.0773
    5SAPS  C211  590   6.674   3.492   6.298  0.2905  0.0715  0.6929
    5SAPS  H11R  591   6.717   3.442   6.387  2.2382 -0.1409 -0.3142
    5SAPS  C212  592   6.700   3.440   6.175 -0.7705  0.3335 -0.3165
    5SAPS  H12R  593   6.763   3.350   6.178 -0.5427  0.5236  1.6520
    5SAPS  C213  594   6.652   3.491   6.039  0.6169  0.0214  0.2972
    5SAPS  H13R  595   6.689   3.595   6.030  2.1352 -0.5152  0.1363
    5SAPS  H13S  596   6.542   3.487   6.022  0.7052  1.8813 -1.0088
    5SAPS  C214  597   6.739   3.409   5.936 -0.4136 -0.2209 -0.4650
    5SAPS  H14R  598   6.810   3.333   5.969  1.9468  1.2499 -1.8628
    5SAPS  C215  599   6.728   3.407   5.800 -0.1634  0.4222 -0.1139
    5SAPS  H15R  600   6.780   3.331   5.740 -1.7066 -0.7771 -0.0116
    5SAPS  C216  601   6.636   3.488   5.715  0.4908  0.2739 -0.5343
    5SAPS  H16R  602   6.563   3.541   5.779  0.8403  2.3261 -1.7247
    5SAPS  H16S  603   6.575   3.421   5.650 -0.2424  0.8989 -0.5016
    5SAPS  C217  604   6.726   3.587   5.642  0.8116 -0.5250  0.1111
    5SAPS  H17R  605   6.779   3.644   5.721  0.5793 -1.8447  1.2647
    5SAPS  H17S  606   6.653   3.650   5.588 -0.1925 -2.1723 -0.5215
    5SAPS  C218  607   6.818   3.525   5.531 -0.2995 -0.5598  0.4785
    5SAPS  H18R  608   6.899   3.464   5.577  2.5090  1.9830 -0.7726
    5SAPS  H18S  609   6.867   3.611   5.482 -1.2843 -0.3446 -0.1303
    5SAPS  C219  610   6.749   3.423   5.429  0.2581 -0.4500 -0.0632
    5SAPS  H19R  611   6.655   3.470   5.392 -0.2784 -0.5144  1.1600
    5SAPS  H19S  612   6.715   3.330   5.478 -2.1101  0.9139  1.0925
    5SAPS  C220  613   6.842   3.376   5.313  0.2108 -0.5130  0.2498
    5SAPS  H20R  614   6.781   3.319   5.240  1.7603 -2.3789  0.3402
    5SAPS  H20S  615   6.931   3.324   5.354  0.8244 -0.0905 -0.4977
    5SAPS  H20T  616   6.859   3.473   5.260 -0.5778 -0.6880 -0.3344
    5SAPS   C33  617   5.762   3.941   6.614  0.2262 -0.1089 -0.4677
    5SAPS   H3X  618   5.831   3.899   6.538  1.1590 -0.1654  0.3920
    5SAPS   H3Y  619   5.814   4.020   6.672 -1.2999  0.0831  0.7113
    5SAPS   C34  620   5.644   4.014   6.551 -0.0315  0.1010 -0.9300
    5SAPS   H4X  621   5.677   4.117   6.525 -0.9170  0.6604  0.0772
    5SAPS   H4Y  622   5.558   4.018   6.621  0.4411 -3.1013 -0.0019
    5SAPS   C35  623   5.593   3.948   6.427  0.5841 -0.2361  0.2466
    5SAPS   H5X  624   5.491   3.986   6.405 -0.1681 -0.8207  2.5163
    5SAPS   H5Y  625   5.594   3.837   6.433  0.5459 -0.3963 -1.9069
    5SAPS   C36  626   5.678   3.985   6.305 -0.7257  0.3263  0.4644
    5SAPS   H6X  627   5.775   3.934   6.320 -1.0810 -0.7177 -0.6519
    5SAPS   H6Y  628   5.679   4.096   6.313 -0.1982  0.2990  0.7496
    5SAPS   C37  629   5.598   3.945   6.180 -0.3251 -0.1012  0.5462
    5SAPS   H7X  630   5.505   4.007   6.177 -0.5159 -0.3739  0.8811
    5SAPS   H7Y  631   5.568   3.838   6.177 -0.1999 -0.1208 -1.2333
    5SAPS   C38  632   5.679   3.970   6.048 -0.3778 -0.0428  0.7090
    5SAPS   H8X  633   5.782   3.933   6.068  0.0799  0.3391 -0.8115
    5SAPS   H8Y  634   5.707   4.077   6.040  3.2192 -0.8773  0.5989
    5SAPS   C39  635   5.613   3.908   5.921 -0.0678 -0.4503 -0.0311
    5SAPS   H9X  636   5.513   3.952   5.899  0.3951  1.0038  0.6273
    5SAPS   H9Y  637   5.599   3.801   5.943 -1.0549 -0.9426 -2.6665
    5SAPS  C310  638   5.703   3.915   5.797 -0.0762 -0.7663 -0.8556
    5SAPS  H10X  639   5.784   3.840   5.812  0.0033 -0.1961  2.1253
    5SAPS  H10Y  640   5.754   4.012   5.811  1.6777 -2.0070  2.5461
    5SAPS  C311  641   5.629   3.911   5.658  0.3663  0.2370 -0.2116
    5SAPS  H11X  642   5.557   3.995   5.659  1.1791  0.9475 -0.5082
    5SAPS  H11Y  643   5.558   3.826   5.648  0.0271  0.6241 -1.2367
    5SAPS  C312  644   5.721   3.924   5.535 -0.0489  0.5907 -1.4295
    5SAPS  H12X  645   5.767   3.824   5.519  1.7983  1.2499 -0.4985
    5SAPS  H12Y  646   5.788   4.012   5.539 -0.1980  0.6660  0.0100
    5SAPS  C313  647   5.632   3.941   5.411  0.8188  0.3162 -0.3865
    5SAPS  H13X  648   5.592   4.044   5.410 -0.3339 -0.0955  0.7933
    5SAPS  H13Y  649   5.559   3.857   5.417  1.4311 -0.2172 -0.2554
    5SAPS  C314  650   5.708   3.927   5.279 -0.2782  0.7308 -0.0100
    5SAPS  H14X  651   5.772   3.836   5.278 -1.2351  0.0019 -2.2331
    5SAPS  H14Y  652   5.768   4.019   5.267 -1.2620  1.3506 -0.3064
    5SAPS  C315  653   5.626   3.912   5.156  0.0030 -0.4614 -0.0693
    5SAPS  H15X  654   5.571   3.816   5.163 -1.4818  0.4293  0.8894
    5SAPS  H15Y  655   5.700   3.910   5.073  2.4959  0.1580  1.9936
    5SAPS  C316  656   5.523   4.024   5.137 -0.3590 -0.5055 -0.0390
    5SAPS  H16X  657   5.556   4.121   5.181 -2.9986  0.5453 -0.1750
    5SAPS  H16Y  658   5.435   3.982   5.190  0.0618 -0.8281  0.4202
    5SAPS  C317  659   5.484   4.044   4.989  0.0971  0.0570 -0.5765
    5SAPS  H17X  660   5.575   4.076   4.935  0.7708  0.5184  0.7938
    5SAPS  H17Y  661   5.417   4.132   4.993  0.6750  0.5249 -1.0933
    5SAPS  C318  662   5.422   3.919   4.926 -0.1650  0.3405  0.2380
    5SAPS  H18X  663   5.326   3.888   4.972 -0.1577 -2.8704 -1.5997
    5SAPS  H18Y  664   5.491   3.831   4.926 -1.1547 -0.4668 -0.6471
    5SAPS  H18Z  665   5.392   3.924   4.819 -0.8630 -1.0746  0.3449
    6SAPS     N  666   4.092   3.951   7.426 -0.1717  0.1638 -0.6891
    6SAPS   HN1  667   4.159   3.960   7.506 -0.7994  0.0621 -0.1381
    6SAPS   HN2  668   4.019   4.026   7.427  0.7594  1.1195 -1.6936
    6SAPS   HN3  669   4.049   3.858   7.445 -1.4450  0.9136  0.3031
    6SAPS   C12  670   4.160   3.948   7.285  0.1025 -0.4438  0.0166
    6SAPS  H12A  671   4.202   4.045   7.265  0.0771 -0.6870 -1.2918
    6SAPS   C13  672   4.274   3.839   7.278  0.6534  0.4218 -0.2001
    6SAPS  O13A  673   4.315   3.784   7.385  0.2718  0.1867  0.0477
    6SAPS  O13B  674   4.318   3.810   7.160  0.0203 -0.3182  0.5281
    6SAPS   C11  675   4.047   3.917   7.189  0.3411 -0.3207  0.3824
    6SAPS  H11A  676   4.009   3.813   7.193 -1.1895  0.1396 -0.9447
    6SAPS  H11B  677   4.089   3.931   7.087  1.7777 -0.5098  0.9260
    6SAPS     P  678   3.798   3.983   7.143 -0.0211 -0.1097 -0.0388
    6SAPS   O13  679   3.766   3.840   7.147  0.2621  0.3642  0.1221
    6SAPS   O14  680   3.699   4.082   7.198  0.0750  0.2455 -0.2299
    6SAPS   O12  681   3.936   4.004   7.208  0.4530  0.3376 -0.3437
    6SAPS   O11  682   3.828   4.006   6.985 -0.6075 -0.2284  0.3557
    6SAPS    C1  683   3.837   4.135   6.947 -0.0237 -0.1258  0.8940
    6SAPS    HA  684   3.841   4.208   7.030  0.3147 -0.3376  1.0641
    6SAPS    HB  685   3.925   4.164   6.885 -1.6364  1.2383 -0.9083
    6SAPS    C2  686   3.716   4.179   6.859  0.3502  0.3155 -0.3987
    6SAPS    HS  687   3.629   4.164   6.926  0.3787 -1.6266 -0.7491
    6SAPS   O21  688   3.703   4.089   6.748 -0.6563 -0.5137 -0.1013
    6SAPS   C21  689   3.584   4.102   6.689  0.0268  0.1325 -0.0958
    6SAPS   O22  690   3.488   4.154   6.741 -0.1573  0.0364 -0.6400
    6SAPS   C22  691   3.598   4.061   6.542 -0.9074  0.1700 -0.4202
    6SAPS   H2R  692   3.648   4.147   6.493 -2.4520  0.6487 -1.2301
    6SAPS   H2S  693   3.671   3.978   6.537 -0.6345  0.4687 -1.6327
    6SAPS    C3  694   3.726   4.326   6.802  0.1751  0.0242  0.0397
    6SAPS    HX  695   3.736   4.401   6.884  2.0683  1.0509 -1.0697
    6SAPS    HY  696   3.629   4.358   6.758  1.3650  1.2400 -1.8310
    6SAPS   O31  697   3.835   4.343   6.719 -0.3558 -0.1894  0.1804
    6SAPS   C31  698   3.814   4.383   6.595 -0.0989  0.2670  0.4372
    6SAPS   O32  699   3.704   4.390   6.546 -0.1078 -0.0443  0.2197
    6SAPS   C32  700   3.956   4.423   6.536  0.0723 -0.1008  0.3796
    6SAPS   H2X  701   4.028   4.357   6.589  0.5596 -0.2917 -0.4931
    6SAPS   H2Y  702   3.980   4.526   6.571 -0.8669 -0.6463  2.8725
    6SAPS   C23  703   3.475   4.027   6.463  0.3168 -0.2990  0.2442
    6SAPS   H3R  704   3.393   4.101   6.480  0.1383 -0.6774  1.1125
    6SAPS   H3S  705   3.438   3.931   6.505 -0.3451  0.8693  2.5486
    6SAPS   C24  706   3.499   3.993   6.314 -0.3375 -0.1117 -0.0216
    6SAPS   H4R  707   3.408   4.000   6.250 -0.1097  1.1182 -0.2288
    6SAPS   H4S  708   3.532   3.887   6.309  0.3638  0.1050 -0.1373
    6SAPS   C25  709   3.612   4.063   6.237  0.1544 -0.2967  0.7832
    6SAPS   H5R  710   3.708   4.009   6.241 -0.8027 -2.0929  0.3658
    6SAPS   C26  711   3.593   4.184   6.176  0.2572 -0.4915  0.4447
    6SAPS   H6R  712   3.685   4.226   6.134  0.6804 -0.9981  0.8462
    6SAPS   C27  713   3.462   4.265   6.171 -0.5384  0.3369  0.2856
    6SAPS   H7R  714   3.373   4.203   6.197  0.6989 -2.0942 -0.9250
    6SAPS   H7S  715   3.437   4.293   6.066 -0.4467 -0.8519 -0.0632
    6SAPS   C28  716   3.470   4.392   6.248 -0.2523 -0.2218 -0.0171
    6SAPS   H8R  717   3.538   4.393   6.335 -0.9418  0.7785  0.5297
    6SAPS   C29  718   3.379   4.495   6.237  0.4832 -0.2605 -0.1242
    6SAPS   H9R  719   3.395   4.591   6.289 -0.2451  1.5356 -3.0207
    6SAPS  C210  720   3.271   4.512   6.136 -0.6057  0.0690  0.5225
    6SAPS  H10R  721   3.272   4.423   6.069  1.9284 -1.4102  2.3073
    6SAPS  H10S  722   3.304   4.590   6.065  0.0490 -0.2338  0.4837
    6SAPS  C211  723   3.139   4.540   6.200  0.1384  0.5696  0.2337
    6SAPS  H11R  724   3.133   4.525   6.308  0.7775  1.0758  0.3442
    6SAPS  C212  725   3.034   4.583   6.131  0.3150 -0.3336 -0.2579
    6SAPS  H12R  726   2.946   4.621   6.185  0.0985  0.1758 -0.9533
    6SAPS  C213  727   3.031   4.613   5.987 -0.1690  0.0510  0.4760
    6SAPS  H13R  728   2.943   4.566   5.937  0.8401 -1.3570 -0.0543
    6SAPS  H13S  729   3.108   4.548   5.939 -0.5459 -0.2603  0.2801
    6SAPS  C214  730   3.047   4.757   5.961  0.6290 -0.2577  1.5280
    6SAPS  H14R  731   3.026   4.835   6.036  0.0613  1.8632 -0.7377
    6SAPS  C215  732   3.073   4.815   5.843 -0.5164  0.4242 -0.6012
    6SAPS  H15R  733   3.073   4.925   5.850  0.4188  0.3436  1.3864
    6SAPS  C216  734   3.101   4.733   5.720  0.1745 -0.2519  0.5373
    6SAPS  H16R  735   3.159   4.641   5.743 -1.4838 -1.3447  0.6244
    6SAPS  H16S  736   3.168   4.787   5.650 -0.2359  0.3597  0.6048
    6SAPS  C217  737   2.978   4.698   5.640  0.2439 -1.0287  0.0853
    6SAPS  H17R  738   2.940   4.800   5.618  2.7665  0.1020  0.6283
    6SAPS  H17S  739   2.900   4.636   5.688  1.0998 -3.4091 -1.4139
    6SAPS  C218  740   3.018   4.609   5.514  0.6206  0.2299  0.3969
    6SAPS  H18R  741   2.920   4.605   5.461  1.1628 -1.4886 -0.5472
    6SAPS  H18S  742   3.044   4.502   5.528  0.1876  0.0149 -0.3726
    6SAPS  C219  743   3.120   4.684   5.428  0.2416 -0.2974  0.2253
    6SAPS  H19R  744   3.223   4.663   5.464  0.9953 -0.4138 -1.8125
    6SAPS  H19S  745   3.111   4.794   5.437  0.9938 -0.1509 -0.6364
    6SAPS  C220  746   3.124   4.663   5.280 -0.1014 -0.3805 -0.0947
    6SAPS  H20R  747   3.188   4.579   5.245  1.6312  0.8001  0.1607
    6SAPS  H20S  748   3.158   4.759   5.236  0.3398 -1.2537 -1.7441
    6SAPS  H20T  749   3.025   4.639   5.235 -1.3808  0.3500  2.1809
    6SAPS   C33  750   3.960   4.404   6.386 -0.0449 -0.2111 -0.5998
    6SAPS   H3X  751   4.056   4.448   6.353 -1.4770  2.3673 -1.5754
    6SAPS   H3Y  752   3.871   4.453   6.340 -1.5680 -0.7956  1.5345
    6SAPS   C34  753   3.969   4.262   6.334 -0.2065  1.1812  0.2344
    6SAPS   H4X  754   3.870   4.213   6.343 -0.1086  1.0926  0.8245
    6SAPS   H4Y  755   4.051   4.216   6.394  2.0315  4.2633 -0.1729
    6SAPS   C35  756   4.014   4.271   6.188 -0.2464 -0.9009 -0.0962
    6SAPS   H5X  757   4.120   4.304   6.180 -0.0170 -1.5713  0.1132
    6SAPS   H5Y  758   3.956   4.346   6.131 -0.0304 -1.6272 -1.2934
    6SAPS   C36  759   3.998   4.132   6.108 -0.0169 -0.0082 -0.1267
    6SAPS   H6X  760   3.893   4.096   6.119  0.2824 -1.2675 -1.1509
    6SAPS   H6Y  761   4.074   4.065   6.154  1.0200  0.7185 -0.7432
    6SAPS   C37  762   4.030   4.124   5.959  0.2112  0.1008  0.8946
    6SAPS   H7X  763   4.081   4.027   5.938 -0.8464  0.1611 -2.5638
    6SAPS   H7Y  764   4.098   4.209   5.939 -1.1228  1.2351  0.9865
    6SAPS   C38  765   3.907   4.145   5.864  0.5911  0.3615  0.1167
    6SAPS   H8X  766   3.834   4.225   5.887  0.1718 -0.1516  0.5976
    6SAPS   H8Y  767   3.850   4.051   5.880  1.6143 -0.5959 -1.5205
    6SAPS   C39  768   3.934   4.121   5.711 -0.1955 -0.2924  0.4534
    6SAPS   H9X  769   4.020   4.053   5.693  1.9916  2.1752  1.0063
    6SAPS   H9Y  770   3.985   4.217   5.688  2.3281 -1.5937  0.2182
    6SAPS  C310  771   3.821   4.106   5.617  0.4483  0.3631 -0.4982
    6SAPS  H10X  772   3.740   4.175   5.650  0.2744 -0.3231  0.5756
    6SAPS  H10Y  773   3.769   4.008   5.625  1.9084 -0.2776  2.7362
    6SAPS  C311  774   3.855   4.131   5.472 -0.9101 -0.1746 -0.1769
    6SAPS  H11X  775   3.784   4.089   5.398 -0.1966 -0.8635 -0.4751
    6SAPS  H11Y  776   3.956   4.096   5.444  0.1516  3.6068 -1.7555
    6SAPS  C312  777   3.855   4.286   5.451  0.1540  0.3347  0.4686
    6SAPS  H12X  778   3.902   4.330   5.541  2.5948  0.6878 -0.8932
    6SAPS  H12Y  779   3.755   4.332   5.433 -0.0006  0.3607  1.3708
    6SAPS  C313  780   3.958   4.324   5.342  0.1975 -1.2928  0.1423
    6SAPS  H13X  781   3.931   4.256   5.258 -0.7166 -0.2954 -0.4112
    6SAPS  H13Y  782   4.058   4.303   5.385 -0.7613 -1.1981  2.5536
    6SAPS  C314  783   3.954   4.472   5.289 -0.3559 -0.4220 -0.5588
    6SAPS  H14X  784   3.857   4.477   5.235  0.8735  1.3065 -2.8063
    6SAPS  H14Y  785   4.037   4.493   5.219 -0.1037  1.1242  0.1419
    6SAPS  C315  786   3.949   4.577   5.402  0.2748 -0.2728  0.4182
    6SAPS  H15X  787   4.000   4.531   5.488 -0.3549 -1.1555  0.3350
    6SAPS  H15Y  788   3.839   4.586   5.421 -0.0293 -0.3346 -1.1169
    6SAPS  C316  789   3.988   4.716   5.353 -0.0382  0.1035  0.5401
    6SAPS  H16X  790   3.927   4.760   5.271 -1.3510  2.2239  2.5323
    6SAPS  H16Y  791   4.090   4.694   5.316 -0.8302  0.4304 -2.0529
    6SAPS  C317  792   3.992   4.829   5.465  0.0380 -0.5268  0.4925
    6SAPS  H17X  793   4.037   4.926   5.435 -2.4752  1.1735  1.9361
    6SAPS  H17Y  794   4.062   4.791   5.542  0.7585 -0.6831 -0.2227
    6SAPS  C318  795   3.852   4.864   5.517 -0.7796  0.0084  0.0590
    6SAPS  H18X  796   3.791   4.773   5.537  0.2474 -0.9517 -1.0296
    6SAPS  H18Y  797   3.789   4.924   5.448 -0.7566  0.5180  0.4801
    6SAPS  H18Z  798   3.856   4.927   5.608  1.3946  2.9156 -1.8441
    7SAPS     N  799   4.988   4.004   7.334 -0.4282  0.1935  0.0413
    7SAPS   HN1  800   5.013   4.105   7.338  1.4655 -0.1742 -1.1627
    7SAPS   HN2  801   4.925   3.978   7.255  2.1003 -1.0512 -1.7117
    7SAPS   HN3  802   4.937   3.981   7.421 -2.4905 -2.0612 -1.6076
    7SAPS   C12  803   5.118   3.925   7.319  0.2001 -0.2519 -0.9490
    7SAPS  H12A  804   5.194   3.950   7.392 -1.0199 -1.0519  0.6427
    7SAPS   C13  805   5.083   3.776   7.335  0.1479 -0.2490  0.5877
    7SAPS  O13A  806   4.975   3.734   7.281  0.2789  0.1581  0.1655
    7SAPS  O13B  807   5.173   3.692   7.369  0.0897 -0.0426 -0.0127
    7SAPS   C11  808   5.191   3.955   7.186  0.1380 -0.3689  1.1051
    7SAPS  H11A  809   5.115   3.954   7.105  0.9090  2.0161  0.2914
    7SAPS  H11B  810   5.258   3.873   7.152 -2.3727 -1.2335 -2.2237
    7SAPS     P  811   5.226   4.207   7.106  0.1633  0.1446  0.0197
    7SAPS   O13  812   5.082   4.204   7.078  0.3100 -0.4065  0.3189
    7SAPS   O14  813   5.287   4.328   7.163  0.1338  0.2868 -0.4171
    7SAPS   O12  814   5.256   4.082   7.203  0.0175  0.3733 -0.4879
    7SAPS   O11  815   5.308   4.157   6.976 -0.2054 -0.1053 -0.4412
    7SAPS    C1  816   5.433   4.229   6.958  0.2421  0.2330 -0.2428
    7SAPS    HA  817   5.489   4.270   7.045 -1.0729  1.2034  0.1848
    7SAPS    HB  818   5.507   4.159   6.913  0.1401 -0.1132  0.1253
    7SAPS    C2  819   5.409   4.339   6.850  0.8840  0.0872 -0.3757
    7SAPS    HS  820   5.322   4.397   6.886  1.8719  1.3594  0.0512
    7SAPS   O21  821   5.389   4.284   6.714 -0.1171 -0.3031  0.1849
    7SAPS   C21  822   5.298   4.337   6.634  0.4795 -0.5687 -0.0756
    7SAPS   O22  823   5.225   4.432   6.666  0.1378  0.3792  0.2670
    7SAPS   C22  824   5.295   4.258   6.502 -0.5218  0.5725  0.0513
    7SAPS   H2R  825   5.394   4.274   6.455  0.2454  0.4503  1.5840
    7SAPS   H2S  826   5.297   4.151   6.533 -0.2050  0.3886 -0.5926
    7SAPS    C3  827   5.529   4.449   6.855  0.5833 -0.1803  0.5186
    7SAPS    HX  828   5.610   4.411   6.921 -1.0492 -0.6473  2.3722
    7SAPS    HY  829   5.490   4.544   6.897  0.8629 -0.3345  1.1482
    7SAPS   O31  830   5.578   4.481   6.717 -0.0575 -0.2215 -0.3420
    7SAPS   C31  831   5.679   4.404   6.676  0.5218 -0.2097  0.0904
    7SAPS   O32  832   5.723   4.304   6.726 -0.2271  1.0501 -0.3873
    7SAPS   C32  833   5.735   4.457   6.541 -0.4933 -0.7233  0.4277
    7SAPS   H2X  834   5.836   4.411   6.532 -0.4487 -0.5585  0.0338
    7SAPS   H2Y  835   5.756   4.567   6.543  2.1629 -1.1724  1.2166
    7SAPS   C23  836   5.183   4.282   6.399 -0.1613  0.8492  0.4192
    7SAPS   H3R  837   5.177   4.385   6.360 -3.2211  0.3689 -0.6146
    7SAPS   H3S  838   5.087   4.262   6.451 -0.2490 -2.7249 -0.7996
    7SAPS   C24  839   5.182   4.193   6.276 -0.6548  0.6814  0.6253
    7SAPS   H4R  840   5.083   4.215   6.229 -0.1147 -1.3065 -1.6755
    7SAPS   H4S  841   5.187   4.085   6.301  0.7998  0.1246 -1.7160
    7SAPS   C25  842   5.304   4.216   6.195 -0.1497 -0.2655  0.3720
    7SAPS   H5R  843   5.398   4.196   6.248  0.7120  2.6843  0.1665
    7SAPS   C26  844   5.308   4.264   6.068 -0.3483 -0.2666 -0.1191
    7SAPS   H6R  845   5.406   4.268   6.018 -0.0192 -1.3363  0.4083
    7SAPS   C27  846   5.187   4.306   5.985  0.1692 -0.3916 -0.6932
    7SAPS   H7R  847   5.204   4.400   5.929 -0.3533  1.8816  2.6976
    7SAPS   H7S  848   5.113   4.345   6.057  0.8603  0.5284 -0.4715
    7SAPS   C28  849   5.128   4.192   5.900 -0.5005  0.2676  0.2850
    7SAPS   H8R  850   5.075   4.108   5.947  0.1620 -1.1118 -1.3308
    7SAPS   C29  851   5.130   4.181   5.768 -0.7221 -0.2979  0.8647
    7SAPS   H9R  852   5.073   4.102   5.717 -3.1787  1.0978  1.2325
    7SAPS  C210  853   5.196   4.279   5.676 -0.3695  0.4311  0.4571
    7SAPS  H10R  854   5.262   4.352   5.728 -0.4753  1.3893 -0.7040
    7SAPS  H10S  855   5.117   4.344   5.631 -1.8722 -2.0137 -0.6639
    7SAPS  C211  856   5.280   4.204   5.575  0.1032  0.5916 -0.3328
    7SAPS  H11R  857   5.363   4.140   5.610  0.1307  1.4455  1.2506
    7SAPS  C212  858   5.268   4.209   5.445 -0.1682 -0.2682  0.4230
    7SAPS  H12R  859   5.334   4.141   5.389  1.2569  0.8275  0.6937
    7SAPS  C213  860   5.169   4.293   5.367 -0.4027  0.0414  0.5302
    7SAPS  H13R  861   5.223   4.386   5.342  2.1196 -1.3624  0.4989
    7SAPS  H13S  862   5.085   4.324   5.433 -1.3801  0.3997 -0.8349
    7SAPS  C214  863   5.118   4.212   5.242 -0.2053  0.4745  0.0650
    7SAPS  H14R  864   5.083   4.109   5.261  0.4431  0.0031 -1.1740
    7SAPS  C215  865   5.130   4.259   5.114 -0.0488  0.0417 -0.4501
    7SAPS  H15R  866   5.109   4.191   5.031  1.6200 -2.0480  0.7374
    7SAPS  C216  867   5.182   4.400   5.076 -0.7811  0.1007  0.3589
    7SAPS  H16R  868   5.261   4.397   4.998 -1.8772  0.8785 -0.8302
    7SAPS  H16S  869   5.211   4.463   5.162 -1.7781 -0.3813  1.0688
    7SAPS  C217  870   5.065   4.488   5.027  0.3858 -0.4746  0.7109
    7SAPS  H17R  871   4.986   4.475   5.103 -0.0153 -2.5370  0.0017
    7SAPS  H17S  872   5.028   4.444   4.932  1.8542  0.4033 -0.3145
    7SAPS  C218  873   5.100   4.633   4.998  0.8456 -0.2013  0.4463
    7SAPS  H18R  874   5.124   4.688   5.091 -2.2902  3.6446 -0.7086
    7SAPS  H18S  875   5.006   4.686   4.970  0.7892 -0.9521 -0.9042
    7SAPS  C219  876   5.209   4.657   4.884 -0.2538 -0.3437 -0.1398
    7SAPS  H19R  877   5.290   4.582   4.891  1.6826  1.6092 -0.7260
    7SAPS  H19S  878   5.264   4.751   4.904  2.8105 -2.0411  0.1262
    7SAPS  C220  879   5.151   4.652   4.749 -0.0531  0.6324  0.7134
    7SAPS  H20R  880   5.104   4.554   4.727  0.2001  0.7997 -0.7122
    7SAPS  H20S  881   5.221   4.672   4.665 -0.0203 -0.9071  0.3487
    7SAPS  H20T  882   5.076   4.734   4.739  1.4637  2.1108  0.9564
    7SAPS   C33  883   5.666   4.412   6.410 -0.0187  0.7474 -0.7332
    7SAPS   H3X  884   5.559   4.443   6.406  0.0045  1.0421  0.4315
    7SAPS   H3Y  885   5.666   4.303   6.392  2.1079  0.7684 -1.1201
    7SAPS   C34  886   5.747   4.456   6.283 -0.2273  0.6213  0.0112
    7SAPS   H4X  887   5.846   4.406   6.287  0.5081  2.0654  0.7547
    7SAPS   H4Y  888   5.757   4.566   6.277 -2.0039  0.8161 -0.1521
    7SAPS   C35  889   5.674   4.406   6.155  0.8310  0.1669 -0.3757
    7SAPS   H5X  890   5.569   4.436   6.171  0.9778  0.2424  0.4596
    7SAPS   H5Y  891   5.688   4.296   6.160 -1.1450 -0.0477  2.0611
    7SAPS   C36  892   5.732   4.462   6.027  0.8744 -0.5039  0.0771
    7SAPS   H6X  893   5.842   4.445   6.024  1.1672  1.1517 -0.0128
    7SAPS   H6Y  894   5.717   4.572   6.019 -1.6786 -0.9290 -2.1100
    7SAPS   C37  895   5.675   4.386   5.905 -0.3775 -0.0894  0.4803
    7SAPS   H7X  896   5.565   4.393   5.916 -0.5067 -0.5400 -0.4482
    7SAPS   H7Y  897   5.714   4.283   5.913  2.0573  0.8428  1.7196
    7SAPS   C38  898   5.721   4.451   5.773  0.6977  0.4123 -0.3381
    7SAPS   H8X  899   5.831   4.451   5.758  0.8636 -1.1601  0.6157
    7SAPS   H8Y  900   5.694   4.557   5.787  0.1747  0.4676 -1.6161
    7SAPS   C39  901   5.647   4.399   5.649 -0.1903 -0.5207 -1.0141
    7SAPS   H9X  902   5.538   4.415   5.661  0.2436  0.3463  3.5528
    7SAPS   H9Y  903   5.665   4.292   5.628  0.4349 -0.7757  0.6251
    7SAPS  C310  904   5.692   4.462   5.523  0.2986 -0.1306  0.4898
    7SAPS  H10X  905   5.803   4.458   5.518  0.3525  1.1950 -3.6693
    7SAPS  H10Y  906   5.668   4.571   5.524 -0.9867 -0.3462 -1.4515
    7SAPS  C311  907   5.632   4.405   5.398 -0.3167  0.3489  0.6289
    7SAPS  H11X  908   5.530   4.363   5.410 -0.1285 -1.4953 -3.0020
    7SAPS  H11Y  909   5.694   4.319   5.365 -1.0643 -0.0961  0.3579
    7SAPS  C312  910   5.619   4.507   5.285  0.2155  0.1215 -0.3677
    7SAPS  H12X  911   5.721   4.547   5.263  1.5351 -1.1141  2.9268
    7SAPS  H12Y  912   5.547   4.579   5.330  0.9405  0.2416  0.6258
    7SAPS  C313  913   5.563   4.449   5.159  0.1465  0.3219 -0.5631
    7SAPS  H13X  914   5.470   4.389   5.176  1.0774 -0.8533  0.6087
    7SAPS  H13Y  915   5.633   4.370   5.124 -0.0301 -0.7455  1.3625
    7SAPS  C314  916   5.527   4.537   5.042  0.1323  0.3856  0.1264
    7SAPS  H14X  917   5.443   4.601   5.075  0.0688  0.8751 -0.9400
    7SAPS  H14Y  918   5.504   4.467   4.959  1.0625 -0.0414  0.2186
    7SAPS  C315  919   5.639   4.628   4.993 -0.3651  0.4487 -0.1008
    7SAPS  H15X  920   5.735   4.577   4.972 -1.5839 -1.5267 -1.2233
    7SAPS  H15Y  921   5.666   4.673   5.091 -3.5248  0.5019  0.8697
    7SAPS  C316  922   5.612   4.754   4.909 -0.7230  0.1561  0.0281
    7SAPS  H16X  923   5.702   4.820   4.910 -0.9652  0.5179  2.1187
    7SAPS  H16Y  924   5.537   4.816   4.963  2.7668  2.5760  2.5654
    7SAPS  C317  925   5.564   4.730   4.765  0.3512 -0.5181 -0.3190
    7SAPS  H17X  926   5.486   4.652   4.770 -0.6772  0.4240 -1.2664
    7SAPS  H17Y  927   5.648   4.691   4.702  0.9994 -1.0087  0.8244
    7SAPS  C318  928   5.500   4.846   4.696 -0.3038 -0.5357 -0.3803
    7SAPS  H18X  929   5.582   4.913   4.664 -1.5008  0.7176 -0.9542
    7SAPS  H18Y  930   5.435   4.903   4.767  0.4321  1.7765 -1.4606
    7SAPS  H18Z  931   5.450   4.813   4.602 -1.3571 -0.7884  0.2444
    8SAPS     N  932   4.882   4.396   7.086 -0.3553 -0.2861  0.0866
    8SAPS   HN1  933   4.959   4.326   7.080  1.2470  1.3057  1.1111
    8SAPS   HN2  934   4.861   4.426   6.988  1.0357  0.8424  0.1053
    8SAPS   HN3  935   4.916   4.480   7.137  3.2841 -1.9341  0.6518
    8SAPS   C12  936   4.763   4.327   7.147 -0.9875 -0.3710  0.5084
    8SAPS  H12A  937   4.786   4.223   7.158 -1.9515 -0.5037  1.4464
    8SAPS   C13  938   4.733   4.381   7.288  1.0373 -0.6990  0.3001
    8SAPS  O13A  939   4.809   4.447   7.363 -0.1129 -0.0906 -0.2409
    8SAPS  O13B  940   4.641   4.315   7.345 -0.4406  0.0189  0.5508
    8SAPS   C11  941   4.636   4.340   7.060  0.3968 -0.0431  0.0037
    8SAPS  H11A  942   4.597   4.442   7.079 -1.2216 -0.6725  0.2417
    8SAPS  H11B  943   4.559   4.283   7.116  0.5687  1.9620  2.4620
    8SAPS     P  944   4.605   4.195   6.840  0.0790  0.2524  0.1620
    8SAPS   O13  945   4.712   4.094   6.809 -0.2148  0.4968 -0.0716
    8SAPS   O14  946   4.483   4.144   6.901 -0.4639 -0.2420 -0.2098
    8SAPS   O12  947   4.660   4.311   6.930  0.0971  0.5958 -0.1402
    8SAPS   O11  948   4.572   4.269   6.701  0.2201 -0.2518 -0.1873
    8SAPS    C1  949   4.659   4.353   6.632 -0.1422 -0.0801 -0.0236
    8SAPS    HA  950   4.760   4.357   6.677  0.8178 -0.8435 -1.9652
    8SAPS    HB  951   4.672   4.323   6.526 -1.3275  1.7563 -0.7439
    8SAPS    C2  952   4.610   4.493   6.623 -0.4511 -0.4344 -0.1529
    8SAPS    HS  953   4.580   4.531   6.723 -0.8731 -0.9648 -0.0745
    8SAPS   O21  954   4.491   4.493   6.537  0.2586  0.2535 -0.2800
    8SAPS   C21  955   4.407   4.593   6.556 -0.2747 -0.1752 -0.0056
    8SAPS   O22  956   4.420   4.672   6.646  0.1390 -0.4321  0.0518
    8SAPS   C22  957   4.288   4.586   6.462 -0.2866 -0.1790  0.7718
    8SAPS   H2R  958   4.289   4.479   6.433  3.7460 -0.5888  1.8567
    8SAPS   H2S  959   4.193   4.597   6.517  0.3775  0.1165  1.8786
    8SAPS    C3  960   4.728   4.575   6.570 -0.6062  0.1598  0.0082
    8SAPS    HX  961   4.811   4.559   6.644 -1.7096 -1.4698  0.9608
    8SAPS    HY  962   4.708   4.684   6.571  1.3383  0.6362 -2.6728
    8SAPS   O31  963   4.782   4.539   6.436  0.1385  0.2730  0.0372
    8SAPS   C31  964   4.850   4.630   6.367  0.1804 -0.1137  0.2539
    8SAPS   O32  965   4.885   4.740   6.415  0.0489 -0.4837  0.5377
    8SAPS   C32  966   4.887   4.576   6.234 -0.6210  0.1913  0.2806
    8SAPS   H2X  967   4.792   4.534   6.197 -0.9471  0.6218  0.6109
    8SAPS   H2Y  968   4.965   4.497   6.244 -0.3918  0.3508 -0.1921
    8SAPS   C23  969   4.297   4.689   6.340 -0.7747  0.3943 -0.8243
    8SAPS   H3R  970   4.274   4.792   6.375 -0.5269  0.2354 -0.1726
    8SAPS   H3S  971   4.207   4.662   6.281 -0.8329  0.4404 -0.7564
    8SAPS   C24  972   4.426   4.693   6.262 -0.3195  0.2726 -0.0021
    8SAPS   H4R  973   4.510   4.731   6.324 -0.3072  0.7520 -0.3093
    8SAPS   H4S  974   4.414   4.774   6.188 -4.7417 -0.0481  0.0929
    8SAPS   C25  975   4.439   4.549   6.208 -0.9024  0.0118 -0.3398
    8SAPS   H5R  976   4.437   4.468   6.282  0.0200  0.1162 -0.1839
    8SAPS   C26  977   4.459   4.506   6.080  0.8330 -0.5131 -0.2653
    8SAPS   H6R  978   4.463   4.399   6.055 -1.2895 -0.6501 -0.2006
    8SAPS   C27  979   4.452   4.588   5.955 -0.0831 -0.0638  0.2560
    8SAPS   H7R  980   4.509   4.682   5.976 -0.1696  0.5370 -1.9401
    8SAPS   H7S  981   4.345   4.615   5.942  0.2697  2.9711  2.4562
    8SAPS   C28  982   4.501   4.507   5.839  0.2747  0.5784 -0.6830
    8SAPS   H8R  983   4.604   4.469   5.846 -0.1359 -0.1995  2.2304
    8SAPS   C29  984   4.427   4.488   5.719 -0.3928 -0.1451  0.3171
    8SAPS   H9R  985   4.464   4.425   5.637  0.6510  0.9807 -0.1106
    8SAPS  C210  986   4.286   4.538   5.689  0.1673 -0.5598  0.4657
    8SAPS  H10R  987   4.283   4.573   5.584  1.7944  1.2400  0.9503
    8SAPS  H10S  988   4.273   4.637   5.739  1.3160  0.8327 -1.8176
    8SAPS  C211  989   4.175   4.442   5.723  0.3207  0.3097 -0.2375
    8SAPS  H11R  990   4.190   4.340   5.684  1.6701  1.1456 -2.0075
    8SAPS  C212  991   4.066   4.467   5.798 -0.8325 -0.6466 -0.2114
    8SAPS  H12R  992   3.999   4.384   5.824 -1.8437 -0.2979 -1.5860
    8SAPS  C213  993   4.020   4.601   5.855 -0.2873  0.4187  0.4058
    8SAPS  H13R  994   4.005   4.673   5.772 -2.7547 -0.7741 -0.2552
    8SAPS  H13S  995   4.104   4.654   5.906  0.6644 -1.7282  1.1598
    8SAPS  C214  996   3.894   4.586   5.947  0.5997 -0.1172 -0.0059
    8SAPS  H14R  997   3.914   4.574   6.055  0.1118  0.3188  0.1381
    8SAPS  C215  998   3.766   4.586   5.905  0.7079 -0.4675  0.1181
    8SAPS  H15R  999   3.685   4.595   5.978  0.8069 -2.2931  0.5119
    8SAPS  C216 1000   3.720   4.584   5.760 -0.3965 -0.0364  0.6036
    8SAPS  H16R 1001   3.804   4.595   5.689 -0.5788 -2.4116 -0.0664
    8SAPS  H16S 1002   3.649   4.663   5.726 -0.0087 -0.0531 -0.2693
    8SAPS  C217 1003   3.673   4.444   5.736  0.2405 -0.2624  0.5233
    8SAPS  H17R 1004   3.748   4.366   5.762  0.6979  0.1207  0.3773
    8SAPS  H17S 1005   3.653   4.422   5.629 -0.6034  0.9470  0.4156
    8SAPS  C218 1006   3.544   4.405   5.821 -0.4514 -0.0856  0.1661
    8SAPS  H18R 1007   3.570   4.411   5.929 -0.5562 -0.2366  0.2008
    8SAPS  H18S 1008   3.534   4.294   5.811  1.0078 -0.4232  2.0093
    8SAPS  C219 1009   3.411   4.471   5.777  0.3333 -0.0324  0.0881
    8SAPS  H19R 1010   3.436   4.568   5.731 -1.5131  1.1553  1.4777
    8SAPS  H19S 1011   3.334   4.492   5.854 -0.0753 -2.1981  0.3484
    8SAPS  C220 1012   3.342   4.395   5.663 -0.3978  0.7110  0.8558
    8SAPS  H20R 1013   3.267   4.469   5.628  0.3364  1.0908  0.0471
    8SAPS  H20S 1014   3.300   4.300   5.702  0.8294  0.3083  1.2434
    8SAPS  H20T 1015   3.413   4.379   5.579 -0.0397 -1.6102  1.5337
    8SAPS   C33 1016   4.939   4.689   6.138 -0.3571 -0.1209  0.4281
    8SAPS   H3X 1017   5.013   4.756   6.187  0.8832 -0.9563 -0.2581
    8SAPS   H3Y 1018   4.858   4.762   6.113  0.8081  2.0533  2.5566
    8SAPS   C34 1019   4.986   4.637   6.005 -0.4130 -0.5967 -0.8838
    8SAPS   H4X 1020   4.899   4.588   5.957 -1.8335 -1.2661  2.1308
    8SAPS   H4Y 1021   5.069   4.565   6.021 -0.8129 -0.9408 -0.3179
    8SAPS   C35 1022   5.037   4.753   5.916  0.4018 -0.3044  0.1644
    8SAPS   H5X 1023   5.130   4.800   5.953 -0.6294  2.2463 -0.2713
    8SAPS   H5Y 1024   4.953   4.826   5.918  0.5722 -0.0611 -0.7674
    8SAPS   C36 1025   5.058   4.708   5.772 -0.7294  0.2408 -0.3839
    8SAPS   H6X 1026   5.121   4.617   5.764 -2.9922 -1.3304 -1.3539
    8SAPS   H6Y 1027   5.100   4.796   5.719 -2.5516  0.0404 -2.3125
    8SAPS   C37 1028   4.932   4.680   5.689 -0.3005  0.0840  0.1222
    8SAPS   H7X 1029   4.864   4.769   5.690 -0.7174 -0.1860 -1.3209
    8SAPS   H7Y 1030   4.860   4.599   5.716 -1.0436  0.1111 -1.6447
    8SAPS   C38 1031   4.972   4.659   5.532  0.0447  1.0295 -0.3694
    8SAPS   H8X 1032   5.047   4.577   5.530  0.4396  1.2522  2.0473
    8SAPS   H8Y 1033   5.016   4.748   5.482 -0.5608 -0.0440 -2.9477
    8SAPS   C39 1034   4.860   4.614   5.432  0.2817 -0.7258 -0.2777
    8SAPS   H9X 1035   4.804   4.530   5.477  1.1336 -2.0470 -1.6023
    8SAPS   H9Y 1036   4.906   4.575   5.339 -0.1150  0.5394 -1.0405
    8SAPS  C310 1037   4.764   4.728   5.396 -0.8252 -0.4436  0.6284
    8SAPS  H10X 1038   4.830   4.814   5.370 -0.7648 -0.6474  0.0861
    8SAPS  H10Y 1039   4.713   4.758   5.490  0.6681  0.6983  1.1096
    8SAPS  C311 1040   4.675   4.680   5.287 -0.4036 -0.0795 -0.7750
    8SAPS  H11X 1041   4.611   4.599   5.327  0.5517 -0.9751 -1.0226
    8SAPS  H11Y 1042   4.734   4.644   5.200  0.4560  0.5775 -0.4864
    8SAPS  C312 1043   4.574   4.795   5.253 -0.2153  0.4964 -0.4550
    8SAPS  H12X 1044   4.627   4.881   5.207  1.6796 -0.1334  0.4484
    8SAPS  H12Y 1045   4.538   4.838   5.349 -1.1130 -0.0223 -0.5494
    8SAPS  C313 1046   4.452   4.752   5.175 -0.2474 -0.7460 -0.4100
    8SAPS  H13X 1047   4.411   4.656   5.212  0.3723 -0.6213  0.6469
    8SAPS  H13Y 1048   4.472   4.737   5.067 -2.7451  0.8716 -1.1861
    8SAPS  C314 1049   4.341   4.856   5.171  0.2809 -0.3089  0.6665
    8SAPS  H14X 1050   4.296   4.861   5.272 -0.6649  0.6925  0.2218
    8SAPS  H14Y 1051   4.262   4.825   5.099  1.6995  1.4665 -1.8156
    8SAPS  C315 1052   4.390   4.990   5.112  0.6108 -0.4992  0.0765
    8SAPS  H15X 1053   4.466   4.969   5.034  1.0516  0.6437  0.1782
    8SAPS  H15Y 1054   4.443   5.043   5.194 -2.1554 -0.1635  1.7562
    8SAPS  C316 1055   4.284   5.090   5.061  0.2119 -0.6369 -0.1705
    8SAPS  H16X 1056   4.339   5.177   5.020  0.7563 -0.8206  0.1551
    8SAPS  H16Y 1057   4.217   5.128   5.142  1.3139 -2.1465  1.5470
    8SAPS  C317 1058   4.183   5.035   4.962 -0.2045  0.0032 -0.1613
    8SAPS  H17X 1059   4.114   5.117   4.932 -0.5910 -0.2112  0.1339
    8SAPS  H17Y 1060   4.120   4.957   5.010  0.5743 -0.3030  0.3981
    8SAPS  C318 1061   4.239   4.961   4.840  0.1430  0.0847 -0.1199
    8SAPS  H18X 1062   4.321   4.890   4.865 -0.8897 -0.3903  2.1900
    8SAPS  H18Y 1063   4.271   5.043   4.772 -4.4485  1.0460 -1.4408
    8SAPS  H18Z 1064   4.152   4.909   4.795 -0.4317  1.0007 -0.0873
    9SAPS     N 1065   1.616   3.213   7.111  0.7069 -0.2758  0.6560
    9SAPS   HN1 1066   1.529   3.169   7.074  0.5020  2.8676 -3.3236
    9SAPS   HN2 1067   1.604   3.304   7.159  0.2753  0.6392 -1.0766
    9SAPS   HN3 1068   1.667   3.234   7.022 -0.1681 -1.7724 -0.2459
    9SAPS   C12 1069   1.706   3.125   7.182 -0.2243  0.2633 -0.4552
    9SAPS  H12A 1070   1.801   3.129   7.131 -0.0731 -0.7548 -0.2908
    9SAPS   C13 1071   1.726   3.152   7.333 -0.0974  0.7790 -0.2207
    9SAPS  O13A 1072   1.681   3.257   7.384  0.8540  0.6489  0.2547
    9SAPS  O13B 1073   1.808   3.084   7.402  0.0865  0.3252  0.5408
    9SAPS   C11 1074   1.664   2.975   7.149  0.4604 -0.3533  0.0671
    9SAPS  H11A 1075   1.560   2.957   7.183  0.5011 -2.6575 -0.8041
    9SAPS  H11B 1076   1.738   2.908   7.198  1.9233 -0.4761 -2.1819
    9SAPS     P 1077   1.681   2.785   6.972 -0.9119  0.3397 -0.0361
    9SAPS   O13 1078   1.815   2.736   7.025  0.1345 -1.2000  0.4186
    9SAPS   O14 1079   1.559   2.716   7.026 -0.0950 -0.3452 -0.4038
    9SAPS   O12 1080   1.673   2.940   7.016 -0.4914 -0.3633  0.0388
    9SAPS   O11 1081   1.673   2.800   6.814  0.5027  0.0699 -0.0362
    9SAPS    C1 1082   1.752   2.875   6.725  0.5356  0.1760  0.6681
    9SAPS    HA 1083   1.733   2.983   6.739 -3.2641 -0.6351  3.3471
    9SAPS    HB 1084   1.856   2.842   6.748  0.5114 -1.2153 -1.0325
    9SAPS    C2 1085   1.736   2.833   6.576  0.2045  0.3348  0.5705
    9SAPS    HS 1086   1.638   2.871   6.539 -0.7150 -1.6867  0.7771
    9SAPS   O21 1087   1.747   2.692   6.565 -0.0424 -0.0765  0.4045
    9SAPS   C21 1088   1.680   2.647   6.460  0.2785 -0.0137  0.3556
    9SAPS   O22 1089   1.606   2.707   6.388  0.4314 -0.1552 -0.1608
    9SAPS   C22 1090   1.712   2.498   6.434 -0.5983 -0.3184  0.2236
    9SAPS   H2R 1091   1.823   2.496   6.437 -0.4819  2.9440  1.4454
    9SAPS   H2S 1092   1.676   2.442   6.523  0.2910 -0.4285  0.5307
    9SAPS    C3 1093   1.853   2.903   6.502 -0.1765 -0.1286 -0.0098
    9SAPS    HX 1094   1.946   2.854   6.535 -0.4389 -0.5800  0.0722
    9SAPS    HY 1095   1.848   3.010   6.532  1.0756 -0.1606  0.3631
    9SAPS   O31 1096   1.854   2.886   6.367 -0.0617  0.5292  0.2371
    9SAPS   C31 1097   1.782   2.973   6.290 -0.3758 -0.5260  0.5010
    9SAPS   O32 1098   1.730   3.074   6.332 -0.1678  0.0485  0.2673
    9SAPS   C32 1099   1.769   2.918   6.147 -0.8600  0.5599 -0.6119
    9SAPS   H2X 1100   1.761   2.807   6.152  2.1062  0.3051  0.2993
    9SAPS   H2Y 1101   1.867   2.946   6.103 -0.6790  2.6334  0.9712
    9SAPS   C23 1102   1.645   2.442   6.305 -0.6646 -0.2459 -0.1393
    9SAPS   H3R 1103   1.544   2.490   6.308  0.3345  1.9068  2.4195
    9SAPS   H3S 1104   1.635   2.333   6.321  2.0461 -0.4191  0.8773
    9SAPS   C24 1105   1.703   2.474   6.172 -0.2076  0.0987  0.0255
    9SAPS   H4R 1106   1.702   2.584   6.158 -0.7562 -0.1584 -2.5533
    9SAPS   H4S 1107   1.640   2.428   6.093  0.3069 -1.1559  0.3236
    9SAPS   C25 1108   1.837   2.401   6.181  0.3712 -0.3726  0.6598
    9SAPS   H5R 1109   1.819   2.292   6.172 -2.7476  0.1586 -1.1707
    9SAPS   C26 1110   1.965   2.452   6.185  0.4719 -0.5338 -0.2872
    9SAPS   H6R 1111   2.047   2.380   6.171  1.4608  0.8314 -1.8881
    9SAPS   C27 1112   1.997   2.602   6.173 -0.3602 -0.2991  1.3068
    9SAPS   H7R 1113   1.908   2.666   6.154  0.4785  0.6661  0.5346
    9SAPS   H7S 1114   2.056   2.605   6.079 -1.4460  1.3829  0.6279
    9SAPS   C28 1115   2.083   2.663   6.276 -0.3095  0.5660  0.0891
    9SAPS   H8R 1116   2.102   2.605   6.367 -2.8878  1.1901  1.1018
    9SAPS   C29 1117   2.141   2.780   6.269  0.1081 -0.0542 -0.2583
    9SAPS   H9R 1118   2.218   2.803   6.343 -1.1029 -2.9466  2.1057
    9SAPS  C210 1119   2.130   2.882   6.159  0.4076 -0.1737  0.2773
    9SAPS  H10R 1120   2.057   2.859   6.079  2.1923  0.5827 -1.6879
    9SAPS  H10S 1121   2.222   2.858   6.100  0.1364 -0.5851  0.0196
    9SAPS  C211 1122   2.129   3.028   6.193 -0.0892  0.4372 -0.4901
    9SAPS  H11R 1123   2.134   3.039   6.302  1.2220  2.5144 -0.7033
    9SAPS  C212 1124   2.124   3.132   6.109  0.3622 -0.0516  0.3924
    9SAPS  H12R 1125   2.137   3.232   6.152  0.3779  0.8643 -1.6478
    9SAPS  C213 1126   2.111   3.124   5.954 -0.6777 -0.2064 -0.6246
    9SAPS  H13R 1127   2.146   3.024   5.921  0.9372  1.0313 -2.9106
    9SAPS  H13S 1128   2.184   3.193   5.908  1.4225 -1.1029  1.1538
    9SAPS  C214 1129   1.971   3.158   5.909 -0.2908 -0.5180 -0.9155
    9SAPS  H14R 1130   1.910   3.198   5.991  0.7793 -3.5857  1.5863
    9SAPS  C215 1131   1.913   3.133   5.789  1.0038 -0.0632  0.2927
    9SAPS  H15R 1132   1.809   3.167   5.775  0.2403 -2.1253  0.6440
    9SAPS  C216 1133   1.969   3.066   5.668 -0.7267  0.0414 -0.9280
    9SAPS  H16R 1134   2.077   3.040   5.675 -0.9052 -0.2643  1.3673
    9SAPS  H16S 1135   1.949   3.137   5.585  1.1703 -0.2029 -1.6420
    9SAPS  C217 1136   1.899   2.929   5.648 -0.2024  0.5566 -0.3847
    9SAPS  H17R 1137   1.924   2.885   5.549 -0.9915 -1.7094  0.3608
    9SAPS  H17S 1138   1.790   2.949   5.656 -0.1691  1.0469 -1.0278
    9SAPS  C218 1139   1.932   2.825   5.754 -0.1673  0.4460  0.7295
    9SAPS  H18R 1140   1.928   2.861   5.859 -0.1104  1.0293  0.5385
    9SAPS  H18S 1141   2.039   2.799   5.744  0.1595  1.0693  2.3828
    9SAPS  C219 1142   1.857   2.690   5.723  0.2823 -0.1247  0.1791
    9SAPS  H19R 1143   1.904   2.642   5.635  0.7658  1.8945 -0.7379
    9SAPS  H19S 1144   1.753   2.715   5.692 -0.4494  0.8742  3.0834
    9SAPS  C220 1145   1.862   2.585   5.834  0.1176  0.4131 -0.2381
    9SAPS  H20R 1146   1.787   2.508   5.804 -0.0136  1.1715 -1.9802
    9SAPS  H20S 1147   1.830   2.611   5.937 -0.2817 -1.7016  0.2190
    9SAPS  H20T 1148   1.963   2.540   5.834 -0.5770 -1.4628  2.8657
    9SAPS   C33 1149   1.645   2.974   6.072  0.1115 -0.3458 -0.9081
    9SAPS   H3X 1150   1.660   3.085   6.074  1.0994 -0.4684  0.7754
    9SAPS   H3Y 1151   1.559   2.966   6.141  0.7348  3.3629  0.5495
    9SAPS   C34 1152   1.614   2.925   5.933  0.5931  0.9219 -0.1606
    9SAPS   H4X 1153   1.593   2.816   5.942  1.1592  0.8708  0.7179
    9SAPS   H4Y 1154   1.710   2.932   5.876  1.0765 -0.3223  0.4568
    9SAPS   C35 1155   1.498   2.990   5.870  0.1327 -0.2700 -0.2405
    9SAPS   H5X 1156   1.483   3.096   5.901 -2.1598 -0.4371 -0.6032
    9SAPS   H5Y 1157   1.405   2.944   5.909  0.9743 -2.0890 -0.2828
    9SAPS   C36 1158   1.498   2.960   5.716  0.7171 -0.0172  0.4594
    9SAPS   H6X 1159   1.553   2.865   5.702 -1.6294 -1.6277  1.6573
    9SAPS   H6Y 1160   1.560   3.042   5.673  0.5281  0.8844  1.8193
    9SAPS   C37 1161   1.362   2.940   5.652 -0.1611  0.1097  0.6033
    9SAPS   H7X 1162   1.295   3.029   5.652  0.7219  0.8331  2.5661
    9SAPS   H7Y 1163   1.304   2.865   5.710 -1.3422 -1.4121 -2.3086
    9SAPS   C38 1164   1.364   2.868   5.511 -1.0357  0.5890 -0.1524
    9SAPS   H8X 1165   1.385   2.759   5.518  1.1414  1.0056  0.7686
    9SAPS   H8Y 1166   1.453   2.899   5.452 -0.4631 -1.4986 -0.4746
    9SAPS   C39 1167   1.230   2.872   5.444  0.2196  0.3474  0.5905
    9SAPS   H9X 1168   1.219   2.973   5.401  2.3962 -0.8699 -3.3061
    9SAPS   H9Y 1169   1.160   2.848   5.527 -0.9677 -0.3095 -0.5694
    9SAPS  C310 1170   1.207   2.769   5.333 -0.7376 -0.2562 -0.2047
    9SAPS  H10X 1171   1.117   2.794   5.272  0.2852  1.8966 -0.9349
    9SAPS  H10Y 1172   1.188   2.669   5.378 -0.2345 -0.4029 -0.3198
    9SAPS  C311 1173   1.309   2.768   5.223 -0.5402 -0.3005  0.0274
    9SAPS  H11X 1174   1.395   2.730   5.282 -1.0091  0.0133  0.9416
    9SAPS  H11Y 1175   1.319   2.877   5.205 -2.6766  0.4653  2.7890
    9SAPS  C312 1176   1.278   2.696   5.092 -0.2883  0.2201 -0.7654
    9SAPS  H12X 1177   1.363   2.723   5.027  1.7065  1.4241  2.1036
    9SAPS  H12Y 1178   1.183   2.729   5.045 -1.5999 -0.0862  1.4832
    9SAPS  C313 1179   1.294   2.547   5.123 -0.2409 -1.1554 -0.2941
    9SAPS  H13X 1180   1.226   2.538   5.210 -1.0166  0.7809 -0.6308
    9SAPS  H13Y 1181   1.395   2.517   5.159  0.4998  0.6489 -0.7289
    9SAPS  C314 1182   1.254   2.461   5.001 -0.0626  0.1075  0.2762
    9SAPS  H14X 1183   1.312   2.480   4.907 -0.2245  0.9666  0.3438
    9SAPS  H14Y 1184   1.146   2.471   4.979  0.2774  2.0463 -0.7826
    9SAPS  C315 1185   1.291   2.308   5.030 -0.1463 -0.3753  0.2014
    9SAPS  H15X 1186   1.234   2.272   5.118 -0.5564  1.1906  0.5986
    9SAPS  H15Y 1187   1.398   2.295   5.056  0.4457  2.1505 -0.6851
    9SAPS  C316 1188   1.262   2.222   4.907  0.0879  0.4711  0.1795
    9SAPS  H16X 1189   1.159   2.218   4.865  0.5520 -1.2784 -0.8471
    9SAPS  H16Y 1190   1.269   2.114   4.928 -1.6816 -0.5138 -3.5214
    9SAPS  C317 1191   1.353   2.252   4.792 -0.5562 -0.4814 -0.1417
    9SAPS  H17X 1192   1.460   2.250   4.822 -0.7176  1.0984  0.6547
    9SAPS  H17Y 1193   1.360   2.355   4.751  0.8815 -0.1748  0.7882
    9SAPS  C318 1194   1.328   2.139   4.686  0.0627 -0.8838  0.4049
    9SAPS  H18X 1195   1.228   2.136   4.638  0.2997  0.8673 -0.2806
    9SAPS  H18Y 1196   1.337   2.038   4.730  0.6294  0.0377  2.5483
    9SAPS  H18Z 1197   1.399   2.143   4.600 -1.4930  0.6128 -0.8729
   10SAPS     N 1198   1.278   2.656   6.982  0.0207 -0.0199  0.1204
   10SAPS   HN1 1199   1.380   2.676   6.986  0.0958  0.4804 -2.2748
   10SAPS   HN2 1200   1.261   2.565   6.935 -3.4011  0.1077  0.9183
   10SAPS   HN3 1201   1.244   2.732   6.919  0.4755  0.0073 -0.1020
   10SAPS   C12 1202   1.212   2.674   7.113  0.4135  0.6430 -0.1686
   10SAPS  H12A 1203   1.106   2.681   7.095 -0.0195 -1.5588  1.1316
   10SAPS   C13 1204   1.245   2.556   7.217  0.3827 -0.0706  1.1063
   10SAPS  O13A 1205   1.337   2.479   7.178  0.3362  0.6656 -0.0103
   10SAPS  O13B 1206   1.217   2.561   7.341  0.5399 -0.0729 -0.1194
   10SAPS   C11 1207   1.253   2.808   7.175  0.1963  0.0937 -0.0064
   10SAPS  H11A 1208   1.359   2.801   7.207  0.5134 -0.9446 -1.2446
   10SAPS  H11B 1209   1.188   2.826   7.264 -0.1472 -1.4238  0.0681
   10SAPS     P 1210   1.268   3.062   7.123 -0.6307 -0.3038  0.0438
   10SAPS   O13 1211   1.141   3.134   7.098 -0.5104  0.2687  0.3118
   10SAPS   O14 1212   1.330   3.072   7.260 -0.4735 -0.1736 -0.0939
   10SAPS   O12 1213   1.244   2.908   7.082  0.3323  0.0182  0.4894
   10SAPS   O11 1214   1.377   3.107   7.021 -0.9784  0.5298  0.0812
   10SAPS    C1 1215   1.384   3.075   6.886 -0.2179  0.1355  0.0348
   10SAPS    HA 1216   1.472   3.009   6.869 -2.1461 -2.1869 -1.4277
   10SAPS    HB 1217   1.301   3.011   6.851 -0.7352  0.8586 -0.0892
   10SAPS    C2 1218   1.401   3.200   6.790  0.3335  0.4135 -0.1794
   10SAPS    HS 1219   1.480   3.265   6.836  3.2965 -2.4878 -0.7716
   10SAPS   O21 1220   1.277   3.259   6.770 -0.5473 -0.2897 -0.8908
   10SAPS   C21 1221   1.286   3.386   6.757 -0.5326 -0.2566  0.2385
   10SAPS   O22 1222   1.389   3.454   6.758  0.1163 -0.8011 -0.3916
   10SAPS   C22 1223   1.154   3.451   6.708  0.0678  0.3679  0.1746
   10SAPS   H2R 1224   1.074   3.437   6.784 -0.0241  0.9257  0.1855
   10SAPS   H2S 1225   1.172   3.560   6.699  0.9150  0.3901  1.8922
   10SAPS    C3 1226   1.452   3.153   6.647  1.1038 -1.0493 -0.4448
   10SAPS    HX 1227   1.368   3.090   6.611  0.9009 -0.5702 -0.8211
   10SAPS    HY 1228   1.548   3.099   6.661  2.0967  0.7231 -0.1483
   10SAPS   O31 1229   1.464   3.257   6.546  0.2437 -0.1105 -0.5503
   10SAPS   C31 1230   1.579   3.317   6.534 -0.5137  0.0753 -0.0701
   10SAPS   O32 1231   1.674   3.315   6.613 -0.2746 -0.2775  0.4323
   10SAPS   C32 1232   1.581   3.401   6.412  0.1415 -0.3815  0.2828
   10SAPS   H2X 1233   1.549   3.348   6.319  1.2020  0.1071 -0.3812
   10SAPS   H2Y 1234   1.690   3.418   6.396  0.3609 -0.8400  1.2368
   10SAPS   C23 1235   1.119   3.405   6.569 -0.2066 -0.5801 -0.5579
   10SAPS   H3R 1236   1.086   3.299   6.566 -0.9217 -0.3423 -1.1845
   10SAPS   H3S 1237   1.206   3.431   6.505 -2.0689  3.7397 -1.7266
   10SAPS   C24 1238   1.009   3.491   6.510  0.2855 -0.1142  0.2407
   10SAPS   H4R 1239   1.003   3.478   6.400 -4.0761 -0.3209  0.3178
   10SAPS   H4S 1240   1.041   3.594   6.538 -0.4371 -0.2268  1.5869
   10SAPS   C25 1241   0.867   3.461   6.562  0.9257  0.0478 -0.2170
   10SAPS   H5R 1242   0.840   3.502   6.660 -0.4605 -2.7200  0.6604
   10SAPS   C26 1243   0.780   3.374   6.508  0.3420  0.5608 -0.5763
   10SAPS   H6R 1244   0.682   3.355   6.552  0.3266  0.1256 -0.7912
   10SAPS   C27 1245   0.795   3.292   6.380 -0.4551  0.2642 -0.4578
   10SAPS   H7R 1246   0.752   3.196   6.414  1.1283 -1.0697 -2.0602
   10SAPS   H7S 1247   0.901   3.266   6.363 -0.6134 -0.1926 -0.7559
   10SAPS   C28 1248   0.734   3.346   6.246 -0.1541  0.4547 -0.2502
   10SAPS   H8R 1249   0.748   3.454   6.230  1.3761  0.4477  0.8408
   10SAPS   C29 1250   0.668   3.270   6.161  0.0443 -0.0392  0.5478
   10SAPS   H9R 1251   0.633   3.313   6.066  0.8220 -1.0123 -0.1984
   10SAPS  C210 1252   0.658   3.120   6.157 -0.6741  0.0414 -0.9103
   10SAPS  H10R 1253   0.737   3.077   6.222 -2.3200 -1.0075  0.4765
   10SAPS  H10S 1254   0.677   3.092   6.051  0.5184 -1.5719 -0.3168
   10SAPS  C211 1255   0.526   3.072   6.212  0.8304 -0.2630  0.7031
   10SAPS  H11R 1256   0.488   3.133   6.296  1.0087 -0.3650  0.8585
   10SAPS  C212 1257   0.468   2.964   6.171 -0.6270  0.5599  0.0068
   10SAPS  H12R 1258   0.375   2.933   6.220 -2.0326  2.5025 -1.3101
   10SAPS  C213 1259   0.511   2.870   6.056 -0.7030 -0.2793  0.1775
   10SAPS  H13R 1260   0.503   2.929   5.962  1.3896 -0.4721 -0.1636
   10SAPS  H13S 1261   0.435   2.789   6.056  1.2534 -2.2099  0.5973
   10SAPS  C214 1262   0.642   2.801   6.075  0.5002  0.2397 -0.3591
   10SAPS  H14R 1263   0.702   2.840   6.158 -0.5985 -0.8807  1.0273
   10SAPS  C215 1264   0.691   2.703   5.993  0.5964 -0.6649 -0.2336
   10SAPS  H15R 1265   0.787   2.656   6.022  0.6560 -0.2451  0.2746
   10SAPS  C216 1266   0.623   2.640   5.877 -0.0891  0.3701 -0.0751
   10SAPS  H16R 1267   0.519   2.680   5.871 -0.4350 -0.5571 -0.4124
   10SAPS  H16S 1268   0.616   2.530   5.890  0.2887  0.4380  0.8061
   10SAPS  C217 1269   0.702   2.665   5.745 -0.3164 -1.0609  0.2482
   10SAPS  H17R 1270   0.707   2.776   5.738  2.1342 -0.9459  2.4485
   10SAPS  H17S 1271   0.645   2.625   5.658 -0.3967 -2.2871  0.8470
   10SAPS  C218 1272   0.845   2.600   5.737 -0.3320  0.2768 -0.4270
   10SAPS  H18R 1273   0.907   2.599   5.829 -1.9814  0.0357  0.7094
   10SAPS  H18S 1274   0.894   2.672   5.668  0.3556  0.1914 -0.0371
   10SAPS  C219 1275   0.842   2.457   5.683 -0.0228 -0.9864 -0.3970
   10SAPS  H19R 1276   0.793   2.442   5.585 -0.8052 -0.8496 -0.0324
   10SAPS  H19S 1277   0.782   2.405   5.761 -0.7328  1.8106  1.0813
   10SAPS  C220 1278   0.987   2.403   5.667  0.0063 -0.2774  0.7687
   10SAPS  H20R 1279   1.000   2.302   5.711 -2.4790 -1.2832 -0.6389
   10SAPS  H20S 1280   1.060   2.452   5.736 -0.5729  0.9211  0.5624
   10SAPS  H20T 1281   1.024   2.395   5.563 -0.0361 -1.1566  0.8146
   10SAPS   C33 1282   1.510   3.536   6.424  0.2814 -0.3259 -0.1971
   10SAPS   H3X 1283   1.507   3.554   6.533  0.7944  1.2735 -0.4218
   10SAPS   H3Y 1284   1.404   3.526   6.392  0.6364  1.6597 -2.2499
   10SAPS   C34 1285   1.586   3.662   6.363 -0.4559 -0.2954  0.0257
   10SAPS   H4X 1286   1.620   3.624   6.265 -0.2183 -1.2608  0.4584
   10SAPS   H4Y 1287   1.679   3.686   6.418 -1.5959 -1.4525  2.6499
   10SAPS   C35 1288   1.503   3.790   6.342 -0.3446 -1.3998  0.2192
   10SAPS   H5X 1289   1.481   3.817   6.448 -2.4812 -1.3466 -0.1949
   10SAPS   H5Y 1290   1.401   3.762   6.308 -0.8267  0.8059 -0.3656
   10SAPS   C36 1291   1.548   3.907   6.246 -0.6493 -0.0514  0.0288
   10SAPS   H6X 1292   1.643   3.959   6.271 -0.9994  1.1634 -1.0265
   10SAPS   H6Y 1293   1.472   3.988   6.254  1.1615  1.6249  1.4433
   10SAPS   C37 1294   1.550   3.852   6.101  0.2450 -0.2953 -0.6528
   10SAPS   H7X 1295   1.474   3.772   6.103 -0.9327  0.7987 -0.5146
   10SAPS   H7Y 1296   1.653   3.811   6.090  0.6916  0.5617  0.1892
   10SAPS   C38 1297   1.519   3.945   5.990 -0.4747  0.2760  0.3212
   10SAPS   H8X 1298   1.592   4.030   5.992  0.7261 -0.7053 -0.3270
   10SAPS   H8Y 1299   1.415   3.973   6.015  0.0554  2.7253  0.0760
   10SAPS   C39 1300   1.520   3.872   5.853  0.1599  0.9106  0.1483
   10SAPS   H9X 1301   1.469   3.777   5.878  3.1948 -0.8583  0.0371
   10SAPS   H9Y 1302   1.625   3.862   5.817 -0.6036 -2.8517 -1.4580
   10SAPS  C310 1303   1.448   3.929   5.734 -0.4155 -0.0835 -0.2487
   10SAPS  H10X 1304   1.489   4.029   5.708 -2.2408  0.9213  0.5415
   10SAPS  H10Y 1305   1.343   3.956   5.762  0.0601  2.0432 -0.3305
   10SAPS  C311 1306   1.451   3.833   5.618 -0.5053  0.3020 -0.7143
   10SAPS  H11X 1307   1.409   3.737   5.655 -0.0228  0.2007 -0.4292
   10SAPS  H11Y 1308   1.552   3.797   5.588 -0.3396  0.0289  0.1596
   10SAPS  C312 1309   1.378   3.879   5.498  0.5081 -0.7368 -0.8924
   10SAPS  H12X 1310   1.418   3.975   5.460 -0.1491  0.8722  2.0914
   10SAPS  H12Y 1311   1.274   3.910   5.521  1.1605  2.5093 -1.8498
   10SAPS  C313 1312   1.365   3.760   5.403  0.2107  0.4292 -0.8211
   10SAPS  H13X 1313   1.309   3.673   5.443  1.0782 -0.0785 -0.6807
   10SAPS  H13Y 1314   1.465   3.715   5.383  1.2138  2.2356 -0.1282
   10SAPS  C314 1315   1.287   3.796   5.276 -0.5238 -0.0770 -0.1765
   10SAPS  H14X 1316   1.350   3.841   5.197 -0.0245 -1.3517 -0.5402
   10SAPS  H14Y 1317   1.218   3.879   5.302  1.1016  0.7105  1.8285
   10SAPS  C315 1318   1.214   3.680   5.203 -0.4144  0.1136  0.0939
   10SAPS  H15X 1319   1.141   3.719   5.129  0.7173  1.0228 -0.5773
   10SAPS  H15Y 1320   1.169   3.615   5.281 -0.6618 -2.8714 -2.3722
   10SAPS  C316 1321   1.309   3.592   5.118 -0.1852 -0.5576 -0.4262
   10SAPS  H16X 1322   1.257   3.507   5.070  1.4584 -2.1612  0.4708
   10SAPS  H16Y 1323   1.393   3.546   5.175  0.5006 -1.9760 -2.4731
   10SAPS  C317 1324   1.366   3.653   4.993  0.3942  0.0280 -0.1100
   10SAPS  H17X 1325   1.447   3.720   5.028  0.7079  0.1744 -1.0649
   10SAPS  H17Y 1326   1.279   3.703   4.945 -1.0623 -1.8429  0.4506
   10SAPS  C318 1327   1.433   3.550   4.894 -0.4388  0.4786 -0.0915
   10SAPS  H18X 1328   1.355   3.497   4.835 -0.9564  1.8045 -0.6309
   10SAPS  H18Y 1329   1.490   3.474   4.951 -0.1079  0.9076  0.1594
   10SAPS  H18Z 1330   1.502   3.594   4.818  0.5155 -3.2590 -1.6176
   11SAPS     N 1331   1.030   3.448   2.853 -0.0417 -0.4577 -0.5690
   11SAPS   HN1 1332   1.004   3.451   2.954  2.3605  1.7590  0.1090
   11SAPS   HN2 1333   1.134   3.449   2.849  0.0507  0.1487  0.9572
   11SAPS   HN3 1334   0.996   3.538   2.814  0.8065 -0.5250 -1.4898
   11SAPS   C12 1335   0.968   3.326   2.792  0.4327  0.0001  0.1065
   11SAPS  H12A 1336   0.864   3.318   2.817  0.4602 -0.4453  0.0775
   11SAPS   C13 1337   0.971   3.337   2.640 -0.3742 -0.2306 -0.4834
   11SAPS  O13A 1338   1.043   3.412   2.570  0.0248  0.1266 -0.1279
   11SAPS  O13B 1339   0.908   3.243   2.595  1.0591  0.2683  0.3359
   11SAPS   C11 1340   1.039   3.189   2.836 -0.5579  0.0591 -0.5039
   11SAPS  H11A 1341   0.987   3.106   2.785 -2.8508  1.0158  0.1487
   11SAPS  H11B 1342   1.008   3.178   2.942  0.0489  0.3352 -0.2948
   11SAPS     P 1343   1.274   3.056   2.840 -0.1466 -0.2188 -0.6116
   11SAPS   O13 1344   1.198   2.944   2.784  0.4259  0.6636  0.0931
   11SAPS   O14 1345   1.410   3.073   2.780  0.5214 -0.0888 -0.4542
   11SAPS   O12 1346   1.186   3.188   2.829  0.0771  0.1018  0.1478
   11SAPS   O11 1347   1.274   3.033   2.997  0.0210  0.0461 -0.1899
   11SAPS    C1 1348   1.268   3.134   3.099 -0.1694 -0.6860 -0.0887
   11SAPS    HA 1349   1.197   3.218   3.078  3.9915  2.9245 -1.2098
   11SAPS    HB 1350   1.240   3.091   3.197 -2.0662 -0.1182 -0.3366
   11SAPS    C2 1351   1.400   3.207   3.116  0.1196  0.2327  0.0678
   11SAPS    HS 1352   1.441   3.219   3.013 -2.2162 -1.2391 -1.1176
   11SAPS   O21 1353   1.478   3.115   3.188 -0.3154  0.2142 -0.5571
   11SAPS   C21 1354   1.605   3.115   3.159  0.3624  0.0777  0.1822
   11SAPS   O22 1355   1.657   3.196   3.087 -0.0629  0.5559  0.1665
   11SAPS   C22 1356   1.668   2.991   3.234 -1.0498  0.3407 -0.5260
   11SAPS   H2R 1357   1.636   2.982   3.340  1.5889 -1.5919  0.2014
   11SAPS   H2S 1358   1.631   2.903   3.178  2.2824 -1.3292 -0.3558
   11SAPS    C3 1359   1.403   3.348   3.181 -0.1560  0.6110  0.0157
   11SAPS    HX 1360   1.331   3.419   3.134 -2.3862 -0.4591  1.6443
   11SAPS    HY 1361   1.506   3.388   3.167  0.0380  0.6501  1.4554
   11SAPS   O31 1362   1.384   3.340   3.326 -0.1482  0.2764  0.3519
   11SAPS   C31 1363   1.263   3.364   3.366  0.4288 -0.6241  0.5446
   11SAPS   O32 1364   1.158   3.372   3.300 -0.1193 -0.0069 -0.1932
   11SAPS   C32 1365   1.265   3.390   3.514  0.3640 -0.3910 -0.1637
   11SAPS   H2X 1366   1.361   3.438   3.543  0.7591 -1.3737  0.1908
   11SAPS   H2Y 1367   1.274   3.289   3.559  1.9928  1.3395  3.8741
   11SAPS   C23 1368   1.820   3.009   3.227  0.7703  0.1955  0.1662
   11SAPS   H3R 1369   1.843   3.032   3.120 -0.0337  0.7462  0.1058
   11SAPS   H3S 1370   1.877   2.917   3.255  0.2864 -0.2805 -0.3786
   11SAPS   C24 1371   1.882   3.124   3.312  0.2935 -0.6228  0.6687
   11SAPS   H4R 1372   1.836   3.224   3.298  0.8134 -0.5269 -0.4692
   11SAPS   H4S 1373   1.986   3.143   3.276 -0.2342  2.7534  0.5781
   11SAPS   C25 1374   1.877   3.085   3.459 -0.3140 -0.1543  0.0410
   11SAPS   H5R 1375   1.781   3.046   3.497 -0.4056  2.4083  2.8045
   11SAPS   C26 1376   1.978   3.090   3.548 -0.4360 -0.3469 -0.6245
   11SAPS   H6R 1377   1.961   3.079   3.656  1.6605 -1.0012 -0.3121
   11SAPS   C27 1378   2.117   3.148   3.530 -0.2410 -0.3362  0.1934
   11SAPS   H7R 1379   2.112   3.253   3.567 -0.7929  0.6197 -2.3913
   11SAPS   H7S 1380   2.157   3.143   3.426 -1.9576 -1.4345 -0.4648
   11SAPS   C28 1381   2.221   3.056   3.588 -0.2192  0.3456 -0.3137
   11SAPS   H8R 1382   2.272   2.993   3.514 -1.0784 -0.9928  0.1938
   11SAPS   C29 1383   2.253   3.054   3.723  0.6072 -0.2888  1.0732
   11SAPS   H9R 1384   2.322   2.972   3.747  0.3292 -0.6535  0.6236
   11SAPS  C210 1385   2.192   3.145   3.828 -0.6625  0.5454 -0.2981
   11SAPS  H10R 1386   2.090   3.110   3.857 -1.6220  2.0737 -1.6526
   11SAPS  H10S 1387   2.177   3.250   3.795  1.2432  0.8212 -0.3779
   11SAPS  C211 1388   2.277   3.136   3.954 -0.4486 -0.8540 -0.5071
   11SAPS  H11R 1389   2.376   3.182   3.939 -0.5701 -0.6383 -0.6606
   11SAPS  C212 1390   2.264   3.070   4.070  0.4210 -0.1341 -0.6360
   11SAPS  H12R 1391   2.342   3.067   4.148  1.1888 -4.2836 -1.3193
   11SAPS  C213 1392   2.148   2.994   4.117 -0.0286  0.5900  0.2708
   11SAPS  H13R 1393   2.075   2.983   4.035  1.6235 -0.0067 -1.1759
   11SAPS  H13S 1394   2.093   3.049   4.197 -1.0530 -2.2724  1.6871
   11SAPS  C214 1395   2.190   2.862   4.173  0.6889  0.5695  0.2232
   11SAPS  H14R 1396   2.201   2.789   4.091  1.0511  1.0629 -0.1744
   11SAPS  C215 1397   2.212   2.823   4.297  0.1848 -0.5882  0.0817
   11SAPS  H15R 1398   2.238   2.717   4.308  0.6897 -0.5356 -0.5294
   11SAPS  C216 1399   2.184   2.906   4.422 -0.1779 -0.4353 -0.9443
   11SAPS  H16R 1400   2.082   2.949   4.411 -0.2016 -0.0312  0.6592
   11SAPS  H16S 1401   2.260   2.985   4.438  2.0530 -2.4017 -1.2631
   11SAPS  C217 1402   2.179   2.837   4.558  0.1478  0.6663 -0.4111
   11SAPS  H17R 1403   2.282   2.805   4.583 -0.0566  0.5350  0.2661
   11SAPS  H17S 1404   2.118   2.744   4.557 -1.3797  1.5350  2.4220
   11SAPS  C218 1405   2.121   2.931   4.660 -0.9563  0.0611  0.9571
   11SAPS  H18R 1406   2.019   2.960   4.627 -0.5803  0.2933 -0.0334
   11SAPS  H18S 1407   2.184   3.023   4.660  3.4350 -2.6530 -0.8406
   11SAPS  C219 1408   2.120   2.861   4.792 -0.1337 -0.3410 -0.4202
   11SAPS  H19R 1409   2.224   2.833   4.817  0.2066  0.1379 -1.2577
   11SAPS  H19S 1410   2.074   2.760   4.785  0.2701 -0.6499  1.0718
   11SAPS  C220 1411   2.052   2.941   4.905 -0.3098  0.2765  0.2569
   11SAPS  H20R 1412   1.943   2.943   4.884 -0.0175 -2.4227 -2.0993
   11SAPS  H20S 1413   2.090   3.042   4.928  0.3480  0.0902  0.0190
   11SAPS  H20T 1414   2.066   2.878   4.996  1.2506 -2.2853 -1.6347
   11SAPS   C33 1415   1.138   3.473   3.555 -0.3095  0.0397 -0.0528
   11SAPS   H3X 1416   1.058   3.405   3.519  1.7485 -2.2958 -0.4739
   11SAPS   H3Y 1417   1.132   3.564   3.490 -0.8223  0.0069 -0.0584
   11SAPS   C34 1418   1.131   3.512   3.706  0.2962  0.1236 -0.1976
   11SAPS   H4X 1419   1.050   3.588   3.713  0.8104  0.7679 -1.1334
   11SAPS   H4Y 1420   1.218   3.571   3.742  0.8540 -1.1669  0.6802
   11SAPS   C35 1421   1.114   3.394   3.795 -0.7003  0.1281 -0.2281
   11SAPS   H5X 1422   1.201   3.326   3.788 -2.0710 -1.7006 -0.1406
   11SAPS   H5Y 1423   1.023   3.332   3.778 -0.8673 -0.5001  2.4621
   11SAPS   C36 1424   1.108   3.439   3.941  0.2601 -0.2000 -1.1365
   11SAPS   H6X 1425   1.017   3.502   3.940  0.2631 -0.0640  1.4555
   11SAPS   H6Y 1426   1.191   3.507   3.968 -0.5356 -0.0489  1.1127
   11SAPS   C37 1427   1.109   3.319   4.044  0.2406 -0.2973  0.0333
   11SAPS   H7X 1428   1.053   3.230   4.007 -1.2124  0.2726  0.7925
   11SAPS   H7Y 1429   1.061   3.363   4.134  0.3879  1.8743 -0.9060
   11SAPS   C38 1430   1.250   3.279   4.086  0.1356  0.9443 -0.2896
   11SAPS   H8X 1431   1.301   3.354   4.151  1.4178 -0.3886  0.2950
   11SAPS   H8Y 1432   1.320   3.268   4.000 -0.6312  0.0742 -0.8184
   11SAPS   C39 1433   1.255   3.153   4.180 -0.2193  0.0942 -0.4564
   11SAPS   H9X 1434   1.245   3.064   4.114 -0.3883 -0.4357  0.2646
   11SAPS   H9Y 1435   1.158   3.146   4.234  0.1366  1.9498  0.5071
   11SAPS  C310 1436   1.372   3.140   4.278  0.4646 -0.5161 -0.6084
   11SAPS  H10X 1437   1.391   3.239   4.326  1.3508 -1.0010  0.0755
   11SAPS  H10Y 1438   1.463   3.102   4.228 -0.4743 -1.5081 -1.6157
   11SAPS  C311 1439   1.324   3.060   4.396  0.0787 -0.0566  0.0472
   11SAPS  H11X 1440   1.237   3.107   4.447 -0.1317 -1.0828  0.6597
   11SAPS  H11Y 1441   1.399   3.055   4.477 -0.9554  1.1608  1.1284
   11SAPS  C312 1442   1.290   2.918   4.363  0.1065  0.2038 -0.3984
   11SAPS  H12X 1443   1.377   2.875   4.309  0.9603 -0.6006  1.5423
   11SAPS  H12Y 1444   1.205   2.905   4.293  0.7314 -2.4628 -0.7679
   11SAPS  C313 1445   1.256   2.839   4.487  0.4739 -0.7680 -0.5963
   11SAPS  H13X 1446   1.176   2.888   4.547  0.7653 -2.1693  0.9942
   11SAPS  H13Y 1447   1.344   2.837   4.554  0.3652 -2.4016 -0.4792
   11SAPS  C314 1448   1.222   2.693   4.455 -0.5376 -0.4934 -0.2320
   11SAPS  H14X 1449   1.306   2.644   4.401 -1.7681  0.4652 -3.1959
   11SAPS  H14Y 1450   1.138   2.697   4.383 -1.8579  1.3221  1.3132
   11SAPS  C315 1451   1.184   2.607   4.582 -0.1577 -0.4137  0.4483
   11SAPS  H15X 1452   1.239   2.631   4.675 -1.4063  0.2072  1.0417
   11SAPS  H15Y 1453   1.195   2.498   4.565  0.3538 -0.5605  1.5924
   11SAPS  C316 1454   1.033   2.628   4.602  0.2851  0.7134 -0.0434
   11SAPS  H16X 1455   0.986   2.614   4.503  1.2805 -1.8052 -0.2261
   11SAPS  H16Y 1456   1.007   2.730   4.639  1.2219  1.3819 -1.1739
   11SAPS  C317 1457   0.955   2.542   4.710  0.3567 -0.4795 -0.5135
   11SAPS  H17X 1458   0.848   2.571   4.707  0.0114 -1.8104 -1.9360
   11SAPS  H17Y 1459   0.988   2.574   4.811  0.9564 -0.1648 -0.8049
   11SAPS  C318 1460   0.946   2.391   4.697  0.1642 -0.6596 -0.1317
   11SAPS  H18X 1461   0.904   2.333   4.782  2.9933 -0.2266  1.6794
   11SAPS  H18Y 1462   1.046   2.344   4.682  0.4593  0.0923 -0.5730
   11SAPS  H18Z 1463   0.893   2.367   4.603  0.5497 -2.1971  0.0206
   12SAPS     N 1464   4.290   1.196   2.511  0.3313 -0.2424 -0.3278
   12SAPS   HN1 1465   4.342   1.270   2.459 -1.9297  0.3399 -1.9395
   12SAPS   HN2 1466   4.200   1.232   2.548  0.6465 -0.0734  0.2802
   12SAPS   HN3 1467   4.338   1.147   2.588  0.2778 -1.9878 -1.3571
   12SAPS   C12 1468   4.246   1.095   2.411 -0.0482 -0.2593  0.5483
   12SAPS  H12A 1469   4.143   1.119   2.389 -0.3830 -2.0269 -0.0394
   12SAPS   C13 1470   4.318   1.096   2.269  0.9145  0.6290  0.2417
   12SAPS  O13A 1471   4.417   1.171   2.259 -0.3200 -0.6192 -0.3215
   12SAPS  O13B 1472   4.270   1.018   2.184 -0.2128 -0.1828  0.4448
   12SAPS   C11 1473   4.254   0.955   2.472  0.5340 -0.2574  0.6746
   12SAPS  H11A 1474   4.227   0.962   2.579 -0.0528 -1.2892  0.5997
   12SAPS  H11B 1475   4.350   0.901   2.486  1.4245  0.4973 -1.8638
   12SAPS     P 1476   4.133   0.708   2.432  0.1644 -0.1667  0.6091
   12SAPS   O13 1477   3.987   0.681   2.439 -0.0318  0.3117 -0.6776
   12SAPS   O14 1478   4.215   0.628   2.334  0.4813  0.4323  0.0790
   12SAPS   O12 1479   4.159   0.861   2.406  0.4687  0.0232  0.4278
   12SAPS   O11 1480   4.195   0.687   2.569  0.0307 -0.2820  0.0723
   12SAPS    C1 1481   4.115   0.682   2.689 -0.1995  0.1268  0.1349
   12SAPS    HA 1482   4.051   0.772   2.697 -1.5378 -0.6639 -1.1707
   12SAPS    HB 1483   4.059   0.586   2.698  0.8108 -0.3831  1.2863
   12SAPS    C2 1484   4.211   0.685   2.808  0.4053 -0.1893 -0.1960
   12SAPS    HS 1485   4.216   0.583   2.854  1.6867 -0.4968 -0.9531
   12SAPS   O21 1486   4.171   0.782   2.908  0.1538 -0.2067  0.1644
   12SAPS   C21 1487   4.072   0.739   2.981  1.4035  0.3531  0.1156
   12SAPS   O22 1488   4.008   0.634   2.969 -0.6184  0.3059  0.3068
   12SAPS   C22 1489   4.038   0.844   3.085  0.4002  0.0164  0.4516
   12SAPS   H2R 1490   4.137   0.877   3.125  0.9731 -0.6959 -0.3532
   12SAPS   H2S 1491   3.984   0.922   3.027 -0.9742 -1.3182 -0.1213
   12SAPS    C3 1492   4.363   0.723   2.763 -0.4991 -0.4232 -0.7621
   12SAPS    HX 1493   4.354   0.826   2.724 -0.5386  1.2153  3.0696
   12SAPS    HY 1494   4.402   0.650   2.689 -0.1689  0.1287 -1.1405
   12SAPS   O31 1495   4.449   0.719   2.881  0.0332 -0.3722  0.4075
   12SAPS   C31 1496   4.523   0.820   2.910  0.2908 -0.3105 -0.0157
   12SAPS   O32 1497   4.549   0.916   2.836 -0.5514 -0.4075  0.0359
   12SAPS   C32 1498   4.579   0.808   3.053  0.1914 -0.3049 -0.3497
   12SAPS   H2X 1499   4.624   0.709   3.072  1.2366  0.4355  1.1925
   12SAPS   H2Y 1500   4.489   0.815   3.118  0.3385  0.4717 -0.2169
   12SAPS   C23 1501   3.956   0.793   3.206 -0.3264  0.6601  0.7037
   12SAPS   H3R 1502   4.006   0.711   3.261  0.0823  0.1159 -0.4498
   12SAPS   H3S 1503   3.860   0.752   3.169 -1.2758  0.8218  2.8273
   12SAPS   C24 1504   3.929   0.911   3.298 -0.3532 -0.5278  0.1432
   12SAPS   H4R 1505   3.873   0.990   3.244 -0.5661 -1.5829 -1.2580
   12SAPS   H4S 1506   4.015   0.963   3.345 -2.9792  2.3746  2.0834
   12SAPS   C25 1507   3.829   0.870   3.400  0.6360  0.0782  0.1696
   12SAPS   H5R 1508   3.747   0.809   3.361 -0.3070  2.3469 -1.6179
   12SAPS   C26 1509   3.829   0.894   3.537 -0.3856  0.0839  0.0380
   12SAPS   H6R 1510   3.743   0.864   3.597 -0.1839  1.5097  1.0951
   12SAPS   C27 1511   3.947   0.961   3.605 -0.1896 -0.2314  0.3626
   12SAPS   H7R 1512   3.907   1.000   3.701 -2.6112 -2.2916  0.2924
   12SAPS   H7S 1513   3.975   1.049   3.544  0.3057 -1.6324 -1.5295
   12SAPS   C28 1514   4.060   0.863   3.624 -0.2196 -0.6555 -0.0685
   12SAPS   H8R 1515   4.102   0.828   3.528 -1.8743 -0.3930 -0.9271
   12SAPS   C29 1516   4.102   0.815   3.740  0.6593 -0.7184  0.1621
   12SAPS   H9R 1517   4.171   0.730   3.736  0.3717 -0.9207 -1.0182
   12SAPS  C210 1518   4.051   0.844   3.878 -1.2071  0.4251 -0.2176
   12SAPS  H10R 1519   3.995   0.939   3.869 -1.7628  0.1077 -0.1464
   12SAPS  H10S 1520   4.144   0.848   3.939 -1.1340 -0.3254 -0.2671
   12SAPS  C211 1521   3.959   0.738   3.930  0.0305 -0.4127 -0.3575
   12SAPS  H11R 1522   3.881   0.709   3.859  1.4232 -0.2816 -2.0309
   12SAPS  C212 1523   3.983   0.655   4.033 -0.1782 -0.2950 -0.8047
   12SAPS  H12R 1524   3.903   0.590   4.072  0.8011 -0.9039  0.2409
   12SAPS  C213 1525   4.104   0.659   4.127 -0.1565 -0.4121  0.0079
   12SAPS  H13R 1526   4.089   0.747   4.194 -0.2894 -1.2454  1.0854
   12SAPS  H13S 1527   4.193   0.688   4.067 -0.8661 -0.9462 -1.3423
   12SAPS  C214 1528   4.134   0.538   4.206  0.1191  0.1445  0.6575
   12SAPS  H14R 1529   4.199   0.463   4.158 -2.1566 -2.1954  1.0331
   12SAPS  C215 1530   4.071   0.501   4.318 -0.7321  0.1169 -0.3317
   12SAPS  H15R 1531   4.112   0.407   4.358 -0.2695  0.5824  0.3045
   12SAPS  C216 1532   3.980   0.580   4.402 -0.2529 -0.2101 -0.1650
   12SAPS  H16R 1533   3.930   0.667   4.354  0.1393 -0.0034 -0.2025
   12SAPS  H16S 1534   4.050   0.620   4.478 -0.0291  4.1482 -2.3336
   12SAPS  C217 1535   3.880   0.477   4.464  0.0984 -0.1711  0.5345
   12SAPS  H17R 1536   3.938   0.397   4.515  1.3590  0.6870  0.4761
   12SAPS  H17S 1537   3.824   0.429   4.381  1.1506 -2.5027  1.1059
   12SAPS  C218 1538   3.783   0.538   4.561  0.2905  0.2984  0.0611
   12SAPS  H18R 1539   3.719   0.610   4.505 -1.2641 -0.4846  0.7704
   12SAPS  H18S 1540   3.852   0.603   4.619 -1.6757  1.6152  1.0627
   12SAPS  C219 1541   3.699   0.441   4.652  0.0581 -0.0349  0.5349
   12SAPS  H19R 1542   3.645   0.506   4.724 -1.6038  0.5162 -1.1401
   12SAPS  H19S 1543   3.783   0.379   4.692  0.0763 -2.4357 -2.8030
   12SAPS  C220 1544   3.597   0.367   4.582 -0.5566 -0.2504 -1.0775
   12SAPS  H20R 1545   3.521   0.433   4.533 -1.6863 -0.2590  0.5798
   12SAPS  H20S 1546   3.544   0.295   4.648  0.5415  0.4411  0.6211
   12SAPS  H20T 1547   3.639   0.305   4.500 -0.8718 -1.6275 -0.2204
   12SAPS   C33 1548   4.694   0.911   3.081  0.4446 -0.0725  0.2520
   12SAPS   H3X 1549   4.654   1.015   3.082 -0.8981 -0.5746  0.5264
   12SAPS   H3Y 1550   4.769   0.901   3.000 -0.6166 -0.2806 -0.7172
   12SAPS   C34 1551   4.756   0.882   3.221 -0.3726 -0.6505  0.2736
   12SAPS   H4X 1552   4.838   0.955   3.235 -0.2401 -0.8221  0.4094
   12SAPS   H4Y 1553   4.795   0.777   3.222  0.4518 -0.3470  0.7071
   12SAPS   C35 1554   4.661   0.920   3.334  0.0769 -0.8205  0.4144
   12SAPS   H5X 1555   4.554   0.904   3.309 -0.4612  3.2457 -0.5154
   12SAPS   H5Y 1556   4.656   1.030   3.349 -0.7521 -0.8282  0.1997
   12SAPS   C36 1557   4.690   0.854   3.465 -0.6808  1.3032 -0.5628
   12SAPS   H6X 1558   4.798   0.873   3.478 -0.2988 -1.1124  0.1675
   12SAPS   H6Y 1559   4.670   0.749   3.434 -0.2131  1.7199 -2.4101
   12SAPS   C37 1560   4.600   0.881   3.579  0.4077  0.0160 -0.6852
   12SAPS   H7X 1561   4.495   0.855   3.551 -0.0589  1.3145 -0.2205
   12SAPS   H7Y 1562   4.598   0.988   3.607 -0.5699 -0.2535  0.3680
   12SAPS   C38 1563   4.629   0.798   3.702 -0.5062  0.1049 -0.3628
   12SAPS   H8X 1564   4.737   0.818   3.719 -0.5762  1.5257 -1.4343
   12SAPS   H8Y 1565   4.630   0.688   3.685 -2.3885 -0.1697  0.9655
   12SAPS   C39 1566   4.545   0.834   3.830 -0.6693 -0.3398 -0.0256
   12SAPS   H9X 1567   4.442   0.848   3.790  0.0155  0.4342 -1.5823
   12SAPS   H9Y 1568   4.570   0.936   3.865  1.6106 -0.1367 -2.0252
   12SAPS  C310 1569   4.561   0.738   3.948  0.2581 -0.5438 -1.0678
   12SAPS  H10X 1570   4.669   0.756   3.966 -0.0363  1.0630 -0.7605
   12SAPS  H10Y 1571   4.551   0.630   3.923  0.3693 -1.6973  3.1138
   12SAPS  C311 1572   4.481   0.776   4.069  0.1055  0.5151  0.5455
   12SAPS  H11X 1573   4.371   0.774   4.051  0.2342 -2.8553 -0.5991
   12SAPS  H11Y 1574   4.514   0.881   4.082  0.2717  0.3987  1.0769
   12SAPS  C312 1575   4.518   0.700   4.191 -0.0077 -0.8048  0.3015
   12SAPS  H12X 1576   4.627   0.692   4.209 -0.2996 -2.5381  1.6472
   12SAPS  H12Y 1577   4.488   0.596   4.163 -0.5264 -0.2143 -1.4440
   12SAPS  C313 1578   4.440   0.751   4.315 -0.7479 -0.0014 -0.1736
   12SAPS  H13X 1579   4.472   0.693   4.404 -1.5029 -2.4921 -1.4402
   12SAPS  H13Y 1580   4.338   0.723   4.283 -0.1118 -0.8485 -1.6003
   12SAPS  C314 1581   4.458   0.902   4.349  0.1156 -0.4834 -0.0506
   12SAPS  H14X 1582   4.403   0.968   4.277  0.6503 -0.7774 -0.7340
   12SAPS  H14Y 1583   4.565   0.931   4.344 -0.3223  1.0347 -1.8327
   12SAPS  C315 1584   4.404   0.943   4.490 -0.0385  0.1011  0.2330
   12SAPS  H15X 1585   4.455   0.862   4.547 -1.3604 -2.1844 -1.6701
   12SAPS  H15Y 1586   4.298   0.913   4.507 -0.7946  2.8092  0.7578
   12SAPS  C316 1587   4.441   1.082   4.535  0.4515 -0.4287  0.1854
   12SAPS  H16X 1588   4.348   1.139   4.514 -0.3890 -2.3033 -1.5426
   12SAPS  H16Y 1589   4.525   1.121   4.473  0.1854  1.0382  0.7111
   12SAPS  C317 1590   4.482   1.099   4.680 -0.4857  0.3792  0.2741
   12SAPS  H17X 1591   4.589   1.070   4.689 -0.0009  0.1861 -3.9974
   12SAPS  H17Y 1592   4.413   1.044   4.748 -0.3900  2.3664  2.1009
   12SAPS  C318 1593   4.472   1.243   4.713 -0.3368  0.0580 -0.2707
   12SAPS  H18X 1594   4.559   1.299   4.674 -1.0475  1.7055  0.4193
   12SAPS  H18Y 1595   4.471   1.252   4.823  0.0654 -2.0933 -0.0524
   12SAPS  H18Z 1596   4.377   1.289   4.677 -0.6858  0.5520  1.1986
   13SAPS     N 1597   4.065   1.730   2.806 -0.4774  0.0177  0.0795
   13SAPS   HN1 1598   4.061   1.833   2.812  0.8143  0.0921 -0.1263
   13SAPS   HN2 1599   3.970   1.687   2.804 -0.5535  0.2170 -1.7327
   13SAPS   HN3 1600   4.114   1.694   2.891 -0.4531  0.5187  0.2762
   13SAPS   C12 1601   4.143   1.697   2.684 -0.5194  0.1983  0.1926
   13SAPS  H12A 1602   4.103   1.758   2.604  1.4646  0.7723 -0.3978
   13SAPS   C13 1603   4.296   1.726   2.686 -0.5596 -0.0300  0.5876
   13SAPS  O13A 1604   4.341   1.793   2.781 -0.1621  0.0128 -0.0269
   13SAPS  O13B 1605   4.357   1.707   2.572  0.0452 -0.5397 -0.6335
   13SAPS   C11 1606   4.120   1.545   2.646  0.6103  0.0709  0.1529
   13SAPS  H11A 1607   4.157   1.478   2.725  2.2707  0.8011  0.0304
   13SAPS  H11B 1608   4.170   1.518   2.550 -3.3232 -0.5581 -1.9538
   13SAPS     P 1609   3.937   1.368   2.630 -0.0298 -0.4979 -0.5059
   13SAPS   O13 1610   3.799   1.362   2.580  0.2046 -0.6384 -0.3882
   13SAPS   O14 1611   4.039   1.299   2.547  0.1659  0.3782  0.1160
   13SAPS   O12 1612   3.980   1.518   2.622  0.1403  0.4263  0.0912
   13SAPS   O11 1613   3.945   1.319   2.785 -0.2848 -0.6025 -0.0797
   13SAPS    C1 1614   3.903   1.404   2.891 -0.1256 -0.5667 -0.2619
   13SAPS    HA 1615   3.980   1.483   2.905  0.3804  0.0733 -5.0587
   13SAPS    HB 1616   3.819   1.473   2.864 -0.0960 -0.5723 -0.3715
   13SAPS    C2 1617   3.857   1.316   3.019  0.4988 -0.0113 -0.2216
   13SAPS    HS 1618   3.804   1.381   3.092  1.2735  1.4200 -0.8818
   13SAPS   O21 1619   3.967   1.243   3.079  0.3134 -0.1307 -0.2930
   13SAPS   C21 1620   4.055   1.324   3.139 -0.1787  0.2121  0.1846
   13SAPS   O22 1621   4.057   1.445   3.139 -0.1602  0.1938 -0.2445
   13SAPS   C22 1622   4.168   1.239   3.204 -0.2372 -0.1351  0.8403
   13SAPS   H2R 1623   4.121   1.178   3.284 -1.2780  0.3477  0.6129
   13SAPS   H2S 1624   4.205   1.164   3.131 -0.6391 -0.0533  0.5507
   13SAPS    C3 1625   3.742   1.212   2.972 -0.0013  0.4501  0.5581
   13SAPS    HX 1626   3.799   1.141   2.909  0.1704  2.1602 -1.3087
   13SAPS    HY 1627   3.686   1.279   2.903 -0.6059 -0.4047  0.2050
   13SAPS   O31 1628   3.665   1.148   3.080  0.1773  0.2493  0.0680
   13SAPS   C31 1629   3.531   1.158   3.061 -0.0328  0.7007 -0.5911
   13SAPS   O32 1630   3.480   1.222   2.974 -0.0443  0.2628  0.0123
   13SAPS   C32 1631   3.460   1.061   3.154  0.4808  0.3281 -0.3715
   13SAPS   H2X 1632   3.514   0.964   3.150 -0.1401 -0.0274 -0.1837
   13SAPS   H2Y 1633   3.364   1.039   3.104  0.9636  1.2503 -1.7771
   13SAPS   C23 1634   4.288   1.310   3.282  0.0861  0.1792 -0.7442
   13SAPS   H3R 1635   4.249   1.351   3.378  0.5426 -3.3647  1.1218
   13SAPS   H3S 1636   4.338   1.389   3.223  1.5311 -1.6255 -2.0516
   13SAPS   C24 1637   4.394   1.208   3.337 -0.5538  0.0003  0.3554
   13SAPS   H4R 1638   4.476   1.255   3.394  1.2862  0.2011 -2.2488
   13SAPS   H4S 1639   4.438   1.150   3.253 -1.2732 -1.8988  1.2378
   13SAPS   C25 1640   4.338   1.100   3.428  0.8976 -0.7067  0.9837
   13SAPS   H5R 1641   4.312   1.007   3.375  0.8839  1.2162 -2.7606
   13SAPS   C26 1642   4.316   1.119   3.558  0.0365  0.6696 -0.2587
   13SAPS   H6R 1643   4.282   1.035   3.621  1.4927  1.5580  1.8367
   13SAPS   C27 1644   4.348   1.238   3.645 -0.5968  0.2358  0.4818
   13SAPS   H7R 1645   4.280   1.322   3.619  1.6913  1.4688 -2.0367
   13SAPS   H7S 1646   4.444   1.284   3.613 -1.4347  2.6508  1.2202
   13SAPS   C28 1647   4.334   1.186   3.786  0.3890  0.2913 -0.6645
   13SAPS   H8R 1648   4.411   1.113   3.816 -0.9844 -0.8092  0.3256
   13SAPS   C29 1649   4.231   1.188   3.863 -0.2941 -0.0379 -0.6133
   13SAPS   H9R 1650   4.240   1.129   3.956 -0.2151  0.2602 -0.4283
   13SAPS  C210 1651   4.106   1.271   3.847  0.4221  0.5411  0.3844
   13SAPS  H10R 1652   4.081   1.281   3.739  2.0088 -0.4732 -0.1183
   13SAPS  H10S 1653   4.116   1.375   3.885 -1.2087  0.5351  0.9060
   13SAPS  C211 1654   3.979   1.207   3.892 -0.0054 -0.0746  0.0831
   13SAPS  H11R 1655   3.908   1.177   3.814  2.0260 -2.4297 -1.0036
   13SAPS  C212 1656   3.933   1.216   4.014  0.4222  0.6686  0.2675
   13SAPS  H12R 1657   3.835   1.168   4.032 -0.4122  2.1466 -0.1897
   13SAPS  C213 1658   4.006   1.279   4.131 -0.0735 -0.2060  0.0646
   13SAPS  H13R 1659   3.929   1.314   4.204 -1.2649  0.4520 -1.4479
   13SAPS  H13S 1660   4.060   1.369   4.094  1.5810 -0.6413  1.3296
   13SAPS  C214 1661   4.114   1.194   4.193  0.2982  0.2522  0.9275
   13SAPS  H14R 1662   4.212   1.241   4.179  0.7409 -0.1909  2.3339
   13SAPS  C215 1663   4.107   1.078   4.252  0.8114 -0.4711 -0.0807
   13SAPS  H15R 1664   4.191   1.021   4.294  0.2713 -2.6063 -1.7043
   13SAPS  C216 1665   3.975   1.018   4.291 -0.0087 -0.1795 -0.0671
   13SAPS  H16R 1666   3.939   0.939   4.222  0.8829 -0.9485  0.3152
   13SAPS  H16S 1667   3.894   1.092   4.306  0.5623  0.6215 -0.7954
   13SAPS  C217 1668   3.997   0.933   4.420  0.3583 -0.5180  0.4019
   13SAPS  H17R 1669   4.077   0.857   4.401  1.7972  1.1268 -0.4474
   13SAPS  H17S 1670   3.910   0.867   4.439  0.6434 -1.4287 -1.2298
   13SAPS  C218 1671   4.030   1.009   4.551  0.1231  0.2386 -0.7678
   13SAPS  H18R 1672   3.970   1.102   4.557  0.2216  0.2580  0.1473
   13SAPS  H18S 1673   4.135   1.042   4.562  0.0467  0.5973 -1.1246
   13SAPS  C219 1674   3.979   0.935   4.671  0.4226 -0.1424  0.2466
   13SAPS  H19R 1675   4.050   0.851   4.688  1.9843  0.7742 -1.4054
   13SAPS  H19S 1676   3.878   0.894   4.648 -0.3473  1.6946  0.1604
   13SAPS  C220 1677   3.974   1.016   4.796 -0.0970 -0.7820 -0.3986
   13SAPS  H20R 1678   3.916   0.973   4.880 -0.9541  1.2622  0.0940
   13SAPS  H20S 1679   3.932   1.117   4.782  3.0300  0.6950 -0.0252
   13SAPS  H20T 1680   4.076   1.038   4.834 -1.5848  2.4506  2.1636
   13SAPS   C33 1681   3.450   1.117   3.299  0.4671 -0.0688  0.1866
   13SAPS   H3X 1682   3.383   1.205   3.299  0.9902  0.3539 -1.1001
   13SAPS   H3Y 1683   3.548   1.160   3.331  0.5488  2.2420 -2.7150
   13SAPS   C34 1684   3.404   0.996   3.398 -0.5263 -0.0376  0.1962
   13SAPS   H4X 1685   3.474   0.912   3.381 -0.4113 -0.0220  0.5940
   13SAPS   H4Y 1686   3.303   0.960   3.368 -0.8658  1.0240  0.0001
   13SAPS   C35 1687   3.421   1.038   3.544  0.0765  0.6214 -0.2337
   13SAPS   H5X 1688   3.342   1.111   3.570 -0.2282 -0.5139  2.2809
   13SAPS   H5Y 1689   3.525   1.075   3.547  0.5972 -0.5671 -1.9988
   13SAPS   C36 1690   3.407   0.917   3.637 -0.6045 -0.7085 -0.8814
   13SAPS   H6X 1691   3.455   0.831   3.587 -0.0436 -1.3998  0.7818
   13SAPS   H6Y 1692   3.302   0.900   3.671  0.0891 -1.3784  1.0496
   13SAPS   C37 1693   3.477   0.947   3.774 -0.8901  0.0050 -0.3805
   13SAPS   H7X 1694   3.406   1.013   3.827  0.3462  0.1411  1.1877
   13SAPS   H7Y 1695   3.571   1.006   3.768 -0.4600 -0.6690 -0.4278
   13SAPS   C38 1696   3.485   0.818   3.853  0.2201  0.3744  0.5571
   13SAPS   H8X 1697   3.559   0.747   3.812  0.4279  0.7283  0.3091
   13SAPS   H8Y 1698   3.387   0.768   3.835 -0.3923  2.1787 -1.6852
   13SAPS   C39 1699   3.506   0.843   4.005  0.3989  1.0598  0.4107
   13SAPS   H9X 1700   3.411   0.892   4.036 -0.2807 -0.0292  0.1288
   13SAPS   H9Y 1701   3.608   0.886   4.010  1.0355 -0.1139 -1.4288
   13SAPS  C310 1702   3.505   0.707   4.082 -0.1126 -0.1975  0.2749
   13SAPS  H10X 1703   3.575   0.637   4.033 -1.6562 -1.1373 -0.6680
   13SAPS  H10Y 1704   3.403   0.667   4.064 -0.2101  0.7999 -1.6498
   13SAPS  C311 1705   3.532   0.721   4.230  0.5862  0.8169 -0.9547
   13SAPS  H11X 1706   3.618   0.789   4.249 -0.5844  2.1644 -0.3149
   13SAPS  H11Y 1707   3.555   0.621   4.272  0.1093  2.1951  2.9576
   13SAPS  C312 1708   3.399   0.769   4.292  0.0463  0.9964 -0.7937
   13SAPS  H12X 1709   3.313   0.709   4.256  1.7661 -1.2757 -1.3953
   13SAPS  H12Y 1710   3.376   0.875   4.270 -0.3849  1.2440  0.7430
   13SAPS  C313 1711   3.410   0.763   4.444  0.0614  0.1983  0.6721
   13SAPS  H13X 1712   3.512   0.789   4.481  0.3385 -3.6620  3.2780
   13SAPS  H13Y 1713   3.414   0.655   4.468  2.4228 -0.1665 -1.0691
   13SAPS  C314 1714   3.312   0.836   4.528 -0.2060  0.1685  0.4599
   13SAPS  H14X 1715   3.303   0.945   4.508 -1.4844 -0.1195 -0.7009
   13SAPS  H14Y 1716   3.346   0.838   4.634  0.1328  0.9220  0.3453
   13SAPS  C315 1717   3.171   0.785   4.522 -1.1183 -0.5382 -0.3987
   13SAPS  H15X 1718   3.175   0.695   4.587  0.6446 -2.2613 -2.6754
   13SAPS  H15Y 1719   3.146   0.750   4.419  0.1399 -0.4840 -0.7489
   13SAPS  C316 1720   3.066   0.882   4.573 -0.4235 -0.2683  0.5281
   13SAPS  H16X 1721   3.038   0.961   4.500  1.4608 -1.1218 -1.2211
   13SAPS  H16Y 1722   3.097   0.930   4.669 -0.7981  2.8522 -0.7984
   13SAPS  C317 1723   2.940   0.806   4.617  0.0304  0.3661 -0.2785
   13SAPS  H17X 1724   2.972   0.723   4.683 -1.8043 -1.3511 -1.4484
   13SAPS  H17Y 1725   2.879   0.758   4.537  0.1194  1.3166 -0.9317
   13SAPS  C318 1726   2.850   0.904   4.701  0.4955 -0.2145  0.1506
   13SAPS  H18X 1727   2.898   0.950   4.790  0.3542 -2.3349  1.4047
   13SAPS  H18Y 1728   2.761   0.858   4.749 -1.7080  3.5621  0.0836
   13SAPS  H18Z 1729   2.818   0.981   4.628  0.9046  0.2284  0.4348
   14SAPS     N 1730   4.952   2.322   2.856 -0.8736 -0.8066  0.2606
   14SAPS   HN1 1731   4.993   2.281   2.942  0.1580  0.7089  0.5178
   14SAPS   HN2 1732   4.979   2.422   2.852 -0.1958 -0.9652  0.7018
   14SAPS   HN3 1733   4.849   2.311   2.866 -0.6740 -1.5584  1.6902
   14SAPS   C12 1734   4.991   2.260   2.728  0.5025  0.0732 -0.0421
   14SAPS  H12A 1735   4.924   2.294   2.650  0.4248  2.2904  0.9091
   14SAPS   C13 1736   5.135   2.300   2.682  0.7828 -1.0851  0.3448
   14SAPS  O13A 1737   5.216   2.349   2.766 -0.7275 -0.4875  0.7375
   14SAPS  O13B 1738   5.167   2.284   2.562  0.4135  0.0638 -0.1810
   14SAPS   C11 1739   4.978   2.107   2.743  0.1899  0.2178 -0.2399
   14SAPS  H11A 1740   5.052   2.061   2.813  0.9545  0.2122 -1.0409
   14SAPS  H11B 1741   4.991   2.066   2.641  0.3109 -1.9344  0.5835
   14SAPS     P 1742   4.726   2.009   2.728  0.0430  0.7353  0.1947
   14SAPS   O13 1743   4.630   2.115   2.703  0.1485  0.2550 -0.2043
   14SAPS   O14 1744   4.777   1.924   2.614 -0.0173 -0.1914  0.3667
   14SAPS   O12 1745   4.847   2.076   2.800 -0.4845  0.6095  0.3120
   14SAPS   O11 1746   4.672   1.918   2.849 -0.7478  1.1052 -0.6072
   14SAPS    C1 1747   4.618   1.978   2.969 -0.3435 -0.2569  0.7008
   14SAPS    HA 1748   4.630   2.088   2.963  0.1365 -0.3243  0.2577
   14SAPS    HB 1749   4.514   1.955   2.999 -0.0796 -0.7880  1.2360
   14SAPS    C2 1750   4.712   1.951   3.090 -0.1118  0.3028 -0.6394
   14SAPS    HS 1751   4.814   1.975   3.054 -0.4289  1.7302 -0.6417
   14SAPS   O21 1752   4.693   1.812   3.132  0.2060 -0.4202 -0.3453
   14SAPS   C21 1753   4.794   1.732   3.112  0.0542  0.2631 -0.2647
   14SAPS   O22 1754   4.904   1.757   3.060  0.0546 -0.0982  0.1485
   14SAPS   C22 1755   4.755   1.594   3.168 -0.7681  0.7750 -0.6373
   14SAPS   H2R 1756   4.667   1.560   3.109  0.6130 -1.7668 -1.3969
   14SAPS   H2S 1757   4.831   1.519   3.137 -1.3775 -0.5901  1.0093
   14SAPS    C3 1758   4.677   2.045   3.208 -0.9111  0.1110 -0.4074
   14SAPS    HX 1759   4.569   2.044   3.235 -0.9865 -1.1500 -0.7041
   14SAPS    HY 1760   4.700   2.149   3.178  2.3135 -1.3002 -3.5494
   14SAPS   O31 1761   4.738   2.011   3.335 -0.5222  0.6333 -0.5983
   14SAPS   C31 1762   4.861   2.054   3.343  0.3512 -0.9503  0.2735
   14SAPS   O32 1763   4.907   2.150   3.279 -0.4935 -0.5985  0.2268
   14SAPS   C32 1764   4.938   1.980   3.453 -0.8801  0.4048 -0.6760
   14SAPS   H2X 1765   5.001   1.896   3.417 -1.3642 -1.3282  2.1967
   14SAPS   H2Y 1766   4.867   1.942   3.530 -0.0059 -0.3029 -0.1984
   14SAPS   C23 1767   4.744   1.594   3.323 -0.1244 -0.3889 -0.6344
   14SAPS   H3R 1768   4.688   1.684   3.357  1.3821  1.3115 -2.3785
   14SAPS   H3S 1769   4.849   1.592   3.358  0.5052 -0.0970 -2.4065
   14SAPS   C24 1770   4.669   1.466   3.363  0.1295 -0.6933 -0.0009
   14SAPS   H4R 1771   4.576   1.460   3.302  0.0773  1.9699 -0.3102
   14SAPS   H4S 1772   4.624   1.474   3.464  0.7400  0.2196  0.2161
   14SAPS   C25 1773   4.743   1.341   3.328  0.3306 -0.6213  0.2158
   14SAPS   H5R 1774   4.758   1.325   3.220  1.7693  0.5132  0.2123
   14SAPS   C26 1775   4.784   1.241   3.414  0.5932 -0.1733  0.4248
   14SAPS   H6R 1776   4.842   1.157   3.373 -0.4758 -0.2097 -1.1105
   14SAPS   C27 1777   4.755   1.241   3.562 -0.0365  0.3066 -0.1643
   14SAPS   H7R 1778   4.748   1.132   3.584 -3.5994  0.1449 -1.4606
   14SAPS   H7S 1779   4.654   1.278   3.588  0.9004  1.5826  1.8992
   14SAPS   C28 1780   4.850   1.304   3.662 -0.3040  0.1034  0.4234
   14SAPS   H8R 1781   4.943   1.345   3.620 -0.5235 -1.9414 -2.3397
   14SAPS   C29 1782   4.841   1.284   3.793 -0.0774 -0.2866  0.1173
   14SAPS   H9R 1783   4.917   1.335   3.854 -0.8035 -0.5691  1.2751
   14SAPS  C210 1784   4.723   1.216   3.867 -0.7661 -0.0168 -0.0094
   14SAPS  H10R 1785   4.656   1.193   3.782  0.8738  1.8361 -1.9514
   14SAPS  H10S 1786   4.670   1.285   3.936  0.0252 -0.6733  1.3030
   14SAPS  C211 1787   4.764   1.093   3.951  0.1505  0.7339  0.0511
   14SAPS  H11R 1788   4.759   1.006   3.884  0.3091  1.6886 -1.2527
   14SAPS  C212 1789   4.786   1.084   4.081  0.1437 -0.6732  0.2994
   14SAPS  H12R 1790   4.807   0.987   4.128  1.8001 -1.1948 -1.3680
   14SAPS  C213 1791   4.776   1.196   4.186  0.5692  0.0100  0.0512
   14SAPS  H13R 1792   4.740   1.141   4.276  0.0822  0.0807 -0.0963
   14SAPS  H13S 1793   4.701   1.277   4.171  1.9957  1.3611  0.0258
   14SAPS  C214 1794   4.911   1.262   4.210  0.7644 -0.2191 -0.7707
   14SAPS  H14R 1795   4.985   1.274   4.129 -1.1936  4.2326 -2.2242
   14SAPS  C215 1796   4.934   1.330   4.325  0.0303 -0.8962 -0.7447
   14SAPS  H15R 1797   5.025   1.391   4.330 -1.0467  0.6984  0.1908
   14SAPS  C216 1798   4.839   1.352   4.441  0.1545  0.1311 -0.3491
   14SAPS  H16R 1799   4.892   1.311   4.530  1.5815  2.5699 -0.0030
   14SAPS  H16S 1800   4.748   1.291   4.423 -0.1601 -0.3672  2.4113
   14SAPS  C217 1801   4.787   1.500   4.452 -0.2133 -0.4013  0.1734
   14SAPS  H17R 1802   4.722   1.512   4.363  0.3767 -0.6612 -0.2953
   14SAPS  H17S 1803   4.864   1.580   4.446  1.0145 -1.6254 -0.8999
   14SAPS  C218 1804   4.705   1.540   4.572 -0.1155  0.0831 -0.1326
   14SAPS  H18R 1805   4.765   1.553   4.665  2.0994 -0.2747 -1.4652
   14SAPS  H18S 1806   4.628   1.462   4.589 -0.2780  0.2897  0.0977
   14SAPS  C219 1807   4.635   1.673   4.547 -0.6742 -0.0401 -0.2678
   14SAPS  H19R 1808   4.544   1.650   4.487 -0.5183 -0.7152 -0.2549
   14SAPS  H19S 1809   4.702   1.747   4.499  0.7873 -0.9542  0.2953
   14SAPS  C220 1810   4.591   1.730   4.679  0.0700  0.0362 -0.2935
   14SAPS  H20R 1811   4.523   1.815   4.655  0.7398  0.3823 -1.0083
   14SAPS  H20S 1812   4.672   1.769   4.745  0.1613 -1.2205  0.3716
   14SAPS  H20T 1813   4.528   1.654   4.730 -0.2436 -0.4741 -1.4245
   14SAPS   C33 1814   5.034   2.077   3.527  0.3232  0.4838  0.5809
   14SAPS   H3X 1815   4.997   2.181   3.523  1.6717  0.9960  0.9498
   14SAPS   H3Y 1816   5.129   2.070   3.469  0.0384 -0.3107  0.1842
   14SAPS   C34 1817   5.051   2.043   3.674  0.3131  0.2277 -1.2548
   14SAPS   H4X 1818   5.106   1.949   3.697 -1.5610 -0.3956  0.9621
   14SAPS   H4Y 1819   4.949   2.020   3.711  1.7244 -2.4195  1.4575
   14SAPS   C35 1820   5.120   2.148   3.755 -0.4421 -0.2903  0.4409
   14SAPS   H5X 1821   5.054   2.236   3.745 -0.3484 -0.1079  1.3892
   14SAPS   H5Y 1822   5.224   2.168   3.719 -0.3949  2.2267  1.7622
   14SAPS   C36 1823   5.133   2.120   3.910  0.0087  0.7090 -0.1264
   14SAPS   H6X 1824   5.046   2.071   3.958  0.2912 -0.0741 -0.4039
   14SAPS   H6Y 1825   5.137   2.214   3.970 -1.8688  0.4466  0.4949
   14SAPS   C37 1826   5.266   2.050   3.958 -0.9221 -0.2205 -0.7437
   14SAPS   H7X 1827   5.345   2.119   3.922 -0.7520  0.1200  0.2799
   14SAPS   H7Y 1828   5.283   1.954   3.904 -1.8379  0.0664 -1.5882
   14SAPS   C38 1829   5.285   2.012   4.102  0.3297  0.9654 -0.4161
   14SAPS   H8X 1830   5.384   1.964   4.114  0.1087  0.3868 -0.8587
   14SAPS   H8Y 1831   5.226   1.919   4.119  0.8412  0.5644 -0.7941
   14SAPS   C39 1832   5.257   2.115   4.219 -0.0149  0.3014  0.8192
   14SAPS   H9X 1833   5.156   2.160   4.204 -0.3947 -1.0250 -1.1114
   14SAPS   H9Y 1834   5.333   2.192   4.196  0.8345 -1.4139 -2.9778
   14SAPS  C310 1835   5.270   2.050   4.356 -0.3691  0.1254 -0.1511
   14SAPS  H10X 1836   5.356   1.979   4.358 -0.5270 -0.0833 -0.6776
   14SAPS  H10Y 1837   5.176   1.991   4.353 -1.3396  1.6625 -1.5137
   14SAPS  C311 1838   5.275   2.161   4.462  0.1119  0.6956 -0.1239
   14SAPS  H11X 1839   5.189   2.230   4.455 -0.5761 -0.0440  0.7548
   14SAPS  H11Y 1840   5.364   2.224   4.438  1.0457 -0.3171  0.5310
   14SAPS  C312 1841   5.281   2.108   4.609 -0.2728 -0.0541 -0.3822
   14SAPS  H12X 1842   5.283   2.205   4.663  0.2018  0.3257 -1.0704
   14SAPS  H12Y 1843   5.377   2.058   4.634  0.5345  1.4125 -0.4787
   14SAPS  C313 1844   5.154   2.033   4.646  0.3105  0.4595 -0.2971
   14SAPS  H13X 1845   5.163   1.928   4.611  2.0548  0.3935  0.2378
   14SAPS  H13Y 1846   5.070   2.086   4.598  0.8559  0.8890 -0.7917
   14SAPS  C314 1847   5.128   2.021   4.793  0.5801 -0.0601  0.5731
   14SAPS  H14X 1848   5.125   2.118   4.846  0.3172  1.1574 -1.5647
   14SAPS  H14Y 1849   5.216   1.966   4.832 -1.2662 -3.0365  0.8453
   14SAPS  C315 1850   5.022   1.916   4.825 -0.7652  0.0212 -0.0387
   14SAPS  H15X 1851   5.047   1.826   4.766  0.2920  0.8847 -0.9555
   14SAPS  H15Y 1852   4.928   1.957   4.781 -0.1651  0.8079 -0.5968
   14SAPS  C316 1853   4.999   1.872   4.975 -0.2061  0.4854  0.7460
   14SAPS  H16X 1854   4.903   1.817   4.983 -0.9610  1.7603  0.8030
   14SAPS  H16Y 1855   4.984   1.971   5.023  0.6208  0.8171  0.3332
   14SAPS  C317 1856   5.113   1.793   5.031 -0.3165 -0.2636 -0.2754
   14SAPS  H17X 1857   5.201   1.860   5.020 -1.3412  1.3779  1.0221
   14SAPS  H17Y 1858   5.127   1.701   4.971 -0.6848  0.9416 -2.3073
   14SAPS  C318 1859   5.109   1.766   5.181  0.2894  0.2974  0.0005
   14SAPS  H18X 1860   5.135   1.866   5.223  0.2721  1.4464 -2.5378
   14SAPS  H18Y 1861   5.192   1.702   5.218  0.4594  0.6858  0.3012
   14SAPS  H18Z 1862   5.008   1.734   5.216  0.7414 -2.7128 -1.1785
   15SAPS     N 1863   5.319   2.133   2.408  0.5478  0.0447  0.1909
   15SAPS   HN1 1864   5.264   2.200   2.467 -0.5399  0.2371 -0.9905
   15SAPS   HN2 1865   5.352   2.174   2.319 -2.1291  0.3806 -0.7372
   15SAPS   HN3 1866   5.247   2.060   2.390 -1.4792  1.9101  0.2598
   15SAPS   C12 1867   5.429   2.075   2.479  1.3641 -0.1701 -0.9206
   15SAPS  H12A 1868   5.477   1.998   2.421  2.6421  1.0607 -1.5474
   15SAPS   C13 1869   5.537   2.176   2.515  0.3865  0.2116  0.2119
   15SAPS  O13A 1870   5.531   2.294   2.475  0.1929  0.4264  0.2986
   15SAPS  O13B 1871   5.637   2.131   2.583  0.2151  0.1000  0.3099
   15SAPS   C11 1872   5.361   2.015   2.610 -1.1000 -0.5803 -0.1916
   15SAPS  H11A 1873   5.308   2.095   2.666  0.7789  1.2052 -0.8295
   15SAPS  H11B 1874   5.436   1.985   2.686 -2.7566  3.1472  3.2832
   15SAPS     P 1875   5.287   1.767   2.567 -0.1430 -0.1372 -0.3285
   15SAPS   O13 1876   5.165   1.691   2.543  0.2165  0.3451 -0.1827
   15SAPS   O14 1877   5.389   1.756   2.463 -0.8083  0.2844  0.5026
   15SAPS   O12 1878   5.261   1.917   2.580  0.6362  0.2312 -1.0579
   15SAPS   O11 1879   5.334   1.725   2.713 -0.3355 -0.2187  0.4394
   15SAPS    C1 1880   5.252   1.766   2.825  0.4550  0.3593 -0.0927
   15SAPS    HA 1881   5.173   1.842   2.806 -0.2294  0.2392  1.9973
   15SAPS    HB 1882   5.193   1.678   2.858 -1.1496  0.9970 -1.1556
   15SAPS    C2 1883   5.332   1.803   2.948 -0.2489  0.5831 -0.5164
   15SAPS    HS 1884   5.385   1.898   2.924  0.3528  0.2678 -0.4644
   15SAPS   O21 1885   5.418   1.691   2.979  0.5883  0.8424 -0.0394
   15SAPS   C21 1886   5.541   1.720   3.019  0.5274 -0.4246  0.1027
   15SAPS   O22 1887   5.576   1.833   3.053  0.1905  0.0435  0.4715
   15SAPS   C22 1888   5.617   1.590   3.041  0.0279  0.5732 -0.0078
   15SAPS   H2R 1889   5.625   1.557   3.147  0.9948  0.0805 -0.2171
   15SAPS   H2S 1890   5.566   1.505   2.990 -2.0961  0.8678  1.5213
   15SAPS    C3 1891   5.238   1.841   3.066  0.5681 -0.5048 -0.4438
   15SAPS    HX 1892   5.178   1.757   3.108 -0.4852  0.2591 -0.3531
   15SAPS    HY 1893   5.156   1.915   3.047  0.8282 -0.2774 -0.6879
   15SAPS   O31 1894   5.315   1.883   3.176  0.2707 -0.5154  0.2658
   15SAPS   C31 1895   5.348   2.013   3.178  0.4707 -0.2849  0.3614
   15SAPS   O32 1896   5.301   2.090   3.096 -0.2175 -0.2942  0.5207
   15SAPS   C32 1897   5.453   2.046   3.280 -0.4878 -0.4649 -0.7887
   15SAPS   H2X 1898   5.489   2.150   3.263  0.6867 -0.6776  0.3014
   15SAPS   H2Y 1899   5.546   1.985   3.274 -0.9291 -1.2624  0.3000
   15SAPS   C23 1900   5.766   1.599   3.009  0.1486 -0.6180  0.4760
   15SAPS   H3R 1901   5.822   1.660   3.084  0.4630  1.1121 -1.0884
   15SAPS   H3S 1902   5.785   1.641   2.908  0.4173  0.8045  1.0981
   15SAPS   C24 1903   5.839   1.459   3.001  0.5170  0.9403  0.4423
   15SAPS   H4R 1904   5.810   1.414   2.904  1.3470  0.0049  0.6158
   15SAPS   H4S 1905   5.815   1.394   3.088  0.5381  0.5764  0.1782
   15SAPS   C25 1906   5.987   1.482   2.984 -0.2888 -0.4434  0.2942
   15SAPS   H5R 1907   6.030   1.492   2.883 -1.3979 -0.7094 -0.2217
   15SAPS   C26 1908   6.083   1.495   3.075  0.0632  0.0392 -0.0267
   15SAPS   H6R 1909   6.185   1.522   3.044 -0.1063  0.5814 -0.1185
   15SAPS   C27 1910   6.082   1.485   3.225 -0.4322 -0.1195 -0.4346
   15SAPS   H7R 1911   5.988   1.533   3.259 -0.1770  0.6773 -0.8227
   15SAPS   H7S 1912   6.167   1.546   3.264 -1.0789  0.0679  0.7249
   15SAPS   C28 1913   6.096   1.342   3.282  0.0460 -0.2704  0.2721
   15SAPS   H8R 1914   6.120   1.269   3.204 -0.3179  0.4967 -0.5720
   15SAPS   C29 1915   6.104   1.324   3.418  0.5355  0.6368 -0.2549
   15SAPS   H9R 1916   6.098   1.223   3.462 -0.2472  1.4497  1.6282
   15SAPS  C210 1917   6.070   1.422   3.536  0.2103 -0.2227  0.0711
   15SAPS  H10R 1918   5.980   1.381   3.585 -0.6838  1.2130 -0.3311
   15SAPS  H10S 1919   6.050   1.519   3.487  0.5479 -0.5747 -0.7941
   15SAPS  C211 1920   6.189   1.434   3.627  0.1866  0.0721 -0.0356
   15SAPS  H11R 1921   6.274   1.368   3.605 -0.4843 -0.0341 -2.6491
   15SAPS  C212 1922   6.188   1.521   3.730  0.0405 -0.1474 -0.0236
   15SAPS  H12R 1923   6.279   1.536   3.789 -0.3346 -3.3758  1.6389
   15SAPS  C213 1924   6.075   1.614   3.768  0.0598 -0.2633  0.2952
   15SAPS  H13R 1925   6.066   1.604   3.878  3.0933  0.0294  0.6518
   15SAPS  H13S 1926   5.981   1.579   3.718 -0.3804  1.5859 -0.2491
   15SAPS  C214 1927   6.089   1.750   3.716  0.1355  0.4773 -0.1074
   15SAPS  H14R 1928   6.098   1.768   3.608  0.1914 -1.5077 -0.4673
   15SAPS  C215 1929   6.126   1.853   3.791 -0.1608 -0.0517  0.2536
   15SAPS  H15R 1930   6.121   1.949   3.736  0.4910 -0.1364  0.0311
   15SAPS  C216 1931   6.134   1.849   3.940 -0.4589 -0.4149 -0.1278
   15SAPS  H16R 1932   6.192   1.940   3.968  0.0862 -0.4651 -1.0633
   15SAPS  H16S 1933   6.191   1.755   3.958 -1.2889 -1.9382 -4.4015
   15SAPS  C217 1934   6.015   1.836   4.036 -0.4910  0.0907 -0.2826
   15SAPS  H17R 1935   5.967   1.748   3.988 -0.1182  0.2297 -0.9126
   15SAPS  H17S 1936   5.945   1.921   4.047  0.8785  1.0922  1.2283
   15SAPS  C218 1937   6.055   1.786   4.178 -0.1285 -0.3125  0.5276
   15SAPS  H18R 1938   6.104   1.869   4.233  0.3654  0.2947 -0.7845
   15SAPS  H18S 1939   6.128   1.702   4.177 -0.2593 -0.5012 -2.3465
   15SAPS  C219 1940   5.930   1.733   4.253 -0.1690  0.3661  0.0773
   15SAPS  H19R 1941   5.893   1.652   4.186  0.9182  1.7740 -2.3894
   15SAPS  H19S 1942   5.856   1.815   4.268 -0.1979  0.3633 -0.0525
   15SAPS  C220 1943   5.966   1.678   4.391 -0.0640  0.8825  0.1129
   15SAPS  H20R 1944   6.021   1.582   4.402 -2.7377 -0.8089 -0.0799
   15SAPS  H20S 1945   5.874   1.659   4.451 -0.3941 -0.5904 -0.7829
   15SAPS  H20T 1946   6.035   1.749   4.441  0.4873  1.8075 -1.8828
   15SAPS   C33 1947   5.414   2.028   3.429  0.2166 -0.0231  0.1772
   15SAPS   H3X 1948   5.407   1.919   3.447  1.5574 -0.2151 -0.3498
   15SAPS   H3Y 1949   5.314   2.072   3.451  0.7731  0.4640  1.8560
   15SAPS   C34 1950   5.526   2.085   3.515 -0.0146  0.2615  0.2026
   15SAPS   H4X 1951   5.534   2.195   3.503 -0.1613  0.0539 -2.2989
   15SAPS   H4Y 1952   5.625   2.040   3.490  0.0632 -0.4793  1.7156
   15SAPS   C35 1953   5.498   2.053   3.668  0.1545  0.4481  0.2562
   15SAPS   H5X 1954   5.453   1.952   3.662  0.3053  0.4328 -0.9681
   15SAPS   H5Y 1955   5.424   2.128   3.703  0.3068  0.1819  1.1777
   15SAPS   C36 1956   5.628   2.052   3.753  0.1070 -0.5987 -0.5715
   15SAPS   H6X 1957   5.711   1.982   3.730  0.4950 -1.1727  2.1980
   15SAPS   H6Y 1958   5.591   2.025   3.854  0.3357 -1.9552 -0.8326
   15SAPS   C37 1959   5.691   2.197   3.756  0.2659  0.3009 -0.7500
   15SAPS   H7X 1960   5.612   2.267   3.791 -1.0463 -1.8806  0.9292
   15SAPS   H7Y 1961   5.717   2.227   3.653 -0.5352  1.3382 -0.6704
   15SAPS   C38 1962   5.812   2.207   3.857 -0.3716 -0.0585  0.4804
   15SAPS   H8X 1963   5.829   2.317   3.850 -3.1637  0.3568 -2.5113
   15SAPS   H8Y 1964   5.906   2.161   3.818 -0.7073  0.2919 -0.7879
   15SAPS   C39 1965   5.783   2.151   4.007  0.2344  0.1890 -0.1071
   15SAPS   H9X 1966   5.874   2.179   4.065 -1.0010 -1.2477  2.7208
   15SAPS   H9Y 1967   5.761   2.043   4.001 -1.1434  0.5181 -1.3976
   15SAPS  C310 1968   5.654   2.196   4.073  0.5808  0.1492 -0.4355
   15SAPS  H10X 1969   5.565   2.152   4.023  1.2398 -0.5846 -0.9913
   15SAPS  H10Y 1970   5.670   2.305   4.057  0.6660  0.1758 -0.1754
   15SAPS  C311 1971   5.641   2.165   4.224 -0.2227 -0.2579 -0.5326
   15SAPS  H11X 1972   5.536   2.186   4.254  0.1363  1.9350 -0.6425
   15SAPS  H11Y 1973   5.714   2.232   4.274 -0.4368 -0.4982  0.1111
   15SAPS  C312 1974   5.677   2.024   4.250 -0.0073  0.2434  0.3753
   15SAPS  H12X 1975   5.780   2.000   4.217 -0.2120 -0.3184  0.1132
   15SAPS  H12Y 1976   5.605   1.962   4.191  1.4279  1.1929 -2.5515
   15SAPS  C313 1977   5.641   1.983   4.396 -0.2763 -0.0427 -0.2542
   15SAPS  H13X 1978   5.614   1.876   4.383  0.0230 -0.1310 -0.1515
   15SAPS  H13Y 1979   5.548   2.035   4.427 -0.0068 -0.6097  1.6218
   15SAPS  C314 1980   5.747   2.012   4.504 -0.2451 -0.2472  1.1741
   15SAPS  H14X 1981   5.761   2.122   4.509 -0.2483 -0.1886  0.0565
   15SAPS  H14Y 1982   5.838   1.968   4.457 -0.6357 -2.7537  2.5819
   15SAPS  C315 1983   5.735   1.941   4.644  0.3570 -0.9674 -0.4243
   15SAPS  H15X 1984   5.734   1.830   4.649 -1.6612 -0.9401  3.3007
   15SAPS  H15Y 1985   5.629   1.964   4.666  0.9298  0.7000  0.8151
   15SAPS  C316 1986   5.830   2.002   4.746 -0.7750  0.6080  0.7303
   15SAPS  H16X 1987   5.795   2.006   4.852 -1.1559 -0.0147  0.6336
   15SAPS  H16Y 1988   5.837   2.108   4.714 -0.8070  0.6226  0.7710
   15SAPS  C317 1989   5.963   1.943   4.730 -0.4013 -0.3922  0.5719
   15SAPS  H17X 1990   6.035   1.998   4.795 -0.7935  0.3367  0.3932
   15SAPS  H17Y 1991   5.986   1.963   4.623  0.0822  3.7469  1.2868
   15SAPS  C318 1992   5.960   1.797   4.757  0.9938  0.5905  0.7343
   15SAPS  H18X 1993   5.892   1.771   4.841  0.6528 -1.8966 -0.2166
   15SAPS  H18Y 1994   6.059   1.754   4.781  0.9925 -0.9531 -1.6821
   15SAPS  H18Z 1995   5.914   1.740   4.673  0.5072  2.5489 -0.3912
   16SAPS     N 1996   4.479   2.765   2.759 -0.1507 -0.1726  0.5824
   16SAPS   HN1 1997   4.549   2.694   2.790 -0.1265  0.5694  2.3435
   16SAPS   HN2 1998   4.517   2.858   2.785  1.2910 -0.4005 -0.5225
   16SAPS   HN3 1999   4.389   2.746   2.806  0.0257  1.5052  1.6787
   16SAPS   C12 2000   4.464   2.750   2.611 -0.0929  0.3255 -0.2869
   16SAPS  H12A 2001   4.405   2.660   2.601 -1.8050  1.5313 -1.6763
   16SAPS   C13 2002   4.385   2.858   2.544  0.1025 -0.2313 -0.3314
   16SAPS  O13A 2003   4.315   2.933   2.617  0.0257 -0.2374  0.1234
   16SAPS  O13B 2004   4.365   2.855   2.422 -0.1339  0.1940  0.4514
   16SAPS   C11 2005   4.611   2.732   2.554 -0.0823  0.1468 -1.0587
   16SAPS  H11A 2006   4.669   2.826   2.569 -1.5073  0.9456 -0.3956
   16SAPS  H11B 2007   4.604   2.701   2.447  0.2942 -0.3806 -0.9370
   16SAPS     P 2008   4.822   2.586   2.579 -0.1109  0.2225  0.0056
   16SAPS   O13 2009   4.822   2.458   2.495 -0.6377  0.0875 -0.0048
   16SAPS   O14 2010   4.886   2.702   2.515  0.9507 -0.2600 -0.0571
   16SAPS   O12 2011   4.675   2.617   2.623  0.0351  0.4558  0.6552
   16SAPS   O11 2012   4.901   2.570   2.718 -0.3095  0.2758 -0.4955
   16SAPS    C1 2013   4.878   2.669   2.823  0.0327  0.4364  1.0104
   16SAPS    HA 2014   4.836   2.764   2.783 -0.6347 -0.2928 -0.0746
   16SAPS    HB 2015   4.817   2.615   2.898  1.4215 -1.0122  1.1400
   16SAPS    C2 2016   5.007   2.713   2.901 -0.4767 -0.3220  0.4578
   16SAPS    HS 2017   5.071   2.773   2.832 -1.0586  0.5549  0.6611
   16SAPS   O21 2018   5.071   2.598   2.953  0.3792 -0.2430 -0.9699
   16SAPS   C21 2019   5.192   2.614   3.004 -0.6500  0.0071 -0.4178
   16SAPS   O22 2020   5.270   2.704   2.991 -0.0896  0.3655  0.1328
   16SAPS   C22 2021   5.219   2.495   3.097  0.1395  0.0002  0.4234
   16SAPS   H2R 2022   5.213   2.407   3.031  0.5581 -0.6819  1.2722
   16SAPS   H2S 2023   5.329   2.509   3.110  0.0531  2.2962 -0.7356
   16SAPS    C3 2024   4.970   2.815   3.019  0.0011 -0.1434 -0.1920
   16SAPS    HX 2025   4.907   2.900   2.984  2.0394  2.7241  2.6034
   16SAPS    HY 2026   5.056   2.864   3.069  0.9195 -2.1393  0.2579
   16SAPS   O31 2027   4.909   2.742   3.127 -0.2828 -0.0437 -0.1572
   16SAPS   C31 2028   4.783   2.773   3.160  0.3987 -0.2200 -0.2271
   16SAPS   O32 2029   4.716   2.867   3.123  0.0823  0.1376  0.1056
   16SAPS   C32 2030   4.720   2.660   3.245 -0.3334  0.0148  0.0413
   16SAPS   H2X 2031   4.731   2.561   3.194 -3.3393 -2.1872  3.1916
   16SAPS   H2Y 2032   4.610   2.671   3.252 -0.4813 -0.5979 -0.9575
   16SAPS   C23 2033   5.136   2.496   3.223  0.4907  0.2405 -0.7355
   16SAPS   H3R 2034   5.034   2.454   3.208 -0.0782  0.8182  1.1576
   16SAPS   H3S 2035   5.132   2.599   3.266  0.5848  1.0669 -2.6088
   16SAPS   C24 2036   5.193   2.404   3.335  0.5356  0.2258 -0.3333
   16SAPS   H4R 2037   5.299   2.425   3.359  1.1945  0.0068 -2.7683
   16SAPS   H4S 2038   5.179   2.300   3.297 -1.1534  0.1849  0.3285
   16SAPS   C25 2039   5.107   2.416   3.455 -0.3652 -0.4964  0.0979
   16SAPS   H5R 2040   5.006   2.372   3.451 -0.0265 -1.2349 -0.6092
   16SAPS   C26 2041   5.135   2.462   3.576 -0.0653 -0.1810  0.5710
   16SAPS   H6R 2042   5.055   2.446   3.651  1.7229 -0.9412  2.3980
   16SAPS   C27 2043   5.253   2.539   3.620  0.0451 -0.7977 -0.9906
   16SAPS   H7R 2044   5.231   2.643   3.651  1.7090 -0.7859  0.2656
   16SAPS   H7S 2045   5.325   2.551   3.536  1.1859  0.1900  0.0918
   16SAPS   C28 2046   5.325   2.471   3.739  0.3226 -0.0329 -0.0307
   16SAPS   H8R 2047   5.416   2.414   3.714 -0.1994 -1.2099  0.6770
   16SAPS   C29 2048   5.282   2.477   3.868  0.9250  0.3320  0.1275
   16SAPS   H9R 2049   5.340   2.417   3.940  2.3611  0.6410 -0.7365
   16SAPS  C210 2050   5.167   2.560   3.920 -0.3088  0.7458 -0.6857
   16SAPS  H10R 2051   5.137   2.634   3.843 -1.1284  1.3892  0.2259
   16SAPS  H10S 2052   5.203   2.617   4.008  0.9837 -1.1189  0.0730
   16SAPS  C211 2053   5.043   2.477   3.969 -0.3714  0.1431  0.6391
   16SAPS  H11R 2054   4.978   2.438   3.891 -0.1915  1.1492 -0.0338
   16SAPS  C212 2055   5.022   2.447   4.097  0.6628 -0.5962  0.0662
   16SAPS  H12R 2056   4.936   2.383   4.121 -0.0605  0.3133 -0.0856
   16SAPS  C213 2057   5.102   2.482   4.220  0.5420 -0.6408 -0.9094
   16SAPS  H13R 2058   5.205   2.504   4.186  0.3949  0.1001 -0.8945
   16SAPS  H13S 2059   5.124   2.390   4.279  1.1316 -0.4921 -0.8873
   16SAPS  C214 2060   5.055   2.599   4.307 -0.0444  0.0529  0.2837
   16SAPS  H14R 2061   5.002   2.672   4.244  0.2401  1.4392  1.6034
   16SAPS  C215 2062   5.061   2.608   4.441 -0.5769  0.4360 -0.3348
   16SAPS  H15R 2063   5.034   2.699   4.496 -1.9820 -0.5027  0.5909
   16SAPS  C216 2064   5.117   2.500   4.525 -0.6246  0.0033 -0.6422
   16SAPS  H16R 2065   5.224   2.482   4.504 -0.7285  0.2608 -1.4090
   16SAPS  H16S 2066   5.055   2.410   4.507 -0.4670 -0.5077  1.1173
   16SAPS  C217 2067   5.098   2.518   4.679  0.3733  0.7179  0.0397
   16SAPS  H17R 2068   5.157   2.603   4.720 -1.9646  1.8384  1.3006
   16SAPS  H17S 2069   5.137   2.422   4.716  3.2528  1.8609  0.1968
   16SAPS  C218 2070   4.954   2.557   4.730 -0.6411 -0.3296 -0.3834
   16SAPS  H18R 2071   4.950   2.521   4.835  5.3271  0.6422  0.4929
   16SAPS  H18S 2072   4.873   2.495   4.684 -0.3118 -0.6102 -0.5905
   16SAPS  C219 2073   4.918   2.707   4.740 -0.2193  0.2294  0.2294
   16SAPS  H19R 2074   4.827   2.706   4.804  0.5827  0.6231  1.3951
   16SAPS  H19S 2075   4.878   2.734   4.640  0.1944 -1.5167 -0.4429
   16SAPS  C220 2076   5.020   2.810   4.781 -0.0074 -0.2723 -0.1636
   16SAPS  H20R 2077   5.066   2.790   4.880 -0.1117  1.6661  0.3189
   16SAPS  H20S 2078   4.980   2.913   4.791  0.4630 -0.0872 -0.1379
   16SAPS  H20T 2079   5.098   2.821   4.702 -0.8041  1.6130 -0.7467
   16SAPS   C33 2080   4.799   2.644   3.379 -0.3068 -0.1410  0.6480
   16SAPS   H3X 2081   4.906   2.623   3.355 -0.0208  0.4206  1.3964
   16SAPS   H3Y 2082   4.762   2.549   3.423 -1.1558 -0.0081  0.2429
   16SAPS   C34 2083   4.789   2.764   3.469 -0.3456  0.6797  0.3522
   16SAPS   H4X 2084   4.686   2.795   3.497  0.2368  0.5522  2.8891
   16SAPS   H4Y 2085   4.837   2.853   3.422  0.3619  0.7083  1.1025
   16SAPS   C35 2086   4.880   2.746   3.595  0.2390 -0.7611 -0.4185
   16SAPS   H5X 2087   4.986   2.721   3.574  0.5257 -0.5610  0.7075
   16SAPS   H5Y 2088   4.835   2.663   3.653 -1.5110  0.8654  0.6902
   16SAPS   C36 2089   4.891   2.871   3.683  0.2398 -0.5166  0.6131
   16SAPS   H6X 2090   4.799   2.927   3.708  2.1068  2.8735  0.4980
   16SAPS   H6Y 2091   4.944   2.948   3.623 -1.3281  3.1088  3.5067
   16SAPS   C37 2092   4.959   2.843   3.814 -0.0323 -0.0981 -0.0891
   16SAPS   H7X 2093   5.062   2.818   3.779  0.6918  1.3818  0.8547
   16SAPS   H7Y 2094   4.921   2.754   3.869  1.1973  0.3593  1.5911
   16SAPS   C38 2095   4.971   2.963   3.914 -0.2917 -0.5137  0.0624
   16SAPS   H8X 2096   4.869   2.984   3.955  0.4495 -0.7224  2.1415
   16SAPS   H8Y 2097   5.000   3.055   3.858 -2.0262 -0.8170 -1.4455
   16SAPS   C39 2098   5.061   2.941   4.030  0.4520 -0.2154 -0.0578
   16SAPS   H9X 2099   5.045   2.837   4.068  2.2206 -1.6127 -2.7942
   16SAPS   H9Y 2100   5.033   3.004   4.117  0.4607 -1.5426  0.9343
   16SAPS  C310 2101   5.200   2.980   4.000  0.5900  0.0354  0.2592
   16SAPS  H10X 2102   5.195   3.078   3.946 -1.3791  0.5315  1.2767
   16SAPS  H10Y 2103   5.252   2.913   3.929 -1.0361 -0.0989 -0.8583
   16SAPS  C311 2104   5.279   2.998   4.131 -0.2596  0.6739 -0.0690
   16SAPS  H11X 2105   5.224   3.062   4.204  0.6949  1.7456 -0.2517
   16SAPS  H11Y 2106   5.374   3.050   4.106 -0.1986  0.0726 -1.1342
   16SAPS  C312 2107   5.326   2.867   4.195 -0.0472 -0.0716 -1.5413
   16SAPS  H12X 2108   5.380   2.809   4.116  0.6988  1.5223 -2.2673
   16SAPS  H12Y 2109   5.240   2.806   4.227  2.8185 -3.1557  1.0814
   16SAPS  C313 2110   5.420   2.889   4.318 -0.3762  0.3777  0.1923
   16SAPS  H13X 2111   5.378   2.966   4.386 -1.3414 -0.2086  0.2807
   16SAPS  H13Y 2112   5.517   2.922   4.277 -1.0094  0.8758 -0.9441
   16SAPS  C314 2113   5.429   2.768   4.413  0.7417  0.0249 -0.4022
   16SAPS  H14X 2114   5.479   2.683   4.363 -1.4628 -2.0553  0.7252
   16SAPS  H14Y 2115   5.333   2.725   4.447  0.4023  0.9758 -0.1122
   16SAPS  C315 2116   5.515   2.805   4.531 -0.3074 -0.2089 -1.0489
   16SAPS  H15X 2117   5.469   2.892   4.582 -0.0790 -1.1855  0.9123
   16SAPS  H15Y 2118   5.616   2.838   4.497 -0.4689  0.0078 -1.3289
   16SAPS  C316 2119   5.530   2.689   4.636  0.1186 -0.0398 -1.2186
   16SAPS  H16X 2120   5.438   2.684   4.698  1.7078 -1.4693  1.2235
   16SAPS  H16Y 2121   5.601   2.718   4.717  0.1599 -1.1851 -0.8291
   16SAPS  C317 2122   5.558   2.552   4.580 -0.0217 -0.3205  0.6370
   16SAPS  H17X 2123   5.640   2.573   4.508 -0.3812  3.0766  1.0399
   16SAPS  H17Y 2124   5.480   2.524   4.506 -0.2885 -0.2687  0.8963
   16SAPS  C318 2125   5.579   2.443   4.676 -0.2438  0.7591  0.5276
   16SAPS  H18X 2126   5.576   2.337   4.640 -2.3750  0.3714  1.7274
   16SAPS  H18Y 2127   5.496   2.448   4.749  0.1327  0.8366  0.9482
   16SAPS  H18Z 2128   5.676   2.460   4.728  0.0293  1.7754 -0.2776
   17SAPS     N 2129   0.667   3.123   2.622 -0.9046 -0.2665  0.1744
   17SAPS   HN1 2130   0.666   3.057   2.703  3.9704 -0.3483  0.4820
   17SAPS   HN2 2131   0.768   3.144   2.607 -0.7246 -2.1003 -1.5135
   17SAPS   HN3 2132   0.613   3.212   2.628  3.1852  2.5516 -0.5142
   17SAPS   C12 2133   0.616   3.034   2.511 -0.7894 -0.3937 -0.1012
   17SAPS  H12A 2134   0.589   3.098   2.428  0.5420 -0.3694 -0.5439
   17SAPS   C13 2135   0.721   2.939   2.451  0.2661 -0.0948  0.1545
   17SAPS  O13A 2136   0.826   2.931   2.518  0.1380 -0.4737  0.2650
   17SAPS  O13B 2137   0.714   2.881   2.341  0.0835  0.3667 -0.4573
   17SAPS   C11 2138   0.498   2.954   2.561  0.3263  0.2806  0.5120
   17SAPS  H11A 2139   0.539   2.913   2.656  3.1011  0.1827 -0.6390
   17SAPS  H11B 2140   0.475   2.869   2.493  0.4682  0.2769  0.4696
   17SAPS     P 2141   0.249   2.985   2.638 -0.4236 -0.0783  0.3951
   17SAPS   O13 2142   0.136   3.059   2.579 -0.2912 -0.2569  0.3412
   17SAPS   O14 2143   0.248   2.840   2.627 -0.5589  0.9183  0.3035
   17SAPS   O12 2144   0.389   3.041   2.592 -0.3584  0.7807  0.4432
   17SAPS   O11 2145   0.266   3.021   2.787 -0.2159  0.2015 -0.2145
   17SAPS    C1 2146   0.345   2.941   2.870  0.0345 -0.1671  0.3025
   17SAPS    HA 2147   0.418   2.872   2.822 -0.3393 -0.7139  0.5139
   17SAPS    HB 2148   0.407   3.014   2.927 -0.6488  1.2608 -0.7128
   17SAPS    C2 2149   0.268   2.855   2.967  1.8056 -0.2103 -0.2839
   17SAPS    HS 2150   0.203   2.786   2.910 -1.9298  1.6112  1.3837
   17SAPS   O21 2151   0.183   2.943   3.048  0.1215  0.0132  0.9068
   17SAPS   C21 2152   0.083   2.895   3.110  0.3195 -0.6687  0.3163
   17SAPS   O22 2153   0.057   2.774   3.122  0.6160  0.0336  0.5312
   17SAPS   C22 2154  -0.000   3.001   3.182 -0.1183 -0.7482  0.2358
   17SAPS   H2R 2155   0.021   3.100   3.135  1.1107 -0.7586  0.7250
   17SAPS   H2S 2156  -0.102   2.973   3.147 -0.2455 -1.1017  0.8855
   17SAPS    C3 2157   0.345   2.753   3.056 -0.2852 -0.1509 -0.0482
   17SAPS    HX 2158   0.422   2.704   2.993 -0.2397  0.2443 -0.3020
   17SAPS    HY 2159   0.272   2.676   3.087 -1.7350  0.1597 -2.4107
   17SAPS   O31 2160   0.407   2.812   3.171  0.0400 -0.2309 -0.4205
   17SAPS   C31 2161   0.458   2.722   3.257 -0.4162  0.1749 -0.4039
   17SAPS   O32 2162   0.473   2.607   3.224 -0.0096  0.2412  0.7840
   17SAPS   C32 2163   0.502   2.790   3.390  0.1534 -0.3621 -0.1182
   17SAPS   H2X 2164   0.594   2.853   3.377  1.4421 -2.4024 -1.3939
   17SAPS   H2Y 2165   0.523   2.715   3.469 -0.1030 -0.3768 -0.0644
   17SAPS   C23 2166  -0.001   3.013   3.339  0.2411 -0.1928 -0.2477
   17SAPS   H3R 2167   0.097   3.048   3.379 -0.9407  0.6455  2.0966
   17SAPS   H3S 2168  -0.013   2.909   3.375  1.3061 -0.6905 -1.2624
   17SAPS   C24 2169  -0.127   3.092   3.384 -0.1677 -0.3393 -0.1565
   17SAPS   H4R 2170  -0.115   3.187   3.327 -1.8870  0.3297  0.5236
   17SAPS   H4S 2171  -0.119   3.127   3.489 -0.4834 -1.8502  0.3981
   17SAPS   C25 2172  -0.253   3.024   3.342  0.5795  0.1168 -0.2344
   17SAPS   H5R 2173  -0.274   3.033   3.234  0.0677 -0.4625 -0.1915
   17SAPS   C26 2174  -0.318   2.925   3.405 -0.1494  0.6838 -0.2971
   17SAPS   H6R 2175  -0.407   2.882   3.358  0.4818 -3.4315  1.8916
   17SAPS   C27 2176  -0.275   2.873   3.543  0.2072  0.2982 -0.2867
   17SAPS   H7R 2177  -0.359   2.901   3.611  0.2184 -0.1375 -0.0904
   17SAPS   H7S 2178  -0.178   2.922   3.569  0.9522 -0.1555 -2.1116
   17SAPS   C28 2179  -0.264   2.726   3.534 -0.2840  0.0976 -0.1325
   17SAPS   H8R 2180  -0.200   2.694   3.451 -0.1053  1.1068 -0.3875
   17SAPS   C29 2181  -0.330   2.633   3.604  0.7484 -0.2336 -0.5089
   17SAPS   H9R 2182  -0.300   2.528   3.594 -0.2864 -0.5034 -0.9179
   17SAPS  C210 2183  -0.426   2.647   3.719  0.1184 -0.3037 -0.2832
   17SAPS  H10R 2184  -0.409   2.741   3.776  0.3975 -0.0292 -0.8035
   17SAPS  H10S 2185  -0.413   2.565   3.792 -0.7339 -1.6610 -1.5979
   17SAPS  C211 2186  -0.561   2.626   3.662 -0.2837  0.2604 -0.0532
   17SAPS  H11R 2187  -0.573   2.628   3.553  1.3980 -1.5657 -0.3368
   17SAPS  C212 2188  -0.669   2.595   3.725 -0.3931 -0.7945 -0.7617
   17SAPS  H12R 2189  -0.758   2.566   3.667 -1.1831 -5.0777  2.1317
   17SAPS  C213 2190  -0.698   2.581   3.871  1.0453 -0.4891  0.2944
   17SAPS  H13R 2191  -0.751   2.675   3.900  1.5079 -0.9974  3.0052
   17SAPS  H13S 2192  -0.612   2.585   3.941 -0.0422  0.4766  1.6356
   17SAPS  C214 2193  -0.776   2.452   3.896 -0.8419 -0.4746 -0.3461
   17SAPS  H14R 2194  -0.885   2.469   3.901 -0.7675 -0.1009  0.1130
   17SAPS  C215 2195  -0.718   2.339   3.923  0.7940 -0.1998  0.1370
   17SAPS  H15R 2196  -0.775   2.247   3.940  0.0353  0.2768  0.1928
   17SAPS  C216 2197  -0.570   2.321   3.913  0.5392  0.8769  0.1519
   17SAPS  H16R 2198  -0.537   2.299   4.016  1.5705  3.0939  0.3575
   17SAPS  H16S 2199  -0.507   2.404   3.874  0.6047  0.7485 -0.0153
   17SAPS  C217 2200  -0.525   2.193   3.846 -0.1124 -0.4135  0.0795
   17SAPS  H17R 2201  -0.562   2.202   3.742 -0.5714 -2.1266  0.0535
   17SAPS  H17S 2202  -0.583   2.106   3.884 -0.6932 -1.1646 -2.3574
   17SAPS  C218 2203  -0.372   2.159   3.844  0.0162 -0.0422 -0.2640
   17SAPS  H18R 2204  -0.324   2.174   3.944  2.7739 -1.6629 -1.2386
   17SAPS  H18S 2205  -0.316   2.226   3.776 -0.5892  1.6648  0.8369
   17SAPS  C219 2206  -0.337   2.014   3.801 -0.2174 -0.9908 -0.6019
   17SAPS  H19R 2207  -0.401   1.934   3.844 -3.3172  0.7310 -1.6277
   17SAPS  H19S 2208  -0.229   2.000   3.820 -0.4011 -0.3760  1.1679
   17SAPS  C220 2209  -0.367   2.000   3.655  0.2839  0.0312  0.0667
   17SAPS  H20R 2210  -0.468   2.037   3.628  0.5746 -0.8948 -2.5882
   17SAPS  H20S 2211  -0.354   1.895   3.622  0.8141  0.4690 -1.1507
   17SAPS  H20T 2212  -0.296   2.047   3.584  0.5462 -0.2556  0.1356
   17SAPS   C33 2213   0.380   2.878   3.446 -0.1994  0.1717 -0.4574
   17SAPS   H3X 2214   0.323   2.938   3.372  1.8029  1.9425 -0.6714
   17SAPS   H3Y 2215   0.436   2.959   3.498 -1.2488  1.4366 -1.2397
   17SAPS   C34 2216   0.292   2.796   3.542 -0.7469 -0.1063  0.3977
   17SAPS   H4X 2217   0.364   2.744   3.609 -0.0152 -0.9840 -1.0125
   17SAPS   H4Y 2218   0.235   2.719   3.487  1.1480 -0.9488 -0.4625
   17SAPS   C35 2219   0.208   2.884   3.633  0.0256 -0.1687 -0.7303
   17SAPS   H5X 2220   0.138   2.952   3.581 -3.4942 -0.6650  2.8252
   17SAPS   H5Y 2221   0.279   2.941   3.698 -1.2812 -1.4502  1.9919
   17SAPS   C36 2222   0.122   2.802   3.732  0.3310  0.3995 -0.3275
   17SAPS   H6X 2223   0.173   2.721   3.789 -1.7585 -0.5890  0.2129
   17SAPS   H6Y 2224   0.047   2.756   3.664 -0.5034  0.8085  0.2988
   17SAPS   C37 2225   0.059   2.893   3.836 -0.5936 -0.4081  0.2550
   17SAPS   H7X 2226   0.011   2.981   3.788  2.6103  1.2991 -0.0974
   17SAPS   H7Y 2227   0.142   2.935   3.897  1.0280 -1.8717 -0.8236
   17SAPS   C38 2228  -0.041   2.815   3.919  0.6886  0.4858 -0.4423
   17SAPS   H8X 2229   0.006   2.722   3.956  0.8939  0.0793 -1.6694
   17SAPS   H8Y 2230  -0.125   2.772   3.859 -0.4823 -1.1103  2.1837
   17SAPS   C39 2231  -0.103   2.894   4.030 -0.4703  0.2514 -0.6873
   17SAPS   H9X 2232  -0.097   2.999   3.996  1.5446  1.1329  2.0361
   17SAPS   H9Y 2233  -0.035   2.892   4.118  1.6211 -1.1743 -2.2209
   17SAPS  C310 2234  -0.251   2.844   4.053  0.1505  0.3693  0.1033
   17SAPS  H10X 2235  -0.307   2.868   3.959  0.9123 -0.0411 -0.4688
   17SAPS  H10Y 2236  -0.300   2.897   4.137  1.9203  1.2782  0.5967
   17SAPS  C311 2237  -0.260   2.695   4.092 -0.3535  1.0424 -1.0258
   17SAPS  H11X 2238  -0.174   2.668   4.156 -0.7775  2.3427  0.1444
   17SAPS  H11Y 2239  -0.254   2.629   4.003  1.8746  1.9969 -1.6585
   17SAPS  C312 2240  -0.385   2.662   4.175 -0.2148  0.3102 -0.4590
   17SAPS  H12X 2241  -0.469   2.688   4.107 -0.0244  3.7499  0.4553
   17SAPS  H12Y 2242  -0.388   2.737   4.256  1.8109  0.0796 -0.1192
   17SAPS  C313 2243  -0.387   2.525   4.235 -0.6436 -0.0078 -0.9546
   17SAPS  H13X 2244  -0.299   2.524   4.302 -2.0450  1.2422  1.0219
   17SAPS  H13Y 2245  -0.391   2.449   4.153 -2.4698  1.1057 -1.9776
   17SAPS  C314 2246  -0.515   2.504   4.306  0.7455  0.1829 -0.3541
   17SAPS  H14X 2247  -0.586   2.498   4.221 -0.7087  2.0097  0.6775
   17SAPS  H14Y 2248  -0.542   2.592   4.367 -0.5375 -1.6163  1.8065
   17SAPS  C315 2249  -0.514   2.383   4.401  0.2070 -0.2247  0.9805
   17SAPS  H15X 2250  -0.456   2.410   4.492  0.7061 -1.4643  1.0520
   17SAPS  H15Y 2251  -0.458   2.300   4.354  2.1097  1.2253  0.5985
   17SAPS  C316 2252  -0.651   2.329   4.435 -0.7617  0.7653  0.1935
   17SAPS  H16X 2253  -0.726   2.411   4.441 -0.8362  0.7864 -0.8069
   17SAPS  H16Y 2254  -0.642   2.275   4.532  1.6366 -0.1385 -0.4605
   17SAPS  C317 2255  -0.687   2.212   4.337  0.4724  0.6068 -0.0070
   17SAPS  H17X 2256  -0.629   2.121   4.363 -1.1184 -0.6485 -0.6837
   17SAPS  H17Y 2257  -0.654   2.226   4.231 -0.4989 -3.1934 -0.9882
   17SAPS  C318 2258  -0.835   2.175   4.339 -0.4810  0.5449  0.4097
   17SAPS  H18X 2259  -0.840   2.075   4.292  0.7468  0.3136  0.7325
   17SAPS  H18Y 2260  -0.904   2.249   4.293 -1.3058 -1.2663 -1.4058
   17SAPS  H18Z 2261  -0.866   2.162   4.445 -0.5441 -0.7005  0.2448
   18SAPS     N 2262   4.706   6.346   2.364 -0.3945  0.6422 -0.4178
   18SAPS   HN1 2263   4.767   6.413   2.414  0.0665 -0.3272  0.3441
   18SAPS   HN2 2264   4.737   6.334   2.265  3.8755 -0.3279  0.8421
   18SAPS   HN3 2265   4.613   6.392   2.365 -1.1166 -0.6972 -1.7487
   18SAPS   C12 2266   4.717   6.221   2.436  0.5564  0.6223  0.5338
   18SAPS  H12A 2267   4.694   6.240   2.539  0.3260  2.9496  0.1028
   18SAPS   C13 2268   4.603   6.122   2.395  0.2516 -0.5203 -0.5291
   18SAPS  O13A 2269   4.537   6.159   2.293 -0.0653  0.3445  0.3452
   18SAPS  O13B 2270   4.602   6.008   2.437 -0.2309  0.0876 -0.3226
   18SAPS   C11 2271   4.857   6.164   2.417  0.2977  1.0113  0.1362
   18SAPS  H11A 2272   4.865   6.131   2.311 -0.8834 -1.7607  0.8245
   18SAPS  H11B 2273   4.859   6.073   2.480 -1.8363 -1.8178 -3.4339
   18SAPS     P 2274   5.036   6.256   2.589 -0.2293  0.7140  0.8372
   18SAPS   O13 2275   5.095   6.122   2.613 -0.0177  0.4200  0.3289
   18SAPS   O14 2276   5.126   6.375   2.591  0.4471  0.1091  0.1365
   18SAPS   O12 2277   4.970   6.249   2.444  0.2623 -0.1565 -0.8869
   18SAPS   O11 2278   4.908   6.280   2.681  0.3490  0.6196  0.6375
   18SAPS    C1 2279   4.922   6.291   2.817 -0.6348  0.4642 -0.2254
   18SAPS    HA 2280   4.948   6.192   2.858  0.5956  0.4588 -0.9899
   18SAPS    HB 2281   5.004   6.362   2.839 -1.5595  1.5166 -0.0443
   18SAPS    C2 2282   4.791   6.337   2.887  0.0668 -1.5375  0.4379
   18SAPS    HS 2283   4.753   6.427   2.835  1.0988 -2.2531 -1.6711
   18SAPS   O21 2284   4.816   6.361   3.022  0.3303 -0.0475  0.1814
   18SAPS   C21 2285   4.888   6.471   3.052  0.1517  0.0800 -0.4079
   18SAPS   O22 2286   4.930   6.549   2.969 -0.1364  0.0090  0.4041
   18SAPS   C22 2287   4.917   6.470   3.196 -0.9479  0.2820 -0.2716
   18SAPS   H2R 2288   4.932   6.574   3.232 -0.8659  0.5293 -1.0035
   18SAPS   H2S 2289   4.826   6.432   3.247  0.0093 -2.5371 -0.5026
   18SAPS    C3 2290   4.686   6.226   2.863  0.4295  0.3407 -0.6575
   18SAPS    HX 2291   4.734   6.133   2.900  2.6523  1.4053 -0.6717
   18SAPS    HY 2292   4.680   6.209   2.753 -1.5417  0.6331 -0.6323
   18SAPS   O31 2293   4.558   6.243   2.937  0.1731  0.1955 -0.6250
   18SAPS   C31 2294   4.475   6.344   2.897 -0.1905 -0.0710 -0.5046
   18SAPS   O32 2295   4.499   6.420   2.808  0.2422  0.1048 -0.3487
   18SAPS   C32 2296   4.349   6.345   2.982 -0.0568 -0.4101  0.1434
   18SAPS   H2X 2297   4.316   6.240   2.995  1.7473 -0.8279  1.9316
   18SAPS   H2Y 2298   4.268   6.399   2.929  0.7531 -0.4388 -1.1647
   18SAPS   C23 2299   5.046   6.396   3.235 -0.2152 -0.4306  0.1106
   18SAPS   H3R 2300   5.128   6.462   3.199  0.1676  0.2447  2.0708
   18SAPS   H3S 2301   5.063   6.300   3.182 -1.1421  0.2989 -1.5594
   18SAPS   C24 2302   5.054   6.374   3.385  0.1370  0.5957 -0.5135
   18SAPS   H4R 2303   5.035   6.474   3.429 -1.0600  1.8101 -3.5147
   18SAPS   H4S 2304   5.160   6.351   3.411 -0.1561  1.4398  1.5430
   18SAPS   C25 2305   4.969   6.262   3.446 -0.2293 -0.0812 -0.3496
   18SAPS   H5R 2306   4.905   6.206   3.376 -1.9042 -1.3846  2.0602
   18SAPS   C26 2307   4.995   6.193   3.557 -0.5911  0.3754 -0.5998
   18SAPS   H6R 2308   4.912   6.126   3.587  0.1797  0.4465  1.9423
   18SAPS   C27 2309   5.095   6.240   3.668 -0.2101  0.0576  0.2196
   18SAPS   H7R 2310   5.044   6.249   3.766 -0.8165  0.8121 -0.1539
   18SAPS   H7S 2311   5.151   6.335   3.653  0.0272 -0.0273  0.5489
   18SAPS   C28 2312   5.197   6.131   3.685  0.4170  0.1444 -0.6132
   18SAPS   H8R 2313   5.272   6.125   3.605  0.3675 -3.3271 -0.5876
   18SAPS   C29 2314   5.222   6.055   3.791 -0.1260  0.3207 -0.5013
   18SAPS   H9R 2315   5.294   5.973   3.776 -0.4537 -0.0364 -0.1283
   18SAPS  C210 2316   5.147   6.058   3.917 -0.6055 -0.3251 -0.3488
   18SAPS  H10R 2317   5.039   6.077   3.898 -0.4306  0.3148 -0.7440
   18SAPS  H10S 2318   5.195   6.139   3.976 -1.6367  0.2667 -0.2986
   18SAPS  C211 2319   5.138   5.926   3.997 -0.2013  0.0564 -1.0258
   18SAPS  H11R 2320   5.072   5.847   3.957 -0.7777 -0.4744  0.8728
   18SAPS  C212 2321   5.192   5.896   4.117  0.5114 -0.2245 -0.5635
   18SAPS  H12R 2322   5.162   5.802   4.164 -2.7604  1.2143  0.5265
   18SAPS  C213 2323   5.275   5.980   4.215 -0.3665  0.0209 -0.1644
   18SAPS  H13R 2324   5.312   6.071   4.163 -1.0468 -0.7065 -2.0217
   18SAPS  H13S 2325   5.370   5.930   4.245  1.1935  2.2394 -1.0565
   18SAPS  C214 2326   5.217   6.041   4.337 -0.6961  0.1745 -0.0146
   18SAPS  H14R 2327   5.165   6.137   4.324  1.6896  1.8363  1.8457
   18SAPS  C215 2328   5.226   5.990   4.469  0.1161 -0.9247  0.3268
   18SAPS  H15R 2329   5.159   6.041   4.540  0.2370 -0.6777  0.2625
   18SAPS  C216 2330   5.306   5.864   4.505 -0.0838  0.2331  0.2581
   18SAPS  H16R 2331   5.411   5.901   4.502 -0.0409  0.2287 -3.6495
   18SAPS  H16S 2332   5.317   5.799   4.415 -1.2685  0.2890  0.0600
   18SAPS  C217 2333   5.270   5.791   4.633 -0.4695  0.3618 -0.1437
   18SAPS  H17R 2334   5.336   5.702   4.634 -0.5025  0.3233  1.5287
   18SAPS  H17S 2335   5.166   5.752   4.627 -1.5300  3.1686 -2.5717
   18SAPS  C218 2336   5.302   5.871   4.762  0.3216 -0.1394  0.1908
   18SAPS  H18R 2337   5.237   5.961   4.758 -1.1549 -1.1770 -0.0241
   18SAPS  H18S 2338   5.409   5.900   4.749  0.4418 -1.0660 -1.1686
   18SAPS  C219 2339   5.275   5.792   4.888  0.0248  1.0458 -0.2979
   18SAPS  H19R 2340   5.300   5.855   4.976  2.1224 -1.3896  0.9911
   18SAPS  H19S 2341   5.341   5.704   4.877  0.8393  1.6498 -0.3825
   18SAPS  C220 2342   5.130   5.738   4.911 -0.3642 -0.1561 -0.0060
   18SAPS  H20R 2343   5.127   5.678   5.004  0.0286 -1.5014 -0.8314
   18SAPS  H20S 2344   5.094   5.671   4.829  0.3399 -1.9554  1.0913
   18SAPS  H20T 2345   5.053   5.817   4.922 -0.3007 -0.4298  3.0812
   18SAPS   C33 2346   4.366   6.413   3.121  0.4401 -0.0817  0.0364
   18SAPS   H3X 2347   4.266   6.446   3.156 -0.5237  0.9007 -3.2353
   18SAPS   H3Y 2348   4.424   6.507   3.107 -0.2448  0.5001  1.0159
   18SAPS   C34 2349   4.443   6.331   3.223 -0.2920 -0.6230 -0.2563
   18SAPS   H4X 2350   4.537   6.289   3.182  0.8758 -0.0715  1.7071
   18SAPS   H4Y 2351   4.379   6.246   3.254 -3.3006  0.8484 -1.9914
   18SAPS   C35 2352   4.470   6.415   3.351 -0.2540 -0.0168 -0.2753
   18SAPS   H5X 2353   4.377   6.472   3.369 -0.0957 -0.0368  0.6396
   18SAPS   H5Y 2354   4.547   6.494   3.335 -0.0079 -0.2450 -0.2326
   18SAPS   C36 2355   4.507   6.339   3.482  0.2394  0.1755 -0.3618
   18SAPS   H6X 2356   4.594   6.277   3.454  0.4782  0.4083 -0.1400
   18SAPS   H6Y 2357   4.411   6.288   3.506 -0.4178  0.1410 -2.7649
   18SAPS   C37 2358   4.551   6.429   3.604 -0.3192  0.6010 -0.1737
   18SAPS   H7X 2359   4.481   6.510   3.635 -2.5761 -1.6883  1.1310
   18SAPS   H7Y 2360   4.652   6.469   3.583  0.0106  0.8100  1.5811
   18SAPS   C38 2361   4.585   6.347   3.728  0.5220  0.5119  0.1508
   18SAPS   H8X 2362   4.645   6.259   3.697  3.0169  2.1533  0.0365
   18SAPS   H8Y 2363   4.495   6.309   3.780  0.5990  0.6556  0.3915
   18SAPS   C39 2364   4.670   6.422   3.845 -0.3676 -0.0075 -0.0929
   18SAPS   H9X 2365   4.629   6.522   3.872 -3.1433 -1.2308  0.6363
   18SAPS   H9Y 2366   4.768   6.447   3.800  0.1965 -2.3653 -0.2965
   18SAPS  C310 2367   4.694   6.333   3.968 -0.3121 -0.1332  0.1906
   18SAPS  H10X 2368   4.747   6.241   3.935  1.2403  0.8609 -0.1810
   18SAPS  H10Y 2369   4.592   6.296   3.992 -1.8146  2.3535 -1.8658
   18SAPS  C311 2370   4.751   6.401   4.094  0.9864 -0.2069 -0.1929
   18SAPS  H11X 2371   4.705   6.356   4.184 -1.1786 -0.0407 -1.1321
   18SAPS  H11Y 2372   4.718   6.507   4.100 -0.4602 -0.7239  2.2058
   18SAPS  C312 2373   4.905   6.382   4.103  0.2724  1.0331  0.1368
   18SAPS  H12X 2374   4.959   6.399   4.008  1.1417 -1.3428  0.1411
   18SAPS  H12Y 2375   4.914   6.273   4.121 -0.8647  0.5791 -1.8149
   18SAPS  C313 2376   4.963   6.459   4.227  0.3223  0.0058  0.2188
   18SAPS  H13X 2377   4.899   6.451   4.317 -1.6172 -0.0828 -1.1100
   18SAPS  H13Y 2378   4.942   6.563   4.194  0.0382 -0.0168  0.3289
   18SAPS  C314 2379   5.110   6.436   4.241  0.5071 -0.1466 -0.6511
   18SAPS  H14X 2380   5.163   6.484   4.156  0.1650  2.2363  0.3877
   18SAPS  H14Y 2381   5.129   6.327   4.232  4.0816  0.2877  0.4830
   18SAPS  C315 2382   5.167   6.492   4.376  0.3051  0.4568  0.3279
   18SAPS  H15X 2383   5.133   6.598   4.385 -2.3215 -0.2676 -0.2175
   18SAPS  H15Y 2384   5.278   6.493   4.365  0.5101 -0.1732  2.0920
   18SAPS  C316 2385   5.122   6.406   4.488  0.1300  0.1319 -0.5812
   18SAPS  H16X 2386   5.174   6.307   4.488 -0.5903 -0.3672  3.1149
   18SAPS  H16Y 2387   5.013   6.385   4.478  0.0436  0.5221 -0.4667
   18SAPS  C317 2388   5.161   6.481   4.624  0.2890  0.1209 -0.0126
   18SAPS  H17X 2389   5.270   6.500   4.613 -0.0341  2.4292  0.1222
   18SAPS  H17Y 2390   5.144   6.414   4.711  0.0578  0.7635  0.4449
   18SAPS  C318 2391   5.072   6.601   4.646 -0.1726  0.0262  0.2392
   18SAPS  H18X 2392   4.963   6.581   4.641 -0.4811  1.7211 -0.5607
   18SAPS  H18Y 2393   5.096   6.679   4.571 -0.5839 -0.3078 -0.2497
   18SAPS  H18Z 2394   5.091   6.640   4.748 -2.4383 -0.7076  1.0126
   19SAPS     N 2395   5.953   4.864   2.576  0.1217  0.1664 -0.0385
   19SAPS   HN1 2396   6.020   4.789   2.604 -0.1408 -0.3951 -0.8855
   19SAPS   HN2 2397   6.008   4.951   2.589 -0.6793  0.4077  2.2629
   19SAPS   HN3 2398   5.879   4.861   2.650 -1.8233  1.5450 -1.8201
   19SAPS   C12 2399   5.891   4.839   2.447 -0.1742  0.3679  0.0740
   19SAPS  H12A 2400   5.864   4.938   2.413 -2.5126  0.1683  1.1426
   19SAPS   C13 2401   5.983   4.789   2.328 -0.3376 -0.1655  0.6432
   19SAPS  O13A 2402   6.104   4.763   2.342 -0.7199 -0.2254  0.1703
   19SAPS  O13B 2403   5.932   4.785   2.217  0.4253  0.6667  0.3330
   19SAPS   C11 2404   5.771   4.746   2.460 -0.2583  0.2372  0.6079
   19SAPS  H11A 2405   5.810   4.654   2.507 -0.2240 -1.3040 -2.2575
   19SAPS  H11B 2406   5.737   4.723   2.357  2.4474  0.5216 -0.4329
   19SAPS     P 2407   5.531   4.749   2.536 -0.4487 -0.2645  0.4324
   19SAPS   O13 2408   5.429   4.859   2.551  0.1931  0.2708 -0.2715
   19SAPS   O14 2409   5.512   4.671   2.414  0.4939  0.0871 -0.5014
   19SAPS   O12 2410   5.675   4.813   2.544 -0.3415  0.1058 -0.2313
   19SAPS   O11 2411   5.527   4.650   2.662  0.3202 -0.3147  0.1482
   19SAPS    C1 2412   5.399   4.597   2.696  0.3595 -0.5375  0.8610
   19SAPS    HA 2413   5.336   4.685   2.721  1.1575  0.2982  0.0077
   19SAPS    HB 2414   5.346   4.541   2.616 -0.9126  0.0700  1.2596
   19SAPS    C2 2415   5.393   4.511   2.824 -0.0910  0.2855  0.5434
   19SAPS    HS 2416   5.285   4.503   2.849 -0.3256  0.3701 -0.4289
   19SAPS   O21 2417   5.469   4.565   2.923 -0.3024 -0.0642  0.4466
   19SAPS   C21 2418   5.424   4.680   2.983 -0.2656 -0.1193  0.8907
   19SAPS   O22 2419   5.314   4.730   2.971  0.2659 -0.1678  0.0116
   19SAPS   C22 2420   5.546   4.746   3.050  0.3270  0.6193  0.1510
   19SAPS   H2R 2421   5.597   4.664   3.104  1.9769  0.4897 -1.4919
   19SAPS   H2S 2422   5.614   4.796   2.977  0.4154  3.3166  1.9682
   19SAPS    C3 2423   5.457   4.371   2.809  0.4516 -0.4414 -0.6856
   19SAPS    HX 2424   5.562   4.383   2.845  0.0869 -0.1704  0.3326
   19SAPS    HY 2425   5.447   4.333   2.705 -2.8880 -1.0179 -0.2612
   19SAPS   O31 2426   5.395   4.272   2.899  0.7009 -0.4445  0.2822
   19SAPS   C31 2427   5.280   4.205   2.856 -0.1439  0.2361 -0.0221
   19SAPS   O32 2428   5.230   4.218   2.747  0.2064 -0.8850  0.2399
   19SAPS   C32 2429   5.222   4.105   2.951  0.5680 -0.0439  0.3181
   19SAPS   H2X 2430   5.279   4.080   3.042  0.6882  2.1756  0.9059
   19SAPS   H2Y 2431   5.230   4.009   2.895  0.5641 -0.0004  0.2422
   19SAPS   C23 2432   5.484   4.843   3.159 -0.7026  0.6042 -0.0911
   19SAPS   H3R 2433   5.425   4.775   3.224 -0.5895  1.4575  0.9339
   19SAPS   H3S 2434   5.415   4.914   3.107 -2.1591  0.3862  1.4427
   19SAPS   C24 2435   5.587   4.910   3.247  0.3295 -0.1832 -0.5809
   19SAPS   H4R 2436   5.664   4.846   3.295  1.1980  2.1844  1.3507
   19SAPS   H4S 2437   5.545   4.966   3.332 -1.9251 -1.7065 -0.6142
   19SAPS   C25 2438   5.667   5.009   3.172 -0.2314  0.5352  1.1887
   19SAPS   H5R 2439   5.775   4.988   3.165 -0.1921  0.9363  0.4857
   19SAPS   C26 2440   5.622   5.121   3.118  0.3680 -0.2720  0.2602
   19SAPS   H6R 2441   5.695   5.175   3.056  0.6019 -0.5884  0.2571
   19SAPS   C27 2442   5.472   5.168   3.132 -0.3152 -0.0678  0.1926
   19SAPS   H7R 2443   5.419   5.114   3.213 -0.3558  1.6417  1.3688
   19SAPS   H7S 2444   5.413   5.139   3.043  1.3930  1.4791 -1.5453
   19SAPS   C28 2445   5.463   5.323   3.147  0.9699 -0.1977 -0.1650
   19SAPS   H8R 2446   5.490   5.387   3.062  0.0204 -1.3922 -1.4080
   19SAPS   C29 2447   5.404   5.387   3.257 -0.2426  0.7808 -1.0395
   19SAPS   H9R 2448   5.397   5.497   3.260 -0.5505  0.7417  0.9265
   19SAPS  C210 2449   5.348   5.310   3.378 -0.2280 -0.2172 -0.6331
   19SAPS  H10R 2450   5.349   5.199   3.373  0.6670 -0.4606  2.3931
   19SAPS  H10S 2451   5.241   5.336   3.392 -0.1974 -0.5825  0.4032
   19SAPS  C211 2452   5.414   5.350   3.507  0.5357 -0.3395 -1.0228
   19SAPS  H11R 2453   5.429   5.458   3.521 -2.0648 -0.0189 -0.0920
   19SAPS  C212 2454   5.440   5.280   3.622 -0.0121 -0.1046 -0.0215
   19SAPS  H12R 2455   5.491   5.334   3.703 -1.1737  0.5960  0.2617
   19SAPS  C213 2456   5.421   5.126   3.643 -0.2359  0.7136  0.0199
   19SAPS  H13R 2457   5.413   5.067   3.550  0.3446  0.2587  0.2481
   19SAPS  H13S 2458   5.324   5.108   3.693 -2.9739  1.5405 -4.4702
   19SAPS  C214 2459   5.541   5.070   3.716  0.0608  0.8007 -0.3934
   19SAPS  H14R 2460   5.624   5.055   3.645 -0.6728 -1.3010 -0.8729
   19SAPS  C215 2461   5.561   5.008   3.838  0.9567 -0.2141 -0.1695
   19SAPS  H15R 2462   5.662   4.969   3.859  0.1240 -3.0975 -0.9974
   19SAPS  C216 2463   5.446   5.005   3.940  0.2942 -0.4973  0.0007
   19SAPS  H16R 2464   5.423   4.898   3.956 -2.7180  0.2278  1.1992
   19SAPS  H16S 2465   5.364   5.065   3.895  1.4779 -0.4462 -2.2138
   19SAPS  C217 2466   5.474   5.066   4.078 -0.7075  0.3602 -0.1514
   19SAPS  H17R 2467   5.381   5.075   4.139  0.6021 -0.3591  2.0245
   19SAPS  H17S 2468   5.513   5.170   4.082  0.7734 -0.2274  1.8225
   19SAPS  C218 2469   5.565   4.982   4.171  0.1263 -0.2195 -0.0596
   19SAPS  H18R 2470   5.661   4.963   4.118 -0.0629  2.2283 -1.4567
   19SAPS  H18S 2471   5.510   4.889   4.197 -0.3019  0.2211  0.6558
   19SAPS  C219 2472   5.596   5.048   4.303 -0.3028  0.1962 -0.1842
   19SAPS  H19R 2473   5.499   5.070   4.354 -0.5893 -2.0476  0.3394
   19SAPS  H19S 2474   5.650   5.140   4.274  0.3291  0.1245  0.7207
   19SAPS  C220 2475   5.684   4.960   4.395 -0.1309 -0.1256  0.3484
   19SAPS  H20R 2476   5.772   4.935   4.332 -0.4972 -1.0000  0.1839
   19SAPS  H20S 2477   5.633   4.868   4.429 -0.1962  0.1398  0.9732
   19SAPS  H20T 2478   5.706   5.005   4.494 -0.3907 -1.1803  0.8944
   19SAPS   C33 2479   5.074   4.138   2.978  0.6154 -0.0831 -0.1887
   19SAPS   H3X 2480   5.010   4.059   3.021  0.6482 -1.6598 -2.8430
   19SAPS   H3Y 2481   5.028   4.172   2.883  0.6878 -0.2566 -0.2862
   19SAPS   C34 2482   5.075   4.253   3.080 -0.6267  0.0302 -1.0221
   19SAPS   H4X 2483   4.975   4.302   3.086 -0.3953  0.3211  1.6320
   19SAPS   H4Y 2484   5.136   4.334   3.036  0.0695  0.1023  0.0481
   19SAPS   C35 2485   5.110   4.222   3.229 -0.4337 -0.2002  0.2742
   19SAPS   H5X 2486   5.219   4.208   3.241 -0.5478 -0.2513  1.3406
   19SAPS   H5Y 2487   5.071   4.121   3.253 -0.3366  0.3313  2.9948
   19SAPS   C36 2488   5.048   4.323   3.328  0.3593 -0.4099  0.3250
   19SAPS   H6X 2489   4.939   4.340   3.313  0.1599 -1.7630  0.1450
   19SAPS   H6Y 2490   5.089   4.426   3.316 -2.9749  1.1238  0.9553
   19SAPS   C37 2491   5.046   4.279   3.477  1.0164  0.1991  0.1758
   19SAPS   H7X 2492   5.149   4.260   3.514  0.6163 -0.2211  1.1075
   19SAPS   H7Y 2493   4.996   4.180   3.482  0.9076  0.2199 -0.4748
   19SAPS   C38 2494   4.973   4.376   3.570 -0.1207 -1.2259 -0.1729
   19SAPS   H8X 2495   4.868   4.398   3.541  0.0136  0.5442  0.5288
   19SAPS   H8Y 2496   5.021   4.476   3.570 -0.3902 -1.0955 -0.8729
   19SAPS   C39 2497   4.967   4.322   3.717 -0.7553 -0.7138  0.1773
   19SAPS   H9X 2498   5.065   4.295   3.762 -1.1018 -0.2311  1.2465
   19SAPS   H9Y 2499   4.902   4.232   3.712 -2.7234  0.6719 -0.4979
   19SAPS  C310 2500   4.902   4.419   3.817  0.1216 -0.6896 -0.3909
   19SAPS  H10X 2501   4.794   4.393   3.813 -0.1969  0.5980 -0.4405
   19SAPS  H10Y 2502   4.923   4.524   3.789  1.2894 -0.5498  0.8987
   19SAPS  C311 2503   4.951   4.403   3.962 -0.3498 -0.7354  0.3961
   19SAPS  H11X 2504   5.058   4.434   3.959 -0.1589 -1.4540 -0.5195
   19SAPS  H11Y 2505   4.940   4.295   3.988 -0.1143 -0.5616  1.2594
   19SAPS  C312 2506   4.867   4.484   4.065 -0.2830  0.3016 -0.0895
   19SAPS  H12X 2507   4.765   4.442   4.053  0.3792 -0.8505 -2.1032
   19SAPS  H12Y 2508   4.852   4.592   4.045 -1.8888  0.4097  1.4682
   19SAPS  C313 2509   4.915   4.451   4.206  0.4844 -0.7484 -0.5064
   19SAPS  H13X 2510   5.014   4.498   4.217  0.7041 -0.7832 -2.0673
   19SAPS  H13Y 2511   4.921   4.342   4.226 -0.2912 -0.6151  0.5286
   19SAPS  C314 2512   4.839   4.516   4.322  0.2161 -0.2107  0.5951
   19SAPS  H14X 2513   4.729   4.499   4.313 -0.2720  2.2758  0.9135
   19SAPS  H14Y 2514   4.857   4.626   4.316  2.3926 -0.5189  0.7576
   19SAPS  C315 2515   4.885   4.464   4.456  0.0490  0.0396 -0.5916
   19SAPS  H15X 2516   4.994   4.478   4.476 -0.2743 -0.6055  1.8925
   19SAPS  H15Y 2517   4.852   4.359   4.448 -0.1798  0.1883 -1.7666
   19SAPS  C316 2518   4.805   4.516   4.577  0.3568 -0.0519  0.1312
   19SAPS  H16X 2519   4.697   4.530   4.558  0.5189  0.9134 -0.1145
   19SAPS  H16Y 2520   4.840   4.620   4.591 -1.6367  0.7066 -0.2270
   19SAPS  C317 2521   4.839   4.445   4.710  0.7434 -0.5270  0.5058
   19SAPS  H17X 2522   4.945   4.416   4.729 -0.0700 -1.8995  3.5934
   19SAPS  H17Y 2523   4.771   4.357   4.707 -1.9547  1.4560  0.2653
   19SAPS  C318 2524   4.790   4.533   4.825  0.2460  0.0135  0.1216
   19SAPS  H18X 2525   4.856   4.621   4.841  1.0797 -0.6347  0.3328
   19SAPS  H18Y 2526   4.778   4.477   4.920 -0.3339 -1.2167 -0.6517
   19SAPS  H18Z 2527   4.693   4.575   4.792  0.1842 -0.6886 -0.6094
   20SAPS     N 2528   6.342   5.444   2.611 -0.0632 -0.2349  0.8450
   20SAPS   HN1 2529   6.406   5.491   2.678 -0.4650 -0.5003  1.4305
   20SAPS   HN2 2530   6.249   5.445   2.659 -0.7847 -0.7982 -0.4868
   20SAPS   HN3 2531   6.378   5.348   2.595  1.4924  0.9489 -4.7010
   20SAPS   C12 2532   6.340   5.522   2.486 -0.0711  0.3035  0.3345
   20SAPS  H12A 2533   6.443   5.536   2.459  0.4208  2.9758  3.0824
   20SAPS   C13 2534   6.267   5.440   2.382  0.5082 -0.7168  0.1604
   20SAPS  O13A 2535   6.203   5.334   2.413  0.2874  0.1915  0.1277
   20SAPS  O13B 2536   6.272   5.478   2.260  0.0911 -0.1565  0.1799
   20SAPS   C11 2537   6.274   5.661   2.514 -0.2011  0.1715  0.3585
   20SAPS  H11A 2538   6.165   5.646   2.531 -0.3224 -0.6908 -1.0415
   20SAPS  H11B 2539   6.280   5.719   2.419  0.7391 -2.8500 -1.5807
   20SAPS     P 2540   6.428   5.856   2.612 -0.0505  0.2410 -0.0340
   20SAPS   O13 2541   6.569   5.819   2.582 -0.0128  0.3758  0.5220
   20SAPS   O14 2542   6.362   5.954   2.518 -0.1194  0.4123 -0.5968
   20SAPS   O12 2543   6.346   5.722   2.626  0.2440 -0.4178 -0.1885
   20SAPS   O11 2544   6.405   5.907   2.767 -0.2003 -0.2022  0.0546
   20SAPS    C1 2545   6.443   5.813   2.866  0.1803  0.7804  0.1156
   20SAPS    HA 2546   6.497   5.722   2.831 -0.0762  0.1565  1.3075
   20SAPS    HB 2547   6.512   5.867   2.935  2.8412 -0.7370 -1.2051
   20SAPS    C2 2548   6.312   5.755   2.943 -0.1117 -0.2724 -0.4103
   20SAPS    HS 2549   6.226   5.741   2.874  0.3380 -2.0562 -0.6501
   20SAPS   O21 2550   6.299   5.843   3.054  0.7133 -0.3462 -0.2061
   20SAPS   C21 2551   6.194   5.837   3.120  0.1882 -0.8263  0.0133
   20SAPS   O22 2552   6.092   5.769   3.108 -0.3379  0.2797 -0.0541
   20SAPS   C22 2553   6.209   5.942   3.226 -0.0887 -0.0490 -0.2553
   20SAPS   H2R 2554   6.289   6.014   3.200  0.1042 -0.1024  0.1931
   20SAPS   H2S 2555   6.117   6.003   3.240  0.8026  1.0152  1.2677
   20SAPS    C3 2556   6.331   5.608   2.989  0.2208  0.3505  0.4675
   20SAPS    HX 2557   6.351   5.542   2.902 -3.6584 -1.0666  0.4778
   20SAPS    HY 2558   6.229   5.580   3.024 -0.1763  0.9580 -0.1775
   20SAPS   O31 2559   6.431   5.594   3.095  0.3800 -0.6260  0.3099
   20SAPS   C31 2560   6.442   5.471   3.133 -0.1099  0.3076  0.0837
   20SAPS   O32 2561   6.358   5.384   3.124 -0.2140  0.0829  0.4136
   20SAPS   C32 2562   6.582   5.443   3.187  0.9364 -0.0266 -0.0762
   20SAPS   H2X 2563   6.649   5.482   3.108 -0.1528 -0.6689 -1.3642
   20SAPS   H2Y 2564   6.596   5.333   3.200  0.9006  0.1664  1.7647
   20SAPS   C23 2565   6.244   5.876   3.366  0.9643  0.3321  0.7485
   20SAPS   H3R 2566   6.292   5.956   3.427  1.5876 -0.2096  0.9807
   20SAPS   H3S 2567   6.324   5.801   3.349  1.8359  1.5292 -0.7000
   20SAPS   C24 2568   6.121   5.821   3.441  0.4680  0.5403 -0.3851
   20SAPS   H4R 2569   6.157   5.753   3.521 -0.3220  0.0724 -0.4170
   20SAPS   H4S 2570   6.075   5.749   3.369 -1.0335  0.9855  0.0782
   20SAPS   C25 2571   6.032   5.928   3.499  0.0106 -0.5742 -0.4673
   20SAPS   H5R 2572   5.979   5.985   3.420  2.6002  0.1431 -1.7935
   20SAPS   C26 2573   6.003   5.949   3.628 -0.5262  0.3028 -0.1640
   20SAPS   H6R 2574   5.934   6.032   3.653  0.1102  0.6213  0.5707
   20SAPS   C27 2575   6.065   5.877   3.747 -0.0068 -0.1904 -0.4836
   20SAPS   H7R 2576   6.032   5.771   3.743 -0.5359 -0.0016 -3.0155
   20SAPS   H7S 2577   6.014   5.917   3.838 -0.1921 -0.5296 -0.4345
   20SAPS   C28 2578   6.216   5.882   3.764  0.1137  0.2533 -0.4965
   20SAPS   H8R 2579   6.267   5.892   3.668  0.9855  2.6011  0.1326
   20SAPS   C29 2580   6.292   5.880   3.881  0.1413  0.0884 -0.2310
   20SAPS   H9R 2581   6.399   5.895   3.864  0.2505  0.9282  1.0570
   20SAPS  C210 2582   6.245   5.890   4.023 -0.6427  0.1675 -0.2358
   20SAPS  H10R 2583   6.142   5.932   4.015 -0.5872  0.3074 -0.2135
   20SAPS  H10S 2584   6.314   5.953   4.083 -0.7811 -0.2874  0.4190
   20SAPS  C211 2585   6.246   5.755   4.091  0.2835 -0.4198 -0.2162
   20SAPS  H11R 2586   6.220   5.671   4.024  0.4396  1.4133 -2.7106
   20SAPS  C212 2587   6.267   5.734   4.222 -1.1217  0.0010  0.1229
   20SAPS  H12R 2588   6.279   5.627   4.247  1.1523  0.3176  0.6409
   20SAPS  C213 2589   6.295   5.832   4.332 -0.3694 -0.0241  0.2183
   20SAPS  H13R 2590   6.393   5.876   4.304 -0.3666 -0.5017 -0.5836
   20SAPS  H13S 2591   6.320   5.775   4.424  2.0849  2.8334  1.4675
   20SAPS  C214 2592   6.196   5.935   4.373 -0.6988  0.8319 -0.0962
   20SAPS  H14R 2593   6.116   5.958   4.300 -0.9923 -3.5562 -1.4791
   20SAPS  C215 2594   6.195   6.007   4.484 -1.0001 -0.6234  0.0291
   20SAPS  H15R 2595   6.120   6.086   4.487 -0.5742 -0.2115 -0.0538
   20SAPS  C216 2596   6.292   5.988   4.598 -0.2314 -0.5699 -0.0650
   20SAPS  H16R 2597   6.374   6.061   4.577  0.6786 -1.8665 -1.2564
   20SAPS  H16S 2598   6.352   5.894   4.602  1.5852  0.6028  2.6874
   20SAPS  C217 2599   6.220   6.002   4.734  0.5283 -0.5926  0.8832
   20SAPS  H17R 2600   6.140   5.925   4.742  0.0917 -0.4277 -1.3307
   20SAPS  H17S 2601   6.157   6.093   4.725 -0.8330 -1.4152  1.8211
   20SAPS  C218 2602   6.311   6.010   4.855 -0.8618  0.6115 -0.4460
   20SAPS  H18R 2603   6.251   6.037   4.944 -1.6850  0.2863 -0.8856
   20SAPS  H18S 2604   6.385   6.090   4.834 -0.3439 -0.3649 -2.7463
   20SAPS  C219 2605   6.402   5.886   4.890 -0.1161  0.7601 -0.5300
   20SAPS  H19R 2606   6.458   5.865   4.797 -0.3129 -0.7449 -0.3225
   20SAPS  H19S 2607   6.346   5.792   4.908  0.2838  0.3030 -1.6426
   20SAPS  C220 2608   6.514   5.906   4.992  0.1091 -0.5974 -0.2399
   20SAPS  H20R 2609   6.582   5.818   4.986  0.3085 -0.6634  2.1021
   20SAPS  H20S 2610   6.481   5.911   5.098  0.1473 -0.4843 -0.2326
   20SAPS  H20T 2611   6.580   5.993   4.972  0.0630 -0.4233  0.3630
   20SAPS   C33 2612   6.623   5.519   3.306 -0.1799 -0.1502  0.1558
   20SAPS   H3X 2613   6.616   5.628   3.289 -2.0906 -0.1104  0.9324
   20SAPS   H3Y 2614   6.728   5.495   3.331  0.1149 -1.1302 -1.7668
   20SAPS   C34 2615   6.531   5.501   3.425 -0.6008  0.9715  0.5546
   20SAPS   H4X 2616   6.530   5.395   3.459  1.3950  1.0571  1.0291
   20SAPS   H4Y 2617   6.427   5.530   3.400 -0.8323 -0.7543 -0.6830
   20SAPS   C35 2618   6.573   5.595   3.538  0.2659 -0.2050  0.8252
   20SAPS   H5X 2619   6.487   5.629   3.599  0.3791 -0.7193  1.2725
   20SAPS   H5Y 2620   6.619   5.682   3.487 -0.4518  0.3844  1.1718
   20SAPS   C36 2621   6.680   5.537   3.624  0.3591 -0.2353 -0.5378
   20SAPS   H6X 2622   6.773   5.526   3.564  1.2707  2.3226  0.2386
   20SAPS   H6Y 2623   6.657   5.434   3.658 -1.3025  0.5016  0.6954
   20SAPS   C37 2624   6.705   5.638   3.738 -0.0326  0.2548  0.0326
   20SAPS   H7X 2625   6.697   5.744   3.705  3.3730  1.0085  1.1935
   20SAPS   H7Y 2626   6.809   5.627   3.775  0.4249  2.4515 -0.4123
   20SAPS   C38 2627   6.613   5.613   3.857  0.7433 -0.1129 -0.5334
   20SAPS   H8X 2628   6.630   5.506   3.882 -0.8718 -0.2025  0.3144
   20SAPS   H8Y 2629   6.504   5.631   3.847  0.2840 -1.2776  1.7096
   20SAPS   C39 2630   6.641   5.702   3.987 -0.8057  0.0265  0.2061
   20SAPS   H9X 2631   6.551   5.688   4.051 -1.8797  1.1946 -0.9842
   20SAPS   H9Y 2632   6.649   5.809   3.959 -0.7027 -0.3800 -1.4211
   20SAPS  C310 2633   6.763   5.642   4.067  0.1368 -0.9617 -0.5443
   20SAPS  H10X 2634   6.849   5.652   3.998 -0.2363  0.1505 -0.8842
   20SAPS  H10Y 2635   6.746   5.534   4.084  2.2251 -1.1556  0.6090
   20SAPS  C311 2636   6.786   5.726   4.193 -0.8141 -0.4726 -0.1955
   20SAPS  H11X 2637   6.794   5.830   4.157  2.6588 -0.4361  0.3199
   20SAPS  H11Y 2638   6.877   5.689   4.246  0.0308  1.3641 -0.3033
   20SAPS  C312 2639   6.678   5.713   4.302  0.7503  0.3853 -0.2081
   20SAPS  H12X 2640   6.677   5.602   4.309  1.2314  0.1155 -3.3048
   20SAPS  H12Y 2641   6.577   5.743   4.268 -1.2629 -3.7081  1.4512
   20SAPS  C313 2642   6.705   5.777   4.434  0.0036  0.0638  0.3978
   20SAPS  H13X 2643   6.798   5.738   4.481  1.5959  1.2846 -1.5865
   20SAPS  H13Y 2644   6.630   5.734   4.503  1.4371  0.5230  2.3340
   20SAPS  C314 2645   6.707   5.926   4.439  0.2411 -0.4257 -0.5404
   20SAPS  H14X 2646   6.607   5.972   4.428 -2.2447 -4.6750  1.7879
   20SAPS  H14Y 2647   6.768   5.964   4.354 -0.6576  1.6078 -0.3299
   20SAPS  C315 2648   6.773   5.982   4.565 -0.4679  0.5508  0.2724
   20SAPS  H15X 2649   6.879   5.948   4.568 -1.0513 -1.3980  2.9553
   20SAPS  H15Y 2650   6.717   5.940   4.651 -0.6632 -0.7311 -0.4518
   20SAPS  C316 2651   6.772   6.134   4.591  0.0293  0.5261  0.4112
   20SAPS  H16X 2652   6.664   6.161   4.590  0.4483  2.4024 -2.0317
   20SAPS  H16Y 2653   6.822   6.196   4.513 -0.7712  0.1924 -0.3802
   20SAPS  C317 2654   6.847   6.163   4.724 -0.1468 -0.8735  0.0404
   20SAPS  H17X 2655   6.851   6.076   4.793  0.7439  0.7129  2.0800
   20SAPS  H17Y 2656   6.791   6.245   4.774  1.3898  0.2050  0.0597
   20SAPS  C318 2657   6.986   6.220   4.685 -0.0014  0.0162 -0.3723
   20SAPS  H18X 2658   7.033   6.277   4.769  0.1377 -0.0951 -0.3746
   20SAPS  H18Y 2659   6.966   6.291   4.602 -0.7523  0.0571 -0.1607
   20SAPS  H18Z 2660   7.055   6.141   4.649 -1.0073 -0.8802 -0.3874
   21CHL1    C3 2661   5.290   0.781   6.598  0.2984 -0.4861 -0.1964
   21CHL1    H3 2662   5.241   0.688   6.634 -1.2677 -0.5722 -2.3460
   21CHL1    O3 2663   5.350   0.839   6.709 -0.4246  0.0638 -0.7836
   21CHL1   H3' 2664   5.369   0.930   6.687 -3.7555  1.1066  0.0357
   21CHL1    C4 2665   5.409   0.741   6.500  0.7002  1.0205 -0.2892
   21CHL1   H4A 2666   5.473   0.831   6.495  1.5337  0.5269  0.9947
   21CHL1   H4B 2667   5.454   0.648   6.541 -1.2526 -0.3030 -0.9657
   21CHL1    C5 2668   5.345   0.702   6.367 -0.5769 -1.0768  1.0600
   21CHL1    C6 2669   5.366   0.583   6.311 -0.0572 -0.5724  0.2718
   21CHL1    H6 2670   5.430   0.510   6.363  1.3380 -0.2663 -0.9335
   21CHL1    C7 2671   5.321   0.548   6.174 -0.3768 -0.2750  0.0293
   21CHL1   H7A 2672   5.395   0.487   6.116 -0.8622 -1.0624  0.2301
   21CHL1   H7B 2673   5.225   0.493   6.170 -0.4531 -0.0901 -1.3446
   21CHL1    C8 2674   5.300   0.684   6.098  0.9088 -0.3691 -0.3956
   21CHL1    H8 2675   5.399   0.731   6.084  0.4560  0.2768 -1.6244
   21CHL1   C14 2676   5.239   0.644   5.959 -0.2138  0.5614 -0.4893
   21CHL1   H14 2677   5.144   0.597   5.993  0.9279  0.3472  2.8011
   21CHL1   C15 2678   5.324   0.553   5.867 -0.2986 -0.0123 -0.3719
   21CHL1  H15A 2679   5.430   0.583   5.881 -0.2825  0.2899 -1.0953
   21CHL1  H15B 2680   5.310   0.446   5.892  0.8248 -0.3269 -1.0127
   21CHL1   C16 2681   5.266   0.582   5.728 -1.1229  0.5543 -0.6927
   21CHL1  H16A 2682   5.353   0.601   5.662 -1.5245  1.6430 -0.9310
   21CHL1  H16B 2683   5.207   0.494   5.696 -1.0289 -0.4263  1.6250
   21CHL1   C17 2684   5.166   0.703   5.740 -0.1078  1.7070 -0.3916
   21CHL1   H17 2685   5.060   0.671   5.747  0.6518 -0.6030  3.5595
   21CHL1   C13 2686   5.205   0.766   5.876 -0.3518  0.8656 -0.2359
   21CHL1   C18 2687   5.339   0.841   5.856 -0.1673  0.0144 -0.2063
   21CHL1  H18A 2688   5.403   0.788   5.783 -1.6248 -2.8589  0.4397
   21CHL1  H18B 2689   5.301   0.932   5.806 -1.5400  0.0253  0.7973
   21CHL1  H18C 2690   5.382   0.881   5.950 -0.1870 -0.4607  0.0129
   21CHL1   C12 2691   5.098   0.851   5.947  0.4908  0.0603 -0.4717
   21CHL1  H12A 2692   5.071   0.938   5.883  0.7400  0.1033 -0.5232
   21CHL1  H12B 2693   5.002   0.797   5.957  0.5055  0.2108  0.5343
   21CHL1   C11 2694   5.142   0.896   6.088  0.2336  0.2810 -0.0408
   21CHL1  H11A 2695   5.215   0.976   6.062 -0.2000  0.1450 -1.8236
   21CHL1  H11B 2696   5.049   0.930   6.137 -1.5944 -2.7353 -1.0990
   21CHL1    C9 2697   5.199   0.778   6.172  0.1521  0.1446  0.5757
   21CHL1    H9 2698   5.106   0.717   6.182 -0.1766 -0.1169 -2.8933
   21CHL1   C10 2699   5.254   0.814   6.307  0.2209  1.0168 -0.4568
   21CHL1   C19 2700   5.345   0.941   6.292  0.6441 -0.4746  0.4337
   21CHL1  H19A 2701   5.417   0.936   6.207  0.4149 -0.9677  0.2670
   21CHL1  H19B 2702   5.286   1.033   6.272  0.8204  0.2869  3.0397
   21CHL1  H19C 2703   5.389   0.968   6.390  0.1661  0.7965  0.3263
   21CHL1    C1 2704   5.142   0.836   6.409 -0.2813 -0.1513  0.4401
   21CHL1   H1A 2705   5.075   0.914   6.367  1.2179  1.3790  0.7621
   21CHL1   H1B 2706   5.074   0.750   6.423  0.7285 -0.8280  1.4112
   21CHL1    C2 2707   5.194   0.881   6.544  0.2128 -0.8036  0.4982
   21CHL1   H2A 2708   5.107   0.889   6.613 -0.4217 -1.0139 -0.2520
   21CHL1   H2B 2709   5.239   0.983   6.538 -0.9705 -0.2701  0.3072
   21CHL1   C20 2710   5.178   0.784   5.615  0.3864 -0.6916  0.6577
   21CHL1   H20 2711   5.275   0.837   5.619 -1.4563  3.1875 -1.1633
   21CHL1   C21 2712   5.081   0.901   5.604  0.0473  0.5125 -0.1956
   21CHL1  H21A 2713   5.104   0.973   5.685  0.8660 -0.1211  0.1453
   21CHL1  H21B 2714   4.971   0.887   5.610  0.2526 -1.6461 -0.5818
   21CHL1  H21C 2715   5.109   0.952   5.510  2.0870  2.2237  1.2563
   21CHL1   C22 2716   5.170   0.699   5.478 -0.0538 -0.1770  0.3142
   21CHL1  H22A 2717   5.136   0.595   5.501 -1.7252 -0.0958 -1.5505
   21CHL1  H22B 2718   5.092   0.734   5.408  0.9964 -0.1305 -0.8623
   21CHL1   C23 2719   5.291   0.699   5.385 -0.3328 -0.8097  0.3618
   21CHL1  H23A 2720   5.288   0.803   5.347  3.7051 -0.6525 -0.0167
   21CHL1  H23B 2721   5.384   0.676   5.442  0.8106  1.3813 -0.5039
   21CHL1   C24 2722   5.286   0.605   5.267  0.0018  0.4452  0.2754
   21CHL1  H24A 2723   5.309   0.500   5.292  1.0157  0.4621 -0.5403
   21CHL1  H24B 2724   5.181   0.605   5.229 -0.2134  1.3683  0.8233
   21CHL1   C25 2725   5.367   0.652   5.156  0.5699  0.2982  0.9119
   21CHL1   H25 2726   5.459   0.701   5.196  1.9597  0.0618 -1.7656
   21CHL1   C26 2727   5.410   0.530   5.069  0.7496 -0.8342 -0.2579
   21CHL1  H26A 2728   5.321   0.483   5.021 -0.4361  1.3130 -0.2732
   21CHL1  H26B 2729   5.489   0.572   5.003  0.7525  1.3220  1.0315
   21CHL1  H26C 2730   5.453   0.452   5.136  1.3040  0.5848  1.1169
   21CHL1   C27 2731   5.298   0.760   5.068 -0.4392  0.8482 -0.1078
   21CHL1  H27A 2732   5.234   0.828   5.128 -2.3815  0.6431 -1.8034
   21CHL1  H27B 2733   5.369   0.822   5.009  0.9092 -0.0280  0.5410
   21CHL1  H27C 2734   5.230   0.711   4.995  1.3259 -1.7228 -0.1528
   22CHL1    C3 2735   6.270   6.810   6.667 -0.2109  0.4438 -0.2060
   22CHL1    H3 2736   6.279   6.709   6.711 -0.5107  0.6870  0.4252
   22CHL1    O3 2737   6.283   6.903   6.778  0.1025  0.4681 -0.0001
   22CHL1   H3' 2738   6.371   6.895   6.815 -0.8449  2.8109  3.2370
   22CHL1    C4 2739   6.385   6.844   6.571 -0.0222 -0.1074  0.3175
   22CHL1   H4A 2740   6.364   6.952   6.551 -0.3335 -0.3844 -0.9724
   22CHL1   H4B 2741   6.488   6.840   6.611  0.1508 -0.3657 -0.1410
   22CHL1    C5 2742   6.375   6.764   6.440 -0.2290  0.2282 -0.3938
   22CHL1    C6 2743   6.469   6.676   6.391 -0.3088  0.0073 -0.6110
   22CHL1    H6 2744   6.553   6.649   6.457  0.0153  0.5651 -0.7884
   22CHL1    C7 2745   6.464   6.598   6.266  0.1787  0.1204  0.7542
   22CHL1   H7A 2746   6.563   6.585   6.217 -0.6479  0.9235 -1.2381
   22CHL1   H7B 2747   6.429   6.493   6.279  0.2596 -0.1118 -0.7463
   22CHL1    C8 2748   6.369   6.663   6.165  0.4549  0.6028  0.4356
   22CHL1    H8 2749   6.414   6.756   6.125  0.7037 -0.8383 -2.9843
   22CHL1   C14 2750   6.344   6.570   6.052  0.0737 -0.1126  0.2260
   22CHL1   H14 2751   6.313   6.474   6.099  1.1489  0.5387  2.3921
   22CHL1   C15 2752   6.466   6.524   5.972  0.5846  0.3334 -0.5000
   22CHL1  H15A 2753   6.527   6.614   5.947 -1.3634  1.3542 -1.8148
   22CHL1  H15B 2754   6.513   6.438   6.024  1.1149 -0.6240 -2.4784
   22CHL1   C16 2755   6.405   6.463   5.840 -0.4903 -0.4449 -0.1807
   22CHL1  H16A 2756   6.446   6.520   5.754 -1.3798  4.3373  2.1980
   22CHL1  H16B 2757   6.431   6.356   5.828  1.5201 -0.5141  3.2813
   22CHL1   C17 2758   6.251   6.495   5.845  0.0018 -0.0423  0.1233
   22CHL1   H17 2759   6.214   6.400   5.887  0.0940 -0.5472 -0.9002
   22CHL1   C13 2760   6.234   6.612   5.950  0.1446 -0.3433 -0.6338
   22CHL1   C18 2761   6.266   6.742   5.878 -1.1197  0.4854  0.2684
   22CHL1  H18A 2762   6.277   6.829   5.947 -0.6362  0.7419 -0.1268
   22CHL1  H18B 2763   6.357   6.733   5.815 -1.5290  0.3780 -0.3217
   22CHL1  H18C 2764   6.186   6.767   5.805 -1.4457  1.0867  0.8239
   22CHL1   C12 2765   6.099   6.614   6.029 -0.1990  0.4336  0.6866
   22CHL1  H12A 2766   6.014   6.626   5.958  0.8422 -0.0881 -0.7102
   22CHL1  H12B 2767   6.089   6.511   6.070 -2.2914 -0.5541 -2.0127
   22CHL1   C11 2768   6.105   6.713   6.145 -0.5260  0.3644 -0.6544
   22CHL1  H11A 2769   6.134   6.816   6.115 -0.6360  0.1861 -1.3858
   22CHL1  H11B 2770   6.015   6.702   6.209  0.0120 -0.6288 -0.0419
   22CHL1    C9 2771   6.235   6.690   6.240  0.4754 -0.3545  0.1385
   22CHL1    H9 2772   6.204   6.592   6.281  0.7179 -0.7898 -0.6882
   22CHL1   C10 2773   6.245   6.791   6.363  0.4579  0.6092 -0.6365
   22CHL1   C19 2774   6.226   6.941   6.313  0.2053  0.7577 -0.5267
   22CHL1  H19A 2775   6.225   7.003   6.404  1.8698 -0.0540  0.0926
   22CHL1  H19B 2776   6.308   6.960   6.240  0.4576 -2.8518 -1.3950
   22CHL1  H19C 2777   6.129   6.960   6.261 -0.6638  1.4541  1.2817
   22CHL1    C1 2778   6.131   6.755   6.461 -0.5120  0.2754  0.3019
   22CHL1   H1A 2779   6.033   6.787   6.419 -2.9102 -2.0469  3.6118
   22CHL1   H1B 2780   6.116   6.645   6.471 -1.1380  0.5026  2.2829
   22CHL1    C2 2781   6.139   6.823   6.599 -0.0338 -0.6322 -0.0475
   22CHL1   H2A 2782   6.065   6.784   6.672 -0.5232 -0.6223 -0.5372
   22CHL1   H2B 2783   6.105   6.927   6.583  1.1034 -0.1577  0.4437
   22CHL1   C20 2784   6.187   6.500   5.708  0.1859 -0.2034  0.3563
   22CHL1   H20 2785   6.234   6.590   5.664 -1.0810  0.8965  1.1628
   22CHL1   C21 2786   6.037   6.540   5.712  0.6000  0.0179 -0.3894
   22CHL1  H21A 2787   5.984   6.468   5.778  1.6059 -2.4827 -2.1610
   22CHL1  H21B 2788   5.987   6.530   5.614  0.8147 -1.0107 -0.4066
   22CHL1  H21C 2789   6.026   6.645   5.747 -0.9542  0.0281 -0.8369
   22CHL1   C22 2790   6.209   6.386   5.607  0.1129  0.4053  0.2295
   22CHL1  H22A 2791   6.304   6.335   5.637  0.3374  0.2124 -0.7667
   22CHL1  H22B 2792   6.131   6.307   5.607  1.1835 -0.7336 -1.4464
   22CHL1   C23 2793   6.226   6.441   5.467  0.5445  0.0796  0.4475
   22CHL1  H23A 2794   6.147   6.517   5.450  0.8979  0.1167 -1.2008
   22CHL1  H23B 2795   6.323   6.492   5.447 -0.2143  0.8982 -1.3786
   22CHL1   C24 2796   6.201   6.333   5.360 -0.8663 -0.3248  0.2721
   22CHL1  H24A 2797   6.257   6.239   5.377 -1.3855 -0.5141  1.0182
   22CHL1  H24B 2798   6.092   6.312   5.374 -1.4031  2.3527  0.7526
   22CHL1   C25 2799   6.229   6.370   5.216  0.3414 -0.5627 -0.1302
   22CHL1   H25 2800   6.335   6.398   5.201 -0.2293  1.2147 -1.2015
   22CHL1   C26 2801   6.208   6.241   5.126  0.4995 -0.4059  0.2488
   22CHL1  H26A 2802   6.261   6.279   5.036  1.4048  3.3141  2.1710
   22CHL1  H26B 2803   6.261   6.153   5.168 -0.5619 -0.7608  0.8682
   22CHL1  H26C 2804   6.101   6.226   5.100  0.8066  1.4990 -2.6320
   22CHL1   C27 2805   6.139   6.478   5.163 -0.0384  0.3285 -0.7279
   22CHL1  H27A 2806   6.132   6.558   5.240  0.0022 -0.2881 -0.0749
   22CHL1  H27B 2807   6.165   6.505   5.058  0.3203 -1.2519 -1.0736
   22CHL1  H27C 2808   6.032   6.449   5.159  0.6697 -2.4670 -4.2522
   23CHL1    C3 2809   4.413   2.099   6.789 -0.0069 -0.0967  0.5976
   23CHL1    H3 2810   4.306   2.075   6.772  0.6865 -2.3433 -1.1650
   23CHL1    O3 2811   4.455   2.104   6.925 -0.3714 -0.1664 -0.0205
   23CHL1   H3' 2812   4.545   2.135   6.939 -1.7848  3.4320  2.7590
   23CHL1    C4 2813   4.498   1.991   6.716 -0.3209  0.3366  0.7481
   23CHL1   H4A 2814   4.601   2.034   6.725 -0.2167 -0.0420  1.4162
   23CHL1   H4B 2815   4.493   1.903   6.784 -0.0194  0.8482  1.4544
   23CHL1    C5 2816   4.467   1.981   6.569  0.2147  0.2908 -0.2813
   23CHL1    C6 2817   4.442   1.866   6.509 -0.3479 -0.0916  0.0985
   23CHL1    H6 2818   4.462   1.777   6.570  0.0397  0.4945  0.8426
   23CHL1    C7 2819   4.415   1.835   6.359 -0.3504 -0.9204 -0.0343
   23CHL1   H7A 2820   4.488   1.759   6.326 -0.9674 -0.9108 -1.4828
   23CHL1   H7B 2821   4.309   1.806   6.344 -1.0017  0.9145  0.7229
   23CHL1    C8 2822   4.450   1.962   6.280 -0.6131 -0.5626  0.2826
   23CHL1    H8 2823   4.560   1.964   6.264 -0.4155  4.8426  0.3156
   23CHL1   C14 2824   4.378   1.956   6.141 -0.3804  0.2211  0.2653
   23CHL1   H14 2825   4.270   1.946   6.168 -0.7447 -0.9005 -1.3960
   23CHL1   C15 2826   4.397   1.830   6.056 -0.2134 -0.0136 -0.6837
   23CHL1  H15A 2827   4.502   1.797   6.068 -0.4389 -0.3202  0.7485
   23CHL1  H15B 2828   4.343   1.747   6.108  1.0353  0.7340  2.0048
   23CHL1   C16 2829   4.354   1.869   5.916  0.1806  0.1017  0.2950
   23CHL1  H16A 2830   4.440   1.839   5.851 -0.1156 -0.9629  0.3796
   23CHL1  H16B 2831   4.268   1.804   5.888  1.1484 -1.2151  0.3023
   23CHL1   C17 2832   4.320   2.029   5.923  1.1897  0.0057  0.7425
   23CHL1   H17 2833   4.213   2.026   5.952  0.6853 -0.7993 -1.0604
   23CHL1   C13 2834   4.391   2.077   6.048 -0.7966 -0.4503  0.4442
   23CHL1   C18 2835   4.539   2.086   6.010  0.0254 -0.3214  0.1094
   23CHL1  H18A 2836   4.561   2.168   5.938  0.0984  1.9037  2.5322
   23CHL1  H18B 2837   4.594   2.121   6.100  0.8441  0.1095 -0.5435
   23CHL1  H18C 2838   4.583   1.988   5.981  3.0291  0.6671  0.9227
   23CHL1   C12 2839   4.340   2.204   6.123  0.4144  0.4523 -0.2549
   23CHL1  H12A 2840   4.364   2.303   6.078 -1.4083  0.5741 -1.0164
   23CHL1  H12B 2841   4.230   2.198   6.132  0.1649  0.0142 -2.8597
   23CHL1   C11 2842   4.397   2.221   6.265 -0.3159 -0.1586 -0.0137
   23CHL1  H11A 2843   4.504   2.251   6.258 -0.2426 -0.6435 -1.1331
   23CHL1  H11B 2844   4.343   2.301   6.320  1.1355  1.4724 -0.8569
   23CHL1    C9 2845   4.398   2.091   6.357 -0.2721  0.2326 -0.3535
   23CHL1    H9 2846   4.291   2.070   6.377  0.1534  0.1304  2.0106
   23CHL1   C10 2847   4.475   2.110   6.493  0.5272 -0.6144  0.1349
   23CHL1   C19 2848   4.627   2.159   6.470 -0.0213  1.2874  0.3434
   23CHL1  H19A 2849   4.676   2.170   6.569  0.5425 -0.6930  0.3174
   23CHL1  H19B 2850   4.680   2.091   6.400 -1.9182  1.7358 -1.6274
   23CHL1  H19C 2851   4.635   2.256   6.416 -1.6897  0.0656 -2.2641
   23CHL1    C1 2852   4.400   2.228   6.576 -0.3284  0.6750  0.2791
   23CHL1   H1A 2853   4.417   2.329   6.533  2.0345 -0.1848 -0.9767
   23CHL1   H1B 2854   4.290   2.211   6.579 -0.4174  1.3604  1.3285
   23CHL1    C2 2855   4.437   2.239   6.725 -0.0183 -0.7207  0.2420
   23CHL1   H2A 2856   4.373   2.313   6.779 -1.9350 -1.1827 -1.3026
   23CHL1   H2B 2857   4.543   2.274   6.730 -0.8386  1.8842  1.2972
   23CHL1   C20 2858   4.319   2.092   5.781  0.4360 -0.4463 -0.0150
   23CHL1   H20 2859   4.424   2.112   5.749  0.3259  0.4421  0.1577
   23CHL1   C21 2860   4.235   2.223   5.794  0.5254  0.0064 -0.2080
   23CHL1  H21A 2861   4.129   2.191   5.809  0.8217 -0.4691  0.9598
   23CHL1  H21B 2862   4.238   2.290   5.706  0.1150  1.7133  1.0153
   23CHL1  H21C 2863   4.270   2.278   5.884 -1.4966  1.7099 -0.3910
   23CHL1   C22 2864   4.261   1.995   5.676  0.2201  0.0775  0.0691
   23CHL1  H22A 2865   4.332   1.911   5.659  0.7396  0.9046 -2.1165
   23CHL1  H22B 2866   4.164   1.960   5.717 -1.0539 -1.3934 -3.7364
   23CHL1   C23 2867   4.248   2.048   5.535 -0.4324 -0.1236 -0.4085
   23CHL1  H23A 2868   4.201   2.149   5.541 -0.0664  0.0085  4.5871
   23CHL1  H23B 2869   4.346   2.061   5.485 -1.7426  0.6811 -2.9207
   23CHL1   C24 2870   4.158   1.957   5.450  0.1491  0.1529  0.3520
   23CHL1  H24A 2871   4.200   1.854   5.449  2.9423  1.2108 -0.7103
   23CHL1  H24B 2872   4.057   1.959   5.496  0.1080 -1.5688  0.3958
   23CHL1   C25 2873   4.163   2.012   5.305  0.1173 -0.2467 -0.2195
   23CHL1   H25 2874   4.271   2.033   5.291  0.6788 -1.6110  1.7143
   23CHL1   C26 2875   4.123   1.907   5.193 -0.2286 -0.1114  0.2170
   23CHL1  H26A 2876   4.172   1.808   5.188 -1.1821 -0.5400 -1.4294
   23CHL1  H26B 2877   4.014   1.888   5.191  0.1761 -2.7181 -1.4861
   23CHL1  H26C 2878   4.149   1.956   5.097  1.8576 -0.2376  0.6677
   23CHL1   C27 2879   4.086   2.147   5.286 -0.3269  0.0141 -0.0876
   23CHL1  H27A 2880   3.977   2.138   5.306 -0.1134  0.1841  1.2455
   23CHL1  H27B 2881   4.136   2.222   5.351  0.7133 -0.7236 -0.0119
   23CHL1  H27C 2882   4.099   2.183   5.182  2.6367 -0.4318  0.0337
   24CHL1    C3 2883   5.496   2.040   6.367 -0.0552  0.4782  0.0728
   24CHL1    H3 2884   5.539   1.940   6.345 -2.2351 -1.1425  2.5387
   24CHL1    O3 2885   5.571   2.093   6.471 -0.1537 -0.2330  0.2150
   24CHL1   H3' 2886   5.555   2.035   6.546 -0.2606 -0.3858  0.0760
   24CHL1    C4 2887   5.505   2.140   6.250 -0.0179 -0.0087 -0.0995
   24CHL1   H4A 2888   5.469   2.240   6.280 -2.0718 -0.6472 -0.2160
   24CHL1   H4B 2889   5.610   2.149   6.217 -0.0997  0.4864 -0.2356
   24CHL1    C5 2890   5.430   2.100   6.132  1.0555  0.7841  0.9914
   24CHL1    C6 2891   5.478   2.067   6.013  0.1456  0.4391 -0.0835
   24CHL1    H6 2892   5.587   2.056   6.000  0.0142  0.0916 -0.9805
   24CHL1    C7 2893   5.408   2.040   5.884 -0.2344 -0.1272 -0.1827
   24CHL1   H7A 2894   5.445   2.100   5.798 -0.4818 -0.3705 -0.4599
   24CHL1   H7B 2895   5.421   1.934   5.854 -2.3647 -0.0722 -1.4714
   24CHL1    C8 2896   5.259   2.072   5.907  0.2801  0.4274 -0.5036
   24CHL1    H8 2897   5.244   2.181   5.894 -2.3464  0.1980 -0.0172
   24CHL1   C14 2898   5.183   2.006   5.800 -0.3958  0.3241 -0.0537
   24CHL1   H14 2899   5.198   1.896   5.806 -1.9037  0.0320 -1.0217
   24CHL1   C15 2900   5.222   2.036   5.654  0.1677 -0.0757 -0.2976
   24CHL1  H15A 2901   5.237   2.145   5.641  2.2845 -0.2318  0.4497
   24CHL1  H15B 2902   5.324   2.000   5.628  1.1327  0.6872  2.1465
   24CHL1   C16 2903   5.102   2.001   5.568  0.2148 -0.0126 -0.2546
   24CHL1  H16A 2904   5.093   2.089   5.500  0.8796 -1.5556 -2.4525
   24CHL1  H16B 2905   5.119   1.915   5.499  2.3797  0.7445 -0.7467
   24CHL1   C17 2906   4.980   1.973   5.665  0.3644  0.4076 -0.5479
   24CHL1   H17 2907   4.980   1.862   5.677  0.0646  0.4879  0.2044
   24CHL1   C13 2908   5.026   2.032   5.794 -0.4414 -1.2624  0.6798
   24CHL1   C18 2909   5.002   2.183   5.793  0.1865 -0.7128  0.8354
   24CHL1  H18A 2910   4.894   2.209   5.793  0.8256  2.5116 -0.9766
   24CHL1  H18B 2911   5.056   2.244   5.868  0.2209  0.3802 -0.0526
   24CHL1  H18C 2912   5.048   2.228   5.702  0.2336  0.1830  1.2900
   24CHL1   C12 2913   4.971   1.976   5.928  0.1125 -0.8299  0.5770
   24CHL1  H12A 2914   4.862   1.984   5.942 -0.1193 -1.2965 -0.7881
   24CHL1  H12B 2915   4.998   1.868   5.927  2.3220 -0.3368 -1.0077
   24CHL1   C11 2916   5.044   2.044   6.053  0.4310  0.3399  0.5856
   24CHL1  H11A 2917   5.007   2.149   6.050 -0.6888  0.0907  3.2077
   24CHL1  H11B 2918   5.010   1.991   6.144  0.3551 -1.7155 -0.5796
   24CHL1    C9 2919   5.200   2.025   6.039  1.4088 -0.0566 -0.2454
   24CHL1    H9 2920   5.213   1.915   6.053  2.5073  0.0514 -0.3087
   24CHL1   C10 2921   5.276   2.086   6.163 -0.7137  0.3452  1.0607
   24CHL1   C19 2922   5.216   2.230   6.190 -0.1067 -0.7152 -0.4422
   24CHL1  H19A 2923   5.278   2.277   6.269 -0.9225  0.0716 -0.2457
   24CHL1  H19B 2924   5.230   2.285   6.094  1.6710  0.1667  0.2773
   24CHL1  H19C 2925   5.108   2.232   6.219 -0.0113 -1.6229  0.0010
   24CHL1    C1 2926   5.257   1.996   6.288 -0.1299 -0.7471 -0.3776
   24CHL1   H1A 2927   5.150   2.009   6.317 -0.0720  0.4902 -0.6671
   24CHL1   H1B 2928   5.272   1.890   6.257 -0.8799 -0.5046 -1.6705
   24CHL1    C2 2929   5.348   2.031   6.408  0.2083  0.1228  0.3160
   24CHL1   H2A 2930   5.329   1.965   6.495 -0.0338 -1.7069 -1.0818
   24CHL1   H2B 2931   5.314   2.135   6.432  1.1184  0.6582 -0.6383
   24CHL1   C20 2932   4.845   2.013   5.593  0.3603  0.2346 -0.4749
   24CHL1   H20 2933   4.837   2.123   5.583 -0.0792  0.3622  0.9980
   24CHL1   C21 2934   4.728   1.951   5.680  0.0433 -0.1364  1.1052
   24CHL1  H21A 2935   4.715   1.842   5.660 -0.0869 -0.3952  2.4761
   24CHL1  H21B 2936   4.633   2.009   5.673 -0.4075 -0.6657  2.5256
   24CHL1  H21C 2937   4.756   1.954   5.787  2.9609  1.2390  0.4044
   24CHL1   C22 2938   4.845   1.949   5.448 -0.1695  0.1053 -0.4878
   24CHL1  H22A 2939   4.925   2.006   5.395  0.3061 -1.2280 -1.2421
   24CHL1  H22B 2940   4.879   1.844   5.456 -2.8875 -0.8258 -0.2631
   24CHL1   C23 2941   4.714   1.957   5.377  0.5299  0.3921 -0.2134
   24CHL1  H23A 2942   4.646   1.886   5.430 -0.5920  0.2084 -1.8306
   24CHL1  H23B 2943   4.666   2.057   5.376 -0.4538 -0.0473 -2.0065
   24CHL1   C24 2944   4.703   1.915   5.221  0.9383  0.1786  0.5317
   24CHL1  H24A 2945   4.751   2.000   5.168  0.6932 -0.3475 -0.5581
   24CHL1  H24B 2946   4.753   1.817   5.204 -2.0260 -1.5376  0.9580
   24CHL1   C25 2947   4.563   1.913   5.163  0.4345 -0.6149  0.1787
   24CHL1   H25 2948   4.524   2.017   5.169 -2.7593 -1.7191  0.2375
   24CHL1   C26 2949   4.570   1.876   5.016 -0.7560 -0.4649 -0.0859
   24CHL1  H26A 2950   4.636   1.788   4.997 -1.4737 -1.6565  2.5801
   24CHL1  H26B 2951   4.472   1.854   4.969 -1.2242 -1.2996  1.2514
   24CHL1  H26C 2952   4.615   1.964   4.965 -0.5808 -0.4821  0.0389
   24CHL1   C27 2953   4.458   1.822   5.231  0.2687  0.1877 -0.3120
   24CHL1  H27A 2954   4.368   1.808   5.168 -0.6377  0.4706  0.8779
   24CHL1  H27B 2955   4.505   1.722   5.244 -0.6311  0.0045  2.1560
   24CHL1  H27C 2956   4.423   1.853   5.332 -1.8833 -1.8931 -0.3300
   25CHL1    C3 2957   6.106   3.541   6.470 -0.0098 -0.2903  0.1048
   25CHL1    H3 2958   6.197   3.478   6.455  1.1905  1.8263 -2.1576
   25CHL1    O3 2959   6.091   3.547   6.614  0.5321 -0.1053  0.5925
   25CHL1   H3' 2960   6.049   3.631   6.635  0.0185  0.4628 -2.2370
   25CHL1    C4 2961   6.141   3.681   6.404  0.3017 -0.1672 -0.4357
   25CHL1   H4A 2962   6.047   3.739   6.417  0.4074 -0.1717  0.3682
   25CHL1   H4B 2963   6.219   3.729   6.467 -2.8552  3.0367  1.3963
   25CHL1    C5 2964   6.173   3.670   6.255 -0.0883  0.6687  0.1457
   25CHL1    C6 2965   6.283   3.718   6.201 -0.1801 -0.3215  0.4137
   25CHL1    H6 2966   6.351   3.777   6.264 -0.0571 -0.3095  0.2714
   25CHL1    C7 2967   6.303   3.711   6.051 -0.0048  0.2147  0.2394
   25CHL1   H7A 2968   6.358   3.795   6.004  1.2177 -0.3222  0.6651
   25CHL1   H7B 2969   6.387   3.639   6.040  0.2978  0.5243  0.4972
   25CHL1    C8 2970   6.184   3.662   5.965 -0.1209 -0.1604 -0.1996
   25CHL1    H8 2971   6.126   3.756   5.950  1.0418  0.6522  0.2482
   25CHL1   C14 2972   6.233   3.614   5.832 -0.1767  0.3764  0.3728
   25CHL1   H14 2973   6.278   3.518   5.866 -0.3431 -0.8385 -2.5789
   25CHL1   C15 2974   6.318   3.710   5.746  0.1663 -0.1406 -0.3813
   25CHL1  H15A 2975   6.274   3.811   5.753 -0.3090 -0.3088 -0.9168
   25CHL1  H15B 2976   6.422   3.723   5.785  0.1129  0.5537 -0.4667
   25CHL1   C16 2977   6.321   3.653   5.602  0.2632  0.2699  0.7465
   25CHL1  H16A 2978   6.300   3.733   5.527  5.1590 -1.1806 -2.6536
   25CHL1  H16B 2979   6.413   3.599   5.572 -0.3974 -0.7097  0.4501
   25CHL1   C17 2980   6.209   3.542   5.600 -0.2018  0.4737 -0.3953
   25CHL1   H17 2981   6.265   3.448   5.619 -1.3694 -0.0071  0.8149
   25CHL1   C13 2982   6.124   3.568   5.727  0.8459  0.0498 -0.2602
   25CHL1   C18 2983   6.026   3.690   5.698 -0.3454 -0.1269  0.5286
   25CHL1  H18A 2984   5.960   3.659   5.614  0.0215 -3.2890  1.2740
   25CHL1  H18B 2985   5.967   3.731   5.783  1.9665  2.3842  1.0549
   25CHL1  H18C 2986   6.092   3.778   5.682  2.2135 -1.5402  2.6007
   25CHL1   C12 2987   6.045   3.457   5.787 -0.2831  0.0406  1.1010
   25CHL1  H12A 2988   5.953   3.430   5.732  1.0763 -0.5442 -0.9963
   25CHL1  H12B 2989   6.104   3.363   5.789 -0.2106  0.0966  2.1401
   25CHL1   C11 2990   6.004   3.479   5.936  0.2965  0.0807  0.0775
   25CHL1  H11A 2991   5.918   3.548   5.929  0.2806  0.0939  0.4095
   25CHL1  H11B 2992   5.970   3.378   5.968  3.5356 -0.8283  1.0540
   25CHL1    C9 2993   6.108   3.549   6.031  1.0033 -0.3833 -0.2939
   25CHL1    H9 2994   6.182   3.467   6.042 -0.4236 -1.6462  0.2169
   25CHL1   C10 2995   6.065   3.591   6.178  0.1665  0.5818 -0.3249
   25CHL1   C19 2996   5.934   3.678   6.166  0.2772  0.0996  0.0223
   25CHL1  H19A 2997   5.952   3.765   6.100 -0.6006 -0.7739 -1.4260
   25CHL1  H19B 2998   5.856   3.616   6.117  0.3874  0.3130 -0.4335
   25CHL1  H19C 2999   5.898   3.712   6.265  1.6742 -0.6289  0.8135
   25CHL1    C1 3000   6.025   3.458   6.256 -0.5597  0.7461  0.0916
   25CHL1   H1A 3001   5.933   3.422   6.206 -0.0554 -0.4679  0.0004
   25CHL1   H1B 3002   6.108   3.386   6.237  0.1751  2.4555 -4.0931
   25CHL1    C2 3003   5.991   3.472   6.403  0.3851 -0.0260 -0.3062
   25CHL1   H2A 3004   5.972   3.367   6.433 -0.5888  0.3298  0.3861
   25CHL1   H2B 3005   5.894   3.520   6.429 -0.6213 -2.9448  1.8735
   25CHL1   C20 3006   6.145   3.534   5.459 -0.2705  0.2245 -0.3768
   25CHL1   H20 3007   6.075   3.617   5.438  2.1750  2.2420 -1.0090
   25CHL1   C21 3008   6.066   3.400   5.459 -0.3779 -0.0617  0.4629
   25CHL1  H21A 3009   5.972   3.403   5.519 -1.2558 -0.6717 -0.8247
   25CHL1  H21B 3010   6.138   3.323   5.493  1.1343  1.8023  1.6691
   25CHL1  H21C 3011   6.038   3.369   5.355  0.6903  1.1459 -0.2097
   25CHL1   C22 3012   6.260   3.517   5.353 -0.1720 -0.6127 -0.3054
   25CHL1  H22A 3013   6.339   3.595   5.359 -1.5790  0.7859  1.3566
   25CHL1  H22B 3014   6.312   3.419   5.365 -0.2337 -0.3610  3.3983
   25CHL1   C23 3015   6.203   3.522   5.209 -0.0808 -0.0764 -0.5291
   25CHL1  H23A 3016   6.125   3.443   5.204 -0.2328 -0.0950  1.2975
   25CHL1  H23B 3017   6.157   3.623   5.200  0.3361  0.4084  1.9677
   25CHL1   C24 3018   6.325   3.515   5.111  0.2972 -0.3910 -0.5017
   25CHL1  H24A 3019   6.382   3.605   5.140  0.2426 -0.9461  1.4577
   25CHL1  H24B 3020   6.383   3.421   5.126  1.1670  0.3999  1.2941
   25CHL1   C25 3021   6.280   3.514   4.964  0.3614  0.1334  0.9786
   25CHL1   H25 3022   6.208   3.597   4.952  0.5750  0.4275  1.7218
   25CHL1   C26 3023   6.402   3.533   4.870  0.4433 -0.3117 -0.4709
   25CHL1  H26A 3024   6.449   3.433   4.854  2.6109  0.5700  0.0890
   25CHL1  H26B 3025   6.373   3.588   4.778 -0.3075  1.3337  0.6960
   25CHL1  H26C 3026   6.481   3.591   4.920 -1.3401  2.0387 -0.2102
   25CHL1   C27 3027   6.208   3.385   4.919 -0.2015  0.3347 -0.1650
   25CHL1  H27A 3028   6.120   3.363   4.983 -0.9828 -1.8486 -1.8666
   25CHL1  H27B 3029   6.182   3.406   4.813 -0.5694 -0.9148 -0.3481
   25CHL1  H27C 3030   6.287   3.307   4.920 -0.7944 -0.3135  2.1963
   26CHL1    C3 3031   5.617   0.386   6.585  0.5767 -0.0665 -0.5609
   26CHL1    H3 3032   5.593   0.479   6.530 -1.3924  0.3836  0.9275
   26CHL1    O3 3033   5.598   0.405   6.721 -0.1459  0.1898  0.2878
   26CHL1   H3' 3034   5.560   0.493   6.734  0.4929  0.5468 -0.2020
   26CHL1    C4 3035   5.538   0.269   6.533  0.6044 -0.5934 -0.0353
   26CHL1   H4A 3036   5.551   0.188   6.608  1.2964  0.1897  0.7033
   26CHL1   H4B 3037   5.430   0.289   6.553  0.5886 -2.0894  1.6864
   26CHL1    C5 3038   5.564   0.229   6.393 -0.3742  1.1119 -0.4225
   26CHL1    C6 3039   5.467   0.218   6.301  0.5125  0.8391 -0.7316
   26CHL1    H6 3040   5.363   0.220   6.338  0.1535 -0.7650 -1.5788
   26CHL1    C7 3041   5.493   0.173   6.158 -0.4934 -1.0125  0.3205
   26CHL1   H7A 3042   5.441   0.075   6.148 -1.6811 -0.8805  3.9414
   26CHL1   H7B 3043   5.478   0.254   6.083  2.4651  1.5446  2.2572
   26CHL1    C8 3044   5.642   0.140   6.127  0.7578 -0.0816  0.5723
   26CHL1    H8 3045   5.652   0.032   6.152  0.4750 -1.1126 -3.1785
   26CHL1   C14 3046   5.677   0.151   5.979 -0.2414  0.4372 -0.1940
   26CHL1   H14 3047   5.664   0.258   5.950  1.6952  0.6639 -0.3251
   26CHL1   C15 3048   5.583   0.075   5.886 -0.2229  0.0907  0.6852
   26CHL1  H15A 3049   5.564  -0.028   5.923  0.4067 -0.0872  0.5245
   26CHL1  H15B 3050   5.486   0.125   5.865 -1.3294 -1.7151  1.3071
   26CHL1   C16 3051   5.666   0.067   5.754 -0.1675  0.2932 -0.8289
   26CHL1  H16A 3052   5.694  -0.037   5.729  1.0737 -0.5312  3.2615
   26CHL1  H16B 3053   5.621   0.127   5.672 -2.6546  2.9917  2.1971
   26CHL1   C17 3054   5.799   0.136   5.788 -0.6519 -0.2330  0.8556
   26CHL1   H17 3055   5.784   0.245   5.776  0.5199 -0.1196  0.1762
   26CHL1   C13 3056   5.811   0.108   5.934  0.2499  0.0722  0.1860
   26CHL1   C18 3057   5.841  -0.039   5.961 -0.1351 -0.1139 -0.7266
   26CHL1  H18A 3058   5.951  -0.043   5.941 -0.2964  0.7526 -1.9703
   26CHL1  H18B 3059   5.809  -0.067   6.063 -2.9057 -0.1814 -1.5505
   26CHL1  H18C 3060   5.801  -0.119   5.895 -1.6856 -0.3775  0.4872
   26CHL1   C12 3061   5.910   0.180   6.021 -0.4884 -0.0306  0.4422
   26CHL1  H12A 3062   6.013   0.141   6.011 -0.2906  0.9445 -2.1397
   26CHL1  H12B 3063   5.910   0.288   5.995 -1.3068 -0.1449 -0.1059
   26CHL1   C11 3064   5.885   0.167   6.164  0.2804  0.4675  0.2553
   26CHL1  H11A 3065   5.890   0.059   6.190 -3.5627  0.2087  0.5175
   26CHL1  H11B 3066   5.965   0.218   6.222  0.0157 -0.1088  1.1446
   26CHL1    C9 3067   5.744   0.219   6.200  0.0460  0.0637 -0.0088
   26CHL1    H9 3068   5.743   0.325   6.169 -0.0243 -0.4199 -1.7538
   26CHL1   C10 3069   5.714   0.217   6.357  0.3683 -0.1584  1.0570
   26CHL1   C19 3070   5.782   0.089   6.422  0.1157  0.0002  0.0546
   26CHL1  H19A 3071   5.758   0.001   6.358 -0.2616 -0.1431  0.3845
   26CHL1  H19B 3072   5.892   0.095   6.428  0.2201 -1.7230  0.2652
   26CHL1  H19C 3073   5.753   0.070   6.527 -1.0837 -0.6626 -0.3796
   26CHL1    C1 3074   5.793   0.330   6.423 -0.1549  0.4116  0.2640
   26CHL1   H1A 3075   5.902   0.323   6.408 -0.0978 -1.9435  1.3984
   26CHL1   H1B 3076   5.768   0.423   6.367  0.0485 -1.2096 -2.7315
   26CHL1    C2 3077   5.771   0.347   6.569 -0.1361  0.0767 -0.5418
   26CHL1   H2A 3078   5.837   0.425   6.611  1.8931 -1.4141 -0.8424
   26CHL1   H2B 3079   5.791   0.249   6.617 -0.4737 -1.1984 -2.8824
   26CHL1   C20 3080   5.915   0.083   5.695  0.5355 -0.1473 -0.3853
   26CHL1   H20 3081   5.937  -0.023   5.722 -0.1239  0.2580  2.0179
   26CHL1   C21 3082   6.040   0.168   5.720 -0.8570  0.2112 -0.6219
   26CHL1  H21A 3083   6.117   0.139   5.645 -0.0288 -3.5833  1.4244
   26CHL1  H21B 3084   6.092   0.139   5.814  0.2151 -1.2628 -1.6178
   26CHL1  H21C 3085   6.028   0.275   5.696  0.5973  0.6286  0.3589
   26CHL1   C22 3086   5.883   0.094   5.544  0.3923  0.9082 -0.4052
   26CHL1  H22A 3087   5.778   0.061   5.527  1.2197 -1.7649 -0.7854
   26CHL1  H22B 3088   5.896   0.200   5.513  1.1547  0.4381 -1.7377
   26CHL1   C23 3089   5.963  -0.002   5.463 -0.0493  0.5706  0.2205
   26CHL1  H23A 3090   6.069   0.028   5.456 -0.2276  1.1414 -0.1283
   26CHL1  H23B 3091   5.959  -0.106   5.502  0.7559 -0.2709 -1.8125
   26CHL1   C24 3092   5.923  -0.019   5.310  0.2932 -0.3088 -0.5413
   26CHL1  H24A 3093   5.911   0.078   5.259 -3.2332  0.3236  1.1325
   26CHL1  H24B 3094   6.005  -0.072   5.258  0.1089  1.4806 -2.8028
   26CHL1   C25 3095   5.789  -0.090   5.280 -0.1948 -0.1048 -0.6222
   26CHL1   H25 3096   5.703  -0.039   5.328 -1.1595 -2.0541 -0.1733
   26CHL1   C26 3097   5.781  -0.086   5.132 -0.0302 -0.3593 -0.0072
   26CHL1  H26A 3098   5.764   0.021   5.108 -1.1894 -0.3911  0.5742
   26CHL1  H26B 3099   5.876  -0.112   5.082  0.0891 -0.2491  0.1629
   26CHL1  H26C 3100   5.699  -0.148   5.089 -1.5711  1.2382  0.5103
   26CHL1   C27 3101   5.779  -0.230   5.347 -0.0919 -0.0844 -0.2578
   26CHL1  H27A 3102   5.789  -0.207   5.455  0.5295  4.1182 -1.0639
   26CHL1  H27B 3103   5.676  -0.263   5.320 -1.4877  3.8548 -0.4363
   26CHL1  H27C 3104   5.855  -0.301   5.308 -0.2810  0.7860 -2.3279
   27CHL1    C3 3105   4.564   1.230   6.536 -1.0893  0.0234  0.0051
   27CHL1    H3 3106   4.485   1.300   6.501 -1.0641 -0.0237 -0.1464
   27CHL1    O3 3107   4.562   1.247   6.678  0.8450 -0.1745  0.5971
   27CHL1   H3' 3108   4.654   1.269   6.696  0.6015  1.2586  0.2110
   27CHL1    C4 3109   4.541   1.078   6.504 -0.5129 -0.1438  1.0074
   27CHL1   H4A 3110   4.614   1.016   6.561 -1.1817 -2.0068 -0.0675
   27CHL1   H4B 3111   4.443   1.056   6.552 -0.6504 -2.3320 -0.1186
   27CHL1    C5 3112   4.540   1.043   6.358 -0.9722 -0.3930 -0.2620
   27CHL1    C6 3113   4.434   0.982   6.308 -0.2859  1.0004  0.1202
   27CHL1    H6 3114   4.345   0.974   6.372 -1.3631 -1.4766 -1.5480
   27CHL1    C7 3115   4.420   0.961   6.159 -0.4936  0.4860  0.8337
   27CHL1   H7A 3116   4.392   0.857   6.130 -0.8699  0.7737  0.1282
   27CHL1   H7B 3117   4.342   1.027   6.114  0.7959  1.0110 -0.7233
   27CHL1    C8 3118   4.547   0.980   6.080 -0.5243 -0.6357 -0.4280
   27CHL1    H8 3119   4.608   0.889   6.099 -1.1668 -1.2305 -1.1127
   27CHL1   C14 3120   4.517   0.983   5.934 -0.3039 -0.9999  0.0228
   27CHL1   H14 3121   4.438   1.061   5.926  0.1464 -0.7476 -2.9267
   27CHL1   C15 3122   4.454   0.860   5.876 -0.0365  0.5177  0.0206
   27CHL1  H15A 3123   4.488   0.763   5.919 -0.1559  0.6290  0.3739
   27CHL1  H15B 3124   4.345   0.871   5.892 -0.0164 -0.8318  1.3813
   27CHL1   C16 3125   4.479   0.877   5.728 -0.1098 -0.2602  0.2874
   27CHL1  H16A 3126   4.526   0.780   5.704  1.1664  0.1523  1.0068
   27CHL1  H16B 3127   4.383   0.886   5.673 -0.6463  0.3144  1.2773
   27CHL1   C17 3128   4.572   1.005   5.708  0.2011  0.4073  0.0243
   27CHL1   H17 3129   4.518   1.101   5.692  0.9026  1.2509  2.3147
   27CHL1   C13 3130   4.642   1.022   5.843  0.6571 -1.1602 -0.3430
   27CHL1   C18 3131   4.761   0.928   5.862  0.5514 -0.1821  1.0983
   27CHL1  H18A 3132   4.850   0.966   5.808 -1.4908  0.9157 -1.7838
   27CHL1  H18B 3133   4.777   0.894   5.966  0.4281  0.1577  1.2291
   27CHL1  H18C 3134   4.732   0.829   5.820 -1.1040  0.2629  1.1083
   27CHL1   C12 3135   4.678   1.168   5.890 -0.2956  0.5394  0.6533
   27CHL1  H12A 3136   4.761   1.209   5.829 -0.2690 -2.4748 -1.5785
   27CHL1  H12B 3137   4.588   1.233   5.897 -1.0846 -0.4783  0.3224
   27CHL1   C11 3138   4.724   1.163   6.035 -0.6470 -0.1871  0.2862
   27CHL1  H11A 3139   4.822   1.111   6.048 -0.2883  0.6421  1.0181
   27CHL1  H11B 3140   4.745   1.267   6.070  0.3431 -0.5430  0.8047
   27CHL1    C9 3141   4.615   1.113   6.131 -0.6279  0.4311  0.7179
   27CHL1    H9 3142   4.534   1.188   6.121 -0.1211  0.7378 -1.6225
   27CHL1   C10 3143   4.652   1.110   6.282 -0.0494 -0.6403  0.7008
   27CHL1   C19 3144   4.778   1.020   6.296 -0.4179  0.6468 -0.6313
   27CHL1  H19A 3145   4.752   0.916   6.266 -1.4202  0.5293  0.5652
   27CHL1  H19B 3146   4.863   1.057   6.235 -0.4447 -1.6361 -2.1739
   27CHL1  H19C 3147   4.820   1.015   6.399  0.2933  0.7201 -0.9086
   27CHL1    C1 3148   4.686   1.255   6.323 -0.3538 -0.9873 -0.3194
   27CHL1   H1A 3149   4.779   1.295   6.277 -0.8852 -0.5164 -1.0246
   27CHL1   H1B 3150   4.605   1.321   6.283  0.4738 -1.2225 -2.5129
   27CHL1    C2 3151   4.693   1.281   6.477 -0.5161  0.2950 -0.0791
   27CHL1   H2A 3152   4.719   1.385   6.509 -0.8887  0.9084 -1.6369
   27CHL1   H2B 3153   4.781   1.219   6.506 -0.9739 -0.5573 -0.4908
   27CHL1   C20 3154   4.662   0.994   5.583  0.3565 -0.1756  1.0292
   27CHL1   H20 3155   4.734   0.909   5.590  3.2003  2.0988  1.6825
   27CHL1   C21 3156   4.750   1.122   5.561 -0.3395 -0.2261 -0.3632
   27CHL1  H21A 3157   4.857   1.104   5.587 -0.8686 -2.3189  0.5919
   27CHL1  H21B 3158   4.703   1.208   5.613 -2.7245 -0.3187 -2.1622
   27CHL1  H21C 3159   4.744   1.138   5.451 -0.0756 -2.0022 -0.6632
   27CHL1   C22 3160   4.566   0.982   5.456 -0.1232 -0.2506 -0.9249
   27CHL1  H22A 3161   4.627   0.956   5.366  1.0185 -1.2232  0.0856
   27CHL1  H22B 3162   4.503   0.892   5.473 -0.1981 -0.6522 -3.0594
   27CHL1   C23 3163   4.459   1.086   5.437  0.4501 -0.6649  0.5279
   27CHL1  H23A 3164   4.391   1.088   5.526  0.8266 -0.4583  0.8166
   27CHL1  H23B 3165   4.501   1.189   5.427  1.1822 -1.1252 -1.5218
   27CHL1   C24 3166   4.368   1.064   5.311  0.6028 -0.1946 -0.6062
   27CHL1  H24A 3167   4.303   0.974   5.313 -0.1611  0.3140 -1.7097
   27CHL1  H24B 3168   4.298   1.150   5.299  2.7621  1.7961  0.2863
   27CHL1   C25 3169   4.443   1.057   5.177 -0.3430 -0.0925  0.5754
   27CHL1   H25 3170   4.494   0.958   5.177 -1.2609 -0.5829  1.1241
   27CHL1   C26 3171   4.344   1.069   5.064 -0.4666  0.2198  0.7549
   27CHL1  H26A 3172   4.382   1.050   4.962 -0.6486 -0.6116  0.8294
   27CHL1  H26B 3173   4.262   0.996   5.081  0.4370 -1.0768 -0.2669
   27CHL1  H26C 3174   4.306   1.173   5.058 -0.5091  0.1922  0.5229
   27CHL1   C27 3175   4.552   1.162   5.155 -0.1307 -0.0339 -0.2603
   27CHL1  H27A 3176   4.500   1.260   5.157  1.8005  1.0349  0.9107
   27CHL1  H27B 3177   4.593   1.155   5.052 -4.1431 -0.2584 -2.0099
   27CHL1  H27C 3178   4.618   1.176   5.243 -0.7121  1.3834 -0.0311
   28CHL1    C3 3179   0.157   1.433   6.430 -0.0135  0.4203 -0.2098
   28CHL1    H3 3180   0.048   1.411   6.420 -0.1446  0.6211  0.6898
   28CHL1    O3 3181   0.178   1.446   6.577 -0.4140 -0.0709  0.7403
   28CHL1   H3' 3182   0.151   1.362   6.615 -0.3714 -0.8578 -0.8631
   28CHL1    C4 3183   0.243   1.326   6.387  0.3159  0.2178  0.2225
   28CHL1   H4A 3184   0.347   1.353   6.415  0.2919  1.5908 -0.9355
   28CHL1   H4B 3185   0.234   1.232   6.446  1.7146 -0.8787 -1.2218
   28CHL1    C5 3186   0.226   1.301   6.240  0.2940  0.4409  0.2721
   28CHL1    C6 3187   0.170   1.185   6.202  0.0445  0.5673 -0.0452
   28CHL1    H6 3188   0.143   1.114   6.281 -1.0933  1.1527  0.1108
   28CHL1    C7 3189   0.167   1.139   6.053  0.5747 -0.2826 -0.0843
   28CHL1   H7A 3190   0.216   1.039   6.048  3.4006  0.9870  0.6161
   28CHL1   H7B 3191   0.061   1.147   6.020 -0.3648 -1.8676  2.2053
   28CHL1    C8 3192   0.251   1.234   5.961 -0.8550 -0.3204 -0.7821
   28CHL1    H8 3193   0.358   1.217   5.987  0.4956  3.5570 -3.0207
   28CHL1   C14 3194   0.221   1.214   5.817  0.8799  0.2411 -0.2785
   28CHL1   H14 3195   0.114   1.244   5.811  0.3719 -1.1869  0.9224
   28CHL1   C15 3196   0.221   1.074   5.759  0.0255  0.0999  0.6121
   28CHL1  H15A 3197   0.314   1.038   5.809 -0.9852  1.0711  3.4356
   28CHL1  H15B 3198   0.139   1.006   5.792  1.7547 -1.4678  1.9087
   28CHL1   C16 3199   0.238   1.087   5.612 -0.6649 -0.0490  0.2245
   28CHL1  H16A 3200   0.325   1.026   5.579  0.0705  1.0764  0.0108
   28CHL1  H16B 3201   0.152   1.051   5.552 -0.6312 -0.0262  0.1622
   28CHL1   C17 3202   0.266   1.238   5.587  0.1305 -0.1538 -0.1877
   28CHL1   H17 3203   0.171   1.287   5.557 -0.4390 -1.0220  0.1745
   28CHL1   C13 3204   0.310   1.291   5.726 -0.0364  0.4413 -0.4322
   28CHL1   C18 3205   0.462   1.268   5.738 -0.5169  0.2688  0.1189
   28CHL1  H18A 3206   0.487   1.168   5.698  0.8949  0.6206  0.0832
   28CHL1  H18B 3207   0.514   1.347   5.680 -1.2551  1.1037  0.5617
   28CHL1  H18C 3208   0.487   1.272   5.846 -0.6404  2.3287  0.1050
   28CHL1   C12 3209   0.284   1.442   5.754  0.1833  0.1450  0.6342
   28CHL1  H12A 3210   0.350   1.502   5.687  0.2782 -2.0428 -1.3522
   28CHL1  H12B 3211   0.181   1.447   5.714  1.2049 -0.2084 -2.2553
   28CHL1   C11 3212   0.309   1.482   5.901 -0.5664 -0.1521  0.2318
   28CHL1  H11A 3213   0.417   1.473   5.924 -0.5782 -0.0448  0.3339
   28CHL1  H11B 3214   0.277   1.589   5.904 -1.9760 -0.5410 -0.0224
   28CHL1    C9 3215   0.240   1.384   5.998  0.2151 -0.2985  0.0497
   28CHL1    H9 3216   0.130   1.398   5.996  0.2785  1.3892  2.8442
   28CHL1   C10 3217   0.268   1.410   6.151  0.1112  0.2263 -0.0698
   28CHL1   C19 3218   0.419   1.432   6.167  0.2111  0.1321  0.8209
   28CHL1  H19A 3219   0.475   1.337   6.152 -0.2212  0.0549 -0.3301
   28CHL1  H19B 3220   0.457   1.522   6.114 -1.6151 -0.0522 -0.8898
   28CHL1  H19C 3221   0.452   1.458   6.271  0.9241  0.2014  0.5868
   28CHL1    C1 3222   0.188   1.532   6.201 -0.3096  0.1637  1.4860
   28CHL1   H1A 3223   0.223   1.618   6.140 -0.3608 -1.2558 -0.6605
   28CHL1   H1B 3224   0.078   1.523   6.187 -0.3105  2.1174 -0.3163
   28CHL1    C2 3225   0.188   1.562   6.353 -0.1321  0.3283  0.5976
   28CHL1   H2A 3226   0.122   1.646   6.383  0.2327  1.2141 -0.9931
   28CHL1   H2B 3227   0.291   1.578   6.392 -0.4123 -0.8487  1.9060
   28CHL1   C20 3228   0.357   1.261   5.464  0.4226  0.5697  1.0535
   28CHL1   H20 3229   0.456   1.214   5.480  0.2347 -1.0014 -1.6904
   28CHL1   C21 3230   0.383   1.414   5.436 -0.6718  0.2463 -0.2047
   28CHL1  H21A 3231   0.287   1.468   5.428 -0.6401  0.5236  1.1911
   28CHL1  H21B 3232   0.424   1.433   5.334 -1.0075 -1.1705 -0.6259
   28CHL1  H21C 3233   0.446   1.467   5.510 -0.2420 -2.3072  1.3758
   28CHL1   C22 3234   0.297   1.194   5.338  0.1436 -0.2132  0.6347
   28CHL1  H22A 3235   0.371   1.204   5.256 -0.4563  0.2610  0.1508
   28CHL1  H22B 3236   0.295   1.084   5.358 -0.8636 -0.2115  0.5851
   28CHL1   C23 3237   0.156   1.240   5.292 -0.0242  0.3685  0.9572
   28CHL1  H23A 3238   0.080   1.230   5.373 -0.7002  1.3485  0.4538
   28CHL1  H23B 3239   0.161   1.345   5.258 -2.3390  0.4568  0.7307
   28CHL1   C24 3240   0.110   1.148   5.183 -0.2275  0.3721  0.0828
   28CHL1  H24A 3241   0.131   1.040   5.199 -1.7323  0.0144 -0.2236
   28CHL1  H24B 3242  -0.001   1.147   5.175 -0.2677 -0.3605  0.5975
   28CHL1   C25 3243   0.168   1.176   5.044 -0.0733 -0.4083  0.3137
   28CHL1   H25 3244   0.279   1.188   5.049 -0.3212  1.7218  1.8540
   28CHL1   C26 3245   0.125   1.077   4.935 -0.1620  0.5402 -0.5006
   28CHL1  H26A 3246   0.154   1.092   4.829 -0.0820 -0.7602 -0.6801
   28CHL1  H26B 3247   0.161   0.974   4.955 -1.4126  0.3723  1.1217
   28CHL1  H26C 3248   0.017   1.054   4.937  0.1506 -1.0368 -0.6111
   28CHL1   C27 3249   0.120   1.311   4.985 -0.2914 -0.4082 -0.0404
   28CHL1  H27A 3250   0.162   1.320   4.883  2.8955  0.7122  1.2343
   28CHL1  H27B 3251   0.008   1.313   4.988 -0.4421 -1.6009 -2.5014
   28CHL1  H27C 3252   0.164   1.400   5.035  0.6895  1.7838 -4.3418
   29CHL1    C3 3253   3.910   1.707   6.770 -0.0409 -0.1516 -0.6761
   29CHL1    H3 3254   3.974   1.628   6.725  0.2526  0.7933 -1.9891
   29CHL1    O3 3255   3.913   1.707   6.912  0.2562  0.1546 -0.6478
   29CHL1   H3' 3256   3.841   1.766   6.938 -0.0691 -0.7566  0.6226
   29CHL1    C4 3257   3.944   1.847   6.712  0.5901  0.2461  0.7262
   29CHL1   H4A 3258   3.888   1.929   6.761 -0.3881 -0.7855  1.3875
   29CHL1   H4B 3259   4.047   1.870   6.745  0.9912 -0.5956  0.0922
   29CHL1    C5 3260   3.940   1.845   6.561  0.3138  0.1662 -0.1812
   29CHL1    C6 3261   4.041   1.862   6.480  0.4854  0.4672 -0.0720
   29CHL1    H6 3262   4.146   1.882   6.505  1.2474 -2.3725 -0.6227
   29CHL1    C7 3263   4.031   1.873   6.330  0.1819  0.7227  0.5811
   29CHL1   H7A 3264   4.098   1.953   6.292  1.5677 -1.8497 -3.0336
   29CHL1   H7B 3265   4.072   1.782   6.281  1.1890  0.5163  1.7620
   29CHL1    C8 3266   3.891   1.885   6.284  0.8842  0.2333 -0.1015
   29CHL1    H8 3267   3.866   1.992   6.302 -0.0108 -0.1944  1.3387
   29CHL1   C14 3268   3.883   1.860   6.135 -0.3866  0.1297 -0.1908
   29CHL1   H14 3269   3.903   1.753   6.116  0.0744  0.1309  0.2766
   29CHL1   C15 3270   3.988   1.923   6.044 -0.1158  0.1774 -0.4329
   29CHL1  H15A 3271   3.999   2.032   6.061 -3.1728  0.1742  2.8809
   29CHL1  H15B 3272   4.086   1.874   6.064 -0.1624 -0.1476 -0.9973
   29CHL1   C16 3273   3.930   1.893   5.904 -0.5339  0.8177 -0.5883
   29CHL1  H16A 3274   3.933   1.998   5.867 -0.7268  1.2934  0.7182
   29CHL1  H16B 3275   3.997   1.824   5.847 -0.1027  0.7413  0.0021
   29CHL1   C17 3276   3.783   1.845   5.923 -0.5746  0.4024 -0.2740
   29CHL1   H17 3277   3.782   1.735   5.916 -0.2131  0.2262  1.8110
   29CHL1   C13 3278   3.745   1.879   6.068 -1.1471  0.3489  1.1348
   29CHL1   C18 3279   3.688   2.018   6.069  0.1036 -0.5121 -0.4419
   29CHL1  H18A 3280   3.668   2.054   6.172 -2.6625 -0.7113 -0.8283
   29CHL1  H18B 3281   3.755   2.094   6.024 -0.0662 -0.7047 -1.0344
   29CHL1  H18C 3282   3.589   2.011   6.017  0.7012 -0.9030 -1.5573
   29CHL1   C12 3283   3.651   1.779   6.143  0.2732  0.3141  1.1985
   29CHL1  H12A 3284   3.554   1.793   6.091  1.5644  1.1585 -1.1630
   29CHL1  H12B 3285   3.691   1.676   6.130 -2.4791 -1.0112  2.4020
   29CHL1   C11 3286   3.644   1.803   6.295 -0.1968  0.2427  0.6163
   29CHL1  H11A 3287   3.612   1.908   6.311  0.7055  0.6281 -0.0358
   29CHL1  H11B 3288   3.572   1.731   6.339 -0.2820  0.8314  1.4711
   29CHL1    C9 3289   3.788   1.795   6.355 -0.4439 -0.6954 -1.1498
   29CHL1    H9 3290   3.816   1.691   6.327  1.9325 -0.6729  0.7279
   29CHL1   C10 3291   3.798   1.811   6.511 -0.2842  0.3746  0.6309
   29CHL1   C19 3292   3.699   1.920   6.549  0.2517  0.1291 -1.1944
   29CHL1  H19A 3293   3.593   1.900   6.521 -0.1378  0.0818  0.2376
   29CHL1  H19B 3294   3.697   1.938   6.658 -0.8518  1.0748 -1.3446
   29CHL1  H19C 3295   3.726   2.019   6.506 -0.2418  0.4141 -0.8543
   29CHL1    C1 3296   3.756   1.680   6.579  0.3150 -0.0161 -0.3923
   29CHL1   H1A 3297   3.646   1.669   6.566  0.6572 -1.2882 -2.6338
   29CHL1   H1B 3298   3.801   1.596   6.523 -1.1913 -0.3012 -1.2115
   29CHL1    C2 3299   3.771   1.663   6.728  0.3637 -0.0212 -1.0276
   29CHL1   H2A 3300   3.752   1.559   6.763 -0.2249  0.8364  1.4375
   29CHL1   H2B 3301   3.701   1.737   6.773 -0.5216 -1.4656  0.0493
   29CHL1   C20 3302   3.698   1.891   5.800  1.0976  0.0776 -0.4706
   29CHL1   H20 3303   3.685   2.002   5.798  2.8664  0.3103 -1.2537
   29CHL1   C21 3304   3.559   1.826   5.799  0.1843  0.2038  0.2144
   29CHL1  H21A 3305   3.477   1.864   5.734 -1.7963 -1.4163  1.6105
   29CHL1  H21B 3306   3.507   1.840   5.896  0.4708 -1.3427  0.6162
   29CHL1  H21C 3307   3.568   1.716   5.789 -1.5908 -0.1910  2.2723
   29CHL1   C22 3308   3.774   1.857   5.670  0.2018  0.4816  0.6024
   29CHL1  H22A 3309   3.857   1.930   5.661  2.4599 -2.0987 -1.3926
   29CHL1  H22B 3310   3.823   1.758   5.688  1.1770  1.0866  1.3965
   29CHL1   C23 3311   3.697   1.850   5.535  0.5481 -0.8039 -0.1980
   29CHL1  H23A 3312   3.621   1.770   5.548 -0.1720  0.0830  1.3160
   29CHL1  H23B 3313   3.644   1.947   5.528  0.7388 -0.6593  0.3258
   29CHL1   C24 3314   3.772   1.840   5.401 -0.6830  0.5239 -0.2172
   29CHL1  H24A 3315   3.832   1.933   5.392  1.1942 -0.5896  0.3219
   29CHL1  H24B 3316   3.837   1.751   5.406  1.7996  2.3017  1.8225
   29CHL1   C25 3317   3.667   1.810   5.274 -0.3960  0.3171 -0.4741
   29CHL1   H25 3318   3.579   1.753   5.310 -1.2652  1.7777 -0.2370
   29CHL1   C26 3319   3.613   1.945   5.226 -0.4154  0.1049 -0.5080
   29CHL1  H26A 3320   3.517   1.934   5.172 -0.5167  0.9048 -0.4990
   29CHL1  H26B 3321   3.604   2.012   5.314  0.6983  0.6179 -0.7564
   29CHL1  H26C 3322   3.699   1.987   5.169 -1.6954  1.2261 -1.6892
   29CHL1   C27 3323   3.732   1.721   5.167  0.0266  0.7059  0.1739
   29CHL1  H27A 3324   3.667   1.645   5.119 -0.1561 -1.0363  2.9821
   29CHL1  H27B 3325   3.790   1.776   5.089  1.0610 -0.0426  0.3913
   29CHL1  H27C 3326   3.809   1.652   5.207 -0.4361 -1.0137 -1.7743
   30CHL1    C3 3327   4.256   3.061   6.322  0.0910  0.3386  0.6479
   30CHL1    H3 3328   4.306   2.962   6.312 -0.4784  0.1872 -1.0550
   30CHL1    O3 3329   4.248   3.110   6.455 -0.3060 -0.2750 -0.2277
   30CHL1   H3' 3330   4.332   3.088   6.496 -0.9454 -0.8616  0.8066
   30CHL1    C4 3331   4.338   3.165   6.244  0.2806 -1.2973 -0.9915
   30CHL1   H4A 3332   4.300   3.267   6.263  2.0639 -0.5873 -1.0384
   30CHL1   H4B 3333   4.438   3.166   6.292 -0.6411  2.0218  1.2369
   30CHL1    C5 3334   4.347   3.136   6.094 -0.0102  0.1173 -0.3191
   30CHL1    C6 3335   4.466   3.125   6.038  0.9247  0.2606 -0.2793
   30CHL1    H6 3336   4.553   3.149   6.101 -0.5571  1.2823  1.4555
   30CHL1    C7 3337   4.483   3.089   5.891 -0.1454 -0.5928  0.2906
   30CHL1   H7A 3338   4.552   3.158   5.838 -0.4870 -1.1295 -0.8729
   30CHL1   H7B 3339   4.525   2.987   5.876  1.9088  0.5651 -2.8942
   30CHL1    C8 3340   4.345   3.111   5.816 -0.4993  0.2221 -0.3196
   30CHL1    H8 3341   4.331   3.220   5.797 -3.5389 -0.0190  0.1116
   30CHL1   C14 3342   4.359   3.047   5.679  0.3256  0.2801  0.1250
   30CHL1   H14 3343   4.361   2.939   5.702  0.2978  0.2402 -0.0585
   30CHL1   C15 3344   4.485   3.074   5.598  0.0911  0.2114  0.1222
   30CHL1  H15A 3345   4.511   3.181   5.600 -0.3348  0.3707 -1.6518
   30CHL1  H15B 3346   4.574   3.011   5.618 -0.6641 -0.8194  0.3479
   30CHL1   C16 3347   4.434   3.059   5.449  0.6250 -0.7527  0.2640
   30CHL1  H16A 3348   4.429   3.157   5.396 -2.4846 -1.8284 -1.8026
   30CHL1  H16B 3349   4.494   2.979   5.401  1.6260  0.5896 -0.8065
   30CHL1   C17 3350   4.291   2.996   5.465  0.4659 -0.7795 -0.4716
   30CHL1   H17 3351   4.318   2.892   5.495  1.1590  0.4056  3.8042
   30CHL1   C13 3352   4.233   3.059   5.599 -0.4026  0.0418 -0.0494
   30CHL1   C18 3353   4.195   3.207   5.572  0.1352 -0.9391  0.7237
   30CHL1  H18A 3354   4.115   3.206   5.494  0.9375 -3.1391 -0.1454
   30CHL1  H18B 3355   4.174   3.273   5.658  1.2777 -0.1921  0.4527
   30CHL1  H18C 3356   4.279   3.253   5.515  0.5719 -0.2176  1.9081
   30CHL1   C12 3357   4.113   2.984   5.664 -0.6182 -0.2104  0.0592
   30CHL1  H12A 3358   4.026   2.990   5.596 -0.7484 -2.2971 -0.0367
   30CHL1  H12B 3359   4.119   2.874   5.675 -0.0496 -0.3342 -1.3450
   30CHL1   C11 3360   4.093   3.043   5.806  0.0706  0.9216  0.2400
   30CHL1  H11A 3361   4.068   3.150   5.790  0.5391  0.6863 -2.5776
   30CHL1  H11B 3362   4.010   2.998   5.865 -0.3120  1.0336 -0.2123
   30CHL1    C9 3363   4.229   3.050   5.887 -0.6436 -0.1293 -0.2975
   30CHL1    H9 3364   4.260   2.943   5.894  0.2333 -0.0038 -1.7857
   30CHL1   C10 3365   4.213   3.107   6.031  0.5306  0.5202 -0.0453
   30CHL1   C19 3366   4.145   3.245   6.010  0.7968  0.4742 -0.1154
   30CHL1  H19A 3367   4.038   3.226   5.989  0.1612  0.5238  2.7940
   30CHL1  H19B 3368   4.143   3.311   6.099  4.7300 -1.2627  1.5110
   30CHL1  H19C 3369   4.210   3.290   5.932  2.0328  2.1796  1.7943
   30CHL1    C1 3370   4.116   3.019   6.118 -0.6008 -0.5459  0.1730
   30CHL1   H1A 3371   4.012   3.008   6.079 -1.5084 -0.1625  2.3449
   30CHL1   H1B 3372   4.165   2.920   6.112  0.4828 -0.0333  0.4101
   30CHL1    C2 3373   4.112   3.051   6.264  0.2323 -0.4693  0.0247
   30CHL1   H2A 3374   4.057   2.975   6.323  1.9623 -1.1882  0.7698
   30CHL1   H2B 3375   4.057   3.147   6.282 -1.2067 -0.5556 -3.1427
   30CHL1   C20 3376   4.198   2.998   5.342 -0.1716 -0.4992  0.0432
   30CHL1   H20 3377   4.092   2.993   5.372 -0.0677  2.4272  1.2567
   30CHL1   C21 3378   4.243   2.868   5.257  1.1814  0.3070 -0.2465
   30CHL1  H21A 3379   4.354   2.871   5.254  1.1627  1.3265 -0.3744
   30CHL1  H21B 3380   4.206   2.861   5.152  0.3637  0.0127  0.0515
   30CHL1  H21C 3381   4.213   2.771   5.302  1.7273  0.5791  0.7216
   30CHL1   C22 3382   4.209   3.119   5.241  0.1113 -0.1721 -0.5579
   30CHL1  H22A 3383   4.209   3.216   5.296  0.6158 -0.0831 -0.7009
   30CHL1  H22B 3384   4.312   3.117   5.197  0.3914  0.1665  0.0694
   30CHL1   C23 3385   4.105   3.132   5.139 -0.1232  0.0381  0.7062
   30CHL1  H23A 3386   4.143   3.193   5.054  1.6004 -1.4215  0.3731
   30CHL1  H23B 3387   4.089   3.042   5.075  0.8944  0.2653  0.1067
   30CHL1   C24 3388   3.978   3.188   5.198 -0.2336  0.1929  0.1593
   30CHL1  H24A 3389   3.940   3.118   5.276  0.3356 -0.9882 -0.5832
   30CHL1  H24B 3390   4.004   3.287   5.241  0.0715  0.9787 -1.7280
   30CHL1   C25 3391   3.847   3.204   5.103 -1.1068  0.8986  0.7075
   30CHL1   H25 3392   3.770   3.246   5.170 -0.6156 -0.0426  1.9099
   30CHL1   C26 3393   3.876   3.303   4.997 -0.6355 -0.4800  0.0671
   30CHL1  H26A 3394   3.910   3.404   5.028 -0.0257  0.1222 -2.3008
   30CHL1  H26B 3395   3.956   3.267   4.929 -2.0456  1.2735 -2.7263
   30CHL1  H26C 3396   3.783   3.317   4.938  0.6063  0.3289 -1.8114
   30CHL1   C27 3397   3.787   3.071   5.047  0.6417 -0.0764 -0.4557
   30CHL1  H27A 3398   3.684   3.093   5.011 -0.1548 -0.3272  1.5335
   30CHL1  H27B 3399   3.857   3.039   4.967  1.6557  2.6715 -0.7542
   30CHL1  H27C 3400   3.789   3.007   5.138  0.0229  2.0370  1.1200
   31CHL1    C3 3401   4.550   2.618   6.580  0.3852 -0.8215 -0.1386
   31CHL1    H3 3402   4.491   2.525   6.590 -1.2244  0.0967 -0.8114
   31CHL1    O3 3403   4.588   2.670   6.711  0.7340 -0.3918 -0.1930
   31CHL1   H3' 3404   4.596   2.764   6.692 -0.6323 -0.5535 -1.7369
   31CHL1    C4 3405   4.685   2.595   6.495 -0.2108 -0.1997  0.0736
   31CHL1   H4A 3406   4.741   2.685   6.527 -3.8985  2.5162 -0.4614
   31CHL1   H4B 3407   4.726   2.508   6.550 -0.9736 -0.9726 -0.5389
   31CHL1    C5 3408   4.667   2.577   6.341 -0.4032  0.0875 -0.2048
   31CHL1    C6 3409   4.729   2.473   6.285  0.0438 -0.1922 -0.5285
   31CHL1    H6 3410   4.794   2.410   6.349 -1.7730 -0.3291  1.3088
   31CHL1    C7 3411   4.712   2.440   6.139  0.0398 -0.0778  0.6011
   31CHL1   H7A 3412   4.818   2.434   6.106 -0.1025  0.2418  0.0816
   31CHL1   H7B 3413   4.668   2.339   6.124  0.0913  0.1526 -1.2373
   31CHL1    C8 3414   4.640   2.548   6.052 -0.1755  0.0696 -0.7969
   31CHL1    H8 3415   4.711   2.632   6.039  0.0047  0.0563  0.0214
   31CHL1   C14 3416   4.589   2.491   5.918  1.0638 -0.1307 -0.4877
   31CHL1   H14 3417   4.512   2.415   5.943 -1.8502  2.0610 -2.1557
   31CHL1   C15 3418   4.689   2.413   5.833 -0.2039 -0.4575  0.1232
   31CHL1  H15A 3419   4.777   2.480   5.821  0.5655 -1.4404  0.1441
   31CHL1  H15B 3420   4.706   2.311   5.872 -0.4493 -0.9119 -0.9347
   31CHL1   C16 3421   4.614   2.402   5.701 -0.6912  0.5652 -0.7703
   31CHL1  H16A 3422   4.687   2.432   5.623 -0.1041  1.0937 -0.0216
   31CHL1  H16B 3423   4.555   2.311   5.675  1.1773 -1.1688  0.7325
   31CHL1   C17 3424   4.492   2.499   5.707 -0.2236 -0.1700  0.0447
   31CHL1   H17 3425   4.407   2.437   5.741  0.4948 -3.1657 -3.0970
   31CHL1   C13 3426   4.528   2.597   5.824  0.4021 -0.2071 -0.1306
   31CHL1   C18 3427   4.614   2.709   5.783  0.0040 -0.1863  0.1607
   31CHL1  H18A 3428   4.556   2.786   5.728  2.8343  0.3593 -2.2843
   31CHL1  H18B 3429   4.674   2.758   5.863  1.6210 -1.2106 -0.3828
   31CHL1  H18C 3430   4.678   2.664   5.704 -0.0494  1.0048 -0.5789
   31CHL1   C12 3431   4.403   2.651   5.894 -0.5880 -0.0599 -0.4195
   31CHL1  H12A 3432   4.353   2.736   5.843 -2.5907 -0.3923  0.8753
   31CHL1  H12B 3433   4.331   2.567   5.907  0.8754 -0.9180  4.2290
   31CHL1   C11 3434   4.444   2.713   6.038 -0.7071 -0.0012  0.0159
   31CHL1  H11A 3435   4.500   2.809   6.030  0.6389 -0.5715  1.9223
   31CHL1  H11B 3436   4.348   2.737   6.087 -0.3966 -1.7342  1.6135
   31CHL1    C9 3437   4.522   2.609   6.124  1.1504 -0.5479  0.6495
   31CHL1    H9 3438   4.455   2.524   6.150  1.4236 -0.4099  1.8457
   31CHL1   C10 3439   4.568   2.664   6.270  0.2019 -0.0692 -0.1924
   31CHL1   C19 3440   4.625   2.807   6.254 -0.5633  0.3364 -0.3378
   31CHL1  H19A 3441   4.543   2.880   6.234 -0.6630  0.9427  2.0858
   31CHL1  H19B 3442   4.681   2.835   6.345  0.6967 -1.8074 -0.3939
   31CHL1  H19C 3443   4.700   2.795   6.173  0.8754  0.6239  0.9127
   31CHL1    C1 3444   4.442   2.665   6.361 -0.3516  1.0295  0.0637
   31CHL1   H1A 3445   4.364   2.730   6.315  0.8236  1.2221 -1.8013
   31CHL1   H1B 3446   4.401   2.562   6.364  0.3048  0.7899  2.5728
   31CHL1    C2 3447   4.459   2.713   6.501 -0.0932 -0.0360  0.0095
   31CHL1   H2A 3448   4.364   2.714   6.559 -0.2988 -1.2492 -0.2687
   31CHL1   H2B 3449   4.504   2.814   6.509 -0.9551  0.3708 -0.1586
   31CHL1   C20 3450   4.449   2.557   5.566 -0.1129  0.0301 -0.2978
   31CHL1   H20 3451   4.504   2.645   5.529  1.1390 -0.9359 -0.8080
   31CHL1   C21 3452   4.302   2.606   5.577 -0.0158 -0.7177  0.3356
   31CHL1  H21A 3453   4.239   2.515   5.586 -0.7695 -0.1689  0.7243
   31CHL1  H21B 3454   4.272   2.652   5.481  1.5408  0.4629  0.3725
   31CHL1  H21C 3455   4.279   2.667   5.667 -1.3545 -1.8798  0.8084
   31CHL1   C22 3456   4.468   2.452   5.453 -0.3222 -0.4467  0.2245
   31CHL1  H22A 3457   4.576   2.433   5.435 -0.3441 -0.4643  0.1096
   31CHL1  H22B 3458   4.411   2.358   5.465  0.6214 -1.1235 -0.5284
   31CHL1   C23 3459   4.405   2.499   5.320  0.4823 -0.2836 -0.6423
   31CHL1  H23A 3460   4.295   2.506   5.333  0.5287 -0.3897 -0.1787
   31CHL1  H23B 3461   4.451   2.598   5.301  2.1696 -0.3917  2.2665
   31CHL1   C24 3462   4.444   2.410   5.200  0.9257 -0.1000 -0.6608
   31CHL1  H24A 3463   4.554   2.412   5.189  0.9875 -0.9362 -0.2354
   31CHL1  H24B 3464   4.413   2.309   5.233 -0.4677  1.2476  2.5867
   31CHL1   C25 3465   4.371   2.447   5.069  0.1317 -0.7781  0.5922
   31CHL1   H25 3466   4.267   2.479   5.090  0.5323 -1.1925  3.7162
   31CHL1   C26 3467   4.453   2.558   4.989  0.3452  0.4073 -0.3067
   31CHL1  H26A 3468   4.461   2.646   5.056  0.8511  0.2758 -0.1885
   31CHL1  H26B 3469   4.558   2.525   4.975  0.2628  0.4086 -0.9473
   31CHL1  H26C 3470   4.399   2.579   4.894  1.3509 -1.8126 -1.4525
   31CHL1   C27 3471   4.362   2.316   4.994  0.3170 -0.0844  0.1870
   31CHL1  H27A 3472   4.317   2.336   4.895 -1.4312 -1.4910  0.6645
   31CHL1  H27B 3473   4.454   2.255   4.988  1.5344  1.7977 -1.4688
   31CHL1  H27C 3474   4.273   2.261   5.032 -2.2476  3.3045 -0.4553
   32CHL1    C3 3475   6.656   0.670   6.307 -0.5439  0.6532  0.8570
   32CHL1    H3 3476   6.579   0.590   6.301 -0.9953  1.0393  1.4410
   32CHL1    O3 3477   6.723   0.676   6.427 -0.3289 -0.7779 -0.1984
   32CHL1   H3' 3478   6.785   0.746   6.406  1.3294 -2.1285  0.0636
   32CHL1    C4 3479   6.764   0.650   6.196  0.2265  0.4685 -0.8100
   32CHL1   H4A 3480   6.849   0.719   6.216  1.4696 -1.1179 -0.3867
   32CHL1   H4B 3481   6.801   0.547   6.216 -0.8087  0.1133 -0.6997
   32CHL1    C5 3482   6.714   0.670   6.054 -0.7736  0.3641 -0.8483
   32CHL1    C6 3483   6.728   0.583   5.942  0.4335  0.2816 -0.4017
   32CHL1    H6 3484   6.778   0.486   5.950  0.1596  0.1219 -0.5968
   32CHL1    C7 3485   6.673   0.618   5.809 -0.2239  0.2046  0.0710
   32CHL1   H7A 3486   6.731   0.569   5.727  1.9756  0.2963  1.4899
   32CHL1   H7B 3487   6.568   0.591   5.785 -0.3243  1.5457 -1.1208
   32CHL1    C8 3488   6.675   0.776   5.790 -0.1996  0.1677  0.0811
   32CHL1    H8 3489   6.781   0.808   5.795  0.0639 -0.6364 -0.2759
   32CHL1   C14 3490   6.616   0.807   5.654 -0.0970 -0.3834 -0.6392
   32CHL1   H14 3491   6.515   0.760   5.648  0.1729 -1.2803  1.2530
   32CHL1   C15 3492   6.685   0.734   5.532 -0.3043 -0.3582  0.4639
   32CHL1  H15A 3493   6.793   0.727   5.558 -0.4041 -0.6950  0.8041
   32CHL1  H15B 3494   6.641   0.632   5.525 -1.0383 -0.1034  1.1447
   32CHL1   C16 3495   6.649   0.814   5.412  0.4063 -1.2005  0.6822
   32CHL1  H16A 3496   6.744   0.837   5.360  0.6899  0.0402  1.6842
   32CHL1  H16B 3497   6.582   0.748   5.352 -0.7680 -0.6996  1.4097
   32CHL1   C17 3498   6.571   0.941   5.464  0.3573 -0.2835 -0.4940
   32CHL1   H17 3499   6.464   0.913   5.455 -0.0313  1.0986 -0.5294
   32CHL1   C13 3500   6.613   0.953   5.616  0.7774 -0.2709 -0.8817
   32CHL1   C18 3501   6.755   1.023   5.613  0.4461  0.6735 -0.1675
   32CHL1  H18A 3502   6.792   1.015   5.717  0.6102  0.7980 -0.2155
   32CHL1  H18B 3503   6.824   0.970   5.544 -0.3401 -3.3589  1.8315
   32CHL1  H18C 3504   6.760   1.130   5.583  2.2639  1.0643  1.3603
   32CHL1   C12 3505   6.519   1.026   5.712  0.2716 -0.3339 -0.1304
   32CHL1  H12A 3506   6.523   1.136   5.696  0.0490 -0.1840  0.8303
   32CHL1  H12B 3507   6.415   0.992   5.694  0.2633 -0.4527  0.1385
   32CHL1   C11 3508   6.563   0.992   5.858  0.4023 -0.4976  0.0763
   32CHL1  H11A 3509   6.654   1.054   5.871 -0.3355  1.3721 -2.8405
   32CHL1  H11B 3510   6.484   1.027   5.928 -0.0489 -2.9927  0.9265
   32CHL1    C9 3511   6.594   0.844   5.894  0.2765  0.2862  0.1918
   32CHL1    H9 3512   6.495   0.794   5.898  1.2649 -1.9537 -1.4532
   32CHL1   C10 3513   6.649   0.813   6.042  0.2608  0.6903 -0.8799
   32CHL1   C19 3514   6.757   0.922   6.070  0.7469 -0.2156  0.5481
   32CHL1  H19A 3515   6.807   0.916   6.169 -0.4555 -0.7464  1.1410
   32CHL1  H19B 3516   6.844   0.916   6.001  1.3651 -1.1495  1.3829
   32CHL1  H19C 3517   6.716   1.025   6.062  1.5706  0.1179  0.4938
   32CHL1    C1 3518   6.533   0.828   6.140 -0.2698 -0.0635  0.1867
   32CHL1   H1A 3519   6.477   0.923   6.128 -1.5844 -0.8613 -0.2826
   32CHL1   H1B 3520   6.449   0.760   6.110  0.2826 -0.3934 -0.6405
   32CHL1    C2 3521   6.568   0.797   6.285 -0.4976 -0.1608  0.2767
   32CHL1   H2A 3522   6.471   0.796   6.338 -1.3756 -2.3645 -1.1920
   32CHL1   H2B 3523   6.623   0.887   6.321  1.2316 -0.9041 -0.3670
   32CHL1   C20 3524   6.592   1.069   5.381 -0.3634 -0.0457 -0.3902
   32CHL1   H20 3525   6.700   1.071   5.358 -0.0194 -4.1854  0.1580
   32CHL1   C21 3526   6.526   1.191   5.444 -0.8344  0.1006 -0.1894
   32CHL1  H21A 3527   6.531   1.282   5.380  1.1420  1.2380  1.4383
   32CHL1  H21B 3528   6.585   1.230   5.530  0.0110 -1.1191 -0.1934
   32CHL1  H21C 3529   6.425   1.172   5.486  0.8875 -0.7667  4.1797
   32CHL1   C22 3530   6.513   1.055   5.250  0.1481  0.8137 -0.0378
   32CHL1  H22A 3531   6.479   0.951   5.230 -0.5057  1.0671 -0.2837
   32CHL1  H22B 3532   6.423   1.120   5.258  0.3045  0.8110  2.4713
   32CHL1   C23 3533   6.599   1.098   5.135 -0.7235 -0.3657  0.5431
   32CHL1  H23A 3534   6.657   1.189   5.161 -0.7270 -1.3021  4.5687
   32CHL1  H23B 3535   6.668   1.012   5.123  0.4131  0.3797  1.5826
   32CHL1   C24 3536   6.524   1.113   5.002  0.0098 -0.0221  0.2900
   32CHL1  H24A 3537   6.445   1.189   5.020 -0.6834 -0.6457 -0.0552
   32CHL1  H24B 3538   6.582   1.156   4.918 -2.1436  0.8624 -0.8240
   32CHL1   C25 3539   6.478   0.978   4.932 -0.5489  0.3179  0.6349
   32CHL1   H25 3540   6.429   0.922   5.015 -0.6187  0.8529  0.9602
   32CHL1   C26 3541   6.373   1.000   4.818  0.2453 -0.3254 -0.4093
   32CHL1  H26A 3542   6.286   1.063   4.845 -2.0418 -2.9193 -1.2790
   32CHL1  H26B 3543   6.417   1.052   4.731 -1.0548 -0.3196 -1.0913
   32CHL1  H26C 3544   6.331   0.908   4.771 -1.3613  0.5269 -0.7112
   32CHL1   C27 3545   6.586   0.888   4.876 -0.0340  0.7392  0.1774
   32CHL1  H27A 3546   6.540   0.795   4.835  1.1337 -0.4585  1.4577
   32CHL1  H27B 3547   6.640   0.932   4.790  0.4739 -0.7355 -0.2968
   32CHL1  H27C 3548   6.663   0.854   4.949 -1.4442 -1.6286  0.6552
   33CHL1    C3 3549   4.137   1.493   6.446 -0.3495  0.4128 -0.6875
   33CHL1    H3 3550   4.099   1.598   6.453  0.2908  0.5947  0.3837
   33CHL1    O3 3551   4.146   1.447   6.581 -0.0532  0.7867  1.2510
   33CHL1   H3' 3552   4.229   1.472   6.623  0.2464 -0.2718  1.3197
   33CHL1    C4 3553   4.038   1.405   6.375 -0.3980 -0.1015 -0.1555
   33CHL1   H4A 3554   4.064   1.298   6.388 -0.0050  0.2191  2.1667
   33CHL1   H4B 3555   3.940   1.425   6.425 -0.6686  0.6617 -0.9675
   33CHL1    C5 3556   4.029   1.421   6.222 -0.2862 -0.1531  0.4516
   33CHL1    C6 3557   3.908   1.440   6.165  0.1734 -0.0258 -0.2306
   33CHL1    H6 3558   3.816   1.432   6.226  0.8636 -0.4076  0.7736
   33CHL1    C7 3559   3.896   1.454   6.014  0.1757  0.3278  0.0399
   33CHL1   H7A 3560   3.817   1.385   5.977  1.8446 -0.9170 -1.3528
   33CHL1   H7B 3561   3.862   1.558   5.998 -1.8250 -0.6360 -2.6953
   33CHL1    C8 3562   4.027   1.422   5.927 -1.2811  0.9038  0.2501
   33CHL1    H8 3563   4.036   1.311   5.920  0.6329  0.8812  2.0247
   33CHL1   C14 3564   4.013   1.476   5.786 -0.6948  0.6169 -0.3450
   33CHL1   H14 3565   3.995   1.585   5.799 -1.8621  0.2479  1.7326
   33CHL1   C15 3566   3.897   1.421   5.700  0.2447  0.6901  0.0622
   33CHL1  H15A 3567   3.890   1.310   5.703 -1.3155  0.7828  2.0562
   33CHL1  H15B 3568   3.798   1.464   5.727 -0.0136  1.5680 -2.0641
   33CHL1   C16 3569   3.930   1.464   5.562 -0.9202 -0.2526  0.5927
   33CHL1  H16A 3570   3.914   1.378   5.493 -0.1455 -0.7471  1.0097
   33CHL1  H16B 3571   3.864   1.546   5.528 -0.6385 -0.0069  0.6339
   33CHL1   C17 3572   4.084   1.503   5.556  0.9028 -0.7638 -0.4380
   33CHL1   H17 3573   4.091   1.614   5.561 -0.6403 -0.6439 -0.5894
   33CHL1   C13 3574   4.131   1.457   5.698 -0.1609  0.2475  0.2283
   33CHL1   C18 3575   4.168   1.303   5.674 -0.4502  0.0432 -0.2672
   33CHL1  H18A 3576   4.080   1.252   5.632 -0.8287  0.4374  0.0350
   33CHL1  H18B 3577   4.247   1.289   5.597 -1.2533 -0.1252 -1.0784
   33CHL1  H18C 3578   4.204   1.251   5.766 -1.2056  1.3237  0.7944
   33CHL1   C12 3579   4.255   1.524   5.771  0.0339 -0.3759  0.2550
   33CHL1  H12A 3580   4.343   1.501   5.707 -0.4556 -0.6181 -0.3402
   33CHL1  H12B 3581   4.247   1.634   5.756  0.9358 -0.3953 -0.5072
   33CHL1   C11 3582   4.277   1.481   5.911  0.1479  0.7446  0.5313
   33CHL1  H11A 3583   4.311   1.375   5.905 -2.2070 -0.4235  4.3993
   33CHL1  H11B 3584   4.349   1.546   5.965  2.0523 -0.4452 -0.4471
   33CHL1    C9 3585   4.151   1.483   6.006  0.2933  0.2734 -0.3484
   33CHL1    H9 3586   4.129   1.592   6.010  2.1652  0.6954 -0.8838
   33CHL1   C10 3587   4.162   1.430   6.151 -0.7491  0.1979 -0.1852
   33CHL1   C19 3588   4.228   1.287   6.151  0.1668 -0.2663 -0.0537
   33CHL1  H19A 3589   4.167   1.220   6.087  1.8316 -0.0710 -1.9276
   33CHL1  H19B 3590   4.331   1.290   6.112 -0.9267  0.0969 -3.2016
   33CHL1  H19C 3591   4.234   1.239   6.251 -1.6945 -3.2071 -1.1801
   33CHL1    C1 3592   4.259   1.527   6.235 -0.4728  0.3317 -0.0732
   33CHL1   H1A 3593   4.362   1.508   6.199 -0.1081  0.6366  0.7957
   33CHL1   H1B 3594   4.223   1.632   6.221  1.5507  0.9456 -1.0289
   33CHL1    C2 3595   4.273   1.492   6.377 -0.1188 -0.1932 -0.5933
   33CHL1   H2A 3596   4.343   1.562   6.427 -0.4255  0.6958 -1.3703
   33CHL1   H2B 3597   4.317   1.390   6.382  1.0369  0.3570  2.2855
   33CHL1   C20 3598   4.158   1.463   5.421 -0.3863  0.3969 -0.5713
   33CHL1   H20 3599   4.148   1.353   5.407 -2.8873  0.6119 -0.9110
   33CHL1   C21 3600   4.306   1.516   5.423  0.1309 -0.5559 -0.5296
   33CHL1  H21A 3601   4.360   1.462   5.503 -3.4495 -3.6492  0.1089
   33CHL1  H21B 3602   4.301   1.624   5.447 -1.3129 -0.7053 -0.0508
   33CHL1  H21C 3603   4.354   1.494   5.325  0.0508 -1.4751 -0.3674
   33CHL1   C22 3604   4.080   1.522   5.298 -0.6660 -0.3997 -1.1858
   33CHL1  H22A 3605   3.977   1.479   5.300  0.4885 -3.4078 -1.3220
   33CHL1  H22B 3606   4.071   1.633   5.303  3.7265  0.0685  2.0756
   33CHL1   C23 3607   4.140   1.493   5.160  0.9290 -0.5282  0.8142
   33CHL1  H23A 3608   4.225   1.564   5.152  1.1931 -0.9063  0.0991
   33CHL1  H23B 3609   4.177   1.388   5.157 -1.7517 -1.5456 -0.3132
   33CHL1   C24 3610   4.039   1.529   5.051 -0.2955  0.6001 -0.2691
   33CHL1  H24A 3611   3.936   1.520   5.090  1.0697 -2.1144  3.3701
   33CHL1  H24B 3612   4.046   1.640   5.043  0.0706  0.6344  0.4266
   33CHL1   C25 3613   4.064   1.475   4.909 -0.7893 -0.2948  0.2608
   33CHL1   H25 3614   4.041   1.366   4.901  0.2471 -0.5830  1.0337
   33CHL1   C26 3615   3.958   1.544   4.820  0.7611  0.1870 -0.5305
   33CHL1  H26A 3616   3.982   1.532   4.712  2.4558  0.2707 -0.1821
   33CHL1  H26B 3617   3.854   1.509   4.836 -0.2675  1.9326 -2.7664
   33CHL1  H26C 3618   3.956   1.653   4.839 -0.0253 -0.0111  0.5838
   33CHL1   C27 3619   4.205   1.503   4.863  0.3319 -0.2171  0.0733
   33CHL1  H27A 3620   4.226   1.450   4.768  2.4630  1.6928 -0.6108
   33CHL1  H27B 3621   4.227   1.610   4.843 -1.0760 -0.2857 -2.1457
   33CHL1  H27C 3622   4.280   1.465   4.936  1.5381  2.4172  0.3179
   34CHL1    C3 3623   4.044   2.376   6.713 -0.6304  0.0918  0.5714
   34CHL1    H3 3624   4.149   2.383   6.678 -0.1160  1.0628  2.1698
   34CHL1    O3 3625   4.049   2.374   6.854  0.1034  0.1522 -0.5541
   34CHL1   H3' 3626   4.077   2.462   6.881  2.0062 -0.1847 -1.3088
   34CHL1    C4 3627   3.967   2.496   6.658 -0.2122 -0.7490  0.5023
   34CHL1   H4A 3628   3.861   2.487   6.689  0.0258 -1.7461  1.0695
   34CHL1   H4B 3629   4.012   2.589   6.700 -3.3400  1.5312 -0.8245
   34CHL1    C5 3630   3.984   2.502   6.502  0.6370  0.4917 -0.7079
   34CHL1    C6 3631   4.028   2.612   6.444  0.0404  0.3710 -0.5454
   34CHL1    H6 3632   4.064   2.693   6.510  1.0730  0.1381 -0.8150
   34CHL1    C7 3633   4.032   2.637   6.296 -0.6795  0.6586 -0.1584
   34CHL1   H7A 3634   3.997   2.741   6.281  2.7684  1.8006 -1.1770
   34CHL1   H7B 3635   4.130   2.629   6.246 -0.1447 -0.9252  1.0397
   34CHL1    C8 3636   3.937   2.541   6.223 -0.5278  0.2055  0.2905
   34CHL1    H8 3637   3.831   2.570   6.242 -0.4984 -0.2648  1.2158
   34CHL1   C14 3638   3.964   2.544   6.073  0.6258  0.2968  0.5598
   34CHL1   H14 3639   4.062   2.493   6.061  0.0567 -1.0343  1.3329
   34CHL1   C15 3640   3.974   2.681   6.008  0.0260 -0.3627  0.9431
   34CHL1  H15A 3641   3.896   2.745   6.053 -0.5137 -0.3260 -0.0163
   34CHL1  H15B 3642   4.078   2.720   6.017 -0.2935  0.3669  1.5142
   34CHL1   C16 3643   3.938   2.664   5.859  0.1642  0.5523  1.5275
   34CHL1  H16A 3644   3.844   2.712   5.826  1.1860  0.3736 -2.0134
   34CHL1  H16B 3645   4.017   2.715   5.801  2.6072 -1.5918  2.7059
   34CHL1   C17 3646   3.927   2.509   5.841  0.6215 -0.1926  0.0798
   34CHL1   H17 3647   4.031   2.472   5.830  0.4445 -0.2395 -1.7452
   34CHL1   C13 3648   3.876   2.456   5.980 -0.3290  0.1918  0.0860
   34CHL1   C18 3649   3.729   2.497   5.986  0.5367 -0.3138 -0.0055
   34CHL1  H18A 3650   3.710   2.605   5.969 -1.3825 -0.1341  2.6184
   34CHL1  H18B 3651   3.662   2.445   5.915 -0.5489  0.4907  0.4153
   34CHL1  H18C 3652   3.684   2.473   6.085  1.7211 -0.8219  0.4321
   34CHL1   C12 3653   3.903   2.306   6.029 -0.3200 -0.0942 -0.4753
   34CHL1  H12A 3654   3.836   2.246   5.964 -0.3421 -1.4220  0.7152
   34CHL1  H12B 3655   4.007   2.273   6.008 -0.0333 -0.6532  1.5890
   34CHL1   C11 3656   3.880   2.301   6.180 -0.7968 -0.1081  0.0912
   34CHL1  H11A 3657   3.770   2.314   6.186 -0.8417 -0.4665  0.0640
   34CHL1  H11B 3658   3.906   2.202   6.223  2.7920  0.6549 -0.0045
   34CHL1    C9 3659   3.956   2.399   6.271 -0.5079 -0.9623 -0.4222
   34CHL1    H9 3660   4.063   2.376   6.252  0.2448  0.3489  1.8499
   34CHL1   C10 3661   3.925   2.380   6.429 -0.0807 -0.7769 -0.5294
   34CHL1   C19 3662   3.773   2.382   6.456  0.4838  0.2527  0.4486
   34CHL1  H19A 3663   3.721   2.326   6.375  1.6150  2.0140 -1.6222
   34CHL1  H19B 3664   3.736   2.351   6.556 -0.4680  0.8835  0.3085
   34CHL1  H19C 3665   3.733   2.485   6.445 -2.6444 -0.7941  1.2246
   34CHL1    C1 3666   3.995   2.255   6.490  0.1421  0.0428 -0.2288
   34CHL1   H1A 3667   3.945   2.175   6.433  0.3761  1.1485 -2.0726
   34CHL1   H1B 3668   4.098   2.247   6.448  0.1528 -0.4396 -0.1122
   34CHL1    C2 3669   3.985   2.251   6.646 -0.1624 -0.3337 -0.0814
   34CHL1   H2A 3670   4.033   2.163   6.693  1.8127  0.7252 -0.0021
   34CHL1   H2B 3671   3.878   2.255   6.675 -0.5463  3.1365 -1.4167
   34CHL1   C20 3672   3.854   2.463   5.711  0.2094 -0.1118  0.7426
   34CHL1   H20 3673   3.743   2.467   5.713 -0.0033  0.0741 -3.2065
   34CHL1   C21 3674   3.910   2.321   5.681  0.2300  0.0497  0.5656
   34CHL1  H21A 3675   3.921   2.267   5.777 -1.4080  2.6720  2.3804
   34CHL1  H21B 3676   4.004   2.320   5.621  1.2860  0.9764  2.1097
   34CHL1  H21C 3677   3.833   2.260   5.631  0.6451  0.7160 -0.9416
   34CHL1   C22 3678   3.888   2.554   5.587  1.0263 -0.2335  0.2023
   34CHL1  H22A 3679   3.855   2.658   5.606 -1.2965 -1.1503  1.6479
   34CHL1  H22B 3680   3.998   2.546   5.581  0.9400 -1.9941  0.3887
   34CHL1   C23 3681   3.819   2.524   5.454 -0.4066  0.0327 -0.5836
   34CHL1  H23A 3682   3.829   2.416   5.429  3.7459  0.3168 -0.8828
   34CHL1  H23B 3683   3.712   2.553   5.466 -0.1239  2.1230 -2.4125
   34CHL1   C24 3684   3.891   2.590   5.337  0.2545 -0.2261  0.1585
   34CHL1  H24A 3685   3.874   2.699   5.353 -1.7767 -0.2251 -1.5025
   34CHL1  H24B 3686   3.998   2.562   5.329 -0.1444 -1.3598 -2.1805
   34CHL1   C25 3687   3.824   2.566   5.206 -0.3630  0.4860  0.0942
   34CHL1   H25 3688   3.713   2.573   5.213 -0.5654  0.0369 -2.0124
   34CHL1   C26 3689   3.857   2.678   5.113 -0.2715  0.0272 -0.1870
   34CHL1  H26A 3690   3.968   2.684   5.117 -0.0219 -3.0181 -0.3505
   34CHL1  H26B 3691   3.828   2.654   5.008  0.0824  0.0040 -0.2818
   34CHL1  H26C 3692   3.814   2.769   5.159 -1.3327 -1.1398  1.2029
   34CHL1   C27 3693   3.865   2.434   5.141 -0.8802  0.6721 -0.3560
   34CHL1  H27A 3694   3.838   2.342   5.198 -2.2025 -0.4767 -2.6765
   34CHL1  H27B 3695   3.835   2.420   5.035 -1.1308  1.5706 -0.4168
   34CHL1  H27C 3696   3.975   2.433   5.132 -0.8215 -0.1801  0.3140
   35CHL1    C3 3697   4.795   3.449   6.432 -0.7498 -0.3315 -0.4546
   35CHL1    H3 3698   4.699   3.398   6.454 -0.7836  0.2708  0.8497
   35CHL1    O3 3699   4.819   3.507   6.561 -0.9265 -0.0266  0.3936
   35CHL1   H3' 3700   4.842   3.439   6.624  1.5323 -1.3513 -1.7610
   35CHL1    C4 3701   4.905   3.338   6.407 -0.2901  0.0722 -0.8378
   35CHL1   H4A 3702   5.002   3.390   6.422 -1.1960  0.9768  3.0490
   35CHL1   H4B 3703   4.902   3.263   6.489 -0.3963 -2.2293 -2.8565
   35CHL1    C5 3704   4.904   3.271   6.268  0.4332  0.0312 -0.1465
   35CHL1    C6 3705   4.900   3.141   6.254 -0.0802  0.9000 -0.2044
   35CHL1    H6 3706   4.901   3.070   6.338  2.0890  1.0688 -0.0200
   35CHL1    C7 3707   4.897   3.068   6.125 -0.3422  0.5604  0.3817
   35CHL1   H7A 3708   4.967   2.982   6.123 -0.0310  0.8101  0.5200
   35CHL1   H7B 3709   4.794   3.028   6.119 -0.8870  2.0294 -0.6866
   35CHL1    C8 3710   4.930   3.159   6.008  0.6626 -0.1734  0.1718
   35CHL1    H8 3711   5.039   3.179   6.013  0.5159  0.7337 -0.1214
   35CHL1   C14 3712   4.890   3.103   5.881  0.2632 -0.9102  0.1246
   35CHL1   H14 3713   4.780   3.083   5.877  0.0812  0.1835 -0.9932
   35CHL1   C15 3714   4.944   2.957   5.846  0.0810 -0.6540 -1.0968
   35CHL1  H15A 3715   5.051   2.949   5.874 -0.0296 -2.3149 -1.0904
   35CHL1  H15B 3716   4.890   2.876   5.899 -0.3595 -0.2577 -0.9362
   35CHL1   C16 3717   4.923   2.955   5.692  0.1447  0.9618  0.9034
   35CHL1  H16A 3718   5.006   2.920   5.628 -2.8316  0.7232 -3.2066
   35CHL1  H16B 3719   4.842   2.880   5.677  1.2577 -0.0422 -0.3153
   35CHL1   C17 3720   4.879   3.093   5.633 -0.2285 -0.1000 -0.4279
   35CHL1   H17 3721   4.768   3.090   5.634 -0.2235 -0.5235 -0.8591
   35CHL1   C13 3722   4.928   3.185   5.752 -0.6696  0.1663 -0.4011
   35CHL1   C18 3723   5.081   3.225   5.743 -0.8038 -0.7467 -0.4017
   35CHL1  H18A 3724   5.110   3.290   5.829 -5.4900  1.4055 -0.1042
   35CHL1  H18B 3725   5.141   3.133   5.726  0.1714 -0.2783  0.4222
   35CHL1  H18C 3726   5.092   3.286   5.651 -0.1431  2.4930  1.6700
   35CHL1   C12 3727   4.838   3.307   5.769  0.6075  0.4712 -0.3563
   35CHL1  H12A 3728   4.854   3.370   5.679  2.3428  0.6243  0.0214
   35CHL1  H12B 3729   4.733   3.272   5.757  0.8808 -0.3316 -0.4608
   35CHL1   C11 3730   4.865   3.382   5.897  0.3889 -0.0018 -0.4602
   35CHL1  H11A 3731   4.962   3.436   5.890  1.1603 -1.3294 -0.3199
   35CHL1  H11B 3732   4.778   3.451   5.908  0.5947  0.4162 -1.4173
   35CHL1    C9 3733   4.859   3.297   6.032  0.7916  0.1379  0.0324
   35CHL1    H9 3734   4.753   3.266   6.041  0.8097  0.4397  1.5459
   35CHL1   C10 3735   4.889   3.375   6.161 -0.6615 -0.4941  0.4829
   35CHL1   C19 3736   5.025   3.446   6.146  0.1550  0.4135  0.3315
   35CHL1  H19A 3737   5.051   3.495   6.242 -4.1822 -0.8305  2.4319
   35CHL1  H19B 3738   5.106   3.384   6.102 -1.4451 -2.6498  1.4409
   35CHL1  H19C 3739   5.012   3.524   6.068 -1.6965 -0.2775 -0.1239
   35CHL1    C1 3740   4.768   3.475   6.182 -0.9060 -0.7545 -0.2786
   35CHL1   H1A 3741   4.769   3.548   6.098  0.1878  1.2256  1.3516
   35CHL1   H1B 3742   4.666   3.433   6.186 -3.2054  4.1153 -0.2745
   35CHL1    C2 3743   4.791   3.550   6.310 -0.3487 -0.1986 -0.4334
   35CHL1   H2A 3744   4.715   3.629   6.332 -0.3289 -0.0542 -0.8666
   35CHL1   H2B 3745   4.892   3.594   6.296 -0.8147  0.1402 -3.3807
   35CHL1   C20 3746   4.926   3.122   5.491  0.0015  0.3415 -0.2509
   35CHL1   H20 3747   5.035   3.100   5.480 -0.3308 -2.4360  1.1167
   35CHL1   C21 3748   4.911   3.259   5.432  0.2287 -0.3190 -0.2982
   35CHL1  H21A 3749   4.964   3.338   5.490 -0.1376 -0.9366  0.9118
   35CHL1  H21B 3750   4.803   3.285   5.428  0.3555  0.8292  2.0305
   35CHL1  H21C 3751   4.948   3.266   5.327 -0.0757 -0.8616 -0.4436
   35CHL1   C22 3752   4.864   3.009   5.399  0.5278 -0.7686 -0.0232
   35CHL1  H22A 3753   4.910   2.912   5.429  0.2080 -1.6164 -2.1394
   35CHL1  H22B 3754   4.754   3.015   5.407  0.4457 -2.8133  1.2372
   35CHL1   C23 3755   4.905   3.022   5.247 -0.5174 -0.3940  0.3098
   35CHL1  H23A 3756   5.000   3.079   5.254 -0.4279 -0.4104 -0.6012
   35CHL1  H23B 3757   4.925   2.917   5.214  1.6915 -0.6785  2.3104
   35CHL1   C24 3758   4.805   3.102   5.166  0.0378 -0.8864 -0.1131
   35CHL1  H24A 3759   4.770   3.192   5.221  0.1323 -0.4348 -0.7911
   35CHL1  H24B 3760   4.856   3.149   5.079 -2.4606 -0.7884 -1.6003
   35CHL1   C25 3761   4.678   3.030   5.135  0.4526  0.1431  0.7149
   35CHL1   H25 3762   4.635   2.988   5.229  1.9719 -2.9662  0.1643
   35CHL1   C26 3763   4.593   3.127   5.054  0.3348 -0.0375 -0.5425
   35CHL1  H26A 3764   4.566   3.224   5.100  0.8369  1.3648 -3.0232
   35CHL1  H26B 3765   4.645   3.158   4.961  0.4877 -1.6889 -1.0358
   35CHL1  H26C 3766   4.502   3.078   5.016  0.6796 -0.7489 -0.4797
   35CHL1   C27 3767   4.690   2.902   5.047 -0.0007 -0.4378  0.2015
   35CHL1  H27A 3768   4.597   2.866   4.997  1.0597 -1.1971 -1.2767
   35CHL1  H27B 3769   4.771   2.918   4.973  0.6948  0.4881  1.1338
   35CHL1  H27C 3770   4.723   2.819   5.112 -0.3940  0.2851  1.3584
   36CHL1    C3 3771   2.599   1.498   6.612  0.1076 -0.0022 -0.1238
   36CHL1    H3 3772   2.559   1.602   6.608 -2.5529 -0.8374  1.6913
   36CHL1    O3 3773   2.613   1.450   6.741  0.3780  0.0925 -0.1572
   36CHL1   H3' 3774   2.560   1.505   6.800  0.2509 -0.4652  0.2506
   36CHL1    C4 3775   2.508   1.391   6.542  0.4997  0.4289 -0.2243
   36CHL1   H4A 3776   2.553   1.290   6.559 -1.1204  0.0816  2.6022
   36CHL1   H4B 3777   2.419   1.377   6.607 -1.0224 -0.5940 -2.3824
   36CHL1    C5 3778   2.476   1.429   6.402 -0.1201 -0.4846  0.2486
   36CHL1    C6 3779   2.344   1.452   6.362 -0.2472 -0.8337 -0.0279
   36CHL1    H6 3780   2.268   1.431   6.438 -1.1826  1.7166 -0.1644
   36CHL1    C7 3781   2.312   1.497   6.223 -0.0577  0.1777  0.9854
   36CHL1   H7A 3782   2.243   1.426   6.173  0.1096  0.7013 -0.0298
   36CHL1   H7B 3783   2.257   1.593   6.222 -0.6743 -0.1630 -0.2569
   36CHL1    C8 3784   2.431   1.501   6.127  0.0701  0.3493  0.2475
   36CHL1    H8 3785   2.451   1.397   6.094 -1.1175  0.0860  0.3248
   36CHL1   C14 3786   2.403   1.599   6.004  0.8804  0.7568 -0.1897
   36CHL1   H14 3787   2.393   1.701   6.047 -1.6235  1.1405 -1.5086
   36CHL1   C15 3788   2.273   1.566   5.926 -0.1509 -0.4730 -0.0680
   36CHL1  H15A 3789   2.260   1.464   5.884 -0.6283 -0.0814 -0.8847
   36CHL1  H15B 3790   2.192   1.601   5.994  1.1141  0.8123  0.8418
   36CHL1   C16 3791   2.291   1.657   5.802  0.5512 -0.1272 -0.2593
   36CHL1  H16A 3792   2.277   1.599   5.708  1.2740  1.0026 -1.0786
   36CHL1  H16B 3793   2.217   1.739   5.789  0.7014 -0.0354 -0.5278
   36CHL1   C17 3794   2.441   1.694   5.796 -0.3003  0.2348  0.0517
   36CHL1   H17 3795   2.446   1.796   5.841  0.7339 -0.3097  1.2074
   36CHL1   C13 3796   2.514   1.606   5.898  0.4707  0.4841  0.7178
   36CHL1   C18 3797   2.530   1.467   5.828 -0.0983 -0.4310 -1.1960
   36CHL1  H18A 3798   2.454   1.451   5.748 -1.2681  0.5673 -0.3219
   36CHL1  H18B 3799   2.631   1.468   5.781  2.0686  2.3645  2.9490
   36CHL1  H18C 3800   2.524   1.384   5.901  0.9688 -0.1239 -0.7447
   36CHL1   C12 3801   2.648   1.650   5.968  0.2235  0.4873  0.1328
   36CHL1  H12A 3802   2.737   1.656   5.901  0.9580 -0.3763  0.9855
   36CHL1  H12B 3803   2.628   1.751   6.009  1.3513  1.3036 -1.2237
   36CHL1   C11 3804   2.685   1.570   6.088  0.3194 -0.0444 -0.0329
   36CHL1  H11A 3805   2.733   1.477   6.050  0.2091 -0.5959  1.1245
   36CHL1  H11B 3806   2.765   1.620   6.145 -0.4018  0.9913  0.0969
   36CHL1    C9 3807   2.560   1.545   6.189 -0.2087 -0.4168 -0.1696
   36CHL1    H9 3808   2.540   1.650   6.218  1.9838 -0.1006  0.3569
   36CHL1   C10 3809   2.600   1.462   6.310 -0.6299  0.0615  0.1333
   36CHL1   C19 3810   2.666   1.330   6.256  0.4497 -0.6380  0.2147
   36CHL1  H19A 3811   2.770   1.348   6.223  0.1539  2.1650  0.5408
   36CHL1  H19B 3812   2.669   1.259   6.341  0.4281  1.1215  1.7443
   36CHL1  H19C 3813   2.604   1.284   6.176 -0.8342 -1.0769  1.4129
   36CHL1    C1 3814   2.704   1.540   6.392  0.0934 -0.5807  0.1619
   36CHL1   H1A 3815   2.805   1.540   6.347 -1.0155 -0.8685 -2.5703
   36CHL1   H1B 3816   2.672   1.646   6.385  0.3926 -0.5931 -3.3437
   36CHL1    C2 3817   2.732   1.499   6.533 -0.4138  0.4839 -0.5288
   36CHL1   H2A 3818   2.806   1.571   6.574  0.2284  0.8443 -2.2557
   36CHL1   H2B 3819   2.777   1.398   6.524 -2.1972 -0.4223  0.2169
   36CHL1   C20 3820   2.496   1.712   5.650 -0.5811  0.5038 -0.2409
   36CHL1   H20 3821   2.479   1.613   5.601  1.4572  0.9937 -2.0840
   36CHL1   C21 3822   2.644   1.742   5.659  0.1363 -0.6053 -0.0349
   36CHL1  H21A 3823   2.701   1.653   5.692  3.1876  1.1451 -0.2334
   36CHL1  H21B 3824   2.670   1.831   5.721 -2.1348 -0.6250  1.0729
   36CHL1  H21C 3825   2.684   1.759   5.557  2.9713  1.9247  1.3424
   36CHL1   C22 3826   2.426   1.833   5.575 -0.6735 -0.0649  0.2635
   36CHL1  H22A 3827   2.315   1.833   5.576 -0.7816  0.1551 -2.6233
   36CHL1  H22B 3828   2.456   1.925   5.629  2.2285  0.6169 -2.1548
   36CHL1   C23 3829   2.445   1.840   5.416 -0.9299  0.2251 -0.9318
   36CHL1  H23A 3830   2.555   1.834   5.404 -0.7085 -1.9837  1.4094
   36CHL1  H23B 3831   2.388   1.756   5.371 -0.3121 -0.6884 -0.0238
   36CHL1   C24 3832   2.390   1.970   5.363  0.1722  0.0914  0.5380
   36CHL1  H24A 3833   2.284   1.975   5.395  0.4919 -0.0438  1.6711
   36CHL1  H24B 3834   2.450   2.049   5.413  1.9249 -1.0539  0.3654
   36CHL1   C25 3835   2.396   1.994   5.214  0.0983 -0.4790 -0.2696
   36CHL1   H25 3836   2.361   1.898   5.169  1.5359 -0.9840 -0.3599
   36CHL1   C26 3837   2.293   2.097   5.174  0.6840  0.5477  0.0388
   36CHL1  H26A 3838   2.307   2.194   5.227  0.5911  0.9368 -0.6434
   36CHL1  H26B 3839   2.298   2.127   5.067 -1.1743  1.7481  0.2445
   36CHL1  H26C 3840   2.190   2.064   5.202 -0.5567  3.2166 -1.0490
   36CHL1   C27 3841   2.539   2.024   5.172 -0.5488 -0.2692  0.1948
   36CHL1  H27A 3842   2.577   2.118   5.218  0.9427 -1.6862  2.0213
   36CHL1  H27B 3843   2.617   1.948   5.193  0.3292  1.2603  2.9703
   36CHL1  H27C 3844   2.545   2.039   5.062  1.0572  0.3538  0.3386
   37CHL1    C3 3845   3.076   5.816   5.994  0.3754 -0.5217  0.4957
   37CHL1    H3 3846   3.175   5.782   5.956  0.0109 -0.7135 -0.3186
   37CHL1    O3 3847   3.073   5.783   6.133  0.1429 -0.2436 -0.0953
   37CHL1   H3' 3848   3.035   5.856   6.182  0.4658  0.8952 -1.4977
   37CHL1    C4 3849   3.066   5.965   5.959  0.4052  0.3601  0.2252
   37CHL1   H4A 3850   2.983   6.005   6.022 -0.0212 -0.5406  0.2522
   37CHL1   H4B 3851   3.158   6.016   5.995  0.7583  0.6973 -1.1250
   37CHL1    C5 3852   3.047   6.007   5.815 -0.0469  0.3259 -0.9488
   37CHL1    C6 3853   3.138   6.090   5.755 -0.2940  0.7006 -0.2813
   37CHL1    H6 3854   3.218   6.128   5.821  2.0778 -2.5399 -1.0487
   37CHL1    C7 3855   3.122   6.146   5.617 -0.9578  0.2987  0.0117
   37CHL1   H7A 3856   3.134   6.256   5.607 -1.2742  0.2783 -0.6269
   37CHL1   H7B 3857   3.211   6.104   5.565  0.1469  1.9313  0.5250
   37CHL1    C8 3858   2.992   6.101   5.549  0.0316  0.2416  0.3263
   37CHL1    H8 3859   2.910   6.170   5.578  0.3991  1.1815 -0.8207
   37CHL1   C14 3860   2.997   6.112   5.394  0.5646  0.4128  0.2373
   37CHL1   H14 3861   3.084   6.051   5.361  0.1439  0.3862 -0.8599
   37CHL1   C15 3862   3.034   6.258   5.337 -0.3841  0.1316  0.0199
   37CHL1  H15A 3863   2.958   6.330   5.372 -2.3094 -1.5805 -0.4469
   37CHL1  H15B 3864   3.141   6.280   5.360  0.3821 -1.6245 -1.5492
   37CHL1   C16 3865   3.018   6.242   5.187  0.2513 -0.2805  0.1568
   37CHL1  H16A 3866   2.974   6.334   5.144 -2.4083 -1.3507  0.3674
   37CHL1  H16B 3867   3.119   6.231   5.142 -0.4265 -0.1294 -1.4816
   37CHL1   C17 3868   2.933   6.111   5.166 -0.1384 -0.3456 -0.1614
   37CHL1   H17 3869   3.007   6.031   5.146 -0.1245  0.1399 -2.2785
   37CHL1   C13 3870   2.877   6.070   5.309 -0.5903  0.3686  0.5781
   37CHL1   C18 3871   2.749   6.151   5.337  0.3003 -0.2450  0.3316
   37CHL1  H18A 3872   2.669   6.100   5.280 -0.4163 -0.8500  1.8132
   37CHL1  H18B 3873   2.718   6.151   5.444  1.2543  0.6766  0.6292
   37CHL1  H18C 3874   2.746   6.258   5.306 -1.1385  0.0638  1.4441
   37CHL1   C12 3875   2.857   5.922   5.345  0.2653 -0.4323 -0.3028
   37CHL1  H12A 3876   2.757   5.886   5.314  0.3336 -3.1398  2.1952
   37CHL1  H12B 3877   2.948   5.861   5.329 -0.8649 -3.3153  3.0637
   37CHL1   C11 3878   2.833   5.917   5.498  1.1605  0.4786  0.1388
   37CHL1  H11A 3879   2.751   5.988   5.521  0.9821  0.7818 -1.2895
   37CHL1  H11B 3880   2.806   5.813   5.525  1.3625 -0.0760 -1.6224
   37CHL1    C9 3881   2.950   5.961   5.586 -0.5620  0.5364  0.4432
   37CHL1    H9 3882   3.035   5.897   5.553  1.6208  3.7859 -0.6979
   37CHL1   C10 3883   2.940   5.941   5.744  1.0361  0.2569  0.7444
   37CHL1   C19 3884   2.800   5.994   5.787 -0.3560  0.3909  0.5316
   37CHL1  H19A 3885   2.718   5.933   5.744 -0.5179  1.6401 -1.0328
   37CHL1  H19B 3886   2.786   5.980   5.896  0.0175 -0.6243  0.4624
   37CHL1  H19C 3887   2.777   6.097   5.752  1.1606  0.3400 -0.7375
   37CHL1    C1 3888   2.951   5.783   5.769 -0.1770  0.5924  0.3534
   37CHL1   H1A 3889   2.854   5.743   5.734 -0.5739  3.2181 -1.8837
   37CHL1   H1B 3890   3.029   5.735   5.705 -2.0720 -0.6674 -1.1178
   37CHL1    C2 3891   2.962   5.743   5.918 -0.3424 -0.6451  0.1863
   37CHL1   H2A 3892   2.960   5.633   5.931  1.1481 -0.6214  0.8439
   37CHL1   H2B 3893   2.870   5.770   5.973 -0.8244 -1.0860 -0.3861
   37CHL1   C20 3894   2.840   6.130   5.043 -0.2406  0.7727  0.1213
   37CHL1   H20 3895   2.771   6.211   5.073 -1.3401  0.6708 -1.9106
   37CHL1   C21 3896   2.763   5.999   5.012  0.2273  0.0255 -0.6146
   37CHL1  H21A 3897   2.693   5.968   5.092 -0.7283 -1.7396 -2.0630
   37CHL1  H21B 3898   2.834   5.914   5.000 -3.3274 -3.1857 -0.7624
   37CHL1  H21C 3899   2.715   6.017   4.913 -2.9374  1.9068  1.1006
   37CHL1   C22 3900   2.914   6.185   4.917  0.5683  1.1810 -0.3260
   37CHL1  H22A 3901   2.840   6.190   4.834  0.0984  2.9327  0.1749
   37CHL1  H22B 3902   2.950   6.287   4.939  1.5056  0.3077  2.6403
   37CHL1   C23 3903   3.035   6.095   4.866  0.2248 -0.2427  0.0334
   37CHL1  H23A 3904   3.095   6.089   4.959 -1.8919  0.9590  1.5657
   37CHL1  H23B 3905   3.001   5.993   4.839  1.3407 -0.7821  0.5817
   37CHL1   C24 3906   3.128   6.136   4.750 -0.1554  0.4049 -0.3985
   37CHL1  H24A 3907   3.195   6.047   4.749 -1.3677 -0.5598 -1.8261
   37CHL1  H24B 3908   3.067   6.132   4.657  0.2401  0.8771 -0.6832
   37CHL1   C25 3909   3.205   6.269   4.745  0.2925 -0.1373 -0.2502
   37CHL1   H25 3910   3.129   6.350   4.746 -0.7773 -1.0903 -1.1955
   37CHL1   C26 3911   3.282   6.296   4.873 -0.2872 -0.6769  0.0151
   37CHL1  H26A 3912   3.218   6.298   4.964  2.6948  1.8752  2.2581
   37CHL1  H26B 3913   3.362   6.221   4.888  1.0098  0.4544 -1.0900
   37CHL1  H26C 3914   3.333   6.394   4.882 -1.1307 -0.2598  0.3994
   37CHL1   C27 3915   3.286   6.291   4.618  0.4632 -0.4925  0.3684
   37CHL1  H27A 3916   3.217   6.262   4.536  0.1566 -0.3511  0.5757
   37CHL1  H27B 3917   3.319   6.396   4.607 -1.2635  0.2939  2.2010
   37CHL1  H27C 3918   3.378   6.228   4.613  1.6291  1.2141 -2.5560
   38CHL1    C3 3919   4.520   5.912   6.374 -0.6821  0.5803  0.3458
   38CHL1    H3 3920   4.571   5.816   6.353 -1.4443  0.2013  0.2099
   38CHL1    O3 3921   4.523   5.938   6.516 -0.2407 -0.1470  0.7282
   38CHL1   H3' 3922   4.456   6.004   6.533  0.4233  0.0799  2.7125
   38CHL1    C4 3923   4.591   6.037   6.310  0.0582  0.2860 -0.5271
   38CHL1   H4A 3924   4.535   6.124   6.350  0.4210 -0.5630  2.0171
   38CHL1   H4B 3925   4.695   6.032   6.349  0.2434  0.9427 -0.9272
   38CHL1    C5 3926   4.584   6.016   6.163  0.1242 -0.3047 -0.2927
   38CHL1    C6 3927   4.698   6.013   6.094 -0.0884 -0.0518  0.2541
   38CHL1    H6 3928   4.793   6.031   6.146 -0.3797  0.0936  0.7333
   38CHL1    C7 3929   4.717   6.012   5.944 -0.5152 -0.5798  0.3197
   38CHL1   H7A 3930   4.798   6.082   5.914  0.8515 -1.4116  1.8635
   38CHL1   H7B 3931   4.748   5.910   5.912  2.7909  0.3345  0.2494
   38CHL1    C8 3932   4.578   6.031   5.870 -0.4090 -0.1773 -0.0739
   38CHL1    H8 3933   4.563   6.141   5.875  1.4020  0.0652  0.9971
   38CHL1   C14 3934   4.582   5.983   5.719  0.3063 -0.5262 -0.1797
   38CHL1   H14 3935   4.599   5.873   5.727  1.1681 -0.3419  0.6501
   38CHL1   C15 3936   4.688   6.047   5.637 -0.1131 -0.3324  0.0057
   38CHL1  H15A 3937   4.686   6.158   5.641  0.8813 -0.2257 -1.4947
   38CHL1  H15B 3938   4.790   6.009   5.661  0.3222 -0.2030 -1.5057
   38CHL1   C16 3939   4.653   6.015   5.493 -0.1765  0.1264 -0.4596
   38CHL1  H16A 3940   4.658   6.104   5.426  2.3702 -0.6612 -1.4510
   38CHL1  H16B 3941   4.718   5.939   5.444  0.7769  0.8144 -0.2930
   38CHL1   C17 3942   4.515   5.944   5.498  0.3474 -0.2526 -0.0323
   38CHL1   H17 3943   4.528   5.834   5.506 -2.3932 -0.7692 -1.5008
   38CHL1   C13 3944   4.455   5.988   5.638  0.2950 -0.7019 -0.4818
   38CHL1   C18 3945   4.407   6.138   5.620  0.3497  0.6287  0.9366
   38CHL1  H18A 3946   4.488   6.188   5.563  0.5554 -1.1053 -0.3597
   38CHL1  H18B 3947   4.322   6.137   5.548  1.7076  2.2121 -0.7764
   38CHL1  H18C 3948   4.384   6.186   5.718 -0.3751 -0.7359  1.4662
   38CHL1   C12 3949   4.343   5.905   5.711 -0.5112 -0.0768  0.0392
   38CHL1  H12A 3950   4.250   5.926   5.653 -0.4979  1.4003  0.5081
   38CHL1  H12B 3951   4.359   5.796   5.701 -1.1783 -0.3315  1.4690
   38CHL1   C11 3952   4.336   5.953   5.860  0.7286 -0.5917  0.4844
   38CHL1  H11A 3953   4.301   6.058   5.865 -2.0424 -1.3883 -0.3409
   38CHL1  H11B 3954   4.256   5.891   5.906  0.3665  0.0204  0.6976
   38CHL1    C9 3955   4.463   5.961   5.941  0.6368  0.3261 -0.1857
   38CHL1    H9 3956   4.496   5.855   5.950 -2.6745 -0.9291 -1.1213
   38CHL1   C10 3957   4.448   5.999   6.093 -0.5093  0.3463  0.3880
   38CHL1   C19 3958   4.371   6.139   6.103  0.1027 -0.4675 -0.2163
   38CHL1  H19A 3959   4.443   6.218   6.074  1.0330  0.2443  3.4726
   38CHL1  H19B 3960   4.286   6.156   6.033  0.4319  1.2818 -0.2420
   38CHL1  H19C 3961   4.338   6.161   6.207  1.9456 -0.5843  0.4359
   38CHL1    C1 3962   4.374   5.884   6.171  0.3519  1.0650  0.6623
   38CHL1   H1A 3963   4.266   5.878   6.144 -0.3505  0.1415  3.2952
   38CHL1   H1B 3964   4.424   5.791   6.136 -0.7668  0.9554 -0.6987
   38CHL1    C2 3965   4.379   5.893   6.319  0.4980  0.0349 -0.5233
   38CHL1   H2A 3966   4.346   5.797   6.365 -1.1267  0.6878 -0.2600
   38CHL1   H2B 3967   4.320   5.974   6.368  0.6778  0.4093 -0.9228
   38CHL1   C20 3968   4.419   5.967   5.375 -0.2761 -0.6318  0.8670
   38CHL1   H20 3969   4.391   6.074   5.371  0.5702 -0.3852  1.3059
   38CHL1   C21 3970   4.300   5.867   5.388 -0.9708 -0.1205 -0.5841
   38CHL1  H21A 3971   4.279   5.808   5.296  0.8213 -1.0651 -0.4418
   38CHL1  H21B 3972   4.207   5.922   5.415 -1.9374 -0.5787 -2.7303
   38CHL1  H21C 3973   4.308   5.799   5.476 -2.3419  1.7140  1.0566
   38CHL1   C22 3974   4.488   5.938   5.240  0.2669 -0.0791  0.9166
   38CHL1  H22A 3975   4.591   5.979   5.231  0.6625 -1.2442 -0.1347
   38CHL1  H22B 3976   4.492   5.828   5.222 -1.1222 -0.0688  0.4262
   38CHL1   C23 3977   4.409   5.999   5.115 -0.3493  0.0812  0.0611
   38CHL1  H23A 3978   4.303   5.978   5.141 -0.8650  1.3888 -0.9114
   38CHL1  H23B 3979   4.412   6.110   5.118  3.7942  0.3552 -3.4354
   38CHL1   C24 3980   4.433   5.942   4.978  0.1500  0.0979  0.3050
   38CHL1  H24A 3981   4.540   5.952   4.952  0.3449 -0.9015  0.6628
   38CHL1  H24B 3982   4.425   5.831   4.970 -1.2382  0.2508 -1.1695
   38CHL1   C25 3983   4.352   5.996   4.861  0.5783  0.0699 -0.0519
   38CHL1   H25 3984   4.245   5.973   4.882  0.5824 -0.5439 -0.6625
   38CHL1   C26 3985   4.389   6.133   4.818 -0.0340  0.0381  0.1940
   38CHL1  H26A 3986   4.497   6.134   4.795  0.2390 -1.1837  1.2917
   38CHL1  H26B 3987   4.329   6.167   4.731 -0.3252 -1.2749 -0.1475
   38CHL1  H26C 3988   4.366   6.209   4.895 -1.3494  0.3463 -0.4711
   38CHL1   C27 3989   4.366   5.910   4.733  0.4327  0.4707  0.4226
   38CHL1  H27A 3990   4.286   5.925   4.657  0.9116 -1.0427 -0.4229
   38CHL1  H27B 3991   4.456   5.945   4.677  1.3879 -1.0913  0.9079
   38CHL1  H27C 3992   4.382   5.801   4.742 -0.9122  0.4057  2.7296
   39CHL1    C3 3993   6.297   4.579   6.509  0.7893 -0.8343  0.1575
   39CHL1    H3 3994   6.294   4.468   6.511 -0.8122 -0.8029  0.8364
   39CHL1    O3 3995   6.304   4.629   6.643 -0.1284  0.0084  0.2209
   39CHL1   H3' 3996   6.215   4.650   6.673 -0.5325  0.1966 -1.0494
   39CHL1    C4 3997   6.422   4.615   6.425  0.6522  0.5994 -0.2132
   39CHL1   H4A 3998   6.430   4.725   6.433  0.4187  0.6070 -0.0915
   39CHL1   H4B 3999   6.515   4.577   6.474  1.4529  2.8700  0.1422
   39CHL1    C5 4000   6.416   4.585   6.275  0.6216 -0.2827  0.1186
   39CHL1    C6 4001   6.498   4.495   6.217 -0.3327  1.1449  0.3230
   39CHL1    H6 4002   6.582   4.449   6.273 -1.4177 -0.5874  0.6076
   39CHL1    C7 4003   6.497   4.453   6.076  0.4325  0.0147 -0.0590
   39CHL1   H7A 4004   6.601   4.464   6.039  1.4139 -1.4489  2.0455
   39CHL1   H7B 4005   6.469   4.346   6.069 -2.3419  0.7119 -0.6569
   39CHL1    C8 4006   6.398   4.548   5.995  0.1760  0.5049  1.1458
   39CHL1    H8 4007   6.446   4.647   5.981 -1.3483  0.8316 -3.2875
   39CHL1   C14 4008   6.375   4.489   5.852  0.0383  0.4799 -0.0342
   39CHL1   H14 4009   6.319   4.396   5.871 -2.7250  2.5038  2.7320
   39CHL1   C15 4010   6.503   4.474   5.767  1.0444 -0.9058  0.4470
   39CHL1  H15A 4011   6.572   4.561   5.761  1.1486 -0.8729  1.8244
   39CHL1  H15B 4012   6.568   4.386   5.788  1.0737 -1.4338 -1.5884
   39CHL1   C16 4013   6.438   4.455   5.633 -0.2190  0.0295  0.5777
   39CHL1  H16A 4014   6.486   4.519   5.556 -1.0621  0.3615  0.3086
   39CHL1  H16B 4015   6.440   4.349   5.599 -1.1152 -0.1213  0.9566
   39CHL1   C17 4016   6.291   4.495   5.640  0.4874 -0.2716 -1.1414
   39CHL1   H17 4017   6.235   4.400   5.655  1.4870 -0.6278  0.6586
   39CHL1   C13 4018   6.274   4.572   5.776 -0.1949 -0.5893  0.2840
   39CHL1   C18 4019   6.330   4.719   5.744  0.3802 -0.3430 -0.1305
   39CHL1  H18A 4020   6.427   4.721   5.690  0.7186  2.0051  0.4558
   39CHL1  H18B 4021   6.260   4.781   5.685  3.3086  2.1713 -1.2127
   39CHL1  H18C 4022   6.354   4.775   5.837 -1.4856 -0.1886  0.2850
   39CHL1   C12 4023   6.138   4.573   5.853  0.1607 -0.2110  0.2494
   39CHL1  H12A 4024   6.060   4.631   5.800 -0.1984 -1.3319 -0.4966
   39CHL1  H12B 4025   6.109   4.465   5.855  1.6797 -0.6455  0.1396
   39CHL1   C11 4026   6.155   4.629   5.989  0.0906  0.5324  0.4613
   39CHL1  H11A 4027   6.179   4.736   5.971 -0.2486  0.7966  1.5385
   39CHL1  H11B 4028   6.060   4.621   6.046 -1.5045  1.5567 -1.8851
   39CHL1    C9 4029   6.264   4.570   6.075 -0.1238 -0.3054 -0.0307
   39CHL1    H9 4030   6.227   4.468   6.100 -1.5566  0.2881  0.3509
   39CHL1   C10 4031   6.285   4.643   6.211  0.2269  0.0059 -0.2826
   39CHL1   C19 4032   6.313   4.799   6.190 -0.0880 -0.5222  0.0886
   39CHL1  H19A 4033   6.338   4.861   6.279  0.6155 -0.0635 -0.4221
   39CHL1  H19B 4034   6.410   4.807   6.138  0.3088  0.3206  0.9217
   39CHL1  H19C 4035   6.225   4.839   6.135  0.1071 -1.9959 -1.3756
   39CHL1    C1 4036   6.155   4.618   6.299  0.0321 -0.2622  0.2241
   39CHL1   H1A 4037   6.064   4.670   6.263 -1.2825 -2.3012  0.4680
   39CHL1   H1B 4038   6.126   4.512   6.286 -1.7317  0.2209  0.0339
   39CHL1    C2 4039   6.172   4.651   6.445  0.1098 -0.4486  0.5498
   39CHL1   H2A 4040   6.085   4.616   6.505 -1.5593 -1.5033 -2.3235
   39CHL1   H2B 4041   6.183   4.762   6.448  0.8971 -0.4749 -0.6749
   39CHL1   C20 4042   6.240   4.559   5.503 -0.4119 -0.1665 -0.5173
   39CHL1   H20 4043   6.306   4.645   5.479 -1.7994  1.1572  0.2321
   39CHL1   C21 4044   6.095   4.602   5.511 -0.0316 -0.0668  0.1615
   39CHL1  H21A 4045   6.027   4.517   5.534 -0.4119  0.3076  0.4413
   39CHL1  H21B 4046   6.062   4.650   5.416  1.1317 -0.6758 -0.5778
   39CHL1  H21C 4047   6.080   4.682   5.587  0.2628  0.5544 -0.4195
   39CHL1   C22 4048   6.256   4.459   5.387 -0.2925  0.2587  0.1893
   39CHL1  H22A 4049   6.362   4.431   5.366  0.2475  1.2630  1.4535
   39CHL1  H22B 4050   6.202   4.369   5.422 -1.1075  0.9845  0.8428
   39CHL1   C23 4051   6.197   4.493   5.249  0.8429 -0.3327 -0.1563
   39CHL1  H23A 4052   6.089   4.510   5.263  0.9047 -0.9873  1.4002
   39CHL1  H23B 4053   6.251   4.584   5.215  1.3653 -0.3178  0.6789
   39CHL1   C24 4054   6.219   4.389   5.141 -0.2114  0.2099  0.2985
   39CHL1  H24A 4055   6.326   4.361   5.136 -0.7255 -2.2450  1.5946
   39CHL1  H24B 4056   6.179   4.295   5.183 -1.3182 -0.1624 -1.4691
   39CHL1   C25 4057   6.157   4.416   4.996  0.1339 -0.6287 -0.6532
   39CHL1   H25 4058   6.180   4.520   4.963  1.4461 -0.8415 -0.4392
   39CHL1   C26 4059   6.207   4.322   4.893 -0.1429 -0.0340 -0.4444
   39CHL1  H26A 4060   6.207   4.214   4.920  0.6335 -0.3871 -1.7552
   39CHL1  H26B 4061   6.146   4.340   4.802 -2.3537  1.2332  1.1767
   39CHL1  H26C 4062   6.314   4.341   4.868 -0.6449 -0.3852 -3.1779
   39CHL1   C27 4063   6.006   4.408   4.994  0.1248 -0.5303  0.1220
   39CHL1  H27A 4064   5.978   4.306   5.026 -3.1638  0.1775 -0.2068
   39CHL1  H27B 4065   5.952   4.468   5.070 -2.5695 -0.7931 -1.4668
   39CHL1  H27C 4066   5.960   4.435   4.897 -1.7786 -2.8449  0.3113
   40CHL1    C3 4067   5.247   1.584   6.638  0.1993 -0.6273  0.1390
   40CHL1    H3 4068   5.139   1.593   6.615  0.8121  2.0800 -2.2743
   40CHL1    O3 4069   5.281   1.588   6.779  0.1735  0.1400  0.3056
   40CHL1   H3' 4070   5.374   1.609   6.786  0.4827 -0.9563 -0.1474
   40CHL1    C4 4071   5.303   1.451   6.577  0.1514  0.1652 -0.0612
   40CHL1   H4A 4072   5.412   1.458   6.598  0.6215 -2.6487 -1.2265
   40CHL1   H4B 4073   5.269   1.356   6.623  3.5379 -2.4349 -2.4895
   40CHL1    C5 4074   5.282   1.433   6.427 -0.0056  0.0519 -0.2874
   40CHL1    C6 4075   5.204   1.338   6.374 -0.5715 -0.6428 -0.0726
   40CHL1    H6 4076   5.176   1.247   6.429 -1.4247 -0.8274 -0.7960
   40CHL1    C7 4077   5.189   1.319   6.224  0.2737 -0.3047 -0.7332
   40CHL1   H7A 4078   5.215   1.217   6.189 -2.7307 -0.8560 -1.6222
   40CHL1   H7B 4079   5.086   1.338   6.188  0.3035  2.1291  0.2017
   40CHL1    C8 4080   5.281   1.415   6.141  0.1904  0.4045 -0.0892
   40CHL1    H8 4081   5.378   1.361   6.148 -0.7136 -1.3356 -0.5443
   40CHL1   C14 4082   5.232   1.427   5.997 -0.0997 -0.2264 -0.3158
   40CHL1   H14 4083   5.138   1.486   6.006 -0.0722 -0.4825  2.6111
   40CHL1   C15 4084   5.191   1.294   5.919  0.7086  0.2778  0.3223
   40CHL1  H15A 4085   5.256   1.209   5.947  0.2811 -0.4925 -0.9231
   40CHL1  H15B 4086   5.084   1.273   5.942  0.1527  0.1523 -2.0791
   40CHL1   C16 4087   5.193   1.352   5.772 -0.0763 -0.1681  0.3076
   40CHL1  H16A 4088   5.256   1.281   5.716  2.3270  2.8885 -1.1835
   40CHL1  H16B 4089   5.087   1.363   5.741 -0.2793  0.2079  1.0883
   40CHL1   C17 4090   5.257   1.494   5.771 -0.8521  0.3600 -0.0620
   40CHL1   H17 4091   5.179   1.573   5.777 -0.2626  1.0969 -1.5201
   40CHL1   C13 4092   5.332   1.506   5.907  0.0120  0.0818 -0.2494
   40CHL1   C18 4093   5.468   1.440   5.895  0.2636 -0.0612  0.2672
   40CHL1  H18A 4094   5.451   1.355   5.826 -0.0490 -0.8031  1.2342
   40CHL1  H18B 4095   5.538   1.510   5.845  0.1665 -0.4876 -0.4906
   40CHL1  H18C 4096   5.517   1.400   5.987 -0.9507 -0.7281  0.6400
   40CHL1   C12 4097   5.331   1.652   5.965  1.0594 -0.2126  0.1227
   40CHL1  H12A 4098   5.398   1.731   5.924 -1.9188  2.0140 -0.7417
   40CHL1  H12B 4099   5.230   1.694   5.949  2.0829  1.7966 -1.5815
   40CHL1   C11 4100   5.380   1.645   6.108 -0.3130 -0.2867 -0.7135
   40CHL1  H11A 4101   5.486   1.612   6.110 -0.6202 -1.5281  3.2780
   40CHL1  H11B 4102   5.382   1.749   6.147 -1.2761 -0.3321 -0.5172
   40CHL1    C9 4103   5.292   1.554   6.204  0.4043  0.5048 -0.1381
   40CHL1    H9 4104   5.189   1.595   6.206 -0.3272 -1.2064 -1.3198
   40CHL1   C10 4105   5.344   1.547   6.351 -0.4030  0.1468 -0.2651
   40CHL1   C19 4106   5.504   1.524   6.345  0.1163 -0.1828  0.4068
   40CHL1  H19A 4107   5.551   1.611   6.294  1.2098 -1.2081 -0.3893
   40CHL1  H19B 4108   5.547   1.515   6.447 -0.3318  1.1863  0.7411
   40CHL1  H19C 4109   5.527   1.425   6.300 -2.8884 -0.9350  0.3299
   40CHL1    C1 4110   5.319   1.689   6.418 -0.0718 -0.0061  0.2929
   40CHL1   H1A 4111   5.399   1.758   6.384  0.6899 -0.8306  0.3792
   40CHL1   H1B 4112   5.223   1.728   6.379 -0.3045  0.2715  1.1345
   40CHL1    C2 4113   5.324   1.699   6.569  0.2527 -0.2517 -0.3405
   40CHL1   H2A 4114   5.293   1.802   6.595  2.3380 -0.0199  1.5958
   40CHL1   H2B 4115   5.432   1.696   6.596  0.3221  2.3400 -0.0869
   40CHL1   C20 4116   5.335   1.525   5.645  0.1792 -0.3183 -0.1671
   40CHL1   H20 4117   5.419   1.454   5.636  1.6278  1.1469  1.0277
   40CHL1   C21 4118   5.394   1.670   5.638  0.0281 -0.0495 -0.4479
   40CHL1  H21A 4119   5.443   1.677   5.538 -0.0422  0.1335 -0.4704
   40CHL1  H21B 4120   5.475   1.692   5.710 -0.6721 -1.0189  0.6782
   40CHL1  H21C 4121   5.310   1.743   5.645 -1.3747 -1.6565  0.3339
   40CHL1   C22 4122   5.238   1.513   5.519 -0.7305  0.3915 -0.3189
   40CHL1  H22A 4123   5.128   1.501   5.534 -0.6459 -0.9849 -0.6654
   40CHL1  H22B 4124   5.242   1.606   5.459  2.6588 -0.7146 -2.0825
   40CHL1   C23 4125   5.293   1.402   5.426  0.9846  0.0730 -0.8794
   40CHL1  H23A 4126   5.374   1.442   5.361  0.9892  1.4245 -0.0844
   40CHL1  H23B 4127   5.335   1.324   5.494  0.5671  0.2927 -0.3602
   40CHL1   C24 4128   5.186   1.334   5.337  0.0313 -0.4617  0.3120
   40CHL1  H24A 4129   5.104   1.289   5.397 -2.1397  1.7473 -0.8301
   40CHL1  H24B 4130   5.137   1.414   5.278  3.5803  1.2193 -0.5882
   40CHL1   C25 4131   5.241   1.225   5.251  0.0900 -0.4812 -0.1217
   40CHL1   H25 4132   5.275   1.147   5.323 -0.9603 -0.8995 -0.0584
   40CHL1   C26 4133   5.125   1.157   5.166 -0.0947  0.6906  0.0796
   40CHL1  H26A 4134   5.071   1.217   5.090 -0.3322  1.3969  0.7883
   40CHL1  H26B 4135   5.160   1.066   5.113 -0.7625 -1.2202  2.6955
   40CHL1  H26C 4136   5.045   1.131   5.239 -0.5335  1.5950 -0.0655
   40CHL1   C27 4137   5.339   1.279   5.143  0.6900  0.3996  0.0367
   40CHL1  H27A 4138   5.439   1.304   5.183  1.2154 -0.2651 -0.8339
   40CHL1  H27B 4139   5.359   1.207   5.061 -2.4721  1.2099 -1.6081
   40CHL1  H27C 4140   5.297   1.363   5.083 -1.4248 -0.1389  0.6805
   41CHL1    C3 4141   2.957   2.425   6.513 -0.2752 -0.1898 -0.2316
   41CHL1    H3 4142   3.037   2.488   6.557 -0.3080 -1.0596  1.1807
   41CHL1    O3 4143   2.922   2.339   6.614  0.7548 -0.1390 -0.1905
   41CHL1   H3' 4144   3.005   2.295   6.636  0.3773 -0.3196  0.9581
   41CHL1    C4 4145   2.831   2.505   6.469  0.2102  0.5932 -0.5748
   41CHL1   H4A 4146   2.752   2.427   6.465  0.4891  0.2593  0.1743
   41CHL1   H4B 4147   2.804   2.566   6.557 -1.2509 -1.5019  0.5232
   41CHL1    C5 4148   2.863   2.581   6.340  0.8664 -0.3182  0.1893
   41CHL1    C6 4149   2.822   2.705   6.325  1.1158 -0.6266  0.1134
   41CHL1    H6 4150   2.784   2.760   6.412  1.0207 -0.8751  0.2293
   41CHL1    C7 4151   2.834   2.783   6.191 -0.0231 -0.2157 -0.5677
   41CHL1   H7A 4152   2.745   2.848   6.187  0.5573  1.4248  4.8781
   41CHL1   H7B 4153   2.920   2.852   6.207  0.8799 -0.8978 -2.2587
   41CHL1    C8 4154   2.859   2.685   6.070  0.6128  0.1585 -0.4110
   41CHL1    H8 4155   2.768   2.627   6.041  1.4174 -1.7019  0.6286
   41CHL1   C14 4156   2.898   2.768   5.948  0.2190  0.0409 -0.1848
   41CHL1   H14 4157   2.994   2.820   5.968  0.2517  0.3485 -1.1299
   41CHL1   C15 4158   2.807   2.888   5.891 -1.0330  0.1307 -0.4537
   41CHL1  H15A 4159   2.699   2.866   5.904 -0.8364 -0.4563  0.3000
   41CHL1  H15B 4160   2.842   2.974   5.954  3.0504 -0.0260 -2.1729
   41CHL1   C16 4161   2.840   2.899   5.742 -0.0954 -0.2015 -0.6961
   41CHL1  H16A 4162   2.743   2.884   5.691 -0.9672  1.7662  0.2813
   41CHL1  H16B 4163   2.899   2.987   5.710  1.5441 -1.6432 -1.8527
   41CHL1   C17 4164   2.939   2.787   5.707  0.1804  0.0121 -0.0102
   41CHL1   H17 4165   3.043   2.825   5.722  1.6031 -3.5913  0.1766
   41CHL1   C13 4166   2.922   2.684   5.820 -0.9466 -0.3038  0.4809
   41CHL1   C18 4167   2.805   2.590   5.783  0.1317 -0.1054  0.1502
   41CHL1  H18A 4168   2.824   2.516   5.702  1.6260  0.5064 -0.0828
   41CHL1  H18B 4169   2.780   2.534   5.875 -0.1921  0.8454  0.6505
   41CHL1  H18C 4170   2.717   2.652   5.755  0.0836 -0.2654 -0.0585
   41CHL1   C12 4171   3.048   2.599   5.858  0.4328  0.5318 -0.4329
   41CHL1  H12A 4172   3.073   2.529   5.776 -2.7275 -2.8981  1.2007
   41CHL1  H12B 4173   3.134   2.665   5.882  0.3926  1.0506 -1.6653
   41CHL1   C11 4174   3.016   2.513   5.982 -0.1237  0.8310 -0.8714
   41CHL1  H11A 4175   2.946   2.438   5.938  1.2848 -0.5453 -0.8620
   41CHL1  H11B 4176   3.109   2.457   6.007 -0.1862  1.1072 -0.0049
   41CHL1    C9 4177   2.969   2.588   6.105  0.4198 -0.8171 -0.3758
   41CHL1    H9 4178   3.051   2.648   6.149 -2.1944  2.3045  0.6725
   41CHL1   C10 4179   2.930   2.500   6.225  0.2858  0.0376  0.1032
   41CHL1   C19 4180   2.842   2.385   6.177  0.0325 -0.0981  0.3732
   41CHL1  H19A 4181   2.889   2.322   6.098 -2.1923  0.6243 -1.6838
   41CHL1  H19B 4182   2.812   2.321   6.263  2.8071 -2.0040  0.0451
   41CHL1  H19C 4183   2.759   2.439   6.125  0.7351  1.6516  1.0156
   41CHL1    C1 4184   3.057   2.440   6.287  0.2563  0.4641  0.1504
   41CHL1   H1A 4185   3.119   2.392   6.209  2.4897  1.3374  1.3116
   41CHL1   H1B 4186   3.116   2.524   6.329 -0.7798  1.1503  0.2800
   41CHL1    C2 4187   3.026   2.343   6.403  0.2840 -0.4306  0.5979
   41CHL1   H2A 4188   3.119   2.305   6.452  1.3058  1.0115 -0.1464
   41CHL1   H2B 4189   2.965   2.257   6.369 -0.2504  0.6107 -1.1686
   41CHL1   C20 4190   2.934   2.741   5.560 -0.0294 -0.2750  0.8902
   41CHL1   H20 4191   2.835   2.697   5.533  0.0239  0.4693 -0.6154
   41CHL1   C21 4192   3.047   2.631   5.534  0.8567 -0.0100  0.2030
   41CHL1  H21A 4193   3.058   2.612   5.426 -0.6267 -0.7870  0.1588
   41CHL1  H21B 4194   3.021   2.529   5.570 -0.4344 -0.5979 -2.1989
   41CHL1  H21C 4195   3.138   2.665   5.588  0.3278  0.6793  0.6833
   41CHL1   C22 4196   2.955   2.865   5.471  0.3540 -0.3358  0.4649
   41CHL1  H22A 4197   2.885   2.946   5.499  0.6483  0.1965 -0.3016
   41CHL1  H22B 4198   3.055   2.900   5.507 -0.5153  1.1538  1.5449
   41CHL1   C23 4199   2.946   2.845   5.314  0.7998  0.1145  0.9755
   41CHL1  H23A 4200   2.981   2.936   5.260  4.0082 -1.6368 -0.1781
   41CHL1  H23B 4201   3.021   2.772   5.278  0.4874  0.0447  0.4642
   41CHL1   C24 4202   2.802   2.798   5.262  0.0492 -0.4526 -0.5624
   41CHL1  H24A 4203   2.777   2.707   5.321  1.0059 -0.4813 -0.1797
   41CHL1  H24B 4204   2.737   2.887   5.280 -2.3175 -1.9260 -1.4418
   41CHL1   C25 4205   2.787   2.770   5.112  0.4498  0.1583 -0.5760
   41CHL1   H25 4206   2.679   2.753   5.091  0.5268 -1.6131  0.3288
   41CHL1   C26 4207   2.832   2.890   5.031  0.0004  0.0658  0.5452
   41CHL1  H26A 4208   2.775   2.983   5.054  1.4327  0.8238  1.1720
   41CHL1  H26B 4209   2.935   2.917   5.062 -0.7351  2.0494  1.4611
   41CHL1  H26C 4210   2.826   2.877   4.921 -1.2349  0.1825  0.5758
   41CHL1   C27 4211   2.873   2.653   5.074 -0.0715 -0.3733 -0.3604
   41CHL1  H27A 4212   2.983   2.670   5.083  0.1330  0.3664 -3.2753
   41CHL1  H27B 4213   2.859   2.559   5.132 -2.2087  1.0725  1.6481
   41CHL1  H27C 4214   2.864   2.641   4.964  2.8725  1.0785 -0.8708
   42CHL1    C3 4215   0.556   4.820   6.503  0.7909  0.8513  0.5182
   42CHL1    H3 4216   0.657   4.774   6.507  0.2540 -0.4342 -0.2764
   42CHL1    O3 4217   0.533   4.852   6.644 -0.3869  0.6538  0.1269
   42CHL1   H3' 4218   0.579   4.779   6.686 -2.0177  0.1371  1.0889
   42CHL1    C4 4219   0.547   4.946   6.425 -0.1771  0.3205 -0.0224
   42CHL1   H4A 4220   0.454   5.003   6.446  0.2389  1.9246 -2.2327
   42CHL1   H4B 4221   0.615   5.024   6.465 -1.5056  0.7412  1.5203
   42CHL1    C5 4222   0.557   4.928   6.275  0.8299  0.2520  0.2360
   42CHL1    C6 4223   0.635   5.001   6.195  0.2720 -0.0730  0.7252
   42CHL1    H6 4224   0.692   5.087   6.234  2.6347 -0.9830 -0.5082
   42CHL1    C7 4225   0.633   4.990   6.040 -0.1851  0.8355 -0.3690
   42CHL1   H7A 4226   0.631   5.087   5.985 -0.9232 -0.2342 -2.3216
   42CHL1   H7B 4227   0.724   4.939   6.004  0.4762  0.5131  1.6340
   42CHL1    C8 4228   0.516   4.903   5.985 -0.2732 -0.8151  0.4416
   42CHL1    H8 4229   0.417   4.953   5.984  0.8511  1.5290  0.4878
   42CHL1   C14 4230   0.548   4.864   5.836  0.3683  0.7241  0.1309
   42CHL1   H14 4231   0.635   4.795   5.834 -0.4909 -0.4582 -2.8705
   42CHL1   C15 4232   0.573   4.979   5.738  0.5497  0.1744 -0.8341
   42CHL1  H15A 4233   0.495   5.055   5.758 -0.3019 -0.9598  0.3387
   42CHL1  H15B 4234   0.673   5.026   5.752 -0.4361  1.4041  3.7760
   42CHL1   C16 4235   0.544   4.921   5.603 -0.2127  0.6618 -0.1968
   42CHL1  H16A 4236   0.456   4.969   5.556 -0.0943  0.6870 -0.3960
   42CHL1  H16B 4237   0.631   4.933   5.535 -0.0041 -0.7431 -0.2172
   42CHL1   C17 4238   0.491   4.776   5.625 -0.0189  0.3100  0.9062
   42CHL1   H17 4239   0.583   4.712   5.622 -0.0180  0.3298  0.3099
   42CHL1   C13 4240   0.441   4.776   5.772  0.2362  0.5301  0.0913
   42CHL1   C18 4241   0.296   4.826   5.771 -0.4786  0.9842 -0.1867
   42CHL1  H18A 4242   0.287   4.909   5.698 -0.2546  1.1975  0.0275
   42CHL1  H18B 4243   0.236   4.734   5.756  1.0292  0.0076 -0.4091
   42CHL1  H18C 4244   0.259   4.872   5.865 -2.3476 -0.3793 -0.1992
   42CHL1   C12 4245   0.436   4.644   5.857  0.3849 -0.9789  0.4919
   42CHL1  H12A 4246   0.360   4.571   5.820  0.0064 -0.3215 -0.0416
   42CHL1  H12B 4247   0.537   4.600   5.842  0.5735 -0.4551  0.2225
   42CHL1   C11 4248   0.408   4.677   6.008 -0.1707  0.6026  0.0266
   42CHL1  H11A 4249   0.303   4.711   6.020 -0.1526  0.2480  1.4705
   42CHL1  H11B 4250   0.427   4.584   6.066  0.4656  0.9065  0.3239
   42CHL1    C9 4251   0.505   4.783   6.072 -0.9510  0.7127 -0.9678
   42CHL1    H9 4252   0.602   4.731   6.086 -2.8538 -3.4670 -1.7366
   42CHL1   C10 4253   0.461   4.820   6.217 -0.3093 -0.6453  0.0837
   42CHL1   C19 4254   0.321   4.880   6.219  0.2665 -0.5973 -0.1366
   42CHL1  H19A 4255   0.274   4.884   6.320  2.1929  2.2707  0.7617
   42CHL1  H19B 4256   0.320   4.977   6.166  1.4540 -1.7441 -2.3810
   42CHL1  H19C 4257   0.249   4.817   6.162  0.8139  0.3843 -1.9568
   42CHL1    C1 4258   0.463   4.692   6.308  0.5224  0.0310 -0.0469
   42CHL1   H1A 4259   0.374   4.632   6.277  0.2939  0.3174  0.0500
   42CHL1   H1B 4260   0.554   4.639   6.273 -1.5838 -1.9068 -3.2012
   42CHL1    C2 4261   0.454   4.713   6.458 -0.5735  0.2245  0.5488
   42CHL1   H2A 4262   0.470   4.613   6.503 -0.4586 -0.0828 -0.1579
   42CHL1   H2B 4263   0.352   4.748   6.485 -0.3728  0.8106  0.5466
   42CHL1   C20 4264   0.400   4.726   5.513  0.0927  0.4457 -0.0932
   42CHL1   H20 4265   0.307   4.785   5.501  1.1855  2.1221 -0.6647
   42CHL1   C21 4266   0.371   4.577   5.545 -0.3625  0.2057  0.2810
   42CHL1  H21A 4267   0.458   4.510   5.559  0.8714  1.5613 -0.5702
   42CHL1  H21B 4268   0.305   4.548   5.460 -0.7666  2.9150 -0.4530
   42CHL1  H21C 4269   0.303   4.557   5.631 -0.3741 -1.5770 -0.1115
   42CHL1   C22 4270   0.469   4.727   5.370  0.5103  0.0844  0.4424
   42CHL1  H22A 4271   0.509   4.829   5.351 -1.2790  0.7896  0.2174
   42CHL1  H22B 4272   0.556   4.659   5.372 -0.2802 -1.0813 -1.9764
   42CHL1   C23 4273   0.394   4.665   5.249  0.6890 -0.4955 -0.3586
   42CHL1  H23A 4274   0.452   4.659   5.155  0.7392 -1.5711 -0.2704
   42CHL1  H23B 4275   0.370   4.558   5.268 -0.5604 -0.1805 -0.0682
   42CHL1   C24 4276   0.269   4.745   5.214  0.2252  0.7243  0.4362
   42CHL1  H24A 4277   0.232   4.694   5.123  1.0075  0.5618  0.1982
   42CHL1  H24B 4278   0.194   4.743   5.296 -0.7791  0.7870 -0.4691
   42CHL1   C25 4279   0.280   4.895   5.185 -0.1373  0.5670  0.0849
   42CHL1   H25 4280   0.316   4.941   5.280  2.4698 -1.7957  0.3854
   42CHL1   C26 4281   0.391   4.930   5.078  0.0396  0.0539  0.9646
   42CHL1  H26A 4282   0.361   4.891   4.979  0.5906  0.7015  0.5302
   42CHL1  H26B 4283   0.408   5.039   5.067  0.0003 -0.1420 -1.6711
   42CHL1  H26C 4284   0.482   4.872   5.104 -0.2494 -1.6294 -1.4625
   42CHL1   C27 4285   0.137   4.937   5.133 -0.0808 -0.8609  0.3441
   42CHL1  H27A 4286   0.091   4.864   5.064 -1.4620 -0.3801  0.7109
   42CHL1  H27B 4287   0.069   4.923   5.220 -1.3748  1.9796 -0.0888
   42CHL1  H27C 4288   0.134   5.044   5.103 -0.9764 -0.7712  0.7186
   43CHL1    C3 4289   3.261   0.824   6.383  0.2892  0.1372  0.2850
   43CHL1    H3 4290   3.270   0.934   6.397 -3.6958  1.2090 -3.5429
   43CHL1    O3 4291   3.246   0.761   6.515  0.3790 -0.5076  0.2140
   43CHL1   H3' 4292   3.329   0.768   6.563  0.6410  1.5984 -0.4814
   43CHL1    C4 4293   3.126   0.807   6.302  0.4357 -0.0281 -0.0013
   43CHL1   H4A 4294   3.101   0.699   6.312  3.1834 -0.7499 -0.0500
   43CHL1   H4B 4295   3.038   0.849   6.355  0.3066 -0.9000  0.5025
   43CHL1    C5 4296   3.127   0.832   6.155  0.3760 -0.5911  0.8746
   43CHL1    C6 4297   3.017   0.892   6.102 -0.2943  0.2704  0.2096
   43CHL1    H6 4298   2.944   0.925   6.177  0.8725 -0.3245  1.6410
   43CHL1    C7 4299   3.007   0.925   5.956  0.1620  0.3683 -0.1162
   43CHL1   H7A 4300   2.908   0.898   5.913  0.7599 -2.4908  0.1077
   43CHL1   H7B 4301   3.030   1.032   5.935  3.4889  0.2112  2.0795
   43CHL1    C8 4302   3.119   0.856   5.870 -1.2695 -0.7037  0.1850
   43CHL1    H8 4303   3.100   0.749   5.849  0.5082 -1.1427  0.6971
   43CHL1   C14 4304   3.129   0.929   5.740  0.4040  0.1712 -0.3185
   43CHL1   H14 4305   3.160   1.036   5.746  0.8973  0.0941 -1.3619
   43CHL1   C15 4306   3.006   0.924   5.652 -0.0004 -0.6584  0.2546
   43CHL1  H15A 4307   2.945   0.832   5.659 -0.7560 -0.1922 -0.0715
   43CHL1  H15B 4308   2.937   1.009   5.673  2.3637  1.2656  0.6445
   43CHL1   C16 4309   3.064   0.945   5.506  0.6741 -0.3148 -0.0687
   43CHL1  H16A 4310   3.041   0.858   5.442  0.7034 -0.0953 -0.3802
   43CHL1  H16B 4311   3.032   1.041   5.461  1.4602  0.0769  0.1852
   43CHL1   C17 4312   3.219   0.946   5.525  1.0270  0.0450 -0.5268
   43CHL1   H17 4313   3.239   1.049   5.559 -0.4853 -0.1449  1.0464
   43CHL1   C13 4314   3.241   0.868   5.654 -0.0564 -0.1195  0.0128
   43CHL1   C18 4315   3.223   0.717   5.623  0.5116 -0.1845  0.4474
   43CHL1  H18A 4316   3.301   0.686   5.549 -1.5288  0.6574 -2.1966
   43CHL1  H18B 4317   3.231   0.647   5.710 -0.8712  0.5947  1.2371
   43CHL1  H18C 4318   3.120   0.690   5.592 -0.0122 -0.0309  1.9555
   43CHL1   C12 4319   3.371   0.898   5.727  0.3794 -0.5779  0.0926
   43CHL1  H12A 4320   3.444   0.859   5.652 -0.1660 -2.4772  0.5086
   43CHL1  H12B 4321   3.375   1.008   5.742 -2.1148 -0.3508 -0.5617
   43CHL1   C11 4322   3.379   0.828   5.861 -0.2827  0.5200 -0.4204
   43CHL1  H11A 4323   3.382   0.720   5.835 -1.5889  0.2062  0.6448
   43CHL1  H11B 4324   3.471   0.843   5.922 -1.7888 -0.9878  2.4429
   43CHL1    C9 4325   3.258   0.865   5.944  0.5068  0.0351  0.2270
   43CHL1    H9 4326   3.266   0.973   5.970 -1.2550 -0.0205  1.1841
   43CHL1   C10 4327   3.258   0.790   6.078  0.9756  1.0499 -0.2884
   43CHL1   C19 4328   3.248   0.633   6.056  0.3754 -0.3523  0.0137
   43CHL1  H19A 4329   3.229   0.587   6.155  2.2984 -1.4385 -0.0766
   43CHL1  H19B 4330   3.172   0.599   5.983  0.1965  0.2098 -0.0661
   43CHL1  H19C 4331   3.340   0.584   6.018  0.5497  0.0643 -0.1041
   43CHL1    C1 4332   3.387   0.813   6.162  0.9725  0.1197 -0.5858
   43CHL1   H1A 4333   3.464   0.748   6.116  1.2236  1.4488 -2.1354
   43CHL1   H1B 4334   3.421   0.918   6.147 -1.2695  0.4454 -4.9237
   43CHL1    C2 4335   3.382   0.769   6.310 -0.5287 -0.2839 -0.4485
   43CHL1   H2A 4336   3.471   0.792   6.372 -1.5736  0.5350  0.8360
   43CHL1   H2B 4337   3.376   0.658   6.307  0.5877 -0.4089  0.9576
   43CHL1   C20 4338   3.308   0.923   5.408 -0.3431  0.1313  0.4545
   43CHL1   H20 4339   3.409   0.898   5.449  1.5356  1.7154 -2.7586
   43CHL1   C21 4340   3.317   1.064   5.338 -0.2852 -0.0522 -0.0582
   43CHL1  H21A 4341   3.215   1.107   5.327 -0.3242  0.1512  1.0447
   43CHL1  H21B 4342   3.367   1.063   5.238 -2.6823 -0.5441 -1.3329
   43CHL1  H21C 4343   3.372   1.128   5.410 -0.4615 -0.8210  0.7816
   43CHL1   C22 4344   3.268   0.818   5.304  0.1897  0.0106 -0.1547
   43CHL1  H22A 4345   3.278   0.722   5.358 -1.2036 -0.0745 -0.0082
   43CHL1  H22B 4346   3.163   0.814   5.266 -0.1423  1.0601  0.5986
   43CHL1   C23 4347   3.354   0.820   5.178  0.2320  0.0096 -0.0678
   43CHL1  H23A 4348   3.351   0.910   5.114  0.7075  0.7116  0.8739
   43CHL1  H23B 4349   3.461   0.799   5.198  0.9200  2.1277 -1.2048
   43CHL1   C24 4350   3.303   0.713   5.081 -0.1198 -0.1740 -0.6580
   43CHL1  H24A 4351   3.315   0.612   5.124  0.2641 -0.6926 -1.9167
   43CHL1  H24B 4352   3.195   0.726   5.059 -1.0330 -0.3385  3.1125
   43CHL1   C25 4353   3.376   0.703   4.942 -0.0213  0.0866 -0.0656
   43CHL1   H25 4354   3.354   0.795   4.885  0.9055 -1.2764 -2.7819
   43CHL1   C26 4355   3.530   0.700   4.956 -0.5370  0.2915  0.3291
   43CHL1  H26A 4356   3.582   0.778   5.016  0.5484 -0.4192  0.3523
   43CHL1  H26B 4357   3.564   0.604   5.001 -1.3103  0.2296  0.7869
   43CHL1  H26C 4358   3.589   0.708   4.861 -3.2104  1.6161 -1.3233
   43CHL1   C27 4359   3.332   0.588   4.857 -0.4833  0.2120  0.3777
   43CHL1  H27A 4360   3.391   0.586   4.763  0.4090 -0.6445  0.9509
   43CHL1  H27B 4361   3.349   0.493   4.912 -0.5134  0.6710  1.1990
   43CHL1  H27C 4362   3.226   0.599   4.826 -0.5999  1.8119  1.1940
   44CHL1    C3 4363   1.742   0.911   6.641  0.0929 -1.0637 -0.0292
   44CHL1    H3 4364   1.700   0.813   6.674 -0.3201 -0.6442  0.7429
   44CHL1    O3 4365   1.762   0.991   6.760  0.4705  0.2564  0.4873
   44CHL1   H3' 4366   1.842   1.041   6.742  1.0144 -0.7883 -0.0698
   44CHL1    C4 4367   1.875   0.899   6.564  0.2890  0.6485  0.3167
   44CHL1   H4A 4368   1.911   1.002   6.547 -1.0729  0.7881 -2.1339
   44CHL1   H4B 4369   1.952   0.846   6.624  0.4854 -1.1287 -1.4111
   44CHL1    C5 4370   1.855   0.839   6.426  0.0483 -0.6693  0.0076
   44CHL1    C6 4371   1.929   0.733   6.398  0.5279  0.3841 -1.1396
   44CHL1    H6 4372   1.995   0.687   6.472 -0.4039  0.7637 -0.0456
   44CHL1    C7 4373   1.929   0.668   6.264  0.0032 -0.7904 -0.0485
   44CHL1   H7A 4374   2.033   0.646   6.232 -0.5209 -0.9329 -1.7473
   44CHL1   H7B 4375   1.878   0.570   6.277  1.6470 -1.6026  0.6183
   44CHL1    C8 4376   1.852   0.746   6.154 -0.4970  0.3881  0.4095
   44CHL1    H8 4377   1.916   0.829   6.118  0.0793  0.4507  1.5370
   44CHL1   C14 4378   1.806   0.653   6.036 -0.1305 -0.3268 -0.6473
   44CHL1   H14 4379   1.744   0.578   6.088  3.5049 -1.4300  2.6031
   44CHL1   C15 4380   1.923   0.570   5.968  0.2934  0.0706 -0.5891
   44CHL1  H15A 4381   2.010   0.637   5.950  0.2006  0.4821  0.3974
   44CHL1  H15B 4382   1.959   0.487   6.032 -0.0257  1.7709  1.9553
   44CHL1   C16 4383   1.854   0.525   5.836 -0.2015  0.4451  0.0381
   44CHL1  H16A 4384   1.923   0.558   5.756  2.1142 -2.0029  0.8301
   44CHL1  H16B 4385   1.826   0.418   5.825 -1.2529  0.7840 -0.7051
   44CHL1   C17 4386   1.712   0.597   5.835  0.6892 -0.2505  0.6311
   44CHL1   H17 4387   1.642   0.520   5.874  0.8952 -1.9429 -2.0759
   44CHL1   C13 4388   1.726   0.720   5.926 -0.2324 -0.4528 -0.2833
   44CHL1   C18 4389   1.803   0.822   5.847  0.7383 -0.3722  0.4720
   44CHL1  H18A 4390   1.896   0.784   5.800  1.6398 -0.5969  2.3540
   44CHL1  H18B 4391   1.735   0.861   5.768  0.7260 -0.9780  0.1808
   44CHL1  H18C 4392   1.819   0.917   5.904  0.2924 -0.1103  0.1649
   44CHL1   C12 4393   1.602   0.785   5.995 -0.4920  0.4715  0.1229
   44CHL1  H12A 4394   1.536   0.837   5.923 -0.1638  0.8304  0.0784
   44CHL1  H12B 4395   1.542   0.700   6.033  0.7410 -1.2061 -1.5275
   44CHL1   C11 4396   1.638   0.879   6.114  0.7231 -0.5078  0.5703
   44CHL1  H11A 4397   1.687   0.964   6.061 -0.8440  0.5847  0.8183
   44CHL1  H11B 4398   1.545   0.914   6.163  0.1394 -1.0556 -0.1144
   44CHL1    C9 4399   1.724   0.813   6.215 -0.5147 -0.9435  0.4794
   44CHL1    H9 4400   1.665   0.731   6.261 -1.9149  0.8015  1.9667
   44CHL1   C10 4401   1.756   0.907   6.341 -0.1294 -0.2274 -0.6825
   44CHL1   C19 4402   1.813   1.047   6.287 -0.1506 -0.8337 -0.4363
   44CHL1  H19A 4403   1.729   1.102   6.240 -0.3613 -0.4671  0.3553
   44CHL1  H19B 4404   1.839   1.116   6.370 -0.9072  0.3617 -1.1662
   44CHL1  H19C 4405   1.905   1.032   6.226  0.8874  0.0527  0.8397
   44CHL1    C1 4406   1.624   0.930   6.420  0.1370  0.6650 -0.1230
   44CHL1   H1A 4407   1.567   1.000   6.356 -0.5548 -0.4860 -0.8198
   44CHL1   H1B 4408   1.558   0.841   6.416 -1.5097  1.8935 -1.5109
   44CHL1    C2 4409   1.641   0.988   6.559 -0.4636  0.0766 -0.0185
   44CHL1   H2A 4410   1.549   0.973   6.618 -0.4961 -0.3673 -0.1778
   44CHL1   H2B 4411   1.667   1.096   6.563 -0.9061  0.1518  1.4329
   44CHL1   C20 4412   1.664   0.619   5.691 -0.2391 -0.2333  0.1168
   44CHL1   H20 4413   1.725   0.689   5.631 -3.0502 -1.0983 -4.3221
   44CHL1   C21 4414   1.521   0.675   5.682 -0.0081 -0.0243 -0.3191
   44CHL1  H21A 4415   1.502   0.779   5.715  0.5930  0.1029 -0.3615
   44CHL1  H21B 4416   1.457   0.620   5.754 -0.4462  1.8612  0.7900
   44CHL1  H21C 4417   1.484   0.665   5.577  1.1270 -1.2428 -0.6258
   44CHL1   C22 4418   1.667   0.491   5.603 -0.6055  0.2548  0.0564
   44CHL1  H22A 4419   1.765   0.443   5.625 -0.0772  0.7912 -1.0305
   44CHL1  H22B 4420   1.587   0.425   5.643 -1.3740  1.1200 -0.0250
   44CHL1   C23 4421   1.659   0.499   5.444 -0.0874 -0.0096  0.6116
   44CHL1  H23A 4422   1.594   0.414   5.416  0.6343 -0.5286  0.5066
   44CHL1  H23B 4423   1.603   0.593   5.426 -0.2334 -0.0729  0.7332
   44CHL1   C24 4424   1.793   0.494   5.368  0.6634 -0.0491  0.4246
   44CHL1  H24A 4425   1.868   0.553   5.424  0.1554  0.9158  0.1124
   44CHL1  H24B 4426   1.823   0.387   5.372 -0.2432 -0.4124 -1.3199
   44CHL1   C25 4427   1.783   0.529   5.223  0.2903 -0.3881  0.0753
   44CHL1   H25 4428   1.732   0.444   5.173 -1.3123  1.0463 -0.8473
   44CHL1   C26 4429   1.703   0.654   5.189 -0.6184  0.2254 -1.4249
   44CHL1  H26A 4430   1.700   0.669   5.079 -1.2288  0.9301 -1.3217
   44CHL1  H26B 4431   1.602   0.668   5.232 -0.9447  2.0653 -2.6855
   44CHL1  H26C 4432   1.763   0.741   5.223 -0.8337 -0.5507  1.1313
   44CHL1   C27 4433   1.919   0.532   5.159 -0.3722  1.1367 -0.1457
   44CHL1  H27A 4434   1.962   0.430   5.161 -0.2927  1.1863  0.9193
   44CHL1  H27B 4435   1.891   0.552   5.053 -0.6375 -0.7740 -0.4718
   44CHL1  H27C 4436   1.985   0.608   5.206  2.4337 -0.9083 -0.5079
   45CHL1    C3 4437   3.282   1.687   6.790  0.1504  0.5212  0.4075
   45CHL1    H3 4438   3.363   1.764   6.794  1.0279 -0.3350 -0.3441
   45CHL1    O3 4439   3.265   1.633   6.922 -0.2625 -0.2131  0.0455
   45CHL1   H3' 4440   3.217   1.552   6.900 -1.0015 -0.1932  1.4511
   45CHL1    C4 4441   3.152   1.751   6.744  0.5215 -0.4424 -0.5469
   45CHL1   H4A 4442   3.066   1.682   6.761  0.0416  0.0530 -0.9312
   45CHL1   H4B 4443   3.131   1.836   6.812 -0.2460  0.4753 -1.8976
   45CHL1    C5 4444   3.145   1.803   6.599  0.3998  0.1838 -0.8861
   45CHL1    C6 4445   3.100   1.926   6.565  0.3729  0.7001 -0.9718
   45CHL1    H6 4446   3.059   1.991   6.644 -0.3541  0.7604 -1.3872
   45CHL1    C7 4447   3.099   1.981   6.429  0.2507  0.4479  0.3150
   45CHL1   H7A 4448   3.010   2.048   6.426 -0.1310  0.0811  2.0343
   45CHL1   H7B 4449   3.190   2.043   6.419  2.1702 -2.0207  1.3613
   45CHL1    C8 4450   3.104   1.866   6.329 -0.1444 -0.3353  0.2782
   45CHL1    H8 4451   3.005   1.816   6.331  0.3779 -1.4858 -0.9388
   45CHL1   C14 4452   3.132   1.924   6.192 -0.1611  0.3503 -0.3094
   45CHL1   H14 4453   3.236   1.963   6.189 -0.7965  2.0929 -1.7850
   45CHL1   C15 4454   3.059   2.051   6.163 -1.0370  0.3571 -0.6014
   45CHL1  H15A 4455   2.958   2.050   6.209 -1.0151 -2.3817 -0.4032
   45CHL1  H15B 4456   3.119   2.135   6.203  1.2903 -0.2265 -2.5797
   45CHL1   C16 4457   3.046   2.054   6.010  0.3506 -0.4665  0.0092
   45CHL1  H16A 4458   2.938   2.050   5.985 -0.1058 -1.2251  1.9536
   45CHL1  H16B 4459   3.081   2.152   5.970 -1.2079  0.7057  1.3908
   45CHL1   C17 4460   3.120   1.930   5.959 -0.0818 -0.5261 -0.6436
   45CHL1   H17 4461   3.228   1.956   5.951  0.5198 -2.0980  1.6713
   45CHL1   C13 4462   3.117   1.830   6.079  0.1385 -0.8648 -0.6718
   45CHL1   C18 4463   2.986   1.744   6.081  0.6514 -0.4639  0.3813
   45CHL1  H18A 4464   2.994   1.672   5.997  1.5680  0.0697 -0.0143
   45CHL1  H18B 4465   2.987   1.678   6.170  0.6387 -2.2023 -0.8607
   45CHL1  H18C 4466   2.899   1.812   6.070  1.6169  0.5517 -1.5083
   45CHL1   C12 4467   3.233   1.739   6.096  0.7473 -0.5103  0.6385
   45CHL1  H12A 4468   3.241   1.662   6.017  1.9034  2.7415 -2.7181
   45CHL1  H12B 4469   3.327   1.799   6.104  1.2260 -0.9986 -1.0111
   45CHL1   C11 4470   3.227   1.665   6.238 -0.6415  0.0948 -0.5488
   45CHL1  H11A 4471   3.148   1.588   6.227  0.2163 -1.0649  0.9736
   45CHL1  H11B 4472   3.321   1.609   6.252 -0.7849  0.0778  0.4753
   45CHL1    C9 4473   3.212   1.763   6.358  0.7063  0.4891  0.1149
   45CHL1    H9 4474   3.307   1.821   6.368  0.1947  1.2238  0.8685
   45CHL1   C10 4475   3.195   1.699   6.498 -0.1066 -1.2147 -0.3150
   45CHL1   C19 4476   3.086   1.588   6.479 -0.1578 -0.0409 -0.8383
   45CHL1  H19A 4477   3.055   1.540   6.574  1.7000 -0.3592 -0.3491
   45CHL1  H19B 4478   2.996   1.627   6.428 -0.5780  2.1714  1.3841
   45CHL1  H19C 4479   3.133   1.504   6.424  1.4347  0.5673 -0.4705
   45CHL1    C1 4480   3.333   1.633   6.543  0.0520 -0.2905 -0.4780
   45CHL1   H1A 4481   3.358   1.547   6.477 -0.4371 -1.0551  0.3024
   45CHL1   H1B 4482   3.407   1.716   6.546  0.1385 -0.3883  0.5663
   45CHL1    C2 4483   3.331   1.581   6.688 -0.4401 -0.1788  0.3393
   45CHL1   H2A 4484   3.429   1.537   6.717 -1.1152 -0.9497  1.5027
   45CHL1   H2B 4485   3.259   1.497   6.694  1.2787 -1.7183  0.4540
   45CHL1   C20 4486   3.064   1.881   5.826 -0.3797 -0.6603  0.5739
   45CHL1   H20 4487   2.964   1.836   5.841 -1.8090  1.9725 -0.3305
   45CHL1   C21 4488   3.169   1.775   5.775 -0.1410 -0.3257  0.0423
   45CHL1  H21A 4489   3.154   1.737   5.672  0.5874  0.7339 -0.4815
   45CHL1  H21B 4490   3.170   1.684   5.838  4.8538 -1.7439 -1.6379
   45CHL1  H21C 4491   3.266   1.829   5.773  0.5203 -1.5129 -1.0742
   45CHL1   C22 4492   3.059   1.999   5.716  0.5166 -0.4140 -0.1089
   45CHL1  H22A 4493   2.974   2.064   5.744 -0.7233  0.1405 -4.3979
   45CHL1  H22B 4494   3.154   2.055   5.707  0.6483 -0.5939  0.1533
   45CHL1   C23 4495   3.004   1.966   5.575 -0.2320  0.6499 -0.7474
   45CHL1  H23A 4496   3.090   1.904   5.543  1.2602  0.8425  2.4845
   45CHL1  H23B 4497   2.918   1.896   5.572 -0.2404  0.6595 -0.7404
   45CHL1   C24 4498   2.979   2.098   5.497 -0.0120  0.7775 -0.3946
   45CHL1  H24A 4499   2.896   2.162   5.536  2.0440  1.2306  3.8482
   45CHL1  H24B 4500   3.074   2.155   5.505 -0.0672  0.8316 -0.1243
   45CHL1   C25 4501   2.961   2.063   5.346  0.1426 -0.0297  0.2780
   45CHL1   H25 4502   2.889   1.980   5.331 -1.0241  0.8296  0.9986
   45CHL1   C26 4503   2.904   2.183   5.269  0.3789 -0.2197 -0.3116
   45CHL1  H26A 4504   2.796   2.199   5.288  0.1090 -0.2250 -1.7178
   45CHL1  H26B 4505   2.964   2.275   5.285  0.5498  0.0557 -2.2268
   45CHL1  H26C 4506   2.908   2.155   5.161 -0.4482  0.4410 -0.5229
   45CHL1   C27 4507   3.091   2.015   5.280  0.0278  0.0110 -0.1140
   45CHL1  H27A 4508   3.141   1.937   5.341  2.0185  2.3290  1.3993
   45CHL1  H27B 4509   3.059   1.968   5.184 -1.1725 -2.0718  1.2083
   45CHL1  H27C 4510   3.169   2.090   5.255 -0.7170  0.2319 -1.9178
   46CHL1    C3 4511   3.914   3.667   6.072  0.6794 -0.0125 -0.7072
   46CHL1    H3 4512   3.848   3.756   6.075  1.5357  0.6546 -1.1244
   46CHL1    O3 4513   3.913   3.626   6.213 -0.3648 -0.3726  0.1271
   46CHL1   H3' 4514   3.971   3.550   6.225 -1.0997 -1.0673 -0.5925
   46CHL1    C4 4515   3.829   3.568   5.988  0.1704 -0.2208  0.2460
   46CHL1   H4A 4516   3.876   3.469   6.004  2.0431  0.4965 -0.4974
   46CHL1   H4B 4517   3.727   3.563   6.032  0.6386  1.5001  1.6248
   46CHL1    C5 4518   3.832   3.602   5.840 -0.1216 -0.1800 -0.5003
   46CHL1    C6 4519   3.721   3.610   5.766  0.0987 -0.5747 -0.4089
   46CHL1    H6 4520   3.632   3.596   5.829  3.6927  1.6662  6.0485
   46CHL1    C7 4521   3.703   3.651   5.618 -0.2053  0.2893 -0.1020
   46CHL1   H7A 4522   3.617   3.603   5.568  0.6991 -1.0536 -0.3968
   46CHL1   H7B 4523   3.682   3.760   5.619 -0.4335  0.2478  1.0284
   46CHL1    C8 4524   3.841   3.644   5.551 -0.7686  0.4583  0.0698
   46CHL1    H8 4525   3.854   3.534   5.535  0.5738  0.5494  0.4325
   46CHL1   C14 4526   3.834   3.724   5.418  0.1211 -0.3419 -0.0393
   46CHL1   H14 4527   3.808   3.826   5.452 -0.9396 -0.2400 -1.1061
   46CHL1   C15 4528   3.716   3.685   5.321 -0.5183  0.2166  0.2601
   46CHL1  H15A 4529   3.704   3.575   5.311 -2.0385  0.0390  3.0368
   46CHL1  H15B 4530   3.615   3.728   5.339 -1.6181 -2.1877  0.2306
   46CHL1   C16 4531   3.766   3.746   5.188  0.0330 -0.3620  0.8700
   46CHL1  H16A 4532   3.781   3.654   5.126 -2.2867 -1.4016  1.7523
   46CHL1  H16B 4533   3.697   3.816   5.136  0.1270 -1.3625 -0.6713
   46CHL1   C17 4534   3.903   3.810   5.214 -0.0566  0.0472 -0.0327
   46CHL1   H17 4535   3.883   3.909   5.260  0.7049 -0.0162  0.4564
   46CHL1   C13 4536   3.963   3.726   5.331 -0.1540  0.1362 -0.4782
   46CHL1   C18 4537   4.012   3.587   5.287  0.1189  0.6247  0.3265
   46CHL1  H18A 4538   3.934   3.524   5.240 -0.7495  1.5103  0.5351
   46CHL1  H18B 4539   4.086   3.607   5.207 -0.2606 -0.4448 -0.3160
   46CHL1  H18C 4540   4.060   3.525   5.366  0.2956 -0.1550 -0.3856
   46CHL1   C12 4541   4.072   3.787   5.424 -0.1280 -0.1061 -0.1270
   46CHL1  H12A 4542   4.170   3.776   5.373  1.2010  1.6250  1.8655
   46CHL1  H12B 4543   4.059   3.896   5.435 -0.1475 -0.1250  0.0429
   46CHL1   C11 4544   4.082   3.716   5.555  0.1481  0.5143  0.4409
   46CHL1  H11A 4545   4.113   3.611   5.537  0.0467  0.6796 -0.7454
   46CHL1  H11B 4546   4.167   3.758   5.614  1.3926 -1.9928  0.5615
   46CHL1    C9 4547   3.951   3.704   5.641  0.7395 -0.4942  0.2420
   46CHL1    H9 4548   3.918   3.809   5.656  1.4013 -0.2869  0.2726
   46CHL1   C10 4549   3.971   3.634   5.778 -0.3227 -0.0839 -0.3791
   46CHL1   C19 4550   4.051   3.499   5.769  0.2555  0.1848 -0.2244
   46CHL1  H19A 4551   3.999   3.427   5.702  0.5189 -2.4279  2.2011
   46CHL1  H19B 4552   4.161   3.509   5.752  0.3332  0.8328  0.5850
   46CHL1  H19C 4553   4.026   3.443   5.862 -1.4927 -0.0288 -0.7967
   46CHL1    C1 4554   4.061   3.729   5.864 -0.6518 -0.3522 -1.2798
   46CHL1   H1A 4555   4.165   3.727   5.824  0.3488 -0.6163  1.1498
   46CHL1   H1B 4556   4.021   3.833   5.859 -1.3305 -0.6463 -2.1270
   46CHL1    C2 4557   4.060   3.694   6.016  0.5573 -0.1374  0.3427
   46CHL1   H2A 4558   4.098   3.783   6.072  1.3962 -1.2383  1.5793
   46CHL1   H2B 4559   4.119   3.602   6.029 -0.2015 -1.2438 -3.0102
   46CHL1   C20 4560   3.984   3.837   5.079 -0.0197 -0.0681 -0.8751
   46CHL1   H20 4561   4.008   3.735   5.041 -0.0106 -0.8073  1.0265
   46CHL1   C21 4562   4.112   3.914   5.108  0.0535  0.4472 -0.1313
   46CHL1  H21A 4563   4.093   3.983   5.192 -1.9970  0.7037 -0.7725
   46CHL1  H21B 4564   4.149   3.962   5.015 -0.6711  1.2477 -0.0062
   46CHL1  H21C 4565   4.185   3.836   5.140  1.3567  1.3696 -0.7174
   46CHL1   C22 4566   3.907   3.911   4.970  0.0146 -0.2749 -0.0723
   46CHL1  H22A 4567   3.987   3.929   4.895  0.7154 -2.4988  0.0682
   46CHL1  H22B 4568   3.832   3.843   4.924 -0.0793 -0.6472  0.6276
   46CHL1   C23 4569   3.842   4.044   5.006  1.0647 -0.5134  0.0834
   46CHL1  H23A 4570   3.770   4.020   5.086  2.6833 -1.9221  1.2036
   46CHL1  H23B 4571   3.920   4.105   5.057  0.4500  0.3800 -0.0259
   46CHL1   C24 4572   3.793   4.114   4.881  0.6081 -0.1932  0.2917
   46CHL1  H24A 4573   3.873   4.167   4.825 -0.1830  0.5634 -0.1450
   46CHL1  H24B 4574   3.760   4.037   4.808  0.0786 -1.5284  1.8816
   46CHL1   C25 4575   3.679   4.205   4.902  0.2112  0.1920 -0.7590
   46CHL1   H25 4576   3.591   4.148   4.940 -0.2294 -0.6070 -2.8268
   46CHL1   C26 4577   3.710   4.310   5.013  0.2547 -0.4377 -0.7133
   46CHL1  H26A 4578   3.790   4.382   4.986  0.0888  0.5240  1.1963
   46CHL1  H26B 4579   3.615   4.364   5.032 -0.3875 -1.4682 -0.9471
   46CHL1  H26C 4580   3.729   4.259   5.110  1.1916 -0.4291 -0.8808
   46CHL1   C27 4581   3.636   4.275   4.771 -0.1858  0.4775  0.0017
   46CHL1  H27A 4582   3.571   4.362   4.794  0.4395  1.1213 -0.5964
   46CHL1  H27B 4583   3.728   4.322   4.729  0.3739  0.4853  1.1978
   46CHL1  H27C 4584   3.602   4.204   4.694  2.6014 -0.2628 -0.6806
   47CHL1    C3 4585   4.588   4.122   6.321  0.1351 -0.2962  0.1155
   47CHL1    H3 4586   4.536   4.219   6.328  0.1712 -0.2655 -0.0385
   47CHL1    O3 4587   4.594   4.083   6.457 -0.1968 -0.0679  0.5479
   47CHL1   H3' 4588   4.658   4.137   6.505  0.3655  0.5865 -0.9002
   47CHL1    C4 4589   4.506   4.013   6.251 -0.4576  0.3320  0.0759
   47CHL1   H4A 4590   4.541   3.910   6.270 -1.1572  0.4396  2.2266
   47CHL1   H4B 4591   4.406   4.006   6.300 -0.4604 -4.3828 -0.1584
   47CHL1    C5 4592   4.501   4.038   6.102 -0.0592  0.6398  0.3121
   47CHL1    C6 4593   4.382   4.046   6.034 -0.2174  0.1917  0.6663
   47CHL1    H6 4594   4.286   4.040   6.087  1.0946  0.3898  3.2459
   47CHL1    C7 4595   4.369   4.079   5.889 -0.2655 -0.0046  0.3188
   47CHL1   H7A 4596   4.285   4.018   5.851  0.9658 -0.7822 -1.2408
   47CHL1   H7B 4597   4.342   4.186   5.878 -2.0228 -0.5137 -0.7795
   47CHL1    C8 4598   4.494   4.051   5.807  0.2744 -0.3172 -0.2288
   47CHL1    H8 4599   4.501   3.941   5.789  1.9052 -0.1020 -1.1291
   47CHL1   C14 4600   4.482   4.108   5.663  0.0061 -0.4857  0.0864
   47CHL1   H14 4601   4.469   4.218   5.675  0.0231 -0.3191 -1.2761
   47CHL1   C15 4602   4.373   4.054   5.579 -0.6290 -0.6832  0.7368
   47CHL1  H15A 4603   4.358   3.944   5.575 -1.4331 -0.5779 -2.5785
   47CHL1  H15B 4604   4.276   4.103   5.603 -0.6594 -0.1302 -0.4365
   47CHL1   C16 4605   4.421   4.087   5.428 -0.4672 -0.5506 -0.3546
   47CHL1  H16A 4606   4.420   3.990   5.375  0.4437 -0.7217 -0.0752
   47CHL1  H16B 4607   4.342   4.151   5.382  0.0491  0.7721  0.5259
   47CHL1   C17 4608   4.558   4.158   5.445 -0.3512 -0.7960 -0.3880
   47CHL1   H17 4609   4.544   4.267   5.466 -0.0408 -0.7185 -0.5860
   47CHL1   C13 4610   4.610   4.099   5.581 -0.4089  0.2698 -0.0493
   47CHL1   C18 4611   4.660   3.954   5.542  0.4348  0.4875 -0.3625
   47CHL1  H18A 4612   4.649   3.885   5.629 -1.3386  0.6673 -0.4243
   47CHL1  H18B 4613   4.606   3.901   5.461 -1.9418 -1.9186  2.5546
   47CHL1  H18C 4614   4.768   3.961   5.516  0.7687  0.1755  0.8434
   47CHL1   C12 4615   4.723   4.177   5.652 -0.3876 -0.5037 -0.0850
   47CHL1  H12A 4616   4.816   4.159   5.594 -2.3948  0.9490 -4.1418
   47CHL1  H12B 4617   4.694   4.284   5.658  2.6856  0.3886  0.4602
   47CHL1   C11 4618   4.741   4.125   5.800  0.0135 -0.0965  0.1020
   47CHL1  H11A 4619   4.787   4.024   5.798 -1.7355 -1.0656  3.0449
   47CHL1  H11B 4620   4.812   4.196   5.848  0.0818  0.5008 -0.8520
   47CHL1    C9 4621   4.616   4.114   5.886  1.1302  0.1195 -0.2999
   47CHL1    H9 4622   4.579   4.215   5.909 -1.3840 -0.3597 -1.8607
   47CHL1   C10 4623   4.638   4.055   6.031 -0.1516  0.2250 -0.1784
   47CHL1   C19 4624   4.702   3.915   6.016 -0.8554 -0.7948 -0.0754
   47CHL1  H19A 4625   4.805   3.933   5.979 -1.0794  0.3753 -0.1619
   47CHL1  H19B 4626   4.718   3.866   6.115  1.6565  1.1550  0.5867
   47CHL1  H19C 4627   4.640   3.855   5.946  1.4154 -1.6200 -1.4823
   47CHL1    C1 4628   4.724   4.155   6.107  0.7278 -0.1212 -0.3322
   47CHL1   H1A 4629   4.827   4.162   6.064  0.1866  1.1328 -1.5333
   47CHL1   H1B 4630   4.667   4.251   6.104 -0.9511 -1.0888 -0.4330
   47CHL1    C2 4631   4.735   4.127   6.257  0.1696 -0.2236  0.3893
   47CHL1   H2A 4632   4.793   4.208   6.305  0.4722 -0.7588  0.9259
   47CHL1   H2B 4633   4.780   4.031   6.290  1.6304 -0.0179 -0.8982
   47CHL1   C20 4634   4.656   4.149   5.326 -0.7835  0.0056  0.9026
   47CHL1   H20 4635   4.693   4.046   5.304 -0.6166  0.3126 -0.3719
   47CHL1   C21 4636   4.782   4.243   5.335 -0.1172 -0.6751  0.2580
   47CHL1  H21A 4637   4.822   4.276   5.236  0.7142  2.2842  1.4635
   47CHL1  H21B 4638   4.859   4.199   5.403 -0.4717 -0.7798  0.5909
   47CHL1  H21C 4639   4.746   4.338   5.380 -1.6708  0.2885 -2.7441
   47CHL1   C22 4640   4.573   4.185   5.195  0.8672 -0.3554 -0.1770
   47CHL1  H22A 4641   4.652   4.158   5.121  0.4158 -0.5709 -0.5916
   47CHL1  H22B 4642   4.487   4.118   5.170  0.2568  0.1825  0.4503
   47CHL1   C23 4643   4.520   4.327   5.181  0.2394 -1.0574  0.4279
   47CHL1  H23A 4644   4.430   4.341   5.245  0.3435 -1.7013  0.7231
   47CHL1  H23B 4645   4.591   4.398   5.228  2.6675 -2.0654 -1.5135
   47CHL1   C24 4646   4.483   4.374   5.040  0.0895 -0.2642 -0.5975
   47CHL1  H24A 4647   4.475   4.485   5.046  2.0285 -0.1713  2.0690
   47CHL1  H24B 4648   4.578   4.354   4.986  0.4403 -0.2122 -0.0143
   47CHL1   C25 4649   4.369   4.312   4.967  0.1843 -0.7533  0.3152
   47CHL1   H25 4650   4.402   4.207   4.950 -0.0358 -0.7217 -0.3468
   47CHL1   C26 4651   4.246   4.325   5.056  0.1127 -0.1703  0.0499
   47CHL1  H26A 4652   4.153   4.287   5.009 -0.0053  0.7477 -0.4693
   47CHL1  H26B 4653   4.254   4.258   5.145  0.2563 -0.7085 -0.3664
   47CHL1  H26C 4654   4.239   4.429   5.094  1.1068 -0.3480  0.7554
   47CHL1   C27 4655   4.348   4.384   4.835 -0.4490 -0.0445 -0.7801
   47CHL1  H27A 4656   4.448   4.388   4.787 -0.2086 -1.9076 -0.5227
   47CHL1  H27B 4657   4.275   4.326   4.775  0.1862 -0.8872 -0.7684
   47CHL1  H27C 4658   4.310   4.486   4.859 -0.6865 -0.7465  2.1837
   48CHL1    C3 4659   6.799   2.811   6.021 -0.4570  0.5006 -0.9368
   48CHL1    H3 4660   6.844   2.709   6.014 -2.5995 -0.4730 -1.2997
   48CHL1    O3 4661   6.749   2.828   6.153 -0.0518 -0.0041  0.3182
   48CHL1   H3' 4662   6.700   2.911   6.154  0.2123  0.1577  1.8618
   48CHL1    C4 4663   6.883   2.934   5.986  0.0401  0.7382  0.3702
   48CHL1   H4A 4664   6.813   3.020   5.994 -1.9554 -0.7386 -0.4252
   48CHL1   H4B 4665   6.966   2.955   6.056 -0.3277 -0.0112  1.0417
   48CHL1    C5 4666   6.936   2.918   5.842  0.6639 -0.2148  0.1757
   48CHL1    C6 4667   7.064   2.898   5.820 -0.1676  0.5450 -0.2276
   48CHL1    H6 4668   7.139   2.896   5.901 -0.6551 -0.5788  0.2269
   48CHL1    C7 4669   7.122   2.871   5.686  0.8877 -0.1792 -0.6824
   48CHL1   H7A 4670   7.221   2.921   5.675  0.5150  0.6778 -0.2385
   48CHL1   H7B 4671   7.145   2.763   5.677  2.1345  0.0451 -0.3339
   48CHL1    C8 4672   7.025   2.918   5.567  0.3662 -0.0467 -0.0644
   48CHL1    H8 4673   7.027   3.029   5.565 -1.1147  0.0026  0.4502
   48CHL1   C14 4674   7.061   2.866   5.430  0.6192  0.1254  0.1717
   48CHL1   H14 4675   7.064   2.756   5.422  0.1127 -0.0029  1.5408
   48CHL1   C15 4676   7.200   2.915   5.375  0.1986  0.0418 -0.1808
   48CHL1  H15A 4677   7.233   3.019   5.394  0.3819  0.0854 -0.7060
   48CHL1  H15B 4678   7.281   2.860   5.426  1.6190  0.4272 -1.9298
   48CHL1   C16 4679   7.181   2.893   5.222 -0.3245 -0.4974  0.3219
   48CHL1  H16A 4680   7.209   2.986   5.168 -0.1262 -2.9262 -4.2619
   48CHL1  H16B 4681   7.250   2.816   5.183  0.6580  1.2025 -1.4747
   48CHL1   C17 4682   7.033   2.853   5.193  0.1378  0.0380 -0.3818
   48CHL1   H17 4683   7.037   2.741   5.195  0.6344  0.0435 -0.9187
   48CHL1   C13 4684   6.959   2.899   5.312 -0.5336 -0.0939 -0.2784
   48CHL1   C18 4685   6.947   3.052   5.305 -1.0244 -0.0375 -0.1527
   48CHL1  H18A 4686   7.040   3.104   5.277 -0.2214 -0.1167  2.1352
   48CHL1  H18B 4687   6.862   3.076   5.238 -1.2849  1.1927  0.5742
   48CHL1  H18C 4688   6.920   3.090   5.406  1.2200  0.9262  0.1412
   48CHL1   C12 4689   6.831   2.827   5.349  0.8336 -0.1717 -0.4511
   48CHL1  H12A 4690   6.752   2.859   5.278  0.6856 -0.8880 -0.6214
   48CHL1  H12B 4691   6.854   2.719   5.338  1.0173  0.0864 -3.2790
   48CHL1   C11 4692   6.771   2.881   5.486  0.0641  0.1365 -0.1699
   48CHL1  H11A 4693   6.735   2.985   5.470  2.0659  0.7218 -1.3820
   48CHL1  H11B 4694   6.684   2.817   5.508 -0.2399  0.4040 -0.5757
   48CHL1    C9 4695   6.876   2.870   5.600 -0.4671 -0.1487  0.0818
   48CHL1    H9 4696   6.896   2.760   5.608 -1.2822 -0.2023  1.9336
   48CHL1   C10 4697   6.826   2.911   5.742  0.6764 -0.0798  0.7916
   48CHL1   C19 4698   6.753   3.049   5.719 -0.4923  0.7413  0.2324
   48CHL1  H19A 4699   6.716   3.095   5.814 -1.5323  0.0979  0.1473
   48CHL1  H19B 4700   6.819   3.123   5.669 -0.0612  0.9913  1.1498
   48CHL1  H19C 4701   6.660   3.040   5.659 -0.7870 -0.7676  0.8786
   48CHL1    C1 4702   6.729   2.809   5.790 -0.0092  1.4078  0.3189
   48CHL1   H1A 4703   6.646   2.817   5.718 -0.0128  0.8160  0.2502
   48CHL1   H1B 4704   6.771   2.708   5.769  1.5415  2.5520 -2.5216
   48CHL1    C2 4705   6.679   2.812   5.926 -0.1130  0.9668 -0.4758
   48CHL1   H2A 4706   6.620   2.720   5.949 -0.5445  1.1823 -0.7138
   48CHL1   H2B 4707   6.624   2.907   5.937  3.1727  2.9385  0.3887
   48CHL1   C20 4708   6.977   2.880   5.058  0.3953  0.3848 -0.3915
   48CHL1   H20 4709   6.866   2.875   5.064  0.4351  0.8001  1.3131
   48CHL1   C21 4710   7.038   2.775   4.961  0.2343 -0.1948  1.4449
   48CHL1  H21A 4711   7.018   2.795   4.854  0.5635 -0.0173  1.4131
   48CHL1  H21B 4712   7.149   2.768   4.964  0.4829  1.1429 -1.5738
   48CHL1  H21C 4713   6.983   2.684   4.992 -2.7267  0.7979 -0.4567
   48CHL1   C22 4714   7.002   3.013   4.983 -0.0522  0.4497  0.5631
   48CHL1  H22A 4715   7.000   3.100   5.053 -1.0731  2.1265 -1.4260
   48CHL1  H22B 4716   7.105   3.003   4.943 -0.3703  1.1742 -0.4961
   48CHL1   C23 4717   6.891   3.061   4.885  0.3389  0.0050 -0.0389
   48CHL1  H23A 4718   6.889   2.984   4.805  0.9735  0.5135 -0.5590
   48CHL1  H23B 4719   6.796   3.089   4.935  0.1977  0.6179 -0.6361
   48CHL1   C24 4720   6.939   3.192   4.825 -0.5406 -0.7624 -0.1945
   48CHL1  H24A 4721   6.947   3.269   4.905 -2.5581 -1.0202  0.3150
   48CHL1  H24B 4722   7.039   3.179   4.779  0.5726  2.2554  1.0729
   48CHL1   C25 4723   6.842   3.265   4.735 -0.8187 -0.1603 -0.7214
   48CHL1   H25 4724   6.741   3.239   4.775 -1.8650  3.2555 -0.7687
   48CHL1   C26 4725   6.848   3.422   4.754  0.2807 -0.4907 -0.1996
   48CHL1  H26A 4726   6.828   3.450   4.860 -0.4246 -0.8804 -0.2216
   48CHL1  H26B 4727   6.944   3.462   4.716  1.3571 -1.9470  0.9126
   48CHL1  H26C 4728   6.768   3.475   4.697  0.7978 -1.1109 -1.5311
   48CHL1   C27 4729   6.835   3.234   4.583 -0.0972  0.1501  0.5163
   48CHL1  H27A 4730   6.917   3.287   4.530 -0.9795  0.2634 -0.7623
   48CHL1  H27B 4731   6.845   3.127   4.552 -0.9611  0.0708  0.5002
   48CHL1  H27C 4732   6.751   3.287   4.534  0.5236  0.2861 -0.4264
   49CHL1    C3 4733   5.625   2.498   3.009 -0.4275 -0.0149 -0.4356
   49CHL1    H3 4734   5.518   2.474   3.030 -1.1626  1.7122 -1.9532
   49CHL1    O3 4735   5.640   2.477   2.875 -0.2918 -0.7051 -0.0094
   49CHL1   H3' 4736   5.660   2.383   2.865  0.1888 -0.7757  1.3981
   49CHL1    C4 4737   5.655   2.638   3.049 -0.5354 -0.5478 -0.4523
   49CHL1   H4A 4738   5.761   2.661   3.026 -0.3492 -1.5970 -0.6966
   49CHL1   H4B 4739   5.595   2.707   2.987  0.0831  1.3037  0.9092
   49CHL1    C5 4740   5.630   2.665   3.194  0.1936  0.2013 -0.2061
   49CHL1    C6 4741   5.542   2.762   3.233  0.7920  0.1569 -0.3270
   49CHL1    H6 4742   5.493   2.822   3.155 -1.1974  1.9557  2.1210
   49CHL1    C7 4743   5.528   2.806   3.376  0.6945 -0.2900 -0.3056
   49CHL1   H7A 4744   5.534   2.917   3.369  0.9388 -0.3817 -4.3700
   49CHL1   H7B 4745   5.434   2.770   3.422  1.0685 -1.8348 -0.6904
   49CHL1    C8 4746   5.631   2.743   3.470  0.1577 -0.7529 -0.7545
   49CHL1    H8 4747   5.722   2.806   3.460  0.8901 -1.4464  1.1356
   49CHL1   C14 4748   5.592   2.749   3.620  0.4781  0.3448  0.6560
   49CHL1   H14 4749   5.508   2.676   3.626  0.3594  0.6034  4.5007
   49CHL1   C15 4750   5.528   2.878   3.678 -0.0241  0.1930  0.1715
   49CHL1  H15A 4751   5.579   2.964   3.632  0.8810 -0.1530  0.5044
   49CHL1  H15B 4752   5.417   2.886   3.674  0.0813  2.4079  0.6404
   49CHL1   C16 4753   5.558   2.859   3.825  0.1441  0.5499  0.2255
   49CHL1  H16A 4754   5.636   2.937   3.842  0.7386  0.0803 -0.2887
   49CHL1  H16B 4755   5.474   2.882   3.894 -1.2856 -0.2245 -1.1872
   49CHL1   C17 4756   5.624   2.715   3.850  0.1623 -0.0157 -0.3027
   49CHL1   H17 4757   5.543   2.639   3.852  0.7262 -0.6360 -0.6778
   49CHL1   C13 4758   5.699   2.695   3.715  0.1916 -0.5364  0.3617
   49CHL1   C18 4759   5.833   2.774   3.707 -0.0252 -0.1462  0.5916
   49CHL1  H18A 4760   5.808   2.882   3.702 -1.0540 -0.3103  1.6593
   49CHL1  H18B 4761   5.898   2.757   3.795 -0.6641  0.6801  1.2343
   49CHL1  H18C 4762   5.897   2.751   3.619  1.4086  2.5202  0.8422
   49CHL1   C12 4763   5.733   2.544   3.680  0.5985 -0.2441  0.2617
   49CHL1  H12A 4764   5.821   2.516   3.740 -0.2208 -0.1662  1.5424
   49CHL1  H12B 4765   5.640   2.488   3.702 -0.6796  1.2044 -1.1455
   49CHL1   C11 4766   5.760   2.527   3.529  0.1368  0.3429 -0.3291
   49CHL1  H11A 4767   5.867   2.556   3.523  0.8530 -0.1036  5.2024
   49CHL1  H11B 4768   5.761   2.416   3.520  2.0180  0.0765  2.1629
   49CHL1    C9 4769   5.668   2.596   3.431 -0.1561 -0.1188 -0.0396
   49CHL1    H9 4770   5.570   2.544   3.434 -0.2143 -0.1918 -1.9587
   49CHL1   C10 4771   5.719   2.577   3.290 -0.0187 -0.5343  0.6734
   49CHL1   C19 4772   5.869   2.620   3.276  0.7594 -0.2910  0.2075
   49CHL1  H19A 4773   5.877   2.723   3.316 -1.3975  0.1932 -0.5042
   49CHL1  H19B 4774   5.940   2.546   3.319  0.8520  0.3177  1.1312
   49CHL1  H19C 4775   5.894   2.638   3.169  1.1312 -0.3101  0.2893
   49CHL1    C1 4776   5.697   2.432   3.235  0.4556  0.4063  0.4301
   49CHL1   H1A 4777   5.745   2.353   3.297 -1.7775 -2.2621 -1.0091
   49CHL1   H1B 4778   5.588   2.413   3.248 -0.0729  2.4585 -0.5875
   49CHL1    C2 4779   5.714   2.399   3.084 -0.2711 -0.5134 -0.0773
   49CHL1   H2A 4780   5.686   2.293   3.066  0.3064 -0.6937  0.0627
   49CHL1   H2B 4781   5.820   2.408   3.054  0.1249 -2.2126  0.6589
   49CHL1   C20 4782   5.705   2.689   3.985  0.0711  0.2074  0.6012
   49CHL1   H20 4783   5.779   2.611   3.958 -2.5328 -1.6882 -1.6899
   49CHL1   C21 4784   5.612   2.620   4.094  0.0695 -0.3598  0.1835
   49CHL1  H21A 4785   5.679   2.582   4.174 -0.3838  0.6184  1.0553
   49CHL1  H21B 4786   5.557   2.527   4.069 -1.1783 -0.8471  4.0246
   49CHL1  H21C 4787   5.528   2.690   4.114 -0.7745 -0.0085 -3.8566
   49CHL1   C22 4788   5.769   2.820   4.051 -0.2551  0.1547  0.2724
   49CHL1  H22A 4789   5.840   2.866   3.979  1.4602  0.3236  2.0021
   49CHL1  H22B 4790   5.684   2.891   4.060 -0.6340 -0.3043  0.4036
   49CHL1   C23 4791   5.849   2.794   4.174  0.6363  0.6106 -0.5635
   49CHL1  H23A 4792   5.788   2.735   4.245 -0.7454  3.2189  0.5501
   49CHL1  H23B 4793   5.937   2.741   4.133  0.7632  0.0059  0.4670
   49CHL1   C24 4794   5.900   2.920   4.237 -0.4628 -1.0387  0.0487
   49CHL1  H24A 4795   5.933   3.003   4.170  1.1210 -1.3077  0.4617
   49CHL1  H24B 4796   5.817   2.948   4.306 -0.8601  2.0394 -1.4996
   49CHL1   C25 4797   6.016   2.891   4.339 -0.1015 -0.4262  0.5395
   49CHL1   H25 4798   6.049   2.981   4.394 -0.6140 -0.3726  0.7601
   49CHL1   C26 4799   5.978   2.786   4.448 -0.3040 -0.0667  0.2702
   49CHL1  H26A 4800   6.065   2.783   4.517  1.6167 -1.5988 -2.0571
   49CHL1  H26B 4801   5.874   2.803   4.484 -0.7763 -0.2531 -0.9333
   49CHL1  H26C 4802   5.987   2.691   4.392  2.0978 -0.3847  1.0864
   49CHL1   C27 4803   6.151   2.858   4.269 -0.0395 -0.0165 -0.2633
   49CHL1  H27A 4804   6.201   2.949   4.231  2.9304 -1.8837 -1.1732
   49CHL1  H27B 4805   6.218   2.818   4.349 -0.9903 -1.1563  0.0016
   49CHL1  H27C 4806   6.150   2.789   4.182  2.6466  0.7227 -0.9882
   50CHL1    C3 4807   2.081   0.277   2.961 -0.2241 -0.1010 -0.3687
   50CHL1    H3 4808   1.988   0.318   3.006 -1.9316 -1.0563 -2.8051
   50CHL1    O3 4809   2.083   0.304   2.824 -0.0771  0.5201  0.2774
   50CHL1   H3' 4810   2.168   0.274   2.790 -0.2135  0.7814 -0.3188
   50CHL1    C4 4811   2.198   0.356   3.023 -0.2736  0.3369 -0.5420
   50CHL1   H4A 4812   2.283   0.326   2.958 -2.2034 -0.7924 -2.6863
   50CHL1   H4B 4813   2.181   0.465   3.010 -0.1063  0.2883 -1.1792
   50CHL1    C5 4814   2.230   0.313   3.170 -0.4420 -0.2250  0.5718
   50CHL1    C6 4815   2.236   0.400   3.266 -0.6471 -0.3325  0.2790
   50CHL1    H6 4816   2.236   0.506   3.238  1.6450 -0.5851 -0.8946
   50CHL1    C7 4817   2.270   0.370   3.410  0.1257  0.0804 -0.2877
   50CHL1   H7A 4818   2.324   0.456   3.457 -0.4663  1.0622 -1.3487
   50CHL1   H7B 4819   2.172   0.373   3.462 -1.2964 -1.0206 -2.7400
   50CHL1    C8 4820   2.331   0.228   3.428  0.3782  0.1274 -0.5252
   50CHL1    H8 4821   2.438   0.226   3.399  0.6466  1.1375  0.3305
   50CHL1   C14 4822   2.324   0.183   3.576 -0.2550 -0.2299 -0.2402
   50CHL1   H14 4823   2.218   0.190   3.610  0.5315  0.1637  2.3795
   50CHL1   C15 4824   2.414   0.266   3.668  0.5359  0.2247 -0.4349
   50CHL1  H15A 4825   2.513   0.288   3.622 -0.0409  2.5598 -0.7361
   50CHL1  H15B 4826   2.353   0.355   3.695 -0.3599  0.0203 -1.7078
   50CHL1   C16 4827   2.434   0.181   3.793 -0.9022  0.1732 -0.1932
   50CHL1  H16A 4828   2.541   0.161   3.816 -0.5566  2.7800  0.8062
   50CHL1  H16B 4829   2.393   0.233   3.882 -2.4018 -1.4823  0.1252
   50CHL1   C17 4830   2.363   0.046   3.767 -0.1531 -0.6585  0.0165
   50CHL1   H17 4831   2.260   0.069   3.802 -0.3569 -3.2281  1.2991
   50CHL1   C13 4832   2.359   0.036   3.613 -0.2199 -0.3986  0.2633
   50CHL1   C18 4833   2.506  -0.007   3.563  1.0484 -0.0153 -1.0935
   50CHL1  H18A 4834   2.587   0.047   3.617  1.5315 -2.5625  0.9569
   50CHL1  H18B 4835   2.522  -0.114   3.591  2.0121  0.5484  0.6964
   50CHL1  H18C 4836   2.519  -0.003   3.453 -2.6365 -2.6373 -1.8513
   50CHL1   C12 4837   2.261  -0.060   3.537 -0.5620 -0.6906  0.5878
   50CHL1  H12A 4838   2.294  -0.166   3.537  0.8901 -0.2704 -1.2019
   50CHL1  H12B 4839   2.158  -0.046   3.577 -0.2562  0.7001  0.9106
   50CHL1   C11 4840   2.259  -0.024   3.389 -0.9251  0.6038 -0.3325
   50CHL1  H11A 4841   2.351  -0.058   3.337 -0.9794  1.4280 -0.9690
   50CHL1  H11B 4842   2.178  -0.085   3.343  0.7026 -2.0608  0.0625
   50CHL1    C9 4843   2.241   0.127   3.349  0.9018  0.2055 -0.0518
   50CHL1    H9 4844   2.145   0.156   3.396  2.0809  0.9950  2.0240
   50CHL1   C10 4845   2.243   0.169   3.196 -0.4108  0.8285  0.2390
   50CHL1   C19 4846   2.374   0.116   3.128 -0.2881 -0.0229  0.1000
   50CHL1  H19A 4847   2.379   0.155   3.024 -1.4610  1.0263  0.4023
   50CHL1  H19B 4848   2.467   0.150   3.177  0.4867 -2.1158  0.1617
   50CHL1  H19C 4849   2.375   0.006   3.121 -0.5822 -0.2021  2.1231
   50CHL1    C1 4850   2.124   0.091   3.138 -0.4175 -0.5466  0.2323
   50CHL1   H1A 4851   2.138  -0.019   3.143  2.3358 -0.3751 -1.9104
   50CHL1   H1B 4852   2.034   0.117   3.198  0.3572 -0.0711  1.2268
   50CHL1    C2 4853   2.087   0.126   2.988 -0.1569  0.2838  0.3009
   50CHL1   H2A 4854   1.990   0.087   2.951 -0.1787  0.6770 -0.0690
   50CHL1   H2B 4855   2.169   0.095   2.920 -1.1492  3.9836 -2.9377
   50CHL1   C20 4856   2.418  -0.068   3.845 -0.0190 -0.3228  0.1887
   50CHL1   H20 4857   2.522  -0.091   3.812  0.3339  0.7781  0.5023
   50CHL1   C21 4858   2.334  -0.195   3.836 -0.3682 -0.3150  0.0424
   50CHL1  H21A 4859   2.331  -0.238   3.733 -2.2415 -0.1344 -0.0130
   50CHL1  H21B 4860   2.230  -0.162   3.856 -0.5766  0.4511 -2.0424
   50CHL1  H21C 4861   2.365  -0.280   3.901  1.4707  0.4968  0.2754
   50CHL1   C22 4862   2.459  -0.030   3.992  0.0361 -0.0043 -0.2400
   50CHL1  H22A 4863   2.512  -0.122   4.025  0.8344  0.1261 -1.1035
   50CHL1  H22B 4864   2.540   0.046   4.001 -1.3374  1.8288 -2.4402
   50CHL1   C23 4865   2.342  -0.013   4.088 -0.1464  0.3337 -1.2635
   50CHL1  H23A 4866   2.293   0.081   4.053 -1.4620  0.3431  0.4718
   50CHL1  H23B 4867   2.272  -0.099   4.074 -0.9470  0.3134  2.0905
   50CHL1   C24 4868   2.380  -0.013   4.230 -0.6848  0.0398 -0.1293
   50CHL1  H24A 4869   2.446  -0.102   4.236  0.8171  1.2172  2.7631
   50CHL1  H24B 4870   2.439   0.078   4.256 -0.7911  0.1699 -0.3358
   50CHL1   C25 4871   2.278  -0.020   4.330  0.6759  0.6208 -0.1732
   50CHL1   H25 4872   2.214  -0.111   4.319  1.4414  0.2685 -2.0143
   50CHL1   C26 4873   2.327  -0.030   4.473 -0.4597  0.9514 -0.1175
   50CHL1  H26A 4874   2.406   0.043   4.499  2.0968 -1.2800 -1.1589
   50CHL1  H26B 4875   2.250  -0.000   4.547  0.0806  1.9225  0.0646
   50CHL1  H26C 4876   2.368  -0.132   4.493 -1.5588  0.8501  1.7746
   50CHL1   C27 4877   2.174   0.089   4.309 -1.1759 -0.6634  0.0925
   50CHL1  H27A 4878   2.222   0.181   4.350 -0.8885 -1.6127  1.9860
   50CHL1  H27B 4879   2.146   0.098   4.202  0.7430  0.1685 -0.3871
   50CHL1  H27C 4880   2.076   0.072   4.358 -2.9336  1.2444 -2.4780
   51CHL1    C3 4881   3.515   0.538   3.122 -0.5689 -0.1702 -0.3747
   51CHL1    H3 4882   3.616   0.493   3.108 -1.2351 -1.7305 -0.4513
   51CHL1    O3 4883   3.486   0.609   3.002  0.0319  0.0596  0.0102
   51CHL1   H3' 4884   3.575   0.619   2.967  0.2622 -1.0933  0.2299
   51CHL1    C4 4885   3.415   0.416   3.137  0.2032 -0.5639  0.0712
   51CHL1   H4A 4886   3.313   0.456   3.119  1.0329  2.0957  0.7564
   51CHL1   H4B 4887   3.427   0.338   3.059  1.1929 -0.4909  0.1348
   51CHL1    C5 4888   3.436   0.368   3.273 -0.3294  0.4344  0.1453
   51CHL1    C6 4889   3.457   0.237   3.285 -0.0094  0.1702  0.1360
   51CHL1    H6 4890   3.443   0.168   3.201  2.5544 -0.9767  0.5471
   51CHL1    C7 4891   3.449   0.171   3.416  0.2622 -0.0977 -0.0516
   51CHL1   H7A 4892   3.381   0.083   3.417 -0.3427  0.3426 -1.3004
   51CHL1   H7B 4893   3.547   0.125   3.443  0.1502  0.5081  1.5114
   51CHL1    C8 4894   3.385   0.255   3.525  0.0288  0.1849 -0.6243
   51CHL1    H8 4895   3.275   0.261   3.512 -0.0506  0.2817  0.0142
   51CHL1   C14 4896   3.414   0.186   3.660 -0.1550  0.0051 -0.4141
   51CHL1   H14 4897   3.524   0.195   3.676 -0.5341 -0.3939  3.3389
   51CHL1   C15 4898   3.375   0.040   3.668  0.1233  0.0635 -0.6451
   51CHL1  H15A 4899   3.276   0.025   3.619  1.0634 -1.4893 -2.2035
   51CHL1  H15B 4900   3.451  -0.029   3.625 -0.3073 -1.0373  0.3162
   51CHL1   C16 4901   3.350   0.026   3.819  0.6298 -0.2562 -0.2885
   51CHL1  H16A 4902   3.243   0.005   3.837  0.8098 -2.0085 -1.0531
   51CHL1  H16B 4903   3.402  -0.065   3.857  1.4990  0.4459  0.2359
   51CHL1   C17 4904   3.391   0.162   3.886  0.5427  0.5560 -0.5089
   51CHL1   H17 4905   3.501   0.167   3.902  0.4531  0.2371  0.2867
   51CHL1   C13 4906   3.358   0.265   3.780 -0.0124  0.9927  0.3484
   51CHL1   C18 4907   3.202   0.290   3.781 -0.6630  0.4016 -0.4330
   51CHL1  H18A 4908   3.153   0.191   3.797  0.8820 -0.1613  1.0444
   51CHL1  H18B 4909   3.185   0.354   3.870  1.5316  0.2038  0.1665
   51CHL1  H18C 4910   3.186   0.341   3.683  1.1390  0.8856 -0.5018
   51CHL1   C12 4911   3.431   0.404   3.786  0.0545 -0.7496  0.2743
   51CHL1  H12A 4912   3.403   0.468   3.872 -0.3290  2.3611 -1.9997
   51CHL1  H12B 4913   3.540   0.383   3.797  0.5246  0.8187 -0.9604
   51CHL1   C11 4914   3.418   0.484   3.648 -0.7286 -0.5816  0.0062
   51CHL1  H11A 4915   3.313   0.518   3.634 -0.5032 -0.6481 -2.2177
   51CHL1  H11B 4916   3.472   0.580   3.643 -2.3096  0.2956 -3.8019
   51CHL1    C9 4917   3.450   0.396   3.526  0.9499 -0.1729  0.3468
   51CHL1    H9 4918   3.561   0.382   3.532  0.9252 -1.3481 -1.2429
   51CHL1   C10 4919   3.420   0.473   3.388 -0.2565  0.2429 -0.7542
   51CHL1   C19 4920   3.281   0.525   3.370 -1.1396  0.1678  0.2583
   51CHL1  H19A 4921   3.280   0.578   3.272 -1.1453 -1.2467 -0.5319
   51CHL1  H19B 4922   3.201   0.449   3.369 -0.6058 -0.3948 -0.9937
   51CHL1  H19C 4923   3.264   0.606   3.445 -0.3003  1.8526 -1.2953
   51CHL1    C1 4924   3.529   0.580   3.370  0.6456 -0.7919 -0.1791
   51CHL1   H1A 4925   3.524   0.657   3.449  0.0575 -1.8096  0.8135
   51CHL1   H1B 4926   3.635   0.546   3.374  0.4520 -1.4148 -0.1996
   51CHL1    C2 4927   3.518   0.653   3.231  0.6254  0.6778 -0.0562
   51CHL1   H2A 4928   3.609   0.713   3.208  0.6142  0.2737 -1.2483
   51CHL1   H2B 4929   3.433   0.723   3.227 -0.3182 -0.3960  0.6700
   51CHL1   C20 4930   3.338   0.183   4.030  1.3901  0.2288  0.0945
   51CHL1   H20 4931   3.228   0.198   4.034  1.0782 -0.8164 -2.5408
   51CHL1   C21 4932   3.418   0.302   4.085  0.1695  0.5539  0.0436
   51CHL1  H21A 4933   3.445   0.302   4.192  0.7134 -1.5758 -0.0455
   51CHL1  H21B 4934   3.362   0.398   4.079 -0.1090  0.4607  0.9814
   51CHL1  H21C 4935   3.519   0.305   4.039  0.0692 -1.4771 -0.3766
   51CHL1   C22 4936   3.378   0.063   4.127  0.6304 -0.8454  0.9280
   51CHL1  H22A 4937   3.336  -0.028   4.078  1.2875 -0.1361 -1.0379
   51CHL1  H22B 4938   3.488   0.057   4.116  0.9094  1.8198  1.7126
   51CHL1   C23 4939   3.314   0.057   4.263  1.0018 -0.0409 -0.0507
   51CHL1  H23A 4940   3.340   0.144   4.327 -1.7045  1.2398 -0.5959
   51CHL1  H23B 4941   3.204   0.054   4.251  1.2013 -1.1861 -2.1482
   51CHL1   C24 4942   3.370  -0.059   4.350  0.4864 -0.4149  0.3200
   51CHL1  H24A 4943   3.390  -0.139   4.275  0.2961 -0.7904  0.6662
   51CHL1  H24B 4944   3.468  -0.027   4.392  0.5506 -0.2210  0.0285
   51CHL1   C25 4945   3.265  -0.107   4.455  0.0854  0.2625  0.0248
   51CHL1   H25 4946   3.179  -0.152   4.402 -2.5249  4.7904 -0.1111
   51CHL1   C26 4947   3.326  -0.220   4.544  0.3482  0.3283  0.2320
   51CHL1  H26A 4948   3.240  -0.258   4.603 -1.1146  3.3487  0.2042
   51CHL1  H26B 4949   3.362  -0.308   4.485 -0.5115 -0.1746  0.4457
   51CHL1  H26C 4950   3.407  -0.181   4.609 -1.5716  4.2185  0.5526
   51CHL1   C27 4951   3.215  -0.002   4.555  0.0512 -0.2071  0.7708
   51CHL1  H27A 4952   3.303   0.053   4.595  0.7262 -0.8321  0.1494
   51CHL1  H27B 4953   3.142   0.066   4.505  0.2641 -2.0179 -2.1891
   51CHL1  H27C 4954   3.154  -0.044   4.639 -0.9194 -0.7372 -0.1805
   52CHL1    C3 4955   3.038   2.787   3.248 -0.1634 -0.3186  0.6949
   52CHL1    H3 4956   3.034   2.676   3.242  0.9535 -0.3046 -0.9386
   52CHL1    O3 4957   2.987   2.847   3.132  0.5840 -0.0861 -0.9991
   52CHL1   H3' 4958   3.050   2.833   3.060 -0.7377  1.2439 -2.4921
   52CHL1    C4 4959   2.958   2.843   3.364 -0.8659 -0.3065  0.0351
   52CHL1   H4A 4960   2.964   2.954   3.364 -1.3417 -0.2626 -1.1390
   52CHL1   H4B 4961   2.848   2.828   3.364 -0.7850 -1.1261 -1.5279
   52CHL1    C5 4962   3.007   2.793   3.497  0.5039  0.1647  0.6825
   52CHL1    C6 4963   2.925   2.719   3.577  0.6546 -0.2583  1.1488
   52CHL1    H6 4964   2.823   2.708   3.538  1.8013 -0.7469 -1.9577
   52CHL1    C7 4965   2.979   2.659   3.706  1.1730  0.4417  0.1493
   52CHL1   H7A 4966   2.903   2.652   3.787  1.2500  1.2152  0.2979
   52CHL1   H7B 4967   2.997   2.551   3.693  1.1871  0.0225  3.0038
   52CHL1    C8 4968   3.101   2.731   3.758  0.3252 -0.0743 -0.7217
   52CHL1    H8 4969   3.071   2.834   3.786  2.2521  0.1966  0.5124
   52CHL1   C14 4970   3.141   2.659   3.888  0.4410  0.1891  0.6609
   52CHL1   H14 4971   3.148   2.553   3.854 -1.3723 -0.1275  1.1351
   52CHL1   C15 4972   3.050   2.654   4.017 -0.1882 -0.6908  0.0646
   52CHL1  H15A 4973   3.005   2.753   4.041  0.3968 -0.0180 -1.4788
   52CHL1  H15B 4974   2.964   2.589   3.990 -2.3193  2.2252 -0.6524
   52CHL1   C16 4975   3.147   2.606   4.120  0.5901 -0.5567  0.7566
   52CHL1  H16A 4976   3.143   2.669   4.212  0.3907 -0.4193  0.6536
   52CHL1  H16B 4977   3.130   2.499   4.146 -0.3139 -0.2987  1.2650
   52CHL1   C17 4978   3.293   2.610   4.061  0.1520  0.2496 -0.1324
   52CHL1   H17 4979   3.310   2.504   4.029 -0.1426 -0.2184  1.2173
   52CHL1   C13 4980   3.285   2.699   3.936  0.7816  0.3040  0.0155
   52CHL1   C18 4981   3.281   2.845   3.981 -0.2109  0.8237  1.0176
   52CHL1  H18A 4982   3.216   2.863   4.069 -0.4913  0.7767  0.8185
   52CHL1  H18B 4983   3.386   2.875   4.005  0.3008  0.5331 -0.7311
   52CHL1  H18C 4984   3.242   2.909   3.899 -1.5300 -1.1837  0.0099
   52CHL1   C12 4985   3.389   2.681   3.830 -0.2275  0.2745 -0.2572
   52CHL1  H12A 4986   3.480   2.735   3.864  0.5071  1.4541 -3.7187
   52CHL1  H12B 4987   3.411   2.575   3.803  0.3598  0.1458  0.6928
   52CHL1   C11 4988   3.346   2.748   3.693 -0.0355  0.5133  0.5172
   52CHL1  H11A 4989   3.380   2.854   3.698 -0.2600  0.5661  0.9760
   52CHL1  H11B 4990   3.404   2.695   3.615 -0.3053 -1.7107  1.7230
   52CHL1    C9 4991   3.202   2.728   3.645 -0.4029  0.9180 -0.4171
   52CHL1    H9 4992   3.199   2.622   3.612 -1.8478  0.8137 -0.0385
   52CHL1   C10 4993   3.155   2.821   3.527  0.4324  0.0591  0.2167
   52CHL1   C19 4994   3.180   2.971   3.552 -0.3887 -0.7160  0.2165
   52CHL1  H19A 4995   3.153   2.991   3.658 -2.1001 -1.7888  0.0248
   52CHL1  H19B 4996   3.285   3.007   3.553 -1.4246  2.7048  1.3054
   52CHL1  H19C 4997   3.117   3.038   3.491  1.2344 -0.0541 -0.7998
   52CHL1    C1 4998   3.239   2.780   3.402 -0.5388 -0.0074  0.0475
   52CHL1   H1A 4999   3.346   2.809   3.414 -0.3376 -0.8941  0.5044
   52CHL1   H1B 5000   3.233   2.669   3.397  0.8642 -0.1485  0.8738
   52CHL1    C2 5001   3.188   2.829   3.271  1.4139 -0.7856  0.5405
   52CHL1   H2A 5002   3.233   2.795   3.176  1.0223  0.7404 -0.2230
   52CHL1   H2B 5003   3.190   2.940   3.268 -1.9686 -0.6406 -0.6568
   52CHL1   C20 5004   3.410   2.642   4.155 -0.0902 -0.1475  0.3516
   52CHL1   H20 5005   3.482   2.700   4.093 -0.3515 -0.9570 -0.7370
   52CHL1   C21 5006   3.480   2.510   4.188  0.0616 -0.5263 -0.0360
   52CHL1  H21A 5007   3.404   2.451   4.243 -0.9330  0.6026 -0.1640
   52CHL1  H21B 5008   3.566   2.536   4.254 -0.4970  0.7024  0.2310
   52CHL1  H21C 5009   3.524   2.468   4.096 -1.7214 -1.5245 -0.4750
   52CHL1   C22 5010   3.382   2.730   4.284 -0.7767  0.3663 -0.6373
   52CHL1  H22A 5011   3.348   2.832   4.255  1.4163  1.0161 -1.1482
   52CHL1  H22B 5012   3.301   2.676   4.336  1.5952 -2.1324  0.6910
   52CHL1   C23 5013   3.505   2.745   4.377 -0.1989 -0.1299  0.2966
   52CHL1  H23A 5014   3.531   2.647   4.424 -1.8116 -1.0405 -0.6150
   52CHL1  H23B 5015   3.594   2.780   4.321 -0.7588  0.6609 -0.1216
   52CHL1   C24 5016   3.485   2.853   4.485 -0.3654  0.1244  0.4426
   52CHL1  H24A 5017   3.454   2.943   4.427  1.0249 -0.3421 -1.1018
   52CHL1  H24B 5018   3.399   2.816   4.545 -2.3168  0.5849 -1.9115
   52CHL1   C25 5019   3.619   2.893   4.555  0.4698  0.3846 -0.4345
   52CHL1   H25 5020   3.693   2.921   4.477  0.6381 -0.5001 -0.5999
   52CHL1   C26 5021   3.595   3.008   4.659  0.4444  0.0975  0.5332
   52CHL1  H26A 5022   3.690   3.047   4.701  0.6793  0.4033 -0.2602
   52CHL1  H26B 5023   3.543   3.093   4.610  1.3885  0.8928  0.8564
   52CHL1  H26C 5024   3.534   2.984   4.749 -0.7069  1.3010  0.1072
   52CHL1   C27 5025   3.675   2.767   4.631 -0.3269 -0.5465 -0.2893
   52CHL1  H27A 5026   3.592   2.704   4.669  0.7085 -1.9503 -0.2905
   52CHL1  H27B 5027   3.724   2.697   4.560  0.3044 -1.5445  1.0802
   52CHL1  H27C 5028   3.749   2.798   4.709 -0.9118  2.3583 -0.7691
   53CHL1    C3 5029   4.017   2.352   3.571 -0.7996 -0.7324  1.0365
   53CHL1    H3 5030   3.971   2.442   3.617 -2.5170 -2.4927  2.9834
   53CHL1    O3 5031   4.016   2.377   3.437 -0.5474 -0.5364  0.3214
   53CHL1   H3' 5032   4.019   2.292   3.392 -0.8541  0.7943 -2.4592
   53CHL1    C4 5033   4.170   2.357   3.611  0.8453 -0.5513 -0.5777
   53CHL1   H4A 5034   4.237   2.296   3.547  0.2006 -1.4554 -0.4161
   53CHL1   H4B 5035   4.212   2.458   3.595  0.7027 -0.5245 -0.7779
   53CHL1    C5 5036   4.188   2.310   3.758 -0.3162 -0.8500 -1.0669
   53CHL1    C6 5037   4.256   2.384   3.845 -0.0991 -0.1597  0.2895
   53CHL1    H6 5038   4.299   2.482   3.821  0.9744 -0.9198 -1.0399
   53CHL1    C7 5039   4.292   2.345   3.987 -0.2711 -0.1954 -0.4336
   53CHL1   H7A 5040   4.402   2.350   4.000 -0.4486  0.7407  0.8232
   53CHL1   H7B 5041   4.232   2.402   4.060  2.3177 -0.5239  2.1142
   53CHL1    C8 5042   4.258   2.188   4.018  0.0955  0.0811 -0.0804
   53CHL1    H8 5043   4.346   2.137   3.972 -0.7767 -1.9008  0.3119
   53CHL1   C14 5044   4.242   2.172   4.173 -0.4742 -0.0866  0.1382
   53CHL1   H14 5045   4.155   2.235   4.201  0.5548  1.0678  0.8363
   53CHL1   C15 5046   4.366   2.223   4.258  0.9969 -0.0206 -0.0206
   53CHL1  H15A 5047   4.464   2.193   4.217  0.7235 -1.7106  0.4890
   53CHL1  H15B 5048   4.370   2.332   4.279 -1.5068 -0.0515  0.9986
   53CHL1   C16 5049   4.333   2.160   4.393  0.1382  0.1642 -0.2617
   53CHL1  H16A 5050   4.420   2.115   4.446  1.2595  0.9249 -1.4017
   53CHL1  H16B 5051   4.296   2.235   4.466  0.7210  0.1671  0.0335
   53CHL1   C17 5052   4.227   2.047   4.364  0.5815 -1.1822 -0.8236
   53CHL1   H17 5053   4.123   2.079   4.383  1.0245 -0.3292  0.2627
   53CHL1   C13 5054   4.228   2.030   4.214 -0.7236 -0.4782  0.4264
   53CHL1   C18 5055   4.347   1.943   4.171  0.4706  0.3995  0.0762
   53CHL1  H18A 5056   4.348   1.928   4.061  0.3752  1.2431 -0.0416
   53CHL1  H18B 5057   4.442   1.988   4.208  1.7797 -1.8101 -0.4135
   53CHL1  H18C 5058   4.349   1.846   4.226 -0.0848  0.3875  0.0803
   53CHL1   C12 5059   4.090   1.989   4.142  0.8539 -0.2124  0.2588
   53CHL1  H12A 5060   4.064   1.884   4.167  1.2500 -0.8149 -1.6500
   53CHL1  H12B 5061   4.003   2.041   4.185  0.0631 -2.3969  1.4697
   53CHL1   C11 5062   4.087   2.003   3.986  0.4902  0.4352  0.0221
   53CHL1  H11A 5063   4.166   1.938   3.945  0.3680  0.2423  0.0922
   53CHL1  H11B 5064   3.994   1.974   3.932  0.2729  1.5778 -0.2610
   53CHL1    C9 5065   4.129   2.148   3.938  0.0929 -0.1116  0.1498
   53CHL1    H9 5066   4.054   2.219   3.978 -0.6308 -0.6229 -0.2648
   53CHL1   C10 5067   4.129   2.175   3.789  0.9078  0.2411 -0.1737
   53CHL1   C19 5068   4.204   2.066   3.713  0.0675  0.0175  0.5329
   53CHL1  H19A 5069   4.199   2.078   3.603  2.1287 -0.7570  0.2998
   53CHL1  H19B 5070   4.312   2.052   3.733 -0.4270  0.5140  4.3067
   53CHL1  H19C 5071   4.155   1.969   3.739 -4.2259  1.2349 -2.0126
   53CHL1    C1 5072   3.970   2.171   3.750  0.0683 -0.1031 -0.4749
   53CHL1   H1A 5073   3.934   2.065   3.749 -2.0513  0.5595 -1.0710
   53CHL1   H1B 5074   3.909   2.233   3.818 -0.0254 -1.7852  1.0461
   53CHL1    C2 5075   3.945   2.225   3.605 -0.1541  0.2031  0.8166
   53CHL1   H2A 5076   3.837   2.241   3.583 -0.1566  1.8908  1.8671
   53CHL1   H2B 5077   3.988   2.154   3.531  0.0461  2.0272 -0.9284
   53CHL1   C20 5078   4.233   1.922   4.454 -0.2131 -0.3616 -0.1349
   53CHL1   H20 5079   4.332   1.879   4.428 -0.1781 -0.0437 -0.5377
   53CHL1   C21 5080   4.113   1.824   4.437 -1.1256 -1.0436  0.3569
   53CHL1  H21A 5081   4.109   1.760   4.528 -0.9490 -1.1655  0.2791
   53CHL1  H21B 5082   4.140   1.765   4.347  3.5371 -0.3460  1.0533
   53CHL1  H21C 5083   4.011   1.867   4.428  0.2316  2.3843 -0.0040
   53CHL1   C22 5084   4.239   1.960   4.606  0.3733 -0.3428 -0.4449
   53CHL1  H22A 5085   4.239   1.872   4.673  0.7472  0.2023  0.2868
   53CHL1  H22B 5086   4.332   2.012   4.637 -0.5042  0.7710  0.3883
   53CHL1   C23 5087   4.106   2.037   4.657 -0.1413 -0.0747  0.1077
   53CHL1  H23A 5088   4.091   2.135   4.607  0.3590  0.3091  0.6859
   53CHL1  H23B 5089   4.017   1.972   4.643 -0.7105  0.6057  0.5061
   53CHL1   C24 5090   4.106   2.076   4.809 -0.0866 -0.1736  0.4466
   53CHL1  H24A 5091   4.159   2.003   4.874  1.9618  0.1206 -0.7910
   53CHL1  H24B 5092   4.158   2.174   4.818  0.1623  0.1044 -2.7187
   53CHL1   C25 5093   3.970   2.076   4.877  0.7475  0.0209 -0.0656
   53CHL1   H25 5094   3.999   2.106   4.980  2.3690  2.0559 -1.0488
   53CHL1   C26 5095   3.864   2.175   4.817 -0.5188  0.7592 -0.5644
   53CHL1  H26A 5096   3.774   2.170   4.882 -0.7998 -1.9799 -1.0279
   53CHL1  H26B 5097   3.909   2.276   4.808 -0.8344  0.9940  0.3900
   53CHL1  H26C 5098   3.826   2.155   4.714 -0.8477  1.7559 -0.6473
   53CHL1   C27 5099   3.921   1.934   4.879  0.2913 -0.1142 -0.0160
   53CHL1  H27A 5100   4.001   1.861   4.905  1.5581  1.7707  1.7355
   53CHL1  H27B 5101   3.847   1.920   4.961 -0.3316  0.7174 -0.4293
   53CHL1  H27C 5102   3.886   1.890   4.783  1.5371  0.7588 -0.9002
   54CHL1    C3 5103   2.328   3.764   3.706  0.1195  0.0136 -0.1323
   54CHL1    H3 5104   2.382   3.673   3.673 -1.0852 -1.4887  1.8078
   54CHL1    O3 5105   2.285   3.825   3.582 -0.2640 -0.2003  0.0365
   54CHL1   H3' 5106   2.223   3.894   3.608 -0.5586 -0.6563  0.5764
   54CHL1    C4 5107   2.205   3.737   3.783  0.4772  0.2847 -0.4179
   54CHL1   H4A 5108   2.148   3.830   3.801 -0.8437 -0.5772 -0.0305
   54CHL1   H4B 5109   2.141   3.663   3.730 -0.6874  0.9653  0.0174
   54CHL1    C5 5110   2.240   3.682   3.918  0.1496  0.0062 -0.6730
   54CHL1    C6 5111   2.230   3.547   3.937 -0.3779  0.2785  0.2819
   54CHL1    H6 5112   2.181   3.483   3.862  0.7705  0.9150 -1.0510
   54CHL1    C7 5113   2.273   3.471   4.057 -0.1097 -0.0710 -0.2787
   54CHL1   H7A 5114   2.201   3.388   4.075 -2.0761  1.2244 -1.7193
   54CHL1   H7B 5115   2.370   3.421   4.038  0.0223  1.1715 -3.6024
   54CHL1    C8 5116   2.282   3.566   4.181 -0.5663 -0.0467  0.1143
   54CHL1    H8 5117   2.183   3.614   4.199  0.1368  1.0817  1.0999
   54CHL1   C14 5118   2.340   3.489   4.291 -0.2920  0.6263 -0.5652
   54CHL1   H14 5119   2.437   3.444   4.263  0.8032 -0.6852  4.4173
   54CHL1   C15 5120   2.246   3.369   4.350  0.0753 -0.3927  0.1168
   54CHL1  H15A 5121   2.141   3.406   4.350 -0.8235 -2.7806  0.3280
   54CHL1  H15B 5122   2.265   3.278   4.290  1.2889 -1.0368  1.4178
   54CHL1   C16 5123   2.290   3.359   4.495 -0.1387 -0.3114  0.2001
   54CHL1  H16A 5124   2.220   3.404   4.568  0.0814 -0.4684  0.5072
   54CHL1  H16B 5125   2.326   3.259   4.527  0.6267 -0.4277 -0.9611
   54CHL1   C17 5126   2.410   3.462   4.508  0.4446 -0.5271  0.3764
   54CHL1   H17 5127   2.496   3.413   4.459  0.3012  0.1468 -0.5661
   54CHL1   C13 5128   2.372   3.578   4.410 -0.2380  0.2133 -0.2162
   54CHL1   C18 5129   2.238   3.647   4.459  0.5015  0.1219  0.3033
   54CHL1  H18A 5130   2.244   3.685   4.563 -0.2307 -0.7038  0.6551
   54CHL1  H18B 5131   2.211   3.733   4.394  1.3904  0.4489  0.3445
   54CHL1  H18C 5132   2.148   3.583   4.449  1.6821 -1.6647  0.7208
   54CHL1   C12 5133   2.479   3.676   4.369 -0.0575 -0.0552 -0.4031
   54CHL1  H12A 5134   2.520   3.728   4.458  1.5717 -1.2999 -0.3678
   54CHL1  H12B 5135   2.558   3.614   4.321 -0.4153 -1.0476  0.2666
   54CHL1   C11 5136   2.428   3.768   4.259  0.4780 -0.6031 -0.1164
   54CHL1  H11A 5137   2.348   3.831   4.302 -1.4128 -0.4506 -3.4951
   54CHL1  H11B 5138   2.515   3.831   4.229  0.0446  0.3950  0.6706
   54CHL1    C9 5139   2.380   3.682   4.141 -0.2342 -0.1312  0.2172
   54CHL1    H9 5140   2.472   3.634   4.101 -1.1115 -0.7803 -1.0976
   54CHL1   C10 5141   2.328   3.760   4.015  0.8254  0.1344 -0.0550
   54CHL1   C19 5142   2.259   3.892   4.061 -0.2165  0.2262  0.6441
   54CHL1  H19A 5143   2.185   3.863   4.138  1.3939 -2.4541  1.3149
   54CHL1  H19B 5144   2.338   3.963   4.096 -1.7098  1.9761  0.6260
   54CHL1  H19C 5145   2.209   3.936   3.972  0.7043 -2.3437 -1.2660
   54CHL1    C1 5146   2.447   3.798   3.918  0.4881  0.5672 -0.3284
   54CHL1   H1A 5147   2.513   3.868   3.973 -0.1577 -0.3616  1.7236
   54CHL1   H1B 5148   2.498   3.704   3.890  0.9757  0.6231  0.3546
   54CHL1    C2 5149   2.409   3.869   3.782  0.7463 -0.1071  0.3607
   54CHL1   H2A 5150   2.506   3.900   3.736 -0.0155 -0.6906 -1.7619
   54CHL1   H2B 5151   2.342   3.957   3.791  1.6187  0.5422  0.6878
   54CHL1   C20 5152   2.446   3.484   4.661 -0.2605  0.1533 -0.1245
   54CHL1   H20 5153   2.386   3.563   4.711  0.3834  2.2004 -2.4291
   54CHL1   C21 5154   2.592   3.538   4.668  0.1486  0.4582  0.2810
   54CHL1  H21A 5155   2.592   3.649   4.655 -4.2296  0.7928  1.5164
   54CHL1  H21B 5156   2.648   3.475   4.596  1.0908  1.5290  0.0456
   54CHL1  H21C 5157   2.637   3.512   4.766  0.4674 -0.9888 -0.2303
   54CHL1   C22 5158   2.442   3.350   4.753  0.4085 -0.0810  0.5868
   54CHL1  H22A 5159   2.464   3.389   4.855  0.7303  1.0749  0.0946
   54CHL1  H22B 5160   2.337   3.314   4.747  0.7963 -1.1796  0.2815
   54CHL1   C23 5161   2.547   3.242   4.720 -0.2050 -0.5896 -0.1235
   54CHL1  H23A 5162   2.580   3.243   4.614  1.2128 -1.7659  0.2828
   54CHL1  H23B 5163   2.640   3.266   4.774 -0.5545 -1.1791  0.7651
   54CHL1   C24 5164   2.495   3.100   4.751  0.0080  0.3472 -0.4037
   54CHL1  H24A 5165   2.473   3.110   4.859 -0.1400 -1.8701 -0.1885
   54CHL1  H24B 5166   2.399   3.093   4.695  1.0156  0.5748 -2.2478
   54CHL1   C25 5167   2.601   2.995   4.715  0.2416  0.4019 -0.0607
   54CHL1   H25 5168   2.700   3.037   4.743  1.5136 -1.5475 -1.3844
   54CHL1   C26 5169   2.582   2.874   4.796 -0.2760 -0.2345 -0.2832
   54CHL1  H26A 5170   2.579   2.892   4.905 -2.1050  2.1520 -0.6398
   54CHL1  H26B 5171   2.481   2.834   4.775 -0.1196 -1.2356  0.7682
   54CHL1  H26C 5172   2.661   2.800   4.771  0.6297  0.9753 -1.1308
   54CHL1   C27 5173   2.605   2.959   4.568 -0.2766  0.0182 -0.0993
   54CHL1  H27A 5174   2.702   2.910   4.544  0.0407  0.9506 -0.7637
   54CHL1  H27B 5175   2.518   2.897   4.539  0.2925 -0.8543  0.0188
   54CHL1  H27C 5176   2.597   3.052   4.509 -2.1731 -0.4445 -0.6405
   55CHL1    C3 5177   4.458   5.826   3.082 -0.2441 -0.3669  0.1041
   55CHL1    H3 5178   4.376   5.751   3.089 -0.3406 -0.1472  1.8570
   55CHL1    O3 5179   4.462   5.868   2.947  0.0028 -0.2939  0.2313
   55CHL1   H3' 5180   4.472   5.783   2.902  0.8463  0.5630 -1.2811
   55CHL1    C4 5181   4.429   5.956   3.168  0.3201 -0.3478  0.5897
   55CHL1   H4A 5182   4.496   6.038   3.134 -2.0123  1.8526  1.0336
   55CHL1   H4B 5183   4.329   5.994   3.140  0.9362  0.9364  0.0367
   55CHL1    C5 5184   4.448   5.923   3.318 -0.0448 -0.1039  0.0495
   55CHL1    C6 5185   4.355   5.958   3.411  0.0108  0.2736  0.3533
   55CHL1    H6 5186   4.262   6.000   3.370  0.0442 -0.6589 -0.7236
   55CHL1    C7 5187   4.370   5.955   3.559  0.0340 -0.0161  0.2109
   55CHL1   H7A 5188   4.355   6.055   3.605  0.5708 -0.4707  1.4152
   55CHL1   H7B 5189   4.298   5.889   3.612  1.9203 -1.4313  1.1450
   55CHL1    C8 5190   4.517   5.915   3.598 -0.2904  0.4807  0.0644
   55CHL1    H8 5191   4.575   6.010   3.592 -1.1894  1.1636  1.5263
   55CHL1   C14 5192   4.518   5.864   3.749  0.2140 -0.9980  1.0994
   55CHL1   H14 5193   4.446   5.780   3.750 -2.9627  1.5297  2.6707
   55CHL1   C15 5194   4.455   5.954   3.855  0.2925 -0.3369 -0.1369
   55CHL1  H15A 5195   4.487   6.056   3.826  0.3691 -0.8880 -2.1285
   55CHL1  H15B 5196   4.346   5.960   3.876  0.3132 -0.1749 -0.0733
   55CHL1   C16 5197   4.523   5.906   3.989  0.4448 -0.4835 -0.1484
   55CHL1  H16A 5198   4.550   6.004   4.032 -2.9005 -0.2128  1.7027
   55CHL1  H16B 5199   4.442   5.864   4.052 -0.1462  0.0564 -0.5330
   55CHL1   C17 5200   4.625   5.794   3.953 -0.0774 -0.3980 -0.8359
   55CHL1   H17 5201   4.569   5.698   3.960 -1.7988  0.5020 -1.5531
   55CHL1   C13 5202   4.659   5.821   3.804  0.2809  0.2141  1.3785
   55CHL1   C18 5203   4.765   5.938   3.793 -0.1902  0.1286 -0.2450
   55CHL1  H18A 5204   4.861   5.916   3.845  1.7671  2.3859 -2.6653
   55CHL1  H18B 5205   4.785   5.951   3.684  3.2817 -1.7205  0.0148
   55CHL1  H18C 5206   4.723   6.029   3.840  0.7669  0.8843 -0.8224
   55CHL1   C12 5207   4.684   5.694   3.707 -0.6158  0.0623 -0.0432
   55CHL1  H12A 5208   4.775   5.635   3.733 -1.6393 -1.5280  0.0720
   55CHL1  H12B 5209   4.593   5.630   3.712 -0.5067  0.0044  1.8370
   55CHL1   C11 5210   4.691   5.739   3.561 -1.0118  0.6619  0.8929
   55CHL1  H11A 5211   4.776   5.809   3.550 -1.6892  1.5714  1.2930
   55CHL1  H11B 5212   4.730   5.658   3.495  0.3959  2.3203 -0.3747
   55CHL1    C9 5213   4.563   5.801   3.507  0.4162 -0.5466 -0.0986
   55CHL1    H9 5214   4.493   5.716   3.515 -0.6385  0.0662 -2.0825
   55CHL1   C10 5215   4.573   5.850   3.358 -0.4297  0.1047 -0.3924
   55CHL1   C19 5216   4.681   5.958   3.349  0.5254  0.3174 -0.2425
   55CHL1  H19A 5217   4.777   5.911   3.378  0.8278  0.0566 -1.5935
   55CHL1  H19B 5218   4.694   5.986   3.242  0.6145  0.5394 -0.1750
   55CHL1  H19C 5219   4.658   6.045   3.414  0.5866 -0.4975  0.8872
   55CHL1    C1 5220   4.590   5.723   3.265  0.1507 -0.1476  0.1642
   55CHL1   H1A 5221   4.682   5.671   3.299  0.3810  0.0556 -0.1354
   55CHL1   H1B 5222   4.510   5.651   3.292  0.4386 -1.9689 -3.2581
   55CHL1    C2 5223   4.591   5.762   3.116  0.3505 -0.5549  0.3062
   55CHL1   H2A 5224   4.591   5.671   3.051  1.0281 -0.8017  0.6423
   55CHL1   H2B 5225   4.682   5.819   3.088  2.4511 -3.5701  0.4657
   55CHL1   C20 5226   4.748   5.798   4.053 -0.1488 -0.5860 -0.2648
   55CHL1   H20 5227   4.801   5.896   4.050 -1.4824  0.2137  0.7865
   55CHL1   C21 5228   4.857   5.689   4.015  0.1914 -0.0963  0.1264
   55CHL1  H21A 5229   4.804   5.591   4.010 -0.5476  0.0445  2.9450
   55CHL1  H21B 5230   4.937   5.692   4.092 -1.5446 -1.6968  2.1381
   55CHL1  H21C 5231   4.894   5.706   3.912 -0.6607  0.5427 -0.0918
   55CHL1   C22 5232   4.708   5.782   4.202 -0.0496 -0.4268  0.1960
   55CHL1  H22A 5233   4.619   5.845   4.225 -1.0399 -1.3358 -1.0106
   55CHL1  H22B 5234   4.668   5.683   4.233 -0.2766  0.0698  1.6057
   55CHL1   C23 5235   4.811   5.822   4.315 -0.3213  0.1374 -0.2637
   55CHL1  H23A 5236   4.866   5.735   4.358  0.2436 -0.1688 -1.5270
   55CHL1  H23B 5237   4.892   5.873   4.259  0.5540 -0.6111  0.2797
   55CHL1   C24 5238   4.746   5.919   4.408  0.8547 -0.1535 -0.4637
   55CHL1  H24A 5239   4.697   5.996   4.344 -0.3547  0.0302  0.6531
   55CHL1  H24B 5240   4.668   5.863   4.464  0.6940  0.9456  0.4335
   55CHL1   C25 5241   4.847   5.974   4.512  0.4852 -0.3789  0.9856
   55CHL1   H25 5242   4.932   6.011   4.450 -2.0474  2.0254 -1.2804
   55CHL1   C26 5243   4.789   6.100   4.586  0.1029  0.6887  0.6781
   55CHL1  H26A 5244   4.876   6.145   4.636  1.3639 -1.5056  0.5968
   55CHL1  H26B 5245   4.747   6.175   4.516  3.1162 -1.3222 -3.7779
   55CHL1  H26C 5246   4.723   6.055   4.663  0.9485  0.5144  1.3048
   55CHL1   C27 5247   4.889   5.872   4.622  0.0471 -0.3418  0.6880
   55CHL1  H27A 5248   4.951   5.924   4.698  2.4758 -2.0026 -0.0336
   55CHL1  H27B 5249   4.796   5.830   4.664 -1.9165  1.9298 -1.1281
   55CHL1  H27C 5250   4.957   5.798   4.573  2.4935  1.6424  0.9167
   56CHL1    C3 5251   6.235   0.440   2.943  0.0212  0.5829 -0.2878
   56CHL1    H3 5252   6.128   0.415   2.950  0.0870  0.7013  3.6641
   56CHL1    O3 5253   6.270   0.401   2.808  0.2622 -0.2948  0.5531
   56CHL1   H3' 5254   6.347   0.453   2.784  0.1748 -1.5295 -2.9798
   56CHL1    C4 5255   6.239   0.587   2.974  0.9094  0.0671 -0.0947
   56CHL1   H4A 5256   6.333   0.631   2.932  1.0828 -0.7009 -0.5248
   56CHL1   H4B 5257   6.167   0.637   2.905  0.6410  0.0784  0.1931
   56CHL1    C5 5258   6.211   0.620   3.121 -0.6705  0.5918  0.6567
   56CHL1    C6 5259   6.127   0.719   3.159  0.2130 -0.2238 -0.0550
   56CHL1    H6 5260   6.085   0.797   3.094 -0.4749  0.8571  1.5982
   56CHL1    C7 5261   6.088   0.750   3.299  0.7785 -0.0586 -0.1880
   56CHL1   H7A 5262   6.093   0.857   3.329 -2.6916  0.3466 -0.6257
   56CHL1   H7B 5263   5.982   0.719   3.318  1.5408 -2.8011  0.0342
   56CHL1    C8 5264   6.180   0.683   3.402 -0.6406  0.1882 -1.0675
   56CHL1    H8 5265   6.272   0.739   3.430  0.0601 -1.8665  1.1071
   56CHL1   C14 5266   6.118   0.677   3.547  0.1305  0.1309 -0.3410
   56CHL1   H14 5267   6.037   0.603   3.530  2.4533 -2.2323 -1.7565
   56CHL1   C15 5268   6.062   0.806   3.598  0.3011 -0.1694 -0.1997
   56CHL1  H15A 5269   6.128   0.894   3.578 -0.7504  0.6114 -0.3162
   56CHL1  H15B 5270   5.962   0.825   3.554 -0.9008 -0.8914  2.0955
   56CHL1   C16 5271   6.053   0.784   3.753  0.6050 -0.2265 -0.4377
   56CHL1  H16A 5272   6.117   0.853   3.811  0.4055 -1.2398  1.0321
   56CHL1  H16B 5273   5.946   0.795   3.781  0.8467 -0.1007  0.4645
   56CHL1   C17 5274   6.111   0.638   3.782  0.1808 -0.1754  0.9749
   56CHL1   H17 5275   6.021   0.578   3.758  0.1189  0.2222  0.1847
   56CHL1   C13 5276   6.203   0.619   3.654 -0.7458  0.0667  0.9801
   56CHL1   C18 5277   6.332   0.702   3.671  0.5977  0.6288 -0.2852
   56CHL1  H18A 5278   6.309   0.799   3.720 -0.3970 -0.7470  2.1097
   56CHL1  H18B 5279   6.411   0.652   3.732 -0.6877 -2.1231 -0.7228
   56CHL1  H18C 5280   6.393   0.719   3.579  1.8865  1.0248  0.6205
   56CHL1   C12 5281   6.245   0.480   3.616  0.3644 -0.6479  0.1999
   56CHL1  H12A 5282   6.328   0.455   3.685  2.2396  0.5313 -1.4997
   56CHL1  H12B 5283   6.157   0.412   3.618  0.0550 -0.2665 -0.0678
   56CHL1   C11 5284   6.306   0.477   3.472  0.4041 -0.0563 -0.6794
   56CHL1  H11A 5285   6.401   0.533   3.485  0.5469 -0.3818 -0.3135
   56CHL1  H11B 5286   6.322   0.367   3.463  0.7332  0.0316 -1.3096
   56CHL1    C9 5287   6.219   0.544   3.362  0.5111 -0.0499  0.4840
   56CHL1    H9 5288   6.124   0.487   3.362 -0.4904  1.4687 -1.4512
   56CHL1   C10 5289   6.280   0.538   3.222 -0.0503  0.4428  0.4114
   56CHL1   C19 5290   6.421   0.593   3.222 -0.1964  0.2267 -0.0051
   56CHL1  H19A 5291   6.423   0.693   3.272 -2.0694  0.8021 -1.0075
   56CHL1  H19B 5292   6.479   0.516   3.278 -0.2064  0.6620  0.6174
   56CHL1  H19C 5293   6.468   0.596   3.122 -0.5593  2.2346 -0.1508
   56CHL1    C1 5294   6.271   0.385   3.183  0.4160  0.1705 -0.5831
   56CHL1   H1A 5295   6.343   0.343   3.258 -0.7881  1.0311  1.1217
   56CHL1   H1B 5296   6.173   0.335   3.202  0.9780 -0.4890  0.7377
   56CHL1    C2 5297   6.312   0.349   3.041  0.0977  0.1562 -0.0043
   56CHL1   H2A 5298   6.319   0.240   3.024  1.3276 -0.0930  1.7228
   56CHL1   H2B 5299   6.418   0.382   3.043 -0.0746  0.7121  1.2507
   56CHL1   C20 5300   6.162   0.616   3.924 -0.5509  1.1040  0.0140
   56CHL1   H20 5301   6.260   0.668   3.931  0.8877 -0.9978 -2.5258
   56CHL1   C21 5302   6.196   0.465   3.941  0.1739  0.2879 -0.0968
   56CHL1  H21A 5303   6.291   0.445   3.887  0.6767 -1.1174  1.2319
   56CHL1  H21B 5304   6.119   0.392   3.908 -0.4609  0.5151  0.8342
   56CHL1  H21C 5305   6.206   0.430   4.046  0.2530  0.6099  0.0027
   56CHL1   C22 5306   6.058   0.665   4.033 -0.1680  0.0533  0.3144
   56CHL1  H22A 5307   6.017   0.763   3.999  0.4232 -0.4976 -2.1562
   56CHL1  H22B 5308   5.979   0.590   4.049 -0.6425  0.3378 -0.6059
   56CHL1   C23 5309   6.136   0.708   4.161  0.0289  0.1187 -0.3795
   56CHL1  H23A 5310   6.190   0.617   4.196 -1.5222 -1.6217 -2.2530
   56CHL1  H23B 5311   6.203   0.784   4.116 -0.9707  0.3941 -1.4248
   56CHL1   C24 5312   6.049   0.771   4.275  0.5811  0.3754  0.1391
   56CHL1  H24A 5313   6.030   0.877   4.249  0.3804  0.3424  0.1476
   56CHL1  H24B 5314   5.961   0.702   4.278  0.8600  0.0139  0.0267
   56CHL1   C25 5315   6.123   0.777   4.412  0.2881  0.2992 -0.2206
   56CHL1   H25 5316   6.158   0.678   4.448 -0.1363  0.7214  1.4281
   56CHL1   C26 5317   6.257   0.847   4.406  0.1210 -0.2690  0.0968
   56CHL1  H26A 5318   6.292   0.860   4.510  1.5749  0.7031 -0.4782
   56CHL1  H26B 5319   6.324   0.788   4.340 -1.7984 -2.0876 -0.3081
   56CHL1  H26C 5320   6.244   0.949   4.363 -2.5929 -1.0262 -1.1003
   56CHL1   C27 5321   6.030   0.834   4.517  0.3636 -0.0365 -0.1072
   56CHL1  H27A 5322   6.074   0.828   4.619  3.4618  0.9373 -1.2631
   56CHL1  H27B 5323   6.008   0.939   4.490  1.8207  1.0359  2.4678
   56CHL1  H27C 5324   5.938   0.772   4.517  2.2443 -3.0427  0.4759
   57CHL1    C3 5325   4.943   0.490   3.384  0.2085 -0.2054 -0.5296
   57CHL1    H3 5326   4.891   0.588   3.377 -0.5930 -0.6378 -0.6815
   57CHL1    O3 5327   4.981   0.442   3.259 -0.1078  0.0935  0.3968
   57CHL1   H3' 5328   4.900   0.426   3.211 -1.0714  0.3110  1.9000
   57CHL1    C4 5329   5.072   0.507   3.465  0.5941 -0.0189 -0.1755
   57CHL1   H4A 5330   5.122   0.408   3.459 -1.3393 -1.0993  0.5518
   57CHL1   H4B 5331   5.127   0.583   3.406 -3.0087  0.2083 -3.6474
   57CHL1    C5 5332   5.046   0.537   3.610  0.0664  1.0985  0.2339
   57CHL1    C6 5333   5.089   0.644   3.664 -0.0967  0.2180 -0.2021
   57CHL1    H6 5334   5.144   0.710   3.596 -1.0654 -0.1589 -1.3894
   57CHL1    C7 5335   5.067   0.695   3.806 -0.4466 -0.0149 -0.2063
   57CHL1   H7A 5336   5.157   0.752   3.837 -0.5073  1.0694 -1.9012
   57CHL1   H7B 5337   4.989   0.775   3.810  0.5614  0.9645  0.7866
   57CHL1    C8 5338   5.025   0.578   3.894 -0.3602 -0.2761 -0.3663
   57CHL1    H8 5339   5.116   0.514   3.898  1.4426  2.1669 -0.2853
   57CHL1   C14 5340   4.997   0.636   4.032 -0.0496  0.9596 -0.1033
   57CHL1   H14 5341   4.914   0.707   4.011  0.0916  1.0854 -0.2371
   57CHL1   C15 5342   5.105   0.725   4.103  0.5253  0.8750 -0.1026
   57CHL1  H15A 5343   5.206   0.680   4.087  1.0325  1.9307  0.0385
   57CHL1  H15B 5344   5.108   0.827   4.059  0.1818  0.5448 -0.9073
   57CHL1   C16 5345   5.052   0.718   4.252 -0.1615 -0.1559  0.4405
   57CHL1  H16A 5346   5.142   0.687   4.310 -0.6060 -2.9278 -0.1896
   57CHL1  H16B 5347   5.022   0.815   4.296 -2.2177 -1.2348  1.5803
   57CHL1   C17 5348   4.934   0.614   4.254 -0.0522 -0.6023  0.1695
   57CHL1   H17 5349   4.851   0.686   4.241 -0.8786 -1.5946 -0.1867
   57CHL1   C13 5350   4.942   0.527   4.126 -0.6234  0.1955  1.0830
   57CHL1   C18 5351   5.045   0.418   4.155  0.0232 -0.6129  0.2101
   57CHL1  H18A 5352   5.141   0.455   4.197 -0.2494  0.4136 -0.0527
   57CHL1  H18B 5353   5.016   0.341   4.230  2.7398 -2.8650 -0.8193
   57CHL1  H18C 5354   5.078   0.371   4.059  0.9276  0.8959 -0.2502
   57CHL1   C12 5355   4.803   0.477   4.063  0.6920  0.2934 -0.6210
   57CHL1  H12A 5356   4.752   0.410   4.136  1.7499  2.6741  2.5311
   57CHL1  H12B 5357   4.737   0.566   4.059  0.0732 -0.0623  0.8755
   57CHL1   C11 5358   4.822   0.418   3.916  0.3160  0.1464  0.0524
   57CHL1  H11A 5359   4.883   0.330   3.942  2.8237  0.4660 -3.8867
   57CHL1  H11B 5360   4.724   0.387   3.874  1.1009 -1.3687 -0.7335
   57CHL1    C9 5361   4.904   0.514   3.826  0.2893  0.4214  0.6056
   57CHL1    H9 5362   4.825   0.585   3.795  0.5540  0.6301  0.4076
   57CHL1   C10 5363   4.942   0.450   3.683  0.7393 -0.5459 -0.0064
   57CHL1   C19 5364   5.014   0.314   3.707  0.3926  0.4491 -0.3787
   57CHL1  H19A 5365   5.109   0.322   3.764  0.3752  0.6829 -0.3808
   57CHL1  H19B 5366   4.951   0.240   3.762 -0.5604  3.7276  3.4814
   57CHL1  H19C 5367   5.036   0.266   3.609 -1.6912 -1.6014  0.0594
   57CHL1    C1 5368   4.819   0.431   3.592 -0.4885  0.4307  0.0936
   57CHL1   H1A 5369   4.767   0.339   3.626  0.9945 -1.9567 -3.4747
   57CHL1   H1B 5370   4.750   0.518   3.589  0.1075  0.9908  1.8445
   57CHL1    C2 5371   4.851   0.390   3.451 -0.3032  0.1963  0.0682
   57CHL1   H2A 5372   4.750   0.379   3.405 -0.8801  1.5656  0.9548
   57CHL1   H2B 5373   4.895   0.288   3.453 -2.7278 -0.9975 -1.5679
   57CHL1   C20 5374   4.917   0.554   4.392 -0.0206 -0.2292  0.0858
   57CHL1   H20 5375   4.983   0.466   4.405 -1.1649 -1.0402  0.5825
   57CHL1   C21 5376   4.767   0.499   4.396  0.5543  0.0582 -0.3891
   57CHL1  H21A 5377   4.758   0.467   4.502  0.3109 -0.1921 -0.4876
   57CHL1  H21B 5378   4.762   0.408   4.333  2.9190 -0.6876  0.3565
   57CHL1  H21C 5379   4.693   0.576   4.366 -2.0744 -2.3014 -0.2795
   57CHL1   C22 5380   4.948   0.642   4.515  0.4746 -0.0327 -0.0754
   57CHL1  H22A 5381   4.919   0.569   4.593  1.0984 -1.0912 -0.8119
   57CHL1  H22B 5382   5.058   0.658   4.527  0.3417  1.8090 -0.8694
   57CHL1   C23 5383   4.871   0.782   4.529 -0.7322  0.4895  0.2198
   57CHL1  H23A 5384   4.909   0.861   4.462  0.9742  0.3201  0.9282
   57CHL1  H23B 5385   4.766   0.755   4.502 -0.7021 -0.1621  0.7309
   57CHL1   C24 5386   4.876   0.830   4.673 -0.1114  0.2005  0.4246
   57CHL1  H24A 5387   4.785   0.882   4.708 -1.3389 -1.8279  0.3996
   57CHL1  H24B 5388   4.874   0.738   4.736 -2.9891 -0.0549  0.0969
   57CHL1   C25 5389   5.008   0.899   4.714 -0.0220 -0.2950  0.1713
   57CHL1   H25 5390   5.090   0.832   4.680  1.3854  0.9108  1.0458
   57CHL1   C26 5391   5.040   1.033   4.641 -0.4231  0.7442 -0.4537
   57CHL1  H26A 5392   5.142   1.069   4.666  0.1591 -1.5650  0.8570
   57CHL1  H26B 5393   5.036   1.013   4.532 -0.8112  1.4169 -0.5660
   57CHL1  H26C 5394   4.964   1.106   4.677 -1.3091  0.5858 -1.9346
   57CHL1   C27 5395   5.021   0.927   4.861  0.1166 -0.5967 -0.2249
   57CHL1  H27A 5396   4.942   0.999   4.892  0.8436  0.0588  0.1241
   57CHL1  H27B 5397   5.008   0.832   4.916  0.1157 -1.0387 -0.9780
   57CHL1  H27C 5398   5.118   0.971   4.893  0.6110  0.2664 -2.6768
   58CHL1    C3 5399   5.029   3.723   3.217  0.2003  0.1131 -0.5406
   58CHL1    H3 5400   5.135   3.756   3.226 -0.0610  0.6369  0.9402
   58CHL1    O3 5401   5.005   3.684   3.081 -0.3124  0.4195 -0.1068
   58CHL1   H3' 5402   4.913   3.656   3.073  0.3155 -1.5945 -0.8532
   58CHL1    C4 5403   5.005   3.601   3.302  0.3619 -0.1168 -0.5934
   58CHL1   H4A 5404   4.915   3.545   3.270  1.2169 -1.6561 -0.3837
   58CHL1   H4B 5405   5.094   3.537   3.283  1.7875  1.9099 -1.1629
   58CHL1    C5 5406   5.008   3.628   3.453 -0.2380  0.2333 -0.1186
   58CHL1    C6 5407   5.085   3.563   3.537 -0.1617 -0.4589 -0.1006
   58CHL1    H6 5408   5.156   3.489   3.498  1.7646  1.0163  0.4391
   58CHL1    C7 5409   5.096   3.583   3.682 -0.2575 -0.1780 -1.2339
   58CHL1   H7A 5410   5.082   3.482   3.726  1.3209  0.1202  0.0320
   58CHL1   H7B 5411   5.197   3.619   3.711 -0.1151 -0.7637 -0.9817
   58CHL1    C8 5412   4.988   3.669   3.737  0.2028  0.4294 -0.0976
   58CHL1    H8 5413   4.903   3.599   3.752  0.8733 -0.3662  0.0704
   58CHL1   C14 5414   5.026   3.725   3.865 -0.1343  0.9404  0.0329
   58CHL1   H14 5415   5.102   3.803   3.840 -0.0768  1.6543  2.2701
   58CHL1   C15 5416   5.097   3.634   3.976 -0.1861  0.9077  0.0959
   58CHL1  H15A 5417   5.049   3.534   3.976 -2.3273  1.8702 -1.1033
   58CHL1  H15B 5418   5.202   3.628   3.941 -1.0267 -0.6528 -2.4189
   58CHL1   C16 5419   5.076   3.705   4.105 -0.3338  0.8398 -0.3008
   58CHL1  H16A 5420   5.020   3.643   4.178  1.8509 -1.4174 -0.4268
   58CHL1  H16B 5421   5.172   3.742   4.147  1.3008 -0.8969 -2.3342
   58CHL1   C17 5422   4.981   3.830   4.078 -0.3116 -0.2540 -0.3160
   58CHL1   H17 5423   5.044   3.916   4.046  0.5646 -0.7104  0.1449
   58CHL1   C13 5424   4.910   3.798   3.942 -0.4620 -0.1613 -0.7084
   58CHL1   C18 5425   4.796   3.701   3.967  0.2118  0.2256  0.1708
   58CHL1  H18A 5426   4.728   3.677   3.883  1.8323 -1.2940 -0.7726
   58CHL1  H18B 5427   4.834   3.601   4.000 -1.2124 -1.4763 -2.9260
   58CHL1  H18C 5428   4.743   3.733   4.060  0.8870 -0.1343  0.6935
   58CHL1   C12 5429   4.867   3.914   3.848 -0.2656  0.0116  0.1105
   58CHL1  H12A 5430   4.783   3.973   3.890 -1.1547 -1.5145  0.5171
   58CHL1  H12B 5431   4.963   3.972   3.845  2.4499 -3.8954  2.2424
   58CHL1   C11 5432   4.835   3.869   3.703 -0.2536 -0.0556 -0.4615
   58CHL1  H11A 5433   4.735   3.821   3.709 -0.8660  1.3025  1.2766
   58CHL1  H11B 5434   4.826   3.958   3.637 -0.1523 -2.0437 -3.2976
   58CHL1    C9 5435   4.945   3.786   3.642  0.3937  0.4689  0.0002
   58CHL1    H9 5436   5.036   3.849   3.630  1.4503 -0.7089  1.4362
   58CHL1   C10 5437   4.912   3.738   3.492  0.1859 -0.4416  0.3042
   58CHL1   C19 5438   4.764   3.693   3.482  0.3021  0.1918  0.4502
   58CHL1  H19A 5439   4.746   3.612   3.556  0.4455 -0.9001 -0.6675
   58CHL1  H19B 5440   4.697   3.777   3.510  0.9676  0.7053  0.5328
   58CHL1  H19C 5441   4.739   3.657   3.380  1.3854  1.4544 -0.2927
   58CHL1    C1 5442   4.931   3.866   3.397  0.4766 -0.4995 -0.0150
   58CHL1   H1A 5443   4.847   3.938   3.414 -1.3135 -1.8479 -2.4407
   58CHL1   H1B 5444   5.032   3.909   3.413  0.3553 -1.0808  2.6978
   58CHL1    C2 5445   4.927   3.830   3.242  0.3973 -0.1264  0.0568
   58CHL1   H2A 5446   4.941   3.924   3.184 -1.4793 -0.3271 -0.7952
   58CHL1   H2B 5447   4.826   3.796   3.211  0.2432 -1.0019  1.4261
   58CHL1   C20 5448   4.900   3.874   4.200 -0.1857  0.0667  0.0321
   58CHL1   H20 5449   4.829   3.797   4.235  1.9031 -1.9439  0.1102
   58CHL1   C21 5450   4.821   4.005   4.180  0.4293 -0.1893  0.0197
   58CHL1  H21A 5451   4.893   4.089   4.180  0.5450 -0.2851 -0.4843
   58CHL1  H21B 5452   4.752   4.032   4.263 -0.0027 -2.6686  0.5436
   58CHL1  H21C 5453   4.755   4.001   4.091  1.5191 -0.2476 -0.7993
   58CHL1   C22 5454   5.002   3.897   4.318 -0.9343 -0.5068 -0.2615
   58CHL1  H22A 5455   5.032   3.798   4.359 -2.5984  0.3101  3.3288
   58CHL1  H22B 5456   5.099   3.937   4.281 -0.2174 -1.4127  0.5949
   58CHL1   C23 5457   4.948   3.977   4.437  0.0284 -0.3931 -0.0254
   58CHL1  H23A 5458   4.913   4.081   4.419 -2.1801 -1.1959 -0.7336
   58CHL1  H23B 5459   4.865   3.912   4.473 -1.2712  1.0334 -0.3249
   58CHL1   C24 5460   5.035   3.974   4.561  0.9745 -0.6245  0.4824
   58CHL1  H24A 5461   5.044   3.868   4.592 -2.7316 -0.9466  0.9508
   58CHL1  H24B 5462   5.133   4.023   4.542  1.5340 -1.1933  1.7844
   58CHL1   C25 5463   4.977   4.051   4.686  0.2534 -0.5517  0.5022
   58CHL1   H25 5464   4.993   4.160   4.672 -0.1215 -0.6653 -0.9468
   58CHL1   C26 5465   4.827   4.032   4.722 -0.7343 -0.8323 -0.4806
   58CHL1  H26A 5466   4.797   4.075   4.820 -0.5642 -0.4117 -0.6081
   58CHL1  H26B 5467   4.756   4.050   4.639 -0.9298 -0.2524 -0.1949
   58CHL1  H26C 5468   4.823   3.923   4.741  0.3144 -0.6542  0.8856
   58CHL1   C27 5469   5.063   4.021   4.811  0.1769 -0.1081  0.5161
   58CHL1  H27A 5470   5.171   4.037   4.790 -0.4245  2.4356 -1.0044
   58CHL1  H27B 5471   5.034   4.089   4.894 -0.0400 -0.1379  0.4637
   58CHL1  H27C 5472   5.039   3.915   4.836 -0.2157 -0.2892 -0.5790
   59CHL1    C3 5473   2.838   5.840   3.071  0.3643 -0.1362 -0.2776
   59CHL1    H3 5474   2.747   5.901   3.085 -0.4795 -1.7217  1.7015
   59CHL1    O3 5475   2.848   5.803   2.936  0.6641 -0.4523 -0.6687
   59CHL1   H3' 5476   2.772   5.745   2.924 -0.2184  0.0350  1.9312
   59CHL1    C4 5477   2.959   5.928   3.115  0.2061  0.7166  0.5971
   59CHL1   H4A 5478   3.050   5.875   3.079 -0.7380  0.2865 -1.2854
   59CHL1   H4B 5479   2.951   6.024   3.059 -2.2011  0.1225 -0.2076
   59CHL1    C5 5480   2.963   5.947   3.265 -0.7493  0.7705  0.1090
   59CHL1    C6 5481   2.958   6.072   3.318  0.0548  0.7450 -0.0716
   59CHL1    H6 5482   2.950   6.163   3.256 -1.7102  0.1141 -0.8244
   59CHL1    C7 5483   2.966   6.101   3.462  0.9185  0.8637 -0.6373
   59CHL1   H7A 5484   3.045   6.178   3.477  0.8697  0.9935 -1.0425
   59CHL1   H7B 5485   2.869   6.150   3.485  0.9515  0.5104  0.3145
   59CHL1    C8 5486   2.993   5.970   3.551 -0.3378 -0.8762 -0.2886
   59CHL1    H8 5487   3.102   5.958   3.531 -0.3998  2.1679 -3.5943
   59CHL1   C14 5488   2.965   6.000   3.699 -0.6468  0.2189  0.3820
   59CHL1   H14 5489   2.858   6.023   3.719 -0.3876  1.5636  0.3271
   59CHL1   C15 5490   3.034   6.122   3.766 -0.5936 -0.0431  0.2611
   59CHL1  H15A 5491   3.144   6.125   3.751 -0.4656  0.7131  1.2762
   59CHL1  H15B 5492   2.988   6.221   3.746 -0.8935 -0.0853  0.7077
   59CHL1   C16 5493   3.023   6.083   3.920  0.1495 -0.8890  0.2942
   59CHL1  H16A 5494   3.124   6.086   3.966  0.2849  2.3910  0.0454
   59CHL1  H16B 5495   2.954   6.157   3.967  0.0037  0.4470 -1.8830
   59CHL1   C17 5496   2.966   5.939   3.932  0.1382 -0.0126 -0.1915
   59CHL1   H17 5497   2.856   5.935   3.946  0.4836 -0.6243  3.0330
   59CHL1   C13 5498   2.994   5.880   3.794 -0.6541 -0.6363 -0.7592
   59CHL1   C18 5499   3.146   5.844   3.791  0.1850  0.5270  0.1944
   59CHL1  H18A 5500   3.158   5.745   3.840 -1.9823  0.6170  0.9755
   59CHL1  H18B 5501   3.175   5.834   3.684 -2.2522 -0.5565 -0.4206
   59CHL1  H18C 5502   3.220   5.915   3.834  1.6223 -0.2721 -0.8477
   59CHL1   C12 5503   2.908   5.760   3.739  0.2869  0.2435  0.3018
   59CHL1  H12A 5504   2.934   5.668   3.796  0.0591 -0.3041 -0.4605
   59CHL1  H12B 5505   2.798   5.780   3.743 -0.1015 -1.1307 -1.7146
   59CHL1   C11 5506   2.941   5.723   3.591  0.0858 -0.8214 -0.5130
   59CHL1  H11A 5507   3.042   5.675   3.592  1.8568  2.5684 -0.0448
   59CHL1  H11B 5508   2.877   5.636   3.565 -1.0397 -0.1266 -0.1477
   59CHL1    C9 5509   2.925   5.845   3.502  0.5419  0.0100 -0.6186
   59CHL1    H9 5510   2.817   5.861   3.522  0.5691  1.1611 -1.3511
   59CHL1   C10 5511   2.956   5.815   3.354  0.3109  0.8876  1.2776
   59CHL1   C19 5512   3.093   5.750   3.341  0.5193  0.0471 -0.5429
   59CHL1  H19A 5513   3.172   5.816   3.383  0.3392 -0.1802  0.1701
   59CHL1  H19B 5514   3.093   5.654   3.397 -1.3364  0.3281 -0.0048
   59CHL1  H19C 5515   3.117   5.726   3.235 -0.8719  2.1629 -1.4086
   59CHL1    C1 5516   2.834   5.733   3.295 -0.3996  0.2959  0.7388
   59CHL1   H1A 5517   2.822   5.636   3.348  0.8512 -0.7001 -0.7107
   59CHL1   H1B 5518   2.744   5.794   3.317 -0.4254 -0.0024  1.4842
   59CHL1    C2 5519   2.834   5.704   3.147 -0.0594 -0.2400 -0.0602
   59CHL1   H2A 5520   2.740   5.654   3.115 -2.5921  3.4688  1.0005
   59CHL1   H2B 5521   2.925   5.641   3.132 -1.7334 -2.2121 -2.9578
   59CHL1   C20 5522   3.019   5.860   4.051 -0.1350 -0.7724 -0.2909
   59CHL1   H20 5523   3.129   5.853   4.048  0.0726  1.6072 -0.0440
   59CHL1   C21 5524   2.966   5.719   4.054  0.0888 -0.5218  0.5368
   59CHL1  H21A 5525   3.007   5.669   3.964  1.1785  0.2875  0.5625
   59CHL1  H21B 5526   2.855   5.719   4.043  0.2380 -0.9703 -1.1474
   59CHL1  H21C 5527   2.996   5.675   4.152  0.2688  1.4287  1.4170
   59CHL1   C22 5528   2.988   5.932   4.172  0.1098  0.1235  0.5182
   59CHL1  H22A 5529   3.033   6.033   4.164  1.6994 -0.5684  0.3486
   59CHL1  H22B 5530   2.879   5.952   4.177 -0.2651 -1.6035 -0.2852
   59CHL1   C23 5531   3.053   5.873   4.298  0.9548 -0.2028 -0.5064
   59CHL1  H23A 5532   3.049   5.763   4.314 -2.9597 -0.5675 -2.7803
   59CHL1  H23B 5533   3.157   5.911   4.292  0.9524  0.3137  1.7928
   59CHL1   C24 5534   2.984   5.935   4.422 -0.7166 -0.5719  0.9986
   59CHL1  H24A 5535   3.068   5.938   4.494  2.0818  0.4059 -2.0707
   59CHL1  H24B 5536   2.955   6.042   4.408 -1.6960 -0.6129  2.4515
   59CHL1   C25 5537   2.860   5.863   4.467  1.2588 -0.3507  0.4990
   59CHL1   H25 5538   2.788   5.861   4.383  0.1848  0.7153  1.3722
   59CHL1   C26 5539   2.863   5.716   4.523 -0.1441 -0.4244 -0.1272
   59CHL1  H26A 5540   2.938   5.712   4.604  0.0072 -1.6552 -0.3026
   59CHL1  H26B 5541   2.766   5.694   4.573 -0.7030  1.0034 -0.5292
   59CHL1  H26C 5542   2.891   5.644   4.443  3.2723  1.5922 -0.9503
   59CHL1   C27 5543   2.790   5.957   4.573  0.0295  0.7158 -0.0372
   59CHL1  H27A 5544   2.860   5.976   4.658  1.7165 -2.9529 -0.3949
   59CHL1  H27B 5545   2.758   6.050   4.522  0.1077  1.0609  0.5357
   59CHL1  H27C 5546   2.699   5.908   4.612 -0.6407  0.4696 -1.8502
   60CHL1    C3 5547   6.056   4.827   3.276  0.4052 -0.2043  0.4087
   60CHL1    H3 5548   6.161   4.792   3.270 -0.5760 -3.4195  0.3468
   60CHL1    O3 5549   6.004   4.841   3.145 -0.1244 -0.0895  0.4498
   60CHL1   H3' 5550   5.980   4.757   3.107 -0.9164  0.1124  0.4909
   60CHL1    C4 5551   5.982   4.720   3.360 -0.1707  0.3639  0.0420
   60CHL1   H4A 5552   5.872   4.740   3.360  0.1509  2.7474  2.6142
   60CHL1   H4B 5553   5.993   4.624   3.306 -1.4663  0.9607 -1.3791
   60CHL1    C5 5554   6.026   4.714   3.506 -0.6082 -0.3336  0.2329
   60CHL1    C6 5555   6.075   4.604   3.560 -0.3926 -0.0727  0.6821
   60CHL1    H6 5556   6.079   4.508   3.506  3.4941  0.5266 -0.4687
   60CHL1    C7 5557   6.107   4.592   3.707 -0.1111  0.0330 -0.4555
   60CHL1   H7A 5558   6.069   4.502   3.760  2.7124 -0.8662  0.2514
   60CHL1   H7B 5559   6.218   4.583   3.715 -0.2790 -0.5726  2.4534
   60CHL1    C8 5560   6.062   4.714   3.798 -1.1575 -0.3948 -0.0249
   60CHL1    H8 5561   5.954   4.689   3.799 -0.9827 -1.2795 -1.4094
   60CHL1   C14 5562   6.136   4.716   3.932 -0.3130  0.6642  0.2158
   60CHL1   H14 5563   6.243   4.733   3.909  0.4562 -1.6966  1.6806
   60CHL1   C15 5564   6.127   4.587   4.018 -0.3708  0.0769  0.3674
   60CHL1  H15A 5565   6.022   4.553   4.030 -0.2484 -1.1133 -1.5007
   60CHL1  H15B 5566   6.187   4.514   3.959  3.7152  2.6139  1.0025
   60CHL1   C16 5567   6.185   4.632   4.148 -0.4927 -0.0371 -0.0865
   60CHL1  H16A 5568   6.134   4.567   4.223  1.1111 -1.1760  0.0764
   60CHL1  H16B 5569   6.294   4.617   4.165  0.2254  3.7702 -0.4506
   60CHL1   C17 5570   6.166   4.789   4.153 -0.3163 -0.3626 -0.4396
   60CHL1   H17 5571   6.267   4.834   4.150 -1.4829  2.4747 -2.4133
   60CHL1   C13 5572   6.091   4.828   4.024 -0.3621 -0.1974  0.4919
   60CHL1   C18 5573   5.939   4.826   4.042  0.8105 -0.2110 -0.1454
   60CHL1  H18A 5574   5.901   4.732   4.087  0.6275 -0.0976 -0.0667
   60CHL1  H18B 5575   5.905   4.908   4.108  1.5031 -1.6829  2.1478
   60CHL1  H18C 5576   5.885   4.846   3.947  0.9600  0.6584 -0.0581
   60CHL1   C12 5577   6.139   4.956   3.961  0.4732 -0.2391  0.0744
   60CHL1  H12A 5578   6.102   5.047   4.013  2.6787  0.2925  0.8019
   60CHL1  H12B 5579   6.250   4.958   3.963  0.5142  3.1265  0.6906
   60CHL1   C11 5580   6.079   4.971   3.819  0.3609 -0.0117  0.6622
   60CHL1  H11A 5581   5.977   5.013   3.834  0.6595  1.4755 -1.0963
   60CHL1  H11B 5582   6.130   5.053   3.764  0.1973  0.2630  0.9161
   60CHL1    C9 5583   6.087   4.845   3.721 -0.0621  0.0989  0.0687
   60CHL1    H9 5584   6.195   4.835   3.701 -0.2766 -1.5587 -0.4176
   60CHL1   C10 5585   6.018   4.856   3.577  0.6411  0.0481 -0.0181
   60CHL1   C19 5586   5.870   4.884   3.601  0.2179 -0.3430  0.0475
   60CHL1  H19A 5587   5.861   4.980   3.657  2.1945  0.2236 -0.5179
   60CHL1  H19B 5588   5.816   4.910   3.507  0.8312  0.4914 -0.0803
   60CHL1  H19C 5589   5.817   4.801   3.652  1.3317 -0.7386  0.5884
   60CHL1    C1 5590   6.089   4.969   3.484  0.6560  0.1911 -0.8263
   60CHL1   H1A 5591   6.079   5.066   3.538  2.1015 -0.3398  0.4781
   60CHL1   H1B 5592   6.198   4.949   3.480  0.3069 -2.8089  0.9764
   60CHL1    C2 5593   6.041   4.963   3.339 -0.8756  0.1099 -0.9379
   60CHL1   H2A 5594   6.092   5.037   3.273 -1.5668  1.7025  0.2435
   60CHL1   H2B 5595   5.933   4.992   3.336 -1.0570 -0.5426 -0.8202
   60CHL1   C20 5596   6.098   4.845   4.281  0.6872 -0.4056  0.2239
   60CHL1   H20 5597   5.997   4.799   4.293  0.1324  1.2002  2.5162
   60CHL1   C21 5598   6.094   5.001   4.287  0.3677  0.2429  0.7441
   60CHL1  H21A 5599   6.015   5.025   4.212  1.5341 -0.1216 -0.6594
   60CHL1  H21B 5600   6.192   5.042   4.253  0.5689 -0.5665  0.3156
   60CHL1  H21C 5601   6.050   5.036   4.382  1.0008  0.0705  1.1077
   60CHL1   C22 5602   6.166   4.788   4.412 -1.0140 -0.1747  0.6997
   60CHL1  H22A 5603   6.160   4.677   4.417 -1.5260 -0.2814 -1.4562
   60CHL1  H22B 5604   6.273   4.815   4.401 -0.7895 -1.9658 -3.2372
   60CHL1   C23 5605   6.139   4.860   4.544 -0.4736  0.4770  0.8094
   60CHL1  H23A 5606   6.183   4.962   4.544  1.1436 -0.1871 -0.1360
   60CHL1  H23B 5607   6.029   4.851   4.557 -0.6543 -0.9766 -1.2098
   60CHL1   C24 5608   6.205   4.781   4.661 -0.1836 -0.0157 -0.1170
   60CHL1  H24A 5609   6.171   4.675   4.652 -0.0658  0.0182 -1.0371
   60CHL1  H24B 5610   6.315   4.778   4.649 -0.1201  1.4189 -0.0362
   60CHL1   C25 5611   6.167   4.819   4.802 -0.0904  0.1551 -0.1230
   60CHL1   H25 5612   6.237   4.777   4.877 -0.0904  0.8262  0.2551
   60CHL1   C26 5613   6.195   4.970   4.814  0.2933  0.3288  0.3830
   60CHL1  H26A 5614   6.131   5.026   4.742 -0.1667 -0.5442  0.1090
   60CHL1  H26B 5615   6.178   5.003   4.919  0.8542  1.5375  0.1171
   60CHL1  H26C 5616   6.303   4.986   4.789 -0.2887  1.8452 -1.4492
   60CHL1   C27 5617   6.019   4.779   4.830 -0.5760  0.4917  0.4134
   60CHL1  H27A 5618   6.022   4.668   4.836 -0.8142  0.5847  3.0768
   60CHL1  H27B 5619   5.990   4.800   4.935  0.8840  0.1251  0.9019
   60CHL1  H27C 5620   5.951   4.822   4.752 -1.2317  1.3316  1.4190
   61CHL1    C3 5621   5.631   6.816   3.006 -0.2181 -0.0282  0.8889
   61CHL1    H3 5622   5.590   6.916   2.981 -1.9833 -1.0002 -0.3012
   61CHL1    O3 5623   5.644   6.757   2.875  0.4880  0.0182  0.2709
   61CHL1   H3' 5624   5.560   6.712   2.861  0.6660 -0.4772  0.7663
   61CHL1    C4 5625   5.766   6.830   3.069 -0.2016  0.1484  0.5331
   61CHL1   H4A 5626   5.829   6.739   3.066  0.1366  0.3856  0.1283
   61CHL1   H4B 5627   5.823   6.890   2.994 -0.8816  0.5394  0.3158
   61CHL1    C5 5628   5.769   6.887   3.205  0.7139 -0.5759  0.6806
   61CHL1    C6 5629   5.834   6.995   3.231  0.5554  0.0797 -0.3138
   61CHL1    H6 5630   5.884   7.050   3.150 -1.8300 -0.0213 -1.9483
   61CHL1    C7 5631   5.842   7.059   3.369  0.7231  0.4869 -0.5627
   61CHL1   H7A 5632   5.943   7.104   3.380  1.2604 -0.1407 -2.4307
   61CHL1   H7B 5633   5.767   7.140   3.381 -0.6677 -1.1575  3.3461
   61CHL1    C8 5634   5.807   6.950   3.480  0.6129  0.4529  0.0169
   61CHL1    H8 5635   5.889   6.875   3.475 -0.8353 -1.1096 -1.5739
   61CHL1   C14 5636   5.797   7.027   3.612 -0.1417 -1.0915 -0.4819
   61CHL1   H14 5637   5.713   7.098   3.604 -2.1079 -3.2097  0.2489
   61CHL1   C15 5638   5.924   7.108   3.651 -0.0518 -0.7377 -0.2567
   61CHL1  H15A 5639   6.017   7.047   3.651  2.2254  2.4711 -1.1011
   61CHL1  H15B 5640   5.942   7.196   3.586  1.2642  0.8480  2.0845
   61CHL1   C16 5641   5.881   7.146   3.797 -0.0547 -0.2580 -0.4629
   61CHL1  H16A 5642   5.967   7.156   3.868 -0.5308 -1.7317  0.3711
   61CHL1  H16B 5643   5.831   7.244   3.786 -1.1406 -0.5229  1.5715
   61CHL1   C17 5644   5.767   7.049   3.848 -0.0448  0.5137  0.3806
   61CHL1   H17 5645   5.671   7.105   3.841 -1.8845 -2.3202  1.3751
   61CHL1   C13 5646   5.751   6.941   3.728  0.3882 -0.0643 -0.4225
   61CHL1   C18 5647   5.850   6.814   3.754 -0.2591  0.5858  0.0414
   61CHL1  H18A 5648   5.824   6.737   3.679 -1.8027  0.3433  0.7934
   61CHL1  H18B 5649   5.955   6.850   3.744 -1.2777  3.3617 -1.3767
   61CHL1  H18C 5650   5.830   6.785   3.860  0.4634 -0.4501 -0.0880
   61CHL1   C12 5651   5.602   6.890   3.700  0.1881 -0.2026  0.2000
   61CHL1  H12A 5652   5.554   6.838   3.784  0.9524 -0.5844  0.4130
   61CHL1  H12B 5653   5.547   6.986   3.685 -1.2526 -1.1688 -0.9841
   61CHL1   C11 5654   5.599   6.811   3.565  0.0239 -0.5017  0.4039
   61CHL1  H11A 5655   5.632   6.705   3.575 -0.5163 -0.6393  0.7642
   61CHL1  H11B 5656   5.490   6.809   3.545 -0.7080  0.0391  3.7462
   61CHL1    C9 5657   5.665   6.891   3.449 -0.1846 -0.0836 -0.0506
   61CHL1    H9 5658   5.599   6.978   3.428  0.7579  0.5608 -0.4455
   61CHL1   C10 5659   5.677   6.818   3.310  0.3848  0.8732 -0.0824
   61CHL1   C19 5660   5.743   6.676   3.343  0.1685 -0.6137  0.4997
   61CHL1  H19A 5661   5.852   6.677   3.365  0.5763  2.0838 -1.1809
   61CHL1  H19B 5662   5.691   6.622   3.425  0.1347  0.0702  0.9392
   61CHL1  H19C 5663   5.741   6.606   3.257 -0.2916  0.8616 -0.7466
   61CHL1    C1 5664   5.539   6.790   3.239  0.7149  0.2545  0.5584
   61CHL1   H1A 5665   5.488   6.724   3.312 -0.0821  0.0079 -0.2060
   61CHL1   H1B 5666   5.480   6.883   3.247  2.5789  1.4451  1.1800
   61CHL1    C2 5667   5.539   6.728   3.096 -0.3265 -0.1209  0.4759
   61CHL1   H2A 5668   5.430   6.723   3.074  0.1220  0.8845 -2.4558
   61CHL1   H2B 5669   5.579   6.626   3.114 -1.3498 -0.5029  0.6621
   61CHL1   C20 5670   5.770   7.008   3.996  0.1021  0.6862 -0.4075
   61CHL1   H20 5671   5.853   6.941   4.027 -0.7217  0.1882  0.7762
   61CHL1   C21 5672   5.649   6.921   4.038 -0.5323  0.1918 -0.7286
   61CHL1  H21A 5673   5.561   6.979   4.002 -0.5897 -0.6724 -2.0340
   61CHL1  H21B 5674   5.639   6.913   4.149 -1.7365 -4.0077 -0.9798
   61CHL1  H21C 5675   5.643   6.818   3.999  1.0110 -0.6040  0.9579
   61CHL1   C22 5676   5.766   7.131   4.097 -0.0267  0.3418  1.0958
   61CHL1  H22A 5677   5.798   7.223   4.044 -1.3838 -0.0982 -0.5628
   61CHL1  H22B 5678   5.659   7.151   4.120 -0.6255 -0.6053 -0.7186
   61CHL1   C23 5679   5.859   7.102   4.214 -0.3311  0.1729  0.4996
   61CHL1  H23A 5680   5.835   7.016   4.280  0.2881 -1.1697 -0.9549
   61CHL1  H23B 5681   5.964   7.089   4.179  0.1893 -1.4453  2.4756
   61CHL1   C24 5682   5.870   7.233   4.304  0.4628 -0.2663  0.4273
   61CHL1  H24A 5683   5.890   7.307   4.223  0.3875 -2.0697 -1.3166
   61CHL1  H24B 5684   5.770   7.261   4.342 -1.1373 -2.5670 -1.8053
   61CHL1   C25 5685   5.969   7.245   4.421  0.1508  0.2889  0.3527
   61CHL1   H25 5686   5.963   7.349   4.459 -1.2557 -0.0165  1.0329
   61CHL1   C26 5687   5.915   7.162   4.535  0.5757  0.0425  0.0272
   61CHL1  H26A 5688   5.915   7.055   4.505  0.3337  0.0129  0.1281
   61CHL1  H26B 5689   5.980   7.180   4.623  0.6598  0.0716 -0.0406
   61CHL1  H26C 5690   5.813   7.197   4.561  1.5436  2.3483  0.9931
   61CHL1   C27 5691   6.113   7.212   4.382 -0.3370  0.0886 -0.5466
   61CHL1  H27A 5692   6.120   7.104   4.356 -1.8476 -0.5864  1.5133
   61CHL1  H27B 5693   6.131   7.277   4.294  0.5910  0.2450 -0.2491
   61CHL1  H27C 5694   6.179   7.239   4.467  2.0418  0.0953 -2.3133
   62CHL1    C3 5695   6.761   0.730   2.925 -0.8885  0.2538 -0.1580
   62CHL1    H3 5696   6.655   0.758   2.942 -1.3704 -0.2209 -2.1810
   62CHL1    O3 5697   6.767   0.689   2.786  0.3600  0.5199  0.0020
   62CHL1   H3' 5698   6.800   0.599   2.784  2.2474  1.1283 -2.6425
   62CHL1    C4 5699   6.860   0.849   2.953 -0.2852  0.5434  0.2373
   62CHL1   H4A 5700   6.962   0.836   2.911  0.4446 -0.1537  2.1362
   62CHL1   H4B 5701   6.817   0.928   2.887  1.3420  2.0324  0.8722
   62CHL1    C5 5702   6.851   0.894   3.094 -0.1230 -0.9010  0.4489
   62CHL1    C6 5703   6.824   1.022   3.131 -0.5919  0.0034 -0.0481
   62CHL1    H6 5704   6.815   1.102   3.057 -0.8948  0.7680  0.7928
   62CHL1    C7 5705   6.811   1.062   3.272  0.1509  1.0162 -0.7223
   62CHL1   H7A 5706   6.840   1.168   3.290  2.8439  0.0367  1.5201
   62CHL1   H7B 5707   6.703   1.054   3.296  0.0695  1.7508 -0.8181
   62CHL1    C8 5708   6.890   0.968   3.372  0.7436 -0.3711  0.6992
   62CHL1    H8 5709   7.000   0.979   3.358  0.5718  1.9262  0.7991
   62CHL1   C14 5710   6.845   1.006   3.512 -0.5284 -0.0575 -0.3975
   62CHL1   H14 5711   6.735   0.990   3.518 -0.8391  1.9325 -0.4164
   62CHL1   C15 5712   6.872   1.145   3.552 -0.1939  0.0338 -0.8949
   62CHL1  H15A 5713   6.974   1.183   3.532 -0.6636  2.4044  0.7645
   62CHL1  H15B 5714   6.801   1.220   3.510  0.3802  1.7096  1.0217
   62CHL1   C16 5715   6.860   1.137   3.706 -0.5160 -0.5015 -0.6985
   62CHL1  H16A 5716   6.956   1.181   3.740 -0.8981 -0.0946 -0.1400
   62CHL1  H16B 5717   6.786   1.198   3.762  0.1045 -1.6896  1.5514
   62CHL1   C17 5718   6.843   0.990   3.750 -0.3494 -0.6470  0.3153
   62CHL1   H17 5719   6.732   0.983   3.753 -0.5775  1.2499 -1.3151
   62CHL1   C13 5720   6.898   0.919   3.629  0.7517 -0.7703 -0.5478
   62CHL1   C18 5721   7.048   0.928   3.628 -0.5107 -0.0079  0.3285
   62CHL1  H18A 5722   7.074   0.890   3.527  0.7495 -0.3601  0.7621
   62CHL1  H18B 5723   7.079   1.032   3.651 -2.2588  0.6196 -0.0227
   62CHL1  H18C 5724   7.103   0.852   3.688 -0.0438 -0.7232 -0.9630
   62CHL1   C12 5725   6.860   0.772   3.594  0.2711 -0.6088  0.0933
   62CHL1  H12A 5726   6.894   0.709   3.679 -1.5438 -1.8280 -0.0232
   62CHL1  H12B 5727   6.750   0.759   3.609  0.4370 -1.7864  0.3980
   62CHL1   C11 5728   6.903   0.722   3.456  0.5992  0.0013  0.1878
   62CHL1  H11A 5729   7.014   0.716   3.460  0.7792  1.4808 -1.5608
   62CHL1  H11B 5730   6.864   0.622   3.427  0.1154 -0.1971  1.4458
   62CHL1    C9 5731   6.855   0.825   3.345  0.5439  0.5898  0.3318
   62CHL1    H9 5732   6.745   0.810   3.354  0.7064  0.0362  1.5420
   62CHL1   C10 5733   6.890   0.787   3.198 -0.1106  0.3112  0.1037
   62CHL1   C19 5734   7.044   0.771   3.188 -0.3383  0.0429 -0.1009
   62CHL1  H19A 5735   7.065   0.733   3.086  0.8776 -0.4155  0.2988
   62CHL1  H19B 5736   7.097   0.868   3.190 -1.2126  0.6250 -2.3125
   62CHL1  H19C 5737   7.086   0.694   3.257 -0.6816 -0.2420 -0.2066
   62CHL1    C1 5738   6.813   0.660   3.158  0.3139  0.3291  0.0349
   62CHL1   H1A 5739   6.841   0.563   3.205 -1.7372 -0.4414 -0.2259
   62CHL1   H1B 5740   6.706   0.671   3.187  0.5674  1.4942  0.6064
   62CHL1    C2 5741   6.821   0.617   3.012 -0.1210 -0.7791  0.2282
   62CHL1   H2A 5742   6.740   0.541   3.005 -2.4415  1.4857  0.7082
   62CHL1   H2B 5743   6.916   0.574   2.974 -0.5266 -2.7604  1.3210
   62CHL1   C20 5744   6.904   0.958   3.885 -0.8870  0.0910  0.0880
   62CHL1   H20 5745   7.008   0.923   3.867 -1.7005 -1.1593 -2.9486
   62CHL1   C21 5746   6.826   0.833   3.949  0.6476  0.4389 -0.7344
   62CHL1  H21A 5747   6.787   0.771   3.865 -1.7913  1.4747 -0.4614
   62CHL1  H21B 5748   6.727   0.859   3.992 -1.2328 -2.9273 -2.5861
   62CHL1  H21C 5749   6.875   0.773   4.028 -3.2029 -0.1457  1.4749
   62CHL1   C22 5750   6.895   1.076   3.988 -0.1735 -0.2288 -0.6312
   62CHL1  H22A 5751   6.951   1.165   3.954  1.3547  0.2905  2.7754
   62CHL1  H22B 5752   6.788   1.105   3.996 -0.1735 -0.2821 -0.4186
   62CHL1   C23 5753   6.958   1.042   4.127 -0.0881 -0.3633  0.3536
   62CHL1  H23A 5754   6.895   0.970   4.182  0.0238 -0.9396 -0.2664
   62CHL1  H23B 5755   7.051   0.989   4.100 -1.4959 -1.6455 -2.4450
   62CHL1   C24 5756   6.970   1.163   4.220  0.0904  0.3468  0.2063
   62CHL1  H24A 5757   7.031   1.236   4.165  1.9980 -1.5012 -0.2561
   62CHL1  H24B 5758   6.870   1.199   4.253  0.6096 -0.5215  3.0154
   62CHL1   C25 5759   7.046   1.131   4.346 -0.2917  0.2122  0.1344
   62CHL1   H25 5760   7.023   1.029   4.383 -1.4445  0.1274 -0.7682
   62CHL1   C26 5761   7.198   1.133   4.327  0.6811 -0.9079 -0.5184
   62CHL1  H26A 5762   7.230   1.057   4.252 -0.2870  0.3439 -2.2516
   62CHL1  H26B 5763   7.239   1.232   4.299 -1.9040  0.4664  0.3056
   62CHL1  H26C 5764   7.252   1.102   4.419  1.2392  1.6824  0.0939
   62CHL1   C27 5765   7.003   1.202   4.469  0.9410 -0.3013 -0.4494
   62CHL1  H27A 5766   7.067   1.172   4.555 -0.9123  1.2039  1.5564
   62CHL1  H27B 5767   7.022   1.311   4.461 -2.9610  0.5176 -0.2109
   62CHL1  H27C 5768   6.896   1.188   4.495  0.9623  0.5044  0.1167
   63CHL1    C3 5769   6.123   2.988   2.992 -0.3678 -0.3306 -0.5754
   63CHL1    H3 5770   6.230   3.014   3.011 -0.6250  0.5128 -0.2238
   63CHL1    O3 5771   6.096   2.927   2.870 -0.0369  0.2658 -0.0578
   63CHL1   H3' 5772   6.051   2.844   2.884 -1.6288  0.7381 -2.0254
   63CHL1    C4 5773   6.090   2.886   3.102 -0.0277 -0.2706 -0.0678
   63CHL1   H4A 5774   5.989   2.843   3.084  0.1954 -0.5280 -0.7098
   63CHL1   H4B 5775   6.168   2.808   3.093  0.4372  0.1691  0.0894
   63CHL1    C5 5776   6.084   2.932   3.244  0.5266  0.4359 -0.2709
   63CHL1    C6 5777   6.157   2.864   3.339 -0.1556 -0.1441 -0.3604
   63CHL1    H6 5778   6.220   2.777   3.317  0.0277  0.0456 -0.5949
   63CHL1    C7 5779   6.149   2.906   3.482 -0.5531  0.0801 -0.4756
   63CHL1   H7A 5780   6.145   2.818   3.550  0.5524 -0.3979 -1.0046
   63CHL1   H7B 5781   6.251   2.936   3.514 -1.2150 -1.0116  3.1892
   63CHL1    C8 5782   6.059   3.022   3.521  0.2331 -0.1085 -0.7034
   63CHL1    H8 5783   5.959   2.979   3.541  0.8581 -0.6058  1.7204
   63CHL1   C14 5784   6.108   3.081   3.650  0.0731 -0.0518  0.0597
   63CHL1   H14 5785   6.198   3.138   3.619  1.3446 -2.0537 -0.0983
   63CHL1   C15 5786   6.142   3.000   3.770 -0.2837  0.0537 -0.2555
   63CHL1  H15A 5787   6.072   2.914   3.778 -0.7811  0.4694 -0.0705
   63CHL1  H15B 5788   6.244   2.956   3.775  0.9945  2.9075  1.4960
   63CHL1   C16 5789   6.142   3.105   3.892 -0.0110 -0.3878  0.1353
   63CHL1  H16A 5790   6.107   3.072   3.992  0.3802  0.6203  0.6212
   63CHL1  H16B 5791   6.250   3.117   3.916  1.0374 -3.0339 -2.5774
   63CHL1   C17 5792   6.086   3.233   3.836  0.7281  0.6193  0.5215
   63CHL1   H17 5793   6.170   3.295   3.797 -0.5888  0.5843 -2.7160
   63CHL1   C13 5794   6.016   3.194   3.697  0.6563 -0.9780  0.3098
   63CHL1   C18 5795   5.876   3.136   3.736  0.3178  0.1721  0.2713
   63CHL1  H18A 5796   5.809   3.213   3.779  1.9175  0.4190  2.4763
   63CHL1  H18B 5797   5.825   3.093   3.646 -0.4975  0.4828  0.5730
   63CHL1  H18C 5798   5.890   3.054   3.810 -1.6003 -0.9509 -0.5187
   63CHL1   C12 5799   6.005   3.306   3.588 -0.1030  0.3701 -0.2605
   63CHL1  H12A 5800   5.925   3.377   3.615  0.3995  0.6407  0.5397
   63CHL1  H12B 5801   6.105   3.354   3.586  0.2859 -0.2440  2.0861
   63CHL1   C11 5802   5.956   3.246   3.450  0.5881 -0.6878  0.5827
   63CHL1  H11A 5803   5.849   3.216   3.456  0.6759 -1.3468 -0.8605
   63CHL1  H11B 5804   5.966   3.319   3.367  0.1414 -0.1275  1.0050
   63CHL1    C9 5805   6.048   3.121   3.406 -0.2355  0.3019 -0.4913
   63CHL1    H9 5806   6.148   3.167   3.399  0.3476 -0.7015  0.8274
   63CHL1   C10 5807   6.001   3.061   3.268 -0.9764  0.7471  0.2567
   63CHL1   C19 5808   5.850   3.025   3.267 -0.3194 -0.7575  0.0496
   63CHL1  H19A 5809   5.806   2.968   3.183 -3.7937 -1.4155  2.0723
   63CHL1  H19B 5810   5.835   2.956   3.353 -0.7663 -1.0676 -0.2726
   63CHL1  H19C 5811   5.787   3.116   3.276  1.1893  0.3649 -0.4865
   63CHL1    C1 5812   6.039   3.160   3.167 -0.0930 -0.8030  0.6429
   63CHL1   H1A 5813   5.984   3.256   3.168  1.8913  0.3666  0.3642
   63CHL1   H1B 5814   6.146   3.187   3.179 -0.2693 -0.7397  2.3150
   63CHL1    C2 5815   6.033   3.109   3.014 -0.3372  0.2368  0.1053
   63CHL1   H2A 5816   6.068   3.183   2.940 -0.0223 -0.8939 -0.9109
   63CHL1   H2B 5817   5.926   3.093   2.989 -1.2496 -0.2474  3.6982
   63CHL1   C20 5818   6.001   3.306   3.945  0.8292  0.1733 -0.0666
   63CHL1   H20 5819   5.912   3.243   3.969  1.1053 -0.7851 -1.4532
   63CHL1   C21 5820   5.950   3.445   3.889  0.3467 -0.4766 -0.4994
   63CHL1  H21A 5821   5.851   3.444   3.839  0.5817 -0.2550 -0.9778
   63CHL1  H21B 5822   6.032   3.469   3.817 -0.0767 -1.7390 -1.4327
   63CHL1  H21C 5823   5.949   3.525   3.965  1.1026 -1.3082  0.4080
   63CHL1   C22 5824   6.079   3.331   4.073 -0.3503 -0.1085  0.3838
   63CHL1  H22A 5825   6.133   3.242   4.113 -2.7377 -2.5314 -1.3497
   63CHL1  H22B 5826   6.152   3.413   4.059 -1.8429  1.0680 -0.8428
   63CHL1   C23 5827   5.985   3.357   4.193  1.3191 -0.4217 -0.3803
   63CHL1  H23A 5828   5.919   3.443   4.170 -0.3623 -1.4307  0.4724
   63CHL1  H23B 5829   5.914   3.272   4.203  0.6776 -0.0710 -1.7775
   63CHL1   C24 5830   6.060   3.375   4.323 -0.1393 -0.3017 -0.0795
   63CHL1  H24A 5831   6.124   3.285   4.340 -0.5786 -0.6469 -0.2387
   63CHL1  H24B 5832   6.138   3.454   4.328 -0.2434 -0.2057  0.0440
   63CHL1   C25 5833   5.968   3.405   4.439 -0.1262 -0.1467  0.1707
   63CHL1   H25 5834   5.907   3.494   4.414 -0.1796 -0.0007  0.8217
   63CHL1   C26 5835   5.886   3.284   4.473 -0.2363  0.4835  0.0757
   63CHL1  H26A 5836   5.825   3.304   4.564  0.4849  2.5515  0.1629
   63CHL1  H26B 5837   5.823   3.248   4.389  1.8671 -2.5739 -0.3476
   63CHL1  H26C 5838   5.949   3.197   4.501 -0.6383 -0.2684 -1.3071
   63CHL1   C27 5839   6.047   3.447   4.561  0.5773 -0.3121  0.3211
   63CHL1  H27A 5840   6.116   3.533   4.551  0.2501  0.1346  1.6539
   63CHL1  H27B 5841   5.985   3.450   4.653 -1.0525 -1.2374 -0.6913
   63CHL1  H27C 5842   6.118   3.362   4.576  1.1138 -0.1903 -1.3346
   64CHL1    C3 5843   2.044   2.591   3.032  0.1922  0.0552 -0.4529
   64CHL1    H3 5844   2.027   2.481   3.039 -0.1175  0.2087  2.1979
   64CHL1    O3 5845   2.050   2.629   2.898 -0.5549  0.1756 -0.2610
   64CHL1   H3' 5846   1.993   2.579   2.839  2.6069  0.3728 -3.8676
   64CHL1    C4 5847   1.939   2.667   3.113  0.2183  0.1052 -0.6780
   64CHL1   H4A 5848   1.966   2.773   3.096  0.2500  0.8933  3.4019
   64CHL1   H4B 5849   1.841   2.640   3.067  1.6663 -0.4033 -3.7578
   64CHL1    C5 5850   1.946   2.655   3.266  0.1703 -0.7570  0.0668
   64CHL1    C6 5851   1.842   2.617   3.345  1.0650 -0.8254 -0.0580
   64CHL1    H6 5852   1.750   2.604   3.286  0.6286  1.9600 -0.1401
   64CHL1    C7 5853   1.841   2.580   3.485  0.7320 -0.2309 -0.5348
   64CHL1   H7A 5854   1.756   2.630   3.536  1.5553  0.9648 -0.2951
   64CHL1   H7B 5855   1.840   2.470   3.498 -1.0744 -0.3487 -1.3610
   64CHL1    C8 5856   1.963   2.637   3.557  0.0076  0.4708 -0.2513
   64CHL1    H8 5857   1.959   2.746   3.576  3.8734  0.6416  0.5465
   64CHL1   C14 5858   1.979   2.564   3.692 -0.0264 -0.1754  0.7198
   64CHL1   H14 5859   1.989   2.458   3.660  1.3634  0.6121 -1.7575
   64CHL1   C15 5860   1.860   2.567   3.787 -0.4222  0.2785 -0.0314
   64CHL1  H15A 5861   1.829   2.669   3.819  1.9383  0.4422  2.0745
   64CHL1  H15B 5862   1.770   2.514   3.749  0.0337 -0.1749 -0.4904
   64CHL1   C16 5863   1.918   2.496   3.913 -0.0324 -0.6768 -0.0466
   64CHL1  H16A 5864   1.895   2.558   4.002 -0.3389 -1.5543  0.4982
   64CHL1  H16B 5865   1.881   2.393   3.932  1.1380 -1.2586 -0.8190
   64CHL1   C17 5866   2.074   2.486   3.889  0.7172 -0.6682 -0.5723
   64CHL1   H17 5867   2.082   2.384   3.844 -0.7239 -0.1060 -2.2259
   64CHL1   C13 5868   2.106   2.582   3.775 -0.2631  0.3241 -0.6841
   64CHL1   C18 5869   2.099   2.727   3.831  0.0149 -0.3771 -0.0472
   64CHL1  H18A 5870   2.194   2.766   3.873  0.5931 -1.7446 -0.0401
   64CHL1  H18B 5871   2.074   2.797   3.748  2.1876  1.4662  0.7564
   64CHL1  H18C 5872   2.031   2.733   3.918 -1.0909 -2.2352 -0.7124
   64CHL1   C12 5873   2.231   2.570   3.687  0.5169  0.5049  0.2523
   64CHL1  H12A 5874   2.325   2.616   3.726  1.4347  0.5027 -1.8301
   64CHL1  H12B 5875   2.250   2.461   3.679  0.3886  0.3489  1.7028
   64CHL1   C11 5876   2.215   2.644   3.555  0.1798 -0.2915  0.2288
   64CHL1  H11A 5877   2.205   2.751   3.582 -0.6023  0.7728 -3.6112
   64CHL1  H11B 5878   2.304   2.619   3.493 -0.3378 -0.7083 -0.3519
   64CHL1    C9 5879   2.085   2.609   3.475  0.2748 -0.0461 -0.0606
   64CHL1    H9 5880   2.085   2.498   3.477 -0.6248 -0.0920  3.5175
   64CHL1   C10 5881   2.085   2.664   3.331  0.4808 -0.3440 -0.5807
   64CHL1   C19 5882   2.122   2.813   3.345  0.4176 -0.1591  0.4695
   64CHL1  H19A 5883   2.229   2.825   3.372 -0.4663  1.2944  3.8133
   64CHL1  H19B 5884   2.109   2.858   3.244 -1.3172 -1.1848  0.1898
   64CHL1  H19C 5885   2.062   2.871   3.419  0.9492  1.3988 -0.2840
   64CHL1    C1 5886   2.186   2.588   3.241  0.8704 -0.1785 -1.0147
   64CHL1   H1A 5887   2.288   2.612   3.278 -0.4701  1.4793  1.9029
   64CHL1   H1B 5888   2.159   2.483   3.264 -1.6976  0.3918 -1.0561
   64CHL1    C2 5889   2.183   2.623   3.090  0.0356  0.3038  0.6468
   64CHL1   H2A 5890   2.259   2.561   3.038 -0.2944  0.6830 -0.3053
   64CHL1   H2B 5891   2.226   2.722   3.065  1.9946 -0.4746  0.7497
   64CHL1   C20 5892   2.149   2.492   4.018  0.4921 -0.0754  0.0847
   64CHL1   H20 5893   2.131   2.588   4.072  0.5805  0.0041 -0.0253
   64CHL1   C21 5894   2.303   2.501   3.987 -0.1414  0.4605 -0.4566
   64CHL1  H21A 5895   2.354   2.488   4.085  0.4755 -1.4748 -0.9849
   64CHL1  H21B 5896   2.345   2.594   3.943  0.7605 -0.2959 -1.2467
   64CHL1  H21C 5897   2.322   2.407   3.930  0.2059  1.1677 -1.5386
   64CHL1   C22 5898   2.118   2.377   4.118  0.4242 -0.0554 -0.5711
   64CHL1  H22A 5899   2.010   2.353   4.125  0.2658 -0.4759 -3.3052
   64CHL1  H22B 5900   2.166   2.283   4.085  3.6375  0.7252  1.3164
   64CHL1   C23 5901   2.166   2.394   4.268 -0.1536  0.1099 -0.1102
   64CHL1  H23A 5902   2.275   2.408   4.260  0.5370 -2.2333  3.0037
   64CHL1  H23B 5903   2.113   2.478   4.317 -0.0235 -0.2761  0.7117
   64CHL1   C24 5904   2.148   2.265   4.355 -0.1053  0.7817 -0.4156
   64CHL1  H24A 5905   2.042   2.245   4.382 -0.0253  0.2977 -0.4456
   64CHL1  H24B 5906   2.188   2.184   4.290  1.6413 -0.8828  2.4972
   64CHL1   C25 5907   2.228   2.269   4.488  0.2386 -0.7182  0.4720
   64CHL1   H25 5908   2.331   2.303   4.465 -0.2230 -1.2784 -2.9497
   64CHL1   C26 5909   2.161   2.363   4.595  0.1299  0.6997 -0.1568
   64CHL1  H26A 5910   2.178   2.472   4.578 -0.7151  0.9925  0.7520
   64CHL1  H26B 5911   2.055   2.335   4.613  0.5945  0.7506  3.5194
   64CHL1  H26C 5912   2.212   2.333   4.689 -0.6143  1.6805  0.5881
   64CHL1   C27 5913   2.234   2.128   4.545 -0.1339  0.1712  0.0073
   64CHL1  H27A 5914   2.281   2.064   4.467 -2.9686 -1.0482 -0.7973
   64CHL1  H27B 5915   2.295   2.137   4.638  0.5027  0.3965 -0.4213
   64CHL1  H27C 5916   2.136   2.083   4.571 -0.3469  0.7451  0.2067
   65CHL1    C3 5917   0.032   6.534   3.135 -0.0760 -0.7347  0.1275
   65CHL1    H3 5918  -0.032   6.444   3.149 -0.6022 -1.2275 -4.1905
   65CHL1    O3 5919   0.054   6.539   2.993 -0.0247  0.3648 -0.3680
   65CHL1   H3' 5920   0.122   6.607   2.997 -1.4607  1.8282  0.7054
   65CHL1    C4 5921  -0.052   6.659   3.174  0.3432 -0.7002 -0.3624
   65CHL1   H4A 5922  -0.025   6.751   3.118 -2.8848  1.2712  0.9837
   65CHL1   H4B 5923  -0.155   6.645   3.134  0.7324  0.2757 -1.8046
   65CHL1    C5 5924  -0.062   6.680   3.327  0.4953 -0.6241 -0.5449
   65CHL1    C6 5925  -0.183   6.696   3.383 -0.1560 -0.8169  0.5945
   65CHL1    H6 5926  -0.273   6.688   3.321 -0.0347 -0.5685  0.3851
   65CHL1    C7 5927  -0.193   6.733   3.528  0.6020  0.4010  0.9061
   65CHL1   H7A 5928  -0.259   6.819   3.551  0.0528  0.9912 -2.3622
   65CHL1   H7B 5929  -0.242   6.649   3.583 -0.1623  0.9162  1.0124
   65CHL1    C8 5930  -0.061   6.770   3.594 -0.8000 -0.0013 -0.1918
   65CHL1    H8 5931  -0.039   6.876   3.570 -1.8691  0.7520  1.8476
   65CHL1   C14 5932  -0.067   6.766   3.749  0.9269 -0.3581 -0.4113
   65CHL1   H14 5933  -0.099   6.662   3.772 -0.6528 -0.1621 -1.5464
   65CHL1   C15 5934  -0.175   6.856   3.807 -0.0932 -0.1029  0.1615
   65CHL1  H15A 5935  -0.172   6.958   3.761  0.0795  0.3375  1.1223
   65CHL1  H15B 5936  -0.281   6.826   3.795 -0.6953  2.8433 -5.1274
   65CHL1   C16 5937  -0.132   6.876   3.954  0.0110 -0.4236 -0.8292
   65CHL1  H16A 5938  -0.127   6.982   3.986 -1.4132 -0.4387 -0.4794
   65CHL1  H16B 5939  -0.198   6.819   4.022  2.2363 -0.2234  1.6534
   65CHL1   C17 5940   0.009   6.806   3.969 -0.1299  0.2219  0.1433
   65CHL1   H17 5941  -0.025   6.702   3.991 -0.5342  0.2137 -0.5117
   65CHL1   C13 5942   0.065   6.797   3.823  0.4766 -0.4322  0.0402
   65CHL1   C18 5943   0.115   6.939   3.794  0.0948 -0.1193 -0.3242
   65CHL1  H18A 5944   0.038   7.014   3.819  0.1178 -0.4482  0.8188
   65CHL1  H18B 5945   0.194   6.964   3.868 -0.9379  1.5505  0.2686
   65CHL1  H18C 5946   0.145   6.954   3.688  1.9111 -1.0076  0.0027
   65CHL1   C12 5947   0.172   6.692   3.786 -0.2806 -0.6293  0.0984
   65CHL1  H12A 5948   0.262   6.721   3.843 -0.5753 -0.7640  0.6355
   65CHL1  H12B 5949   0.143   6.590   3.819  2.4443 -1.3275  0.5360
   65CHL1   C11 5950   0.189   6.690   3.634  0.3249 -0.5492  0.0060
   65CHL1  H11A 5951   0.241   6.787   3.614  0.0369  0.3487  3.1481
   65CHL1  H11B 5952   0.248   6.600   3.605  2.1008  0.6925 -0.4010
   65CHL1    C9 5953   0.053   6.680   3.552  0.3777  0.0989 -0.0805
   65CHL1    H9 5954   0.023   6.575   3.573  1.9996 -0.1509  1.1477
   65CHL1   C10 5955   0.071   6.680   3.393  0.0331 -0.9465 -0.4644
   65CHL1   C19 5956   0.128   6.821   3.354 -0.0613 -0.5027 -0.7525
   65CHL1  H19A 5957   0.155   6.833   3.247 -1.6552  1.7964 -0.9706
   65CHL1  H19B 5958   0.052   6.899   3.374 -0.4876 -1.5478  2.1406
   65CHL1  H19C 5959   0.221   6.846   3.409 -1.3351  0.9998  0.8304
   65CHL1    C1 5960   0.162   6.561   3.358  0.7866 -0.5841 -0.2963
   65CHL1   H1A 5961   0.268   6.580   3.385  0.7360  0.6181 -0.8919
   65CHL1   H1B 5962   0.112   6.471   3.399 -0.3460  1.0476  2.1428
   65CHL1    C2 5963   0.171   6.524   3.208  0.4721  0.1610 -0.4674
   65CHL1   H2A 5964   0.221   6.428   3.182  0.3433  0.0156 -0.1805
   65CHL1   H2B 5965   0.229   6.607   3.163  1.3243 -0.8163 -1.2418
   65CHL1   C20 5966   0.087   6.876   4.079 -0.0884 -0.2910  0.3071
   65CHL1   H20 5967   0.109   6.980   4.047 -1.2220 -0.4865 -1.2170
   65CHL1   C21 5968   0.218   6.804   4.110  0.3158  1.2080  0.1276
   65CHL1  H21A 5969   0.214   6.693   4.106 -0.0233  1.2480 -1.6191
   65CHL1  H21B 5970   0.249   6.831   4.213 -0.9452 -0.4901  0.9944
   65CHL1  H21C 5971   0.297   6.831   4.037  0.5024  0.0193 -0.1250
   65CHL1   C22 5972   0.002   6.896   4.205  0.1623  0.1363  0.6086
   65CHL1  H22A 5973  -0.105   6.924   4.194  0.3229  0.1384 -1.2316
   65CHL1  H22B 5974   0.001   6.797   4.255 -1.5703 -0.5066 -0.6236
   65CHL1   C23 5975   0.051   6.995   4.310 -0.0553 -0.7980  0.3897
   65CHL1  H23A 5976   0.148   6.963   4.353  0.9886 -0.5117 -1.5936
   65CHL1  H23B 5977   0.066   7.093   4.259 -0.8411 -0.7219  0.2910
   65CHL1   C24 5978  -0.050   7.017   4.427 -0.2389  0.4728 -0.2896
   65CHL1  H24A 5979  -0.143   7.049   4.375  0.3650  0.2181 -1.5842
   65CHL1  H24B 5980  -0.072   6.918   4.473  0.2506  0.2775 -0.4717
   65CHL1   C25 5981  -0.017   7.124   4.536  0.2483  0.4941 -0.4730
   65CHL1   H25 5982  -0.007   7.227   4.496 -2.7478  0.7191 -0.8518
   65CHL1   C26 5983  -0.126   7.131   4.643 -0.3995  0.4417  0.1281
   65CHL1  H26A 5984  -0.222   7.156   4.593 -0.1470 -0.5612 -0.8951
   65CHL1  H26B 5985  -0.133   7.039   4.705  1.3025  1.4057  1.8529
   65CHL1  H26C 5986  -0.108   7.217   4.712  0.3149  1.0934 -0.8446
   65CHL1   C27 5987   0.126   7.101   4.603 -0.1986 -0.1162  0.0097
   65CHL1  H27A 5988   0.142   7.004   4.655  0.1342  0.7764  1.6259
   65CHL1  H27B 5989   0.204   7.116   4.526 -1.4321  0.1217 -1.2371
   65CHL1  H27C 5990   0.133   7.170   4.690  0.3268 -0.9579  0.6449
   66CHL1    C3 5991   5.593   0.462   3.113 -0.2882 -0.2858  0.5207
   66CHL1    H3 5992   5.642   0.362   3.116 -1.6266 -0.9779  0.0809
   66CHL1    O3 5993   5.557   0.473   2.976 -0.2746  0.0092  0.2995
   66CHL1   H3' 5994   5.520   0.562   2.974  2.3099  1.1607 -0.7637
   66CHL1    C4 5995   5.469   0.462   3.190 -0.2844 -0.3378  0.1035
   66CHL1   H4A 5996   5.420   0.556   3.157  1.8743  0.6389 -0.4704
   66CHL1   H4B 5997   5.407   0.373   3.168  0.2816 -0.9037  0.7562
   66CHL1    C5 5998   5.493   0.458   3.341 -0.7319  0.1052 -0.1224
   66CHL1    C6 5999   5.434   0.365   3.415  0.1563 -0.1735 -0.0648
   66CHL1    H6 6000   5.382   0.279   3.370  1.1727 -2.2031  2.3529
   66CHL1    C7 6001   5.439   0.369   3.565 -0.2998  0.9818  0.8087
   66CHL1   H7A 6002   5.341   0.339   3.607 -0.5613  2.0430  0.9817
   66CHL1   H7B 6003   5.513   0.293   3.599 -0.2271  1.4086  1.6435
   66CHL1    C8 6004   5.491   0.502   3.625 -0.3412  0.6978 -0.5341
   66CHL1    H8 6005   5.405   0.570   3.607 -1.3085 -0.6487 -1.2770
   66CHL1   C14 6006   5.522   0.496   3.773 -0.5529  0.3629 -0.1901
   66CHL1   H14 6007   5.603   0.420   3.780  0.0585  0.9024 -1.1692
   66CHL1   C15 6008   5.404   0.446   3.859 -0.0743  0.5200 -0.4703
   66CHL1  H15A 6009   5.308   0.495   3.829 -1.0245 -1.4422 -0.7877
   66CHL1  H15B 6010   5.386   0.337   3.844  1.6108  0.3742 -1.6890
   66CHL1   C16 6011   5.440   0.494   3.993  0.2800 -0.1174 -0.1880
   66CHL1  H16A 6012   5.355   0.552   4.036  1.4976  0.8310  1.0191
   66CHL1  H16B 6013   5.467   0.410   4.060  1.3730 -0.0698 -0.5522
   66CHL1   C17 6014   5.565   0.591   3.979 -0.9961  0.5244  0.6924
   66CHL1   H17 6015   5.646   0.518   4.001 -0.7305 -0.1461 -2.0832
   66CHL1   C13 6016   5.569   0.625   3.834  0.5274 -0.0470 -0.0657
   66CHL1   C18 6017   5.460   0.732   3.821  0.4364  0.1336 -0.2946
   66CHL1  H18A 6018   5.501   0.834   3.834  0.9793 -0.1749  0.4868
   66CHL1  H18B 6019   5.420   0.730   3.717  1.1336  0.3529 -0.5731
   66CHL1  H18C 6020   5.377   0.726   3.895  0.7564  2.2029  0.3013
   66CHL1   C12 6021   5.698   0.666   3.771 -0.7083 -0.2588 -0.1015
   66CHL1  H12A 6022   5.735   0.764   3.809 -1.2578 -0.2040  0.3112
   66CHL1  H12B 6023   5.779   0.590   3.773  0.4134  0.8936  0.1017
   66CHL1   C11 6024   5.676   0.675   3.618  0.2162  1.4766  0.4268
   66CHL1  H11A 6025   5.613   0.764   3.598  0.7778  1.7470 -0.1525
   66CHL1  H11B 6026   5.770   0.709   3.571  0.1859  0.7100 -0.2267
   66CHL1    C9 6027   5.610   0.552   3.544 -0.4758  0.7173  0.9745
   66CHL1    H9 6028   5.684   0.469   3.542 -0.3086  0.8717  0.6952
   66CHL1   C10 6029   5.571   0.572   3.399 -0.4754 -0.2354  0.8104
   66CHL1   C19 6030   5.485   0.704   3.382 -0.0022  0.1569 -0.2825
   66CHL1  H19A 6031   5.396   0.700   3.447 -1.3970  0.9427 -2.0515
   66CHL1  H19B 6032   5.523   0.799   3.427  0.8159  1.4756 -3.4326
   66CHL1  H19C 6033   5.449   0.739   3.283  1.5521  3.1435  0.0797
   66CHL1    C1 6034   5.701   0.584   3.307 -0.1593 -0.8170 -0.3811
   66CHL1   H1A 6035   5.763   0.672   3.336  0.1653 -1.0935 -0.2191
   66CHL1   H1B 6036   5.769   0.501   3.337 -0.0276 -0.3196  0.7793
   66CHL1    C2 6037   5.679   0.580   3.151 -0.1216 -0.7425  0.0298
   66CHL1   H2A 6038   5.780   0.583   3.106  1.0663 -0.0513  2.5585
   66CHL1   H2B 6039   5.624   0.674   3.127 -1.0563 -1.4359 -0.6405
   66CHL1   C20 6040   5.569   0.707   4.092  0.4677  0.3589 -0.4084
   66CHL1   H20 6041   5.472   0.760   4.099 -1.5106 -3.1459  2.7388
   66CHL1   C21 6042   5.674   0.809   4.072 -0.0999  0.2065  0.3212
   66CHL1  H21A 6043   5.661   0.862   3.976 -2.6270  3.7726  2.4081
   66CHL1  H21B 6044   5.775   0.762   4.067 -0.9970 -1.7224 -1.0226
   66CHL1  H21C 6045   5.675   0.891   4.147 -0.0028  0.1740  0.3559
   66CHL1   C22 6046   5.591   0.642   4.235 -0.9219 -0.7381 -0.9860
   66CHL1  H22A 6047   5.666   0.560   4.226 -1.5572 -1.4810  0.2760
   66CHL1  H22B 6048   5.632   0.725   4.297  0.5716 -2.1003 -0.0912
   66CHL1   C23 6049   5.469   0.606   4.322 -0.2649  0.3488  0.6564
   66CHL1  H23A 6050   5.421   0.704   4.338  0.0276  0.4804  0.7340
   66CHL1  H23B 6051   5.401   0.532   4.275 -1.2164  1.1454  0.7455
   66CHL1   C24 6052   5.517   0.546   4.459  0.0718  0.2376 -0.4131
   66CHL1  H24A 6053   5.576   0.453   4.443  0.3333  0.1793  0.8169
   66CHL1  H24B 6054   5.592   0.617   4.500  0.5349  0.6922 -1.9742
   66CHL1   C25 6055   5.407   0.504   4.553  0.3526 -1.1156  0.3212
   66CHL1   H25 6056   5.363   0.407   4.520  1.0153 -2.0044  1.9040
   66CHL1   C26 6057   5.463   0.508   4.700  0.1883  0.6054  0.0780
   66CHL1  H26A 6058   5.398   0.441   4.760  0.5029  1.2377  1.1545
   66CHL1  H26B 6059   5.563   0.460   4.695 -0.2602 -0.2886 -0.4607
   66CHL1  H26C 6060   5.461   0.613   4.737  0.1598  0.4278  0.5843
   66CHL1   C27 6061   5.299   0.618   4.551  0.3643  0.0967  0.2847
   66CHL1  H27A 6062   5.244   0.610   4.455 -2.1912 -1.8452  1.7763
   66CHL1  H27B 6063   5.340   0.721   4.563 -2.2497  1.1199  1.3802
   66CHL1  H27C 6064   5.229   0.590   4.633  0.3081  0.9226  0.5289
   67CHL1    C3 6065   3.861   6.186   2.871 -0.0961 -0.8783  0.3286
   67CHL1    H3 6066   3.899   6.082   2.867  1.4341 -0.3373  0.2412
   67CHL1    O3 6067   3.829   6.243   2.737  0.4092  0.4604 -0.7389
   67CHL1   H3' 6068   3.805   6.335   2.755  0.8118  0.4753 -0.2445
   67CHL1    C4 6069   3.739   6.188   2.964 -0.6876  0.0785  0.1730
   67CHL1   H4A 6070   3.685   6.285   2.956 -0.5176  0.0868 -1.0820
   67CHL1   H4B 6071   3.669   6.112   2.924 -0.2592 -0.8729  1.1843
   67CHL1    C5 6072   3.779   6.153   3.105  0.2160 -0.5252 -0.7774
   67CHL1    C6 6073   3.730   6.058   3.182  0.3554 -0.8779  0.0069
   67CHL1    H6 6074   3.646   5.996   3.145 -1.0620  0.3081  1.0979
   67CHL1    C7 6075   3.763   6.018   3.318  0.2952  0.1789 -0.2631
   67CHL1   H7A 6076   3.675   5.983   3.376  0.9715  1.6962  1.7922
   67CHL1   H7B 6077   3.839   5.938   3.307  0.4125 -0.0707  1.9541
   67CHL1    C8 6078   3.827   6.140   3.395 -0.2914  0.0369  0.1516
   67CHL1    H8 6079   3.746   6.216   3.402  0.7706  1.1911  0.2742
   67CHL1   C14 6080   3.894   6.096   3.527  0.5239 -0.4864  0.1582
   67CHL1   H14 6081   3.972   6.021   3.499  0.3080 -0.2863 -1.0314
   67CHL1   C15 6082   3.809   6.018   3.631  0.3169  0.5163  0.4098
   67CHL1  H15A 6083   3.716   6.078   3.643 -0.6090  0.1522 -3.4858
   67CHL1  H15B 6084   3.770   5.917   3.605  0.8156  0.5670 -0.6135
   67CHL1   C16 6085   3.904   6.005   3.746 -0.1814 -0.3457  0.5068
   67CHL1  H16A 6086   3.831   6.017   3.829 -1.2723 -0.6285 -0.3917
   67CHL1  H16B 6087   3.956   5.908   3.736  0.9367  0.1449  1.2942
   67CHL1   C17 6088   4.021   6.111   3.727  0.0661 -0.4951  0.2738
   67CHL1   H17 6089   4.101   6.049   3.682  0.0221 -0.8267  0.6459
   67CHL1   C13 6090   3.975   6.197   3.611  1.2527  0.0222  0.2594
   67CHL1   C18 6091   3.868   6.295   3.666  0.0879  0.5971 -0.6166
   67CHL1  H18A 6092   3.917   6.386   3.709  0.2788  0.9184 -1.4913
   67CHL1  H18B 6093   3.799   6.324   3.585  0.3556 -1.2303 -1.5259
   67CHL1  H18C 6094   3.815   6.246   3.751 -2.1911  0.6534 -1.9302
   67CHL1   C12 6095   4.081   6.261   3.517 -0.7366 -0.4694 -0.2593
   67CHL1  H12A 6096   4.117   6.350   3.572 -1.5765  0.1686 -0.7173
   67CHL1  H12B 6097   4.168   6.197   3.490 -0.3958 -0.6681  1.2394
   67CHL1   C11 6098   4.020   6.304   3.382 -0.7520 -0.7501 -1.0858
   67CHL1  H11A 6099   3.952   6.388   3.405  0.3679  0.3331 -1.6123
   67CHL1  H11B 6100   4.094   6.352   3.314 -1.8301  1.4466 -0.7841
   67CHL1    C9 6101   3.941   6.194   3.307  0.1227  0.0684 -0.0987
   67CHL1    H9 6102   4.010   6.109   3.289  1.0798  1.1309 -1.7014
   67CHL1   C10 6103   3.892   6.243   3.162 -0.1782  0.0669 -0.2015
   67CHL1   C19 6104   3.833   6.385   3.174  0.4020  0.2758 -0.3486
   67CHL1  H19A 6105   3.919   6.454   3.186  1.0463 -0.5597 -0.0544
   67CHL1  H19B 6106   3.785   6.424   3.081  1.8976  2.4043 -0.3161
   67CHL1  H19C 6107   3.761   6.400   3.257 -0.9898 -2.2626 -0.9946
   67CHL1    C1 6108   4.015   6.239   3.070  0.0002  0.2207 -0.0817
   67CHL1   H1A 6109   4.086   6.320   3.097  1.4975 -1.2996  0.7175
   67CHL1   H1B 6110   4.067   6.141   3.072  4.4176  2.3333  1.0554
   67CHL1    C2 6111   3.973   6.275   2.923 -0.7900 -0.3266 -0.3691
   67CHL1   H2A 6112   4.064   6.261   2.862  0.7474  0.7306  1.5475
   67CHL1   H2B 6113   3.930   6.377   2.932 -1.4080 -0.6599  0.7861
   67CHL1   C20 6114   4.071   6.188   3.854 -0.4569  0.4401  0.5353
   67CHL1   H20 6115   4.008   6.276   3.877  1.3127  1.5931  1.1389
   67CHL1   C21 6116   4.212   6.245   3.833  0.2008  1.0045  0.0313
   67CHL1  H21A 6117   4.234   6.341   3.882  0.0292  0.1421  1.8805
   67CHL1  H21B 6118   4.233   6.267   3.726 -0.1831 -0.4525 -0.3658
   67CHL1  H21C 6119   4.293   6.180   3.873 -1.4462  0.0601  2.0504
   67CHL1   C22 6120   4.069   6.097   3.979 -0.0643  0.1834 -0.9309
   67CHL1  H22A 6121   3.967   6.058   4.001  0.6666 -0.5820  1.4472
   67CHL1  H22B 6122   4.136   6.009   3.971  0.1674  0.4020 -1.3722
   67CHL1   C23 6123   4.112   6.174   4.114  0.6241 -0.1159  0.1364
   67CHL1  H23A 6124   4.214   6.216   4.099 -0.2226  1.6527 -0.9878
   67CHL1  H23B 6125   4.041   6.259   4.126  0.7352  0.2869 -1.7556
   67CHL1   C24 6126   4.124   6.080   4.241 -0.5234 -0.5572  0.4011
   67CHL1  H24A 6127   4.024   6.031   4.249 -1.9974  2.4602  2.3222
   67CHL1  H24B 6128   4.197   5.999   4.222  1.0781  0.6114  1.3031
   67CHL1   C25 6129   4.142   6.146   4.378 -0.0420 -0.5843  0.0412
   67CHL1   H25 6130   4.105   6.251   4.376  1.7378  0.1087 -3.0558
   67CHL1   C26 6131   4.064   6.075   4.488  0.0024 -0.2048 -0.4498
   67CHL1  H26A 6132   3.955   6.086   4.467  0.3531  2.3671 -1.2519
   67CHL1  H26B 6133   4.113   5.976   4.483  3.8868  1.5150  0.0956
   67CHL1  H26C 6134   4.091   6.108   4.590  1.9810  1.1827 -1.3654
   67CHL1   C27 6135   4.294   6.160   4.413 -0.8050 -0.3175  0.3273
   67CHL1  H27A 6136   4.304   6.217   4.508  0.4736  1.1114 -0.6059
   67CHL1  H27B 6137   4.354   6.067   4.414 -2.1568 -1.2355 -0.8109
   67CHL1  H27C 6138   4.348   6.221   4.337 -1.3662  0.4764  0.5475
   68CHL1    C3 6139   3.541   5.489   3.109 -0.3732  0.5725  0.4021
   68CHL1    H3 6140   3.531   5.378   3.109 -0.7680  0.6053 -0.2803
   68CHL1    O3 6141   3.542   5.542   2.976 -0.9257 -0.0427  0.3315
   68CHL1   H3' 6142   3.452   5.536   2.943 -0.4132  0.7963 -1.3417
   68CHL1    C4 6143   3.423   5.547   3.188 -0.1054 -0.6978  0.0847
   68CHL1   H4A 6144   3.431   5.655   3.160 -0.1442 -0.6493  0.2628
   68CHL1   H4B 6145   3.327   5.504   3.153 -1.0535  0.2174  1.4759
   68CHL1    C5 6146   3.433   5.520   3.339 -1.0292 -0.2566  0.0976
   68CHL1    C6 6147   3.335   5.468   3.410  0.0510  0.7059 -0.6199
   68CHL1    H6 6148   3.248   5.432   3.354  1.1853 -0.9404 -1.3960
   68CHL1    C7 6149   3.329   5.448   3.563 -0.6275 -0.2501 -0.1523
   68CHL1   H7A 6150   3.228   5.477   3.600 -0.0636  2.6066 -0.6285
   68CHL1   H7B 6151   3.344   5.339   3.579 -1.8621 -0.3682  0.3682
   68CHL1    C8 6152   3.446   5.521   3.631  0.2826 -0.3510  0.3453
   68CHL1    H8 6153   3.422   5.629   3.638 -0.5717 -0.3391 -1.9464
   68CHL1   C14 6154   3.459   5.468   3.777 -0.1775  0.0709  0.1289
   68CHL1   H14 6155   3.483   5.360   3.773 -2.2243 -0.4231  0.3354
   68CHL1   C15 6156   3.329   5.464   3.859 -0.5968 -0.2271 -0.4972
   68CHL1  H15A 6157   3.285   5.566   3.867 -0.8492 -0.3820  0.1631
   68CHL1  H15B 6158   3.257   5.383   3.833 -1.1833  0.1214 -0.0089
   68CHL1   C16 6159   3.395   5.440   4.000 -0.3066  0.6087  0.1916
   68CHL1  H16A 6160   3.348   5.517   4.065  2.8910  2.9223 -0.0364
   68CHL1  H16B 6161   3.376   5.341   4.045 -0.9818 -0.3799 -2.0921
   68CHL1   C17 6162   3.550   5.461   3.990 -0.5781 -0.2956  0.3523
   68CHL1   H17 6163   3.591   5.360   3.967  0.3389 -0.0663  0.9622
   68CHL1   C13 6164   3.570   5.535   3.850  0.6610 -0.1119 -0.6575
   68CHL1   C18 6165   3.550   5.688   3.873  0.4501 -0.2878  0.5279
   68CHL1  H18A 6166   3.457   5.709   3.931 -0.4417 -1.8627 -0.2848
   68CHL1  H18B 6167   3.627   5.725   3.945 -0.4525 -0.1669  1.4530
   68CHL1  H18C 6168   3.564   5.745   3.778  0.1183 -2.1904 -0.7018
   68CHL1   C12 6169   3.704   5.516   3.779 -0.9189  0.5989  0.4376
   68CHL1  H12A 6170   3.790   5.564   3.831  0.8084 -0.5539 -1.2084
   68CHL1  H12B 6171   3.730   5.408   3.787 -0.7856  0.6844  1.3073
   68CHL1   C11 6172   3.695   5.560   3.631  0.5251 -0.0761  0.1235
   68CHL1  H11A 6173   3.695   5.671   3.633  0.4537 -0.0835  1.7899
   68CHL1  H11B 6174   3.785   5.536   3.570 -0.7407 -2.4142 -0.9409
   68CHL1    C9 6175   3.574   5.500   3.557 -0.2949 -0.2063  0.3366
   68CHL1    H9 6176   3.591   5.390   3.555 -2.0918 -0.5128  0.1363
   68CHL1   C10 6177   3.570   5.552   3.407 -0.2139 -0.2934 -0.8734
   68CHL1   C19 6178   3.579   5.708   3.410  0.4725  0.8491 -0.2106
   68CHL1  H19A 6179   3.543   5.755   3.317  1.1846 -1.5443 -1.7785
   68CHL1  H19B 6180   3.504   5.748   3.482 -0.0196 -0.7997  0.2521
   68CHL1  H19C 6181   3.684   5.744   3.421  0.5929  0.0495  1.8235
   68CHL1    C1 6182   3.684   5.481   3.324  0.7439 -0.2995 -0.1228
   68CHL1   H1A 6183   3.786   5.501   3.364  0.7694  3.9854 -1.7835
   68CHL1   H1B 6184   3.651   5.376   3.338  1.0313 -0.4036 -0.2033
   68CHL1    C2 6185   3.675   5.520   3.179  0.5205  0.0335 -0.5486
   68CHL1   H2A 6186   3.762   5.483   3.122  0.5263  2.2617 -2.1279
   68CHL1   H2B 6187   3.701   5.628   3.175 -0.8398  0.4188  0.2405
   68CHL1   C20 6188   3.622   5.501   4.124 -0.0266  0.3006  0.8883
   68CHL1   H20 6189   3.584   5.594   4.172 -0.0626 -0.4991  2.4723
   68CHL1   C21 6190   3.769   5.521   4.096  0.9020 -0.2658 -0.0851
   68CHL1  H21A 6191   3.821   5.548   4.190 -0.2500  2.2889 -0.1057
   68CHL1  H21B 6192   3.786   5.607   4.028 -0.3032  0.4815  0.5307
   68CHL1  H21C 6193   3.818   5.437   4.042  0.6607  0.0833 -0.8732
   68CHL1   C22 6194   3.610   5.390   4.232  0.3921 -0.3138  0.0955
   68CHL1  H22A 6195   3.508   5.346   4.227  0.3116 -0.1433  0.2063
   68CHL1  H22B 6196   3.669   5.305   4.192  0.4938  1.7824 -4.8445
   68CHL1   C23 6197   3.650   5.428   4.374  0.3112  0.2134  1.1348
   68CHL1  H23A 6198   3.759   5.445   4.372 -0.1220  3.7375 -1.2529
   68CHL1  H23B 6199   3.602   5.525   4.401 -1.2383 -0.1831 -0.0693
   68CHL1   C24 6200   3.606   5.323   4.479  0.6556  0.6274  0.0258
   68CHL1  H24A 6201   3.504   5.290   4.451  0.3724  0.5848  1.0619
   68CHL1  H24B 6202   3.667   5.231   4.466 -1.6065 -0.9681  0.2205
   68CHL1   C25 6203   3.623   5.367   4.620  0.0698  0.0128 -0.4648
   68CHL1   H25 6204   3.585   5.472   4.622  0.5173  0.1763  0.8469
   68CHL1   C26 6205   3.546   5.274   4.719 -0.5701 -0.4579 -0.1203
   68CHL1  H26A 6206   3.567   5.319   4.819  0.4919 -1.3789  0.0818
   68CHL1  H26B 6207   3.442   5.278   4.680 -0.0569  0.6208 -1.4796
   68CHL1  H26C 6208   3.588   5.172   4.720  0.8450  0.1031  0.6932
   68CHL1   C27 6209   3.771   5.377   4.663 -0.5862 -0.6867  0.2497
   68CHL1  H27A 6210   3.784   5.417   4.766  1.2491  1.8041 -0.8372
   68CHL1  H27B 6211   3.814   5.274   4.656  1.2016 -0.1016  1.8144
   68CHL1  H27C 6212   3.830   5.447   4.600 -1.4657  1.6757  1.9122
   69CHL1    C3 6213   1.751   3.561   3.238  0.4115  0.6105  0.5465
   69CHL1    H3 6214   1.673   3.482   3.249 -0.9749  1.9244  0.5787
   69CHL1    O3 6215   1.743   3.608   3.103 -0.6454  0.0139  0.7238
   69CHL1   H3' 6216   1.834   3.629   3.080 -1.0511 -1.2177 -2.4949
   69CHL1    C4 6217   1.710   3.674   3.330  0.5668 -0.8317 -0.5309
   69CHL1   H4A 6218   1.777   3.763   3.327  2.6124 -2.2725  0.4124
   69CHL1   H4B 6219   1.613   3.712   3.291  0.2221 -0.2380  0.8222
   69CHL1    C5 6220   1.687   3.642   3.475 -0.1545  0.3928 -0.3150
   69CHL1    C6 6221   1.571   3.669   3.534 -0.3792 -0.6253  0.0687
   69CHL1    H6 6222   1.494   3.713   3.470  0.1345 -0.7086 -0.6169
   69CHL1    C7 6223   1.553   3.644   3.678  0.9965 -0.2963 -0.5883
   69CHL1   H7A 6224   1.524   3.740   3.725 -0.7438 -0.4530 -1.2546
   69CHL1   H7B 6225   1.475   3.566   3.692 -0.2239  0.8392 -0.8820
   69CHL1    C8 6226   1.676   3.585   3.753 -0.4314  0.3106 -0.2805
   69CHL1    H8 6227   1.739   3.674   3.775  1.9576 -1.6420  1.3374
   69CHL1   C14 6228   1.633   3.517   3.878  0.0627  0.0245  0.9853
   69CHL1   H14 6229   1.573   3.430   3.843  0.8756  0.3016 -1.2136
   69CHL1   C15 6230   1.539   3.587   3.984 -0.5135  0.3789  0.4990
   69CHL1  H15A 6231   1.547   3.698   3.993 -1.9431  0.7613 -1.9165
   69CHL1  H15B 6232   1.435   3.564   3.952  0.0326  2.2428 -3.1635
   69CHL1   C16 6233   1.584   3.522   4.114 -0.8951  0.3950 -0.5420
   69CHL1  H16A 6234   1.633   3.601   4.176  1.1601 -0.4025 -1.0456
   69CHL1  H16B 6235   1.502   3.489   4.181 -1.5374 -0.6716 -1.8159
   69CHL1   C17 6236   1.687   3.414   4.087 -0.6887  0.2073  0.2937
   69CHL1   H17 6237   1.630   3.322   4.063  0.3302 -0.3953  0.1154
   69CHL1   C13 6238   1.752   3.462   3.952  0.2802  0.0123  0.8478
   69CHL1   C18 6239   1.848   3.580   3.995 -0.0016  0.4103  0.7311
   69CHL1  H18A 6240   1.906   3.619   3.908  0.2641  1.0438  1.1851
   69CHL1  H18B 6241   1.801   3.668   4.044  2.3678  1.1726  1.7846
   69CHL1  H18C 6242   1.927   3.543   4.065  2.6311  2.1983 -1.0932
   69CHL1   C12 6243   1.825   3.355   3.868  0.0129 -0.4168  0.1396
   69CHL1  H12A 6244   1.915   3.312   3.918  1.1509  1.3962 -0.2658
   69CHL1  H12B 6245   1.743   3.281   3.854 -0.4393  0.2446 -0.7642
   69CHL1   C11 6246   1.872   3.408   3.734  0.4413 -0.5015  0.0294
   69CHL1  H11A 6247   1.961   3.473   3.753 -0.5348  0.3522  1.9507
   69CHL1  H11B 6248   1.906   3.327   3.666 -0.1733 -0.4454 -0.3480
   69CHL1    C9 6249   1.761   3.486   3.664 -0.5405  0.3695  0.5580
   69CHL1    H9 6250   1.688   3.412   3.627 -1.0179  0.5334  1.1641
   69CHL1   C10 6251   1.806   3.564   3.530  0.7979 -0.5191  0.0555
   69CHL1   C19 6252   1.917   3.664   3.560 -0.0099 -0.1706  0.2792
   69CHL1  H19A 6253   1.900   3.716   3.657  0.9267 -2.0088  1.5007
   69CHL1  H19B 6254   2.015   3.613   3.569 -0.1924 -0.6628 -0.4465
   69CHL1  H19C 6255   1.923   3.747   3.487 -0.0709 -0.3665  0.0498
   69CHL1    C1 6256   1.871   3.458   3.435  0.7084  0.1623 -0.2450
   69CHL1   H1A 6257   1.971   3.428   3.474  0.7515 -0.0047 -0.4809
   69CHL1   H1B 6258   1.804   3.370   3.429 -1.3457  1.7342 -2.1228
   69CHL1    C2 6259   1.885   3.499   3.285  1.0789 -0.1836 -0.2804
   69CHL1   H2A 6260   1.918   3.414   3.221  1.6238  1.9639 -3.0822
   69CHL1   H2B 6261   1.962   3.578   3.273 -0.9032  2.1573  1.5160
   69CHL1   C20 6262   1.782   3.382   4.212 -0.3323 -0.1305 -0.4176
   69CHL1   H20 6263   1.846   3.468   4.241 -0.8014  0.0442  0.1169
   69CHL1   C21 6264   1.872   3.253   4.181  1.1458  0.0111  0.0545
   69CHL1  H21A 6265   1.948   3.284   4.106 -0.4995 -0.0605 -1.7122
   69CHL1  H21B 6266   1.810   3.168   4.147 -0.8124  1.8994 -1.3397
   69CHL1  H21C 6267   1.928   3.228   4.274  1.1090 -0.1472  0.0345
   69CHL1   C22 6268   1.705   3.366   4.347 -0.5104  0.5920  1.1756
   69CHL1  H22A 6269   1.640   3.455   4.361 -0.2406  0.9878  0.0009
   69CHL1  H22B 6270   1.652   3.268   4.347  1.0752 -0.3322 -0.4130
   69CHL1   C23 6271   1.808   3.375   4.463  0.5816 -0.0811 -0.1406
   69CHL1  H23A 6272   1.873   3.286   4.445 -0.8000 -0.9974 -0.8867
   69CHL1  H23B 6273   1.874   3.464   4.456  2.8465 -1.4758  1.9176
   69CHL1   C24 6274   1.734   3.367   4.600  0.6347 -0.5193 -1.0319
   69CHL1  H24A 6275   1.660   3.450   4.605 -1.5175 -2.3529 -0.7506
   69CHL1  H24B 6276   1.674   3.275   4.615 -1.1645  0.6445 -0.7589
   69CHL1   C25 6277   1.840   3.378   4.718  0.6560  0.4975 -0.1577
   69CHL1   H25 6278   1.907   3.461   4.688 -0.3335  1.1343 -0.6467
   69CHL1   C26 6279   1.783   3.420   4.853  0.8353 -0.2453  0.2241
   69CHL1  H26A 6280   1.712   3.349   4.901  1.2036 -0.0504  1.0749
   69CHL1  H26B 6281   1.865   3.451   4.921  0.6433 -0.6568  0.6483
   69CHL1  H26C 6282   1.721   3.512   4.854  0.3451 -0.5618 -0.3543
   69CHL1   C27 6283   1.923   3.250   4.728 -0.2321  0.1183  0.1567
   69CHL1  H27A 6284   1.974   3.220   4.634 -0.7450 -0.3745  0.0290
   69CHL1  H27B 6285   2.002   3.273   4.803 -0.7647 -1.0816  1.1090
   69CHL1  H27C 6286   1.864   3.165   4.767  3.0595 -0.9541  3.4459
   70CHL1    C3 6287   1.630   0.311   3.144  0.1068 -0.0737  0.7865
   70CHL1    H3 6288   1.577   0.401   3.181 -0.3959 -1.1199  2.7611
   70CHL1    O3 6289   1.642   0.307   3.007 -0.1266 -0.2108  0.1599
   70CHL1   H3' 6290   1.611   0.220   2.980  1.0335  0.1637 -2.8391
   70CHL1    C4 6291   1.775   0.318   3.205 -0.2713  0.2966  0.2436
   70CHL1   H4A 6292   1.832   0.236   3.156 -0.3294 -0.4697  1.4276
   70CHL1   H4B 6293   1.825   0.414   3.182  1.0780  0.5200  3.5883
   70CHL1    C5 6294   1.779   0.285   3.355 -0.4614 -0.9534  0.8032
   70CHL1    C6 6295   1.841   0.364   3.440 -0.5688 -0.0469  0.9630
   70CHL1    H6 6296   1.894   0.451   3.399 -1.7938 -0.1927 -1.0568
   70CHL1    C7 6297   1.869   0.329   3.581  0.9118 -0.3547  0.6687
   70CHL1   H7A 6298   1.979   0.346   3.591  0.6419  1.8447  0.4584
   70CHL1   H7B 6299   1.820   0.403   3.648  0.6938  0.6770 -0.5936
   70CHL1    C8 6300   1.834   0.187   3.617  0.3985  0.5903 -0.1191
   70CHL1    H8 6301   1.919   0.122   3.586 -0.7251 -0.3338 -1.3638
   70CHL1   C14 6302   1.814   0.183   3.773  0.9638 -0.4762 -0.4884
   70CHL1   H14 6303   1.741   0.262   3.800  3.3181  1.1235  1.6213
   70CHL1   C15 6304   1.938   0.223   3.856  0.3082 -0.0989 -0.0728
   70CHL1  H15A 6305   2.027   0.169   3.817 -0.0579 -1.6692  1.1748
   70CHL1  H15B 6306   1.958   0.332   3.853  2.0580 -0.4086 -0.9545
   70CHL1   C16 6307   1.917   0.169   3.994  0.1310  0.0456 -0.1678
   70CHL1  H16A 6308   1.998   0.097   4.018  1.0345  0.9747 -0.3802
   70CHL1  H16B 6309   1.920   0.251   4.069  0.0615 -0.8175  0.7995
   70CHL1   C17 6310   1.787   0.080   3.978  0.0001  0.5809  0.3105
   70CHL1   H17 6311   1.701   0.147   4.003  1.6506  2.4688  1.1809
   70CHL1   C13 6312   1.777   0.049   3.823  0.2085  0.2402 -0.2585
   70CHL1   C18 6313   1.883  -0.061   3.796  0.6395  0.5353  0.7478
   70CHL1  H18A 6314   1.987  -0.031   3.822  1.0873 -0.2615 -0.0751
   70CHL1  H18B 6315   1.859  -0.158   3.844  1.0899 -0.3600 -0.7501
   70CHL1  H18C 6316   1.889  -0.094   3.690 -0.6049 -0.8023  1.0660
   70CHL1   C12 6317   1.646   0.004   3.760 -0.0102 -0.6066  0.5610
   70CHL1  H12A 6318   1.613  -0.098   3.788 -3.4485  0.2213 -0.0347
   70CHL1  H12B 6319   1.572   0.081   3.792 -0.7000 -0.9208 -0.2351
   70CHL1   C11 6320   1.651   0.009   3.608  0.0769  0.2236 -0.4625
   70CHL1  H11A 6321   1.715  -0.074   3.570 -2.6071 -0.6895 -3.5321
   70CHL1  H11B 6322   1.544   0.005   3.577 -0.0801  2.1872 -0.3090
   70CHL1    C9 6323   1.703   0.145   3.547 -0.4025 -0.1534  0.1352
   70CHL1    H9 6324   1.631   0.221   3.583  1.8500  1.8064  0.7895
   70CHL1   C10 6325   1.703   0.159   3.398 -0.1974  0.6211 -0.2702
   70CHL1   C19 6326   1.770   0.036   3.339 -0.1352  0.0484  0.2620
   70CHL1  H19A 6327   1.722  -0.064   3.353  3.0909 -1.7153 -0.2626
   70CHL1  H19B 6328   1.788   0.045   3.229  0.0888  0.0114  0.2954
   70CHL1  H19C 6329   1.866   0.012   3.389 -1.2149 -2.6244  1.2292
   70CHL1    C1 6330   1.555   0.174   3.345 -0.3775 -0.0596 -0.0893
   70CHL1   H1A 6331   1.492   0.085   3.370  1.1583 -1.5508 -1.2679
   70CHL1   H1B 6332   1.513   0.267   3.389  0.4167 -0.1081  0.8130
   70CHL1    C2 6333   1.544   0.196   3.199  0.1454 -0.6245  0.3423
   70CHL1   H2A 6334   1.436   0.213   3.184  0.4767  2.1458  0.4486
   70CHL1   H2B 6335   1.582   0.106   3.146  0.6589  1.0000 -2.2095
   70CHL1   C20 6336   1.784  -0.027   4.086 -0.1113 -0.7812  0.1574
   70CHL1   H20 6337   1.878  -0.086   4.086 -0.2556 -1.0750  2.2617
   70CHL1   C21 6338   1.656  -0.116   4.066 -0.3595 -0.3265 -1.2496
   70CHL1  H21A 6339   1.643  -0.177   4.159  0.0700  2.0196  0.4234
   70CHL1  H21B 6340   1.675  -0.187   3.983 -1.1514  0.4054 -2.0797
   70CHL1  H21C 6341   1.561  -0.061   4.051 -1.1462 -0.3513  2.5871
   70CHL1   C22 6342   1.785   0.046   4.221 -1.0952  0.3197  0.0792
   70CHL1  H22A 6343   1.878   0.105   4.236 -1.5195  0.5272  2.1739
   70CHL1  H22B 6344   1.698   0.115   4.223  0.1892  2.0588 -1.1197
   70CHL1   C23 6345   1.774  -0.054   4.340 -1.1210 -0.3941 -0.0795
   70CHL1  H23A 6346   1.678  -0.110   4.343 -1.1500 -0.4956 -1.6636
   70CHL1  H23B 6347   1.856  -0.127   4.323  0.0358  0.6063  0.9803
   70CHL1   C24 6348   1.803   0.013   4.477  0.4049 -0.0399 -0.4008
   70CHL1  H24A 6349   1.901   0.064   4.477  0.8092 -0.7997 -0.7010
   70CHL1  H24B 6350   1.710   0.071   4.494 -0.8671 -2.0701 -0.0538
   70CHL1   C25 6351   1.792  -0.091   4.592  0.0646 -0.0307 -0.1982
   70CHL1   H25 6352   1.690  -0.133   4.578  0.8322 -2.0042 -0.2011
   70CHL1   C26 6353   1.905  -0.198   4.570 -0.1314  0.8937  0.4590
   70CHL1  H26A 6354   1.994  -0.141   4.537 -0.9128  1.9082  0.0138
   70CHL1  H26B 6355   1.917  -0.268   4.656  1.6224 -0.5422 -0.8860
   70CHL1  H26C 6356   1.879  -0.266   4.486  0.3166 -1.3664  2.0736
   70CHL1   C27 6357   1.795  -0.017   4.725 -0.4225  0.2078 -0.0591
   70CHL1  H27A 6358   1.705   0.048   4.726 -0.7115 -0.1903 -0.3528
   70CHL1  H27B 6359   1.799  -0.098   4.801  1.6728  1.8215  1.7152
   70CHL1  H27C 6360   1.882   0.052   4.733  0.0619 -0.4671  0.6334
   71CHL1    C3 6361   5.965   5.416   3.121 -0.1383 -0.0810 -0.0832
   71CHL1    H3 6362   6.023   5.510   3.123  1.0283 -0.7650 -0.6091
   71CHL1    O3 6363   5.960   5.362   2.988  0.1486  0.3978  0.1463
   71CHL1   H3' 6364   5.893   5.419   2.950 -1.2402  1.7720  4.1199
   71CHL1    C4 6365   6.040   5.308   3.205 -0.1018 -0.4633  0.1267
   71CHL1   H4A 6366   5.989   5.216   3.171  0.5767  0.2222 -3.0337
   71CHL1   H4B 6367   6.143   5.304   3.165 -1.0896 -1.6513 -2.4888
   71CHL1    C5 6368   6.037   5.347   3.357  0.5187  0.4827  0.0826
   71CHL1    C6 6369   6.156   5.345   3.421 -0.0493 -0.1597  0.5381
   71CHL1    H6 6370   6.248   5.323   3.364 -0.4516 -1.3996  0.3594
   71CHL1    C7 6371   6.169   5.377   3.570 -0.0134  0.0602  0.7818
   71CHL1   H7A 6372   6.244   5.315   3.623  0.5791  0.3141  0.2502
   71CHL1   H7B 6373   6.199   5.483   3.589  2.3281  1.3794 -6.8288
   71CHL1    C8 6374   6.025   5.358   3.638 -0.0994 -0.0106  0.7439
   71CHL1    H8 6375   5.998   5.250   3.641 -0.3838  0.0741  3.0554
   71CHL1   C14 6376   6.030   5.422   3.770 -0.0641 -0.1364 -0.3430
   71CHL1   H14 6377   6.050   5.530   3.756 -1.5586  0.5224  2.0919
   71CHL1   C15 6378   6.144   5.363   3.861 -0.5552 -0.1553  0.3922
   71CHL1  H15A 6379   6.159   5.259   3.823  0.5906  0.1000  0.0787
   71CHL1  H15B 6380   6.237   5.418   3.834 -0.6790  0.1883  0.6697
   71CHL1   C16 6381   6.097   5.379   4.001 -0.1415 -0.0503 -0.6967
   71CHL1  H16A 6382   6.085   5.289   4.064 -0.4526 -0.3484 -1.1858
   71CHL1  H16B 6383   6.164   5.452   4.054 -2.3195  0.5360  1.4483
   71CHL1   C17 6384   5.953   5.449   3.998  0.3491 -1.1892 -0.3645
   71CHL1   H17 6385   5.967   5.558   3.983  1.7369 -1.3009 -0.0096
   71CHL1   C13 6386   5.903   5.409   3.854 -0.3818 -0.2211  0.8597
   71CHL1   C18 6387   5.867   5.256   3.868 -0.1774 -1.2921  0.2262
   71CHL1  H18A 6388   5.768   5.255   3.917 -1.4331 -0.5663 -2.1490
   71CHL1  H18B 6389   5.831   5.225   3.768 -2.5781  1.4331  0.1197
   71CHL1  H18C 6390   5.945   5.202   3.926  1.0359  1.6590  1.5862
   71CHL1   C12 6391   5.797   5.491   3.783  0.7234 -0.3567  0.3739
   71CHL1  H12A 6392   5.695   5.484   3.826  0.4230 -0.0195 -0.2654
   71CHL1  H12B 6393   5.833   5.596   3.784  1.2920 -0.5282 -0.5169
   71CHL1   C11 6394   5.780   5.453   3.633 -0.1115  0.8276 -0.4677
   71CHL1  H11A 6395   5.720   5.359   3.636 -0.9255  1.3217 -0.9775
   71CHL1  H11B 6396   5.708   5.527   3.592  1.1140  2.3020 -0.0216
   71CHL1    C9 6397   5.920   5.434   3.559  0.0936  0.2577 -0.2218
   71CHL1    H9 6398   5.958   5.538   3.554 -1.2345  0.8044  0.5384
   71CHL1   C10 6399   5.899   5.386   3.419  0.0096 -0.5965  0.9016
   71CHL1   C19 6400   5.810   5.263   3.422  0.4114  0.5599 -0.5063
   71CHL1  H19A 6401   5.873   5.187   3.474  2.0119  1.4236 -1.1083
   71CHL1  H19B 6402   5.711   5.286   3.468  1.1091  2.4821  0.1200
   71CHL1  H19C 6403   5.785   5.204   3.331 -0.2474  0.6295 -0.3762
   71CHL1    C1 6404   5.830   5.491   3.330  0.3108 -0.5008  0.0881
   71CHL1   H1A 6405   5.722   5.511   3.348  0.0204 -0.1922 -1.7928
   71CHL1   H1B 6406   5.892   5.584   3.328  1.3766 -1.2092 -0.8046
   71CHL1    C2 6407   5.833   5.446   3.181 -0.0569  0.2970  0.8709
   71CHL1   H2A 6408   5.763   5.514   3.127 -0.1872 -0.8966 -0.5254
   71CHL1   H2B 6409   5.775   5.351   3.181  0.5751 -0.1497 -1.2291
   71CHL1   C20 6410   5.861   5.425   4.120 -0.0707  0.0376 -0.1101
   71CHL1   H20 6411   5.842   5.317   4.137  1.0875 -0.3112 -0.9056
   71CHL1   C21 6412   5.735   5.514   4.115 -0.5075  0.3794  0.7974
   71CHL1  H21A 6413   5.762   5.611   4.068 -0.8588 -0.0776 -0.3810
   71CHL1  H21B 6414   5.702   5.536   4.219  1.5174  0.4027  1.4739
   71CHL1  H21C 6415   5.652   5.468   4.058 -0.3999 -0.3644  1.2213
   71CHL1   C22 6416   5.938   5.460   4.248 -0.0462 -0.0186 -0.1282
   71CHL1  H22A 6417   6.029   5.397   4.247  1.1630  1.6696 -1.4526
   71CHL1  H22B 6418   5.974   5.565   4.247  1.2862 -0.3083  3.3885
   71CHL1   C23 6419   5.865   5.415   4.377  0.0831  0.4111 -0.0022
   71CHL1  H23A 6420   5.775   5.479   4.389 -1.7564 -1.5964 -2.0993
   71CHL1  H23B 6421   5.832   5.313   4.349  1.6854  0.5752 -2.8709
   71CHL1   C24 6422   5.945   5.416   4.506  0.2931 -0.2815  0.8940
   71CHL1  H24A 6423   6.025   5.341   4.488  0.4988  0.3779 -1.1490
   71CHL1  H24B 6424   6.004   5.509   4.522 -0.1815  0.9059 -3.0816
   71CHL1   C25 6425   5.858   5.384   4.638  0.4260  0.6573 -0.0949
   71CHL1   H25 6426   5.934   5.364   4.717  0.8401 -2.5609 -1.1497
   71CHL1   C26 6427   5.778   5.505   4.691 -0.4521  0.1148  0.6972
   71CHL1  H26A 6428   5.709   5.543   4.612  3.2767  1.5869 -2.1588
   71CHL1  H26B 6429   5.711   5.464   4.770 -1.5399  2.6768  1.2362
   71CHL1  H26C 6430   5.835   5.585   4.744 -0.7288  0.3987  0.5708
   71CHL1   C27 6431   5.773   5.262   4.620 -0.0386 -0.5277  1.1106
   71CHL1  H27A 6432   5.736   5.214   4.713  1.4714 -0.5521  1.7332
   71CHL1  H27B 6433   5.691   5.294   4.553 -0.2606 -1.0010  1.1492
   71CHL1  H27C 6434   5.832   5.183   4.568  0.0919 -0.2455  0.8280
   72CHL1    C3 6435   0.001   4.445   3.169 -1.1617 -0.4659 -0.1575
   72CHL1    H3 6436  -0.103   4.444   3.209 -1.4010 -1.1908 -0.7710
   72CHL1    O3 6437   0.019   4.402   3.032  0.8897  0.2129 -0.3700
   72CHL1   H3' 6438   0.002   4.308   3.026 -1.0549  0.4090  0.9783
   72CHL1    C4 6439   0.062   4.590   3.166  0.1151  0.1259  0.4307
   72CHL1   H4A 6440   0.157   4.575   3.110  0.3534 -3.3897  1.5418
   72CHL1   H4B 6441   0.003   4.659   3.102  0.2635 -1.6962 -1.7892
   72CHL1    C5 6442   0.075   4.644   3.309  0.1855 -0.5463 -0.9061
   72CHL1    C6 6443   0.029   4.761   3.349  0.0931 -0.0487 -0.0428
   72CHL1    H6 6444  -0.026   4.823   3.277  0.4294  2.7667  1.9377
   72CHL1    C7 6445   0.049   4.823   3.488  0.6375  0.0979  0.2940
   72CHL1   H7A 6446   0.073   4.932   3.487 -1.4345  0.5854 -0.5740
   72CHL1   H7B 6447  -0.050   4.827   3.539 -1.0788  4.2183 -2.7974
   72CHL1    C8 6448   0.150   4.748   3.584  0.3357 -0.1096  0.3663
   72CHL1    H8 6449   0.251   4.788   3.562 -0.4691  1.8830  0.0348
   72CHL1   C14 6450   0.132   4.780   3.734 -0.0034  0.8419  0.4034
   72CHL1   H14 6451   0.032   4.735   3.756  0.1185 -0.1415 -0.9232
   72CHL1   C15 6452   0.122   4.932   3.772  0.5874  0.0255  0.2362
   72CHL1  H15A 6453   0.205   4.986   3.722  0.4381  0.2060  0.1843
   72CHL1  H15B 6454   0.024   4.970   3.738 -0.4154 -0.5671  2.3410
   72CHL1   C16 6455   0.132   4.936   3.923  0.3377 -0.0635 -0.3673
   72CHL1  H16A 6456   0.215   5.004   3.952  0.6414 -0.9134  0.8280
   72CHL1  H16B 6457   0.040   4.980   3.967  0.6750  0.9542 -0.6541
   72CHL1   C17 6458   0.160   4.783   3.971  0.0653 -0.3301  0.2156
   72CHL1   H17 6459   0.058   4.744   3.991  0.2925 -0.6864  0.6859
   72CHL1   C13 6460   0.213   4.712   3.842 -0.0840  0.0989  0.8277
   72CHL1   C18 6461   0.356   4.757   3.820 -0.2380  0.7073 -0.8845
   72CHL1  H18A 6462   0.392   4.725   3.720 -2.0905 -0.6205 -1.1886
   72CHL1  H18B 6463   0.362   4.868   3.823  0.1539  0.6731  0.3538
   72CHL1  H18C 6464   0.411   4.712   3.905 -2.0910  0.0067 -0.0095
   72CHL1   C12 6465   0.194   4.559   3.815 -0.3329 -0.0767 -0.4030
   72CHL1  H12A 6466   0.251   4.493   3.883 -0.9675 -0.6500 -0.4261
   72CHL1  H12B 6467   0.090   4.537   3.846  0.8557 -1.4011  3.0905
   72CHL1   C11 6468   0.208   4.521   3.662 -0.1192  0.3265  0.1879
   72CHL1  H11A 6469   0.318   4.524   3.651  0.0876  0.1955  1.9081
   72CHL1  H11B 6470   0.177   4.414   3.657  1.3433 -0.1404  0.7130
   72CHL1    C9 6471   0.132   4.600   3.560  0.1465  0.3152  0.8254
   72CHL1    H9 6472   0.025   4.580   3.583 -0.3741  0.4499 -1.2991
   72CHL1   C10 6473   0.149   4.547   3.411 -0.4243 -0.2141  0.3108
   72CHL1   C19 6474   0.299   4.556   3.372 -0.3670 -0.1628 -0.0330
   72CHL1  H19A 6475   0.320   4.560   3.263 -0.1360  1.0054  0.0454
   72CHL1  H19B 6476   0.329   4.656   3.408 -3.9794  0.1494  2.6529
   72CHL1  H19C 6477   0.363   4.483   3.425 -1.1948 -0.1606  1.0022
   72CHL1    C1 6478   0.097   4.401   3.397  0.3333 -0.1173 -0.5595
   72CHL1   H1A 6479   0.164   4.341   3.462 -0.6406  0.2519  0.8553
   72CHL1   H1B 6480  -0.002   4.403   3.448  0.3033  1.1795 -0.6297
   72CHL1    C2 6481   0.086   4.351   3.256 -0.6451 -0.6612 -0.5272
   72CHL1   H2A 6482   0.032   4.254   3.255 -2.2146  0.1774 -1.6351
   72CHL1   H2B 6483   0.188   4.341   3.213  0.3793  1.0228  1.3689
   72CHL1   C20 6484   0.235   4.761   4.107 -0.2194  0.2392 -0.2761
   72CHL1   H20 6485   0.341   4.793   4.094  0.2447 -1.1255  0.0050
   72CHL1   C21 6486   0.231   4.617   4.152 -0.0510  0.6356  0.4674
   72CHL1  H21A 6487   0.306   4.615   4.234  0.3803  2.8634  0.1977
   72CHL1  H21B 6488   0.259   4.550   4.069 -0.3840 -0.7319  1.4320
   72CHL1  H21C 6489   0.135   4.582   4.195 -0.4436 -2.5410 -2.6087
   72CHL1   C22 6490   0.180   4.849   4.226 -0.8844  0.1151  0.6644
   72CHL1  H22A 6491   0.175   4.948   4.175  0.9359 -1.0517 -2.0755
   72CHL1  H22B 6492   0.079   4.810   4.250 -1.5369  1.2836 -0.1202
   72CHL1   C23 6493   0.263   4.861   4.351  0.0823  0.3986  0.3869
   72CHL1  H23A 6494   0.268   4.759   4.394  0.3190  0.5197  0.6489
   72CHL1  H23B 6495   0.368   4.889   4.328  0.0853  0.4745  0.4914
   72CHL1   C24 6496   0.206   4.963   4.453 -0.5032  1.4367 -0.1420
   72CHL1  H24A 6497   0.212   5.067   4.416 -1.5428  1.5239 -0.0961
   72CHL1  H24B 6498   0.100   4.939   4.479 -0.9135  2.8828 -0.4011
   72CHL1   C25 6499   0.290   4.968   4.583  0.2009 -0.5561 -0.5232
   72CHL1   H25 6500   0.394   4.976   4.545 -0.4317 -1.1956 -2.5082
   72CHL1   C26 6501   0.265   5.098   4.664 -0.0597 -0.0191  0.0447
   72CHL1  H26A 6502   0.348   5.107   4.738  0.7373  2.2972 -1.0455
   72CHL1  H26B 6503   0.277   5.194   4.609 -2.7202  1.2842  1.5524
   72CHL1  H26C 6504   0.167   5.088   4.715  0.0049 -1.4286 -0.0564
   72CHL1   C27 6505   0.275   4.844   4.666 -0.6558 -0.7851 -0.3764
   72CHL1  H27A 6506   0.352   4.842   4.747  1.2317 -1.4631 -2.0909
   72CHL1  H27B 6507   0.173   4.845   4.710 -0.2642  0.0614  0.5446
   72CHL1  H27C 6508   0.284   4.746   4.614  0.9922 -0.6104 -0.4855
   73CHL1    C3 6509   0.579   5.304   3.270 -0.0114  0.5299 -0.8878
   73CHL1    H3 6510   0.625   5.203   3.265 -0.7175  0.0266  1.5506
   73CHL1    O3 6511   0.530   5.353   3.143  0.9821  0.2540 -0.9334
   73CHL1   H3' 6512   0.441   5.383   3.159  0.8046 -1.3006  1.5214
   73CHL1    C4 6513   0.463   5.302   3.372  0.1145  0.2802 -0.3311
   73CHL1   H4A 6514   0.408   5.398   3.372 -1.3049 -0.4394  2.0072
   73CHL1   H4B 6515   0.390   5.232   3.325 -0.7820  1.9050 -1.4413
   73CHL1    C5 6516   0.514   5.265   3.513  0.7281  0.0123  0.5314
   73CHL1    C6 6517   0.468   5.150   3.568  0.3479  0.3981 -0.8042
   73CHL1    H6 6518   0.385   5.097   3.520 -0.8257  1.4215  0.0343
   73CHL1    C7 6519   0.503   5.104   3.710 -0.3411 -0.5573  0.3166
   73CHL1   H7A 6520   0.419   5.064   3.772 -0.5942 -2.0131 -0.9170
   73CHL1   H7B 6521   0.580   5.025   3.697 -1.5466 -1.5590 -1.0019
   73CHL1    C8 6522   0.576   5.225   3.783  0.3953  0.3147 -0.4456
   73CHL1    H8 6523   0.498   5.303   3.796  0.3919  0.5714 -1.8587
   73CHL1   C14 6524   0.627   5.182   3.913  0.2606 -0.0129 -0.4180
   73CHL1   H14 6525   0.699   5.103   3.884 -0.5004 -0.5288 -0.9424
   73CHL1   C15 6526   0.528   5.116   4.010 -0.5133 -0.0815  0.9858
   73CHL1  H15A 6527   0.433   5.173   4.003 -1.0477 -1.1289 -1.2004
   73CHL1  H15B 6528   0.501   5.010   3.990 -2.1983  0.2788  1.2424
   73CHL1   C16 6529   0.603   5.128   4.142  0.2838  0.4000 -0.4191
   73CHL1  H16A 6530   0.542   5.190   4.212 -1.8880 -1.1479 -0.8335
   73CHL1  H16B 6531   0.623   5.032   4.195 -0.2305 -0.4019 -1.6388
   73CHL1   C17 6532   0.738   5.191   4.120 -0.5062  0.3029 -0.9864
   73CHL1   H17 6533   0.801   5.106   4.086 -2.4153 -1.4415 -0.3965
   73CHL1   C13 6534   0.718   5.280   3.992  0.1134 -0.3743 -0.0784
   73CHL1   C18 6535   0.631   5.407   4.019  0.0010  0.3658 -0.0932
   73CHL1  H18A 6536   0.592   5.451   3.925  2.2198  0.8107 -0.8786
   73CHL1  H18B 6537   0.546   5.371   4.081 -0.4496  0.5463 -0.6026
   73CHL1  H18C 6538   0.688   5.485   4.076 -0.3525  0.9110 -0.4787
   73CHL1   C12 6539   0.835   5.310   3.901  0.4356 -0.0964 -0.5700
   73CHL1  H12A 6540   0.904   5.386   3.943 -0.0486  1.2955 -2.1850
   73CHL1  H12B 6541   0.896   5.218   3.886 -0.1490 -0.4706 -0.6946
   73CHL1   C11 6542   0.796   5.372   3.770  0.4056  0.3552 -0.4019
   73CHL1  H11A 6543   0.750   5.472   3.782  0.0386  0.7661 -4.0086
   73CHL1  H11B 6544   0.878   5.380   3.695 -0.6194  1.7254 -1.4341
   73CHL1    C9 6545   0.685   5.285   3.694 -0.6936 -0.0900  0.6249
   73CHL1    H9 6546   0.744   5.196   3.664 -1.0323  0.4172 -1.7550
   73CHL1   C10 6547   0.632   5.350   3.564  0.3208 -0.9393  0.2305
   73CHL1   C19 6548   0.580   5.488   3.607 -0.1039  0.0495 -0.0691
   73CHL1  H19A 6549   0.507   5.541   3.542  0.0890  1.7142  1.0258
   73CHL1  H19B 6550   0.537   5.499   3.709 -0.0642  1.3439 -0.1752
   73CHL1  H19C 6551   0.667   5.554   3.591  0.5539 -0.7328  0.2516
   73CHL1    C1 6552   0.737   5.358   3.451 -0.1175 -0.2768 -0.2226
   73CHL1   H1A 6553   0.821   5.422   3.486 -1.1779  0.2843  1.4473
   73CHL1   H1B 6554   0.788   5.259   3.445 -2.6816 -1.5890 -2.0258
   73CHL1    C2 6555   0.688   5.406   3.313  0.1594 -0.7882  0.2214
   73CHL1   H2A 6556   0.774   5.413   3.242 -2.5672  1.4342 -3.2232
   73CHL1   H2B 6557   0.640   5.504   3.332  0.0409 -1.2883  2.7649
   73CHL1   C20 6558   0.786   5.263   4.246 -0.5646 -0.1782 -0.4328
   73CHL1   H20 6559   0.712   5.338   4.282 -0.6065 -0.1341 -0.6129
   73CHL1   C21 6560   0.922   5.331   4.217 -0.9371  0.3036 -0.0974
   73CHL1  H21A 6561   0.991   5.269   4.157  0.9258  3.4022 -1.3963
   73CHL1  H21B 6562   0.971   5.366   4.310 -1.3626 -0.0445  0.2633
   73CHL1  H21C 6563   0.916   5.424   4.156  0.4142  0.1232 -0.5179
   73CHL1   C22 6564   0.801   5.166   4.369  0.0700 -0.6480 -0.5338
   73CHL1  H22A 6565   0.700   5.127   4.393 -0.1319 -1.8777 -3.0333
   73CHL1  H22B 6566   0.848   5.069   4.340 -0.6214 -2.5028  3.6790
   73CHL1   C23 6567   0.878   5.224   4.488 -0.2004 -0.4564  0.1010
   73CHL1  H23A 6568   0.866   5.147   4.568 -2.3329 -1.3132 -0.9635
   73CHL1  H23B 6569   0.982   5.244   4.456 -1.1094 -0.8452 -3.5399
   73CHL1   C24 6570   0.823   5.356   4.547 -0.3828 -0.5577 -0.8028
   73CHL1  H24A 6571   0.884   5.386   4.635 -3.0884  2.6963  0.2235
   73CHL1  H24B 6572   0.837   5.433   4.468 -2.5668  0.5629 -0.2009
   73CHL1   C25 6573   0.673   5.363   4.589  0.5906 -0.3511 -0.2366
   73CHL1   H25 6574   0.614   5.333   4.499  1.5084 -1.1274 -0.5875
   73CHL1   C26 6575   0.641   5.276   4.707 -0.0987  0.3324 -0.2782
   73CHL1  H26A 6576   0.656   5.170   4.676 -0.5104 -0.6088  2.4551
   73CHL1  H26B 6577   0.710   5.298   4.792  2.0668 -0.7879 -1.6550
   73CHL1  H26C 6578   0.536   5.286   4.741  0.0316 -1.7806  0.9725
   73CHL1   C27 6579   0.643   5.511   4.626  0.5945  0.5053  0.6200
   73CHL1  H27A 6580   0.709   5.529   4.714  1.8652 -1.6705  0.1756
   73CHL1  H27B 6581   0.664   5.574   4.537  0.4086 -0.4515 -0.1153
   73CHL1  H27C 6582   0.533   5.513   4.641  0.4614  0.4341 -0.2758
   74CHL1    C3 6583   2.961   5.215   2.977  0.2606  0.0877 -0.2476
   74CHL1    H3 6584   3.062   5.170   2.980  0.5674  0.6942 -1.0567
   74CHL1    O3 6585   2.927   5.224   2.838 -0.3840 -0.0001  0.1544
   74CHL1   H3' 6586   2.883   5.309   2.828 -1.6334 -0.5745  0.5108
   74CHL1    C4 6587   2.865   5.114   3.045 -0.5680 -0.1194  0.1058
   74CHL1   H4A 6588   2.755   5.131   3.037 -0.5818 -0.8636 -2.4066
   74CHL1   H4B 6589   2.875   5.018   2.990 -3.0555  0.2809 -1.1955
   74CHL1    C5 6590   2.899   5.113   3.186 -0.2382  0.3053  0.0131
   74CHL1    C6 6591   2.938   5.002   3.239  0.1197  0.0889  0.1274
   74CHL1    H6 6592   2.937   4.914   3.173  2.3633 -0.2100  0.4146
   74CHL1    C7 6593   2.948   4.980   3.385 -0.6334  0.3325 -0.0465
   74CHL1   H7A 6594   2.902   4.882   3.411 -1.1981  1.1053  2.1018
   74CHL1   H7B 6595   3.056   4.975   3.407 -0.8969  0.3984  1.3402
   74CHL1    C8 6596   2.888   5.087   3.469  0.2916 -1.0309 -0.8500
   74CHL1    H8 6597   2.778   5.086   3.482  0.2751  2.0512  0.0777
   74CHL1   C14 6598   2.945   5.083   3.613 -0.6272  0.1870  0.2278
   74CHL1   H14 6599   3.055   5.091   3.600 -0.6215 -0.2420 -0.0136
   74CHL1   C15 6600   2.940   4.940   3.682 -0.1906 -0.1266  0.0903
   74CHL1  H15A 6601   2.837   4.903   3.667 -0.0222 -0.1803 -0.9979
   74CHL1  H15B 6602   3.018   4.873   3.641  0.5993  0.0715  1.2092
   74CHL1   C16 6603   2.958   4.981   3.835  0.3869 -0.3341  0.0927
   74CHL1  H16A 6604   2.886   4.937   3.907 -1.1491  1.3116 -0.3699
   74CHL1  H16B 6605   3.058   4.942   3.866  0.6386 -0.3856 -0.7350
   74CHL1   C17 6606   2.976   5.132   3.837 -0.4081  0.1605  0.4327
   74CHL1   H17 6607   3.082   5.159   3.821 -0.6042  1.1447  0.7337
   74CHL1   C13 6608   2.906   5.191   3.713 -0.0202  0.0225 -0.0900
   74CHL1   C18 6609   2.754   5.188   3.743  0.3791 -0.3574 -0.0189
   74CHL1  H18A 6610   2.695   5.242   3.666  0.2395  0.1182  0.4177
   74CHL1  H18B 6611   2.712   5.086   3.757 -0.5676  0.0629  0.3381
   74CHL1  H18C 6612   2.744   5.231   3.845 -0.1075 -0.5444  0.0137
   74CHL1   C12 6613   2.960   5.324   3.647 -0.2157  0.8518  0.2680
   74CHL1  H12A 6614   2.949   5.409   3.717 -2.4185  2.0132 -1.3358
   74CHL1  H12B 6615   3.070   5.316   3.633 -0.3055  0.5566 -0.2801
   74CHL1   C11 6616   2.898   5.350   3.510 -0.5532 -0.1870 -0.6306
   74CHL1  H11A 6617   2.789   5.372   3.512 -0.5291  0.0423 -1.4463
   74CHL1  H11B 6618   2.939   5.440   3.459  0.5574  0.3657  1.1508
   74CHL1    C9 6619   2.928   5.229   3.411  0.0485  0.4193 -0.1584
   74CHL1    H9 6620   3.039   5.223   3.416 -0.0510 -3.0527  0.4800
   74CHL1   C10 6621   2.889   5.243   3.268  0.1374  0.3193 -0.7199
   74CHL1   C19 6622   2.740   5.290   3.270  0.8311  0.2674  0.6068
   74CHL1  H19A 6623   2.678   5.212   3.320  0.4093  0.9717  1.2001
   74CHL1  H19B 6624   2.729   5.392   3.312  1.9583  1.8523 -2.5745
   74CHL1  H19C 6625   2.697   5.295   3.168 -0.0142 -1.6018  0.8233
   74CHL1    C1 6626   2.983   5.347   3.194  0.0625 -0.3358 -0.4989
   74CHL1   H1A 6627   2.977   5.452   3.230 -0.1567 -1.2091  2.2206
   74CHL1   H1B 6628   3.092   5.323   3.200  0.0046 -0.4757  0.0793
   74CHL1    C2 6629   2.967   5.356   3.035  0.4193 -0.3327 -0.0713
   74CHL1   H2A 6630   3.049   5.418   2.993 -1.0044  1.3722 -0.5000
   74CHL1   H2B 6631   2.870   5.410   3.020  0.2597 -0.3286  0.9063
   74CHL1   C20 6632   2.953   5.196   3.975  0.1025 -0.2075  0.7223
   74CHL1   H20 6633   2.852   5.164   4.012  0.2091 -1.5600 -0.0735
   74CHL1   C21 6634   2.962   5.348   3.966  0.7607 -0.7713 -0.4023
   74CHL1  H21A 6635   2.938   5.382   4.069  0.2784 -1.0872 -0.4020
   74CHL1  H21B 6636   2.889   5.395   3.897  0.9885  0.5719  0.2384
   74CHL1  H21C 6637   3.065   5.377   3.938 -0.0442  0.8810 -1.8554
   74CHL1   C22 6638   3.051   5.141   4.080  0.8896 -0.2112 -0.2823
   74CHL1  H22A 6639   3.017   5.038   4.103 -2.4453  0.5469 -1.3360
   74CHL1  H22B 6640   3.157   5.132   4.048  0.7610 -1.0548 -0.5039
   74CHL1   C23 6641   3.058   5.201   4.222 -0.0825 -0.4394  0.2876
   74CHL1  H23A 6642   2.958   5.248   4.231  0.0429 -0.3786  1.6531
   74CHL1  H23B 6643   3.062   5.122   4.301  0.0155 -1.9160 -1.1326
   74CHL1   C24 6644   3.163   5.312   4.241  0.0907  1.3304 -0.2203
   74CHL1  H24A 6645   3.258   5.256   4.229  1.7400  3.0668  3.3521
   74CHL1  H24B 6646   3.142   5.393   4.168 -1.8625  2.0312  1.0352
   74CHL1   C25 6647   3.154   5.373   4.372  0.2003 -0.2641  0.3233
   74CHL1   H25 6648   3.047   5.405   4.369  0.1842 -0.2776  0.6581
   74CHL1   C26 6649   3.201   5.285   4.495  1.0147 -0.3037  0.6168
   74CHL1  H26A 6650   3.119   5.216   4.522  1.7147  0.4403  5.4768
   74CHL1  H26B 6651   3.298   5.234   4.473 -0.9992 -4.4661  0.2953
   74CHL1  H26C 6652   3.205   5.345   4.588  0.1373 -0.0234  0.4804
   74CHL1   C27 6653   3.234   5.505   4.384  0.2048 -0.1470  0.5530
   74CHL1  H27A 6654   3.196   5.575   4.307 -0.5971  0.2715  1.3194
   74CHL1  H27B 6655   3.218   5.542   4.487  0.7759 -1.1697  1.0286
   74CHL1  H27C 6656   3.343   5.486   4.393 -0.1512 -1.3533  4.2584
   75CHL1    C3 6657   2.732   3.411   3.397  0.1871 -0.1204  0.1074
   75CHL1    H3 6658   2.839   3.440   3.405 -0.3719  1.6219  2.0861
   75CHL1    O3 6659   2.687   3.438   3.262 -0.5024  0.1765 -0.9085
   75CHL1   H3' 6660   2.757   3.409   3.203  0.9286 -0.1415  0.8677
   75CHL1    C4 6661   2.704   3.265   3.442 -0.0008 -0.3083  0.3421
   75CHL1   H4A 6662   2.593   3.253   3.435  0.0934 -2.5293  1.5812
   75CHL1   H4B 6663   2.760   3.195   3.377  3.2077  0.1855  2.3720
   75CHL1    C5 6664   2.759   3.249   3.581 -0.4530 -0.4433 -0.9061
   75CHL1    C6 6665   2.862   3.165   3.606 -0.0927  1.1452  0.2860
   75CHL1    H6 6666   2.907   3.110   3.521 -0.4633  0.1670  0.7166
   75CHL1    C7 6667   2.916   3.131   3.738  0.2068  0.4800 -0.7293
   75CHL1   H7A 6668   2.899   3.021   3.746 -0.7562  0.5879 -1.1378
   75CHL1   H7B 6669   3.022   3.164   3.744  0.2017  0.3001  0.7882
   75CHL1    C8 6670   2.825   3.183   3.847  0.0614 -0.5516 -0.4579
   75CHL1    H8 6671   2.728   3.128   3.855  0.1194 -0.5689  0.2568
   75CHL1   C14 6672   2.898   3.182   3.981 -0.6362  0.4397  0.3718
   75CHL1   H14 6673   2.989   3.242   3.960  0.0329  0.1895  2.3080
   75CHL1   C15 6674   2.941   3.046   4.030  0.3927 -0.6790 -0.6270
   75CHL1  H15A 6675   2.857   2.974   4.017 -1.9463  1.6511  0.7345
   75CHL1  H15B 6676   3.031   2.994   3.990 -0.8428 -2.1843 -1.5527
   75CHL1   C16 6677   2.952   3.065   4.192  0.0444  0.2080  0.7077
   75CHL1  H16A 6678   2.879   2.999   4.243  0.2542  0.3761  1.2302
   75CHL1  H16B 6679   3.053   3.033   4.223  0.3530 -0.6865 -1.0799
   75CHL1   C17 6680   2.911   3.215   4.218 -0.3967  0.2807  0.0072
   75CHL1   H17 6681   3.006   3.272   4.211 -0.6359  0.7376  0.4675
   75CHL1   C13 6682   2.817   3.242   4.098  0.7202  0.9567  0.6175
   75CHL1   C18 6683   2.681   3.176   4.128 -0.5556  0.3278 -0.0267
   75CHL1  H18A 6684   2.625   3.227   4.210 -0.9685  1.1042 -0.7667
   75CHL1  H18B 6685   2.611   3.177   4.041  0.7030  1.0392 -1.0656
   75CHL1  H18C 6686   2.697   3.071   4.158 -2.6774 -0.3173 -0.9700
   75CHL1   C12 6687   2.798   3.390   4.068 -0.0691 -0.3870  0.6315
   75CHL1  H12A 6688   2.741   3.442   4.148 -3.0802 -1.3085 -0.7717
   75CHL1  H12B 6689   2.896   3.443   4.064 -1.4456  2.2709  0.4816
   75CHL1   C11 6690   2.715   3.408   3.935  0.2743 -0.6917  0.3301
   75CHL1  H11A 6691   2.611   3.372   3.950 -0.0635  1.1088  3.1644
   75CHL1  H11B 6692   2.702   3.517   3.915 -2.9940 -0.7080  1.7318
   75CHL1    C9 6693   2.781   3.329   3.817 -0.7298  0.4838 -0.8061
   75CHL1    H9 6694   2.875   3.385   3.795  0.8602 -0.5760  2.5724
   75CHL1   C10 6695   2.697   3.331   3.685  0.6894  0.2194 -0.3080
   75CHL1   C19 6696   2.550   3.278   3.715 -0.6101  0.0376  0.0910
   75CHL1  H19A 6697   2.564   3.184   3.772  2.9781  1.5175  1.9949
   75CHL1  H19B 6698   2.491   3.353   3.773  0.1191  0.9836 -0.3481
   75CHL1  H19C 6699   2.493   3.254   3.623 -1.0225 -0.7420  0.5467
   75CHL1    C1 6700   2.684   3.481   3.638 -0.2204  0.2096 -0.4653
   75CHL1   H1A 6701   2.601   3.529   3.695 -0.2410 -0.9496  0.5135
   75CHL1   H1B 6702   2.777   3.535   3.664 -0.1277 -0.0043 -0.3459
   75CHL1    C2 6703   2.655   3.513   3.487  0.1261 -0.2488  0.0595
   75CHL1   H2A 6704   2.679   3.620   3.465 -2.3092  0.5998  1.1705
   75CHL1   H2B 6705   2.547   3.494   3.467  0.0384  0.8334 -0.6099
   75CHL1   C20 6706   2.861   3.227   4.362  0.9135  0.0384  0.1500
   75CHL1   H20 6707   2.766   3.170   4.371  0.0628  1.3729 -0.1107
   75CHL1   C21 6708   2.830   3.373   4.385 -1.2645  0.6215  0.1873
   75CHL1  H21A 6709   2.732   3.392   4.338 -1.5288 -0.4355  0.2879
   75CHL1  H21B 6710   2.911   3.444   4.357 -1.3884  1.0026  0.7706
   75CHL1  H21C 6711   2.812   3.382   4.495  1.5510  1.9003  0.6555
   75CHL1   C22 6712   2.952   3.189   4.469 -0.6911  0.3611  0.1097
   75CHL1  H22A 6713   2.902   3.217   4.564 -0.1718  0.5988  0.3098
   75CHL1  H22B 6714   2.973   3.080   4.480  1.6232  0.5395 -1.7422
   75CHL1   C23 6715   3.093   3.257   4.466 -0.1578  0.1913  0.0202
   75CHL1  H23A 6716   3.155   3.208   4.387 -0.7087  2.2626 -1.7829
   75CHL1  H23B 6717   3.078   3.366   4.454 -3.2974 -0.2210 -0.4582
   75CHL1   C24 6718   3.157   3.241   4.607 -0.2132 -1.3645  0.2758
   75CHL1  H24A 6719   3.085   3.286   4.678 -1.2202 -3.0142  0.3638
   75CHL1  H24B 6720   3.170   3.132   4.627 -0.5133 -1.5107 -0.3217
   75CHL1   C25 6721   3.299   3.309   4.617  0.2214 -0.5681 -0.3878
   75CHL1   H25 6722   3.356   3.261   4.535  0.0348 -0.0976 -0.7939
   75CHL1   C26 6723   3.291   3.459   4.583  0.4293 -0.0056  0.2787
   75CHL1  H26A 6724   3.386   3.511   4.609  1.3652  0.9213 -4.1247
   75CHL1  H26B 6725   3.272   3.477   4.475  0.2349  0.6627  0.4226
   75CHL1  H26C 6726   3.207   3.500   4.642  0.3343  1.0425 -0.5567
   75CHL1   C27 6727   3.365   3.279   4.754 -0.6271 -0.4197 -0.1227
   75CHL1  H27A 6728   3.397   3.173   4.750  3.6559  0.6913 -0.5300
   75CHL1  H27B 6729   3.455   3.341   4.774 -1.0252  0.6280 -1.4362
   75CHL1  H27C 6730   3.299   3.308   4.838 -2.7702 -4.3438 -0.2012
   76CHL1    C3 6731   6.634   6.191   3.281  0.0006 -0.8084 -0.7195
   76CHL1    H3 6732   6.744   6.190   3.295 -0.1400  2.2425  1.6950
   76CHL1    O3 6733   6.607   6.171   3.141 -0.6335 -0.1569 -0.0126
   76CHL1   H3' 6734   6.596   6.262   3.112 -2.1028 -0.0568  0.7635
   76CHL1    C4 6735   6.564   6.076   3.362  0.3325 -0.5993 -0.3101
   76CHL1   H4A 6736   6.460   6.086   3.324 -0.2959 -0.1506  1.4221
   76CHL1   H4B 6737   6.611   5.981   3.328  0.6692  0.5770 -3.4065
   76CHL1    C5 6738   6.571   6.106   3.506  0.5586  0.3721  0.1122
   76CHL1    C6 6739   6.638   6.026   3.593  0.1929 -0.0449  0.3300
   76CHL1    H6 6740   6.664   5.929   3.549  1.5590  1.1521 -1.6862
   76CHL1    C7 6741   6.664   6.050   3.742  0.5835 -0.2035  1.0036
   76CHL1   H7A 6742   6.647   5.954   3.796  0.3781 -0.1366  1.0572
   76CHL1   H7B 6743   6.769   6.075   3.765  0.1133  0.7027  2.2607
   76CHL1    C8 6744   6.577   6.169   3.799  0.1053 -0.4194  0.1941
   76CHL1    H8 6745   6.473   6.132   3.812  0.6016 -1.8715  0.1903
   76CHL1   C14 6746   6.630   6.218   3.929 -0.4313 -0.2914  0.7346
   76CHL1   H14 6747   6.736   6.251   3.916  0.1596 -2.4680 -0.6333
   76CHL1   C15 6748   6.649   6.108   4.034  0.2591  0.0091 -0.8397
   76CHL1  H15A 6749   6.552   6.054   4.046  1.0166 -1.0576  1.0126
   76CHL1  H15B 6750   6.726   6.031   4.013 -0.6422 -1.3810  0.6514
   76CHL1   C16 6751   6.677   6.188   4.164 -0.0776 -0.2379 -0.3290
   76CHL1  H16A 6752   6.619   6.151   4.251 -2.6085 -0.0239 -1.8307
   76CHL1  H16B 6753   6.783   6.190   4.198 -0.3259 -3.3617  0.9581
   76CHL1   C17 6754   6.645   6.340   4.128  0.1706 -0.7805  0.0695
   76CHL1   H17 6755   6.743   6.383   4.099  1.0042 -2.3206  0.4913
   76CHL1   C13 6756   6.557   6.332   3.997 -0.4725 -0.1992 -0.2644
   76CHL1   C18 6757   6.410   6.292   4.038  0.7946 -0.4148 -0.4317
   76CHL1  H18A 6758   6.405   6.189   4.077 -0.7175 -0.0201  0.4667
   76CHL1  H18B 6759   6.374   6.367   4.111 -1.8389 -0.1738 -1.8419
   76CHL1  H18C 6760   6.338   6.305   3.954  2.7588 -0.4504 -2.2223
   76CHL1   C12 6761   6.553   6.448   3.897  0.3476 -1.2560 -0.4844
   76CHL1  H12A 6762   6.482   6.524   3.935 -1.2332 -1.7325 -2.3015
   76CHL1  H12B 6763   6.655   6.490   3.885 -0.8449  2.0369 -0.0082
   76CHL1   C11 6764   6.492   6.404   3.759  0.7812  0.0356 -0.2795
   76CHL1  H11A 6765   6.386   6.381   3.781  1.2998 -0.6531  1.7118
   76CHL1  H11B 6766   6.493   6.492   3.691  1.2706  0.7691  0.6560
   76CHL1    C9 6767   6.566   6.280   3.700  0.1498 -0.4349 -0.0489
   76CHL1    H9 6768   6.674   6.306   3.694  1.0324 -3.8998 -1.9523
   76CHL1   C10 6769   6.531   6.242   3.548  0.2660 -0.0358  0.1134
   76CHL1   C19 6770   6.371   6.251   3.547  1.2251  0.3679  0.0080
   76CHL1  H19A 6771   6.327   6.196   3.633  0.3089  1.2320  0.1125
   76CHL1  H19B 6772   6.334   6.353   3.570  0.3591  0.0431  0.1145
   76CHL1  H19C 6773   6.331   6.211   3.451 -1.1960  1.2012  0.5909
   76CHL1    C1 6774   6.584   6.353   3.457 -0.4925  0.4360 -0.4662
   76CHL1   H1A 6775   6.532   6.445   3.489 -1.7784 -1.2952  2.8378
   76CHL1   H1B 6776   6.692   6.363   3.479 -0.1939 -1.7313 -0.7188
   76CHL1    C2 6777   6.577   6.326   3.312 -0.1063  0.0825  0.2974
   76CHL1   H2A 6778   6.624   6.403   3.248  1.0781 -1.4448 -0.7589
   76CHL1   H2B 6779   6.474   6.318   3.272 -0.0538 -0.2394  0.2199
   76CHL1   C20 6780   6.586   6.439   4.237 -0.3259 -0.2414 -0.0465
   76CHL1   H20 6781   6.523   6.517   4.189 -0.5837 -0.4156  0.0087
   76CHL1   C21 6782   6.708   6.520   4.281 -0.1021  0.2215 -0.0383
   76CHL1  H21A 6783   6.740   6.604   4.215  2.6501  0.8128  1.8631
   76CHL1  H21B 6784   6.794   6.450   4.290 -0.6071 -0.8832 -2.8365
   76CHL1  H21C 6785   6.691   6.566   4.381 -0.1765  2.7219 -1.1073
   76CHL1   C22 6786   6.515   6.372   4.360 -0.4307 -0.2018  0.2849
   76CHL1  H22A 6787   6.442   6.299   4.319 -1.5853  0.5956  0.8602
   76CHL1  H22B 6788   6.582   6.317   4.429  0.8600  0.1320 -0.6494
   76CHL1   C23 6789   6.444   6.475   4.441  0.7780  0.1821 -0.4445
   76CHL1  H23A 6790   6.519   6.534   4.497  2.2907  0.5795 -2.7414
   76CHL1  H23B 6791   6.381   6.548   4.385  0.8589 -1.3010 -2.5721
   76CHL1   C24 6792   6.340   6.401   4.528 -0.6291  0.0567  0.3919
   76CHL1  H24A 6793   6.245   6.392   4.472 -1.1042 -0.2257  1.2219
   76CHL1  H24B 6794   6.369   6.297   4.553 -0.4698  0.4995  2.2166
   76CHL1   C25 6795   6.307   6.466   4.661 -0.7034 -0.0412  0.1722
   76CHL1   H25 6796   6.278   6.571   4.641 -1.2533 -0.1497  0.3726
   76CHL1   C26 6797   6.189   6.394   4.730 -0.5782 -0.3766  0.3827
   76CHL1  H26A 6798   6.172   6.444   4.827  3.5618  0.4094  0.9109
   76CHL1  H26B 6799   6.095   6.387   4.671  0.2482  0.7300 -1.1395
   76CHL1  H26C 6800   6.220   6.289   4.752 -1.7816 -0.8793 -0.2441
   76CHL1   C27 6801   6.424   6.457   4.751 -0.6006 -0.0990 -0.2462
   76CHL1  H27A 6802   6.396   6.460   4.859  1.8822 -0.1721  0.4603
   76CHL1  H27B 6803   6.469   6.356   4.745 -2.3695 -1.1010  1.8498
   76CHL1  H27C 6804   6.496   6.541   4.740 -0.0533 -0.4338  0.6482
   77SOPE     N 6805   5.346   1.759   7.078 -0.0698 -0.4527  0.2805
   77SOPE   HN1 6806   5.326   1.774   7.179 -1.0650 -1.6369  0.2928
   77SOPE   HN2 6807   5.347   1.658   7.055 -2.0574 -0.6754  0.9582
   77SOPE   HN3 6808   5.436   1.795   7.041  0.6763 -0.1166  2.2935
   77SOPE   C12 6809   5.240   1.842   7.011  0.1184  0.7413  0.7182
   77SOPE  H12A 6810   5.142   1.803   7.047 -0.2202  1.4564  0.5916
   77SOPE  H12B 6811   5.239   1.814   6.903 -0.3511  2.0869  0.3488
   77SOPE   C11 6812   5.254   1.993   7.039 -0.4200 -0.6412 -0.6089
   77SOPE  H11A 6813   5.246   2.005   7.149 -2.0991  2.8485 -0.9381
   77SOPE  H11B 6814   5.160   2.040   7.002 -0.5581  1.8116  2.4729
   77SOPE     P 6815   5.392   2.189   6.946  0.3999 -0.3888  0.2001
   77SOPE   O13 6816   5.504   2.200   6.847  0.1203  0.0135  0.3673
   77SOPE   O14 6817   5.401   2.273   7.067 -0.4146  0.4024 -0.2326
   77SOPE   O12 6818   5.375   2.043   6.981  0.1684  0.0933 -0.8637
   77SOPE   O11 6819   5.254   2.219   6.879 -0.1817  0.5533 -0.5821
   77SOPE    C1 6820   5.231   2.213   6.735 -0.3383  0.2069  0.2214
   77SOPE    HA 6821   5.290   2.134   6.684  1.8517  0.6142  1.9722
   77SOPE    HB 6822   5.264   2.310   6.693  0.0807  0.4933  1.1967
   77SOPE    C2 6823   5.085   2.189   6.697  0.1690  0.6236 -0.8991
   77SOPE    HS 6824   5.036   2.237   6.784 -0.1833 -0.2704 -0.5971
   77SOPE   O21 6825   5.076   2.042   6.700 -0.5305 -0.4961 -1.0725
   77SOPE   C21 6826   4.955   1.998   6.712  0.0576 -0.5660 -0.1533
   77SOPE   O22 6827   4.861   2.080   6.718 -0.5279  0.1908  0.1963
   77SOPE   C22 6828   4.958   1.852   6.736  0.7725  0.7476  0.4844
   77SOPE   H2R 6829   4.958   1.831   6.845  0.0728 -0.7619  0.2228
   77SOPE   H2S 6830   5.058   1.812   6.708  1.0871  1.3934  0.6578
   77SOPE    C3 6831   5.051   2.244   6.555  0.1315  0.3075  0.1265
   77SOPE    HX 6832   4.941   2.257   6.547  0.0870 -0.9021 -2.3655
   77SOPE    HY 6833   5.081   2.161   6.488  1.8485  0.7350  0.3144
   77SOPE   O31 6834   5.121   2.365   6.515  0.0180  0.0345 -0.0242
   77SOPE   C31 6835   5.059   2.483   6.556  0.6831  1.0801 -0.4582
   77SOPE   O32 6836   4.948   2.481   6.613 -0.1589  0.2963 -0.0983
   77SOPE   C32 6837   5.147   2.594   6.518  0.3088  0.2830 -0.2414
   77SOPE   H2X 6838   5.249   2.555   6.501  0.5265  1.5657 -2.1084
   77SOPE   H2Y 6839   5.147   2.671   6.598  1.2281 -0.0570  0.0894
   77SOPE   C23 6840   4.828   1.790   6.672  0.0390 -0.0999 -0.2416
   77SOPE   H3R 6841   4.748   1.832   6.736  1.7904  1.0472  1.2947
   77SOPE   H3S 6842   4.838   1.680   6.690  2.4747  0.1201  0.1153
   77SOPE   C24 6843   4.814   1.826   6.522  0.2751  0.5028 -0.3814
   77SOPE   H4R 6844   4.705   1.846   6.507  0.1624 -1.0297 -1.8209
   77SOPE   H4S 6845   4.878   1.909   6.484  2.1837 -1.1471 -0.9015
   77SOPE   C25 6846   4.853   1.708   6.424 -0.0664 -0.0877  0.3300
   77SOPE   H5R 6847   4.964   1.714   6.417 -0.0707 -1.4980 -1.6723
   77SOPE   H5S 6848   4.835   1.610   6.472  1.5227  0.2921  1.8158
   77SOPE   C26 6849   4.814   1.718   6.281 -0.4492  0.4439  0.4117
   77SOPE   H6R 6850   4.703   1.727   6.284 -0.3949  0.9186  1.5042
   77SOPE   H6S 6851   4.866   1.802   6.230 -0.5173 -1.0084 -2.1825
   77SOPE   C27 6852   4.844   1.586   6.200 -0.1239 -0.0720  0.2001
   77SOPE   H7R 6853   4.950   1.565   6.226 -0.0872  1.2008  1.1744
   77SOPE   H7S 6854   4.788   1.502   6.248  0.7755  0.0826  1.5360
   77SOPE   C28 6855   4.838   1.601   6.048  0.4034 -0.5448  0.0949
   77SOPE   H8R 6856   4.888   1.696   6.018 -0.6045 -0.2469 -0.7060
   77SOPE   H8S 6857   4.896   1.517   6.005 -1.0146 -1.4874 -0.0533
   77SOPE   C29 6858   4.692   1.602   6.002 -0.0058 -0.1897 -0.2391
   77SOPE   H91 6859   4.620   1.634   6.077  0.8989  2.0811 -0.2745
   77SOPE  C210 6860   4.650   1.570   5.875 -0.4100 -0.5941  0.0110
   77SOPE  H101 6861   4.548   1.603   5.854  0.2275  0.8211 -1.0419
   77SOPE  C211 6862   4.742   1.530   5.760  0.1206 -0.0764 -0.1900
   77SOPE  H11R 6863   4.815   1.451   5.784  0.9652  0.6105 -0.4396
   77SOPE  H11S 6864   4.802   1.622   5.739  0.2078  0.1921  1.1872
   77SOPE  C212 6865   4.670   1.489   5.625  0.0344  0.1159 -0.6950
   77SOPE  H12R 6866   4.606   1.572   5.589  0.2032  0.4936 -0.1350
   77SOPE  H12S 6867   4.618   1.392   5.638  0.0181  0.1634 -0.4004
   77SOPE  C213 6868   4.780   1.473   5.521 -0.0277 -0.3385  0.3282
   77SOPE  H13R 6869   4.841   1.384   5.547 -1.2779 -1.3376 -0.0697
   77SOPE  H13S 6870   4.851   1.559   5.527 -1.6504  1.1212 -0.3898
   77SOPE  C214 6871   4.713   1.463   5.377 -0.5510 -0.3996 -0.2401
   77SOPE  H14R 6872   4.641   1.547   5.369  0.8477  0.8628 -0.0107
   77SOPE  H14S 6873   4.656   1.368   5.381 -0.8170 -0.2692 -0.9289
   77SOPE  C215 6874   4.811   1.478   5.254  0.8198  0.9315 -0.5381
   77SOPE  H15R 6875   4.858   1.377   5.254 -1.8233 -0.4189  1.4355
   77SOPE  H15S 6876   4.886   1.559   5.253 -1.2563  2.9435 -0.5342
   77SOPE  C216 6877   4.725   1.485   5.132  0.1910 -0.8491  0.2930
   77SOPE  H16R 6878   4.690   1.589   5.117 -1.0936 -1.2765  0.1944
   77SOPE  H16S 6879   4.630   1.428   5.146  0.4233 -1.3636 -0.1725
   77SOPE  C217 6880   4.780   1.430   5.003 -0.1930  0.3024  0.5922
   77SOPE  H17R 6881   4.703   1.439   4.924 -0.4903  1.0642  0.9501
   77SOPE  H17S 6882   4.799   1.321   5.013 -0.3987  0.0064 -1.6999
   77SOPE  C218 6883   4.905   1.502   4.949  0.0845  0.4432 -0.0209
   77SOPE  H18R 6884   4.886   1.610   4.932 -3.5565  0.0849  0.8197
   77SOPE  H18S 6885   4.939   1.444   4.861  2.6959 -0.1271  1.2702
   77SOPE  H18T 6886   4.997   1.493   5.010 -0.1234 -1.0086  0.1064
   77SOPE   C33 6887   5.109   2.662   6.384  0.0716 -0.5513 -0.4391
   77SOPE   H3X 6888   5.143   2.767   6.377 -0.0463 -0.6044 -2.1364
   77SOPE   H3Y 6889   4.998   2.668   6.377 -0.0262 -0.4018  0.9324
   77SOPE   C34 6890   5.151   2.588   6.256 -0.9315 -0.4361 -1.3421
   77SOPE   H4X 6891   5.102   2.488   6.249 -1.2903 -0.5048  1.1619
   77SOPE   H4Y 6892   5.261   2.578   6.255 -0.6111  2.1472 -0.2025
   77SOPE   C35 6893   5.119   2.674   6.128  0.1372 -0.1919 -0.3655
   77SOPE   H5X 6894   5.211   2.734   6.109  0.2918 -0.3295 -0.0581
   77SOPE   H5Y 6895   5.022   2.728   6.134 -0.0394 -0.6574  1.8033
   77SOPE   C36 6896   5.115   2.572   6.017  0.3847 -0.0365  0.0476
   77SOPE   H6X 6897   5.035   2.496   6.031  1.1493 -1.4677 -2.7836
   77SOPE   H6Y 6898   5.210   2.516   6.019  0.2348 -0.3772 -1.5720
   77SOPE   C37 6899   5.082   2.644   5.887 -0.0883 -0.4366  0.0525
   77SOPE   H7X 6900   5.162   2.718   5.867 -1.6970  2.1243  2.3306
   77SOPE   H7Y 6901   4.980   2.688   5.896  0.4801  0.7485  0.9025
   77SOPE   C38 6902   5.079   2.542   5.769 -0.2310  0.4419 -0.4958
   77SOPE   H8X 6903   5.016   2.458   5.807 -2.5942  0.3361 -4.2092
   77SOPE   H8Y 6904   5.181   2.511   5.737 -0.9142  1.3582 -3.8986
   77SOPE   C39 6905   5.004   2.599   5.649 -0.3699  0.1101  0.6202
   77SOPE   H9X 6906   5.063   2.685   5.610 -0.4473  0.5388  1.4390
   77SOPE   H9Y 6907   4.906   2.640   5.681 -1.0522 -0.9862  0.0219
   77SOPE  C310 6908   4.987   2.485   5.544 -0.3299  0.4857  0.0884
   77SOPE  H10X 6909   4.937   2.395   5.585 -0.1848 -0.6770 -2.1662
   77SOPE  H10Y 6910   5.091   2.456   5.519 -0.5531 -2.0709  1.7874
   77SOPE  C311 6911   4.905   2.548   5.425  0.2499 -0.2953 -0.8278
   77SOPE  H11X 6912   4.964   2.640   5.405  1.1388 -0.9608 -1.3409
   77SOPE  H11Y 6913   4.801   2.562   5.461  1.2981  0.7311  2.0418
   77SOPE  C312 6914   4.908   2.482   5.289 -0.1038  0.1434  0.1123
   77SOPE  H12X 6915   5.008   2.476   5.242 -0.0888 -1.4681  0.2804
   77SOPE  H12Y 6916   4.836   2.539   5.226 -1.1985 -0.8269  0.4541
   77SOPE  C313 6917   4.857   2.336   5.284 -0.3335 -1.1732  0.5159
   77SOPE  H13X 6918   4.748   2.338   5.305 -0.2237 -0.9992  1.0968
   77SOPE  H13Y 6919   4.920   2.294   5.366 -0.5565  0.2989  1.4805
   77SOPE  C314 6920   4.892   2.268   5.158  0.6723  0.4889  0.4607
   77SOPE  H14X 6921   4.916   2.161   5.178  0.6312  0.7004  1.7344
   77SOPE  H14Y 6922   4.991   2.304   5.122  0.6552  0.2712  0.1903
   77SOPE  C315 6923   4.778   2.297   5.056  0.1408 -0.1316  0.0627
   77SOPE  H15X 6924   4.752   2.405   5.056  0.5955 -0.0179  0.3242
   77SOPE  H15Y 6925   4.684   2.253   5.096  0.0580 -1.4387 -1.4890
   77SOPE  C316 6926   4.807   2.245   4.920  0.9045 -0.1914  0.0265
   77SOPE  H16X 6927   4.835   2.137   4.915  0.0433 -0.4975  1.4300
   77SOPE  H16Y 6928   4.893   2.291   4.866  1.4276 -1.2904 -0.1224
   77SOPE  C317 6929   4.694   2.278   4.822 -0.0023  0.4160  0.3095
   77SOPE  H17X 6930   4.683   2.388   4.826  0.1691  0.3994  2.0259
   77SOPE  H17Y 6931   4.601   2.222   4.847  0.0599  0.0270 -0.3175
   77SOPE  C318 6932   4.740   2.223   4.686  0.2138  0.1889  0.6217
   77SOPE  H18X 6933   4.834   2.271   4.649  0.6052 -1.1024 -0.1087
   77SOPE  H18Y 6934   4.664   2.252   4.612 -0.3296  1.1213  1.5152
   77SOPE  H18Z 6935   4.740   2.112   4.690 -4.1041 -0.0843 -1.5623
   78SOPE     N 6936   4.287   0.652   6.939  0.2782  0.7726  0.1879
   78SOPE   HN1 6937   4.227   0.723   6.985 -0.7290 -0.0133  0.1357
   78SOPE   HN2 6938   4.347   0.700   6.869  2.0521  0.1212  1.2269
   78SOPE   HN3 6939   4.219   0.592   6.886 -1.9428 -0.0248  3.6328
   78SOPE   C12 6940   4.362   0.561   7.040 -0.5248  0.3855 -0.4692
   78SOPE  H12A 6941   4.423   0.622   7.110 -0.1108 -0.9422  0.3537
   78SOPE  H12B 6942   4.424   0.492   6.978 -0.2451  0.7938 -0.6519
   78SOPE   C11 6943   4.273   0.478   7.127  0.0278 -0.6196 -0.3115
   78SOPE  H11A 6944   4.221   0.410   7.057 -0.5008  0.9091 -1.4604
   78SOPE  H11B 6945   4.192   0.537   7.174  2.8170  2.6751  0.7900
   78SOPE     P 6946   4.361   0.246   7.246  0.1219  0.1701  0.3780
   78SOPE   O13 6947   4.224   0.189   7.216  0.5097 -0.4452  0.0102
   78SOPE   O14 6948   4.419   0.213   7.380 -0.3131  0.5294  0.2294
   78SOPE   O12 6949   4.348   0.407   7.234 -0.3853  0.3463 -0.4932
   78SOPE   O11 6950   4.461   0.194   7.133 -0.0945  0.7871  0.3462
   78SOPE    C1 6951   4.596   0.237   7.122 -0.0401  0.6477  0.1553
   78SOPE    HA 6952   4.637   0.285   7.213 -1.5481  1.3786  0.4878
   78SOPE    HB 6953   4.612   0.321   7.051  2.4861  0.3039  0.2191
   78SOPE    C2 6954   4.688   0.116   7.112 -0.1386  0.1666 -1.0678
   78SOPE    HS 6955   4.662   0.059   7.203 -3.1308  2.9914  0.0603
   78SOPE   O21 6956   4.821   0.157   7.096 -0.1527 -0.1938 -0.4865
   78SOPE   C21 6957   4.926   0.089   7.145 -0.6736  0.5292  0.2311
   78SOPE   O22 6958   4.916  -0.020   7.207 -0.7912 -1.0211  0.3891
   78SOPE   C22 6959   5.062   0.164   7.120 -0.1890  0.4450  0.4488
   78SOPE   H2R 6960   5.128   0.164   7.209  0.0208  0.2485  0.2970
   78SOPE   H2S 6961   5.038   0.269   7.092 -0.8025 -0.2867 -2.0676
   78SOPE    C3 6962   4.646   0.019   7.000  1.2362 -0.5068  0.0301
   78SOPE    HX 6963   4.648   0.066   6.899 -0.2267 -0.0450  0.1912
   78SOPE    HY 6964   4.539  -0.007   7.012  0.8346  1.4778  1.3059
   78SOPE   O31 6965   4.716  -0.101   6.996 -0.2692  0.3554  0.1159
   78SOPE   C31 6966   4.821  -0.113   6.907  0.0497 -0.3834 -0.3361
   78SOPE   O32 6967   4.851  -0.023   6.830 -0.1269  0.4304 -0.4393
   78SOPE   C32 6968   4.870  -0.259   6.915  0.4724 -0.6814  0.5895
   78SOPE   H2X 6969   4.783  -0.318   6.880  0.5962 -0.3748 -0.2627
   78SOPE   H2Y 6970   4.879  -0.276   7.025 -1.1469  1.8966  1.2073
   78SOPE   C23 6971   5.138   0.087   7.010  0.1524 -0.1746 -0.4973
   78SOPE   H3R 6972   5.068   0.092   6.923 -0.9258 -1.6637  0.2387
   78SOPE   H3S 6973   5.147  -0.022   7.032 -0.4899  0.1799  1.7346
   78SOPE   C24 6974   5.269   0.154   6.969 -0.3321  0.4298 -0.0725
   78SOPE   H4R 6975   5.233   0.250   6.926  0.9726  0.5092 -1.0882
   78SOPE   H4S 6976   5.343   0.170   7.050  1.1340 -0.3633 -1.1808
   78SOPE   C25 6977   5.350   0.073   6.870 -0.0877 -0.0281 -0.3332
   78SOPE   H5R 6978   5.434   0.139   6.840  0.6939 -0.2341  1.2505
   78SOPE   H5S 6979   5.389  -0.020   6.917 -0.3979 -0.2147 -0.4464
   78SOPE   C26 6980   5.265   0.034   6.745  0.2883  0.2161 -0.2481
   78SOPE   H6R 6981   5.166  -0.015   6.757  0.6088 -0.2649  0.5211
   78SOPE   H6S 6982   5.238   0.127   6.691  0.2535 -0.1370 -0.8615
   78SOPE   C27 6983   5.344  -0.054   6.646 -0.3095  0.1668  0.2030
   78SOPE   H7R 6984   5.451  -0.025   6.650  0.1269 -1.4554  1.2806
   78SOPE   H7S 6985   5.345  -0.156   6.691  0.9386 -0.4086 -1.0527
   78SOPE   C28 6986   5.297  -0.049   6.499 -0.1664 -0.2853  0.2636
   78SOPE   H8R 6987   5.271   0.054   6.470 -1.0777 -0.2835  1.0368
   78SOPE   H8S 6988   5.385  -0.092   6.446  1.3929  1.4946  1.3043
   78SOPE   C29 6989   5.183  -0.142   6.498  0.2631 -0.2775 -0.5056
   78SOPE   H91 6990   5.089  -0.103   6.540  1.8445  0.0195  3.1765
   78SOPE  C210 6991   5.186  -0.268   6.453 -0.0640  1.0735  0.0042
   78SOPE  H101 6992   5.099  -0.330   6.481 -0.4401  1.0363 -1.1796
   78SOPE  C211 6993   5.305  -0.341   6.391 -0.6996 -0.2754  0.3170
   78SOPE  H11R 6994   5.321  -0.442   6.435  2.0138  0.1437  0.4525
   78SOPE  H11S 6995   5.402  -0.288   6.404 -0.6261  0.4662 -2.4390
   78SOPE  C212 6996   5.287  -0.355   6.235 -0.4305  0.1760 -0.1579
   78SOPE  H12R 6997   5.184  -0.390   6.214 -0.4116 -2.0847  2.8687
   78SOPE  H12S 6998   5.361  -0.413   6.178  2.7134  2.0217  1.7226
   78SOPE  C213 6999   5.299  -0.218   6.160 -0.2558 -0.5804  0.0184
   78SOPE  H13R 7000   5.351  -0.144   6.225  1.1084 -0.3251 -1.3116
   78SOPE  H13S 7001   5.199  -0.172   6.152  0.3115  0.9209  1.1026
   78SOPE  C214 7002   5.383  -0.226   6.029 -0.1005  0.5160 -0.0184
   78SOPE  H14R 7003   5.477  -0.283   6.044  1.6760  3.6296  1.7057
   78SOPE  H14S 7004   5.406  -0.121   6.001  1.2698 -0.2753 -2.1344
   78SOPE  C215 7005   5.296  -0.299   5.925 -0.2571  0.3523 -0.5641
   78SOPE  H15R 7006   5.221  -0.221   5.899  1.1174  2.0833  0.3504
   78SOPE  H15S 7007   5.254  -0.390   5.972  1.0869  0.3008  0.6306
   78SOPE  C216 7008   5.370  -0.344   5.800 -0.6396 -0.2173  0.2804
   78SOPE  H16R 7009   5.326  -0.426   5.739  0.8735  0.4115 -1.7848
   78SOPE  H16S 7010   5.465  -0.391   5.835 -0.1627  2.4849  3.0145
   78SOPE  C217 7011   5.404  -0.229   5.705  0.3319  0.1451 -0.6226
   78SOPE  H17R 7012   5.466  -0.162   5.769  1.3037 -0.4275 -0.9385
   78SOPE  H17S 7013   5.311  -0.178   5.672  0.8120 -0.2968 -2.7913
   78SOPE  C218 7014   5.463  -0.282   5.574 -0.3474 -0.5050 -0.5948
   78SOPE  H18R 7015   5.383  -0.331   5.514 -1.2204  0.9859 -0.6915
   78SOPE  H18S 7016   5.556  -0.339   5.593  0.7225  1.1117 -0.8251
   78SOPE  H18T 7017   5.497  -0.194   5.516 -2.2339  0.6997  0.0418
   78SOPE   C33 7018   5.004  -0.278   6.835  0.4717 -0.0383  0.2032
   78SOPE   H3X 7019   5.087  -0.221   6.883  0.3132  0.6247 -0.2948
   78SOPE   H3Y 7020   4.990  -0.266   6.725  0.4185 -2.1014 -0.0670
   78SOPE   C34 7021   5.045  -0.425   6.839  0.4106 -0.6584  0.1985
   78SOPE   H4X 7022   4.969  -0.488   6.789  1.4265 -0.3857 -1.7561
   78SOPE   H4Y 7023   5.050  -0.445   6.949 -0.2671  0.2613  0.4118
   78SOPE   C35 7024   5.171  -0.452   6.765  0.4610  0.1385 -0.1714
   78SOPE   H5X 7025   5.259  -0.408   6.816  1.0132 -0.5780 -0.4816
   78SOPE   H5Y 7026   5.148  -0.409   6.665  2.5722 -1.2337 -1.3238
   78SOPE   C36 7027   5.195  -0.606   6.756  0.7561 -1.0037  0.5081
   78SOPE   H6X 7028   5.094  -0.640   6.724  0.7399  0.1300 -0.7289
   78SOPE   H6Y 7029   5.216  -0.643   6.858 -0.4256 -1.8253  0.4869
   78SOPE   C37 7030   5.294  -0.646   6.648 -0.4293  0.1669  0.5651
   78SOPE   H7X 7031   5.265  -0.609   6.547 -0.9670 -3.2819 -0.6553
   78SOPE   H7Y 7032   5.279  -0.755   6.641 -0.1523  0.1499  0.1836
   78SOPE   C38 7033   5.448  -0.630   6.686 -0.2173 -0.0967  0.2204
   78SOPE   H8X 7034   5.465  -0.694   6.776 -0.2524 -0.2267  0.1354
   78SOPE   H8Y 7035   5.452  -0.521   6.707 -1.1820  0.0065 -0.0818
   78SOPE   C39 7036   5.549  -0.671   6.576  0.1004  0.2719 -0.6455
   78SOPE   H9X 7037   5.653  -0.656   6.613  0.4882 -1.6840 -0.8400
   78SOPE   H9Y 7038   5.542  -0.613   6.481  2.4686 -1.4143 -1.9696
   78SOPE  C310 7039   5.554  -0.823   6.553  0.5891 -0.7121  0.0283
   78SOPE  H10X 7040   5.474  -0.857   6.484  0.8634 -0.2874 -0.5194
   78SOPE  H10Y 7041   5.534  -0.862   6.655  2.2376  1.8094  1.4291
   78SOPE  C311 7042   5.688  -0.877   6.505 -0.3098  0.4180 -0.6582
   78SOPE  H11X 7043   5.739  -0.912   6.597  0.1304  0.7465 -0.7741
   78SOPE  H11Y 7044   5.746  -0.794   6.459 -1.3658  0.3774 -2.1487
   78SOPE  C312 7045   5.668  -0.999   6.404 -0.1758 -0.5299  0.4399
   78SOPE  H12X 7046   5.589  -1.056   6.457  0.1687 -0.9500  0.5125
   78SOPE  H12Y 7047   5.764  -1.055   6.409 -1.5974 -3.1046  1.0476
   78SOPE  C313 7048   5.644  -0.961   6.262 -0.5541 -0.4695  0.5619
   78SOPE  H13X 7049   5.732  -0.904   6.222 -0.1583 -1.1203  0.4993
   78SOPE  H13Y 7050   5.561  -0.888   6.253  0.1220  0.1921 -0.6765
   78SOPE  C314 7051   5.636  -1.083   6.161 -0.0610 -0.4654 -0.7342
   78SOPE  H14X 7052   5.557  -1.150   6.200 -1.2550  2.3391  2.0457
   78SOPE  H14Y 7053   5.736  -1.129   6.176  0.3240  0.8087  0.8912
   78SOPE  C315 7054   5.601  -1.053   6.009 -0.7363  0.1397 -0.9116
   78SOPE  H15X 7055   5.659  -0.970   5.964 -2.2208  0.6497 -1.9546
   78SOPE  H15Y 7056   5.495  -1.021   6.005 -0.7923  0.4990  1.6503
   78SOPE  C316 7057   5.603  -1.176   5.918  0.6192  0.1965 -0.1500
   78SOPE  H16X 7058   5.518  -1.238   5.955  0.9946  0.4156  1.1581
   78SOPE  H16Y 7059   5.699  -1.231   5.928  0.6268 -0.2027 -2.0714
   78SOPE  C317 7060   5.581  -1.141   5.767 -0.8637 -0.2183 -0.2384
   78SOPE  H17X 7061   5.478  -1.100   5.766 -1.6247 -1.9700  1.2268
   78SOPE  H17Y 7062   5.585  -1.234   5.707 -0.8167 -0.9203  0.8228
   78SOPE  C318 7063   5.685  -1.036   5.720 -0.0082 -0.1688 -0.0739
   78SOPE  H18X 7064   5.680  -1.029   5.609  0.8322 -1.2887 -0.1955
   78SOPE  H18Y 7065   5.783  -1.074   5.755 -0.2790  0.1456  1.0550
   78SOPE  H18Z 7066   5.662  -0.935   5.761  1.3729  0.0283  0.2859
   79SOPE     N 7067   0.317   5.170   7.368 -0.1788 -0.6228  0.4471
   79SOPE   HN1 7068   0.411   5.200   7.334 -0.8866  1.1133 -0.0636
   79SOPE   HN2 7069   0.259   5.255   7.358  1.4667  0.4764 -0.2822
   79SOPE   HN3 7070   0.317   5.146   7.469  0.0337  1.2674  0.9257
   79SOPE   C12 7071   0.254   5.062   7.274 -0.1967 -0.2361  0.0421
   79SOPE  H12A 7072   0.182   5.014   7.343 -0.7115  0.9176  0.3206
   79SOPE  H12B 7073   0.336   4.997   7.236 -1.1587  0.5133 -3.7587
   79SOPE   C11 7074   0.187   5.134   7.156  0.4998 -0.2602  0.1539
   79SOPE  H11A 7075   0.137   5.054   7.097  1.6118 -0.1517 -0.9756
   79SOPE  H11B 7076   0.272   5.178   7.098  0.6760  0.1229  0.6975
   79SOPE     P 7077  -0.047   5.193   7.254  0.1827 -0.4560 -0.3938
   79SOPE   O13 7078  -0.124   5.323   7.261  0.1858  0.2125 -0.2622
   79SOPE   O14 7079  -0.038   5.114   7.378 -0.7786  0.1466  0.1499
   79SOPE   O12 7080   0.096   5.234   7.201 -0.0839 -0.9089 -0.2493
   79SOPE   O11 7081  -0.107   5.099   7.134 -0.3133 -0.3511  0.1709
   79SOPE    C1 7082  -0.156   5.167   7.019  0.2369  0.1668 -0.7927
   79SOPE    HA 7083  -0.085   5.249   6.993  0.3591  0.3065 -0.0481
   79SOPE    HB 7084  -0.258   5.205   7.041  1.3676  1.9104  1.9472
   79SOPE    C2 7085  -0.164   5.079   6.891  0.3246  0.8311  0.3399
   79SOPE    HS 7086  -0.256   5.017   6.897  0.6921  0.3594  1.3482
   79SOPE   O21 7087  -0.038   5.001   6.884  0.4684 -0.0183  0.5500
   79SOPE   C21 7088  -0.044   4.887   6.824 -0.3051  0.3817 -0.3720
   79SOPE   O22 7089  -0.144   4.829   6.783  0.2717  0.0882 -0.2092
   79SOPE   C22 7090   0.095   4.832   6.805  0.2711 -0.6745  1.3268
   79SOPE   H2R 7091   0.150   4.839   6.901 -0.7141  0.3920  1.8378
   79SOPE   H2S 7092   0.129   4.905   6.728 -3.5011 -1.3345 -1.2543
   79SOPE    C3 7093  -0.176   5.164   6.761 -0.5044  0.0528  0.2793
   79SOPE    HX 7094  -0.076   5.207   6.736 -0.5356  0.5609  1.0088
   79SOPE    HY 7095  -0.249   5.245   6.781  1.1448  1.5188  0.6777
   79SOPE   O31 7096  -0.239   5.090   6.656 -0.4121 -0.3807  0.1598
   79SOPE   C31 7097  -0.150   5.067   6.552  0.1871 -0.3744 -0.9514
   79SOPE   O32 7098  -0.042   5.117   6.549 -0.0241  0.3889  0.3479
   79SOPE   C32 7099  -0.209   4.967   6.456 -0.5348 -0.2473  0.2623
   79SOPE   H2X 7100  -0.311   4.998   6.425 -1.0825 -0.3458  1.8329
   79SOPE   H2Y 7101  -0.222   4.875   6.518 -1.5317  0.4907  1.2083
   79SOPE   C23 7102   0.105   4.693   6.740 -0.6332 -0.7382  0.5111
   79SOPE   H3R 7103   0.046   4.616   6.795 -3.8458 -0.3421 -2.1015
   79SOPE   H3S 7104   0.211   4.658   6.739 -0.6179 -0.6990  0.7016
   79SOPE   C24 7105   0.059   4.705   6.591 -0.4905  0.3878  0.4497
   79SOPE   H4R 7106  -0.050   4.726   6.584 -0.5483 -0.1869 -0.5300
   79SOPE   H4S 7107   0.122   4.778   6.535 -0.6652 -2.2599 -3.6871
   79SOPE   C25 7108   0.078   4.570   6.514 -0.0535 -0.3729 -0.4184
   79SOPE   H5R 7109   0.184   4.542   6.531 -0.4101 -2.5562 -1.4320
   79SOPE   H5S 7110   0.013   4.493   6.561  1.2457 -0.6024  1.0860
   79SOPE   C26 7111   0.053   4.575   6.364 -0.1611  0.5953 -0.2120
   79SOPE   H6R 7112  -0.054   4.600   6.348 -0.3646 -0.0942  0.0042
   79SOPE   H6S 7113   0.116   4.658   6.326 -0.2261  0.4168 -0.7205
   79SOPE   C27 7114   0.087   4.429   6.320 -0.4911  0.8526 -0.1727
   79SOPE   H7R 7115   0.194   4.418   6.290 -0.7139 -0.0733 -0.6602
   79SOPE   H7S 7116   0.065   4.353   6.398  3.6625 -2.2267 -1.6397
   79SOPE   C28 7117   0.012   4.392   6.193  0.2981  0.8165  0.0965
   79SOPE   H8R 7118   0.057   4.294   6.166  0.5162  1.1742 -0.8445
   79SOPE   H8S 7119  -0.095   4.366   6.210  0.7370 -0.8987  0.4741
   79SOPE   C29 7120   0.029   4.495   6.083 -0.6053  0.8380 -0.1049
   79SOPE   H91 7121   0.032   4.599   6.117  1.6562  0.7796  0.0399
   79SOPE  C210 7122   0.051   4.465   5.952 -0.5979 -0.1818 -0.3950
   79SOPE  H101 7123   0.061   4.552   5.885  2.2077 -1.1868 -1.4375
   79SOPE  C211 7124   0.036   4.323   5.895  0.1232  0.5208  0.3978
   79SOPE  H11R 7125  -0.066   4.287   5.918  0.5342 -0.2787  1.0016
   79SOPE  H11S 7126   0.107   4.257   5.950 -0.7034 -0.2549  0.5574
   79SOPE  C212 7127   0.082   4.310   5.749 -0.1578  0.4384 -0.4223
   79SOPE  H12R 7128   0.102   4.203   5.726  2.3723  0.5884  0.7810
   79SOPE  H12S 7129   0.177   4.365   5.736 -0.4987  1.3249  0.6027
   79SOPE  C213 7130  -0.041   4.366   5.660 -0.4655 -0.0194  0.6955
   79SOPE  H13R 7131  -0.052   4.477   5.657 -1.0985 -0.0921 -1.6224
   79SOPE  H13S 7132  -0.135   4.323   5.701  0.7341 -2.5884  0.9257
   79SOPE  C214 7133  -0.022   4.327   5.516  0.0227 -0.2597  0.1365
   79SOPE  H14R 7134  -0.051   4.221   5.503 -4.6035  0.5360  1.9846
   79SOPE  H14S 7135   0.085   4.344   5.492  0.2223 -1.2068  0.3356
   79SOPE  C215 7136  -0.115   4.412   5.430 -0.6960  0.0588  0.1846
   79SOPE  H15R 7137  -0.089   4.518   5.454  2.9969 -0.9622  1.3785
   79SOPE  H15S 7138  -0.219   4.385   5.458 -0.5276  1.2654  2.2233
   79SOPE  C216 7139  -0.114   4.387   5.282  0.9887 -1.4529  0.0232
   79SOPE  H16R 7140  -0.202   4.444   5.245  0.4774 -1.2903  1.4285
   79SOPE  H16S 7141  -0.132   4.280   5.256  0.9395 -1.0268 -1.8711
   79SOPE  C217 7142   0.007   4.440   5.202 -0.2342 -0.9021 -0.0610
   79SOPE  H17R 7143   0.024   4.546   5.232 -1.5725 -1.3007  2.2786
   79SOPE  H17S 7144  -0.030   4.434   5.098  1.8994  0.5838 -0.9923
   79SOPE  C218 7145   0.133   4.351   5.210  0.0820  0.3521 -0.3195
   79SOPE  H18R 7146   0.110   4.244   5.195  2.4298 -0.3666  0.7494
   79SOPE  H18S 7147   0.186   4.370   5.305 -0.4214 -0.2202  0.0814
   79SOPE  H18T 7148   0.199   4.380   5.125 -0.1569  0.3897 -0.4942
   79SOPE   C33 7149  -0.116   4.939   6.333  0.1161  0.2220 -0.9001
   79SOPE   H3X 7150  -0.038   4.863   6.350  0.4697  0.7138 -0.2953
   79SOPE   H3Y 7151  -0.058   5.030   6.306  0.1212  0.6115  0.3403
   79SOPE   C34 7152  -0.183   4.898   6.206 -0.0090 -0.5882  0.1117
   79SOPE   H4X 7153  -0.258   4.976   6.181  2.1117  1.0500 -1.5190
   79SOPE   H4Y 7154  -0.235   4.801   6.221 -0.0685 -1.4115 -4.2598
   79SOPE   C35 7155  -0.097   4.915   6.072 -0.0696 -0.2918  0.5202
   79SOPE   H5X 7156  -0.014   4.842   6.073  1.0850  0.9475 -0.7070
   79SOPE   H5Y 7157  -0.050   5.016   6.070  0.2061 -0.4001  1.2448
   79SOPE   C36 7158  -0.187   4.877   5.957 -0.4098  0.5042  0.6799
   79SOPE   H6X 7159  -0.268   4.948   5.933  0.7329  1.1889 -1.5019
   79SOPE   H6Y 7160  -0.245   4.785   5.980 -1.4982  0.9968 -0.0465
   79SOPE   C37 7161  -0.095   4.862   5.835  0.0068 -0.3951 -0.5332
   79SOPE   H7X 7162  -0.032   4.771   5.840  0.4025 -0.0796  0.3775
   79SOPE   H7Y 7163  -0.031   4.952   5.833  0.2767 -0.5546  0.4153
   79SOPE   C38 7164  -0.171   4.858   5.698 -0.1219 -0.5755 -0.4815
   79SOPE   H8X 7165  -0.225   4.955   5.693 -0.8793 -0.7443  2.5414
   79SOPE   H8Y 7166  -0.245   4.776   5.696 -0.2203 -0.6530  2.4440
   79SOPE   C39 7167  -0.067   4.839   5.583 -0.0473 -0.0356  0.3419
   79SOPE   H9X 7168  -0.011   4.748   5.613 -2.6872 -1.2216  2.0428
   79SOPE   H9Y 7169   0.012   4.915   5.570  1.0515 -1.3387 -1.0464
   79SOPE  C310 7170  -0.144   4.795   5.451  0.1048  0.8271  0.2204
   79SOPE  H10X 7171  -0.191   4.697   5.473 -0.9470  0.8649 -1.6534
   79SOPE  H10Y 7172  -0.076   4.782   5.364  0.4349  1.0807  0.4379
   79SOPE  C311 7173  -0.259   4.889   5.410 -0.7383  0.3865  1.1543
   79SOPE  H11X 7174  -0.235   4.996   5.427 -1.8381  0.9615 -0.6869
   79SOPE  H11Y 7175  -0.351   4.862   5.467 -1.6976  1.2382  0.0613
   79SOPE  C312 7176  -0.290   4.878   5.257  0.6119  0.1075  0.2819
   79SOPE  H12X 7177  -0.216   4.928   5.192  0.4497 -0.7737 -0.6062
   79SOPE  H12Y 7178  -0.385   4.932   5.236  1.5976  1.0605 -2.0171
   79SOPE  C313 7179  -0.308   4.732   5.219 -0.8857  0.1431 -0.0873
   79SOPE  H13X 7180  -0.372   4.686   5.298 -0.9634  0.5342  0.0800
   79SOPE  H13Y 7181  -0.212   4.676   5.227 -1.3417 -0.9275 -1.6819
   79SOPE  C314 7182  -0.350   4.705   5.071  0.2047  0.2109 -0.1861
   79SOPE  H14X 7183  -0.454   4.744   5.068 -0.1580 -0.7248 -0.0599
   79SOPE  H14Y 7184  -0.362   4.595   5.070  2.8944 -0.2068  1.8460
   79SOPE  C315 7185  -0.255   4.745   4.961 -0.8956  0.3266  0.9512
   79SOPE  H15X 7186  -0.218   4.845   4.992 -0.0186  0.3986 -0.2482
   79SOPE  H15Y 7187  -0.308   4.756   4.864 -0.2969 -1.3144  0.3998
   79SOPE  C316 7188  -0.131   4.651   4.945  0.0064  0.1064  0.0762
   79SOPE  H16X 7189  -0.152   4.545   4.970  2.4293 -0.1084  1.4316
   79SOPE  H16Y 7190  -0.055   4.683   5.019  0.8714  1.0312 -1.1651
   79SOPE  C317 7191  -0.044   4.666   4.816  0.0279 -0.1325  0.2737
   79SOPE  H17X 7192  -0.005   4.770   4.808  1.9146 -0.8645 -0.7602
   79SOPE  H17Y 7193  -0.106   4.663   4.723  0.4556 -2.5792 -0.0077
   79SOPE  C318 7194   0.069   4.567   4.797 -0.0648 -0.2473  0.6867
   79SOPE  H18X 7195   0.023   4.466   4.794  1.2604 -0.8601 -1.5993
   79SOPE  H18Y 7196   0.140   4.585   4.880  0.3419 -0.0829  0.3079
   79SOPE  H18Z 7197   0.103   4.587   4.693 -2.1163 -0.0315  0.0214
   80SOPE     N 7198   5.076   0.617   7.327  0.3466  0.1141  0.5422
   80SOPE   HN1 7199   5.008   0.690   7.358 -2.9581 -2.4771  0.0138
   80SOPE   HN2 7200   5.122   0.567   7.406  1.8583  1.0261  0.2687
   80SOPE   HN3 7201   5.156   0.658   7.276  0.3897 -0.6804 -0.0556
   80SOPE   C12 7202   5.010   0.533   7.225  0.7956 -0.0701  0.5792
   80SOPE  H12A 7203   4.939   0.482   7.294 -1.4973 -0.2686 -1.7947
   80SOPE  H12B 7204   5.073   0.456   7.175 -0.2420 -1.9013  1.9381
   80SOPE   C11 7205   4.938   0.620   7.125  0.8290  1.0789  0.2150
   80SOPE  H11A 7206   4.870   0.552   7.069 -1.5092  1.5315  2.3140
   80SOPE  H11B 7207   5.013   0.655   7.051  2.0776 -0.1002  0.8742
   80SOPE     P 7208   4.703   0.724   7.187 -0.0836 -0.0702 -0.0976
   80SOPE   O13 7209   4.651   0.861   7.227 -0.4606 -0.0531 -0.0337
   80SOPE   O14 7210   4.661   0.598   7.253 -0.2826 -0.6244 -0.6672
   80SOPE   O12 7211   4.863   0.731   7.186 -0.0789  0.2188 -0.2342
   80SOPE   O11 7212   4.673   0.701   7.033  0.0066 -0.3432  0.5745
   80SOPE    C1 7213   4.739   0.785   6.934  0.0107 -0.2087 -0.0175
   80SOPE    HA 7214   4.840   0.820   6.963  0.3607 -1.7786  0.7665
   80SOPE    HB 7215   4.675   0.874   6.920  0.8259  0.1869 -1.5097
   80SOPE    C2 7216   4.759   0.717   6.796  0.4389 -0.4969 -1.3352
   80SOPE    HS 7217   4.657   0.682   6.769  0.1392 -1.0626  0.3978
   80SOPE   O21 7218   4.846   0.612   6.815  0.1390  0.0279 -0.5566
   80SOPE   C21 7219   4.821   0.498   6.755 -0.0909  0.0406  0.4189
   80SOPE   O22 7220   4.733   0.479   6.674 -0.3735 -0.0464 -0.0661
   80SOPE   C22 7221   4.908   0.395   6.817  0.3854  1.0290  0.1185
   80SOPE   H2R 7222   4.881   0.294   6.779  0.7407  1.3399 -0.9908
   80SOPE   H2S 7223   4.904   0.399   6.928 -0.3972  0.5723  0.1195
   80SOPE    C3 7224   4.823   0.815   6.692 -0.3301  0.5172  0.5131
   80SOPE    HX 7225   4.915   0.847   6.745 -0.5695  0.1870  1.1514
   80SOPE    HY 7226   4.760   0.907   6.680  1.6124  2.1798  2.2188
   80SOPE   O31 7227   4.848   0.757   6.562  0.1061 -0.2579  1.0732
   80SOPE   C31 7228   4.730   0.726   6.500 -0.4103  0.6360 -0.4317
   80SOPE   O32 7229   4.621   0.762   6.544  0.8883  0.8173  0.4451
   80SOPE   C32 7230   4.748   0.640   6.376 -0.0657 -0.2093 -0.4375
   80SOPE   H2X 7231   4.784   0.542   6.415 -0.2242 -0.1534 -0.1492
   80SOPE   H2Y 7232   4.819   0.683   6.302  0.1462 -0.6325 -0.4857
   80SOPE   C23 7233   5.049   0.409   6.751 -0.0282 -0.1313  0.2949
   80SOPE   H3R 7234   5.113   0.326   6.787  0.6437  0.8485  1.4200
   80SOPE   H3S 7235   5.104   0.497   6.791  0.0193 -0.4872  1.0450
   80SOPE   C24 7236   5.058   0.408   6.595  0.3540 -0.2061  0.3843
   80SOPE   H4R 7237   5.016   0.500   6.551  4.0078  0.5165 -2.0676
   80SOPE   H4S 7238   5.166   0.406   6.567 -0.0078  1.3474 -1.2873
   80SOPE   C25 7239   5.003   0.281   6.529  0.2365 -0.5225 -0.3411
   80SOPE   H5R 7240   5.053   0.197   6.582  0.1338  0.4655  1.3625
   80SOPE   H5S 7241   4.893   0.287   6.541  0.4530  2.9294  0.7711
   80SOPE   C26 7242   5.034   0.286   6.377  0.1419  0.4390  0.0745
   80SOPE   H6R 7243   4.961   0.361   6.339  1.7937  1.2666 -1.5900
   80SOPE   H6S 7244   5.133   0.322   6.342 -0.2599  0.9152 -0.5981
   80SOPE   C27 7245   5.010   0.150   6.312 -0.3961 -0.4004 -0.3285
   80SOPE   H7R 7246   5.074   0.072   6.360 -0.5118  0.8470  2.0067
   80SOPE   H7S 7247   4.908   0.119   6.344 -0.2750 -0.4023  0.0724
   80SOPE   C28 7248   5.024   0.165   6.168  0.0871  0.1649  0.6277
   80SOPE   H8R 7249   4.962   0.248   6.129 -0.5052  0.9939  3.1694
   80SOPE   H8S 7250   5.124   0.208   6.148 -0.2897  0.0798 -1.6872
   80SOPE   C29 7251   4.997   0.041   6.084 -0.4635  0.3235  0.0321
   80SOPE   H91 7252   4.911  -0.010   6.132  0.7661 -0.1478  1.8492
   80SOPE  C210 7253   5.050   0.001   5.969  0.9538 -0.7453 -0.0305
   80SOPE  H101 7254   5.031  -0.098   5.925 -1.3086  0.1914 -1.3199
   80SOPE  C211 7255   5.164   0.074   5.893  0.3155 -0.1813 -0.0968
   80SOPE  H11R 7256   5.257   0.014   5.885  1.9415  2.3090 -1.2984
   80SOPE  H11S 7257   5.181   0.172   5.943  0.5550  0.1036 -0.7132
   80SOPE  C212 7258   5.113   0.109   5.751 -0.2740 -0.5668 -0.3750
   80SOPE  H12R 7259   5.023   0.174   5.762  0.2218  0.0302  0.2936
   80SOPE  H12S 7260   5.081   0.015   5.702 -1.2339 -2.1504  3.0360
   80SOPE  C213 7261   5.224   0.174   5.675  0.4522  0.1864  0.7633
   80SOPE  H13R 7262   5.316   0.118   5.699 -1.6002 -2.7156  2.4747
   80SOPE  H13S 7263   5.240   0.278   5.710  0.6426  0.5917 -0.4724
   80SOPE  C214 7264   5.188   0.197   5.525 -0.4132 -0.3798 -0.2180
   80SOPE  H14R 7265   5.095   0.257   5.522  0.5940  1.1934 -1.5918
   80SOPE  H14S 7266   5.168   0.102   5.471 -0.6760  0.2284 -1.2214
   80SOPE  C215 7267   5.291   0.291   5.454  0.1086 -0.0828  0.1266
   80SOPE  H15R 7268   5.295   0.386   5.510  2.2626 -0.9193  1.5322
   80SOPE  H15S 7269   5.249   0.305   5.352 -1.5766 -2.1097  0.4611
   80SOPE  C216 7270   5.440   0.248   5.446  0.8102  0.3803 -0.2477
   80SOPE  H16R 7271   5.465   0.262   5.554  2.0730 -0.3332 -0.4202
   80SOPE  H16S 7272   5.502   0.323   5.393  0.4027  1.8788  1.3056
   80SOPE  C217 7273   5.465   0.102   5.403 -0.1492  0.7094 -0.9396
   80SOPE  H17R 7274   5.411   0.033   5.471  2.6133  1.3988  2.2212
   80SOPE  H17S 7275   5.574   0.079   5.412 -0.6448 -1.9444 -1.0739
   80SOPE  C218 7276   5.407   0.071   5.263  0.3334 -0.2585 -0.6178
   80SOPE  H18R 7277   5.445  -0.029   5.235  0.1383  0.1653 -2.5156
   80SOPE  H18S 7278   5.463   0.144   5.200  0.9777  0.1276  0.3562
   80SOPE  H18T 7279   5.297   0.062   5.271  0.2918 -0.1087 -1.0044
   80SOPE   C33 7280   4.618   0.610   6.308  0.1756  0.3001 -0.3917
   80SOPE   H3X 7281   4.568   0.702   6.270 -0.1852 -1.0480 -3.4867
   80SOPE   H3Y 7282   4.536   0.570   6.371 -2.5671  2.4073 -2.3682
   80SOPE   C34 7283   4.623   0.517   6.188  0.2481  0.1444  0.3919
   80SOPE   H4X 7284   4.527   0.508   6.133  1.2896  0.0047 -1.4962
   80SOPE   H4Y 7285   4.657   0.419   6.230  0.8603 -0.3292 -1.1386
   80SOPE   C35 7286   4.731   0.555   6.094  0.2830 -0.2450  0.2741
   80SOPE   H5X 7287   4.827   0.551   6.150 -0.6145  0.7088  1.9455
   80SOPE   H5Y 7288   4.714   0.661   6.067  0.9199 -0.5718 -1.5737
   80SOPE   C36 7289   4.730   0.470   5.963 -0.4152  0.5993 -0.0973
   80SOPE   H6X 7290   4.637   0.485   5.903  0.4859  1.5730 -1.3175
   80SOPE   H6Y 7291   4.738   0.364   5.994 -0.5339 -0.7838 -4.1217
   80SOPE   C37 7292   4.860   0.500   5.886  0.5261  0.2810  0.1994
   80SOPE   H7X 7293   4.951   0.486   5.947  1.0282  2.3533  0.0133
   80SOPE   H7Y 7294   4.857   0.610   5.870 -0.4087  0.1233 -0.9040
   80SOPE   C38 7295   4.869   0.435   5.750  0.0241 -0.0219 -0.3110
   80SOPE   H8X 7296   4.904   0.330   5.759 -0.7890 -0.2350  0.5629
   80SOPE   H8Y 7297   4.939   0.480   5.677 -0.1674 -1.2174 -1.2616
   80SOPE   C39 7298   4.741   0.435   5.671  0.1704 -0.0686  0.4244
   80SOPE   H9X 7299   4.684   0.520   5.716  1.1026  0.4729  0.6168
   80SOPE   H9Y 7300   4.692   0.339   5.697  0.6394 -1.8700 -4.3597
   80SOPE  C310 7301   4.760   0.439   5.522 -0.3686  0.4380  0.3439
   80SOPE  H10X 7302   4.664   0.398   5.485 -0.4436  1.6182 -0.8043
   80SOPE  H10Y 7303   4.838   0.371   5.481 -0.8577 -0.4194  0.8041
   80SOPE  C311 7304   4.749   0.583   5.468 -0.8890 -0.1511  0.9212
   80SOPE  H11X 7305   4.817   0.650   5.524  0.0558 -0.3821  0.0745
   80SOPE  H11Y 7306   4.642   0.611   5.470 -0.9395  0.2066 -2.2941
   80SOPE  C312 7307   4.782   0.590   5.319  0.0084  1.1322  0.6948
   80SOPE  H12X 7308   4.703   0.542   5.257  0.2630  1.1520  0.3559
   80SOPE  H12Y 7309   4.879   0.538   5.310 -0.5958 -0.1019  1.1047
   80SOPE  C313 7310   4.800   0.735   5.269 -0.1308 -0.6014 -0.0170
   80SOPE  H13X 7311   4.867   0.790   5.338 -0.6775 -0.6745  0.5804
   80SOPE  H13Y 7312   4.699   0.781   5.274  1.0876  2.4701 -0.7820
   80SOPE  C314 7313   4.850   0.738   5.124 -0.2047  0.2044 -0.2696
   80SOPE  H14X 7314   4.947   0.685   5.115  0.8547  2.2748 -2.2665
   80SOPE  H14Y 7315   4.881   0.843   5.106 -0.8615  0.8826  2.2104
   80SOPE  C315 7316   4.754   0.682   5.015  0.3511  0.3275 -0.3847
   80SOPE  H15X 7317   4.737   0.573   5.029  0.4739  0.5364  1.5893
   80SOPE  H15Y 7318   4.813   0.679   4.921  1.3276 -1.0401  0.2502
   80SOPE  C316 7319   4.618   0.752   4.984 -0.2811 -0.6019  0.2065
   80SOPE  H16X 7320   4.644   0.860   4.975 -2.2393 -0.1617 -0.4800
   80SOPE  H16Y 7321   4.557   0.744   5.076  0.1720 -2.5279  0.3749
   80SOPE  C317 7322   4.546   0.696   4.864  0.1765 -0.9554  0.4447
   80SOPE  H17X 7323   4.558   0.585   4.862  1.4008 -0.8333  0.7058
   80SOPE  H17Y 7324   4.600   0.744   4.780  2.7725  0.1383  2.6025
   80SOPE  C318 7325   4.398   0.736   4.853  0.1778  0.0617 -0.4291
   80SOPE  H18X 7326   4.401   0.844   4.881  3.4434 -0.0128 -0.1131
   80SOPE  H18Y 7327   4.346   0.683   4.936  2.1657 -0.6273  0.4492
   80SOPE  H18Z 7328   4.349   0.729   4.754  0.4488  0.6217 -0.6043
   81SOPE     N 7329   0.935   3.127   6.928  0.1338 -0.0596  0.0099
   81SOPE   HN1 7330   0.859   3.179   6.977 -0.2827 -1.7933  1.3289
   81SOPE   HN2 7331   0.930   3.026   6.954 -0.7958  0.2756  1.2358
   81SOPE   HN3 7332   1.030   3.143   6.967  0.7309 -1.4072 -0.7941
   81SOPE   C12 7333   0.913   3.163   6.783 -0.0259 -0.0404 -0.5995
   81SOPE  H12A 7334   0.993   3.240   6.771 -0.1710  0.3318  0.7315
   81SOPE  H12B 7335   0.811   3.202   6.764 -0.0991 -0.6948 -1.6551
   81SOPE   C11 7336   0.946   3.042   6.690 -0.1410 -0.2261 -0.0183
   81SOPE  H11A 7337   0.943   3.096   6.593 -2.1748  1.7226  1.0653
   81SOPE  H11B 7338   0.862   2.969   6.686 -1.6189  1.4609 -1.8300
   81SOPE     P 7339   1.078   2.831   6.760 -0.6700 -0.3499  0.3973
   81SOPE   O13 7340   1.010   2.834   6.892 -0.4453  0.1754 -0.2458
   81SOPE   O14 7341   1.222   2.796   6.767  0.3042  0.4863  0.9516
   81SOPE   O12 7342   1.071   2.977   6.700 -0.5617 -0.2079 -0.5060
   81SOPE   O11 7343   1.004   2.737   6.654  0.1945  0.1913 -0.5394
   81SOPE    C1 7344   1.068   2.667   6.547  0.2022 -0.3113 -0.1058
   81SOPE    HA 7345   1.029   2.563   6.542 -3.5468  0.9014  0.7352
   81SOPE    HB 7346   1.177   2.651   6.564  0.1407 -0.3566  0.2412
   81SOPE    C2 7347   1.041   2.729   6.409 -0.7413  0.4987 -0.2690
   81SOPE    HS 7348   1.050   2.647   6.335  1.0695  1.0100 -0.6471
   81SOPE   O21 7349   1.129   2.841   6.392 -0.0850 -0.5443  0.3527
   81SOPE   C21 7350   1.253   2.810   6.356 -0.1659  0.1468  0.1906
   81SOPE   O22 7351   1.289   2.691   6.348 -0.7168  0.0673 -0.4192
   81SOPE   C22 7352   1.341   2.935   6.341  0.0739  0.2797 -0.2931
   81SOPE   H2R 7353   1.378   2.925   6.236 -0.4625  2.5931 -0.7427
   81SOPE   H2S 7354   1.432   2.925   6.404  1.3610  1.1185 -1.9467
   81SOPE    C3 7355   0.894   2.785   6.406  0.2780  0.3652  0.0558
   81SOPE    HX 7356   0.882   2.859   6.324  0.6685 -0.5341 -0.8361
   81SOPE    HY 7357   0.873   2.839   6.501 -1.5109  1.7702 -1.0742
   81SOPE   O31 7358   0.797   2.678   6.383 -0.6247 -0.5160 -0.3420
   81SOPE   C31 7359   0.681   2.690   6.435  0.4728 -0.1339  0.6001
   81SOPE   O32 7360   0.623   2.791   6.477 -0.2483  0.2403 -0.3354
   81SOPE   C32 7361   0.631   2.548   6.440  0.6879 -0.2642  0.1497
   81SOPE   H2X 7362   0.674   2.507   6.534  0.4811  0.1474  0.4307
   81SOPE   H2Y 7363   0.670   2.494   6.352 -0.1588  0.2129 -0.5316
   81SOPE   C23 7364   1.279   3.078   6.352 -0.2405  0.3570  0.2609
   81SOPE   H3R 7365   1.370   3.142   6.350  0.4577 -0.5967  0.6952
   81SOPE   H3S 7366   1.215   3.099   6.440 -1.6452  0.6178 -0.7788
   81SOPE   C24 7367   1.204   3.101   6.221  0.1799  0.5046 -0.0644
   81SOPE   H4R 7368   1.276   3.089   6.137  1.6516 -0.3556  1.2696
   81SOPE   H4S 7369   1.121   3.030   6.201  3.0846 -3.4484  0.7495
   81SOPE   C25 7370   1.167   3.253   6.208 -0.5548  0.1806  0.4265
   81SOPE   H5R 7371   1.076   3.257   6.145 -0.7815 -0.3440  0.7207
   81SOPE   H5S 7372   1.146   3.289   6.311  2.4336  1.6380  0.6358
   81SOPE   C26 7373   1.267   3.342   6.148 -0.3759 -0.1121  0.4167
   81SOPE   H6R 7374   1.333   3.376   6.231 -2.6109  0.9907  1.8346
   81SOPE   H6S 7375   1.333   3.292   6.073  2.9294  1.7817  1.8115
   81SOPE   C27 7376   1.212   3.465   6.083 -0.6828  0.0948 -0.4381
   81SOPE   H7R 7377   1.157   3.534   6.150  0.3887 -0.5850  1.1935
   81SOPE   H7S 7378   1.299   3.530   6.059 -0.9899  1.3118  1.5003
   81SOPE   C28 7379   1.134   3.438   5.956  0.6380  0.1613 -0.3976
   81SOPE   H8R 7380   1.162   3.341   5.911 -1.6139 -1.1970  0.9216
   81SOPE   H8S 7381   1.026   3.428   5.983  0.6642  2.7827  1.0402
   81SOPE   C29 7382   1.146   3.550   5.858 -0.1164 -0.1885  0.3252
   81SOPE   H91 7383   1.187   3.642   5.903  1.2232  0.0248 -1.2168
   81SOPE  C210 7384   1.119   3.548   5.722  0.5103  0.1230 -0.1802
   81SOPE  H101 7385   1.145   3.631   5.654 -1.7991 -2.1581 -4.2205
   81SOPE  C211 7386   1.078   3.426   5.645 -0.2324  0.2991 -0.2698
   81SOPE  H11R 7387   0.969   3.440   5.626 -0.5687 -0.5995  0.8899
   81SOPE  H11S 7388   1.089   3.331   5.701 -1.7494  0.3422  0.1478
   81SOPE  C212 7389   1.156   3.402   5.508  0.4902  0.0417 -0.6155
   81SOPE  H12R 7390   1.258   3.362   5.528  0.5517 -0.4342 -1.8102
   81SOPE  H12S 7391   1.153   3.494   5.446 -3.2438 -0.3352 -1.2643
   81SOPE  C213 7392   1.074   3.290   5.431 -0.8998 -0.3815  0.3277
   81SOPE  H13R 7393   0.965   3.310   5.441 -1.2939 -2.7809  1.4660
   81SOPE  H13S 7394   1.090   3.189   5.474  1.5103 -0.1989 -0.0062
   81SOPE  C214 7395   1.111   3.291   5.280  0.1393  0.2356  0.1038
   81SOPE  H14R 7396   1.216   3.267   5.249 -0.8211 -0.2849 -3.1540
   81SOPE  H14S 7397   1.094   3.393   5.240  0.4681  1.3801  2.7048
   81SOPE  C215 7398   1.023   3.192   5.201 -0.4018  0.1654 -0.1392
   81SOPE  H15R 7399   0.917   3.203   5.234  0.1052  0.6596  1.3747
   81SOPE  H15S 7400   1.056   3.088   5.217 -1.8632 -0.3662 -0.4187
   81SOPE  C216 7401   1.028   3.234   5.047 -0.1142  0.4536 -0.7380
   81SOPE  H16R 7402   0.993   3.338   5.036  1.3179  0.9655 -0.6186
   81SOPE  H16S 7403   0.955   3.167   4.997  0.9221 -1.6249  0.3802
   81SOPE  C217 7404   1.168   3.218   4.976  0.1798 -0.1538  0.0016
   81SOPE  H17R 7405   1.175   3.107   4.973 -0.6720 -0.2842  1.6813
   81SOPE  H17S 7406   1.257   3.258   5.029 -0.3174 -1.7481  2.1729
   81SOPE  C218 7407   1.168   3.277   4.834 -0.3687 -0.0914 -0.5155
   81SOPE  H18R 7408   1.080   3.233   4.781  0.7698 -4.3407  0.6857
   81SOPE  H18S 7409   1.255   3.243   4.773 -1.6351  2.2972 -3.9370
   81SOPE  H18T 7410   1.174   3.387   4.841 -2.7858  0.0276  0.4793
   81SOPE   C33 7411   0.481   2.552   6.444  0.0550 -0.2113 -0.4103
   81SOPE   H3X 7412   0.450   2.616   6.529  0.8036 -0.6105  0.1807
   81SOPE   H3Y 7413   0.455   2.446   6.467 -0.2739  0.2154  1.3533
   81SOPE   C34 7414   0.415   2.601   6.313 -0.2349 -0.3889 -0.3299
   81SOPE   H4X 7415   0.461   2.572   6.216 -0.0140  1.9231 -0.9953
   81SOPE   H4Y 7416   0.425   2.712   6.319  2.0058 -0.5955  0.7851
   81SOPE   C35 7417   0.266   2.565   6.312 -0.2963 -0.0656 -0.1848
   81SOPE   H5X 7418   0.217   2.630   6.388  2.6178  1.7739  0.3019
   81SOPE   H5Y 7419   0.252   2.460   6.345 -0.4018 -0.0429 -0.1564
   81SOPE   C36 7420   0.191   2.601   6.177  0.0806  0.2259 -0.5068
   81SOPE   H6X 7421   0.208   2.709   6.156 -0.3597  0.7800  1.6591
   81SOPE   H6Y 7422   0.087   2.565   6.193  0.2327 -0.4375 -1.0037
   81SOPE   C37 7423   0.240   2.516   6.065 -0.1706 -0.3242  0.0393
   81SOPE   H7X 7424   0.234   2.409   6.097 -0.4791 -0.4797 -0.5341
   81SOPE   H7Y 7425   0.345   2.535   6.034 -1.0283 -0.1558 -3.0531
   81SOPE   C38 7426   0.156   2.525   5.942  0.7034 -0.0248 -0.2201
   81SOPE   H8X 7427   0.157   2.628   5.902  2.1442 -0.4009 -1.2251
   81SOPE   H8Y 7428   0.049   2.500   5.958 -0.4080  2.3101 -3.1492
   81SOPE   C39 7429   0.224   2.437   5.831  0.1132 -0.3785 -0.5070
   81SOPE   H9X 7430   0.227   2.329   5.860 -1.5909 -0.0677  1.0137
   81SOPE   H9Y 7431   0.332   2.459   5.813 -0.2447  2.0418  0.0123
   81SOPE  C310 7432   0.145   2.448   5.697 -0.3486  0.0216 -0.3612
   81SOPE  H10X 7433   0.161   2.549   5.656 -0.0607  0.0214 -0.2577
   81SOPE  H10Y 7434   0.035   2.444   5.710 -0.2277 -1.7330  0.5116
   81SOPE  C311 7435   0.190   2.335   5.596  0.1147 -0.7971  0.7326
   81SOPE  H11X 7436   0.165   2.236   5.638 -1.5783 -0.5938  0.2908
   81SOPE  H11Y 7437   0.300   2.344   5.584 -0.1576  2.8255 -0.5719
   81SOPE  C312 7438   0.121   2.360   5.464 -0.9872 -0.5925 -0.2154
   81SOPE  H12X 7439   0.150   2.459   5.423 -0.0898 -1.4861 -1.8699
   81SOPE  H12Y 7440   0.010   2.350   5.467 -0.9953 -0.2829  0.7549
   81SOPE  C313 7441   0.162   2.249   5.359  0.4355  0.1879 -0.0012
   81SOPE  H13X 7442   0.135   2.145   5.388 -1.2273  0.2783 -1.0750
   81SOPE  H13Y 7443   0.272   2.258   5.346  0.4217 -0.1389 -0.3707
   81SOPE  C314 7444   0.096   2.261   5.223  0.2490 -0.0703  0.2804
   81SOPE  H14X 7445  -0.012   2.276   5.246 -0.4332 -1.1459 -1.8942
   81SOPE  H14Y 7446   0.086   2.162   5.173 -0.3420 -1.9690  3.8256
   81SOPE  C315 7447   0.139   2.375   5.131 -0.7430 -0.4712  0.3305
   81SOPE  H15X 7448   0.242   2.382   5.090 -0.6789  0.6482  0.6546
   81SOPE  H15Y 7449   0.138   2.466   5.194  1.0030 -0.6774  0.7170
   81SOPE  C316 7450   0.056   2.410   5.006 -0.1226  0.1638 -0.4376
   81SOPE  H16X 7451   0.099   2.472   4.925 -0.9812 -0.0762 -1.1001
   81SOPE  H16Y 7452  -0.041   2.452   5.041 -0.1912 -1.3799  1.3575
   81SOPE  C317 7453   0.011   2.288   4.932  0.6771  0.8249 -0.1821
   81SOPE  H17X 7454  -0.050   2.317   4.843 -1.3138  2.1268  1.5181
   81SOPE  H17Y 7455  -0.051   2.218   4.992  1.2379 -1.1787 -1.7976
   81SOPE  C318 7456   0.122   2.212   4.871 -0.9535 -0.0485  0.7154
   81SOPE  H18X 7457   0.180   2.269   4.795 -2.1969 -1.9798 -1.8487
   81SOPE  H18Y 7458   0.082   2.114   4.835 -0.9153 -0.2930  1.3213
   81SOPE  H18Z 7459   0.197   2.181   4.947 -0.0227 -2.5778 -1.0783
   82SOPE     N 7460   2.854   5.163   7.021  0.5960  0.4378  0.2185
   82SOPE   HN1 7461   2.901   5.254   7.005 -3.5707  2.7963  0.1878
   82SOPE   HN2 7462   2.751   5.167   7.007  0.8993  2.6208 -2.2437
   82SOPE   HN3 7463   2.881   5.132   7.116  2.9773  1.6941  0.0198
   82SOPE   C12 7464   2.915   5.076   6.920 -0.2453  0.7802 -0.5822
   82SOPE  H12A 7465   2.873   4.973   6.923 -1.7168  1.3891  2.0002
   82SOPE  H12B 7466   3.025   5.070   6.937 -0.0589 -0.4492 -2.0083
   82SOPE   C11 7467   2.888   5.123   6.773 -0.0527 -0.6427 -0.1865
   82SOPE  H11A 7468   2.949   5.050   6.717  1.2387 -0.0953  0.4475
   82SOPE  H11B 7469   2.936   5.221   6.749  2.4137 -0.6955  3.6327
   82SOPE     P 7470   2.678   5.008   6.679  0.3671 -0.2948  0.1383
   82SOPE   O13 7471   2.557   5.070   6.621  0.0915 -0.3797  0.0482
   82SOPE   O14 7472   2.650   4.900   6.774 -0.0324 -0.1690  0.4929
   82SOPE   O12 7473   2.756   5.133   6.736  0.0620  0.5181  0.5676
   82SOPE   O11 7474   2.764   4.955   6.555 -0.4623  0.1783 -0.1928
   82SOPE    C1 7475   2.793   5.047   6.449 -0.0821  0.7211 -0.1885
   82SOPE    HA 7476   2.886   5.024   6.393 -1.3436  0.2463 -2.1351
   82SOPE    HB 7477   2.821   5.147   6.490 -0.8307  0.2542  1.5510
   82SOPE    C2 7478   2.679   5.064   6.345  0.0504 -0.0052  0.1849
   82SOPE    HS 7479   2.585   5.052   6.403  0.4517 -2.0075  0.4859
   82SOPE   O21 7480   2.695   4.961   6.251 -0.7131 -0.2811 -0.0813
   82SOPE   C21 7481   2.593   4.884   6.227 -0.6096  0.5364 -0.2395
   82SOPE   O22 7482   2.484   4.889   6.276  0.1172  0.0291  0.0005
   82SOPE   C22 7483   2.637   4.783   6.121 -0.2683  0.2222 -0.5871
   82SOPE   H2R 7484   2.544   4.728   6.095 -0.6563  0.9501 -0.7860
   82SOPE   H2S 7485   2.711   4.710   6.160 -2.1075 -0.6234  1.5516
   82SOPE    C3 7486   2.681   5.202   6.267  0.6650 -0.2969 -0.1431
   82SOPE    HX 7487   2.764   5.193   6.194 -0.2495 -2.7790 -0.9776
   82SOPE    HY 7488   2.710   5.286   6.333  1.6781  1.6807 -2.8991
   82SOPE   O31 7489   2.559   5.230   6.191 -0.1344 -0.1765  0.3064
   82SOPE   C31 7490   2.441   5.251   6.251 -0.0354  0.0605  0.1689
   82SOPE   O32 7491   2.423   5.254   6.371  0.4168  0.6315 -0.2424
   82SOPE   C32 7492   2.331   5.251   6.142  0.0274 -0.6785 -0.5844
   82SOPE   H2X 7493   2.370   5.265   6.039 -1.1197  2.8293 -0.6654
   82SOPE   H2Y 7494   2.263   5.334   6.169  0.7023 -0.1666 -0.4115
   82SOPE   C23 7495   2.686   4.860   5.995  0.0443 -0.0566 -0.3978
   82SOPE   H3R 7496   2.744   4.784   5.938 -1.2005 -2.6961  1.6475
   82SOPE   H3S 7497   2.756   4.940   6.027  0.2125 -0.1663 -0.4854
   82SOPE   C24 7498   2.573   4.919   5.910  0.1255  0.4775  0.0535
   82SOPE   H4R 7499   2.501   4.973   5.976 -2.4509 -3.3714  0.7041
   82SOPE   H4S 7500   2.630   4.986   5.841  0.5929 -0.7330 -0.7573
   82SOPE   C25 7501   2.496   4.819   5.824 -0.3304 -0.0270  0.6274
   82SOPE   H5R 7502   2.456   4.734   5.883 -0.7067  0.9784  1.8759
   82SOPE   H5S 7503   2.411   4.869   5.773 -0.0858  1.5888  1.7226
   82SOPE   C26 7504   2.591   4.766   5.706  0.1483  0.2146 -0.1642
   82SOPE   H6R 7505   2.629   4.846   5.639  1.5550 -0.9947 -0.8420
   82SOPE   H6S 7506   2.675   4.716   5.757  1.4328  2.2440 -0.1624
   82SOPE   C27 7507   2.519   4.664   5.619 -0.5001  0.3189 -0.2364
   82SOPE   H7R 7508   2.503   4.571   5.677  1.9089  1.7265  2.9887
   82SOPE   H7S 7509   2.427   4.703   5.570  0.0535  0.2570 -1.3545
   82SOPE   C28 7510   2.607   4.611   5.499  0.2922  0.3003  0.3158
   82SOPE   H8R 7511   2.715   4.620   5.526  0.2147  0.0095  0.7426
   82SOPE   H8S 7512   2.594   4.501   5.492 -0.2217  0.4501 -1.3394
   82SOPE   C29 7513   2.590   4.676   5.363  0.3080 -0.2051 -0.7724
   82SOPE   H91 7514   2.541   4.773   5.383 -0.9021 -1.2550  1.7584
   82SOPE  C210 7515   2.621   4.631   5.245 -0.1944  0.4828 -0.0842
   82SOPE  H101 7516   2.598   4.687   5.154 -0.0684 -1.8858 -1.6751
   82SOPE  C211 7517   2.680   4.494   5.208 -0.4048  0.4141 -0.3257
   82SOPE  H11R 7518   2.696   4.422   5.290  2.6331  0.2241 -0.9910
   82SOPE  H11S 7519   2.785   4.505   5.175 -0.0684  1.7357  1.0539
   82SOPE  C212 7520   2.591   4.428   5.098  0.6130  0.1494 -0.1982
   82SOPE  H12R 7521   2.556   4.498   5.020 -2.3784 -1.0903 -0.0778
   82SOPE  H12S 7522   2.495   4.389   5.138  1.9556 -0.9548  2.2053
   82SOPE  C213 7523   2.664   4.312   5.029 -0.6845  0.6585  0.6276
   82SOPE  H13R 7524   2.687   4.222   5.090  1.2928 -0.6668 -1.8642
   82SOPE  H13S 7525   2.764   4.338   4.988 -0.6977 -1.5778 -0.9945
   82SOPE  C214 7526   2.579   4.268   4.905 -0.4308  0.0964  0.4228
   82SOPE  H14R 7527   2.570   4.349   4.830 -0.3140 -0.7990 -0.5748
   82SOPE  H14S 7528   2.479   4.234   4.938 -0.6830 -0.1469 -0.5947
   82SOPE  C215 7529   2.646   4.163   4.824  0.1817  0.0535  0.3154
   82SOPE  H15R 7530   2.665   4.076   4.890  0.9886 -1.9371 -2.3740
   82SOPE  H15S 7531   2.748   4.194   4.791  1.1245 -1.7924  1.3345
   82SOPE  C216 7532   2.572   4.124   4.701 -0.5517  1.0296 -0.2771
   82SOPE  H16R 7533   2.543   4.207   4.632 -0.6935  0.7151 -0.5972
   82SOPE  H16S 7534   2.481   4.075   4.743  0.8460  0.1922  1.9172
   82SOPE  C217 7535   2.642   4.015   4.620 -0.2035  0.5038 -0.4061
   82SOPE  H17R 7536   2.735   4.055   4.574  0.4181  0.1423  0.5282
   82SOPE  H17S 7537   2.585   3.992   4.527  0.8786  2.5521 -1.6455
   82SOPE  C218 7538   2.667   3.891   4.698 -0.5110  0.0314 -0.7220
   82SOPE  H18R 7539   2.580   3.855   4.757 -0.5424 -0.8595 -1.3013
   82SOPE  H18S 7540   2.735   3.899   4.785 -0.9152  1.2654 -0.4990
   82SOPE  H18T 7541   2.709   3.812   4.633  0.2281  2.3567 -3.2870
   82SOPE   C33 7542   2.250   5.124   6.145  0.0419 -0.9126  0.7849
   82SOPE   H3X 7543   2.238   5.064   6.238  3.0214  0.2994  2.0887
   82SOPE   H3Y 7544   2.297   5.048   6.080  1.4514 -0.0387  0.7430
   82SOPE   C34 7545   2.106   5.148   6.095  0.4747  0.3795  0.3219
   82SOPE   H4X 7546   2.114   5.196   5.995  1.6112  0.9815  0.6806
   82SOPE   H4Y 7547   2.055   5.212   6.170 -0.9613 -0.2068 -0.1128
   82SOPE   C35 7548   2.025   5.016   6.092  0.4513  0.8843  0.1358
   82SOPE   H5X 7549   2.041   4.964   6.189 -0.3571 -1.2434 -0.8003
   82SOPE   H5Y 7550   2.070   4.950   6.014 -3.8634  2.1329 -3.8539
   82SOPE   C36 7551   1.875   5.028   6.064 -0.1611  0.4674  0.2254
   82SOPE   H6X 7552   1.825   5.065   6.156  1.2925  3.1439  0.0267
   82SOPE   H6Y 7553   1.840   4.923   6.048  0.5505  0.1387  0.7843
   82SOPE   C37 7554   1.844   5.102   5.934 -0.4135  0.2373  0.1394
   82SOPE   H7X 7555   1.907   5.075   5.847 -0.5294 -0.2671  0.2122
   82SOPE   H7Y 7556   1.863   5.211   5.949  0.1150  0.1060  0.4155
   82SOPE   C38 7557   1.692   5.079   5.895 -0.0745 -0.1147  0.6726
   82SOPE   H8X 7558   1.661   5.172   5.843  0.4032 -0.2944  0.0530
   82SOPE   H8Y 7559   1.648   5.063   5.996 -0.8554  1.5847  0.6371
   82SOPE   C39 7560   1.668   4.970   5.797  0.1281  0.3466  0.1226
   82SOPE   H9X 7561   1.729   4.882   5.826  1.3307  1.6120  1.5999
   82SOPE   H9Y 7562   1.704   5.017   5.703  0.5002 -0.6966 -0.2722
   82SOPE  C310 7563   1.520   4.928   5.799 -0.4497 -0.0748  0.6397
   82SOPE  H10X 7564   1.447   5.005   5.766  0.3991 -0.1936 -1.6574
   82SOPE  H10Y 7565   1.484   4.889   5.897  2.6779  0.2684  2.0620
   82SOPE  C311 7566   1.500   4.807   5.693 -0.1906 -0.3543 -0.3613
   82SOPE  H11X 7567   1.402   4.756   5.706 -0.3491 -0.8714 -2.9420
   82SOPE  H11Y 7568   1.583   4.736   5.714  0.8260  1.1569  0.9899
   82SOPE  C312 7569   1.489   4.854   5.552 -0.2081 -0.0647 -0.7810
   82SOPE  H12X 7570   1.598   4.854   5.529  0.0732 -3.9385 -0.0573
   82SOPE  H12Y 7571   1.452   4.959   5.557 -1.2116 -0.4823  2.3772
   82SOPE  C313 7572   1.438   4.762   5.446  0.1131  0.1267  0.2890
   82SOPE  H13X 7573   1.337   4.734   5.482 -0.0094  1.3040  0.9225
   82SOPE  H13Y 7574   1.503   4.672   5.443  0.8198  0.6334  0.2106
   82SOPE  C314 7575   1.431   4.816   5.308 -0.4044  0.2275 -0.5679
   82SOPE  H14X 7576   1.527   4.791   5.259 -0.8492 -0.4999 -1.0801
   82SOPE  H14Y 7577   1.424   4.926   5.324 -0.5927  0.1951 -0.4219
   82SOPE  C315 7578   1.319   4.767   5.220 -0.3108 -0.5038  0.4136
   82SOPE  H15X 7579   1.224   4.808   5.262  0.5809  0.7385  1.2850
   82SOPE  H15Y 7580   1.322   4.656   5.222  1.0781 -0.5205 -0.9880
   82SOPE  C316 7581   1.336   4.815   5.077  0.3223  0.0085 -0.4265
   82SOPE  H16X 7582   1.443   4.815   5.045  0.5235 -0.8105  0.2136
   82SOPE  H16Y 7583   1.287   4.915   5.071 -3.4634 -1.6551 -0.1478
   82SOPE  C317 7584   1.257   4.726   4.976  0.2017  0.4143  0.4164
   82SOPE  H17X 7585   1.154   4.766   4.986 -0.5233 -1.3797  0.5869
   82SOPE  H17Y 7586   1.262   4.629   5.031 -3.0768  0.6454  1.3043
   82SOPE  C318 7587   1.300   4.728   4.828 -0.0303 -0.1915  0.1037
   82SOPE  H18X 7588   1.276   4.635   4.771  0.3353 -1.5346  2.0076
   82SOPE  H18Y 7589   1.410   4.734   4.821  0.0955  1.0283  2.2696
   82SOPE  H18Z 7590   1.252   4.816   4.781 -0.3300 -0.4729 -0.1215
   83SOPE     N 7591   1.037   2.808   2.632  0.0409 -0.7122 -0.4399
   83SOPE   HN1 7592   1.069   2.874   2.707 -0.0161  0.7853 -1.6724
   83SOPE   HN2 7593   1.108   2.789   2.558 -1.6538 -0.7766 -2.1236
   83SOPE   HN3 7594   0.960   2.865   2.592  0.5572 -0.8158 -1.6111
   83SOPE   C12 7595   0.985   2.685   2.703 -0.4935 -0.4468  0.2895
   83SOPE  H12A 7596   1.063   2.610   2.676  0.2044  1.0386 -2.2930
   83SOPE  H12B 7597   0.890   2.656   2.653 -1.1388 -0.6549  1.6061
   83SOPE   C11 7598   0.969   2.716   2.848  0.0793  0.0582  0.2697
   83SOPE  H11A 7599   1.062   2.733   2.906 -2.0082 -0.6490  4.1684
   83SOPE  H11B 7600   0.906   2.636   2.894 -2.2618  2.3758  1.4085
   83SOPE     P 7601   0.740   2.843   2.880 -0.3554 -0.1385 -0.0369
   83SOPE   O13 7602   0.684   2.736   2.789  0.0029  0.1118 -0.6632
   83SOPE   O14 7603   0.702   2.984   2.860  0.0450 -0.1798  0.0411
   83SOPE   O12 7604   0.903   2.838   2.868  0.4464  0.1243  0.1599
   83SOPE   O11 7605   0.730   2.805   3.030  0.0127  0.6463 -0.2557
   83SOPE    C1 7606   0.772   2.900   3.124  0.0884  0.1483 -0.1229
   83SOPE    HA 7607   0.715   2.892   3.220  1.0496  0.5571  0.4997
   83SOPE    HB 7608   0.779   3.004   3.084  0.6759  0.3681  0.5246
   83SOPE    C2 7609   0.915   2.874   3.174 -0.2180  0.5901  0.5229
   83SOPE    HS 7610   0.970   2.882   3.078 -2.3479 -0.5965 -0.8935
   83SOPE   O21 7611   0.919   2.747   3.244 -0.3615  0.0500  0.2278
   83SOPE   C21 7612   1.033   2.683   3.234  0.3927  0.0696 -0.8588
   83SOPE   O22 7613   1.130   2.721   3.172 -0.0368 -0.2070 -0.2792
   83SOPE   C22 7614   1.010   2.544   3.307  0.0562  0.5646  0.1192
   83SOPE   H2R 7615   1.061   2.467   3.246 -0.0520  0.1474  0.5518
   83SOPE   H2S 7616   0.904   2.514   3.321  0.5989 -1.2505  0.5493
   83SOPE    C3 7617   0.976   2.986   3.265  0.1312  0.1128  0.5843
   83SOPE    HX 7618   0.994   3.066   3.190  0.2705 -0.9176 -0.5076
   83SOPE    HY 7619   1.064   2.937   3.313 -1.2077  0.8049  4.0631
   83SOPE   O31 7620   0.886   3.034   3.361 -0.0479  0.4605 -0.1290
   83SOPE   C31 7621   0.935   3.118   3.448 -0.0962 -0.0689  0.1911
   83SOPE   O32 7622   1.054   3.143   3.463  0.1239 -0.9092 -0.0647
   83SOPE   C32 7623   0.815   3.190   3.518  0.0101  0.5563  0.1859
   83SOPE   H2X 7624   0.788   3.276   3.453  2.2398  0.4404 -0.9922
   83SOPE   H2Y 7625   0.848   3.237   3.613 -0.3865 -0.8312  1.0400
   83SOPE   C23 7626   1.062   2.553   3.453 -0.2379 -0.0639  0.4958
   83SOPE   H3R 7627   1.165   2.594   3.439  0.5734 -1.2591  2.5724
   83SOPE   H3S 7628   1.066   2.448   3.489  1.4542 -1.0593 -2.3007
   83SOPE   C24 7629   0.982   2.645   3.547  0.2872  0.7221  0.6991
   83SOPE   H4R 7630   0.992   2.753   3.524  1.9028  0.5618  0.4828
   83SOPE   H4S 7631   0.878   2.608   3.546  0.2464  0.8108  1.4248
   83SOPE   C25 7632   1.036   2.616   3.683  0.3818  0.0099  0.1315
   83SOPE   H5R 7633   1.007   2.516   3.723  2.1101 -0.0942  1.2115
   83SOPE   H5S 7634   1.147   2.611   3.672  0.5856  1.1438  1.3728
   83SOPE   C26 7635   0.996   2.721   3.784 -0.9871  0.2379 -0.6628
   83SOPE   H6R 7636   1.034   2.820   3.753 -0.9296  0.1258 -0.9541
   83SOPE   H6S 7637   0.885   2.715   3.787 -0.9692 -0.3678 -1.1043
   83SOPE   C27 7638   1.053   2.701   3.931 -0.2036 -0.1617  0.8538
   83SOPE   H7R 7639   0.986   2.629   3.981 -0.7262  1.4350  2.5656
   83SOPE   H7S 7640   1.156   2.658   3.932 -0.1445 -0.0782 -0.1536
   83SOPE   C28 7641   1.047   2.842   4.007 -0.5945  0.3582  0.0003
   83SOPE   H8R 7642   1.109   2.839   4.099 -2.6305 -0.3151  1.4130
   83SOPE   H8S 7643   1.086   2.924   3.943 -1.2213 -0.0841 -0.9768
   83SOPE   C29 7644   0.903   2.864   4.037  0.1054 -0.1215 -0.2454
   83SOPE   H91 7645   0.837   2.885   3.952 -0.8017  1.7797  0.8625
   83SOPE  C210 7646   0.834   2.849   4.151  0.5304  0.1923  0.3199
   83SOPE  H101 7647   0.726   2.867   4.150  0.3100 -1.0447 -1.1794
   83SOPE  C211 7648   0.879   2.800   4.282 -0.7513 -0.2807 -0.7657
   83SOPE  H11R 7649   0.989   2.787   4.275 -0.4429  2.4987 -2.5308
   83SOPE  H11S 7650   0.836   2.699   4.303 -0.0100 -0.5320 -0.4200
   83SOPE  C212 7651   0.853   2.900   4.400 -0.0796 -0.0330 -0.1539
   83SOPE  H12R 7652   0.900   2.851   4.488 -0.3979 -1.1294 -0.5826
   83SOPE  H12S 7653   0.745   2.908   4.421  0.2227  0.7211  1.2512
   83SOPE  C213 7654   0.907   3.043   4.401  0.2827 -0.5562 -0.3148
   83SOPE  H13R 7655   0.861   3.106   4.323  0.3651 -1.8828 -1.4876
   83SOPE  H13S 7656   1.017   3.036   4.386  0.2004 -1.4076 -0.5997
   83SOPE  C214 7657   0.891   3.114   4.538 -0.4825  0.8709 -0.5317
   83SOPE  H14R 7658   0.962   3.065   4.608  1.4081 -0.3985 -3.1671
   83SOPE  H14S 7659   0.788   3.088   4.571  0.0582 -0.6874  0.0283
   83SOPE  C215 7660   0.914   3.269   4.540 -0.1982  0.0333  0.0949
   83SOPE  H15R 7661   0.917   3.305   4.645  2.3905 -0.3555  0.2102
   83SOPE  H15S 7662   0.825   3.316   4.493 -1.3693 -2.3886 -0.3032
   83SOPE  C216 7663   1.038   3.309   4.469 -0.7616  0.2817  0.1048
   83SOPE  H16R 7664   1.044   3.255   4.371  0.2664  1.8129 -0.7113
   83SOPE  H16S 7665   1.120   3.271   4.533 -1.0614 -1.2419 -0.3699
   83SOPE  C217 7666   1.060   3.457   4.451 -0.2306 -0.2676 -0.5824
   83SOPE  H17R 7667   0.977   3.503   4.394  0.4918  0.0400 -1.3975
   83SOPE  H17S 7668   1.151   3.472   4.389  1.4681  0.0315  1.8588
   83SOPE  C218 7669   1.075   3.545   4.579 -0.1428  0.3503 -0.4007
   83SOPE  H18R 7670   1.163   3.506   4.634  0.1674  0.1788 -1.0200
   83SOPE  H18S 7671   0.978   3.538   4.634 -0.7807 -0.9502 -1.6247
   83SOPE  H18T 7672   1.109   3.646   4.547 -1.7010  1.3024  0.7718
   83SOPE   C33 7673   0.699   3.086   3.558  0.1345 -0.4168  0.4730
   83SOPE   H3X 7674   0.649   3.044   3.467 -1.1756  1.3154  0.3219
   83SOPE   H3Y 7675   0.619   3.143   3.611 -0.6376 -2.4763  1.6243
   83SOPE   C34 7676   0.728   2.977   3.666  0.4726 -0.7542  0.3040
   83SOPE   H4X 7677   0.810   3.019   3.727  0.8979 -1.8503  0.5038
   83SOPE   H4Y 7678   0.756   2.873   3.640 -1.1938 -1.2045  0.1964
   83SOPE   C35 7679   0.609   2.945   3.762 -0.6611 -0.4069 -0.2820
   83SOPE   H5X 7680   0.629   2.845   3.806  2.0758  1.1370  2.4207
   83SOPE   H5Y 7681   0.522   2.938   3.693 -0.1032 -0.4781 -0.9856
   83SOPE   C36 7682   0.566   3.047   3.876  0.0940  0.2022 -0.2109
   83SOPE   H6X 7683   0.586   3.151   3.842 -1.5295  1.0832  1.3379
   83SOPE   H6Y 7684   0.634   3.033   3.963 -0.4160  1.1387  0.3561
   83SOPE   C37 7685   0.421   3.034   3.922 -0.4110 -0.0287 -0.2250
   83SOPE   H7X 7686   0.374   2.934   3.915  0.0463 -0.2378 -0.3283
   83SOPE   H7Y 7687   0.345   3.092   3.865 -0.8704  0.2134  0.6120
   83SOPE   C38 7688   0.409   3.066   4.072 -0.4073  0.4551  0.3537
   83SOPE   H8X 7689   0.434   3.173   4.088  1.4605 -0.0731  1.3085
   83SOPE   H8Y 7690   0.489   3.024   4.137  0.1710  0.3220 -0.4294
   83SOPE   C39 7691   0.273   3.049   4.134 -0.2677 -0.9631 -0.5032
   83SOPE   H9X 7692   0.242   2.944   4.113 -0.9367 -1.3015  1.8385
   83SOPE   H9Y 7693   0.207   3.122   4.084  0.1373 -2.0804 -2.7899
   83SOPE  C310 7694   0.259   3.076   4.282  0.2716 -0.6884  0.3095
   83SOPE  H10X 7695   0.158   3.116   4.306  0.4044 -0.4506  0.4782
   83SOPE  H10Y 7696   0.330   3.159   4.299  0.9113 -1.2504  0.4211
   83SOPE  C311 7697   0.297   2.961   4.381  0.2616 -0.9478  0.2266
   83SOPE  H11X 7698   0.401   2.940   4.348 -0.3321 -0.6136 -2.0058
   83SOPE  H11Y 7699   0.227   2.875   4.368  1.7836 -2.1701 -0.1232
   83SOPE  C312 7700   0.290   3.009   4.527 -0.7573 -0.4205  0.1339
   83SOPE  H12X 7701   0.187   3.048   4.546 -0.0126  1.4338  0.6329
   83SOPE  H12Y 7702   0.346   3.104   4.538 -0.4890 -0.5159 -0.3585
   83SOPE  C313 7703   0.332   2.912   4.636  0.1941 -0.7883  0.1233
   83SOPE  H13X 7704   0.304   2.807   4.610 -0.1940 -0.2586 -1.8000
   83SOPE  H13Y 7705   0.293   2.938   4.736  1.6702 -1.1823  0.8233
   83SOPE  C314 7706   0.491   2.910   4.648 -0.3996 -0.0599 -0.2530
   83SOPE  H14X 7707   0.523   3.011   4.685 -0.0123 -0.5941  0.9208
   83SOPE  H14Y 7708   0.532   2.889   4.547 -1.4505 -3.2096 -0.1254
   83SOPE  C315 7709   0.540   2.792   4.739  0.3640 -0.0951  0.1916
   83SOPE  H15X 7710   0.523   2.702   4.677 -1.5427 -0.4508  1.1351
   83SOPE  H15Y 7711   0.476   2.800   4.830 -0.7723 -0.6573 -0.5276
   83SOPE  C316 7712   0.689   2.791   4.775 -0.9178  0.1382  0.8481
   83SOPE  H16X 7713   0.760   2.798   4.690  1.1661 -0.6201  2.4249
   83SOPE  H16Y 7714   0.703   2.690   4.820 -0.4475 -1.0695 -1.8187
   83SOPE  C317 7715   0.727   2.907   4.873  0.1633 -0.2846  0.2906
   83SOPE  H17X 7716   0.646   2.908   4.949 -0.4091 -1.0400 -0.2874
   83SOPE  H17Y 7717   0.726   3.001   4.813  3.1277  0.4209  1.2128
   83SOPE  C318 7718   0.868   2.900   4.928 -0.2482 -0.0790 -0.6528
   83SOPE  H18X 7719   0.877   2.966   5.018 -0.8942  0.3166 -0.8736
   83SOPE  H18Y 7720   0.939   2.933   4.848  1.3662 -1.3307  0.2022
   83SOPE  H18Z 7721   0.907   2.801   4.959 -1.2752 -0.4904 -0.6547
   84SOPE     N 7722   1.413   1.612   2.937  0.3364 -0.1804 -0.5341
   84SOPE   HN1 7723   1.496   1.620   2.876  2.0627 -1.5823  1.4642
   84SOPE   HN2 7724   1.332   1.636   2.876 -0.3897 -1.9755 -0.3652
   84SOPE   HN3 7725   1.423   1.677   3.018  1.0152  0.1866 -0.9055
   84SOPE   C12 7726   1.406   1.469   2.981  0.3681 -1.1082 -0.7109
   84SOPE  H12A 7727   1.432   1.406   2.893  0.5861 -2.4613  0.2997
   84SOPE  H12B 7728   1.308   1.449   3.029 -0.8551 -1.4360 -3.1974
   84SOPE   C11 7729   1.528   1.457   3.077  0.0438  0.4218 -0.7869
   84SOPE  H11A 7730   1.532   1.348   3.097  1.6727 -0.1423 -3.5226
   84SOPE  H11B 7731   1.510   1.512   3.172 -1.1622 -2.1508  0.5783
   84SOPE     P 7732   1.776   1.411   3.019 -0.4348 -0.2822 -0.3288
   84SOPE   O13 7733   1.904   1.489   3.003 -0.2732  0.0280  0.3174
   84SOPE   O14 7734   1.766   1.298   2.927  0.1030  0.5560  0.1668
   84SOPE   O12 7735   1.649   1.498   3.009  0.3715  0.3706 -0.5457
   84SOPE   O11 7736   1.762   1.358   3.163  0.1997 -0.0565  0.0412
   84SOPE    C1 7737   1.839   1.236   3.191  1.0490 -0.1950 -0.5413
   84SOPE    HA 7738   1.937   1.229   3.140 -0.2651 -1.9742 -2.9876
   84SOPE    HB 7739   1.781   1.153   3.147  0.4082  0.8110 -1.6600
   84SOPE    C2 7740   1.864   1.221   3.348  0.1966  0.4333  0.5329
   84SOPE    HS 7741   1.932   1.134   3.362  2.4494  1.8624 -0.8934
   84SOPE   O21 7742   1.745   1.203   3.422  0.1932  0.4180 -0.0363
   84SOPE   C21 7743   1.699   1.084   3.423  0.6510  0.5086 -0.2361
   84SOPE   O22 7744   1.740   0.992   3.360  0.0697 -0.2889  0.1647
   84SOPE   C22 7745   1.577   1.078   3.521 -0.2050  0.3357  0.0988
   84SOPE   H2R 7746   1.539   0.974   3.517 -0.8429  0.6057 -2.1614
   84SOPE   H2S 7747   1.498   1.137   3.470 -0.2671  0.2027  0.0413
   84SOPE    C3 7748   1.930   1.351   3.409 -0.3582  0.3458  0.7729
   84SOPE    HX 7749   1.855   1.432   3.403 -0.7482 -0.0306  0.5368
   84SOPE    HY 7750   2.014   1.394   3.349 -0.5452 -1.5841 -1.0143
   84SOPE   O31 7751   1.966   1.337   3.548 -1.0448  0.0407  0.1674
   84SOPE   C31 7752   2.074   1.251   3.565  0.1775 -0.3248  0.4230
   84SOPE   O32 7753   2.131   1.195   3.479  0.5728 -0.2451  0.1713
   84SOPE   C32 7754   2.110   1.251   3.711  0.4526  0.4223 -0.4270
   84SOPE   H2X 7755   2.043   1.324   3.761 -0.0018 -0.4558  0.2688
   84SOPE   H2Y 7756   2.218   1.279   3.717  0.0523  1.9761  0.0382
   84SOPE   C23 7757   1.602   1.127   3.662  0.1542  0.0151  0.7907
   84SOPE   H3R 7758   1.613   1.237   3.674 -2.3033  0.4655 -0.3538
   84SOPE   H3S 7759   1.700   1.086   3.694  0.5882  0.9318  0.6413
   84SOPE   C24 7760   1.498   1.074   3.759  0.1932  0.4834  0.2157
   84SOPE   H4R 7761   1.402   1.105   3.714 -0.0278  1.4757  1.3093
   84SOPE   H4S 7762   1.492   0.964   3.771  1.2299  0.3550 -0.3306
   84SOPE   C25 7763   1.499   1.150   3.893 -0.1874 -0.1389 -0.9491
   84SOPE   H5R 7764   1.492   1.260   3.880  1.0225 -0.1283 -1.6634
   84SOPE   H5S 7765   1.407   1.120   3.947 -0.8457  2.6835 -0.3229
   84SOPE   C26 7766   1.629   1.128   3.977 -0.1630  0.3892 -0.3319
   84SOPE   H6R 7767   1.657   1.022   3.961  0.1333  0.1423  1.5817
   84SOPE   H6S 7768   1.717   1.187   3.942  1.0805  2.1282  4.7836
   84SOPE   C27 7769   1.596   1.148   4.133 -0.2276  0.6590 -0.6744
   84SOPE   H7R 7770   1.680   1.202   4.182 -1.0604  1.2080  0.1829
   84SOPE   H7S 7771   1.514   1.223   4.129  0.9630  2.0492  0.1212
   84SOPE   C28 7772   1.565   1.021   4.215  0.1645 -0.1997 -0.7798
   84SOPE   H8R 7773   1.551   1.056   4.320 -1.8348  0.6662 -1.2857
   84SOPE   H8S 7774   1.463   0.992   4.181  0.0166  0.4151 -0.8691
   84SOPE   C29 7775   1.670   0.913   4.194  0.2965  0.6419 -0.2967
   84SOPE   H91 7776   1.679   0.869   4.093  2.4481 -0.8734  0.4688
   84SOPE  C210 7777   1.764   0.871   4.281  0.3797  0.2876 -0.1667
   84SOPE  H101 7778   1.830   0.788   4.251  0.0783 -0.1508  0.3739
   84SOPE  C211 7779   1.783   0.922   4.425  0.4193  0.3646  0.0175
   84SOPE  H11R 7780   1.722   1.014   4.432  0.2435  0.2262  0.3535
   84SOPE  H11S 7781   1.889   0.952   4.437  0.3123  0.6019  0.4076
   84SOPE  C212 7782   1.726   0.830   4.526  0.5090  0.0361 -0.3795
   84SOPE  H12R 7783   1.790   0.739   4.529  1.2594  0.5832  1.0581
   84SOPE  H12S 7784   1.623   0.792   4.514  1.2368 -2.5982  0.9696
   84SOPE  C213 7785   1.728   0.888   4.672 -0.0837 -1.1161  0.5027
   84SOPE  H13R 7786   1.637   0.952   4.674  0.9729  0.4890 -0.2643
   84SOPE  H13S 7787   1.803   0.970   4.670  0.4339 -1.5920 -0.6008
   84SOPE  C214 7788   1.738   0.790   4.781  1.1253 -0.2171  0.5788
   84SOPE  H14R 7789   1.662   0.710   4.768 -1.4160  2.2750 -0.9600
   84SOPE  H14S 7790   1.706   0.847   4.871 -0.1419 -1.3172  0.8565
   84SOPE  C215 7791   1.874   0.726   4.812 -0.9783  0.2569 -0.6334
   84SOPE  H15R 7792   1.911   0.681   4.718  2.1134  1.6435 -0.1870
   84SOPE  H15S 7793   1.855   0.644   4.885 -1.7486  2.5794  1.9606
   84SOPE  C216 7794   1.977   0.810   4.882 -0.1547 -0.2200 -0.9577
   84SOPE  H16R 7795   1.968   0.781   4.989  1.2345 -0.5966 -0.9345
   84SOPE  H16S 7796   1.961   0.919   4.869  1.3119  0.0370 -0.7082
   84SOPE  C217 7797   2.116   0.775   4.838  0.4414  0.2153 -0.3241
   84SOPE  H17R 7798   2.117   0.792   4.728 -0.4022  0.4133 -0.3098
   84SOPE  H17S 7799   2.136   0.666   4.851  0.1470  0.2835  0.7881
   84SOPE  C218 7800   2.224   0.863   4.905  0.1577  0.4190  0.3096
   84SOPE  H18R 7801   2.316   0.801   4.911  0.4115  0.5118 -1.8945
   84SOPE  H18S 7802   2.200   0.895   5.009  0.0325 -0.7846  0.6699
   84SOPE  H18T 7803   2.258   0.946   4.839 -2.0933 -0.7886 -2.6059
   84SOPE   C33 7804   2.089   1.119   3.788 -0.0150 -0.5469 -0.6059
   84SOPE   H3X 7805   2.157   1.042   3.745  0.3990 -0.5671  0.0555
   84SOPE   H3Y 7806   1.988   1.081   3.761 -1.4415  2.9834 -0.7152
   84SOPE   C34 7807   2.124   1.128   3.938  0.5556 -0.3446  0.3151
   84SOPE   H4X 7808   2.220   1.184   3.948 -0.1386  1.3404 -1.8830
   84SOPE   H4Y 7809   2.141   1.023   3.972  1.0346  0.2038  1.8538
   84SOPE   C35 7810   2.013   1.194   4.027  0.2220 -0.3756  0.1488
   84SOPE   H5X 7811   1.919   1.139   4.009 -1.9706  3.0726  0.0550
   84SOPE   H5Y 7812   1.997   1.295   3.982 -0.2735 -0.2224  0.6572
   84SOPE   C36 7813   2.044   1.213   4.179  0.1971  0.5942 -0.1092
   84SOPE   H6X 7814   1.983   1.294   4.225  0.2280 -0.7395  2.4778
   84SOPE   H6Y 7815   2.146   1.255   4.190 -0.4462  1.6922  2.3102
   84SOPE   C37 7816   2.041   1.084   4.264  0.6960 -0.3431 -0.1252
   84SOPE   H7X 7817   1.971   1.012   4.217  0.1660  0.3790 -0.4713
   84SOPE   H7Y 7818   2.018   1.116   4.367  1.6213  3.7315 -0.9772
   84SOPE   C38 7819   2.185   1.028   4.270  0.0730  0.8456 -0.1966
   84SOPE   H8X 7820   2.264   1.105   4.280 -1.4791  2.4594  0.2635
   84SOPE   H8Y 7821   2.194   0.959   4.183 -1.2403 -0.4998  0.6666
   84SOPE   C39 7822   2.199   0.942   4.394  0.2257 -0.2225 -0.8701
   84SOPE   H9X 7823   2.103   0.886   4.396 -2.1581  3.4119 -2.1445
   84SOPE   H9Y 7824   2.186   1.009   4.482  0.0866  0.0201 -1.0735
   84SOPE  C310 7825   2.332   0.861   4.405  0.2525 -0.0208  0.2155
   84SOPE  H10X 7826   2.426   0.911   4.372  1.1718 -0.9689  1.3143
   84SOPE  H10Y 7827   2.313   0.786   4.325  0.7827  0.7300 -0.6430
   84SOPE  C311 7828   2.346   0.785   4.541 -0.5474 -0.6306 -1.0134
   84SOPE  H11X 7829   2.255   0.730   4.574 -0.8953  1.1580  1.3444
   84SOPE  H11Y 7830   2.350   0.872   4.610  2.6371 -0.5145 -1.2118
   84SOPE  C312 7831   2.474   0.708   4.548  0.2035  0.1089 -0.3516
   84SOPE  H12X 7832   2.489   0.681   4.655  0.7292  1.6718  0.0023
   84SOPE  H12Y 7833   2.549   0.783   4.515 -2.5342  2.5127 -1.5600
   84SOPE  C313 7834   2.471   0.584   4.463 -0.2932  0.4304 -0.3304
   84SOPE  H13X 7835   2.411   0.611   4.373  1.5312 -0.5393 -1.9091
   84SOPE  H13Y 7836   2.426   0.498   4.516  1.2536  0.7967  1.7132
   84SOPE  C314 7837   2.607   0.543   4.410 -0.4870 -0.7121 -0.9573
   84SOPE  H14X 7838   2.664   0.530   4.505  0.5134  2.4105 -1.0210
   84SOPE  H14Y 7839   2.656   0.630   4.361  0.7030 -0.4933  0.5331
   84SOPE  C315 7840   2.614   0.424   4.312  0.2434  0.3711 -0.8521
   84SOPE  H15X 7841   2.548   0.344   4.351 -0.0900  1.6063  1.2208
   84SOPE  H15Y 7842   2.716   0.382   4.321 -0.2711 -0.8183 -0.4286
   84SOPE  C316 7843   2.592   0.452   4.166  0.1040 -0.4400 -0.0869
   84SOPE  H16X 7844   2.651   0.543   4.144 -0.0397 -0.8309 -2.3241
   84SOPE  H16Y 7845   2.490   0.472   4.129  0.1363 -0.1698 -0.0319
   84SOPE  C317 7846   2.656   0.336   4.084  0.2315 -0.7659  0.0421
   84SOPE  H17X 7847   2.604   0.239   4.095  2.3854 -1.7790  2.0772
   84SOPE  H17Y 7848   2.756   0.322   4.129  1.5565  0.8326 -2.2069
   84SOPE  C318 7849   2.669   0.387   3.943  0.3110  0.1962 -0.1755
   84SOPE  H18X 7850   2.703   0.312   3.868  2.4166  0.1758  0.7242
   84SOPE  H18Y 7851   2.739   0.472   3.932 -1.9825  2.2690  0.3607
   84SOPE  H18Z 7852   2.565   0.420   3.923 -0.2752 -0.6899  1.2552
   85SOPE     N 7853   4.581   2.320   2.550 -0.0966 -0.1848 -0.2986
   85SOPE   HN1 7854   4.612   2.237   2.605 -0.7700 -0.2391  0.0164
   85SOPE   HN2 7855   4.617   2.306   2.454  0.0724 -1.7165 -0.0361
   85SOPE   HN3 7856   4.624   2.401   2.599 -4.1515  0.9595  1.8578
   85SOPE   C12 7857   4.435   2.339   2.554 -0.5857 -0.6256  0.6200
   85SOPE  H12A 7858   4.387   2.247   2.512 -1.4732 -0.3419  0.9911
   85SOPE  H12B 7859   4.414   2.418   2.480  0.5935 -0.8982 -0.0258
   85SOPE   C11 7860   4.399   2.363   2.699  0.2384  0.0728 -0.1923
   85SOPE  H11A 7861   4.411   2.268   2.755  2.6101  0.2125 -0.3938
   85SOPE  H11B 7862   4.294   2.400   2.697 -0.1646 -1.0379 -1.0699
   85SOPE     P 7863   4.561   2.428   2.898 -0.3360  0.0709 -0.0034
   85SOPE   O13 7864   4.574   2.563   2.958  0.1962 -0.0692  0.0884
   85SOPE   O14 7865   4.687   2.354   2.880 -0.9972 -0.0230  0.4276
   85SOPE   O12 7866   4.487   2.454   2.763  0.0529 -1.1932  0.4197
   85SOPE   O11 7867   4.466   2.339   2.985 -0.6394 -0.5348  0.0332
   85SOPE    C1 7868   4.349   2.392   3.045 -0.6347  0.5282  0.1172
   85SOPE    HA 7869   4.274   2.380   2.964 -0.7378  1.6952  0.0288
   85SOPE    HB 7870   4.357   2.500   3.068  2.0055  0.9695 -2.2397
   85SOPE    C2 7871   4.303   2.311   3.165  0.6755  0.3170  0.7679
   85SOPE    HS 7872   4.212   2.360   3.206 -0.4330 -2.6332  2.1112
   85SOPE   O21 7873   4.409   2.283   3.261  0.3345 -0.0743 -0.3000
   85SOPE   C21 7874   4.432   2.380   3.342 -0.2576  0.3032 -0.1617
   85SOPE   O22 7875   4.377   2.487   3.349  0.0213 -0.1951 -0.0484
   85SOPE   C22 7876   4.553   2.343   3.427 -0.0652  0.5678 -0.3785
   85SOPE   H2R 7877   4.649   2.381   3.385  0.4476  0.7777  0.9080
   85SOPE   H2S 7878   4.558   2.232   3.429  0.3698  0.5867 -0.0354
   85SOPE    C3 7879   4.250   2.168   3.111 -0.0739  0.7957  0.3009
   85SOPE    HX 7880   4.307   2.152   3.017  0.3726  0.1740  0.6748
   85SOPE    HY 7881   4.147   2.170   3.070  0.3796 -0.6832 -0.9917
   85SOPE   O31 7882   4.272   2.058   3.207  0.5227 -0.3918 -0.3118
   85SOPE   C31 7883   4.169   2.041   3.290 -0.3587  0.1284 -0.0920
   85SOPE   O32 7884   4.079   2.120   3.304 -0.1835  0.1509 -0.2146
   85SOPE   C32 7885   4.185   1.911   3.368  0.1499 -0.0829 -0.2606
   85SOPE   H2X 7886   4.280   1.910   3.425  0.3568 -2.6277 -0.5504
   85SOPE   H2Y 7887   4.212   1.839   3.288  0.2222  2.1121 -2.3497
   85SOPE   C23 7888   4.563   2.410   3.568  0.4002 -0.2056 -0.4476
   85SOPE   H3R 7889   4.470   2.397   3.627  0.2291  0.0014 -0.6667
   85SOPE   H3S 7890   4.572   2.518   3.544 -0.1311 -0.0532  0.0328
   85SOPE   C24 7891   4.669   2.376   3.671 -0.0908  0.3241 -0.2044
   85SOPE   H4R 7892   4.763   2.369   3.612 -0.6869  0.7694 -1.2508
   85SOPE   H4S 7893   4.658   2.469   3.731 -0.0391 -1.1797  2.2314
   85SOPE   C25 7894   4.637   2.257   3.764  0.0861 -0.2825  0.2346
   85SOPE   H5R 7895   4.709   2.263   3.849 -1.0058  0.1053  1.1693
   85SOPE   H5S 7896   4.532   2.265   3.800  0.0844  1.7093 -0.0739
   85SOPE   C26 7897   4.662   2.119   3.706 -0.0642  0.4383 -0.1583
   85SOPE   H6R 7898   4.583   2.101   3.629 -0.8670  3.6859 -0.2420
   85SOPE   H6S 7899   4.759   2.108   3.652  0.1835 -1.6786  0.6320
   85SOPE   C27 7900   4.642   2.003   3.815 -0.0106  0.1927  0.3616
   85SOPE   H7R 7901   4.700   2.013   3.909  2.3748  1.4817 -1.1674
   85SOPE   H7S 7902   4.535   2.004   3.845 -0.5008 -0.3186 -1.2768
   85SOPE   C28 7903   4.684   1.866   3.746  0.9781 -0.2382  0.2886
   85SOPE   H8R 7904   4.790   1.878   3.713  1.8023  0.2292  2.8924
   85SOPE   H8S 7905   4.702   1.791   3.826  1.9202 -0.5157 -0.1689
   85SOPE   C29 7906   4.597   1.813   3.635  0.5007  0.7650  0.8305
   85SOPE   H91 7907   4.602   1.872   3.542  1.3839 -0.9549 -0.2441
   85SOPE  C210 7908   4.516   1.706   3.637 -0.0724  0.4524  0.6178
   85SOPE  H101 7909   4.461   1.663   3.552  0.5163 -3.2134  1.8897
   85SOPE  C211 7910   4.506   1.617   3.761 -0.4319 -0.4940 -0.4412
   85SOPE  H11R 7911   4.602   1.614   3.817  0.6146  0.0838 -2.1328
   85SOPE  H11S 7912   4.482   1.513   3.729  1.8339 -1.2983  0.3094
   85SOPE  C212 7913   4.394   1.667   3.853  0.8503 -0.1881  0.2480
   85SOPE  H12R 7914   4.299   1.679   3.796  0.9068 -0.5796  0.0665
   85SOPE  H12S 7915   4.430   1.763   3.894  1.9402 -0.5790  0.2413
   85SOPE  C213 7916   4.365   1.570   3.970  0.3074 -0.0204  0.0933
   85SOPE  H13R 7917   4.340   1.466   3.940  1.2510 -0.1296 -0.3394
   85SOPE  H13S 7918   4.272   1.610   4.015 -2.3154 -2.1975 -2.8767
   85SOPE  C214 7919   4.482   1.551   4.064  1.4489  1.3939 -0.0067
   85SOPE  H14R 7920   4.505   1.648   4.112  0.6003  1.6833 -0.1727
   85SOPE  H14S 7921   4.571   1.513   4.011  1.3027 -0.6710  1.1113
   85SOPE  C215 7922   4.456   1.449   4.187  0.2578 -0.6239 -0.2074
   85SOPE  H15R 7923   4.551   1.428   4.242  0.6196  0.4146 -0.4110
   85SOPE  H15S 7924   4.431   1.353   4.136 -1.8304 -0.5708  0.6537
   85SOPE  C216 7925   4.346   1.504   4.277 -1.3426  0.3695  0.0660
   85SOPE  H16R 7926   4.250   1.482   4.226 -2.2221  1.0420  1.3767
   85SOPE  H16S 7927   4.371   1.609   4.302 -1.8307  0.9209 -1.6834
   85SOPE  C217 7928   4.335   1.426   4.412  0.6449 -0.3866 -0.1546
   85SOPE  H17R 7929   4.427   1.451   4.468  1.0887  1.1782 -1.5116
   85SOPE  H17S 7930   4.331   1.316   4.397 -0.8089 -0.5952  1.4043
   85SOPE  C218 7931   4.211   1.464   4.498  0.1530 -0.3199 -0.0941
   85SOPE  H18R 7932   4.139   1.531   4.446  0.7093 -0.0503 -0.5293
   85SOPE  H18S 7933   4.242   1.528   4.584 -1.3498 -0.9527  0.9716
   85SOPE  H18T 7934   4.166   1.373   4.544  1.0809 -1.0094 -0.5237
   85SOPE   C33 7935   4.061   1.867   3.448 -0.4208  0.2805  0.3146
   85SOPE   H3X 7936   3.983   1.850   3.372 -0.8066 -0.1470  0.8000
   85SOPE   H3Y 7937   4.023   1.936   3.527 -0.1948 -1.3797  1.9491
   85SOPE   C34 7938   4.085   1.729   3.514  0.5850 -1.3866  0.8928
   85SOPE   H4X 7939   4.182   1.731   3.567  1.0714  1.0400  0.0744
   85SOPE   H4Y 7940   4.093   1.646   3.441  0.3568  0.2213 -1.0525
   85SOPE   C35 7941   3.963   1.695   3.606  0.8296  0.5742 -0.0246
   85SOPE   H5X 7942   3.935   1.589   3.584  0.5216  1.0169 -1.9218
   85SOPE   H5Y 7943   3.873   1.756   3.588 -1.4008 -1.9321  1.7781
   85SOPE   C36 7944   3.998   1.701   3.752 -0.7384 -0.7467 -0.2066
   85SOPE   H6X 7945   4.037   1.803   3.777 -0.6365 -1.2470  1.8470
   85SOPE   H6Y 7946   4.086   1.638   3.777  1.0480  0.9123 -1.9056
   85SOPE   C37 7947   3.883   1.664   3.841 -0.2386  0.4479 -0.0376
   85SOPE   H7X 7948   3.869   1.555   3.829 -1.6039  0.5405  0.4462
   85SOPE   H7Y 7949   3.792   1.724   3.819  1.4351  3.2870  0.2916
   85SOPE   C38 7950   3.896   1.695   3.988  0.1259  0.2194  0.6348
   85SOPE   H8X 7951   3.873   1.803   3.997  2.9241  1.2095 -2.1417
   85SOPE   H8Y 7952   4.002   1.679   4.016 -0.0852 -0.5038  1.0313
   85SOPE   C39 7953   3.795   1.618   4.075  0.0311  0.9080 -0.0818
   85SOPE   H9X 7954   3.782   1.512   4.044  1.2804 -0.3291  3.1934
   85SOPE   H9Y 7955   3.695   1.664   4.064 -1.2312 -1.6193  0.1026
   85SOPE  C310 7956   3.841   1.612   4.224  0.8080 -0.6950  0.6016
   85SOPE  H10X 7957   3.840   1.718   4.258 -2.8947  0.1243 -1.4993
   85SOPE  H10Y 7958   3.940   1.562   4.224  1.1783 -0.0746 -1.4400
   85SOPE  C311 7959   3.745   1.536   4.310  0.0570 -0.2568  0.8322
   85SOPE  H11X 7960   3.726   1.434   4.271 -1.1095 -0.5228  2.0431
   85SOPE  H11Y 7961   3.654   1.599   4.304  2.3498  3.2228 -0.7990
   85SOPE  C312 7962   3.792   1.519   4.451 -0.5418  0.2392  0.4327
   85SOPE  H12X 7963   3.808   1.620   4.493  3.0852  0.7482 -1.7108
   85SOPE  H12Y 7964   3.892   1.471   4.448 -0.2066  0.9432  0.0723
   85SOPE  C313 7965   3.691   1.438   4.528  0.2832 -0.2184 -0.0292
   85SOPE  H13X 7966   3.602   1.430   4.462 -0.5416 -3.5837  1.2868
   85SOPE  H13Y 7967   3.670   1.481   4.628 -0.6584  1.0285 -0.7291
   85SOPE  C314 7968   3.732   1.298   4.562 -0.3329  0.2133  0.4876
   85SOPE  H14X 7969   3.814   1.303   4.637 -2.7907  0.4213  3.3535
   85SOPE  H14Y 7970   3.766   1.250   4.468  0.9900 -0.2892  1.2075
   85SOPE  C315 7971   3.619   1.207   4.621 -1.2940 -0.1371  0.0746
   85SOPE  H15X 7972   3.662   1.109   4.652 -0.1021  0.5166  0.5505
   85SOPE  H15Y 7973   3.549   1.190   4.537 -2.5396 -2.5581  1.4838
   85SOPE  C316 7974   3.541   1.268   4.738 -0.4566 -0.1716  0.2929
   85SOPE  H16X 7975   3.471   1.340   4.689  0.4551  0.8574  0.4511
   85SOPE  H16Y 7976   3.607   1.333   4.801 -1.2844  0.2943  0.7005
   85SOPE  C317 7977   3.456   1.169   4.826 -1.3408 -0.8253 -0.0845
   85SOPE  H17X 7978   3.398   1.108   4.752 -1.0115  0.7349 -1.6965
   85SOPE  H17Y 7979   3.379   1.222   4.886 -1.0792 -1.2073  0.5939
   85SOPE  C318 7980   3.527   1.072   4.919 -0.4097 -0.2980  0.4351
   85SOPE  H18X 7981   3.459   0.989   4.947  0.6153 -1.0625  0.7559
   85SOPE  H18Y 7982   3.574   1.116   5.010  1.0854  0.3315 -0.6028
   85SOPE  H18Z 7983   3.609   1.024   4.860 -1.0804 -2.7694  1.3798
   86SOPE     N 7984   4.271   6.828   2.440  0.0459 -0.6766  0.3348
   86SOPE   HN1 7985   4.304   6.860   2.533  2.9644 -2.4515  0.0410
   86SOPE   HN2 7986   4.179   6.872   2.416 -0.1515 -0.7175  1.0151
   86SOPE   HN3 7987   4.252   6.727   2.456 -3.2506 -0.1160  0.7021
   86SOPE   C12 7988   4.369   6.858   2.334 -0.3763  0.1049  0.3172
   86SOPE  H12A 7989   4.364   6.966   2.310  3.1441  0.3189 -0.0386
   86SOPE  H12B 7990   4.341   6.794   2.248 -1.5843  1.0777 -0.0427
   86SOPE   C11 7991   4.506   6.818   2.388  0.5478  0.3110  0.1678
   86SOPE  H11A 7992   4.582   6.834   2.309 -0.2497  0.5447 -0.5717
   86SOPE  H11B 7993   4.515   6.710   2.413 -0.2661  0.0527 -0.5768
   86SOPE     P 7994   4.679   6.920   2.554 -0.2829  0.2448 -0.3933
   86SOPE   O13 7995   4.680   7.042   2.631 -0.2831  0.0535  0.2158
   86SOPE   O14 7996   4.771   6.918   2.435  0.0849  0.4717  0.5821
   86SOPE   O12 7997   4.533   6.896   2.500  0.0776 -0.6494 -0.1462
   86SOPE   O11 7998   4.704   6.791   2.633  0.0445  0.1672  0.0616
   86SOPE    C1 7999   4.623   6.743   2.743 -0.3216  0.3750 -0.6847
   86SOPE    HA 8000   4.644   6.636   2.763 -0.6832  0.4103 -0.1132
   86SOPE    HB 8001   4.516   6.752   2.714 -0.3797 -0.6534 -0.8349
   86SOPE    C2 8002   4.650   6.812   2.871 -0.1732 -0.6350 -0.9726
   86SOPE    HS 8003   4.618   6.918   2.873  1.2288 -0.1867 -0.7976
   86SOPE   O21 8004   4.795   6.813   2.898 -0.1343  0.5621 -0.2958
   86SOPE   C21 8005   4.829   6.911   2.976 -0.0836 -0.1635  0.6398
   86SOPE   O22 8006   4.748   6.996   3.021  0.3324 -0.0638  0.0294
   86SOPE   C22 8007   4.976   6.912   3.008 -0.3725  0.0172  0.1975
   86SOPE   H2R 8008   5.015   7.004   2.959 -0.7255 -1.2517 -2.6736
   86SOPE   H2S 8009   5.027   6.836   2.945  3.6161  3.2042 -0.8642
   86SOPE    C3 8010   4.561   6.740   2.985  0.0658 -0.1334 -0.0180
   86SOPE    HX 8011   4.607   6.642   3.009 -2.8115 -1.3928  0.8101
   86SOPE    HY 8012   4.466   6.708   2.936 -0.2737  0.4368  0.2569
   86SOPE   O31 8013   4.536   6.824   3.104  0.6621 -0.2483  0.0020
   86SOPE   C31 8014   4.618   6.800   3.203 -0.1263 -0.5859  0.4934
   86SOPE   O32 8015   4.707   6.714   3.200  0.2679 -0.0866 -0.2725
   86SOPE   C32 8016   4.601   6.898   3.318 -0.2022  0.2993 -0.9734
   86SOPE   H2X 8017   4.505   6.953   3.331 -0.1213  0.2405 -0.0923
   86SOPE   H2Y 8018   4.673   6.982   3.307  0.3288  0.3938  2.2795
   86SOPE   C23 8019   4.996   6.902   3.165  0.3855 -0.5868  0.8598
   86SOPE   H3R 8020   4.946   6.813   3.208  2.2422 -1.8054  0.6396
   86SOPE   H3S 8021   4.968   7.001   3.207  0.3361 -0.3810  0.3383
   86SOPE   C24 8022   5.145   6.885   3.200 -0.0102 -0.6476  0.3475
   86SOPE   H4R 8023   5.196   6.801   3.150 -2.1019 -2.1106  0.5303
   86SOPE   H4S 8024   5.198   6.975   3.160  1.8681  0.1590  4.1563
   86SOPE   C25 8025   5.164   6.881   3.355 -0.1693  0.0291  0.7786
   86SOPE   H5R 8026   5.269   6.903   3.384 -0.0531  2.4736 -1.1522
   86SOPE   H5S 8027   5.097   6.961   3.394 -2.0324 -0.9514 -0.2393
   86SOPE   C26 8028   5.113   6.750   3.432 -0.1547 -0.5136 -0.3979
   86SOPE   H6R 8029   5.012   6.715   3.404  0.2637 -1.2281 -1.0381
   86SOPE   H6S 8030   5.186   6.672   3.400  2.4164  1.5475  0.0087
   86SOPE   C27 8031   5.112   6.781   3.582 -0.3765  0.5998 -0.2008
   86SOPE   H7R 8032   5.217   6.803   3.610  0.0322 -0.3531 -0.9148
   86SOPE   H7S 8033   5.045   6.868   3.600 -1.4247  0.0085 -1.0851
   86SOPE   C28 8034   5.070   6.652   3.650 -0.1461 -0.6732  0.4901
   86SOPE   H8R 8035   4.974   6.636   3.596 -0.4226 -3.0173  1.5499
   86SOPE   H8S 8036   5.133   6.566   3.620 -1.3435 -1.0445 -1.0480
   86SOPE   C29 8037   5.039   6.635   3.798 -0.9110  0.3662 -0.2824
   86SOPE   H91 8038   4.951   6.572   3.815 -0.4110 -0.5764 -1.0676
   86SOPE  C210 8039   5.114   6.678   3.903  0.8074  0.5022  0.6201
   86SOPE  H101 8040   5.067   6.657   4.000 -0.0915 -1.9642 -0.2505
   86SOPE  C211 8041   5.240   6.761   3.887  0.0811  0.1119 -0.4994
   86SOPE  H11R 8042   5.217   6.849   3.823  0.6795  0.1150 -0.7149
   86SOPE  H11S 8043   5.322   6.708   3.834  0.8863 -1.5970  2.2819
   86SOPE  C212 8044   5.291   6.812   4.023 -0.0890 -0.4478 -0.4161
   86SOPE  H12R 8045   5.381   6.876   4.009  0.7497 -1.6512 -0.7019
   86SOPE  H12S 8046   5.345   6.723   4.061  0.4124 -0.5066 -1.2594
   86SOPE  C213 8047   5.192   6.873   4.119  0.2763  0.2169 -0.1493
   86SOPE  H13R 8048   5.133   6.794   4.170  0.9979 -0.2962 -0.0936
   86SOPE  H13S 8049   5.121   6.939   4.065  0.7756 -0.1108 -1.2326
   86SOPE  C214 8050   5.267   6.951   4.228  0.6787  0.0539 -0.1524
   86SOPE  H14R 8051   5.188   7.008   4.280  0.0832  0.0421 -1.0243
   86SOPE  H14S 8052   5.335   7.027   4.183 -1.3303  1.4636 -0.9403
   86SOPE  C215 8053   5.347   6.862   4.326 -0.7344 -0.9714  0.2790
   86SOPE  H15R 8054   5.433   6.816   4.273  0.0258  2.4612 -1.7389
   86SOPE  H15S 8055   5.282   6.801   4.393 -2.2945  2.4671  2.1765
   86SOPE  C216 8056   5.421   6.934   4.442  0.3521 -0.2713 -0.2631
   86SOPE  H16R 8057   5.345   6.984   4.505 -0.4424 -1.8396  0.0868
   86SOPE  H16S 8058   5.475   7.010   4.382  1.0749 -2.1828 -2.1889
   86SOPE  C217 8059   5.509   6.849   4.524  0.4078  0.5420 -0.4182
   86SOPE  H17R 8060   5.580   6.909   4.584  2.4230 -0.8740 -1.2600
   86SOPE  H17S 8061   5.556   6.777   4.453  1.7993 -0.3317  1.3255
   86SOPE  C218 8062   5.425   6.753   4.624 -0.8816  0.3165 -1.1795
   86SOPE  H18R 8063   5.429   6.809   4.720  2.4773 -1.5293 -0.0797
   86SOPE  H18S 8064   5.478   6.655   4.625  0.3114  0.8695 -3.2335
   86SOPE  H18T 8065   5.326   6.734   4.578 -1.6819 -0.1329  0.6724
   86SOPE   C33 8066   4.641   6.823   3.448  0.7104 -0.8600  0.2292
   86SOPE   H3X 8067   4.747   6.793   3.433  1.5842  1.6654  0.9003
   86SOPE   H3Y 8068   4.585   6.731   3.474 -2.5040  1.2591  1.3922
   86SOPE   C34 8069   4.637   6.912   3.579  0.6560  0.5389 -0.2281
   86SOPE   H4X 8070   4.532   6.942   3.602  0.9340  0.5457  1.0971
   86SOPE   H4Y 8071   4.702   7.001   3.566  0.5791  0.6388  0.0722
   86SOPE   C35 8072   4.669   6.831   3.708 -0.0378 -0.0664 -0.2871
   86SOPE   H5X 8073   4.729   6.740   3.690 -1.5589 -1.5190  1.5493
   86SOPE   H5Y 8074   4.574   6.784   3.739 -0.3149 -0.1235 -1.1862
   86SOPE   C36 8075   4.721   6.924   3.822  0.1952  0.4682  1.0285
   86SOPE   H6X 8076   4.654   7.009   3.797  2.7438  2.1414 -0.6965
   86SOPE   H6Y 8077   4.823   6.955   3.791 -0.6583  1.4829 -0.9374
   86SOPE   C37 8078   4.728   6.852   3.952 -0.0511  0.0031 -0.3287
   86SOPE   H7X 8079   4.786   6.760   3.933 -0.5913 -0.4854  0.3268
   86SOPE   H7Y 8080   4.627   6.817   3.982 -1.2253  2.1698 -1.5083
   86SOPE   C38 8081   4.794   6.937   4.059  0.2369 -0.0524 -0.6305
   86SOPE   H8X 8082   4.731   7.026   4.078 -0.6710 -0.9124  0.5401
   86SOPE   H8Y 8083   4.892   6.978   4.027  1.2755 -1.4760  0.6406
   86SOPE   C39 8084   4.811   6.853   4.182  0.1203  0.5681 -0.9740
   86SOPE   H9X 8085   4.887   6.774   4.166  0.7736  0.9010  0.3413
   86SOPE   H9Y 8086   4.719   6.795   4.209  0.1367  0.0492 -1.9904
   86SOPE  C310 8087   4.856   6.950   4.294  0.5465 -0.5834  0.3274
   86SOPE  H10X 8088   4.785   7.035   4.292 -0.3965 -1.2690 -3.6799
   86SOPE  H10Y 8089   4.954   6.996   4.268 -0.7852  1.8558 -0.6875
   86SOPE  C311 8090   4.865   6.882   4.429 -0.5442  0.1717 -0.0634
   86SOPE  H11X 8091   4.955   6.817   4.424  0.4788  1.6126 -1.8553
   86SOPE  H11Y 8092   4.777   6.825   4.464 -0.0323 -0.0034  0.9808
   86SOPE  C312 8093   4.872   6.988   4.533 -0.8138  0.3764 -0.0162
   86SOPE  H12X 8094   4.862   6.947   4.636  4.2335  1.4376  1.1479
   86SOPE  H12Y 8095   4.794   7.066   4.520  1.3288  2.5484 -0.5706
   86SOPE  C313 8096   5.010   7.063   4.526 -0.7528 -0.3546  0.7089
   86SOPE  H13X 8097   5.017   7.114   4.427  2.2992 -1.2166  0.3871
   86SOPE  H13Y 8098   5.089   6.985   4.533 -1.2585 -0.8633  0.8422
   86SOPE  C314 8099   5.027   7.159   4.644 -0.4630  0.3119  0.5408
   86SOPE  H14X 8100   4.929   7.212   4.647 -0.5898  0.1508 -0.6389
   86SOPE  H14Y 8101   5.099   7.236   4.610 -1.2596  0.7106 -0.2848
   86SOPE  C315 8102   5.078   7.087   4.776  0.3059 -0.1987  0.1812
   86SOPE  H15X 8103   5.018   6.995   4.792 -0.5129  0.1795 -0.6119
   86SOPE  H15Y 8104   5.070   7.160   4.859 -0.8837 -0.6601  0.4919
   86SOPE  C316 8105   5.225   7.064   4.767  0.3271 -0.6066  0.5693
   86SOPE  H16X 8106   5.280   7.156   4.736  1.2901  0.1582  4.0435
   86SOPE  H16Y 8107   5.251   6.977   4.703 -1.3008  0.2955 -1.4496
   86SOPE  C317 8108   5.278   7.034   4.909  0.1425 -0.1186  0.1028
   86SOPE  H17X 8109   5.238   7.086   4.999  1.3322 -0.8988  1.1238
   86SOPE  H17Y 8110   5.389   7.044   4.913  0.2904 -1.4978 -0.0092
   86SOPE  C318 8111   5.248   6.887   4.952 -0.1876  0.0024  0.8070
   86SOPE  H18X 8112   5.287   6.866   5.054  1.7996  0.1911  0.1393
   86SOPE  H18Y 8113   5.287   6.804   4.889  0.3141 -1.3523  2.7840
   86SOPE  H18Z 8114   5.138   6.878   4.951 -0.1526 -0.4263 -0.4380
   87SOPE     N 8115   6.820   5.119   2.265 -0.1038 -0.0993  0.1520
   87SOPE   HN1 8116   6.911   5.151   2.304 -0.5653 -0.8919  1.9713
   87SOPE   HN2 8117   6.803   5.018   2.284  1.0361  0.0876  2.5970
   87SOPE   HN3 8118   6.822   5.124   2.161 -0.1945 -1.2572  0.0815
   87SOPE   C12 8119   6.715   5.211   2.301 -0.0945  0.2805  0.3462
   87SOPE  H12A 8120   6.618   5.174   2.262 -0.2593  0.3084  0.7211
   87SOPE  H12B 8121   6.731   5.312   2.257 -0.2810  0.1243 -0.0869
   87SOPE   C11 8122   6.714   5.231   2.446  0.2425 -0.5705 -0.0252
   87SOPE  H11A 8123   6.647   5.315   2.474 -1.8239 -2.0392 -0.3205
   87SOPE  H11B 8124   6.814   5.265   2.482  0.1200  1.1204 -1.1621
   87SOPE     P 8125   6.557   5.098   2.600  0.1001 -0.2638 -0.0843
   87SOPE   O13 8126   6.533   4.957   2.641 -0.0451  0.2742  0.1687
   87SOPE   O14 8127   6.445   5.155   2.518  0.4924 -0.0762  0.4116
   87SOPE   O12 8128   6.683   5.111   2.517  0.1683  0.0972 -0.3097
   87SOPE   O11 8129   6.579   5.198   2.726 -0.5047  0.2283  0.4319
   87SOPE    C1 8130   6.680   5.171   2.826  0.1952  0.5851 -0.3188
   87SOPE    HA 8131   6.688   5.254   2.899  1.3808 -0.3520  0.6545
   87SOPE    HB 8132   6.784   5.164   2.788  0.8162  0.6002  1.3033
   87SOPE    C2 8133   6.650   5.047   2.922 -0.4064 -0.3591 -0.1357
   87SOPE    HS 8134   6.625   4.960   2.858 -0.2317 -0.1300 -0.5152
   87SOPE   O21 8135   6.533   5.078   3.008 -0.3693 -0.5619  0.3836
   87SOPE   C21 8136   6.490   4.979   3.082  0.3718 -0.4374 -0.0699
   87SOPE   O22 8137   6.531   4.868   3.080  0.6731  0.1968 -0.0714
   87SOPE   C22 8138   6.391   5.028   3.190  0.2856 -0.4654 -0.5547
   87SOPE   H2R 8139   6.335   4.938   3.222  1.6741 -1.6755 -1.4158
   87SOPE   H2S 8140   6.320   5.105   3.154  0.0131  0.0451  0.9840
   87SOPE    C3 8141   6.771   5.008   3.007 -0.3655 -0.2455  0.1784
   87SOPE    HX 8142   6.848   4.998   2.928  0.9965  1.3498  1.2281
   87SOPE    HY 8143   6.753   4.912   3.061 -1.4782  0.0579  0.3758
   87SOPE   O31 8144   6.817   5.111   3.103  0.8943  0.0087 -0.0643
   87SOPE   C31 8145   6.919   5.193   3.068  0.0770  0.1921  0.6981
   87SOPE   O32 8146   6.986   5.182   2.965 -0.0235 -0.3538  0.2918
   87SOPE   C32 8147   6.951   5.284   3.182 -0.6588  0.4091 -0.5976
   87SOPE   H2X 8148   6.910   5.384   3.158 -3.1720  0.1717  2.0993
   87SOPE   H2Y 8149   7.062   5.292   3.189 -0.5406  0.2000 -1.9751
   87SOPE   C23 8150   6.456   5.087   3.320  0.6952 -0.7084  0.4229
   87SOPE   H3R 8151   6.379   5.138   3.381  1.0594 -1.5025  1.5812
   87SOPE   H3S 8152   6.544   5.150   3.296  2.2101 -1.9131  2.5440
   87SOPE   C24 8153   6.518   4.973   3.411 -0.0099  0.5244 -0.7189
   87SOPE   H4R 8154   6.442   4.892   3.420  1.7676 -1.0131  1.8718
   87SOPE   H4S 8155   6.611   4.938   3.362  1.1670  2.1319  0.2301
   87SOPE   C25 8156   6.551   5.026   3.553  0.3455  0.6594 -0.0810
   87SOPE   H5R 8157   6.633   4.956   3.581  0.9293  0.0409 -3.0026
   87SOPE   H5S 8158   6.603   5.124   3.543  0.0342  1.1498  2.4843
   87SOPE   C26 8159   6.446   5.024   3.672  0.3957 -0.0645  0.0681
   87SOPE   H6R 8160   6.377   5.108   3.648 -0.0279 -0.9328 -1.9865
   87SOPE   H6S 8161   6.410   4.920   3.672  2.2669 -0.7622  0.3061
   87SOPE   C27 8162   6.515   5.054   3.811  0.1971  0.4356 -0.7988
   87SOPE   H7R 8163   6.451   5.004   3.887  0.2373  1.9164  0.2645
   87SOPE   H7S 8164   6.614   5.004   3.812 -0.0050 -0.0002  0.6365
   87SOPE   C28 8165   6.522   5.205   3.854  0.0711  0.2870 -0.2395
   87SOPE   H8R 8166   6.590   5.252   3.779  0.2969  1.0783  0.4426
   87SOPE   H8S 8167   6.418   5.244   3.854  1.0874  3.2286 -0.6659
   87SOPE   C29 8168   6.599   5.211   3.985  0.7312 -0.5591 -0.9024
   87SOPE   H91 8169   6.706   5.189   3.971  1.2991  2.1764 -1.3425
   87SOPE  C210 8170   6.550   5.249   4.104 -0.1668 -0.0606 -0.5076
   87SOPE  H101 8171   6.616   5.254   4.192 -0.3607 -0.7008 -0.3212
   87SOPE  C211 8172   6.407   5.301   4.142  0.1055  1.2175  0.6515
   87SOPE  H11R 8173   6.347   5.272   4.053  2.5998  0.1879 -0.7973
   87SOPE  H11S 8174   6.402   5.411   4.152  1.1518  1.3236  0.1094
   87SOPE  C212 8175   6.344   5.236   4.264 -0.0047 -0.3032 -0.1668
   87SOPE  H12R 8176   6.366   5.127   4.263  1.0755 -0.1510 -2.9208
   87SOPE  H12S 8177   6.235   5.254   4.266  0.2922  1.7145  0.2764
   87SOPE  C213 8178   6.407   5.301   4.391  0.1049 -0.0096  0.2882
   87SOPE  H13R 8179   6.383   5.409   4.392 -0.1324 -0.0615  0.9357
   87SOPE  H13S 8180   6.516   5.282   4.385  0.0502  0.1785 -2.8953
   87SOPE  C214 8181   6.349   5.235   4.520  0.9638  0.1859 -0.9234
   87SOPE  H14R 8182   6.380   5.128   4.526 -1.2151 -0.4432 -0.1385
   87SOPE  H14S 8183   6.238   5.236   4.523  0.9333  2.4605 -0.7157
   87SOPE  C215 8184   6.392   5.309   4.648 -0.0941  0.4637  0.5452
   87SOPE  H15R 8185   6.501   5.293   4.659 -0.5318 -2.2315  1.7555
   87SOPE  H15S 8186   6.369   5.247   4.738  0.9062 -2.0997 -0.8660
   87SOPE  C216 8187   6.325   5.439   4.691 -0.2348 -0.0434  1.0305
   87SOPE  H16R 8188   6.217   5.416   4.705 -0.2101 -1.7796 -0.9432
   87SOPE  H16S 8189   6.331   5.515   4.610  1.4423 -1.7644 -0.6068
   87SOPE  C217 8190   6.393   5.495   4.818 -0.2868 -0.2326 -0.0268
   87SOPE  H17R 8191   6.401   5.419   4.898 -0.8740 -0.0064  0.2503
   87SOPE  H17S 8192   6.314   5.559   4.861 -0.8496 -0.0867 -1.2176
   87SOPE  C218 8193   6.529   5.571   4.811  0.5980 -0.3482 -0.5734
   87SOPE  H18R 8194   6.541   5.621   4.910 -2.0553 -1.2180  0.2681
   87SOPE  H18S 8195   6.519   5.648   4.732  0.2778 -1.6318 -1.8461
   87SOPE  H18T 8196   6.608   5.493   4.800 -0.6230 -1.5577 -1.0382
   87SOPE   C33 8197   6.892   5.241   3.323 -0.2332  0.2782 -0.2744
   87SOPE   H3X 8198   6.908   5.132   3.340 -0.9504  0.2923  0.6021
   87SOPE   H3Y 8199   6.782   5.254   3.337 -0.9368 -4.5005  0.5492
   87SOPE   C34 8200   6.977   5.320   3.435  0.2278  0.1486 -0.5660
   87SOPE   H4X 8201   6.962   5.428   3.417 -1.2882  0.0540  0.0132
   87SOPE   H4Y 8202   7.082   5.293   3.412  0.0107 -0.0917 -1.2930
   87SOPE   C35 8203   6.953   5.263   3.574  0.2968  0.3181 -0.1883
   87SOPE   H5X 8204   6.977   5.157   3.595 -0.2496  0.4787  1.4117
   87SOPE   H5Y 8205   6.845   5.271   3.599  0.2047 -3.6653  1.4744
   87SOPE   C36 8206   7.021   5.355   3.684 -1.0329  0.6072 -0.5440
   87SOPE   H6X 8207   7.050   5.460   3.664  3.4619 -0.2024  0.6325
   87SOPE   H6Y 8208   7.117   5.300   3.696 -2.0879 -1.1005  0.5997
   87SOPE   C37 8209   6.949   5.335   3.819 -0.2687 -0.1408  0.3252
   87SOPE   H7X 8210   6.919   5.228   3.822  0.3393 -0.3514 -0.4517
   87SOPE   H7Y 8211   6.849   5.382   3.810 -0.1320 -0.1465 -2.0081
   87SOPE   C38 8212   7.035   5.383   3.937 -0.3494 -0.0635  0.1304
   87SOPE   H8X 8213   7.044   5.493   3.944  1.6841 -0.1882  0.0987
   87SOPE   H8Y 8214   7.140   5.346   3.932  0.4467  2.1559 -0.6695
   87SOPE   C39 8215   6.978   5.337   4.073  0.1255 -0.4276  0.8994
   87SOPE   H9X 8216   6.991   5.227   4.080  1.5654 -0.2494  1.4337
   87SOPE   H9Y 8217   6.870   5.362   4.083  0.1471  0.0767  0.0141
   87SOPE  C310 8218   7.056   5.410   4.190  0.4618  0.1574  0.0311
   87SOPE  H10X 8219   7.021   5.516   4.191  0.7888  0.2650  0.1531
   87SOPE  H10Y 8220   7.165   5.409   4.168  0.3114 -3.7758 -1.2393
   87SOPE  C311 8221   7.012   5.368   4.327  0.0213 -0.3358 -0.2030
   87SOPE  H11X 8222   7.072   5.278   4.350  0.5785  0.1006  0.0882
   87SOPE  H11Y 8223   6.908   5.332   4.314 -0.3408 -0.6047  2.8595
   87SOPE  C312 8224   6.997   5.481   4.439  0.0517  0.7977 -0.3573
   87SOPE  H12X 8225   6.956   5.436   4.531 -1.2449  1.8377 -0.4005
   87SOPE  H12Y 8226   6.915   5.551   4.412  0.3025  1.8138  1.3321
   87SOPE  C313 8227   7.124   5.558   4.475  0.2535 -0.9353 -0.0734
   87SOPE  H13X 8228   7.169   5.596   4.381  2.2372 -0.6283  0.9563
   87SOPE  H13Y 8229   7.202   5.506   4.535  0.2298  0.7453  1.4898
   87SOPE  C314 8230   7.095   5.681   4.567 -0.6966  0.5262  0.1355
   87SOPE  H14X 8231   7.005   5.735   4.530 -0.0312  1.8782  0.4108
   87SOPE  H14Y 8232   7.183   5.744   4.543  0.1092 -0.8513 -0.6063
   87SOPE  C315 8233   7.084   5.633   4.715 -0.2407 -0.0082 -0.2681
   87SOPE  H15X 8234   7.176   5.576   4.738 -1.0941 -0.6024  1.9377
   87SOPE  H15Y 8235   7.000   5.561   4.720  0.2572 -0.7320 -1.6311
   87SOPE  C316 8236   7.077   5.730   4.836 -0.5277 -0.4544 -0.3036
   87SOPE  H16X 8237   7.028   5.821   4.793  1.2746  0.4024 -0.6394
   87SOPE  H16Y 8238   7.175   5.778   4.856 -0.4206  0.0950 -1.9642
   87SOPE  C317 8239   7.021   5.663   4.953 -0.4549 -0.2841  0.3704
   87SOPE  H17X 8240   7.065   5.711   5.043 -2.0607  0.2195  0.9257
   87SOPE  H17Y 8241   7.068   5.562   4.952 -2.2644 -1.2226 -2.5901
   87SOPE  C318 8242   6.871   5.648   4.970 -0.7057 -0.0590  0.9354
   87SOPE  H18X 8243   6.837   5.568   5.040 -2.5247 -1.3044 -1.2485
   87SOPE  H18Y 8244   6.819   5.627   4.874 -1.2304 -0.5429  1.3172
   87SOPE  H18Z 8245   6.819   5.741   5.001 -1.2221  0.3948 -1.1640
   88SOPE     N 8246   2.407   4.094   2.604 -0.1642 -0.0046  0.9094
   88SOPE   HN1 8247   2.362   4.110   2.696 -0.3106  0.7167  0.7218
   88SOPE   HN2 8248   2.350   4.040   2.537 -0.2359 -0.0092  0.9735
   88SOPE   HN3 8249   2.503   4.054   2.615 -1.1385 -2.2195  1.9015
   88SOPE   C12 8250   2.433   4.233   2.560 -0.5364 -0.3996  1.1320
   88SOPE  H12A 8251   2.454   4.239   2.451 -0.2568 -0.3935  1.1844
   88SOPE  H12B 8252   2.520   4.281   2.611 -0.6572  0.6154  0.4135
   88SOPE   C11 8253   2.302   4.315   2.597  0.2135 -0.1093  0.0174
   88SOPE  H11A 8254   2.238   4.333   2.508 -1.1116  2.3847  1.3633
   88SOPE  H11B 8255   2.326   4.421   2.619  0.7985 -0.1354 -0.4467
   88SOPE     P 8256   2.110   4.341   2.771  0.2791  0.7014  0.2405
   88SOPE   O13 8257   2.004   4.237   2.792  0.3452  0.4142 -0.8455
   88SOPE   O14 8258   2.079   4.456   2.684  0.7952 -0.8652  0.0159
   88SOPE   O12 8259   2.231   4.261   2.712 -0.2910 -0.1887  0.1827
   88SOPE   O11 8260   2.153   4.403   2.912  0.7690 -0.0852 -0.3444
   88SOPE    C1 8261   2.274   4.471   2.936  0.4683  0.2204  0.9272
   88SOPE    HA 8262   2.295   4.567   2.884  3.4831 -0.4396  0.7284
   88SOPE    HB 8263   2.353   4.402   2.900 -1.8257 -1.7752 -0.6634
   88SOPE    C2 8264   2.302   4.496   3.087  0.1352 -0.3847 -0.3991
   88SOPE    HS 8265   2.286   4.398   3.137 -1.0215 -0.4222 -0.8122
   88SOPE   O21 8266   2.203   4.585   3.126  0.2650  0.3241  0.2995
   88SOPE   C21 8267   2.088   4.534   3.157 -0.2108 -0.4873 -0.5387
   88SOPE   O22 8268   2.061   4.417   3.178 -0.0176  0.3017 -0.2507
   88SOPE   C22 8269   1.987   4.650   3.186 -0.3753 -0.1110  0.4764
   88SOPE   H2R 8270   1.924   4.671   3.097 -1.9354 -0.1251  1.5386
   88SOPE   H2S 8271   2.032   4.740   3.234  0.2894 -0.9361  1.4385
   88SOPE    C3 8272   2.445   4.549   3.100  0.5367 -0.0638  0.6722
   88SOPE    HX 8273   2.448   4.653   3.064  4.2197 -0.7518 -1.5179
   88SOPE    HY 8274   2.510   4.488   3.034 -1.2723 -0.4681 -0.8311
   88SOPE   O31 8275   2.490   4.541   3.240 -0.2242 -0.4457 -0.1459
   88SOPE   C31 8276   2.623   4.563   3.245  0.7199  0.1454  0.3064
   88SOPE   O32 8277   2.688   4.596   3.148 -0.0355  0.0569  0.3198
   88SOPE   C32 8278   2.661   4.549   3.393  0.2095 -0.0450  0.5071
   88SOPE   H2X 8279   2.636   4.444   3.420 -1.2542  0.3867  0.9332
   88SOPE   H2Y 8280   2.607   4.631   3.447  2.3636  1.1460  0.9682
   88SOPE   C23 8281   1.888   4.610   3.302  0.4722 -0.2042  0.5123
   88SOPE   H3R 8282   1.850   4.506   3.291  1.6185 -0.6905  0.9872
   88SOPE   H3S 8283   1.792   4.667   3.297 -0.8651 -2.4336 -2.3762
   88SOPE   C24 8284   1.951   4.632   3.441 -0.1955  0.1096  0.3885
   88SOPE   H4R 8285   2.042   4.569   3.440 -0.5893 -0.4927  1.1434
   88SOPE   H4S 8286   1.989   4.736   3.447 -0.6558  0.3209 -0.1650
   88SOPE   C25 8287   1.866   4.580   3.563 -0.2145 -0.1100 -0.4776
   88SOPE   H5R 8288   1.803   4.669   3.585 -0.4205 -0.4952  0.5655
   88SOPE   H5S 8289   1.806   4.496   3.523  1.6580 -0.3900 -2.9803
   88SOPE   C26 8290   1.940   4.536   3.689  0.1426  0.6012 -0.4291
   88SOPE   H6R 8291   1.867   4.483   3.755  0.6928  0.9303  0.4583
   88SOPE   H6S 8292   2.021   4.465   3.661 -2.0465 -2.7560  1.0007
   88SOPE   C27 8293   2.003   4.638   3.777 -0.3513 -0.6644  0.3323
   88SOPE   H7R 8294   2.087   4.683   3.721 -0.8892  2.4116  1.7839
   88SOPE   H7S 8295   1.933   4.721   3.802  1.9327  1.8091 -1.0452
   88SOPE   C28 8296   2.050   4.577   3.912 -0.0975 -0.0276  0.3145
   88SOPE   H8R 8297   2.125   4.498   3.892  2.1465  2.0481  0.0045
   88SOPE   H8S 8298   2.113   4.657   3.956 -0.0111 -0.1676  0.4451
   88SOPE   C29 8299   1.943   4.542   4.004 -0.0749 -0.6370  0.0610
   88SOPE   H91 8300   1.843   4.580   3.978 -0.1094 -1.6533 -1.4421
   88SOPE  C210 8301   1.971   4.482   4.120  0.3201 -0.4065 -0.4826
   88SOPE  H101 8302   1.884   4.442   4.175  0.2720 -0.0441 -0.2971
   88SOPE  C211 8303   2.104   4.441   4.175  0.2730  0.1595  0.2903
   88SOPE  H11R 8304   2.131   4.527   4.240 -1.8034  0.7265  0.4834
   88SOPE  H11S 8305   2.188   4.433   4.103 -0.8356  0.1227 -1.0417
   88SOPE  C212 8306   2.096   4.316   4.268 -0.1898  0.4308 -0.0701
   88SOPE  H12R 8307   2.129   4.225   4.214  0.1274 -1.7649  3.5452
   88SOPE  H12S 8308   1.992   4.292   4.297 -0.4799  0.9372 -0.6599
   88SOPE  C213 8309   2.180   4.335   4.391  0.8944  0.7318  0.1038
   88SOPE  H13R 8310   2.171   4.437   4.433  0.0524  0.2621  1.1198
   88SOPE  H13S 8311   2.284   4.319   4.354  0.5618  2.1313 -1.5803
   88SOPE  C214 8312   2.136   4.228   4.490 -0.1898 -0.2497  0.1412
   88SOPE  H14R 8313   2.149   4.122   4.461 -1.2993  0.0574 -1.6565
   88SOPE  H14S 8314   2.028   4.244   4.510  0.0084 -1.3515  2.3406
   88SOPE  C215 8315   2.207   4.239   4.628  0.1546 -0.1306  0.4412
   88SOPE  H15R 8316   2.165   4.337   4.661  0.1825 -0.2191  0.7411
   88SOPE  H15S 8317   2.316   4.260   4.615  0.4001  0.1142  2.4389
   88SOPE  C216 8318   2.167   4.148   4.736  0.2943 -0.2421 -0.1507
   88SOPE  H16R 8319   2.058   4.160   4.752  0.4763  1.0905  0.1618
   88SOPE  H16S 8320   2.229   4.164   4.827 -1.3753  1.9068  0.6966
   88SOPE  C217 8321   2.181   4.008   4.700  0.3861 -0.4374 -0.0094
   88SOPE  H17R 8322   2.279   3.997   4.648  0.6318 -3.7917  0.9147
   88SOPE  H17S 8323   2.096   3.979   4.636  1.3944 -0.5485 -1.3424
   88SOPE  C218 8324   2.189   3.916   4.822 -0.6053  0.4911  0.5469
   88SOPE  H18R 8325   2.182   3.814   4.779  1.7604  0.4283  0.1725
   88SOPE  H18S 8326   2.105   3.942   4.890 -0.7839  3.0023 -0.5258
   88SOPE  H18T 8327   2.288   3.935   4.868 -0.3096  0.6509 -0.1429
   88SOPE   C33 8328   2.818   4.562   3.422  0.4101 -0.3951 -0.3121
   88SOPE   H3X 8329   2.854   4.657   3.377 -1.5262 -0.6437 -2.6224
   88SOPE   H3Y 8330   2.857   4.478   3.360 -0.4997 -2.3949  1.6761
   88SOPE   C34 8331   2.861   4.562   3.572  0.0833  0.6805  0.4109
   88SOPE   H4X 8332   2.841   4.457   3.605  2.1323 -0.3712 -1.4300
   88SOPE   H4Y 8333   2.805   4.632   3.637  1.2222 -0.4812  2.7798
   88SOPE   C35 8334   3.015   4.572   3.585  0.3694 -0.7763  0.0813
   88SOPE   H5X 8335   3.047   4.664   3.531  2.8647 -1.4665  0.2614
   88SOPE   H5Y 8336   3.060   4.487   3.529  2.5771 -0.8375  1.7927
   88SOPE   C36 8337   3.069   4.562   3.731 -0.7131 -0.4071 -1.1650
   88SOPE   H6X 8338   3.026   4.652   3.780 -0.8109 -1.2331  0.3489
   88SOPE   H6Y 8339   3.179   4.570   3.740 -0.7614  0.9850 -1.6860
   88SOPE   C37 8340   3.019   4.442   3.801  0.2868  0.1108 -0.6064
   88SOPE   H7X 8341   3.026   4.350   3.739  0.1023 -0.9404  0.8992
   88SOPE   H7Y 8342   2.910   4.462   3.812 -0.0528 -2.3262  1.1604
   88SOPE   C38 8343   3.089   4.412   3.940 -0.1598 -0.6147 -0.4908
   88SOPE   H8X 8344   3.112   4.506   3.994  1.2043 -1.9846  1.4468
   88SOPE   H8Y 8345   3.187   4.363   3.922  0.1026 -0.1746 -0.2742
   88SOPE   C39 8346   3.000   4.312   4.021 -0.2206  0.2612  0.1552
   88SOPE   H9X 8347   2.975   4.229   3.950  0.0183  0.7485 -0.5064
   88SOPE   H9Y 8348   2.904   4.352   4.060 -0.6948 -0.0675 -0.6484
   88SOPE  C310 8349   3.070   4.250   4.136  0.3690  0.3714  0.1440
   88SOPE  H10X 8350   3.166   4.199   4.115 -0.2393  0.0586 -2.0705
   88SOPE  H10Y 8351   3.005   4.179   4.191  0.4710  1.3538  1.6020
   88SOPE  C311 8352   3.106   4.357   4.238  0.2503  0.4095 -0.6509
   88SOPE  H11X 8353   3.019   4.416   4.273  0.4898 -0.0978  0.8625
   88SOPE  H11Y 8354   3.175   4.431   4.192 -0.6314  1.3410 -0.5161
   88SOPE  C312 8355   3.197   4.306   4.350  0.0117  0.4936  0.2551
   88SOPE  H12X 8356   3.292   4.262   4.315  0.7272  1.5892  0.7535
   88SOPE  H12Y 8357   3.135   4.223   4.393 -0.1086 -0.1079 -1.0500
   88SOPE  C313 8358   3.233   4.414   4.452  0.9148  0.0772 -0.4176
   88SOPE  H13X 8359   3.149   4.468   4.500 -0.3699 -0.3852 -2.0652
   88SOPE  H13Y 8360   3.296   4.488   4.397 -0.1606  0.2318 -1.4721
   88SOPE  C314 8361   3.331   4.350   4.555  0.0721  0.3615  0.3311
   88SOPE  H14X 8362   3.390   4.429   4.605  1.2106 -0.9822  1.1888
   88SOPE  H14Y 8363   3.404   4.282   4.507 -0.6493 -1.0992  1.2256
   88SOPE  C315 8364   3.254   4.278   4.664  0.0857  0.0530 -0.4541
   88SOPE  H15X 8365   3.303   4.178   4.668  1.4911  0.6932 -0.7151
   88SOPE  H15Y 8366   3.146   4.265   4.642  0.4643 -2.2012 -1.1855
   88SOPE  C316 8367   3.276   4.335   4.808  0.5029  0.5231 -0.3637
   88SOPE  H16X 8368   3.267   4.445   4.796  0.1608  0.7027  1.2596
   88SOPE  H16Y 8369   3.377   4.316   4.849  0.7886  0.1998 -1.2040
   88SOPE  C317 8370   3.166   4.282   4.911 -0.7533 -0.4704 -0.5478
   88SOPE  H17X 8371   3.194   4.180   4.945  0.9625 -0.0884 -0.7042
   88SOPE  H17Y 8372   3.065   4.285   4.866 -1.1419 -2.3442  0.1395
   88SOPE  C318 8373   3.162   4.369   5.036  0.3455 -0.3348 -0.2714
   88SOPE  H18X 8374   3.116   4.305   5.115 -0.7771  0.1393 -0.5245
   88SOPE  H18Y 8375   3.105   4.463   5.022 -1.3170 -1.5960 -2.6634
   88SOPE  H18Z 8376   3.265   4.396   5.067  0.3757 -0.6618 -0.0775
   89SAPC     N 8377   6.843   6.435   7.470 -0.4760  0.4430 -0.2389
   89SAPC   C12 8378   6.909   6.459   7.333  0.2585 -0.4545 -0.1817
   89SAPC  H12A 8379   6.877   6.380   7.267  1.0040  0.3930 -1.6250
   89SAPC  H12B 8380   7.016   6.450   7.344  0.1173 -1.8395  0.2158
   89SAPC   C13 8381   6.883   6.534   7.577 -0.5104 -0.8587 -0.4230
   89SAPC  H13A 8382   6.887   6.631   7.529  2.0853 -1.4531 -1.5451
   89SAPC  H13B 8383   6.814   6.540   7.660  1.0130 -2.5390  1.0267
   89SAPC  H13C 8384   6.973   6.495   7.621  1.0353  0.4294 -2.2288
   89SAPC   C14 8385   6.697   6.450   7.450  0.2720  0.9086 -0.4412
   89SAPC  H14A 8386   6.638   6.422   7.536  1.8622  0.9344  0.7065
   89SAPC  H14B 8387   6.671   6.553   7.433 -1.5103  0.4322 -0.7931
   89SAPC  H14C 8388   6.664   6.401   7.360  1.7624  1.0706 -1.1016
   89SAPC   C15 8389   6.865   6.293   7.508 -0.1045  0.5076 -0.0947
   89SAPC  H15A 8390   6.797   6.231   7.452 -0.6372  1.7582 -0.8805
   89SAPC  H15B 8391   6.965   6.250   7.507 -1.0817 -1.9469  0.3053
   89SAPC  H15C 8392   6.824   6.282   7.607 -0.8740 -0.0940 -0.4763
   89SAPC   C11 8393   6.887   6.589   7.262 -0.7148 -0.6490 -0.7898
   89SAPC  H11A 8394   6.777   6.594   7.247 -1.0248 -0.2786  1.3751
   89SAPC  H11B 8395   6.939   6.583   7.164 -1.1840  1.0771 -1.1802
   89SAPC     P 8396   7.064   6.771   7.326  0.1266  0.4070  0.1663
   89SAPC   O13 8397   7.108   6.786   7.465  0.0049  0.6837  0.3547
   89SAPC   O14 8398   7.151   6.692   7.233  0.6413  0.5631  0.3061
   89SAPC   O12 8399   6.921   6.708   7.337  0.4216 -0.1769  0.6776
   89SAPC   O11 8400   7.039   6.916   7.262  0.5810  0.1771  0.4088
   89SAPC    C1 8401   6.920   6.949   7.198 -0.2579  0.0320  0.0984
   89SAPC    HA 8402   6.844   6.869   7.198 -0.0969 -0.2436  2.9382
   89SAPC    HB 8403   6.876   7.039   7.248  0.1525 -0.1772  0.8549
   89SAPC    C2 8404   6.949   6.991   7.048  0.1581 -0.1877  0.2480
   89SAPC    HS 8405   6.854   7.031   7.005 -0.5710 -1.3111  0.7816
   89SAPC   O21 8406   7.000   6.882   6.972  0.3361  0.1118  0.2967
   89SAPC   C21 8407   6.907   6.795   6.935 -0.1076  0.3785 -0.7032
   89SAPC   O22 8408   6.788   6.804   6.968  0.2772  0.2533  0.6126
   89SAPC   C22 8409   6.951   6.690   6.834 -0.0977 -0.3969 -0.0772
   89SAPC   H2R 8410   7.010   6.612   6.886  0.2249 -1.0141 -1.3135
   89SAPC   H2S 8411   6.857   6.639   6.801 -0.8322  1.4961 -1.0318
   89SAPC    C3 8412   7.051   7.108   7.052 -0.0823  0.4672  0.0142
   89SAPC    HX 8413   7.137   7.072   7.112 -0.3360 -1.5881 -0.7920
   89SAPC    HY 8414   7.003   7.181   7.120 -3.4444  0.8920 -2.5566
   89SAPC   O31 8415   7.089   7.170   6.925 -0.2735 -0.1183 -0.0105
   89SAPC   C31 8416   7.209   7.133   6.878  0.0082  0.0860 -0.9600
   89SAPC   O32 8417   7.286   7.055   6.929 -0.9080  0.7505  0.1101
   89SAPC   C32 8418   7.233   7.201   6.743  0.8869 -0.9954  0.4049
   89SAPC   H2X 8419   7.336   7.243   6.741  0.4317  0.1263 -0.8012
   89SAPC   H2Y 8420   7.161   7.286   6.735  1.1880 -0.8015 -0.3222
   89SAPC   C23 8421   7.030   6.754   6.723  0.2744 -0.1645 -0.2364
   89SAPC   H3R 8422   7.068   6.672   6.658  2.4588  0.3878  0.2568
   89SAPC   H3S 8423   7.108   6.824   6.761 -2.1355  0.7603  3.5827
   89SAPC   C24 8424   6.939   6.827   6.612  0.3534  0.0696  0.2668
   89SAPC   H4R 8425   7.009   6.868   6.536 -3.0615  1.0652 -2.5872
   89SAPC   H4S 8426   6.881   6.913   6.653 -0.2111  1.6334 -3.4366
   89SAPC   C25 8427   6.847   6.723   6.551  0.1800 -0.8937  0.3403
   89SAPC   H5R 8428   6.775   6.680   6.623 -0.1438  0.5253  0.8950
   89SAPC   C26 8429   6.852   6.673   6.427 -0.1186  0.1787 -0.6745
   89SAPC   H6R 8430   6.773   6.600   6.403 -2.5176  2.5641 -0.4961
   89SAPC   C27 8431   6.954   6.713   6.322  0.1379  0.1491 -0.0782
   89SAPC   H7R 8432   7.035   6.771   6.371  0.3905  1.5628 -2.0206
   89SAPC   H7S 8433   6.910   6.795   6.260 -0.4017  0.5605  0.8356
   89SAPC   C28 8434   7.013   6.603   6.240 -0.0877  0.0567 -0.1510
   89SAPC   H8R 8435   7.096   6.551   6.289  2.0664  1.8113 -1.7527
   89SAPC   C29 8436   6.975   6.559   6.122  0.8229  0.8583 -0.9783
   89SAPC   H9R 8437   7.039   6.487   6.070  0.5792 -0.9808  1.1054
   89SAPC  C210 8438   6.855   6.606   6.038 -0.4081 -0.4838 -0.5245
   89SAPC  H10R 8439   6.759   6.618   6.093 -0.0660 -2.0474  0.4772
   89SAPC  H10S 8440   6.819   6.514   5.989  0.2128 -0.7476 -0.4963
   89SAPC  C211 8441   6.882   6.717   5.938  0.0572  0.5737 -0.1230
   89SAPC  H11R 8442   6.896   6.813   5.988 -2.2981 -0.0688  1.9372
   89SAPC  C212 8443   6.894   6.701   5.801 -0.1469  0.0217  0.1439
   89SAPC  H12R 8444   6.920   6.794   5.747  2.4035  0.7246  2.3628
   89SAPC  C213 8445   6.874   6.577   5.715  0.0861 -0.0449  0.3021
   89SAPC  H13R 8446   6.895   6.488   5.779  0.0246  0.1287  0.5647
   89SAPC  H13S 8447   6.951   6.577   5.635  0.6249 -1.4753  0.7718
   89SAPC  C214 8448   6.740   6.583   5.642 -0.0585  0.3100 -0.9108
   89SAPC  H14R 8449   6.653   6.616   5.699 -0.2432 -1.2378 -0.2380
   89SAPC  C215 8450   6.721   6.567   5.508  0.3054 -0.1900  0.0261
   89SAPC  H15R 8451   6.616   6.565   5.476 -0.6237 -0.5498  2.8214
   89SAPC  C216 8452   6.815   6.527   5.395  0.2787 -0.0826 -0.2047
   89SAPC  H16R 8453   6.788   6.426   5.357 -1.2846 -0.6892  2.2804
   89SAPC  H16S 8454   6.922   6.515   5.425 -0.1266  1.2209  2.0028
   89SAPC  C217 8455   6.818   6.643   5.286 -0.2959  0.2908  0.3204
   89SAPC  H17R 8456   6.896   6.608   5.216 -1.4844 -2.0663  0.0911
   89SAPC  H17S 8457   6.846   6.742   5.329 -0.8953  0.9427 -0.7403
   89SAPC  C218 8458   6.685   6.641   5.205 -0.7416  0.0807  0.0199
   89SAPC  H18R 8459   6.616   6.715   5.251  1.7691  2.2403  0.5294
   89SAPC  H18S 8460   6.628   6.545   5.202 -1.8346  0.7331 -0.9934
   89SAPC  C219 8461   6.708   6.678   5.057  0.4655  0.5306  0.5655
   89SAPC  H19R 8462   6.790   6.753   5.053 -0.1632  1.2019 -3.1045
   89SAPC  H19S 8463   6.615   6.721   5.014 -1.7308 -2.2710  2.1222
   89SAPC  C220 8464   6.739   6.564   4.961 -0.0752  0.1080 -0.3822
   89SAPC  H20R 8465   6.823   6.502   5.000  1.9671  1.6511 -2.1105
   89SAPC  H20S 8466   6.778   6.597   4.863  0.5065 -0.5951 -0.3949
   89SAPC  H20T 8467   6.657   6.492   4.944 -0.4868 -0.0575  1.9478
   89SAPC   C33 8468   7.204   7.113   6.627  0.7501 -0.0020 -0.0227
   89SAPC   H3X 8469   7.108   7.057   6.634  0.0041  0.3293 -4.4884
   89SAPC   H3Y 8470   7.286   7.039   6.617  0.8250 -0.1745  1.6578
   89SAPC   C34 8471   7.182   7.189   6.493 -0.4759 -0.4831 -0.3321
   89SAPC   H4X 8472   7.280   7.235   6.469 -0.8284  2.1482  2.5486
   89SAPC   H4Y 8473   7.113   7.268   6.531  1.4916  0.1008  2.3853
   89SAPC   C35 8474   7.134   7.097   6.380 -0.0797  0.8964 -0.0806
   89SAPC   H5X 8475   7.047   7.029   6.390  0.8269 -0.5983 -1.8031
   89SAPC   H5Y 8476   7.218   7.029   6.354  1.5424  2.6432  0.3447
   89SAPC   C36 8477   7.107   7.185   6.257  0.5844  0.7796 -0.5831
   89SAPC   H6X 8478   7.200   7.240   6.231  0.6267  1.2380  0.5073
   89SAPC   H6Y 8479   7.016   7.238   6.292 -0.2990 -0.3712 -1.0502
   89SAPC   C37 8480   7.043   7.111   6.133 -0.0849 -0.1765 -0.2151
   89SAPC   H7X 8481   6.948   7.067   6.168 -0.3828 -0.0164 -0.7973
   89SAPC   H7Y 8482   7.110   7.031   6.096  0.1525 -0.3839  0.6638
   89SAPC   C38 8483   7.016   7.206   6.013  0.1214  0.1496 -0.5965
   89SAPC   H8X 8484   7.111   7.259   5.990 -0.4648  0.5303 -2.2873
   89SAPC   H8Y 8485   6.936   7.275   6.048 -0.5893 -1.2103  0.5695
   89SAPC   C39 8486   6.969   7.116   5.893  1.0682  0.2036 -0.2837
   89SAPC   H9X 8487   6.858   7.111   5.882  1.1319  1.1103 -1.4130
   89SAPC   H9Y 8488   7.014   7.014   5.894  1.3045  0.2879 -1.3299
   89SAPC  C310 8489   7.012   7.185   5.760  0.3252  0.2239 -0.5525
   89SAPC  H10X 8490   7.094   7.257   5.780  0.6191 -0.1813 -0.2883
   89SAPC  H10Y 8491   6.927   7.238   5.712 -0.1049 -1.8693 -2.2213
   89SAPC  C311 8492   7.060   7.093   5.649  0.1178  1.2007  0.1197
   89SAPC  H11X 8493   6.988   7.009   5.634  1.9093 -0.9425  2.5659
   89SAPC  H11Y 8494   7.151   7.041   5.687  0.2693  0.1128 -1.6350
   89SAPC  C312 8495   7.093   7.157   5.514  0.2584 -0.2729 -0.2580
   89SAPC  H12X 8496   7.146   7.082   5.451  2.1769  0.5489  0.2989
   89SAPC  H12Y 8497   7.177   7.228   5.532  0.1279 -0.2114  0.1172
   89SAPC  C313 8498   6.972   7.201   5.426  0.1269  0.1124  0.5679
   89SAPC  H13X 8499   7.011   7.231   5.327 -0.5331 -4.0095 -1.1158
   89SAPC  H13Y 8500   6.922   7.280   5.487 -1.1313 -0.9716  1.0176
   89SAPC  C314 8501   6.872   7.093   5.380  0.4190 -0.9304  0.1925
   89SAPC  H14X 8502   6.818   7.058   5.471 -2.2064  3.1433  0.4984
   89SAPC  H14Y 8503   6.932   7.011   5.336 -0.2828 -0.2593 -2.1718
   89SAPC  C315 8504   6.763   7.131   5.275  0.0505  0.2527  0.1544
   89SAPC  H15X 8505   6.701   7.211   5.320 -0.1771  0.5772 -0.7255
   89SAPC  H15Y 8506   6.700   7.040   5.265  1.0975 -0.5478  0.6123
   89SAPC  C316 8507   6.820   7.175   5.137  0.3605 -0.2796 -0.2554
   89SAPC  H16X 8508   6.889   7.094   5.107  0.7333  0.5166 -1.6270
   89SAPC  H16Y 8509   6.874   7.270   5.162 -0.6751  0.4973 -0.8905
   89SAPC  C317 8510   6.711   7.210   5.037  0.4248  0.3984 -0.1691
   89SAPC  H17X 8511   6.639   7.134   4.999 -3.1078  2.8013  1.2057
   89SAPC  H17Y 8512   6.767   7.247   4.948  0.2897  1.1484  0.0514
   89SAPC  C318 8513   6.623   7.328   5.087  0.4096  0.1334  0.6885
   89SAPC  H18X 8514   6.691   7.414   5.097 -0.1259  1.1052 -2.6535
   89SAPC  H18Y 8515   6.587   7.309   5.190  2.2090  0.1551  1.3503
   89SAPC  H18Z 8516   6.539   7.350   5.017  1.9494  0.5412 -1.0864
   90SAPC     N 8517   1.244   5.594   6.933 -0.7126  0.1479 -0.1130
   90SAPC   C12 8518   1.249   5.556   6.789 -0.5405 -0.5531 -0.3294
   90SAPC  H12A 8519   1.241   5.643   6.724 -0.1223  0.0167  0.3722
   90SAPC  H12B 8520   1.163   5.501   6.754 -0.5963 -0.4132 -0.4144
   90SAPC   C13 8521   1.237   5.473   7.017 -0.2472  0.0165  0.1089
   90SAPC  H13A 8522   1.195   5.486   7.116 -1.2228  0.6432 -0.3725
   90SAPC  H13B 8523   1.166   5.406   6.969 -1.5155  1.7775 -0.6019
   90SAPC  H13C 8524   1.329   5.418   7.027  0.5937  1.3821  0.1335
   90SAPC   C14 8525   1.361   5.687   6.957  0.3645 -0.4698  0.4589
   90SAPC  H14A 8526   1.358   5.778   6.898 -0.3203 -0.5093  0.4269
   90SAPC  H14B 8527   1.371   5.723   7.059  1.1089  1.3094 -0.1904
   90SAPC  H14C 8528   1.447   5.626   6.935  0.3629  0.9211 -4.4534
   90SAPC   C15 8529   1.115   5.663   6.947  0.3936 -0.9326  0.2073
   90SAPC  H15A 8530   1.097   5.705   7.044  1.1723  1.9680 -0.8070
   90SAPC  H15B 8531   1.102   5.745   6.878 -1.5906  0.6687  2.3119
   90SAPC  H15C 8532   1.040   5.591   6.916  0.1740 -0.2781 -0.8509
   90SAPC   C11 8533   1.368   5.457   6.742 -0.4864  0.1717  0.4197
   90SAPC  H11A 8534   1.368   5.447   6.631  0.1131  1.2281  0.3114
   90SAPC  H11B 8535   1.351   5.357   6.788 -0.4587  0.7627  1.7433
   90SAPC     P 8536   1.608   5.409   6.825 -0.0164  0.2762  0.0410
   90SAPC   O13 8537   1.712   5.474   6.913 -0.1688  0.0174  0.7122
   90SAPC   O14 8538   1.547   5.288   6.883  0.1804 -0.0164  1.0266
   90SAPC   O12 8539   1.498   5.515   6.784 -0.3759  0.1176  0.8750
   90SAPC   O11 8540   1.682   5.357   6.690  0.3078  0.4589 -0.2645
   90SAPC    C1 8541   1.713   5.458   6.591 -0.5770  1.1125 -0.5450
   90SAPC    HA 8542   1.624   5.494   6.535 -0.6220 -1.9413 -2.6774
   90SAPC    HB 8543   1.771   5.542   6.635 -0.0105  0.4959 -0.0948
   90SAPC    C2 8544   1.820   5.402   6.490  0.1852  0.1851 -0.1271
   90SAPC    HS 8545   1.896   5.358   6.558 -0.5629 -0.5236  0.2715
   90SAPC   O21 8546   1.877   5.510   6.411  0.4292 -0.3968 -0.0671
   90SAPC   C21 8547   1.989   5.474   6.353  0.1195 -0.4363 -0.6577
   90SAPC   O22 8548   2.056   5.376   6.379  0.1397  0.2813  0.8593
   90SAPC   C22 8549   2.030   5.575   6.241  0.2573  0.8756  0.3689
   90SAPC   H2R 8550   2.140   5.575   6.231  0.4676 -1.1354  2.0162
   90SAPC   H2S 8551   1.988   5.534   6.147 -0.1715 -0.5212  1.1315
   90SAPC    C3 8552   1.753   5.296   6.401 -0.4270 -1.2752  0.4402
   90SAPC    HX 8553   1.722   5.220   6.476  3.0392 -1.8399  1.4894
   90SAPC    HY 8554   1.824   5.247   6.331 -1.4488 -1.9409 -0.1453
   90SAPC   O31 8555   1.642   5.357   6.335  0.4379 -0.2693 -0.7432
   90SAPC   C31 8556   1.662   5.398   6.214  0.2084  0.2668  0.8131
   90SAPC   O32 8557   1.755   5.374   6.143  0.6768  0.4662  0.2966
   90SAPC   C32 8558   1.543   5.483   6.161  0.5189  0.7359  0.0447
   90SAPC   H2X 8559   1.557   5.483   6.050 -0.9581 -1.0313 -0.1956
   90SAPC   H2Y 8560   1.559   5.581   6.210 -2.3704  0.4822  1.7122
   90SAPC   C23 8561   1.986   5.724   6.255 -0.1680 -0.1225 -0.9078
   90SAPC   H3R 8562   2.034   5.764   6.348 -0.8162  0.1026 -0.6649
   90SAPC   H3S 8563   1.876   5.717   6.272 -0.3651  0.1721 -2.0146
   90SAPC   C24 8564   2.010   5.818   6.127  0.2932  0.4182 -0.5505
   90SAPC   H4R 8565   1.970   5.918   6.155  2.3288  0.6035  1.9467
   90SAPC   H4S 8566   1.946   5.778   6.045 -1.4596  1.7933  0.0658
   90SAPC   C25 8567   2.159   5.822   6.095 -0.3486 -0.3189  0.3838
   90SAPC   H5R 8568   2.233   5.844   6.173  1.0920  1.2246 -1.3221
   90SAPC   C26 8569   2.220   5.794   5.980  0.5144 -0.4115  0.4273
   90SAPC   H6R 8570   2.330   5.806   5.977  0.5249  0.0744 -4.0401
   90SAPC   C27 8571   2.162   5.750   5.842  0.0679 -0.0444  0.0370
   90SAPC   H7R 8572   2.216   5.810   5.765 -1.0734 -0.7125 -1.3297
   90SAPC   H7S 8573   2.054   5.771   5.828  0.3554  2.3616  1.0060
   90SAPC   C28 8574   2.199   5.601   5.820  0.7317 -0.2733 -0.6194
   90SAPC   H8R 8575   2.175   5.541   5.909 -1.5857  0.2555 -0.8301
   90SAPC   C29 8576   2.221   5.543   5.706 -0.1166  0.2997 -0.4651
   90SAPC   H9R 8577   2.230   5.435   5.689 -1.3257 -0.0024  0.6077
   90SAPC  C210 8578   2.233   5.616   5.574 -0.4407  0.2784  0.0493
   90SAPC  H10R 8579   2.195   5.720   5.576  0.6254  0.6855 -0.1781
   90SAPC  H10S 8580   2.175   5.565   5.494  1.9262 -1.0763 -0.8981
   90SAPC  C211 8581   2.379   5.625   5.535 -0.6977 -0.1701  0.3360
   90SAPC  H11R 8582   2.448   5.627   5.621  2.9684 -1.9862 -2.3075
   90SAPC  C212 8583   2.430   5.646   5.411 -0.0678  0.6398  0.2889
   90SAPC  H12R 8584   2.536   5.626   5.391  0.0738  0.9363  0.7206
   90SAPC  C213 8585   2.348   5.647   5.280  0.4768  0.7142 -0.2620
   90SAPC  H13R 8586   2.413   5.689   5.201 -1.8402  2.0459 -1.5855
   90SAPC  H13S 8587   2.257   5.706   5.306 -0.9272 -1.7295  0.7542
   90SAPC  C214 8588   2.295   5.514   5.235 -0.9416  0.1746 -0.0711
   90SAPC  H14R 8589   2.288   5.438   5.314  1.4214 -1.9530 -1.7226
   90SAPC  C215 8590   2.305   5.452   5.106 -0.2367 -0.1354  0.1727
   90SAPC  H15R 8591   2.263   5.351   5.094 -2.5426  0.5657  1.6446
   90SAPC  C216 8592   2.328   5.523   4.976 -0.9321 -0.0890 -0.2125
   90SAPC  H16R 8593   2.304   5.454   4.893 -2.0652  1.7405 -1.4966
   90SAPC  H16S 8594   2.433   5.558   4.963 -0.4395 -1.2151  0.5992
   90SAPC  C217 8595   2.240   5.645   4.964  0.7175  0.4704 -0.5833
   90SAPC  H17R 8596   2.285   5.730   5.021  1.2819 -1.3297  1.8001
   90SAPC  H17S 8597   2.138   5.627   5.007 -0.4754 -0.5692 -3.6048
   90SAPC  C218 8598   2.222   5.699   4.817 -0.4388 -0.6083  0.0775
   90SAPC  H18R 8599   2.157   5.788   4.832  0.6108  0.3004 -0.6403
   90SAPC  H18S 8600   2.180   5.619   4.752 -1.5907 -0.8830  1.1181
   90SAPC  C219 8601   2.358   5.733   4.756 -0.3993  0.1461  0.1235
   90SAPC  H19R 8602   2.420   5.641   4.753  0.8869  0.9973 -0.0905
   90SAPC  H19S 8603   2.404   5.814   4.817  0.9028 -0.1947 -0.3737
   90SAPC  C220 8604   2.363   5.801   4.616  0.3906 -0.3457 -0.1079
   90SAPC  H20R 8605   2.463   5.810   4.567 -1.4239 -0.7177 -4.3054
   90SAPC  H20S 8606   2.320   5.904   4.618  0.4707 -0.2412 -1.9664
   90SAPC  H20T 8607   2.295   5.750   4.545  0.3481  0.9717 -1.0573
   90SAPC   C33 8608   1.401   5.427   6.193  0.2240  0.2244 -0.3746
   90SAPC   H3X 8609   1.323   5.505   6.177 -0.4294 -0.5430 -0.9810
   90SAPC   H3Y 8610   1.393   5.409   6.303  0.5991  0.8145 -0.2409
   90SAPC   C34 8611   1.363   5.307   6.111 -0.6806 -0.2132 -0.7662
   90SAPC   H4X 8612   1.264   5.270   6.144  0.0016 -0.5266  1.0560
   90SAPC   H4Y 8613   1.446   5.237   6.134  0.9745  2.8323  3.8506
   90SAPC   C35 8614   1.357   5.316   5.958  0.7220  0.3569  0.0227
   90SAPC   H5X 8615   1.312   5.216   5.935 -0.7314  0.7475  1.0125
   90SAPC   H5Y 8616   1.457   5.320   5.910  1.2271  0.4157  1.0690
   90SAPC   C36 8617   1.271   5.438   5.896  0.1815  0.7086 -0.3073
   90SAPC   H6X 8618   1.314   5.527   5.946  2.8467  0.4837 -1.9754
   90SAPC   H6Y 8619   1.163   5.420   5.913  0.5201 -0.5474  0.7076
   90SAPC   C37 8620   1.306   5.466   5.751 -0.6527  0.2377 -0.9659
   90SAPC   H7X 8621   1.414   5.489   5.747 -0.5893  0.0702 -0.2724
   90SAPC   H7Y 8622   1.253   5.557   5.713  0.6860  1.2451 -0.4988
   90SAPC   C38 8623   1.285   5.344   5.670  0.0948  0.4778  0.0188
   90SAPC   H8X 8624   1.191   5.285   5.674  1.9387 -2.7705 -0.6874
   90SAPC   H8Y 8625   1.363   5.268   5.692 -0.8214 -0.2245  0.9752
   90SAPC   C39 8626   1.307   5.375   5.525 -0.6966 -0.2302  0.7023
   90SAPC   H9X 8627   1.394   5.443   5.518 -0.3633 -0.6444  0.7363
   90SAPC   H9Y 8628   1.214   5.422   5.487 -0.7823 -2.1212 -1.6432
   90SAPC  C310 8629   1.348   5.258   5.444  0.2591  0.7455 -0.7568
   90SAPC  H10X 8630   1.256   5.197   5.432  0.3463  0.5444 -0.4171
   90SAPC  H10Y 8631   1.428   5.202   5.498 -0.8894  2.0641  2.5628
   90SAPC  C311 8632   1.386   5.302   5.304  0.6338 -0.0506  0.4390
   90SAPC  H11X 8633   1.486   5.347   5.321 -0.8327  3.1320  1.3464
   90SAPC  H11Y 8634   1.312   5.380   5.274  2.2046  1.1612 -0.4523
   90SAPC  C312 8635   1.387   5.190   5.191  0.2821  0.1299  0.1251
   90SAPC  H12X 8636   1.281   5.158   5.185  0.3316 -1.0117  3.5807
   90SAPC  H12Y 8637   1.444   5.101   5.224  0.3792 -0.1810 -0.8353
   90SAPC  C313 8638   1.439   5.234   5.058 -0.5136  0.0730  0.2132
   90SAPC  H13X 8639   1.457   5.147   4.992  0.1210 -0.0889  0.5903
   90SAPC  H13Y 8640   1.543   5.272   5.071 -0.2409 -0.5311 -0.1867
   90SAPC  C314 8641   1.346   5.321   4.975  0.0881  0.2470 -0.7010
   90SAPC  H14X 8642   1.303   5.401   5.038  2.7954  0.6343  0.7842
   90SAPC  H14Y 8643   1.260   5.268   4.927  2.2669 -0.6178 -4.0257
   90SAPC  C315 8644   1.414   5.397   4.861  0.2734  0.4006  1.2003
   90SAPC  H15X 8645   1.473   5.318   4.810 -1.6071 -0.0827 -0.3656
   90SAPC  H15Y 8646   1.475   5.477   4.907  1.7903 -0.2318  0.3574
   90SAPC  C316 8647   1.316   5.469   4.766 -0.5247 -0.0727  0.0185
   90SAPC  H16X 8648   1.362   5.565   4.735  0.6333 -0.9439 -1.0604
   90SAPC  H16Y 8649   1.224   5.488   4.826 -1.8025  2.2470 -2.4748
   90SAPC  C317 8650   1.294   5.379   4.641 -0.1577 -1.0364  0.4047
   90SAPC  H17X 8651   1.269   5.277   4.679 -1.6992 -1.4922 -1.6355
   90SAPC  H17Y 8652   1.396   5.388   4.598  0.2382  0.5076  1.5845
   90SAPC  C318 8653   1.182   5.433   4.555 -0.0905 -0.2717  0.2799
   90SAPC  H18X 8654   1.213   5.526   4.504  0.3397 -1.4787 -1.7502
   90SAPC  H18Y 8655   1.091   5.457   4.614 -0.5903  0.7237 -0.8469
   90SAPC  H18Z 8656   1.154   5.352   4.484 -1.3047 -1.4350  2.0150
   91SAPC     N 8657   0.907   4.275   7.545  0.1304 -0.4745 -0.3835
   91SAPC   C12 8658   0.916   4.252   7.396 -0.1310  0.0277  0.4957
   91SAPC  H12A 8659   0.846   4.326   7.360  2.7129  1.7929 -1.8940
   91SAPC  H12B 8660   0.869   4.159   7.367  0.4605  0.3281 -1.6460
   91SAPC   C13 8661   0.946   4.417   7.576  0.1341  0.0884  0.0321
   91SAPC  H13A 8662   0.872   4.483   7.533 -0.7659  0.0980  1.5428
   91SAPC  H13B 8663   0.954   4.429   7.683  3.1168 -1.7013  0.1353
   91SAPC  H13C 8664   1.042   4.442   7.532 -0.8551  1.1596 -1.6380
   91SAPC   C14 8665   0.762   4.258   7.591  0.3277  0.0796  0.2737
   91SAPC  H14A 8666   0.724   4.157   7.600 -1.3164  0.5383 -1.0509
   91SAPC  H14B 8667   0.762   4.298   7.691  1.0856  1.1292 -0.1332
   91SAPC  H14C 8668   0.690   4.313   7.533 -0.3006  0.7835  1.6716
   91SAPC   C15 8669   1.002   4.183   7.617 -0.1299  0.4135  0.3738
   91SAPC  H15A 8670   1.104   4.202   7.586 -0.4957 -0.8234 -1.7182
   91SAPC  H15B 8671   0.991   4.210   7.721 -0.2058  3.0546 -0.2457
   91SAPC  H15C 8672   0.978   4.080   7.595  0.5439 -0.7544  4.2927
   91SAPC   C11 8673   1.053   4.277   7.328  1.0700 -0.0242 -0.1406
   91SAPC  H11A 8674   1.077   4.385   7.329  0.9751  0.0067 -1.0207
   91SAPC  H11B 8675   1.025   4.250   7.224 -1.3724 -0.1625  0.4832
   91SAPC     P 8676   1.178   4.048   7.337 -0.2982 -0.1989 -0.5506
   91SAPC   O13 8677   1.241   3.972   7.450  0.5591  0.1881 -0.4906
   91SAPC   O14 8678   1.051   3.990   7.286 -0.3949 -0.5166 -0.0784
   91SAPC   O12 8679   1.164   4.199   7.384 -0.1523  0.6515  0.3387
   91SAPC   O11 8680   1.278   4.061   7.214 -0.2503 -0.0794  0.1360
   91SAPC    C1 8681   1.310   4.175   7.139  0.3464  0.0540 -0.0949
   91SAPC    HA 8682   1.277   4.271   7.185 -0.1415 -0.7320  1.2758
   91SAPC    HB 8683   1.419   4.180   7.121  0.2298  0.0933 -0.8069
   91SAPC    C2 8684   1.233   4.167   7.006 -0.1014 -0.2471  0.3029
   91SAPC    HS 8685   1.127   4.186   7.033  0.0856 -1.7450  2.3481
   91SAPC   O21 8686   1.253   4.043   6.941  0.0265  0.5526  0.5282
   91SAPC   C21 8687   1.149   3.976   6.910 -0.2120 -0.2012  0.2623
   91SAPC   O22 8688   1.031   4.011   6.917  0.2705 -1.1212  0.2859
   91SAPC   C22 8689   1.182   3.840   6.851 -0.2870 -0.5497  0.0716
   91SAPC   H2R 8690   1.265   3.798   6.912  0.8828  0.4234 -0.7930
   91SAPC   H2S 8691   1.100   3.770   6.879  0.0954 -1.1298 -0.2543
   91SAPC    C3 8692   1.262   4.289   6.911 -0.0092  0.3618  0.5613
   91SAPC    HX 8693   1.353   4.252   6.861 -0.4185 -1.1861  0.9301
   91SAPC    HY 8694   1.288   4.383   6.966 -2.0064  0.9616  0.5659
   91SAPC   O31 8695   1.162   4.317   6.803  0.3771 -0.2035 -0.1721
   91SAPC   C31 8696   1.053   4.387   6.831  1.1826 -0.6430 -0.6130
   91SAPC   O32 8697   1.028   4.435   6.943 -0.0867  0.0363  0.4805
   91SAPC   C32 8698   0.948   4.407   6.722 -0.4005 -0.7261  0.5530
   91SAPC   H2X 8699   0.892   4.496   6.756 -1.7310 -1.5786  0.6791
   91SAPC   H2Y 8700   0.871   4.327   6.728 -0.7462 -0.5015 -0.6644
   91SAPC   C23 8701   1.226   3.840   6.703 -0.4235  0.1168 -0.0479
   91SAPC   H3R 8702   1.279   3.744   6.691 -2.8755 -1.1704 -1.3031
   91SAPC   H3S 8703   1.301   3.919   6.681 -0.0694 -0.6615 -1.8910
   91SAPC   C24 8704   1.117   3.842   6.605  0.5066 -0.1656  0.4933
   91SAPC   H4R 8705   1.025   3.786   6.636 -0.5891  0.8541 -0.7888
   91SAPC   H4S 8706   1.146   3.785   6.514 -4.3046 -2.3150 -0.0088
   91SAPC   C25 8707   1.068   3.978   6.569 -0.0828  0.1710  0.0738
   91SAPC   H5R 8708   1.090   4.062   6.636 -1.9946  0.5927  0.2253
   91SAPC   C26 8709   1.013   4.012   6.450  0.2619 -0.2598 -0.8023
   91SAPC   H6R 8710   0.977   4.115   6.434  0.9122 -0.3348 -3.0695
   91SAPC   C27 8711   0.982   3.917   6.339 -0.5485  0.9041 -0.0222
   91SAPC   H7R 8712   0.883   3.943   6.296 -1.7285  0.6838  2.4022
   91SAPC   H7S 8713   0.974   3.813   6.378  0.3723 -0.4039 -2.9645
   91SAPC   C28 8714   1.086   3.932   6.228  0.2693  0.1638 -0.1341
   91SAPC   H8R 8715   1.190   3.920   6.262  0.5168 -0.0804 -0.9414
   91SAPC   C29 8716   1.062   3.961   6.095 -0.3260  0.1690 -0.0842
   91SAPC   H9R 8717   1.145   3.951   6.023 -1.6080  0.1302 -1.6364
   91SAPC  C210 8718   0.944   3.986   6.016 -0.3359 -0.1994  0.1442
   91SAPC  H10R 8719   0.852   3.975   6.077 -1.0822 -0.7284 -1.0432
   91SAPC  H10S 8720   0.916   3.909   5.941 -0.7902 -2.0139  2.1054
   91SAPC  C211 8721   0.960   4.118   5.943 -0.4127 -0.1634 -0.0852
   91SAPC  H11R 8722   0.945   4.203   6.012  1.4276  1.1013 -1.1577
   91SAPC  C212 8723   0.978   4.146   5.812  0.0558  0.9033  0.3461
   91SAPC  H12R 8724   0.988   4.253   5.789  0.7935  1.0239  1.1710
   91SAPC  C213 8725   0.994   4.049   5.696 -0.0264  0.1487  0.1903
   91SAPC  H13R 8726   0.897   3.995   5.702 -0.1762  0.3422 -0.4002
   91SAPC  H13S 8727   1.086   3.988   5.708  1.4509  2.3645  0.8204
   91SAPC  C214 8728   1.004   4.120   5.563  0.1994  0.2470 -1.2014
   91SAPC  H14R 8729   1.073   4.205   5.562  1.2763 -0.5464  0.6922
   91SAPC  C215 8730   0.948   4.087   5.448  0.2448  0.2983 -0.4139
   91SAPC  H15R 8731   0.970   4.141   5.354 -2.6040 -3.2222 -3.4668
   91SAPC  C216 8732   0.851   3.974   5.429 -0.3139  0.7313  0.1064
   91SAPC  H16R 8733   0.756   4.020   5.394  0.4409  1.2602 -1.3159
   91SAPC  H16S 8734   0.829   3.912   5.519 -3.5728 -0.3448 -1.2646
   91SAPC  C217 8735   0.886   3.870   5.321  1.0381 -0.1715  0.2553
   91SAPC  H17R 8736   0.976   3.817   5.358  0.8299  0.1388  1.2275
   91SAPC  H17S 8737   0.913   3.926   5.229  0.3631 -1.9276 -1.0692
   91SAPC  C218 8738   0.780   3.767   5.292 -0.4541  0.9529  0.2734
   91SAPC  H18R 8739   0.689   3.809   5.244 -0.9210  0.7553  0.9810
   91SAPC  H18S 8740   0.759   3.718   5.389  0.4332  1.2880  0.6469
   91SAPC  C219 8741   0.851   3.652   5.208  0.1425  0.4295 -0.7547
   91SAPC  H19R 8742   0.935   3.611   5.267  0.8096  1.6020 -0.8688
   91SAPC  H19S 8743   0.889   3.697   5.113  0.0488 -1.4459 -1.7291
   91SAPC  C220 8744   0.751   3.546   5.167 -0.2969 -0.7593 -0.1399
   91SAPC  H20R 8745   0.691   3.524   5.258  1.0168 -0.6643  0.7699
   91SAPC  H20S 8746   0.800   3.451   5.137 -0.5141 -0.5008 -1.3599
   91SAPC  H20T 8747   0.671   3.570   5.094  1.2069 -2.3602 -2.4615
   91SAPC   C33 8748   1.003   4.437   6.583  0.0896 -0.1484  0.1235
   91SAPC   H3X 8749   1.071   4.353   6.555 -1.1442 -1.0854 -0.1507
   91SAPC   H3Y 8750   1.060   4.532   6.584  0.7891 -0.5533  0.5934
   91SAPC   C34 8751   0.901   4.453   6.474  0.8404  0.0327  0.0019
   91SAPC   H4X 8752   0.835   4.540   6.493 -0.5839 -0.7989 -0.9701
   91SAPC   H4Y 8753   0.832   4.366   6.478 -0.3649  0.8765 -1.3828
   91SAPC   C35 8754   0.966   4.461   6.336  0.1930 -0.0351 -0.4295
   91SAPC   H5X 8755   1.005   4.362   6.303 -0.0456  0.3045 -1.7867
   91SAPC   H5Y 8756   1.054   4.527   6.345 -0.4259  0.6376  0.8936
   91SAPC   C36 8757   0.876   4.508   6.219 -0.4563 -0.1573 -0.2456
   91SAPC   H6X 8758   0.854   4.616   6.231  1.7912  0.6571 -2.5652
   91SAPC   H6Y 8759   0.789   4.438   6.214  1.9263 -3.2848 -0.5051
   91SAPC   C37 8760   0.945   4.513   6.085  0.2053  0.2275  1.2156
   91SAPC   H7X 8761   0.993   4.414   6.070  0.4537  0.3179  1.3989
   91SAPC   H7Y 8762   1.031   4.583   6.097 -0.2793  0.8656  0.9825
   91SAPC   C38 8763   0.854   4.550   5.964  0.5209  0.2485  0.6974
   91SAPC   H8X 8764   0.780   4.628   5.993  0.1328 -1.0963  3.7473
   91SAPC   H8Y 8765   0.790   4.462   5.941 -0.1331  1.0930 -0.8697
   91SAPC   C39 8766   0.931   4.586   5.839  0.2192 -0.2781  0.2325
   91SAPC   H9X 8767   1.032   4.540   5.833 -0.1828 -1.0326 -1.1407
   91SAPC   H9Y 8768   0.956   4.694   5.825 -0.7514 -0.0229  0.4102
   91SAPC  C310 8769   0.849   4.552   5.721  0.6970  0.2251  0.1941
   91SAPC  H10X 8770   0.745   4.590   5.724  1.2320  1.9289 -1.2538
   91SAPC  H10Y 8771   0.836   4.442   5.715 -0.5901  0.3862 -0.0450
   91SAPC  C311 8772   0.924   4.600   5.589  0.2497  0.2081 -0.1639
   91SAPC  H11X 8773   1.031   4.572   5.604 -0.2863 -1.0925  1.5897
   91SAPC  H11Y 8774   0.905   4.709   5.589 -2.6922 -0.2202 -0.8227
   91SAPC  C312 8775   0.871   4.542   5.457  0.4936 -0.3751 -0.1419
   91SAPC  H12X 8776   0.767   4.581   5.454 -0.2384 -2.1049  0.8472
   91SAPC  H12Y 8777   0.871   4.431   5.446 -1.0932 -0.7053  2.4677
   91SAPC  C313 8778   0.943   4.612   5.330 -0.3917  0.3290 -0.2070
   91SAPC  H13X 8779   1.022   4.544   5.291 -0.7694 -0.4525  0.3886
   91SAPC  H13Y 8780   0.994   4.704   5.367  2.5901 -1.7496  1.2309
   91SAPC  C314 8781   0.847   4.631   5.206 -0.2645  0.0502  0.2001
   91SAPC  H14X 8782   0.768   4.697   5.246 -0.5832  0.1299 -0.5473
   91SAPC  H14Y 8783   0.798   4.533   5.187 -0.4852 -0.1888  1.8621
   91SAPC  C315 8784   0.908   4.703   5.078 -0.0649  0.4133  0.0817
   91SAPC  H15X 8785   0.971   4.623   5.033 -1.5048  0.1789 -1.5925
   91SAPC  H15Y 8786   0.975   4.785   5.112 -0.1038  0.1709  0.7741
   91SAPC  C316 8787   0.802   4.741   4.973  0.5833 -0.5670  0.8810
   91SAPC  H16X 8788   0.723   4.808   5.014  1.6624  1.7544 -0.6171
   91SAPC  H16Y 8789   0.749   4.647   4.947 -0.5999  0.0714  0.8982
   91SAPC  C317 8790   0.873   4.804   4.853  0.1130 -0.5020  0.3523
   91SAPC  H17X 8791   0.949   4.730   4.820 -0.6053 -1.3362  0.5301
   91SAPC  H17Y 8792   0.913   4.905   4.879 -1.7789 -0.1192  2.0127
   91SAPC  C318 8793   0.777   4.834   4.742 -0.1417 -0.0336 -0.3994
   91SAPC  H18X 8794   0.826   4.896   4.664  0.2191 -0.1541 -0.2734
   91SAPC  H18Y 8795   0.683   4.879   4.782  0.6544  0.3278  1.1486
   91SAPC  H18Z 8796   0.742   4.740   4.693 -0.1029 -0.2947  0.0655
   92SAPC     N 8797   2.376   3.187   6.969  0.3248  0.3361 -0.0270
   92SAPC   C12 8798   2.467   3.305   6.928 -0.2863  0.9417 -0.0167
   92SAPC  H12A 8799   2.413   3.383   6.875 -0.0745  0.8224 -0.4125
   92SAPC  H12B 8800   2.542   3.260   6.864 -1.6188  0.9398 -1.6543
   92SAPC   C13 8801   2.297   3.132   6.858  0.4393 -0.2510  0.2478
   92SAPC  H13A 8802   2.262   3.031   6.876  0.0334 -0.0676  0.5023
   92SAPC  H13B 8803   2.212   3.193   6.835  0.5722  0.2259  0.9733
   92SAPC  H13C 8804   2.356   3.133   6.768  1.8709  1.2458  1.1394
   92SAPC   C14 8805   2.471   3.075   7.017  0.0124  0.0898  0.6969
   92SAPC  H14A 8806   2.429   3.014   7.096  0.9729 -1.7035 -0.1125
   92SAPC  H14B 8807   2.488   3.014   6.929 -0.0343 -0.2708  0.9358
   92SAPC  H14C 8808   2.567   3.115   7.046  2.0730 -0.5858 -4.2295
   92SAPC   C15 8809   2.278   3.233   7.081 -0.6755  0.4821 -0.0895
   92SAPC  H15A 8810   2.211   3.309   7.041 -0.0962  0.9928 -0.1010
   92SAPC  H15B 8811   2.212   3.154   7.116  0.0928 -0.4185 -0.6522
   92SAPC  H15C 8812   2.341   3.263   7.164 -1.3861  0.5664  0.4338
   92SAPC   C11 8813   2.560   3.372   7.036 -0.1997  0.3938  0.6221
   92SAPC  H11A 8814   2.502   3.404   7.125 -1.3396  1.3669 -0.4288
   92SAPC  H11B 8815   2.605   3.458   6.981 -1.1534 -1.1567 -2.9059
   92SAPC     P 8816   2.799   3.269   6.987 -0.1404 -0.0898  0.1862
   92SAPC   O13 8817   2.881   3.391   7.018  0.0101 -0.3887 -0.1062
   92SAPC   O14 8818   2.856   3.137   7.009  0.1152  0.8513  0.3822
   92SAPC   O12 8819   2.666   3.280   7.073 -0.2736  0.3819 -0.3101
   92SAPC   O11 8820   2.743   3.284   6.841  0.4589 -0.0354 -0.1357
   92SAPC    C1 8821   2.737   3.181   6.744 -0.2365  0.2063  1.3138
   92SAPC    HA 8822   2.836   3.157   6.698  0.3973 -1.7728  3.4993
   92SAPC    HB 8823   2.704   3.084   6.787 -1.1222 -0.3762 -0.5681
   92SAPC    C2 8824   2.650   3.233   6.630  0.0458 -0.6874  0.6201
   92SAPC    HS 8825   2.545   3.219   6.663 -0.2243  2.3315  1.3233
   92SAPC   O21 8826   2.673   3.158   6.508 -0.0828 -0.4716 -0.3923
   92SAPC   C21 8827   2.567   3.098   6.459  0.6123  0.2524 -0.0103
   92SAPC   O22 8828   2.448   3.102   6.500 -0.2273  0.2092 -0.1939
   92SAPC   C22 8829   2.604   3.047   6.321 -0.0179  0.0482  0.1864
   92SAPC   H2R 8830   2.700   3.088   6.284 -0.4748 -0.8590 -2.1666
   92SAPC   H2S 8831   2.605   2.940   6.347 -1.6405  0.2471  1.1996
   92SAPC    C3 8832   2.655   3.385   6.605 -0.1350  0.6937  0.2511
   92SAPC    HX 8833   2.760   3.417   6.587 -0.0437  1.4939  1.9777
   92SAPC    HY 8834   2.631   3.435   6.701 -1.5978 -1.4728  1.0834
   92SAPC   O31 8835   2.567   3.431   6.503 -0.6959 -0.0720 -0.0408
   92SAPC   C31 8836   2.441   3.447   6.540 -0.1003  0.5550  0.2491
   92SAPC   O32 8837   2.400   3.415   6.652 -0.3726 -0.0692  0.6602
   92SAPC   C32 8838   2.347   3.500   6.430  0.3490 -0.2007 -0.2399
   92SAPC   H2X 8839   2.314   3.409   6.375  0.3765 -1.2917  1.5011
   92SAPC   H2Y 8840   2.407   3.565   6.362 -0.5217  1.0954  0.2079
   92SAPC   C23 8841   2.491   3.071   6.220  0.5591  0.0362 -0.4007
   92SAPC   H3R 8842   2.397   3.024   6.255  1.0234 -0.1631  0.6115
   92SAPC   H3S 8843   2.518   3.010   6.131  0.7574  0.2937 -0.5213
   92SAPC   C24 8844   2.471   3.216   6.178  0.0632 -0.6338 -0.1882
   92SAPC   H4R 8845   2.471   3.284   6.266  3.2894  0.1532 -0.6678
   92SAPC   H4S 8846   2.375   3.225   6.124  0.6338  2.4059 -0.9313
   92SAPC   C25 8847   2.582   3.274   6.090 -0.1345 -0.0418  0.5272
   92SAPC   H5R 8848   2.678   3.225   6.113 -0.8411 -1.4388  0.6057
   92SAPC   C26 8849   2.564   3.353   5.981  0.4834 -0.1136 -0.3199
   92SAPC   H6R 8850   2.662   3.382   5.940  0.5355 -1.5360 -1.2919
   92SAPC   C27 8851   2.437   3.428   5.943 -0.0308  0.3254 -0.4905
   92SAPC   H7R 8852   2.362   3.347   5.928  0.6301 -0.5056  0.5840
   92SAPC   H7S 8853   2.460   3.488   5.852  2.4259  2.6128  1.4999
   92SAPC   C28 8854   2.391   3.525   6.050  0.1831  0.1032  0.0629
   92SAPC   H8R 8855   2.377   3.470   6.144 -1.0297 -1.9827 -1.2555
   92SAPC   C29 8856   2.362   3.656   6.034 -0.1841 -0.3690  0.1112
   92SAPC   H9R 8857   2.345   3.717   6.123 -2.5711 -1.1455  0.2524
   92SAPC  C210 8858   2.378   3.745   5.905 -0.2164 -0.0399 -0.8405
   92SAPC  H10R 8859   2.446   3.697   5.831  0.5709  2.0627 -1.5409
   92SAPC  H10S 8860   2.434   3.836   5.936  0.1922 -1.2956  2.5250
   92SAPC  C211 8861   2.250   3.790   5.841 -0.4059  0.5891  0.2476
   92SAPC  H11R 8862   2.210   3.872   5.902  1.5230  0.7731  1.3524
   92SAPC  C212 8863   2.186   3.741   5.729 -0.3802 -0.2853 -0.5026
   92SAPC  H12R 8864   2.099   3.795   5.689 -0.0359  1.0630  0.4948
   92SAPC  C213 8865   2.226   3.623   5.643 -0.0909 -0.2765 -0.4540
   92SAPC  H13R 8866   2.337   3.616   5.632 -0.1662  0.1018 -1.6050
   92SAPC  H13S 8867   2.198   3.652   5.540  0.6965 -0.4331 -0.7217
   92SAPC  C214 8868   2.171   3.491   5.675  0.0308  0.2846  0.3275
   92SAPC  H14R 8869   2.193   3.461   5.779 -2.3615  1.6809  1.2914
   92SAPC  C215 8870   2.099   3.406   5.594  0.7773 -0.7674  0.5083
   92SAPC  H15R 8871   2.071   3.306   5.629 -0.6881 -0.8549 -0.7782
   92SAPC  C216 8872   2.081   3.426   5.447  0.1555  0.3755  0.4914
   92SAPC  H16R 8873   2.060   3.327   5.400 -1.6399 -0.1194  2.1804
   92SAPC  H16S 8874   2.163   3.480   5.396 -0.7548  1.6521  0.3061
   92SAPC  C217 8875   1.966   3.529   5.413  0.0974  0.2206  0.7966
   92SAPC  H17R 8876   1.986   3.623   5.469 -0.3956  0.5500  0.4268
   92SAPC  H17S 8877   1.868   3.485   5.441 -0.6617  0.4388 -1.3665
   92SAPC  C218 8878   1.958   3.579   5.264 -0.2915  0.7859 -0.4231
   92SAPC  H18R 8879   1.961   3.492   5.194  0.2861  0.9106 -0.5617
   92SAPC  H18S 8880   2.054   3.633   5.255 -1.4754  3.1076  0.2112
   92SAPC  C219 8881   1.854   3.686   5.231  0.0133 -0.0260 -0.0097
   92SAPC  H19R 8882   1.756   3.637   5.214  0.8699 -1.9826  0.4815
   92SAPC  H19S 8883   1.880   3.736   5.135  0.7200  2.6827  1.4715
   92SAPC  C220 8884   1.854   3.804   5.329  0.2265  0.1529  0.4175
   92SAPC  H20R 8885   1.841   3.768   5.433  2.8649 -1.2676  0.3329
   92SAPC  H20S 8886   1.783   3.886   5.305  0.1714 -0.1083 -0.3526
   92SAPC  H20T 8887   1.956   3.850   5.326  1.4996 -2.4847  0.8272
   92SAPC   C33 8888   2.213   3.574   6.477 -0.8675  0.1273  0.9633
   92SAPC   H3X 8889   2.246   3.669   6.523 -1.8900  0.0598  1.8535
   92SAPC   H3Y 8890   2.162   3.508   6.551  0.4306 -1.0190  0.8845
   92SAPC   C34 8891   2.107   3.609   6.371  0.1368  0.4238  0.2522
   92SAPC   H4X 8892   2.148   3.667   6.286  1.3276 -0.1272  0.4400
   92SAPC   H4Y 8893   2.041   3.678   6.427  2.3764  2.2268  0.7550
   92SAPC   C35 8894   2.036   3.482   6.295  0.2758  0.3800 -0.3809
   92SAPC   H5X 8895   1.999   3.412   6.372  1.1660  1.3270  0.9589
   92SAPC   H5Y 8896   2.097   3.420   6.226  2.4596  2.5730 -0.5694
   92SAPC   C36 8897   1.918   3.533   6.226 -0.7285  0.1463  0.0186
   92SAPC   H6X 8898   1.949   3.622   6.167  2.6258 -1.8636 -1.5445
   92SAPC   H6Y 8899   1.841   3.555   6.303 -1.0758  0.0754 -0.3016
   92SAPC   C37 8900   1.863   3.432   6.122 -0.5969 -0.2263  0.1015
   92SAPC   H7X 8901   1.804   3.359   6.181 -2.2401  0.5562 -0.4750
   92SAPC   H7Y 8902   1.949   3.397   6.062 -0.6735 -1.0895  0.4855
   92SAPC   C38 8903   1.763   3.495   6.017 -0.2002 -0.2962  0.6680
   92SAPC   H8X 8904   1.822   3.581   5.979 -0.4155 -0.2527  0.4257
   92SAPC   H8Y 8905   1.682   3.542   6.077 -1.1323  0.1914 -0.8884
   92SAPC   C39 8906   1.703   3.413   5.907 -0.2499  0.1898 -0.2579
   92SAPC   H9X 8907   1.667   3.319   5.956 -0.2501  0.2668 -0.1094
   92SAPC   H9Y 8908   1.781   3.396   5.830  0.1770  0.5324  0.0981
   92SAPC  C310 8909   1.577   3.485   5.839 -0.5106 -0.2498  0.2853
   92SAPC  H10X 8910   1.603   3.592   5.822 -1.6303  0.7072  3.7649
   92SAPC  H10Y 8911   1.489   3.490   5.906  1.1249 -0.0216  2.5606
   92SAPC  C311 8912   1.528   3.423   5.701  0.4054 -0.2332  0.4041
   92SAPC  H11X 8913   1.431   3.467   5.673  1.5215  2.3542  0.3073
   92SAPC  H11Y 8914   1.498   3.318   5.721  2.5448 -1.0673 -0.4247
   92SAPC  C312 8915   1.625   3.441   5.585  0.7227  0.0375  0.6848
   92SAPC  H12X 8916   1.724   3.398   5.612  1.8606  1.6115 -0.7885
   92SAPC  H12Y 8917   1.643   3.550   5.580  1.2121 -0.0689 -0.0845
   92SAPC  C313 8918   1.578   3.391   5.447  0.0243 -0.8251 -0.4957
   92SAPC  H13X 8919   1.644   3.443   5.375  0.0876 -0.1048  0.0589
   92SAPC  H13Y 8920   1.474   3.424   5.425  1.3148  1.1480 -4.5379
   92SAPC  C314 8921   1.572   3.246   5.413 -0.2140 -0.0737  0.1117
   92SAPC  H14X 8922   1.515   3.234   5.318  0.5522 -0.5077 -0.3028
   92SAPC  H14Y 8923   1.526   3.185   5.494  3.4856 -1.3008  1.5177
   92SAPC  C315 8924   1.715   3.195   5.382 -0.3964  0.0881 -0.6797
   92SAPC  H15X 8925   1.774   3.192   5.476  0.5700  0.0468 -1.2784
   92SAPC  H15Y 8926   1.755   3.270   5.311  2.8824 -1.2614 -0.4489
   92SAPC  C316 8927   1.716   3.047   5.329 -0.5823 -0.2218 -0.5248
   92SAPC  H16X 8928   1.668   2.976   5.399 -0.9611  0.9912  0.4746
   92SAPC  H16Y 8929   1.823   3.018   5.338 -0.7702 -0.4893  1.0644
   92SAPC  C317 8930   1.661   3.029   5.185  0.1364  0.1475  0.0335
   92SAPC  H17X 8931   1.555   3.062   5.188 -0.2228 -0.9751  3.2002
   92SAPC  H17Y 8932   1.664   2.919   5.167  2.0630  0.1045  0.4312
   92SAPC  C318 8933   1.748   3.087   5.073 -0.3830  0.3429  0.0524
   92SAPC  H18X 8934   1.855   3.081   5.105 -0.2623 -2.1845 -0.6143
   92SAPC  H18Y 8935   1.724   3.194   5.055 -2.4022 -0.2788 -1.2464
   92SAPC  H18Z 8936   1.726   3.028   4.982 -0.4216  1.9055 -0.9973
   93SAPC     N 8937   2.034   6.749   7.008 -0.4384  0.1555  0.8185
   93SAPC   C12 8938   2.173   6.681   6.997  0.9549 -0.3258 -0.1375
   93SAPC  H12A 8939   2.239   6.718   7.074  1.0590 -1.3141  0.2595
   93SAPC  H12B 8940   2.207   6.691   6.895  1.5892 -2.1399 -0.1380
   93SAPC   C13 8941   2.065   6.898   7.019  1.1858 -0.4520 -0.9750
   93SAPC  H13A 8942   1.978   6.956   7.046  1.4925  0.0687 -1.1091
   93SAPC  H13B 8943   2.136   6.915   7.099  0.2054  0.3870 -0.2555
   93SAPC  H13C 8944   2.111   6.936   6.929 -0.1616  2.2099 -0.6437
   93SAPC   C14 8945   1.944   6.715   6.892  0.4271  0.0515  0.2781
   93SAPC  H14A 8946   1.982   6.762   6.803  0.7315  1.9342  1.3524
   93SAPC  H14B 8947   1.939   6.608   6.880  0.0127 -0.2674  2.7226
   93SAPC  H14C 8948   1.843   6.754   6.900  0.3573 -0.1686  0.4691
   93SAPC   C15 8949   1.961   6.704   7.135  0.0222  0.2584 -0.8249
   93SAPC  H15A 8950   2.015   6.727   7.226 -3.2736  0.6824  1.2172
   93SAPC  H15B 8951   1.866   6.755   7.137  1.0075  2.2006  0.3032
   93SAPC  H15C 8952   1.942   6.598   7.139  0.0029  0.0592 -3.9954
   93SAPC   C11 8953   2.175   6.529   7.022  0.3861  0.0992 -0.4950
   93SAPC  H11A 8954   2.135   6.520   7.126 -1.0287  2.4376 -0.7775
   93SAPC  H11B 8955   2.280   6.494   7.023  0.9462  1.7171  0.2493
   93SAPC     P 8956   2.144   6.418   6.776  0.1346  0.0798 -0.4681
   93SAPC   O13 8957   2.213   6.290   6.780 -0.1481  0.1252 -0.4075
   93SAPC   O14 8958   2.029   6.421   6.687  0.4470  0.2411  0.5668
   93SAPC   O12 8959   2.106   6.451   6.921  0.5547 -0.8394 -0.5466
   93SAPC   O11 8960   2.245   6.540   6.750  0.0559  0.0275  0.6218
   93SAPC    C1 8961   2.198   6.644   6.656  0.3803 -0.2636 -0.2612
   93SAPC    HA 8962   2.094   6.677   6.676  0.8614  0.9078  0.4341
   93SAPC    HB 8963   2.261   6.736   6.661 -1.8315  1.3842 -1.2186
   93SAPC    C2 8964   2.231   6.591   6.511 -0.0703 -0.5867 -0.3973
   93SAPC    HS 8965   2.210   6.482   6.516 -0.1268 -0.5390  2.9102
   93SAPC   O21 8966   2.371   6.618   6.480 -0.8342  0.8332 -0.2466
   93SAPC   C21 8967   2.433   6.538   6.399 -0.1567  1.2022  0.7132
   93SAPC   O22 8968   2.380   6.438   6.341  0.1822  0.2832 -0.1852
   93SAPC   C22 8969   2.573   6.579   6.381 -0.0785 -0.5663 -0.2997
   93SAPC   H2R 8970   2.572   6.677   6.329  0.5092 -0.3099  0.1559
   93SAPC   H2S 8971   2.620   6.605   6.478  2.2577 -1.7800 -1.0187
   93SAPC    C3 8972   2.134   6.671   6.412  0.4665  0.4065  0.3537
   93SAPC    HX 8973   2.179   6.772   6.403  1.1232  0.0984  0.0471
   93SAPC    HY 8974   2.035   6.675   6.460 -0.5131  0.7701 -1.5858
   93SAPC   O31 8975   2.129   6.609   6.278 -0.3636 -0.0405 -0.3691
   93SAPC   C31 8976   2.050   6.500   6.269  0.2436 -0.3027  0.4859
   93SAPC   O32 8977   1.967   6.469   6.354  0.4123 -0.3766  0.2195
   93SAPC   C32 8978   2.075   6.443   6.130  0.3965  0.2430 -0.0991
   93SAPC   H2X 8979   2.182   6.413   6.129 -0.1134 -1.9377  1.4401
   93SAPC   H2Y 8980   2.060   6.526   6.058 -2.4729 -1.1472 -1.2843
   93SAPC   C23 8981   2.657   6.468   6.316  0.0527 -0.1816  0.5009
   93SAPC   H3R 8982   2.626   6.372   6.362  1.1386 -0.9388 -0.2747
   93SAPC   H3S 8983   2.760   6.482   6.357  0.1212  0.5285  0.0956
   93SAPC   C24 8984   2.646   6.462   6.164  1.1113 -0.5820 -0.0721
   93SAPC   H4R 8985   2.670   6.558   6.113 -0.6984 -0.6142 -1.0938
   93SAPC   H4S 8986   2.538   6.456   6.137  1.1347  2.1326 -1.1089
   93SAPC   C25 8987   2.743   6.352   6.119  0.4789  0.0744 -0.8643
   93SAPC   H5R 8988   2.740   6.267   6.189 -0.6099  1.6581  1.1095
   93SAPC   C26 8989   2.819   6.349   6.005 -0.2854 -0.5014 -0.1382
   93SAPC   H6R 8990   2.885   6.264   5.985  3.4807  2.4886 -1.7408
   93SAPC   C27 8991   2.818   6.461   5.900 -0.0879  0.7118 -0.0770
   93SAPC   H7R 8992   2.885   6.540   5.942 -0.4510  1.2252 -0.4477
   93SAPC   H7S 8993   2.716   6.504   5.891 -0.1769  0.1860 -1.8170
   93SAPC   C28 8994   2.866   6.428   5.759  0.1023 -0.2668 -0.4126
   93SAPC   H8R 8995   2.943   6.350   5.763 -0.5267 -0.8844 -0.0466
   93SAPC   C29 8996   2.824   6.457   5.638 -0.0846 -0.9547 -0.0246
   93SAPC   H9R 8997   2.867   6.413   5.546 -0.4280  1.9134 -1.6679
   93SAPC  C210 8998   2.703   6.546   5.615 -0.1350  0.0989  0.3663
   93SAPC  H10R 8999   2.665   6.607   5.700 -0.0713  0.5974  0.0384
   93SAPC  H10S 9000   2.624   6.475   5.582 -0.4611 -0.0755  1.4629
   93SAPC  C211 9001   2.736   6.639   5.499  0.1216 -0.3383 -0.0917
   93SAPC  H11R 9002   2.826   6.701   5.513 -0.3063  0.7685 -1.9567
   93SAPC  C212 9003   2.668   6.643   5.381 -0.5734 -0.5434  0.6588
   93SAPC  H12R 9004   2.713   6.714   5.311  2.1379  0.8041  3.5614
   93SAPC  C213 9005   2.554   6.568   5.324  0.6811  0.9026  0.4692
   93SAPC  H13R 9006   2.481   6.647   5.296 -1.0289 -1.2789 -1.6628
   93SAPC  H13S 9007   2.503   6.509   5.403 -0.3227  1.2384  0.0937
   93SAPC  C214 9008   2.579   6.474   5.206 -0.2972  0.1958 -0.9243
   93SAPC  H14R 9009   2.590   6.370   5.240  2.5793 -0.0679 -2.3483
   93SAPC  C215 9010   2.613   6.506   5.078  0.5054  0.5178  0.5479
   93SAPC  H15R 9011   2.633   6.425   5.006 -1.6925  0.2052  0.2220
   93SAPC  C216 9012   2.619   6.651   5.029 -0.0077  0.1065  0.2126
   93SAPC  H16R 9013   2.726   6.676   5.010 -0.1752  0.5272 -0.1835
   93SAPC  H16S 9014   2.579   6.730   5.097  0.0878  1.4263 -1.2102
   93SAPC  C217 9015   2.557   6.675   4.895  0.1393 -0.4648  0.4845
   93SAPC  H17R 9016   2.588   6.616   4.807  1.9341 -0.4400  1.0695
   93SAPC  H17S 9017   2.594   6.778   4.872  0.5075 -0.0871  2.5813
   93SAPC  C218 9018   2.409   6.661   4.910  0.4666  0.4539  0.2263
   93SAPC  H18R 9019   2.381   6.717   5.002 -0.0613  0.2160  0.2133
   93SAPC  H18S 9020   2.385   6.556   4.936  2.1656 -0.3444 -1.2304
   93SAPC  C219 9021   2.324   6.697   4.786 -0.2986  0.4747 -0.6702
   93SAPC  H19R 9022   2.377   6.666   4.694  2.4056 -1.4232  1.3601
   93SAPC  H19S 9023   2.328   6.808   4.786  1.1111  0.4758 -2.7867
   93SAPC  C220 9024   2.179   6.651   4.800  0.2584  0.2303  0.3501
   93SAPC  H20R 9025   2.145   6.708   4.889  1.5609 -0.9267  1.6247
   93SAPC  H20S 9026   2.176   6.542   4.819 -0.8057 -0.1724 -1.8170
   93SAPC  H20T 9027   2.102   6.657   4.719 -0.9180 -1.6757  1.2697
   93SAPC   C33 9028   1.977   6.327   6.105 -0.5502 -0.0830 -0.2438
   93SAPC   H3X 9029   1.873   6.353   6.134 -0.0041 -0.5743  2.4489
   93SAPC   H3Y 9030   2.003   6.245   6.176 -2.0222  1.2498  1.9686
   93SAPC   C34 9031   1.999   6.275   5.961  0.0263 -0.1012  0.3499
   93SAPC   H4X 9032   2.107   6.251   5.951  0.0424  0.5484 -1.3109
   93SAPC   H4Y 9033   1.968   6.350   5.886  0.4250 -1.5457 -1.3349
   93SAPC   C35 9034   1.909   6.153   5.931 -0.2921 -0.3474  0.2457
   93SAPC   H5X 9035   1.808   6.197   5.949  0.8676  2.1781  0.9531
   93SAPC   H5Y 9036   1.926   6.073   6.007 -2.2821  0.7287  1.9563
   93SAPC   C36 9037   1.927   6.094   5.791  0.0843 -0.3363  0.0177
   93SAPC   H6X 9038   1.921   5.984   5.804  0.3968 -0.2598  0.8647
   93SAPC   H6Y 9039   2.030   6.108   5.753 -0.1791  0.1486 -0.5314
   93SAPC   C37 9040   1.828   6.147   5.692  0.9312  0.4264  0.2861
   93SAPC   H7X 9041   1.852   6.251   5.661 -1.8675  1.8918  2.5725
   93SAPC   H7Y 9042   1.725   6.146   5.734 -0.0948 -1.2455 -2.0150
   93SAPC   C38 9043   1.826   6.060   5.562  0.9988 -0.4010  0.1498
   93SAPC   H8X 9044   1.794   5.957   5.588  1.2636 -0.3265  0.8012
   93SAPC   H8Y 9045   1.934   6.052   5.537  0.7842  0.8148 -1.2618
   93SAPC   C39 9046   1.740   6.119   5.448 -0.0155 -0.2732  0.0329
   93SAPC   H9X 9047   1.777   6.221   5.424 -1.3700 -0.4024 -3.1017
   93SAPC   H9Y 9048   1.632   6.134   5.468  0.1675 -1.0377  1.7945
   93SAPC  C310 9049   1.764   6.046   5.314  0.4785  0.1311 -0.3804
   93SAPC  H10X 9050   1.686   5.967   5.313 -0.4998  0.9508  2.4304
   93SAPC  H10Y 9051   1.867   6.005   5.321 -0.1600 -1.3108  1.2218
   93SAPC  C311 9052   1.758   6.136   5.192 -0.2858  0.2061  0.3103
   93SAPC  H11X 9053   1.800   6.084   5.103  3.5454  0.6790  1.6643
   93SAPC  H11Y 9054   1.840   6.207   5.217  0.7579 -1.2210  1.0945
   93SAPC  C312 9055   1.637   6.226   5.172  0.6353 -0.3995  0.5097
   93SAPC  H12X 9056   1.650   6.281   5.076 -0.1948  0.0365  0.6362
   93SAPC  H12Y 9057   1.634   6.308   5.247  1.9613  2.5432 -2.3671
   93SAPC  C313 9058   1.493   6.162   5.157 -0.3059  0.2236 -0.1531
   93SAPC  H13X 9059   1.476   6.100   5.248  1.6143 -0.3197 -0.1162
   93SAPC  H13Y 9060   1.483   6.095   5.070  1.8564 -0.8551  0.3617
   93SAPC  C314 9061   1.373   6.253   5.148  0.1205  0.4398  0.5921
   93SAPC  H14X 9062   1.282   6.194   5.170  1.0262 -0.5700  1.8175
   93SAPC  H14Y 9063   1.381   6.281   5.041 -1.9388 -2.1501 -0.3607
   93SAPC  C315 9064   1.367   6.370   5.249 -0.4272 -0.4740 -0.2032
   93SAPC  H15X 9065   1.269   6.423   5.244  0.7448  1.7173 -2.6990
   93SAPC  H15Y 9066   1.455   6.432   5.222  0.0394 -1.2952 -0.6013
   93SAPC  C316 9067   1.374   6.322   5.390 -0.3936 -0.4124  0.2495
   93SAPC  H16X 9068   1.390   6.412   5.453  0.9015 -0.4920  0.0703
   93SAPC  H16Y 9069   1.472   6.277   5.415  0.1194  0.1782 -0.6234
   93SAPC  C317 9070   1.255   6.236   5.443 -0.1244 -0.8719 -0.7148
   93SAPC  H17X 9071   1.301   6.186   5.531  0.1547 -0.7738 -0.8024
   93SAPC  H17Y 9072   1.238   6.159   5.366 -0.5028 -1.4632 -0.0439
   93SAPC  C318 9073   1.128   6.307   5.497 -0.2831  0.3789 -0.4425
   93SAPC  H18X 9074   1.151   6.383   5.574 -1.1185  1.5220 -1.2774
   93SAPC  H18Y 9075   1.078   6.218   5.539  1.0980 -0.0233  0.4050
   93SAPC  H18Z 9076   1.057   6.344   5.420  2.1071  1.3946 -2.2807
   94SAPC     N 9077   1.537   2.307   6.828 -0.1271  0.0064 -0.1775
   94SAPC   C12 9078   1.423   2.292   6.731 -0.4403  0.5425 -0.9436
   94SAPC  H12A 9079   1.460   2.298   6.630 -0.0670 -1.5753 -0.9664
   94SAPC  H12B 9080   1.361   2.380   6.746 -0.1560  0.4581  1.0356
   94SAPC   C13 9081   1.608   2.433   6.806  0.2173  0.5994 -0.9240
   94SAPC  H13A 9082   1.546   2.521   6.814  1.2611  1.2562  0.2910
   94SAPC  H13B 9083   1.675   2.451   6.888 -1.5210 -0.2196  0.7436
   94SAPC  H13C 9084   1.679   2.427   6.725  1.9528 -0.5203  0.6086
   94SAPC   C14 9085   1.494   2.293   6.972  0.1865 -0.5587  0.8288
   94SAPC  H14A 9086   1.438   2.201   6.983 -1.4124  0.0275 -1.5361
   94SAPC  H14B 9087   1.579   2.300   7.038 -0.2239 -0.3505  1.3303
   94SAPC  H14C 9088   1.427   2.369   7.009  0.2215 -0.9857  1.7924
   94SAPC   C15 9089   1.641   2.208   6.798 -0.9898  0.2433 -0.3363
   94SAPC  H15A 9090   1.669   2.222   6.695 -1.1072  1.5664 -0.2078
   94SAPC  H15B 9091   1.730   2.223   6.857  0.1106 -0.7933 -1.6864
   94SAPC  H15C 9092   1.606   2.106   6.809  2.7519 -1.3090 -1.2835
   94SAPC   C11 9093   1.327   2.170   6.742 -0.2080  0.6237  0.3232
   94SAPC  H11A 9094   1.384   2.078   6.767 -1.9954 -0.9337 -0.9924
   94SAPC  H11B 9095   1.286   2.146   6.641  2.9389 -1.5117 -0.6125
   94SAPC     P 9096   1.120   2.306   6.839  0.7955 -0.0963 -0.2717
   94SAPC   O13 9097   1.010   2.294   6.935 -0.2321  0.2529  0.7834
   94SAPC   O14 9098   1.195   2.432   6.846 -0.1378 -0.1044 -0.2828
   94SAPC   O12 9099   1.229   2.188   6.852  0.2796  0.4829  0.0882
   94SAPC   O11 9100   1.049   2.287   6.702  0.0614 -0.0009 -0.0811
   94SAPC    C1 9101   0.967   2.169   6.682  0.6535  0.0710 -0.6098
   94SAPC    HA 9102   1.009   2.074   6.720  0.3666 -0.1718 -0.8982
   94SAPC    HB 9103   0.869   2.188   6.731  0.9665 -0.8941  0.4131
   94SAPC    C2 9104   0.941   2.154   6.531 -0.1839 -0.4618 -0.3336
   94SAPC    HS 9105   0.861   2.078   6.515  2.7956 -3.7333 -0.8651
   94SAPC   O21 9106   1.066   2.117   6.471 -0.0282  0.7415  0.0808
   94SAPC   C21 9107   1.092   1.983   6.485 -0.2417 -0.6986  0.8134
   94SAPC   O22 9108   1.026   1.909   6.553 -0.1688  0.0721  0.0375
   94SAPC   C22 9109   1.209   1.948   6.388  0.3016  0.1480  0.5080
   94SAPC   H2R 9110   1.255   2.039   6.343 -0.7023 -0.7596 -2.5951
   94SAPC   H2S 9111   1.286   1.909   6.459  0.4921 -0.2584  0.0818
   94SAPC    C3 9112   0.893   2.287   6.483 -0.0201  0.0332  0.9491
   94SAPC    HX 9113   0.981   2.354   6.469  0.0490 -0.1650  0.3789
   94SAPC    HY 9114   0.819   2.328   6.554  0.5241 -0.2461  1.6813
   94SAPC   O31 9115   0.840   2.264   6.348 -0.3067 -0.2739 -0.0016
   94SAPC   C31 9116   0.711   2.229   6.323 -0.0926 -0.6359 -0.1003
   94SAPC   O32 9117   0.633   2.206   6.416 -0.0033 -0.0642  0.0288
   94SAPC   C32 9118   0.680   2.235   6.176  0.5637  0.1836 -0.1403
   94SAPC   H2X 9119   0.735   2.165   6.110 -0.4376 -0.2550 -0.5337
   94SAPC   H2Y 9120   0.697   2.341   6.149  1.5869  0.8023  2.5468
   94SAPC   C23 9121   1.172   1.841   6.290 -0.4535 -0.6926 -0.7365
   94SAPC   H3R 9122   1.090   1.885   6.230 -0.2055  1.3726  0.3395
   94SAPC   H3S 9123   1.123   1.756   6.343  0.0914 -1.4479 -1.4212
   94SAPC   C24 9124   1.284   1.787   6.202  0.8764 -0.6562  0.1538
   94SAPC   H4R 9125   1.377   1.784   6.263 -0.2732 -1.4880  1.9334
   94SAPC   H4S 9126   1.290   1.869   6.127 -0.7482  1.0419  1.7788
   94SAPC   C25 9127   1.242   1.653   6.139  0.3037 -0.3096  0.6914
   94SAPC   H5R 9128   1.214   1.575   6.212 -0.2493  0.6426  1.5299
   94SAPC   C26 9129   1.221   1.618   6.013 -0.2409  0.0224  0.2417
   94SAPC   H6R 9130   1.180   1.517   5.997 -3.9217  1.4482 -0.2651
   94SAPC   C27 9131   1.250   1.693   5.887  0.5526 -0.6311  0.0955
   94SAPC   H7R 9132   1.326   1.641   5.825 -0.7565 -1.0676 -1.1812
   94SAPC   H7S 9133   1.310   1.783   5.913 -0.3215 -0.1537  0.4819
   94SAPC   C28 9134   1.127   1.742   5.818 -0.0043  0.1565  0.9377
   94SAPC   H8R 9135   1.085   1.672   5.744 -0.4367  1.4023 -0.0355
   94SAPC   C29 9136   1.064   1.857   5.834  0.3615 -0.9019 -0.0231
   94SAPC   H9R 9137   0.968   1.871   5.782 -0.1802  1.4029  1.4670
   94SAPC  C210 9138   1.106   1.974   5.918 -0.5293 -0.9906  0.2904
   94SAPC  H10R 9139   1.211   2.000   5.893 -1.5783  2.1045 -1.4454
   94SAPC  H10S 9140   1.112   1.943   6.025 -1.1426  0.0157  0.6226
   94SAPC  C211 9141   1.024   2.104   5.905 -0.3037 -0.0051  0.4845
   94SAPC  H11R 9142   0.962   2.115   5.815 -1.8840  1.0865  1.6617
   94SAPC  C212 9143   1.032   2.206   5.990  0.0579  0.5802 -0.0043
   94SAPC  H12R 9144   0.959   2.289   5.986 -1.0605 -0.2151  2.0157
   94SAPC  C213 9145   1.112   2.218   6.113 -0.3226 -0.4268 -0.5297
   94SAPC  H13R 9146   1.204   2.163   6.083  0.8091  0.3578  1.2886
   94SAPC  H13S 9147   1.069   2.161   6.198  0.3457  1.1535  0.9409
   94SAPC  C214 9148   1.146   2.359   6.163 -0.2430 -0.6700  0.0251
   94SAPC  H14R 9149   1.098   2.382   6.259 -1.5782 -0.3087 -0.7017
   94SAPC  C215 9150   1.211   2.454   6.100  0.6651 -1.2055 -0.4784
   94SAPC  H15R 9151   1.214   2.550   6.155 -2.7247 -0.9607 -0.4992
   94SAPC  C216 9152   1.265   2.446   5.960 -0.0780 -0.0341  0.4171
   94SAPC  H16R 9153   1.192   2.491   5.890  0.7002 -0.6715 -0.8492
   94SAPC  H16S 9154   1.279   2.340   5.931 -2.5279  0.0050 -1.1786
   94SAPC  C217 9155   1.386   2.535   5.937  0.4657 -0.3996 -0.5815
   94SAPC  H17R 9156   1.472   2.488   5.989  0.4501  1.8599  1.6507
   94SAPC  H17S 9157   1.375   2.631   5.991 -0.4652 -0.0733 -1.3316
   94SAPC  C218 9158   1.418   2.569   5.794 -0.6591  0.6364 -0.1169
   94SAPC  H18R 9159   1.489   2.654   5.788  0.1902 -0.1777 -3.0188
   94SAPC  H18S 9160   1.327   2.606   5.742  0.5255  1.8666 -1.3991
   94SAPC  C219 9161   1.499   2.456   5.732  0.2217 -0.7489  0.2243
   94SAPC  H19R 9162   1.442   2.361   5.742 -2.0059  0.4501 -0.2250
   94SAPC  H19S 9163   1.592   2.439   5.790 -0.2422  1.2443  1.6725
   94SAPC  C220 9164   1.526   2.483   5.583  0.3282  1.2153 -0.0051
   94SAPC  H20R 9165   1.581   2.402   5.530 -1.0288  0.6582 -0.6288
   94SAPC  H20S 9166   1.587   2.575   5.571  0.0873  1.2185 -1.4101
   94SAPC  H20T 9167   1.430   2.495   5.527 -0.3520 -0.8800  0.6205
   94SAPC   C33 9168   0.525   2.210   6.142  0.2666  0.1102  0.4824
   94SAPC   H3X 9169   0.467   2.256   6.224 -0.2726 -0.9895  0.7340
   94SAPC   H3Y 9170   0.506   2.101   6.142  0.0828  0.1061 -1.0936
   94SAPC   C34 9171   0.482   2.265   6.011 -0.2522  0.4675  0.3692
   94SAPC   H4X 9172   0.492   2.375   5.999  1.2001  0.2263 -0.8136
   94SAPC   H4Y 9173   0.373   2.251   5.993 -0.4580  0.9005  1.1896
   94SAPC   C35 9174   0.559   2.212   5.887  0.2822 -0.0533 -0.1164
   94SAPC   H5X 9175   0.552   2.101   5.887  1.4284 -0.1435  0.2507
   94SAPC   H5Y 9176   0.664   2.242   5.910 -0.5366 -0.1324  4.7860
   94SAPC   C36 9177   0.513   2.260   5.746  0.0479  0.1325 -0.0662
   94SAPC   H6X 9178   0.537   2.368   5.740  3.3583 -0.4259  0.9014
   94SAPC   H6Y 9179   0.410   2.222   5.733  0.0821 -0.3825  1.0497
   94SAPC   C37 9180   0.599   2.192   5.641  0.0205 -0.2713 -0.0269
   94SAPC   H7X 9181   0.598   2.081   5.634  0.4338 -0.2966  0.2826
   94SAPC   H7Y 9182   0.703   2.226   5.657 -0.2367  0.3787  0.2833
   94SAPC   C38 9183   0.567   2.239   5.498 -0.0818  0.1204  0.5928
   94SAPC   H8X 9184   0.628   2.329   5.473 -0.1129  0.8466  2.8893
   94SAPC   H8Y 9185   0.459   2.261   5.481  0.2074 -0.2866 -2.2696
   94SAPC   C39 9186   0.628   2.137   5.393  0.7816 -0.3095  0.6957
   94SAPC   H9X 9187   0.598   2.033   5.420 -0.6138 -0.3160 -0.7229
   94SAPC   H9Y 9188   0.738   2.124   5.403  0.5843 -0.8806  2.4365
   94SAPC  C310 9189   0.607   2.181   5.247 -0.5964  0.1947  0.1790
   94SAPC  H10X 9190   0.498   2.204   5.237 -0.3000  1.6000  0.0380
   94SAPC  H10Y 9191   0.626   2.092   5.184 -0.9416  0.5921 -0.4897
   94SAPC  C311 9192   0.683   2.304   5.197 -0.5699  0.5806 -0.0975
   94SAPC  H11X 9193   0.638   2.399   5.234  1.3672  1.0548  1.2331
   94SAPC  H11Y 9194   0.672   2.305   5.087  0.8817  0.1892 -0.2643
   94SAPC  C312 9195   0.831   2.312   5.232  0.2808  0.2986  0.0881
   94SAPC  H12X 9196   0.876   2.217   5.198  0.4590 -0.0863  1.3662
   94SAPC  H12Y 9197   0.829   2.316   5.343  1.6395 -0.0634  0.1408
   94SAPC  C313 9198   0.911   2.434   5.182 -0.7149  0.4807  0.6276
   94SAPC  H13X 9199   0.932   2.409   5.076 -0.4526 -2.7889  1.3397
   94SAPC  H13Y 9200   1.012   2.441   5.229  0.0165  2.0261 -1.0426
   94SAPC  C314 9201   0.844   2.582   5.194  0.1232 -0.0941 -0.8222
   94SAPC  H14X 9202   0.733   2.576   5.185 -0.0851 -1.0528  1.6669
   94SAPC  H14Y 9203   0.898   2.645   5.120  0.8609  0.7811  0.4301
   94SAPC  C315 9204   0.853   2.650   5.330 -0.5765  0.4350 -0.1092
   94SAPC  H15X 9205   0.951   2.621   5.373  0.4149 -1.4849 -3.2876
   94SAPC  H15Y 9206   0.785   2.615   5.411 -0.1509  0.7171  0.3727
   94SAPC  C316 9207   0.834   2.797   5.334 -0.3419 -0.7826 -0.4462
   94SAPC  H16X 9208   0.884   2.854   5.252 -1.7787  1.6628  0.2750
   94SAPC  H16Y 9209   0.867   2.841   5.430  2.5451  1.1276 -2.1573
   94SAPC  C317 9210   0.689   2.846   5.311  0.1256  0.7346  0.2916
   94SAPC  H17X 9211   0.616   2.795   5.377  0.2890  2.3661  1.8055
   94SAPC  H17Y 9212   0.660   2.831   5.205 -0.5159  0.4062  0.5068
   94SAPC  C318 9213   0.668   2.992   5.341  0.0413 -0.5249 -0.1710
   94SAPC  H18X 9214   0.563   3.022   5.320  0.1038  0.0641  0.3392
   94SAPC  H18Y 9215   0.717   3.064   5.272  0.4236  1.3521  1.9524
   94SAPC  H18Z 9216   0.689   3.010   5.448 -1.1475 -0.1826  0.0232
   95SAPC     N 9217   2.658   6.804   2.245 -0.1815 -0.4540  0.2534
   95SAPC   C12 9218   2.739   6.799   2.378 -0.3225 -0.9721  0.8189
   95SAPC  H12A 9219   2.680   6.847   2.455 -1.2183 -0.3583 -0.2120
   95SAPC  H12B 9220   2.832   6.850   2.359 -0.9706  0.6933  1.8038
   95SAPC   C13 9221   2.540   6.717   2.250 -0.6722 -0.8113 -0.3662
   95SAPC  H13A 9222   2.577   6.621   2.283 -0.8504 -0.4647  0.8985
   95SAPC  H13B 9223   2.464   6.759   2.315 -0.0894 -2.3609  1.4278
   95SAPC  H13C 9224   2.499   6.719   2.150 -0.2536  0.6430 -0.5219
   95SAPC   C14 9225   2.618   6.949   2.207  0.0083 -0.1324  0.5879
   95SAPC  H14A 9226   2.542   6.948   2.130 -1.5812  1.5992  2.0080
   95SAPC  H14B 9227   2.590   6.995   2.301  1.3765  0.7347  0.6026
   95SAPC  H14C 9228   2.698   7.010   2.167 -0.3050  0.2091  0.4703
   95SAPC   C15 9229   2.739   6.763   2.129 -0.2008  0.2337  0.3107
   95SAPC  H15A 9230   2.837   6.808   2.137  0.2060 -0.3255 -1.0947
   95SAPC  H15B 9231   2.758   6.657   2.138 -2.0714 -0.0969  0.8440
   95SAPC  H15C 9232   2.693   6.783   2.034 -1.8481  1.5239  1.3247
   95SAPC   C11 9233   2.755   6.655   2.430  0.4704  0.4852 -0.5927
   95SAPC  H11A 9234   2.659   6.601   2.447  0.0644  1.0566 -1.0297
   95SAPC  H11B 9235   2.796   6.663   2.533 -2.3528  0.2561  0.6536
   95SAPC     P 9236   2.994   6.603   2.358  0.0867 -0.0806  0.2566
   95SAPC   O13 9237   3.056   6.565   2.232 -0.0317  0.1523  0.6320
   95SAPC   O14 9238   3.019   6.741   2.409  0.1195 -0.1608 -0.2545
   95SAPC   O12 9239   2.843   6.579   2.347  0.0964 -0.2242  0.1117
   95SAPC   O11 9240   3.020   6.501   2.464 -0.3783  0.0474  0.1659
   95SAPC    C1 9241   2.967   6.367   2.480  0.4842  0.2340 -0.0301
   95SAPC    HA 9242   2.856   6.370   2.479  0.5074  1.9102 -0.2648
   95SAPC    HB 9243   3.004   6.301   2.399  0.3458  1.0411 -0.7661
   95SAPC    C2 9244   3.018   6.301   2.614  0.1725  0.5592  0.2339
   95SAPC    HS 9245   2.991   6.193   2.609 -1.3584  0.9153  0.0879
   95SAPC   O21 9246   2.948   6.359   2.730  0.0291  0.2023  0.4737
   95SAPC   C21 9247   2.939   6.282   2.837 -0.0330 -0.4126  0.2036
   95SAPC   O22 9248   2.959   6.161   2.846 -0.2089  0.0701 -0.2191
   95SAPC   C22 9249   2.886   6.371   2.957 -0.5667  0.2634 -0.2002
   95SAPC   H2R 9250   2.802   6.435   2.922 -0.3588  1.2427  1.0371
   95SAPC   H2S 9251   2.858   6.296   3.033  0.1139 -0.8228 -0.9848
   95SAPC    C3 9252   3.172   6.307   2.630  0.1755  0.0218  0.1338
   95SAPC    HX 9253   3.188   6.417   2.639  0.2730  0.0262 -0.1009
   95SAPC    HY 9254   3.226   6.278   2.538  2.0060  4.4171 -0.4375
   95SAPC   O31 9255   3.225   6.253   2.757  0.2208 -0.1214  0.1359
   95SAPC   C31 9256   3.279   6.131   2.747 -0.6765  0.0942  0.1065
   95SAPC   O32 9257   3.279   6.061   2.646 -0.5059  0.2375  0.5529
   95SAPC   C32 9258   3.352   6.097   2.881  0.0586 -0.6123  0.6595
   95SAPC   H2X 9259   3.389   6.191   2.927  0.8565 -0.6679  0.1375
   95SAPC   H2Y 9260   3.442   6.037   2.858 -0.0119 -0.0303 -1.3744
   95SAPC   C23 9261   2.999   6.463   3.000 -0.1515  0.0717  0.0796
   95SAPC   H3R 9262   2.949   6.544   3.058  1.8205  2.6422 -1.5896
   95SAPC   H3S 9263   3.043   6.511   2.910 -0.3643  0.4288  0.1655
   95SAPC   C24 9264   3.104   6.382   3.078 -0.0846  0.1941  0.2452
   95SAPC   H4R 9265   3.134   6.293   3.017  1.1484  0.2753  0.7021
   95SAPC   H4S 9266   3.074   6.345   3.178 -0.5608 -0.7820 -0.2424
   95SAPC   C25 9267   3.220   6.478   3.083 -0.3433  0.0533 -0.2499
   95SAPC   H5R 9268   3.251   6.529   2.990  0.6670 -2.4418 -1.3959
   95SAPC   C26 9269   3.258   6.534   3.201  0.2426 -0.1974 -0.1065
   95SAPC   H6R 9270   3.331   6.617   3.199  0.4892 -0.4112  0.0000
   95SAPC   C27 9271   3.217   6.493   3.339 -0.3223  0.0264 -0.4780
   95SAPC   H7R 9272   3.299   6.523   3.407 -0.4011  1.2003 -0.8894
   95SAPC   H7S 9273   3.225   6.382   3.339  1.4729  0.1062  1.2459
   95SAPC   C28 9274   3.081   6.552   3.381  0.3054  0.4275 -0.4585
   95SAPC   H8R 9275   3.006   6.560   3.300 -0.2176  0.4170  0.0141
   95SAPC   C29 9276   3.048   6.597   3.511 -0.1686  0.2431  0.7888
   95SAPC   H9R 9277   2.956   6.656   3.525 -0.2681  0.3017 -0.0482
   95SAPC  C210 9278   3.125   6.594   3.637  0.2412 -0.4975 -0.0634
   95SAPC  H10R 9279   3.097   6.679   3.704  0.6871  1.5849 -2.3538
   95SAPC  H10S 9280   3.228   6.633   3.620 -0.4817  1.8848  0.5805
   95SAPC  C211 9281   3.136   6.466   3.703 -0.7920 -0.3649  0.0708
   95SAPC  H11R 9282   3.138   6.373   3.644 -0.6249  0.2799 -0.9740
   95SAPC  C212 9283   3.169   6.461   3.831 -0.8992  0.4522 -0.2292
   95SAPC  H12R 9284   3.168   6.356   3.862 -1.4179 -0.0358 -1.8027
   95SAPC  C213 9285   3.180   6.572   3.934  0.6940  0.2996  0.4031
   95SAPC  H13R 9286   3.077   6.580   3.973  1.0863  1.6441  1.2564
   95SAPC  H13S 9287   3.201   6.672   3.890  0.5922  0.1042 -0.0931
   95SAPC  C214 9288   3.270   6.544   4.055 -0.0162 -0.2843  0.8886
   95SAPC  H14R 9289   3.376   6.570   4.047 -0.2966  0.7136  0.2618
   95SAPC  C215 9290   3.231   6.473   4.167  0.6910 -0.0112  0.2028
   95SAPC  H15R 9291   3.303   6.462   4.249 -0.7987  1.5095  1.7975
   95SAPC  C216 9292   3.095   6.408   4.198  0.3013  0.2445  0.1625
   95SAPC  H16R 9293   3.121   6.301   4.213  0.4803 -0.2900 -3.1837
   95SAPC  H16S 9294   3.033   6.404   4.106  1.4398  0.5486 -0.6397
   95SAPC  C217 9295   3.022   6.463   4.322  0.6849 -0.0082  0.1577
   95SAPC  H17R 9296   2.998   6.571   4.310 -2.5205 -0.4987  1.1710
   95SAPC  H17S 9297   3.087   6.463   4.413 -2.1913  0.5040  2.3751
   95SAPC  C218 9298   2.885   6.400   4.356  0.0746 -0.0079 -0.3602
   95SAPC  H18R 9299   2.901   6.294   4.383  0.8978  0.2592  0.2557
   95SAPC  H18S 9300   2.816   6.402   4.270 -0.1996  0.5424 -0.1323
   95SAPC  C219 9301   2.814   6.479   4.468 -0.3152 -0.2990  0.1942
   95SAPC  H19R 9302   2.714   6.435   4.491 -0.2215 -1.0279 -0.7335
   95SAPC  H19S 9303   2.801   6.580   4.425 -0.9336 -0.4551  0.0023
   95SAPC  C220 9304   2.899   6.495   4.596 -0.3303 -0.4866  0.4264
   95SAPC  H20R 9305   2.991   6.553   4.575 -0.4484 -0.2956  0.4397
   95SAPC  H20S 9306   2.926   6.392   4.628  0.0550  0.1570  2.3120
   95SAPC  H20T 9307   2.844   6.549   4.676 -2.0100  0.3348 -1.2112
   95SAPC   C33 9308   3.259   6.025   2.980 -0.4101  0.1994 -0.0072
   95SAPC   H3X 9309   3.223   5.938   2.922  1.0627  0.5334 -1.4913
   95SAPC   H3Y 9310   3.167   6.084   3.002 -1.0303  0.1432 -2.1986
   95SAPC   C34 9311   3.324   5.976   3.113 -1.1486 -0.4541 -0.1501
   95SAPC   H4X 9312   3.420   5.922   3.095 -0.3550  0.4147  1.2572
   95SAPC   H4Y 9313   3.257   5.908   3.169  0.4752 -0.4738  1.9162
   95SAPC   C35 9314   3.356   6.100   3.205  0.2517 -0.9342 -0.4839
   95SAPC   H5X 9315   3.271   6.171   3.211  1.5095  0.6089 -0.1914
   95SAPC   H5Y 9316   3.436   6.166   3.165 -0.8586 -0.3261 -1.7777
   95SAPC   C36 9317   3.373   6.053   3.352 -0.2085 -1.0568 -0.2700
   95SAPC   H6X 9318   3.436   5.962   3.355  1.4847 -0.0499 -2.2171
   95SAPC   H6Y 9319   3.277   6.032   3.404 -0.7063  1.2325 -0.1772
   95SAPC   C37 9320   3.424   6.159   3.457 -0.4254 -0.0440 -0.0074
   95SAPC   H7X 9321   3.365   6.252   3.441  0.7964  0.7626  0.0872
   95SAPC   H7Y 9322   3.523   6.206   3.438 -0.2156  0.3143  1.7688
   95SAPC   C38 9323   3.404   6.109   3.600  0.1403  0.6578 -1.0024
   95SAPC   H8X 9324   3.460   6.019   3.633 -4.0232 -0.6741  3.8870
   95SAPC   H8Y 9325   3.298   6.086   3.627  1.0928 -0.6373  2.0691
   95SAPC   C39 9326   3.447   6.214   3.710 -0.0484 -0.1070  0.3828
   95SAPC   H9X 9327   3.391   6.310   3.712 -1.7167 -1.0475  0.7234
   95SAPC   H9Y 9328   3.548   6.252   3.682  0.7266 -1.4365  1.2574
   95SAPC  C310 9329   3.456   6.163   3.859 -0.0727  0.0377  0.6507
   95SAPC  H10X 9330   3.351   6.132   3.880 -0.0727 -1.4040 -1.2071
   95SAPC  H10Y 9331   3.491   6.252   3.915  0.8067  1.8748 -2.5965
   95SAPC  C311 9332   3.546   6.052   3.899 -0.6691  0.5970  0.1907
   95SAPC  H11X 9333   3.649   6.080   3.867  0.5115 -0.4019  2.8222
   95SAPC  H11Y 9334   3.503   5.961   3.853  0.7939 -0.6084  1.1172
   95SAPC  C312 9335   3.551   6.041   4.053  0.2545  0.8597  0.5121
   95SAPC  H12X 9336   3.565   6.137   4.107  1.3622  0.9061  0.1534
   95SAPC  H12Y 9337   3.636   5.972   4.067  0.3644  0.9046  0.0744
   95SAPC  C313 9338   3.438   5.965   4.116  0.3299 -0.1533 -0.4086
   95SAPC  H13X 9339   3.432   5.872   4.056 -0.3054 -0.7722  0.5884
   95SAPC  H13Y 9340   3.344   6.025   4.112 -0.1885 -0.5169  3.1031
   95SAPC  C314 9341   3.460   5.952   4.263  0.6025 -0.5857 -0.2994
   95SAPC  H14X 9342   3.363   5.964   4.315  0.3363  1.7593 -1.2131
   95SAPC  H14Y 9343   3.533   6.025   4.304  1.5710 -2.7063  2.0480
   95SAPC  C315 9344   3.531   5.828   4.304 -0.9113  0.7848  0.1478
   95SAPC  H15X 9345   3.611   5.803   4.231 -1.5898  2.3152 -1.1817
   95SAPC  H15Y 9346   3.471   5.735   4.294 -1.2667  0.9791  0.4519
   95SAPC  C316 9347   3.590   5.836   4.443 -0.4998 -0.3346  0.2458
   95SAPC  H16X 9348   3.657   5.923   4.456  0.6694 -0.9748 -1.1142
   95SAPC  H16Y 9349   3.643   5.740   4.459 -2.6479 -1.2558  2.4702
   95SAPC  C317 9350   3.484   5.816   4.550 -0.0748 -0.5910  0.0174
   95SAPC  H17X 9351   3.518   5.753   4.635 -0.0122  0.3457  0.7112
   95SAPC  H17Y 9352   3.397   5.771   4.497  0.2399  0.8007 -1.7822
   95SAPC  C318 9353   3.431   5.949   4.609  0.3468 -0.0500 -0.4043
   95SAPC  H18X 9354   3.395   6.020   4.531  1.8874  1.1335 -0.0801
   95SAPC  H18Y 9355   3.505   6.016   4.657  0.5967  1.2842 -2.4959
   95SAPC  H18Z 9356   3.348   5.926   4.678  0.7908 -2.3115 -0.5332
   96SAPC     N 9357   5.153   1.413   2.283 -0.1453 -0.3361  0.3730
   96SAPC   C12 9358   5.189   1.387   2.432 -0.4331  0.2557  0.0222
   96SAPC  H12A 9359   5.181   1.483   2.481 -0.8873  1.1459 -1.7151
   96SAPC  H12B 9360   5.294   1.358   2.432  0.1725  2.2557  1.0964
   96SAPC   C13 9361   5.262   1.501   2.223 -0.6240  0.7748  0.6574
   96SAPC  H13A 9362   5.259   1.604   2.255  1.4998  0.7434  1.1213
   96SAPC  H13B 9363   5.357   1.461   2.256 -1.1733  0.1260  1.4771
   96SAPC  H13C 9364   5.253   1.506   2.115 -3.4846 -0.2462  0.7579
   96SAPC   C14 9365   5.128   1.291   2.210  1.2001 -1.0217  1.1153
   96SAPC  H14A 9366   5.132   1.320   2.106  1.5664  0.0645  1.4242
   96SAPC  H14B 9367   5.198   1.209   2.219  0.7502 -1.6622 -0.7424
   96SAPC  H14C 9368   5.032   1.252   2.240 -0.0411  0.4108 -0.7828
   96SAPC   C15 9369   5.023   1.493   2.271 -0.0567  0.6591  0.4411
   96SAPC  H15A 9370   5.030   1.583   2.331 -2.0211 -0.1653  2.0226
   96SAPC  H15B 9371   4.991   1.513   2.170  0.0035  0.4388  0.3785
   96SAPC  H15C 9372   4.946   1.438   2.322  0.1379 -1.1365 -1.0943
   96SAPC   C11 9373   5.110   1.285   2.509 -0.6829  0.4983  0.0274
   96SAPC  H11A 9374   5.005   1.318   2.518 -2.0070 -3.3411  0.9484
   96SAPC  H11B 9375   5.148   1.284   2.613  1.3597  0.1058 -0.6759
   96SAPC     P 9376   5.239   1.056   2.470  0.0630  0.0425 -0.2584
   96SAPC   O13 9377   5.288   1.043   2.328 -0.3643  0.2836  0.8465
   96SAPC   O14 9378   5.338   1.094   2.573 -0.1724  0.7381 -0.1331
   96SAPC   O12 9379   5.107   1.151   2.464  0.4524  0.0487  0.4440
   96SAPC   O11 9380   5.168   0.919   2.521 -0.3442 -0.2552  0.3468
   96SAPC    C1 9381   5.045   0.909   2.588  0.1100 -0.4370  0.6683
   96SAPC    HA 9382   4.985   1.002   2.580 -0.5936 -0.7786  1.8026
   96SAPC    HB 9383   4.985   0.831   2.537  1.2475 -1.2909  0.5982
   96SAPC    C2 9384   5.061   0.871   2.735  0.0756  0.0510 -0.1245
   96SAPC    HS 9385   4.959   0.859   2.778 -0.0956  0.5206 -0.3963
   96SAPC   O21 9386   5.144   0.972   2.800  0.3685 -0.2837  0.6054
   96SAPC   C21 9387   5.088   1.090   2.828  0.0040  0.1157  0.3516
   96SAPC   O22 9388   4.967   1.118   2.814  0.5899 -0.2912 -0.0656
   96SAPC   C22 9389   5.193   1.184   2.888  0.4881 -0.2037 -0.3175
   96SAPC   H2R 9390   5.257   1.130   2.961 -0.7737 -1.0101  0.2322
   96SAPC   H2S 9391   5.249   1.215   2.798 -1.6653  0.3772 -1.5427
   96SAPC    C3 9392   5.134   0.731   2.745 -0.0692  0.7099  0.6046
   96SAPC    HX 9393   5.229   0.734   2.687 -0.5899  0.7362 -0.2781
   96SAPC    HY 9394   5.063   0.663   2.694 -0.5084  2.3694 -1.1203
   96SAPC   O31 9395   5.165   0.700   2.885  0.1347  0.1485  0.1960
   96SAPC   C31 9396   5.069   0.688   2.976  0.7634  0.0564 -0.4743
   96SAPC   O32 9397   4.951   0.673   2.949  0.5858  0.1027 -0.1322
   96SAPC   C32 9398   5.133   0.716   3.120  0.1864  0.5591  0.0184
   96SAPC   H2X 9399   5.211   0.641   3.144  0.2831  0.6455 -0.0233
   96SAPC   H2Y 9400   5.054   0.687   3.192 -0.3994  1.6137 -0.1806
   96SAPC   C23 9401   5.126   1.301   2.957  0.0937 -0.3752 -1.1513
   96SAPC   H3R 9402   5.053   1.268   3.034 -1.0596  3.2839 -0.4849
   96SAPC   H3S 9403   5.061   1.354   2.883  0.8713 -0.8210 -2.1799
   96SAPC   C24 9404   5.212   1.407   3.017 -0.7196  0.3572 -0.0550
   96SAPC   H4R 9405   5.138   1.483   3.050 -0.4167  0.9305 -0.6732
   96SAPC   H4S 9406   5.261   1.462   2.934 -1.4722  1.7418  0.3862
   96SAPC   C25 9407   5.297   1.358   3.131  0.3760  0.5119  0.0788
   96SAPC   H5R 9408   5.371   1.289   3.089  0.2479  0.2053  0.3537
   96SAPC   C26 9409   5.275   1.373   3.260 -1.1970 -0.3905  0.4239
   96SAPC   H6R 9410   5.341   1.321   3.330 -0.1417 -0.1432 -0.3698
   96SAPC   C27 9411   5.177   1.465   3.324  0.4014 -1.2706 -0.4477
   96SAPC   H7R 9412   5.150   1.402   3.412 -1.9771  0.4247  0.1203
   96SAPC   H7S 9413   5.088   1.484   3.261 -1.2838 -0.1807  2.0810
   96SAPC   C28 9414   5.237   1.602   3.355 -0.3707  0.3624 -0.6988
   96SAPC   H8R 9415   5.272   1.653   3.265 -0.6684  0.1651 -0.9293
   96SAPC   C29 9416   5.243   1.663   3.478 -0.0056 -0.8395  0.3554
   96SAPC   H9R 9417   5.292   1.762   3.485  2.1327 -1.5998 -2.1277
   96SAPC  C210 9418   5.193   1.604   3.607  0.0172  0.0025 -0.2616
   96SAPC  H10R 9419   5.247   1.662   3.686 -0.5923  0.5942 -0.2694
   96SAPC  H10S 9420   5.199   1.494   3.608 -1.3475 -0.1516 -2.3920
   96SAPC  C211 9421   5.049   1.642   3.631  0.6090 -0.3952  0.6328
   96SAPC  H11R 9422   5.006   1.661   3.532  1.9833  1.9146  0.4098
   96SAPC  C212 9423   4.986   1.660   3.746 -0.0711 -0.3065  0.8191
   96SAPC  H12R 9424   4.878   1.680   3.749  0.1957  1.2570  1.0061
   96SAPC  C213 9425   5.049   1.657   3.882 -0.1052  0.6113 -0.5848
   96SAPC  H13R 9426   5.076   1.759   3.917  1.1276 -0.3768  1.4819
   96SAPC  H13S 9427   5.141   1.596   3.899 -1.4193 -0.6568  2.5923
   96SAPC  C214 9428   4.960   1.589   3.979 -0.0625 -0.1551  0.3176
   96SAPC  H14R 9429   4.945   1.483   3.956 -1.4331  0.4535 -1.8205
   96SAPC  C215 9430   4.890   1.644   4.081  0.0091 -0.7661 -0.3381
   96SAPC  H15R 9431   4.830   1.579   4.146 -1.9021  1.1775 -0.0560
   96SAPC  C216 9432   4.918   1.780   4.133  0.2814 -0.2264  0.4683
   96SAPC  H16R 9433   4.947   1.845   4.048 -1.4951  3.1486  2.2211
   96SAPC  H16S 9434   4.987   1.783   4.221  0.3488  2.7555  0.4228
   96SAPC  C217 9435   4.782   1.843   4.169  0.0865  0.2873  0.4490
   96SAPC  H17R 9436   4.748   1.780   4.254 -0.3417 -1.9444 -1.2810
   96SAPC  H17S 9437   4.696   1.823   4.102  1.1275 -0.8961 -0.5958
   96SAPC  C218 9438   4.787   1.996   4.201 -0.1632  0.0737 -0.0118
   96SAPC  H18R 9439   4.689   2.047   4.188 -0.3405  0.2699  1.8119
   96SAPC  H18S 9440   4.840   2.041   4.115 -3.3608 -1.3496 -2.9684
   96SAPC  C219 9441   4.857   2.033   4.336 -0.2558  0.3665  0.2983
   96SAPC  H19R 9442   4.966   2.009   4.333 -0.2112  0.4859  0.8885
   96SAPC  H19S 9443   4.817   1.964   4.412 -1.8936 -1.3572 -1.9893
   96SAPC  C220 9444   4.839   2.183   4.371  0.5245  0.3511  0.0830
   96SAPC  H20R 9445   4.910   2.215   4.450 -0.6961  1.6104  0.7021
   96SAPC  H20S 9446   4.737   2.209   4.406  1.0660  1.3688  0.9745
   96SAPC  H20T 9447   4.866   2.254   4.290  0.5536  2.4669  1.8437
   96SAPC   C33 9448   5.159   0.863   3.155  0.4945 -0.4457  0.1394
   96SAPC   H3X 9449   5.084   0.929   3.105  1.1549 -0.2654 -0.6408
   96SAPC   H3Y 9450   5.253   0.896   3.105 -1.5243  1.0473 -2.9978
   96SAPC   C34 9451   5.168   0.894   3.302  0.7628 -0.0489 -0.5592
   96SAPC   H4X 9452   5.263   0.853   3.342 -0.5136  0.5963  3.5317
   96SAPC   H4Y 9453   5.083   0.846   3.354  0.8928  1.5156  1.1912
   96SAPC   C35 9454   5.161   1.042   3.333 -0.1110 -0.1959 -0.3413
   96SAPC   H5X 9455   5.075   1.087   3.278  0.5699  1.6925  0.0449
   96SAPC   H5Y 9456   5.254   1.086   3.290 -0.4036 -0.5009 -1.3175
   96SAPC   C36 9457   5.147   1.078   3.483  0.1763  0.6378 -0.0765
   96SAPC   H6X 9458   5.055   1.022   3.514  0.9739 -0.3280  0.6221
   96SAPC   H6Y 9459   5.136   1.186   3.502  1.4877  0.6537  0.6558
   96SAPC   C37 9460   5.270   1.033   3.566  0.3629  0.1980 -0.2648
   96SAPC   H7X 9461   5.359   1.093   3.539  2.1987 -2.3268 -0.2270
   96SAPC   H7Y 9462   5.294   0.925   3.554 -2.9082 -0.6782  0.0703
   96SAPC   C38 9463   5.244   1.030   3.722  0.2371  0.6300  0.5316
   96SAPC   H8X 9464   5.325   0.981   3.782  0.5003 -2.8526 -2.3156
   96SAPC   H8Y 9465   5.151   0.975   3.745  0.4164  0.2664  0.3954
   96SAPC   C39 9466   5.222   1.175   3.782 -0.0631 -0.2069  0.2340
   96SAPC   H9X 9467   5.132   1.216   3.731 -2.1895 -3.3148  1.2400
   96SAPC   H9Y 9468   5.305   1.246   3.762 -2.4753  2.6220 -0.4534
   96SAPC  C310 9469   5.177   1.167   3.931 -0.0302  0.0337  0.5596
   96SAPC  H10X 9470   5.071   1.135   3.935 -0.1730  0.5795  2.2632
   96SAPC  H10Y 9471   5.185   1.267   3.980  1.1057  1.0439 -1.5534
   96SAPC  C311 9472   5.277   1.074   4.004  0.0256 -0.2801 -0.3525
   96SAPC  H11X 9473   5.380   1.077   3.963 -0.3948 -4.5139 -2.2900
   96SAPC  H11Y 9474   5.246   0.968   3.991  0.3750 -0.7701  2.2884
   96SAPC  C312 9475   5.288   1.093   4.153 -0.5203 -0.3761  0.4587
   96SAPC  H12X 9476   5.192   1.088   4.209  0.8881 -0.1144  3.0377
   96SAPC  H12Y 9477   5.322   1.196   4.177  1.5457 -1.1134  0.8651
   96SAPC  C313 9478   5.383   1.003   4.230  0.3235  0.7378 -0.6688
   96SAPC  H13X 9479   5.485   1.008   4.186  0.6630  1.7794  0.1928
   96SAPC  H13Y 9480   5.351   0.897   4.228  0.4982  0.6845 -2.5480
   96SAPC  C314 9481   5.400   1.039   4.385  0.6617  0.3662 -0.2891
   96SAPC  H14X 9482   5.443   0.958   4.448 -0.0269  1.4383  1.6734
   96SAPC  H14Y 9483   5.293   1.059   4.410  0.7444  2.2909 -1.3093
   96SAPC  C315 9484   5.481   1.169   4.405  0.7032  0.3526  0.0897
   96SAPC  H15X 9485   5.451   1.250   4.335  0.4729 -0.0612 -0.2947
   96SAPC  H15Y 9486   5.584   1.138   4.375  0.6492  0.3170 -0.0604
   96SAPC  C316 9487   5.492   1.224   4.543  0.1001  0.6890  0.5134
   96SAPC  H16X 9488   5.556   1.314   4.552 -1.8997  2.2107  0.1511
   96SAPC  H16Y 9489   5.527   1.142   4.610 -1.1306 -2.1928 -2.1104
   96SAPC  C317 9490   5.354   1.266   4.595  0.0396 -0.5112 -0.4877
   96SAPC  H17X 9491   5.276   1.189   4.580  0.9579 -1.5949  0.1579
   96SAPC  H17Y 9492   5.321   1.357   4.540 -2.1888 -1.3395 -0.6049
   96SAPC  C318 9493   5.352   1.289   4.752  0.1935  0.2102 -0.0907
   96SAPC  H18X 9494   5.432   1.347   4.802 -0.7742  0.9020  0.7091
   96SAPC  H18Y 9495   5.372   1.190   4.799  0.9557  0.4858  0.1747
   96SAPC  H18Z 9496   5.254   1.331   4.784  0.2555 -0.8650  1.6672
   97SAPC     N 9497   1.966   5.576   2.370 -0.4127 -0.2441 -0.9707
   97SAPC   C12 9498   1.856   5.490   2.434  0.2396  0.1387 -0.1382
   97SAPC  H12A 9499   1.902   5.396   2.463  2.5252  0.8295 -1.2826
   97SAPC  H12B 9500   1.782   5.461   2.361  0.0202  0.9568 -0.2495
   97SAPC   C13 9501   1.910   5.700   2.315  0.3472 -1.3319  0.1871
   97SAPC  H13A 9502   1.847   5.749   2.387  0.9868  1.5981 -1.0879
   97SAPC  H13B 9503   1.983   5.777   2.292  0.0342 -0.6054  1.5398
   97SAPC  H13C 9504   1.852   5.701   2.223  1.7652  1.4550 -0.8130
   97SAPC   C14 9505   2.076   5.595   2.477 -0.0236  0.2834 -0.2608
   97SAPC  H14A 9506   2.043   5.614   2.578  2.1395 -1.7350  0.9299
   97SAPC  H14B 9507   2.132   5.504   2.483  1.7684  1.3507 -0.0505
   97SAPC  H14C 9508   2.149   5.672   2.456 -0.6237  0.8531 -0.3007
   97SAPC   C15 9509   2.019   5.495   2.249  0.4942  0.1068 -0.5295
   97SAPC  H15A 9510   2.054   5.399   2.285 -0.3788  0.7197  2.2149
   97SAPC  H15B 9511   1.939   5.482   2.177  0.3580  0.1266 -0.3819
   97SAPC  H15C 9512   2.097   5.554   2.203  1.5173  0.0301  1.0154
   97SAPC   C11 9513   1.784   5.548   2.549 -0.7165  0.6833 -0.7587
   97SAPC  H11A 9514   1.863   5.570   2.623 -0.3649 -0.6283 -0.7180
   97SAPC  H11B 9515   1.724   5.470   2.601 -0.9316  0.2593 -1.6237
   97SAPC     P 9516   1.557   5.633   2.448  0.5083  0.0638  0.0197
   97SAPC   O13 9517   1.492   5.766   2.436  0.1457  0.0355 -0.0527
   97SAPC   O14 9518   1.573   5.569   2.324  0.1997 -0.3024 -0.7326
   97SAPC   O12 9519   1.697   5.660   2.517 -0.0161  0.4679  0.5360
   97SAPC   O11 9520   1.494   5.541   2.556  0.6606 -0.3813 -1.1257
   97SAPC    C1 9521   1.401   5.592   2.658  0.0115  0.3975  0.0014
   97SAPC    HA 9522   1.313   5.650   2.622 -2.0798 -1.7835  1.3138
   97SAPC    HB 9523   1.355   5.504   2.709 -0.2784  0.5676  0.0325
   97SAPC    C2 9524   1.469   5.664   2.783  0.0151  0.0404  0.1944
   97SAPC    HS 9525   1.516   5.749   2.729  1.4893 -2.4435 -2.7657
   97SAPC   O21 9526   1.562   5.581   2.850 -0.1258  0.1501  0.8069
   97SAPC   C21 9527   1.671   5.648   2.901  0.0792 -0.1922  0.6527
   97SAPC   O22 9528   1.695   5.765   2.890 -0.2698  0.6097  0.0867
   97SAPC   C22 9529   1.742   5.539   2.978  0.4837 -0.2798  0.8260
   97SAPC   H2R 9530   1.662   5.510   3.049 -2.3316  0.2383 -1.9309
   97SAPC   H2S 9531   1.754   5.452   2.909 -1.2670 -0.4445  0.6920
   97SAPC    C3 9532   1.365   5.730   2.877  0.2429 -0.4036 -0.9019
   97SAPC    HX 9533   1.299   5.655   2.926 -0.4627  0.4399 -0.5238
   97SAPC    HY 9534   1.298   5.795   2.816 -1.0906 -0.8380  0.0544
   97SAPC   O31 9535   1.429   5.803   2.983  0.0068  0.2354  0.3597
   97SAPC   C31 9536   1.470   5.929   2.963  0.3239 -0.2551 -0.6200
   97SAPC   O32 9537   1.472   5.985   2.855  0.0856 -0.0681  0.1532
   97SAPC   C32 9538   1.511   5.993   3.097  0.0852 -0.4320 -0.0277
   97SAPC   H2X 9539   1.432   6.066   3.124 -2.1714 -1.8938 -2.1852
   97SAPC   H2Y 9540   1.608   6.045   3.080  0.4517 -0.5850  1.4951
   97SAPC   C23 9541   1.865   5.578   3.053  0.5363 -0.4803  0.2978
   97SAPC   H3R 9542   1.837   5.668   3.111  0.9350  0.2907 -0.6758
   97SAPC   H3S 9543   1.937   5.608   2.974 -0.0873  0.8045  0.1939
   97SAPC   C24 9544   1.903   5.463   3.151 -0.3477  0.3251 -0.2937
   97SAPC   H4R 9545   1.948   5.380   3.092 -0.6318  0.3348 -0.5288
   97SAPC   H4S 9546   1.811   5.424   3.200 -0.4575  0.4684 -0.3851
   97SAPC   C25 9547   1.990   5.523   3.254 -0.1423  0.2077  0.1546
   97SAPC   H5R 9548   2.015   5.630   3.244  2.5250 -0.4918 -2.1084
   97SAPC   C26 9549   2.025   5.457   3.363 -0.2383  0.0235  0.2727
   97SAPC   H6R 9550   2.090   5.505   3.438  0.0724 -1.2601  0.8343
   97SAPC   C27 9551   1.991   5.313   3.390 -0.2389 -0.1478  0.1236
   97SAPC   H7R 9552   1.955   5.257   3.301  0.3351  1.4012 -1.1317
   97SAPC   H7S 9553   1.920   5.314   3.474  1.3307  3.4541  1.6104
   97SAPC   C28 9554   2.124   5.239   3.427  0.1628 -1.2413  0.1322
   97SAPC   H8R 9555   2.213   5.248   3.362 -0.9210 -0.6186 -1.3289
   97SAPC   C29 9556   2.147   5.187   3.547 -0.5213  0.2173 -0.1331
   97SAPC   H9R 9557   2.248   5.148   3.564 -0.1256 -0.3704 -3.2405
   97SAPC  C210 9558   2.046   5.166   3.664 -0.6134  0.9687  0.4721
   97SAPC  H10R 9559   1.943   5.157   3.625 -0.0798  2.3509 -1.4290
   97SAPC  H10S 9560   2.049   5.260   3.724 -1.0235  0.7708  0.8079
   97SAPC  C211 9561   2.098   5.043   3.743 -0.3873 -0.1798 -0.2260
   97SAPC  H11R 9562   2.135   4.956   3.687  1.0607  0.4228 -0.2597
   97SAPC  C212 9563   2.108   5.031   3.878 -0.5082 -0.1155 -0.5241
   97SAPC  H12R 9564   2.138   4.932   3.916  0.3915  0.6036  0.7019
   97SAPC  C213 9565   2.075   5.124   3.993  0.3348 -0.1528  0.2661
   97SAPC  H13R 9566   2.021   5.210   3.947  1.7456 -1.0652 -3.4532
   97SAPC  H13S 9567   2.167   5.162   4.043  0.7166 -0.7566  0.0336
   97SAPC  C214 9568   2.000   5.060   4.106  0.0377  0.5339 -0.4049
   97SAPC  H14R 9569   1.890   5.059   4.100  0.0478 -0.3249 -0.6118
   97SAPC  C215 9570   2.053   4.986   4.209  0.0691  0.2739 -0.1720
   97SAPC  H15R 9571   1.990   4.940   4.286  1.7758 -0.4446  0.8580
   97SAPC  C216 9572   2.205   4.968   4.228  0.1194  0.3403  0.1574
   97SAPC  H16R 9573   2.234   5.027   4.318 -2.8155  0.6906  1.0015
   97SAPC  H16S 9574   2.265   5.007   4.143 -2.2039  0.9780 -1.3093
   97SAPC  C217 9575   2.243   4.817   4.252  0.3350 -0.7573  0.0885
   97SAPC  H17R 9576   2.190   4.757   4.176  0.1747 -1.7442  0.9603
   97SAPC  H17S 9577   2.211   4.772   4.348  1.0927  0.3565  0.8842
   97SAPC  C218 9578   2.392   4.794   4.239  0.3818 -0.1487 -0.2163
   97SAPC  H18R 9579   2.416   4.837   4.139 -1.4475  1.8571  0.1211
   97SAPC  H18S 9580   2.416   4.686   4.242  3.8187  0.5410  0.8475
   97SAPC  C219 9581   2.474   4.859   4.339  0.7344 -0.0890 -0.0315
   97SAPC  H19R 9582   2.439   4.964   4.345 -1.1816 -0.7701  2.6335
   97SAPC  H19S 9583   2.579   4.855   4.306  1.5046  1.6334  1.9321
   97SAPC  C220 9584   2.472   4.799   4.477  0.0997  0.0906 -0.1938
   97SAPC  H20R 9585   2.370   4.782   4.517  0.3068 -0.6548  0.0348
   97SAPC  H20S 9586   2.525   4.870   4.543  2.0258 -1.6998  0.3022
   97SAPC  H20T 9587   2.536   4.709   4.486  2.9450  2.0401  0.2706
   97SAPC   C33 9588   1.525   5.896   3.210 -0.4183  1.4296  0.3726
   97SAPC   H3X 9589   1.613   5.832   3.186 -0.9551  0.9045 -0.2336
   97SAPC   H3Y 9590   1.434   5.835   3.227 -0.1573  1.2341  1.1219
   97SAPC   C34 9591   1.548   5.961   3.343  0.5481  0.2210 -0.3749
   97SAPC   H4X 9592   1.461   6.028   3.362 -0.2676 -0.8633 -0.1762
   97SAPC   H4Y 9593   1.627   6.038   3.336 -0.6617  1.7327  1.5429
   97SAPC   C35 9594   1.575   5.859   3.458  0.0904  0.6066  0.4390
   97SAPC   H5X 9595   1.671   5.806   3.439 -0.9902 -2.6360  2.9360
   97SAPC   H5Y 9596   1.491   5.785   3.455 -0.2186  0.9014  1.5044
   97SAPC   C36 9597   1.575   5.926   3.596 -0.2226  0.0138  0.1767
   97SAPC   H6X 9598   1.471   5.960   3.613 -0.9382 -1.4695 -0.9570
   97SAPC   H6Y 9599   1.634   6.021   3.600 -0.4710  0.2625 -1.2894
   97SAPC   C37 9600   1.631   5.840   3.715  0.3249 -0.0163  0.1507
   97SAPC   H7X 9601   1.736   5.808   3.703 -0.7043 -3.4037 -0.8469
   97SAPC   H7Y 9602   1.581   5.742   3.707  1.4719 -0.7148  1.2020
   97SAPC   C38 9603   1.606   5.905   3.853 -0.3758 -0.2825  0.8891
   97SAPC   H8X 9604   1.503   5.944   3.865 -0.5926 -0.7978  0.7117
   97SAPC   H8Y 9605   1.677   5.990   3.859 -0.5681 -0.0880  0.4526
   97SAPC   C39 9606   1.624   5.801   3.965  0.8382 -0.3741  0.3619
   97SAPC   H9X 9607   1.698   5.721   3.945 -0.3547 -1.4479  0.1048
   97SAPC   H9Y 9608   1.525   5.750   3.974  0.2597  0.5599 -0.5932
   97SAPC  C310 9609   1.652   5.872   4.093  0.1272  0.4375 -0.5063
   97SAPC  H10X 9610   1.586   5.961   4.101  1.4793  1.3505  1.3414
   97SAPC  H10Y 9611   1.759   5.901   4.086  0.4355 -0.9601 -2.6039
   97SAPC  C311 9612   1.628   5.776   4.213  0.1958 -0.0579 -0.1162
   97SAPC  H11X 9613   1.723   5.756   4.267  0.3118  2.0762  0.5517
   97SAPC  H11Y 9614   1.584   5.686   4.166 -1.9294  1.3001 -0.8624
   97SAPC  C312 9615   1.534   5.840   4.318  0.2426 -0.2830 -0.3462
   97SAPC  H12X 9616   1.440   5.879   4.275 -0.0393  1.3196  1.5649
   97SAPC  H12Y 9617   1.589   5.928   4.358 -0.4510 -0.4344  0.9828
   97SAPC  C313 9618   1.527   5.737   4.434 -0.0206  0.0915 -0.4672
   97SAPC  H13X 9619   1.633   5.716   4.460 -0.6083 -2.1226  0.3478
   97SAPC  H13Y 9620   1.484   5.640   4.401 -1.1181 -0.4608  2.3216
   97SAPC  C314 9621   1.440   5.773   4.558  0.3862  0.2752  0.3931
   97SAPC  H14X 9622   1.406   5.676   4.601  3.3166 -0.0005  2.4043
   97SAPC  H14Y 9623   1.357   5.827   4.508 -1.7081 -2.7585  0.3342
   97SAPC  C315 9624   1.522   5.857   4.657  0.1324 -0.2890  0.7482
   97SAPC  H15X 9625   1.558   5.946   4.602  0.5921 -0.5407  0.6346
   97SAPC  H15Y 9626   1.609   5.788   4.667 -0.0068 -0.6680 -0.4640
   97SAPC  C316 9627   1.442   5.889   4.789  0.2482 -0.0291  0.2195
   97SAPC  H16X 9628   1.519   5.931   4.857 -0.0697  0.5947  0.2039
   97SAPC  H16Y 9629   1.400   5.796   4.831 -0.8309  1.3937  2.4616
   97SAPC  C317 9630   1.329   5.988   4.762 -0.2662  0.2710 -0.1348
   97SAPC  H17X 9631   1.266   5.989   4.854  0.9276 -1.3061  0.7348
   97SAPC  H17Y 9632   1.267   5.947   4.680  0.0279  2.5569 -1.5968
   97SAPC  C318 9633   1.383   6.124   4.716 -0.3636  0.3510 -0.0494
   97SAPC  H18X 9634   1.464   6.114   4.641 -0.8663  0.8581 -0.6621
   97SAPC  H18Y 9635   1.428   6.179   4.802  3.3800 -1.4342 -0.6962
   97SAPC  H18Z 9636   1.299   6.184   4.674 -0.2056  1.5222  1.2096
   98SAPC     N 9637   1.306   0.896   2.163 -0.0809  0.4887  0.3484
   98SAPC   C12 9638   1.268   0.901   2.311 -0.4167  0.0048 -0.2054
   98SAPC  H12A 9639   1.320   0.820   2.360  1.5052  0.5253 -1.2936
   98SAPC  H12B 9640   1.162   0.882   2.324 -0.2490  0.3960  2.4122
   98SAPC   C13 9641   1.278   0.758   2.109 -0.1945 -0.2538  0.4416
   98SAPC  H13A 9642   1.296   0.736   2.005 -1.1966 -1.8813  0.5745
   98SAPC  H13B 9643   1.342   0.684   2.155  3.5203  1.9355 -0.7570
   98SAPC  H13C 9644   1.175   0.730   2.120 -0.1600 -0.8576 -0.6602
   98SAPC   C14 9645   1.242   0.992   2.081  0.0738  0.2670  0.4574
   98SAPC  H14A 9646   1.261   1.095   2.109  1.4367  0.3080 -0.5455
   98SAPC  H14B 9647   1.288   0.989   1.984  2.6404  2.2080  1.4815
   98SAPC  H14C 9648   1.135   0.977   2.073 -0.1245 -0.7888  3.5599
   98SAPC   C15 9649   1.453   0.903   2.141 -0.0279 -0.0189 -0.2432
   98SAPC  H15A 9650   1.511   0.837   2.204 -0.1981  1.1617  1.2158
   98SAPC  H15B 9651   1.483   0.891   2.038  0.8589  1.3929 -0.1811
   98SAPC  H15C 9652   1.493   1.001   2.163 -1.3123  0.5804 -0.4362
   98SAPC   C11 9653   1.298   1.023   2.400  0.2900 -0.0356  0.6888
   98SAPC  H11A 9654   1.406   1.043   2.384  0.2127 -1.3836 -2.2562
   98SAPC  H11B 9655   1.275   1.009   2.507 -1.1841 -1.7896  0.1868
   98SAPC     P 9656   1.240   1.277   2.405 -0.1183 -0.0844 -0.0827
   98SAPC   O13 9657   1.385   1.310   2.408  0.2224  0.0524 -0.0034
   98SAPC   O14 9658   1.160   1.372   2.322 -0.1762 -0.4166  0.2426
   98SAPC   O12 9659   1.219   1.130   2.349  0.8874 -0.6864  0.2323
   98SAPC   O11 9660   1.174   1.271   2.546 -0.8514  0.0635 -0.2467
   98SAPC    C1 9661   1.042   1.228   2.555  0.3742 -0.1180 -0.4267
   98SAPC    HA 9662   0.977   1.270   2.475  1.3133 -1.4034 -1.9245
   98SAPC    HB 9663   1.043   1.117   2.555 -1.6847 -0.1714 -0.3574
   98SAPC    C2 9664   0.974   1.273   2.688 -0.1587  0.4764  0.4331
   98SAPC    HS 9665   0.983   1.384   2.696 -0.3177  0.3776  2.7548
   98SAPC   O21 9666   1.052   1.200   2.787  0.0187 -0.0744 -0.1492
   98SAPC   C21 9667   1.102   1.269   2.891  0.1704  0.8660 -0.4317
   98SAPC   O22 9668   1.078   1.387   2.914 -0.1932  0.5674 -0.8271
   98SAPC   C22 9669   1.202   1.178   2.961 -0.4683  0.1847 -0.0155
   98SAPC   H2R 9670   1.216   1.082   2.906 -2.0885 -1.3258  2.0015
   98SAPC   H2S 9671   1.300   1.229   2.962 -1.4484  2.1912 -1.3757
   98SAPC    C3 9672   0.823   1.231   2.689  0.1215  0.1393 -0.6310
   98SAPC    HX 9673   0.813   1.123   2.663  0.5741  0.0590 -0.4720
   98SAPC    HY 9674   0.768   1.287   2.610  0.6404 -1.0178 -1.8551
   98SAPC   O31 9675   0.765   1.245   2.817 -0.5857  0.3403 -0.5975
   98SAPC   C31 9676   0.744   1.366   2.865  0.9089 -0.2689  0.4109
   98SAPC   O32 9677   0.766   1.468   2.803 -0.0518  0.0408  0.2832
   98SAPC   C32 9678   0.681   1.374   3.004 -0.2314 -0.2018 -0.3452
   98SAPC   H2X 9679   0.575   1.342   2.993  0.2292 -1.0810 -3.2555
   98SAPC   H2Y 9680   0.692   1.482   3.023 -0.1140 -0.1671 -0.6036
   98SAPC   C23 9681   1.159   1.129   3.104  0.1312 -0.0460  0.7109
   98SAPC   H3R 9682   1.160   1.020   3.122 -1.8242 -0.2536 -0.1967
   98SAPC   H3S 9683   1.051   1.154   3.115 -0.8651 -2.3224 -2.4933
   98SAPC   C24 9684   1.237   1.212   3.205  0.1547 -1.3078 -0.2063
   98SAPC   H4R 9685   1.229   1.319   3.177 -1.8940 -1.4192 -0.2495
   98SAPC   H4S 9686   1.343   1.181   3.200  0.5066 -0.0298 -1.2323
   98SAPC   C25 9687   1.193   1.193   3.350  0.2331 -0.1928  0.2924
   98SAPC   H5R 9688   1.117   1.115   3.368  0.6675 -0.3113  1.6881
   98SAPC   C26 9689   1.210   1.281   3.447  0.2024 -0.3126  0.2224
   98SAPC   H6R 9690   1.178   1.266   3.551  0.5503 -0.3606  0.3235
   98SAPC   C27 9691   1.285   1.411   3.453 -0.7817 -0.2087  0.3236
   98SAPC   H7R 9692   1.256   1.475   3.539 -0.1395  1.8334 -0.9070
   98SAPC   H7S 9693   1.244   1.470   3.368 -0.1540 -0.3774 -0.0994
   98SAPC   C28 9694   1.433   1.408   3.456 -0.3826 -0.0204 -0.0315
   98SAPC   H8R 9695   1.478   1.353   3.372 -0.3684  1.5039 -1.0778
   98SAPC   C29 9696   1.523   1.464   3.541 -0.9732 -0.0274 -0.0860
   98SAPC   H9R 9697   1.629   1.440   3.526 -1.1613 -2.1538  1.5570
   98SAPC  C210 9698   1.492   1.536   3.667 -0.0720  0.8428 -0.3317
   98SAPC  H10R 9699   1.425   1.479   3.735  0.4470  0.5609 -0.0555
   98SAPC  H10S 9700   1.440   1.629   3.633 -0.3008  0.6270 -0.5839
   98SAPC  C211 9701   1.611   1.574   3.747  0.5576 -0.2264 -0.1763
   98SAPC  H11R 9702   1.703   1.516   3.728 -0.5355 -1.4646 -1.9486
   98SAPC  C212 9703   1.606   1.654   3.854  0.0795  0.5099 -0.5103
   98SAPC  H12R 9704   1.703   1.684   3.896  0.6072 -0.8691 -0.6869
   98SAPC  C213 9705   1.489   1.716   3.918  0.2270  0.8921 -0.1659
   98SAPC  H13R 9706   1.509   1.722   4.027 -1.4743 -0.9537  0.2879
   98SAPC  H13S 9707   1.400   1.654   3.899 -0.3273  2.0321 -1.5116
   98SAPC  C214 9708   1.471   1.861   3.864 -0.0514  0.4488 -0.4584
   98SAPC  H14R 9709   1.543   1.887   3.785  0.1159  0.4512 -0.3050
   98SAPC  C215 9710   1.389   1.945   3.932  0.2800 -0.3461 -0.1693
   98SAPC  H15R 9711   1.372   2.042   3.883  0.4120 -1.0868 -1.7592
   98SAPC  C216 9712   1.298   1.910   4.043  0.6402  0.3093  0.1924
   98SAPC  H16R 9713   1.246   1.813   4.032  0.4139  0.0241  3.0911
   98SAPC  H16S 9714   1.217   1.986   4.035  0.5435  0.1107 -0.8972
   98SAPC  C217 9715   1.343   1.922   4.183 -0.0836 -0.1512 -0.0780
   98SAPC  H17R 9716   1.380   2.026   4.196 -1.9393  0.7236 -1.4367
   98SAPC  H17S 9717   1.428   1.854   4.206  0.5702  1.1437  1.6023
   98SAPC  C218 9718   1.225   1.898   4.273  1.1673  0.1263 -0.0185
   98SAPC  H18R 9719   1.140   1.838   4.233  0.2306  0.7613  0.9651
   98SAPC  H18S 9720   1.170   1.994   4.277 -0.3096 -0.7182  0.7259
   98SAPC  C219 9721   1.253   1.846   4.414 -0.1245 -0.1411 -0.0534
   98SAPC  H19R 9722   1.154   1.809   4.448 -0.7986 -0.0818 -1.8929
   98SAPC  H19S 9723   1.276   1.934   4.479 -0.3618 -0.9609  1.1871
   98SAPC  C220 9724   1.343   1.723   4.429  0.3977  0.1505 -0.4185
   98SAPC  H20R 9725   1.439   1.749   4.379  0.1296  0.2600 -0.8815
   98SAPC  H20S 9726   1.290   1.633   4.391 -0.2563 -0.6514  2.2170
   98SAPC  H20T 9727   1.366   1.703   4.536  0.0972 -2.7654 -0.8146
   98SAPC   C33 9728   0.756   1.300   3.111 -0.3092  0.3222  0.0375
   98SAPC   H3X 9729   0.865   1.323   3.104 -0.3802  0.3170 -1.2644
   98SAPC   H3Y 9730   0.761   1.192   3.085  1.4002  0.4373 -0.2189
   98SAPC   C34 9731   0.690   1.312   3.246  0.4974 -0.1043 -0.4287
   98SAPC   H4X 9732   0.587   1.271   3.242  0.5888 -0.6932  2.0840
   98SAPC   H4Y 9733   0.691   1.422   3.266  2.1343 -0.1733 -0.0195
   98SAPC   C35 9734   0.766   1.242   3.356  0.1143 -1.2781  0.0284
   98SAPC   H5X 9735   0.861   1.297   3.373 -1.9311  2.5070  0.2184
   98SAPC   H5Y 9736   0.801   1.138   3.337  0.7776 -1.5800  2.5348
   98SAPC   C36 9737   0.691   1.236   3.490 -0.2623 -0.0730  0.4892
   98SAPC   H6X 9738   0.609   1.163   3.471 -1.8226  0.8732  3.2053
   98SAPC   H6Y 9739   0.639   1.331   3.513  0.3694  0.1928  0.8375
   98SAPC   C37 9740   0.766   1.187   3.612 -0.5124  0.8633 -1.4664
   98SAPC   H7X 9741   0.704   1.208   3.702  0.9255  0.9760 -0.4718
   98SAPC   H7Y 9742   0.861   1.246   3.611 -0.3741  0.6691 -0.6503
   98SAPC   C38 9743   0.804   1.039   3.590  0.0598 -0.1094  0.0910
   98SAPC   H8X 9744   0.868   1.042   3.499  0.2447  2.5402  0.2229
   98SAPC   H8Y 9745   0.717   0.970   3.582 -0.6806  0.8669 -0.6650
   98SAPC   C39 9746   0.895   0.986   3.696 -0.1617 -0.4116  0.0199
   98SAPC   H9X 9747   0.868   0.885   3.733 -1.2638 -0.4010 -0.7181
   98SAPC   H9Y 9748   0.898   1.055   3.784  0.4722 -0.3104 -0.0759
   98SAPC  C310 9749   1.034   0.971   3.633 -0.3704  0.0987  1.1032
   98SAPC  H10X 9750   1.066   1.072   3.598 -0.3147  0.0421  0.9908
   98SAPC  H10Y 9751   1.016   0.916   3.538  1.1311 -1.5204  1.6972
   98SAPC  C311 9752   1.141   0.901   3.722 -0.1197 -0.3796 -0.1817
   98SAPC  H11X 9753   1.245   0.919   3.686 -0.8215 -0.3383 -2.3177
   98SAPC  H11Y 9754   1.130   0.791   3.710 -0.3151 -0.1803 -2.1758
   98SAPC  C312 9755   1.126   0.926   3.875  0.9126  0.0358  0.8082
   98SAPC  H12X 9756   1.029   0.880   3.903  0.9951  0.0450  1.1146
   98SAPC  H12Y 9757   1.117   1.036   3.891  2.8907  0.0569  2.0606
   98SAPC  C313 9758   1.225   0.846   3.958  0.6505 -0.7653  0.4092
   98SAPC  H13X 9759   1.327   0.880   3.930  0.9685 -0.2277  2.1259
   98SAPC  H13Y 9760   1.217   0.742   3.920 -0.2265 -0.4142 -0.4117
   98SAPC  C314 9761   1.197   0.841   4.102 -0.2417 -0.2561 -0.2230
   98SAPC  H14X 9762   1.093   0.807   4.122 -0.1523  1.1781  3.5460
   98SAPC  H14Y 9763   1.208   0.942   4.146  1.6774 -0.6571  0.3327
   98SAPC  C315 9764   1.288   0.749   4.183  0.1620  0.3156  0.2193
   98SAPC  H15X 9765   1.394   0.773   4.163 -0.3111  1.4585 -1.0133
   98SAPC  H15Y 9766   1.282   0.644   4.147  0.3496 -0.6676  2.8246
   98SAPC  C316 9767   1.253   0.750   4.330  0.5289 -0.0451 -0.0629
   98SAPC  H16X 9768   1.144   0.750   4.351  0.3844 -1.2962 -0.7009
   98SAPC  H16Y 9769   1.293   0.843   4.375  0.6549  0.1970 -0.6698
   98SAPC  C317 9770   1.310   0.640   4.412 -0.5506  0.9773 -0.2869
   98SAPC  H17X 9771   1.420   0.658   4.414 -0.5162  1.3808 -2.9424
   98SAPC  H17Y 9772   1.280   0.542   4.370 -0.5293  0.1691  1.4824
   98SAPC  C318 9773   1.265   0.649   4.559  0.0283 -0.6674  0.0606
   98SAPC  H18X 9774   1.154   0.658   4.560  0.0120 -0.1821 -2.0491
   98SAPC  H18Y 9775   1.314   0.736   4.607 -1.2989  0.4923 -0.6232
   98SAPC  H18Z 9776   1.292   0.567   4.629 -0.7107  0.9073  2.2950
   99SAPC     N 9777   3.936   4.762   2.087  0.3135  0.1577 -0.3826
   99SAPC   C12 9778   3.921   4.762   2.233  0.1972 -0.0346 -0.8547
   99SAPC  H12A 9779   3.951   4.667   2.275 -1.8395  0.4051  1.8275
   99SAPC  H12B 9780   3.815   4.753   2.251  0.6129 -1.6401  1.2941
   99SAPC   C13 9781   4.081   4.742   2.050 -0.6617 -0.1962  0.4370
   99SAPC  H13A 9782   4.112   4.644   2.085 -2.7141 -1.6686 -1.6294
   99SAPC  H13B 9783   4.114   4.754   1.948 -0.4904 -1.1261  0.3734
   99SAPC  H13C 9784   4.146   4.808   2.107  0.5654 -0.5961 -0.4471
   99SAPC   C14 9785   3.863   4.638   2.026  0.0057  0.0355  0.1357
   99SAPC  H14A 9786   3.756   4.647   2.042 -0.0944 -1.8172  0.7444
   99SAPC  H14B 9787   3.890   4.617   1.924  0.3528  0.0572  0.2218
   99SAPC  H14C 9788   3.881   4.553   2.090 -1.4453 -0.0176  0.5104
   99SAPC   C15 9789   3.890   4.893   2.038  0.0540 -0.6441 -0.1156
   99SAPC  H15A 9790   3.958   4.972   2.066  0.7676 -1.1799 -0.3250
   99SAPC  H15B 9791   3.891   4.902   1.930  0.2161 -0.1876 -0.0779
   99SAPC  H15C 9792   3.791   4.929   2.063  1.7768  4.6354  0.4001
   99SAPC   C11 9793   3.981   4.870   2.322 -0.2537 -0.4770 -0.0299
   99SAPC  H11A 9794   3.953   4.852   2.428 -2.9373  4.8191  0.4876
   99SAPC  H11B 9795   3.948   4.974   2.301  2.7116  0.5916  0.2217
   99SAPC     P 9796   4.210   4.809   2.424  0.0092  0.3035 -0.2888
   99SAPC   O13 9797   4.213   4.663   2.425 -0.3125  0.4673  0.0040
   99SAPC   O14 9798   4.338   4.881   2.429 -0.5044  0.1449  0.2802
   99SAPC   O12 9799   4.126   4.875   2.307  0.4020  0.5239 -0.6718
   99SAPC   O11 9800   4.135   4.862   2.554 -0.7630  0.8079 -0.1287
   99SAPC    C1 9801   4.128   4.999   2.586  0.4338  0.1120 -0.1280
   99SAPC    HA 9802   4.145   5.070   2.502 -0.8552 -2.1346 -2.4510
   99SAPC    HB 9803   4.021   5.019   2.608  0.1023 -1.9532  0.3930
   99SAPC    C2 9804   4.231   5.040   2.698 -0.0922  0.2464  0.3838
   99SAPC    HS 9805   4.330   5.001   2.667 -0.8219 -0.9058 -0.5993
   99SAPC   O21 9806   4.179   4.982   2.814  0.4380  0.6415  0.3338
   99SAPC   C21 9807   4.236   4.861   2.843 -0.0192  0.5375 -0.1541
   99SAPC   O22 9808   4.334   4.806   2.793 -0.1890 -0.2929 -0.1689
   99SAPC   C22 9809   4.169   4.791   2.957  0.8045 -0.1170  0.3035
   99SAPC   H2R 9810   4.088   4.857   2.997 -0.6975 -1.5620 -0.2537
   99SAPC   H2S 9811   4.107   4.709   2.915  1.7357 -0.0640 -1.2430
   99SAPC    C3 9812   4.238   5.197   2.706  0.3855 -0.4491 -0.2606
   99SAPC    HX 9813   4.130   5.223   2.703  0.7708  1.1725 -1.4937
   99SAPC    HY 9814   4.269   5.239   2.608  0.1350 -0.4661 -0.3485
   99SAPC   O31 9815   4.309   5.246   2.821 -0.5121 -0.4775  0.0397
   99SAPC   C31 9816   4.239   5.288   2.920  0.5452 -0.3666  0.1203
   99SAPC   O32 9817   4.124   5.327   2.927  0.2404  0.0958  0.2420
   99SAPC   C32 9818   4.336   5.286   3.038 -0.0640  0.5756  0.0719
   99SAPC   H2X 9819   4.433   5.338   3.021  0.0391  0.3599  0.0069
   99SAPC   H2Y 9820   4.379   5.184   3.033 -0.3009  0.4846 -0.1157
   99SAPC   C23 9821   4.260   4.750   3.072  0.9903  0.0303 -0.0474
   99SAPC   H3R 9822   4.342   4.695   3.020  0.5281  1.5751 -2.5794
   99SAPC   H3S 9823   4.210   4.680   3.141 -0.1330  2.0586  1.3147
   99SAPC   C24 9824   4.303   4.862   3.175  0.7417 -0.4400  0.2366
   99SAPC   H4R 9825   4.350   4.948   3.122  0.9298 -0.8383 -0.2562
   99SAPC   H4S 9826   4.381   4.821   3.243  1.3295  0.5858  0.2117
   99SAPC   C25 9827   4.183   4.917   3.255  0.4136  0.3465 -0.2096
   99SAPC   H5R 9828   4.124   4.993   3.202  2.3697  2.2663  0.1955
   99SAPC   C26 9829   4.139   4.857   3.368  0.0650  0.0939  0.2241
   99SAPC   H6R 9830   4.050   4.905   3.410 -0.7834 -0.8426 -0.4796
   99SAPC   C27 9831   4.198   4.747   3.457 -0.1432 -0.2273  0.1408
   99SAPC   H7R 9832   4.268   4.802   3.522 -1.8615  1.7446  0.4173
   99SAPC   H7S 9833   4.266   4.676   3.404  0.3290 -0.5066  1.1059
   99SAPC   C28 9834   4.102   4.661   3.536 -0.8094  0.0524 -0.1282
   99SAPC   H8R 9835   4.036   4.603   3.470 -2.0005 -2.5141  3.0511
   99SAPC   C29 9836   4.071   4.683   3.665  0.0357  0.8593 -0.0285
   99SAPC   H9R 9837   4.009   4.609   3.717  2.2564 -0.6182  0.7067
   99SAPC  C210 9838   4.138   4.783   3.752 -0.4771  0.0536 -0.1163
   99SAPC  H10R 9839   4.133   4.875   3.691  2.3625  0.3449 -0.0070
   99SAPC  H10S 9840   4.244   4.753   3.766 -0.4963  0.0168 -0.0495
   99SAPC  C211 9841   4.087   4.798   3.892 -0.1886  0.7282  0.6683
   99SAPC  H11R 9842   4.054   4.901   3.910  1.6818  1.5186 -0.2598
   99SAPC  C212 9843   4.110   4.708   3.995  0.2056 -0.1446 -0.2424
   99SAPC  H12R 9844   4.080   4.736   4.097 -1.1922 -0.4384 -0.5509
   99SAPC  C213 9845   4.172   4.568   3.978  0.9302 -1.0559 -0.1990
   99SAPC  H13R 9846   4.279   4.589   3.998  0.8222 -0.8934  0.2208
   99SAPC  H13S 9847   4.161   4.528   3.875 -0.1946  0.1136 -0.5579
   99SAPC  C214 9848   4.115   4.470   4.077 -0.1975  0.4152  0.2271
   99SAPC  H14R 9849   4.010   4.439   4.067 -0.5787  0.8947  2.2089
   99SAPC  C215 9850   4.195   4.421   4.171  0.0589  0.3315 -0.3640
   99SAPC  H15R 9851   4.156   4.361   4.254  1.1753  0.7841  0.5053
   99SAPC  C216 9852   4.333   4.467   4.211 -0.0693  0.2361  0.3797
   99SAPC  H16R 9853   4.366   4.566   4.172  3.7915 -1.3706 -0.9157
   99SAPC  H16S 9854   4.408   4.395   4.172  0.1888 -0.1044  1.4581
   99SAPC  C217 9855   4.345   4.486   4.364 -0.1080  0.2557  0.1010
   99SAPC  H17R 9856   4.250   4.538   4.392 -0.3187 -1.9405  4.1571
   99SAPC  H17S 9857   4.420   4.566   4.378  0.2282  0.3805 -2.0654
   99SAPC  C218 9858   4.369   4.361   4.450 -0.6826  0.2373  0.5382
   99SAPC  H18R 9859   4.308   4.278   4.408  1.6763 -0.4939 -1.6763
   99SAPC  H18S 9860   4.348   4.376   4.558  1.4102 -0.1846  1.0562
   99SAPC  C219 9861   4.517   4.310   4.435 -0.4439  0.2221  0.1173
   99SAPC  H19R 9862   4.584   4.386   4.480  2.0468 -0.8113 -1.5678
   99SAPC  H19S 9863   4.540   4.320   4.327  1.7925 -0.5768  0.4511
   99SAPC  C220 9864   4.549   4.183   4.513  0.6352  0.0483 -0.1310
   99SAPC  H20R 9865   4.651   4.145   4.488  0.1515  0.2201 -2.6017
   99SAPC  H20S 9866   4.491   4.093   4.482  2.1274 -0.8269 -0.5370
   99SAPC  H20T 9867   4.537   4.201   4.622  0.0719  0.3344 -0.2403
   99SAPC   C33 9868   4.281   5.303   3.180 -0.1868 -0.1101 -0.0608
   99SAPC   H3X 9869   4.219   5.216   3.212  0.7832 -0.5148  0.7606
   99SAPC   H3Y 9870   4.212   5.390   3.179 -0.9981 -0.7309 -1.6262
   99SAPC   C34 9871   4.406   5.303   3.277  0.5814  0.1038  0.1544
   99SAPC   H4X 9872   4.485   5.369   3.235 -0.2325  0.7998 -0.3040
   99SAPC   H4Y 9873   4.462   5.208   3.287 -0.9951 -0.7721  0.9206
   99SAPC   C35 9874   4.379   5.357   3.418 -0.1307  0.1712 -0.6931
   99SAPC   H5X 9875   4.313   5.446   3.404 -0.2288  0.0571 -0.9564
   99SAPC   H5Y 9876   4.467   5.386   3.480 -0.1667  0.7917 -0.9190
   99SAPC   C36 9877   4.305   5.261   3.515  0.2270  0.7472  0.0370
   99SAPC   H6X 9878   4.215   5.209   3.475  1.3858 -3.8124  2.6123
   99SAPC   H6Y 9879   4.269   5.315   3.605 -0.9012 -0.2111  0.1892
   99SAPC   C37 9880   4.378   5.130   3.547 -1.2783  0.1118  0.0451
   99SAPC   H7X 9881   4.488   5.137   3.542 -1.3369  0.3613 -2.0741
   99SAPC   H7Y 9882   4.357   5.057   3.466  0.0095  0.8051 -0.9482
   99SAPC   C38 9883   4.355   5.067   3.686 -0.4140  0.3701 -0.0749
   99SAPC   H8X 9884   4.404   4.967   3.688 -1.3887 -0.1245  0.1001
   99SAPC   H8Y 9885   4.248   5.052   3.713 -0.0423 -0.0993  1.2581
   99SAPC   C39 9886   4.425   5.150   3.801 -0.0624  0.8252  0.9327
   99SAPC   H9X 9887   4.417   5.258   3.779  0.6950  0.6680 -0.2215
   99SAPC   H9Y 9888   4.534   5.131   3.798 -0.3277 -0.9549  1.1754
   99SAPC  C310 9889   4.362   5.112   3.933  0.0654 -0.1291  0.1326
   99SAPC  H10X 9890   4.380   5.008   3.966 -0.4644  0.0610  1.0436
   99SAPC  H10Y 9891   4.251   5.112   3.937  0.0778 -1.6238  1.6808
   99SAPC  C311 9892   4.411   5.207   4.042 -0.0918  0.5782 -0.9552
   99SAPC  H11X 9893   4.400   5.312   4.005  1.0424  0.5100 -1.5172
   99SAPC  H11Y 9894   4.521   5.200   4.048  0.0175  1.3887 -1.7591
   99SAPC  C312 9895   4.360   5.183   4.190 -0.0673  0.3946  0.4306
   99SAPC  H12X 9896   4.388   5.084   4.231 -1.6732 -0.8234 -1.2652
   99SAPC  H12Y 9897   4.250   5.174   4.177 -0.0817 -0.6397  1.1782
   99SAPC  C313 9898   4.405   5.282   4.297 -0.3410 -0.3598  0.5430
   99SAPC  H13X 9899   4.354   5.260   4.393 -1.7559  2.3654  0.5116
   99SAPC  H13Y 9900   4.375   5.382   4.260  1.8129 -0.1703 -0.9404
   99SAPC  C314 9901   4.559   5.277   4.320  0.1505 -0.5493 -0.3249
   99SAPC  H14X 9902   4.589   5.332   4.228 -2.5014  3.4264  0.9059
   99SAPC  H14Y 9903   4.602   5.175   4.325 -0.4800 -0.7568  1.4569
   99SAPC  C315 9904   4.616   5.350   4.448 -0.0427  0.5680  0.2010
   99SAPC  H15X 9905   4.723   5.374   4.430 -0.7605  3.4345 -0.6532
   99SAPC  H15Y 9906   4.616   5.278   4.533  0.6345  2.2181  1.6545
   99SAPC  C316 9907   4.545   5.487   4.469  0.9883  0.2009  0.5924
   99SAPC  H16X 9908   4.446   5.459   4.512  0.1470 -0.9606 -1.9248
   99SAPC  H16Y 9909   4.520   5.534   4.372 -1.2746  0.5450  1.2884
   99SAPC  C317 9910   4.611   5.588   4.570  0.4155  0.1206 -0.1241
   99SAPC  H17X 9911   4.538   5.670   4.585 -2.9425 -2.9264  1.6602
   99SAPC  H17Y 9912   4.705   5.628   4.528  0.6601 -0.5152 -0.1939
   99SAPC  C318 9913   4.642   5.541   4.711  0.1699  1.0275 -0.6794
   99SAPC  H18X 9914   4.720   5.462   4.707 -0.4604  0.3652 -0.1472
   99SAPC  H18Y 9915   4.555   5.499   4.766 -1.8137  2.4570 -2.5453
   99SAPC  H18Z 9916   4.670   5.627   4.775 -2.3496  1.9940 -0.7638
  100SAPC     N 9917   3.612   4.312   2.695 -0.7394  0.1236  0.2109
  100SAPC   C12 9918   3.541   4.353   2.828 -0.2985 -0.6537 -0.5599
  100SAPC  H12A 9919   3.607   4.317   2.906 -0.2689  1.4584  0.4685
  100SAPC  H12B 9920   3.442   4.312   2.825 -1.5452  1.7595  2.0407
  100SAPC   C13 9921   3.759   4.350   2.687  0.2997 -0.0270 -0.8956
  100SAPC  H13A 9922   3.772   4.452   2.721  2.8392 -1.6573  3.9054
  100SAPC  H13B 9923   3.820   4.281   2.743  0.3959  1.5329  1.0462
  100SAPC  H13C 9924   3.787   4.346   2.583  1.2403 -1.7540 -0.5952
  100SAPC   C14 9925   3.610   4.166   2.681 -0.2961  0.3385 -0.3943
  100SAPC  H14A 9926   3.515   4.118   2.693 -0.8544  1.6437  0.6199
  100SAPC  H14B 9927   3.637   4.148   2.578 -0.4483 -0.5917 -0.2791
  100SAPC  H14C 9928   3.691   4.124   2.740 -0.7481  0.4140  0.2960
  100SAPC   C15 9929   3.547   4.364   2.569 -0.0910 -0.3972 -0.3354
  100SAPC  H15A 9930   3.534   4.471   2.559 -0.6073 -0.6788 -4.2046
  100SAPC  H15B 9931   3.592   4.323   2.479 -1.5500 -2.2567 -0.2716
  100SAPC  H15C 9932   3.447   4.322   2.565  0.3955 -1.5204 -2.2944
  100SAPC   C11 9933   3.519   4.499   2.866  0.4094 -0.7122 -0.9643
  100SAPC  H11A 9934   3.615   4.549   2.840 -0.2525  1.8955  1.1921
  100SAPC  H11B 9935   3.508   4.514   2.975 -0.0800 -0.8612 -0.9903
  100SAPC     P 9936   3.273   4.579   2.844  0.2025 -0.4051  0.1253
  100SAPC   O13 9937   3.180   4.600   2.726 -0.6779  0.0965 -0.8644
  100SAPC   O14 9938   3.222   4.466   2.927 -0.3808  0.0185 -0.0100
  100SAPC   O12 9939   3.416   4.555   2.787  0.4129  0.1290  0.0900
  100SAPC   O11 9940   3.282   4.708   2.931  0.0471  0.2640  0.3081
  100SAPC    C1 9941   3.338   4.826   2.876  0.0885 -0.5623 -0.0631
  100SAPC    HA 9942   3.424   4.804   2.810 -1.1054 -2.0087 -1.1968
  100SAPC    HB 9943   3.272   4.890   2.814 -0.8500  0.2364  1.6715
  100SAPC    C2 9944   3.396   4.917   2.986 -0.0091 -0.0383  0.6767
  100SAPC    HS 9945   3.432   5.015   2.948  2.4890 -1.8595 -1.9996
  100SAPC   O21 9946   3.489   4.856   3.070  0.2435  0.2130 -0.5449
  100SAPC   C21 9947   3.595   4.806   3.021 -0.4542 -0.2813  0.1656
  100SAPC   O22 9948   3.639   4.826   2.910 -0.2810 -0.3089  0.5540
  100SAPC   C22 9949   3.667   4.719   3.125 -0.3694  0.1439 -0.2316
  100SAPC   H2R 9950   3.701   4.788   3.206  1.3306  2.5294 -2.8061
  100SAPC   H2S 9951   3.596   4.640   3.157 -1.8344  1.0849 -1.0285
  100SAPC    C3 9952   3.275   4.954   3.080 -0.2361  0.5764  0.0903
  100SAPC    HX 9953   3.238   4.852   3.106  3.1106 -0.6405  0.5438
  100SAPC    HY 9954   3.198   5.005   3.018 -0.1271 -1.4958 -1.8712
  100SAPC   O31 9955   3.316   5.039   3.192  0.0723 -0.2644  0.0139
  100SAPC   C31 9956   3.328   4.980   3.303 -0.3243 -0.6118  0.5376
  100SAPC   O32 9957   3.295   4.867   3.332 -0.5008 -0.3531 -0.1476
  100SAPC   C32 9958   3.379   5.088   3.392  0.5086 -0.1002  0.2912
  100SAPC   H2X 9959   3.293   5.154   3.420 -0.1455 -0.6984 -0.2842
  100SAPC   H2Y 9960   3.458   5.146   3.339  1.2871  0.8511  2.3816
  100SAPC   C23 9961   3.803   4.643   3.080  0.7426 -0.4974 -0.2291
  100SAPC   H3R 9962   3.871   4.720   3.037  1.5371 -0.2651  1.3799
  100SAPC   H3S 9963   3.785   4.564   3.004 -0.9354 -1.5319  1.1838
  100SAPC   C24 9964   3.895   4.597   3.198 -0.3191  0.0520 -0.4422
  100SAPC   H4R 9965   3.920   4.688   3.258  1.6827 -0.7771  0.0650
  100SAPC   H4S 9966   3.988   4.571   3.143  0.7466  1.9378  0.3655
  100SAPC   C25 9967   3.820   4.482   3.268  0.0127 -0.1686  0.8301
  100SAPC   H5R 9968   3.840   4.382   3.228 -1.4339 -0.0723 -0.2183
  100SAPC   C26 9969   3.757   4.486   3.385 -0.4352  0.6714 -0.6677
  100SAPC   H6R 9970   3.708   4.393   3.419 -1.6034  1.7058  0.5748
  100SAPC   C27 9971   3.739   4.612   3.461  0.1764 -0.5842  0.1697
  100SAPC   H7R 9972   3.767   4.709   3.414 -0.1166  0.3376  1.8200
  100SAPC   H7S 9973   3.806   4.607   3.550  1.1093  1.1970 -0.3784
  100SAPC   C28 9974   3.597   4.630   3.503 -0.3586 -0.2851  0.4748
  100SAPC   H8R 9975   3.528   4.655   3.420 -0.4056  1.7198  1.0545
  100SAPC   C29 9976   3.549   4.630   3.621 -1.0446 -0.7480 -0.0755
  100SAPC   H9R 9977   3.444   4.664   3.627 -0.6808  0.6465 -1.1212
  100SAPC  C210 9978   3.617   4.602   3.758  0.4587 -0.3866 -0.6013
  100SAPC  H10R 9979   3.619   4.697   3.815  1.7564 -0.7103 -0.0527
  100SAPC  H10S 9980   3.723   4.570   3.750  0.6065  0.1731 -0.9328
  100SAPC  C211 9981   3.533   4.482   3.806  0.2489 -0.8160 -1.1545
  100SAPC  H11R 9982   3.446   4.461   3.743 -0.4933 -2.0123  0.2148
  100SAPC  C212 9983   3.551   4.429   3.934 -0.8308 -0.4574  1.0862
  100SAPC  H12R 9984   3.486   4.342   3.948  0.9547 -2.0685 -0.1975
  100SAPC  C213 9985   3.658   4.451   4.036 -0.5763  0.2813 -0.0864
  100SAPC  H13R 9986   3.704   4.550   4.013  0.9853 -0.3160  0.4008
  100SAPC  H13S 9987   3.740   4.377   4.027 -1.0802 -0.2412 -0.4606
  100SAPC  C214 9988   3.595   4.455   4.176 -0.0885  0.6264  0.2929
  100SAPC  H14R 9989   3.489   4.427   4.186  0.3816 -1.1291  0.8418
  100SAPC  C215 9990   3.664   4.482   4.292  0.0289  0.0189  0.0805
  100SAPC  H15R 9991   3.605   4.510   4.380 -1.0162 -1.0225 -0.2593
  100SAPC  C216 9992   3.813   4.489   4.304  0.2566  0.3113 -0.0045
  100SAPC  H16R 9993   3.860   4.532   4.212 -1.3617 -0.5902 -1.3242
  100SAPC  H16S 9994   3.851   4.386   4.316 -4.4476 -1.8340 -1.1182
  100SAPC  C217 9995   3.846   4.584   4.416 -0.3276 -0.4500 -0.2567
  100SAPC  H17R 9996   3.781   4.556   4.501 -0.5173 -2.8917 -1.1402
  100SAPC  H17S 9997   3.835   4.693   4.394 -1.9355 -0.8468 -1.7138
  100SAPC  C218 9998   3.984   4.558   4.470  0.4943 -0.4657 -0.3710
  100SAPC  H18R 9999   4.062   4.579   4.393 -0.1137  0.0443 -0.8576
  100SAPC  H18S10000   3.991   4.447   4.464 -3.7870 -0.8130 -3.1521
  100SAPC  C21910001   4.021   4.603   4.618 -0.5063  0.1152 -0.0227
  100SAPC  H19R10002   3.990   4.709   4.617 -3.0883 -0.5648 -1.5101
  100SAPC  H19S10003   4.130   4.586   4.634  0.4009  3.3497 -1.8584
  100SAPC  C22010004   3.934   4.541   4.728 -0.1405  0.8694  0.3132
  100SAPC  H20R10005   3.825   4.527   4.707  0.2150 -2.3367  0.1320
  100SAPC  H20S10006   3.951   4.595   4.824 -0.3595  0.6200  0.4925
  100SAPC  H20T10007   3.956   4.433   4.745  0.0131  1.3190  3.6488
  100SAPC   C3310008   3.458   5.033   3.509 -0.2619  0.2400 -0.6298
  100SAPC   H3X10009   3.533   5.110   3.537  2.3511 -1.8341 -1.4383
  100SAPC   H3Y10010   3.524   4.948   3.481  1.4994  1.0903  0.7529
  100SAPC   C3410011   3.371   5.016   3.640  0.5409  0.1385 -0.3072
  100SAPC   H4X10012   3.295   4.937   3.621  0.2521  0.2498  0.3667
  100SAPC   H4Y10013   3.313   5.110   3.647 -1.2294 -0.9629  0.5840
  100SAPC   C3510014   3.446   4.982   3.770  0.0214  0.0219 -0.0762
  100SAPC   H5X10015   3.502   5.077   3.786 -0.7772  0.1276  2.4231
  100SAPC   H5Y10016   3.525   4.904   3.768  0.5186  0.4812  0.7965
  100SAPC   C3610017   3.360   4.962   3.900  0.6284  0.2213  0.3721
  100SAPC   H6X10018   3.303   4.866   3.902  1.7120 -0.4357  1.5323
  100SAPC   H6Y10019   3.279   5.037   3.901 -1.4384 -1.8324 -1.0957
  100SAPC   C3710020   3.446   4.968   4.028 -0.1229  0.4274  0.2881
  100SAPC   H7X10021   3.451   5.074   4.061 -0.5654  0.4106  0.4107
  100SAPC   H7Y10022   3.547   4.927   4.008 -0.8340 -0.1379 -2.5775
  100SAPC   C3810023   3.388   4.890   4.145 -0.8870 -0.7659  0.0486
  100SAPC   H8X10024   3.426   4.786   4.133  0.2616 -0.4274  0.5807
  100SAPC   H8Y10025   3.278   4.902   4.139 -0.9910 -1.1387  0.9874
  100SAPC   C3910026   3.425   4.940   4.281  0.2598 -0.3457  0.5546
  100SAPC   H9X10027   3.387   5.043   4.297  0.7996 -0.3661  2.1181
  100SAPC   H9Y10028   3.533   4.951   4.303  0.2506  1.3953 -0.0849
  100SAPC  C31010029   3.371   4.854   4.391  0.1631  0.1668  0.3125
  100SAPC  H10X10030   3.390   4.744   4.383  0.7941  0.3456 -1.0286
  100SAPC  H10Y10031   3.261   4.866   4.382  0.3007  0.5257 -1.2493
  100SAPC  C31110032   3.428   4.903   4.527  0.7884 -0.5387 -0.1892
  100SAPC  H11X10033   3.412   5.013   4.528  0.3013 -0.6081  0.0497
  100SAPC  H11Y10034   3.536   4.878   4.530  0.3602 -2.5311 -0.0946
  100SAPC  C31210035   3.358   4.836   4.647 -0.0946  0.8737 -0.3923
  100SAPC  H12X10036   3.324   4.731   4.632  1.9899  0.0542  0.3679
  100SAPC  H12Y10037   3.266   4.890   4.677  0.0737  1.8824 -1.6014
  100SAPC  C31310038   3.456   4.831   4.764  1.0177  0.1916  0.6514
  100SAPC  H13X10039   3.477   4.939   4.774 -0.6725  0.5917  0.1576
  100SAPC  H13Y10040   3.549   4.779   4.734 -0.3186 -1.8823 -0.1400
  100SAPC  C31410041   3.395   4.761   4.890  0.0423  0.1435  0.1933
  100SAPC  H14X10042   3.400   4.653   4.865  1.1681  0.4143 -0.8493
  100SAPC  H14Y10043   3.289   4.784   4.913  0.4407  0.1711  2.2043
  100SAPC  C31510044   3.480   4.800   5.012  0.0369 -0.2784 -0.5264
  100SAPC  H15X10045   3.446   4.893   5.063 -0.3127 -0.8185  0.2479
  100SAPC  H15Y10046   3.586   4.814   4.981  0.0505 -0.8569 -0.7401
  100SAPC  C31610047   3.501   4.677   5.112  0.1123 -0.3190  0.4539
  100SAPC  H16X10048   3.587   4.609   5.094 -0.4809 -1.0271  0.2230
  100SAPC  H16Y10049   3.407   4.618   5.114  0.1663 -0.3988  0.6920
  100SAPC  C31710050   3.514   4.724   5.260  0.1230  0.3172  0.3848
  100SAPC  H17X10051   3.432   4.797   5.273  1.3828  2.1583 -1.2721
  100SAPC  H17Y10052   3.612   4.777   5.261  0.2604  0.0817  0.0051
  100SAPC  C31810053   3.514   4.606   5.360  0.2478 -0.1970 -0.1109
  100SAPC  H18X10054   3.476   4.645   5.457 -2.1813  1.6309 -1.6874
  100SAPC  H18Y10055   3.617   4.566   5.369  0.3541  0.4068  1.7376
  100SAPC  H18Z10056   3.439   4.529   5.335  2.3438 -1.8512 -1.6339
  101OSM      N10057   6.677   0.759   7.544 -0.6154  0.1643  0.2132
  101OSM    C1510058   6.580   0.647   7.528 -0.5346 -0.3245 -0.1446
  101OSM   H15A10059   6.579   0.584   7.617 -1.8856 -0.9951 -0.6069
  101OSM   H15B10060   6.605   0.577   7.449 -0.0127 -2.6598  1.9391
  101OSM   H15C10061   6.482   0.689   7.511  0.1061  1.7097  0.9295
  101OSM    C1410062   6.629   0.840   7.658 -0.1006 -0.1883  0.3417
  101OSM   H14A10063   6.645   0.803   7.758 -0.1740  0.3735  0.5637
  101OSM   H14B10064   6.531   0.886   7.646 -0.9418 -2.1341 -0.7488
  101OSM   H14C10065   6.685   0.932   7.660 -1.8490  0.9280  0.0849
  101OSM    C1310066   6.810   0.689   7.577  0.1115 -0.2557  0.0531
  101OSM   H13A10067   6.802   0.629   7.666 -0.7501 -0.4014 -0.1190
  101OSM   H13B10068   6.883   0.764   7.602  1.8969 -2.2586  1.1937
  101OSM   H13C10069   6.831   0.633   7.487 -1.1463  0.5660 -0.7807
  101OSM    C1210070   6.685   0.838   7.413 -0.0528 -0.4502 -0.0417
  101OSM   H12A10071   6.739   0.930   7.433 -2.5700  1.2701 -0.6184
  101OSM   H12B10072   6.585   0.862   7.381 -0.6744 -2.0002  0.6895
  101OSM    C1110073   6.766   0.780   7.286  0.2865 -0.2460  0.2906
  101OSM   H11A10074   6.745   0.849   7.201 -0.0974  0.1721  0.7206
  101OSM   H11B10075   6.712   0.685   7.264 -0.3981  0.3701 -0.7782
  101OSM      P10076   6.986   0.623   7.275  0.0408 -0.5704 -0.3771
  101OSM    O1310077   7.132   0.635   7.280  0.4852 -0.6335  0.3581
  101OSM    O1410078   6.931   0.521   7.373 -0.0715  0.0643 -0.0396
  101OSM    O1110079   6.939   0.594   7.128 -0.3752  0.0990  0.3213
  101OSM    O1210080   6.910   0.765   7.305  0.3719  0.0827  0.1764
  101OSM    C1S10081   6.936   0.686   7.019  0.4171  0.0131  0.1331
  101OSM    H1S10082   7.028   0.748   7.033  1.0523 -0.8077 -0.2766
  101OSM    H1T10083   6.845   0.749   7.019  0.1313 -0.3832 -0.8620
  101OSM     NF10084   6.980   0.680   6.767 -0.0730 -0.0295  0.3596
  101OSM    HNF10085   6.914   0.706   6.697  1.0204  1.4808 -0.1703
  101OSM    C2S10086   6.936   0.609   6.883  0.0233  0.0485  0.6674
  101OSM    H2S10087   7.011   0.529   6.905  0.1494  0.6947  2.8422
  101OSM    C3S10088   6.810   0.519   6.865 -0.0875 -0.2143 -0.1815
  101OSM    H3S10089   6.729   0.594   6.857  0.7562  0.7157 -0.1773
  101OSM     O310090   6.771   0.446   6.983 -0.2918  0.0792  0.1487
  101OSM    HO310091   6.836   0.474   7.049  1.6556 -1.7168 -0.8738
  101OSM    C4S10092   6.829   0.420   6.754 -0.2523  0.7488  0.0927
  101OSM    H4S10093   6.898   0.340   6.785 -1.4206 -0.0290  0.8046
  101OSM    C5S10094   6.756   0.421   6.638 -0.0495 -0.2442 -0.4384
  101OSM    H5S10095   6.679   0.498   6.619 -0.8712 -1.0060 -0.2545
  101OSM    C6S10096   6.771   0.323   6.528 -0.2894  0.3278 -0.1911
  101OSM    H6S10097   6.849   0.248   6.552 -1.3203 -0.7073  0.0084
  101OSM    H6T10098   6.785   0.375   6.431 -0.8971  0.9465  0.0378
  101OSM    C7S10099   6.637   0.251   6.511 -0.3343  0.2760 -0.0915
  101OSM    H7S10100   6.549   0.318   6.508  0.4358  1.3141 -0.4388
  101OSM    H7T10101   6.620   0.189   6.601  0.3190  1.4260  0.8745
  101OSM    C8S10102   6.634   0.165   6.384  0.0278  0.0241 -0.6669
  101OSM    H8S10103   6.571   0.078   6.409  0.4182 -0.2631 -0.6777
  101OSM    H8T10104   6.735   0.123   6.367 -0.3538 -0.9283 -0.6084
  101OSM    C9S10105   6.582   0.229   6.251  0.6277  0.7247 -0.3513
  101OSM    H9S10106   6.636   0.321   6.219  0.5118  0.4569 -1.3713
  101OSM    H9T10107   6.472   0.246   6.255  0.0714 -2.5074  1.3483
  101OSM   C10S10108   6.604   0.131   6.129  0.4892 -0.2019 -0.3606
  101OSM   H10S10109   6.580   0.026   6.159  0.2595  0.0728  0.4555
  101OSM   H10T10110   6.714   0.129   6.114  0.9449  1.0014  2.3434
  101OSM   C11S10111   6.528   0.179   6.004  0.4213 -0.1596  0.0013
  101OSM   H11S10112   6.548   0.288   5.996 -0.0585  0.1399  2.1853
  101OSM   H11T10113   6.423   0.178   6.038  1.0348  1.6637  2.1649
  101OSM   C12S10114   6.559   0.103   5.882 -0.7038  0.2985  0.2921
  101OSM   H12S10115   6.560  -0.008   5.891  1.5135  0.4739  4.0205
  101OSM   H12T10116   6.661   0.129   5.848 -0.7148 -0.2053 -0.1344
  101OSM   C13S10117   6.470   0.132   5.755 -0.0124 -0.4806  0.3768
  101OSM   H13S10118   6.485   0.239   5.732 -0.6074 -0.5310 -0.2546
  101OSM   H13T10119   6.362   0.124   5.779 -0.2338  3.7672  1.5474
  101OSM   C14S10120   6.505   0.033   5.638 -0.4037  0.5321 -0.1571
  101OSM   H14S10121   6.493  -0.075   5.661  1.2382  0.5422  0.9266
  101OSM   H14T10122   6.611   0.053   5.613 -0.7691  0.5135 -1.8325
  101OSM   C15S10123   6.439   0.054   5.496 -0.1033  0.1661 -0.1597
  101OSM   H15S10124   6.334   0.018   5.501 -0.0802  0.1383  0.1708
  101OSM   H15T10125   6.502  -0.013   5.434 -1.8534  1.4516 -3.6001
  101OSM   C16S10126   6.440   0.196   5.445 -0.3057 -0.3081 -0.0283
  101OSM   H16S10127   6.542   0.239   5.457 -0.5809  0.7841 -1.2962
  101OSM   H16T10128   6.376   0.250   5.517 -0.2839 -1.9080  1.2265
  101OSM   C17S10129   6.406   0.224   5.298 -0.4174  0.3595 -0.0590
  101OSM   H17S10130   6.478   0.171   5.232 -0.9943  0.6971 -0.9932
  101OSM   H17T10131   6.423   0.332   5.280  0.3977  0.1636 -0.5113
  101OSM   C18S10132   6.266   0.180   5.256 -0.7987  0.2929  0.3494
  101OSM   H18S10133   6.192   0.194   5.338  3.1179  1.0756  4.1051
  101OSM   H18T10134   6.274   0.073   5.228 -0.2741  0.3792  0.1587
  101OSM   H18U10135   6.236   0.234   5.164 -2.6856  0.6510  1.1256
  101OSM    C1F10136   7.104   0.725   6.757  0.4693 -0.2707 -0.3681
  101OSM     OF10137   7.181   0.734   6.853 -0.7068 -0.4312  0.2368
  101OSM    C2F10138   7.146   0.755   6.618  0.3773 -0.5290 -0.2486
  101OSM    H2F10139   7.127   0.864   6.607  1.9730 -0.2060  0.0208
  101OSM    H2G10140   7.074   0.699   6.555 -2.1564 -1.0879  2.9083
  101OSM    C3F10141   7.280   0.707   6.574  0.2156  0.1664  0.4690
  101OSM    H3F10142   7.296   0.597   6.569 -0.4895  0.0833 -0.1394
  101OSM    H3G10143   7.357   0.741   6.646  0.1902 -1.5349  1.3500
  101OSM    C4F10144   7.314   0.755   6.432  0.0952  0.5512  0.4867
  101OSM    H4F10145   7.414   0.727   6.392 -0.8580  0.0614 -1.7141
  101OSM    H4G10146   7.314   0.866   6.445 -2.9284  0.5904  0.8001
  101OSM    C5F10147   7.194   0.720   6.334 -0.7485  0.4103 -0.9841
  101OSM    H5F10148   7.099   0.772   6.359 -0.3684  0.1910  1.1442
  101OSM    H5G10149   7.171   0.611   6.327 -2.4103  0.7988 -1.9358
  101OSM    C6F10150   7.229   0.762   6.191 -0.2733 -0.1434 -0.0994
  101OSM    H6F10151   7.316   0.702   6.156 -1.2943 -1.1338 -1.0429
  101OSM    H6G10152   7.260   0.869   6.199  0.0650 -0.0310 -2.2451
  101OSM    C7F10153   7.114   0.746   6.093  0.5350 -0.0114  0.9184
  101OSM    H7F10154   7.033   0.814   6.129 -0.2161 -2.5050  4.4879
  101OSM    H7G10155   7.068   0.645   6.101 -1.6728  0.5677 -2.4105
  101OSM    C8F10156   7.166   0.777   5.954  0.0724 -0.0796  0.0037
  101OSM    H8F10157   7.245   0.701   5.939  0.2846  0.1748 -0.1605
  101OSM    H8G10158   7.209   0.879   5.948  2.2421 -1.0271 -1.8999
  101OSM    C9F10159   7.066   0.752   5.852 -0.0844  0.7335  0.4336
  101OSM    H9F10160   6.963   0.772   5.887 -0.8705 -0.1545 -1.2538
  101OSM   C10F10161   7.078   0.713   5.722  0.2098 -0.0375 -0.1334
  101OSM   H10F10162   6.996   0.731   5.651  0.7020  2.3559 -0.1911
  101OSM   C11F10163   7.207   0.658   5.663  0.2968  0.1981  0.4112
  101OSM   H11F10164   7.187   0.550   5.653 -0.8583  0.1622  2.4506
  101OSM   H11G10165   7.288   0.669   5.739 -0.2047  1.2415  0.8235
  101OSM   C12F10166   7.239   0.722   5.527 -0.2692  0.1885  0.0098
  101OSM   H12F10167   7.334   0.673   5.496  0.0745  0.5068  0.5504
  101OSM   H12G10168   7.260   0.828   5.552 -1.4824  0.0178  2.0079
  101OSM   C13F10169   7.131   0.707   5.414  0.4997 -0.3732 -0.4224
  101OSM   H13F10170   7.034   0.753   5.443  1.8552  3.0919 -0.8914
  101OSM   H13G10171   7.109   0.598   5.409  4.4497 -1.3028 -0.4594
  101OSM   C14F10172   7.189   0.767   5.289 -0.1248  0.2012 -0.0718
  101OSM   H14F10173   7.286   0.717   5.265  1.1206  2.1309  0.6691
  101OSM   H14G10174   7.222   0.871   5.307  1.2522 -0.1698 -0.3189
  101OSM   C15F10175   7.102   0.773   5.156 -0.0027 -0.2705  0.6014
  101OSM   H15F10176   7.162   0.827   5.080 -1.0306  1.1047  0.7198
  101OSM   H15G10177   7.012   0.834   5.178 -0.5425 -0.9780  0.3620
  101OSM   C16F10178   7.074   0.638   5.095  0.1253  0.3843  0.2985
  101OSM   H16F10179   6.993   0.646   5.019 -0.8051  0.2185  1.2492
  101OSM   H16G10180   7.038   0.573   5.178 -0.0577 -2.1470 -1.6595
  101OSM   C17F10181   7.194   0.576   5.033  0.2055  0.2930 -0.2205
  101OSM   H17F10182   7.267   0.549   5.112 -1.6506 -1.3069  1.0674
  101OSM   H17G10183   7.236   0.640   4.953  0.7483  1.1287  0.7121
  101OSM   C18F10184   7.154   0.439   4.972 -0.9259 -0.7030 -0.2492
  101OSM   H18F10185   7.065   0.447   4.906 -0.7207 -1.0501 -0.5688
  101OSM   H18G10186   7.130   0.371   5.058  0.7065 -0.8107  0.1433
  101OSM   H18H10187   7.230   0.390   4.908  0.4037  3.4181 -2.1434
  102OSM      N10188   6.483   3.309   7.025  0.3307  0.4640 -0.0068
  102OSM    C1510189   6.580   3.269   7.139 -0.0047 -0.7156 -0.3966
  102OSM   H15A10190   6.555   3.313   7.234 -0.6408  0.0438 -0.9055
  102OSM   H15B10191   6.670   3.324   7.115 -0.2965  0.2272  0.6032
  102OSM   H15C10192   6.603   3.163   7.132 -0.1448 -0.8430  0.8985
  102OSM    C1410193   6.372   3.202   7.039  0.5405 -0.3762  0.0513
  102OSM   H14A10194   6.400   3.111   6.988  0.0818 -1.0242  0.9160
  102OSM   H14B10195   6.286   3.223   6.978  0.4778  1.6093  0.7382
  102OSM   H14C10196   6.350   3.178   7.143 -1.7021  1.6168  0.1398
  102OSM    C1310197   6.430   3.438   7.059  0.2589 -0.1340 -0.6107
  102OSM   H13A10198   6.354   3.420   7.134 -0.3879 -2.7516 -1.7910
  102OSM   H13B10199   6.376   3.484   6.978 -1.0320 -0.3973  0.0841
  102OSM   H13C10200   6.513   3.501   7.091  0.3263 -0.2522 -0.5511
  102OSM    C1210201   6.546   3.304   6.887 -0.3687 -0.0747 -0.7931
  102OSM   H12A10202   6.480   3.329   6.805 -1.4109  1.8598  0.5696
  102OSM   H12B10203   6.578   3.202   6.869 -2.4662 -0.7913 -0.7596
  102OSM    C1110204   6.670   3.400   6.867 -0.0374 -0.0152 -0.3653
  102OSM   H11A10205   6.625   3.500   6.883  0.7317  0.4549 -1.0710
  102OSM   H11B10206   6.707   3.410   6.763  1.2683  0.1344  0.0888
  102OSM      P10207   6.844   3.503   7.034  0.5613  0.3264 -0.4731
  102OSM    O1310208   6.753   3.574   7.123  0.1889 -0.2619  0.7053
  102OSM    O1410209   6.970   3.460   7.099 -0.1492  0.1363  0.6539
  102OSM    O1110210   6.884   3.591   6.914 -0.0263 -0.3563  0.2649
  102OSM    O1210211   6.773   3.380   6.958 -0.3471  0.3395  0.2579
  102OSM    C1S10212   6.990   3.563   6.830 -0.2498  0.1479 -0.4134
  102OSM    H1S10213   6.975   3.463   6.784 -3.2697  0.6729 -0.7948
  102OSM    H1T10214   7.086   3.566   6.885 -0.8116  2.6328  0.5941
  102OSM     NF10215   7.107   3.620   6.619  0.1210 -0.1661 -0.3148
  102OSM    HNF10216   7.177   3.689   6.629 -0.6334  0.4792  0.6787
  102OSM    C2S10217   7.001   3.660   6.713 -0.5232  0.1332 -0.1931
  102OSM    H2S10218   6.902   3.648   6.664 -0.5927 -0.0459 -0.0066
  102OSM    C3S10219   7.017   3.812   6.762 -0.5619 -0.4407  0.3383
  102OSM    H3S10220   7.124   3.827   6.789 -0.5129  1.9413 -0.8941
  102OSM     O310221   6.935   3.848   6.873 -0.1955  0.2653 -0.1104
  102OSM    HO310222   6.911   3.760   6.904 -1.5546  0.4122 -0.6772
  102OSM    C4S10223   6.988   3.901   6.642  0.0676 -0.0729  0.2804
  102OSM    H4S10224   6.890   3.877   6.599  1.0353 -2.0199 -0.9679
  102OSM    C5S10225   7.051   4.002   6.581  0.0465  0.2008  0.2423
  102OSM    H5S10226   7.155   4.020   6.612 -0.0966 -0.3823  1.1020
  102OSM    C6S10227   7.012   4.077   6.461 -0.0076  0.0118  0.4959
  102OSM    H6S10228   7.050   4.181   6.473  1.3844 -0.4697  0.4306
  102OSM    H6T10229   6.902   4.084   6.451 -0.0809 -1.8801 -0.5341
  102OSM    C7S10230   7.062   4.006   6.326 -0.7112  0.2482  0.3182
  102OSM    H7S10231   7.167   3.976   6.345 -0.1348  1.3139 -1.0701
  102OSM    H7T10232   7.071   4.082   6.245 -0.1489 -1.5217 -1.3410
  102OSM    C8S10233   6.962   3.896   6.283  0.1202  0.2608  0.4920
  102OSM    H8S10234   6.866   3.950   6.275  0.0437  0.0219 -0.2892
  102OSM    H8T10235   6.949   3.823   6.366 -0.1926 -0.5369 -0.2467
  102OSM    C9S10236   6.985   3.832   6.147  0.1263  0.0842 -0.3317
  102OSM    H9S10237   6.894   3.776   6.118 -0.6636  0.4356  1.3528
  102OSM    H9T10238   7.067   3.757   6.150 -0.1460 -0.1969  0.0699
  102OSM   C10S10239   6.991   3.926   6.025  0.0815 -0.1564  0.0715
  102OSM   H10S10240   7.074   3.997   6.045  0.7797 -1.2239  1.0213
  102OSM   H10T10241   6.899   3.985   6.005  0.1928  0.1202  0.3734
  102OSM   C11S10242   7.018   3.843   5.899 -0.0861 -0.3395 -0.9189
  102OSM   H11S10243   6.939   3.774   5.863 -0.2826 -0.6591  0.0865
  102OSM   H11T10244   7.099   3.776   5.937 -0.5174  0.7024  2.1389
  102OSM   C12S10245   7.083   3.934   5.796 -0.0422 -1.0967 -0.5217
  102OSM   H12S10246   7.189   3.958   5.818 -0.3290  1.0683 -1.2994
  102OSM   H12T10247   7.023   4.027   5.809  0.0919 -1.0192 -0.4607
  102OSM   C13S10248   7.075   3.886   5.650 -0.1517  0.3210  0.3532
  102OSM   H13S10249   6.965   3.886   5.637 -0.0086  0.0013 -1.0180
  102OSM   H13T10250   7.107   3.780   5.642 -0.5682  0.1028  1.4549
  102OSM   C14S10251   7.130   3.976   5.534  0.4374  0.9908  0.3713
  102OSM   H14S10252   7.235   3.989   5.568  1.5715 -1.9734 -1.5614
  102OSM   H14T10253   7.090   4.079   5.522  2.2769  1.6872 -0.1019
  102OSM   C15S10254   7.138   3.899   5.394  0.2460 -0.0515 -0.6599
  102OSM   H15S10255   7.194   3.804   5.413  0.2434  0.3161  1.4085
  102OSM   H15T10256   7.206   3.966   5.338 -0.0030  0.7962  0.0376
  102OSM   C16S10257   6.995   3.900   5.335 -0.3023  0.3928  0.5718
  102OSM   H16S10258   6.971   4.007   5.319  1.1862  0.9336  1.7252
  102OSM   H16T10259   6.923   3.853   5.407 -0.1539  0.9096  1.0642
  102OSM   C17S10260   6.988   3.827   5.194 -0.2927  0.0508 -0.2493
  102OSM   H17S10261   6.970   3.721   5.222 -0.8076  0.5697  1.5254
  102OSM   H17T10262   7.086   3.821   5.143 -0.1355 -0.7214  0.1299
  102OSM   C18S10263   6.888   3.880   5.103 -0.4309 -0.6140  0.1648
  102OSM   H18S10264   6.926   3.975   5.059  2.4462 -0.9301  1.7742
  102OSM   H18T10265   6.787   3.891   5.148 -0.3621  0.2566  0.1129
  102OSM   H18U10266   6.882   3.802   5.024  0.8208 -2.7928  2.0992
  102OSM    C1F10267   7.109   3.514   6.533 -0.5791 -0.0563 -0.6460
  102OSM     OF10268   7.013   3.444   6.519  0.3850 -0.6449 -0.3115
  102OSM    C2F10269   7.238   3.476   6.485  0.4553  0.4373 -0.2307
  102OSM    H2F10270   7.295   3.415   6.558  0.7523  0.0174 -0.7996
  102OSM    H2G10271   7.302   3.561   6.453  1.8089 -0.4674  0.0100
  102OSM    C3F10272   7.231   3.377   6.366  0.5278 -0.2457  0.3062
  102OSM    H3F10273   7.176   3.284   6.394 -0.6637 -0.2732 -1.9198
  102OSM    H3G10274   7.329   3.329   6.344  0.0133 -0.4261 -1.7555
  102OSM    C4F10275   7.174   3.441   6.235  0.4607 -0.2786 -0.3008
  102OSM    H4F10276   7.220   3.541   6.226  0.1011  0.2287  2.5089
  102OSM    H4G10277   7.067   3.469   6.244  0.2614 -1.5350  2.2047
  102OSM    C5F10278   7.206   3.368   6.109  0.3000 -0.1236  0.3708
  102OSM    H5F10279   7.181   3.262   6.132 -0.3089  0.3397  2.0132
  102OSM    H5G10280   7.314   3.380   6.088  0.0669  2.0386  0.1037
  102OSM    C6F10281   7.132   3.417   5.985  0.4848  0.0273  0.1082
  102OSM    H6F10282   7.174   3.520   5.976  0.2793  0.1903  0.9378
  102OSM    H6G10283   7.024   3.415   6.010 -0.2178  1.1458 -2.4672
  102OSM    C7F10284   7.172   3.336   5.855  0.1560  0.5945 -1.4054
  102OSM    H7F10285   7.118   3.243   5.883  1.9267  0.5150  2.4235
  102OSM    H7G10286   7.282   3.320   5.859  0.1931  1.0455  0.2560
  102OSM    C8F10287   7.126   3.411   5.729  0.5888  0.4276  0.0957
  102OSM    H8F10288   7.171   3.511   5.713  0.3580  0.4641 -0.3352
  102OSM    H8G10289   7.017   3.429   5.743  0.0292 -2.4353  0.0874
  102OSM    C9F10290   7.134   3.316   5.610  0.2943  0.5875  0.8904
  102OSM    H9F10291   7.075   3.225   5.628  0.0205  0.7771  0.9641
  102OSM   C10F10292   7.189   3.328   5.493 -0.3983 -0.2645  0.0158
  102OSM   H10F10293   7.177   3.246   5.420  3.2434 -0.5673 -0.4737
  102OSM   C11F10294   7.274   3.446   5.443 -0.2412  0.0969  0.8468
  102OSM   H11F10295   7.378   3.431   5.408 -0.9137  0.3680 -1.4596
  102OSM   H11G10296   7.284   3.523   5.522  0.3311  1.3351 -0.4042
  102OSM   C12F10297   7.192   3.514   5.329 -0.1699  0.2809  0.0807
  102OSM   H12F10298   7.220   3.620   5.309  1.1873 -0.1029 -0.1509
  102OSM   H12G10299   7.082   3.524   5.345 -0.3436  0.4022 -1.0662
  102OSM   C13F10300   7.209   3.444   5.197 -0.2307  0.2625 -0.9365
  102OSM   H13F10301   7.148   3.351   5.198  0.3337 -0.1107  0.0752
  102OSM   H13G10302   7.318   3.422   5.189  0.4949  2.1269  2.0286
  102OSM   C14F10303   7.168   3.519   5.071  0.0969  0.0647 -0.2270
  102OSM   H14F10304   7.228   3.612   5.061  0.4756 -0.0557  0.8018
  102OSM   H14G10305   7.060   3.548   5.072 -0.1860 -0.5298 -3.6315
  102OSM   C15F10306   7.192   3.434   4.949  0.5659  0.2865 -0.0566
  102OSM   H15F10307   7.145   3.482   4.861  2.1545 -0.3145 -1.2684
  102OSM   H15G10308   7.153   3.330   4.963  0.7845  0.2777  0.5148
  102OSM   C16F10309   7.342   3.411   4.905 -0.1026 -0.7527 -0.1352
  102OSM   H16F10310   7.406   3.388   4.993 -0.0678  0.2658  0.1207
  102OSM   H16G10311   7.385   3.507   4.870  0.3527 -1.8920 -2.9567
  102OSM   C17F10312   7.378   3.315   4.795 -0.1091  0.1395  0.4958
  102OSM   H17F10313   7.299   3.317   4.718  0.0212 -1.7706  0.2881
  102OSM   H17G10314   7.379   3.209   4.829 -0.0876 -0.8950 -2.4909
  102OSM   C18F10315   7.517   3.336   4.731 -0.3278 -0.6322 -0.4536
  102OSM   H18F10316   7.556   3.438   4.754 -1.2336 -0.3420 -0.1662
  102OSM   H18G10317   7.500   3.326   4.622  0.9470 -2.3568 -0.5492
  102OSM   H18H10318   7.590   3.256   4.758 -0.8369 -0.6599  0.9479
  103OSM      N10319   6.388   1.685   7.092 -0.4011  0.3224  0.3804
  103OSM    C1510320   6.506   1.617   7.166  0.6483  0.3463 -0.0735
  103OSM   H15A10321   6.597   1.672   7.149  2.5986 -1.6925  2.8161
  103OSM   H15B10322   6.513   1.514   7.136  0.7748  0.7218 -1.3685
  103OSM   H15C10323   6.487   1.625   7.272 -0.4988  1.9535 -0.3580
  103OSM    C1410324   6.360   1.812   7.151  0.0286 -0.3865  0.0294
  103OSM   H14A10325   6.446   1.876   7.157 -0.7931  1.0182 -2.1041
  103OSM   H14B10326   6.313   1.808   7.249 -0.3707  1.7694 -0.0218
  103OSM   H14C10327   6.286   1.873   7.101 -0.1795  1.3470  2.2602
  103OSM    C1310328   6.420   1.709   6.946 -0.3572  0.2807 -0.0173
  103OSM   H13A10329   6.369   1.797   6.910 -1.4912 -0.5099 -0.4195
  103OSM   H13B10330   6.399   1.626   6.879  0.4177 -0.6096  0.8191
  103OSM   H13C10331   6.526   1.727   6.941  0.1981 -2.4071  0.2626
  103OSM    C1210332   6.274   1.597   7.117 -0.1215 -0.6371  0.3144
  103OSM   H12A10333   6.252   1.604   7.223  1.0411  0.1571  0.5161
  103OSM   H12B10334   6.313   1.498   7.096 -1.0298 -0.5545 -2.0906
  103OSM    C1110335   6.146   1.622   7.021 -0.5052 -0.8864  0.8390
  103OSM   H11A10336   6.139   1.733   7.018  1.3805 -0.7028  1.7983
  103OSM   H11B10337   6.058   1.586   7.079 -1.8839  2.2036  0.8877
  103OSM      P10338   6.216   1.418   6.869 -0.2467 -0.1539  0.2232
  103OSM    O1310339   6.353   1.437   6.811  0.3441 -0.2969 -0.9362
  103OSM    O1410340   6.213   1.340   6.995 -0.8752 -0.1986  0.6816
  103OSM    O1110341   6.121   1.356   6.761  0.2252  0.4543  0.4162
  103OSM    O1210342   6.154   1.564   6.889  0.1491  0.2632  0.0908
  103OSM    C1S10343   6.147   1.413   6.627  0.3683 -0.0690  0.1701
  103OSM    H1S10344   6.250   1.407   6.587 -0.2147 -0.9891 -1.2795
  103OSM    H1T10345   6.129   1.523   6.622 -1.7509 -0.3921 -0.4807
  103OSM     NF10346   6.099   1.403   6.390 -0.1563  0.1331  0.2400
  103OSM    HNF10347   6.035   1.475   6.364  1.0458  1.5668  1.1006
  103OSM    C2S10348   6.071   1.343   6.517 -0.1324  0.0671 -0.1074
  103OSM    H2S10349   6.115   1.241   6.529  1.1965  0.7228  0.8074
  103OSM    C3S10350   5.919   1.331   6.554 -0.4595 -0.3721  0.1334
  103OSM    H3S10351   5.873   1.431   6.567  2.2877  0.6815  3.0678
  103OSM     O310352   5.887   1.277   6.682 -0.8582 -0.1032  0.2234
  103OSM    HO310353   5.964   1.300   6.735 -0.5570 -1.4655  0.4261
  103OSM    C4S10354   5.857   1.242   6.454 -0.0678 -0.4619 -0.3480
  103OSM    H4S10355   5.891   1.138   6.471 -0.5763 -0.4511  0.8848
  103OSM    C5S10356   5.760   1.264   6.360 -0.9028  0.3657  0.8900
  103OSM    H5S10357   5.735   1.371   6.353 -2.9783  0.0965  2.9110
  103OSM    C6S10358   5.695   1.160   6.275 -0.0879 -0.3013  0.3967
  103OSM    H6S10359   5.590   1.148   6.308  0.5273  0.7175  3.0424
  103OSM    H6T10360   5.741   1.062   6.302 -2.5732 -1.2044  1.7222
  103OSM    C7S10361   5.724   1.192   6.136 -0.1567 -0.2061  0.6057
  103OSM    H7S10362   5.834   1.187   6.121 -0.1705  0.8442  0.0654
  103OSM    H7T10363   5.695   1.296   6.109  0.1660 -0.1757  0.3788
  103OSM    C8S10364   5.668   1.090   6.034 -0.7174  0.2337 -0.1772
  103OSM    H8S10365   5.560   1.077   6.058 -0.5021 -0.6093  0.4068
  103OSM    H8T10366   5.726   0.996   6.047  1.0625  1.3223  0.0368
  103OSM    C9S10367   5.673   1.146   5.886  0.1485 -0.5100 -0.2215
  103OSM    H9S10368   5.779   1.146   5.854  0.1812  0.8775 -0.1544
  103OSM    H9T10369   5.638   1.251   5.897 -1.7178 -1.2402  1.3959
  103OSM   C10S10370   5.585   1.055   5.792  0.2852 -0.5986  0.0718
  103OSM   H10S10371   5.484   1.092   5.822  0.5969  2.1564 -1.9157
  103OSM   H10T10372   5.605   0.951   5.825  2.0320 -0.7556 -1.3459
  103OSM   C11S10373   5.610   1.083   5.648 -0.7967  0.3253  0.4758
  103OSM   H11S10374   5.718   1.074   5.624 -0.4707  0.1117  1.9183
  103OSM   H11T10375   5.586   1.189   5.624 -0.5611  0.3703  0.4403
  103OSM   C12S10376   5.517   0.996   5.564 -0.4740  0.3742  0.5936
  103OSM   H12S10377   5.420   0.982   5.617 -0.9656 -1.3813 -0.6781
  103OSM   H12T10378   5.564   0.895   5.562 -0.9646  0.1486  0.3233
  103OSM   C13S10379   5.506   1.054   5.419 -0.1960 -1.4166  0.9616
  103OSM   H13S10380   5.486   1.163   5.425  0.6810 -1.1186 -0.8909
  103OSM   H13T10381   5.419   1.007   5.368 -1.4030  1.0959  0.5821
  103OSM   C14S10382   5.628   1.030   5.327  0.5655  0.4405  0.2453
  103OSM   H14S10383   5.655   0.922   5.327 -0.9665  0.0405 -0.1783
  103OSM   H14T10384   5.718   1.084   5.363  0.8294 -0.1689  0.5216
  103OSM   C15S10385   5.618   1.076   5.180  0.4462  0.2834  0.4862
  103OSM   H15S10386   5.642   1.184   5.171 -0.9507  0.5979  0.3335
  103OSM   H15T10387   5.513   1.065   5.148  0.3328  2.1296  0.1061
  103OSM   C16S10388   5.718   1.002   5.089 -0.3792  0.1693 -0.0774
  103OSM   H16S10389   5.697   0.893   5.098  0.9522 -0.2582 -1.7921
  103OSM   H16T10390   5.823   1.026   5.113 -0.9998  2.3817  0.6825
  103OSM   C17S10391   5.709   1.040   4.938  0.3429  0.0025  0.6440
  103OSM   H17S10392   5.719   1.151   4.938 -0.6883  0.1241 -0.8769
  103OSM   H17T10393   5.603   1.025   4.910  0.2756  2.1191 -0.4107
  103OSM   C18S10394   5.802   0.969   4.842 -0.0080  0.4594 -0.0019
  103OSM   H18S10395   5.822   1.018   4.744 -0.4773  0.3636 -0.1498
  103OSM   H18T10396   5.777   0.862   4.826  1.4344  0.0676  0.2025
  103OSM   H18U10397   5.897   0.971   4.900 -0.2122  2.0142  0.3404
  103OSM    C1F10398   6.227   1.407   6.333 -0.0557 -0.0803 -0.4710
  103OSM     OF10399   6.310   1.324   6.371 -0.1257 -0.2094 -0.2473
  103OSM    C2F10400   6.272   1.524   6.248 -0.2318 -0.3303  0.6403
  103OSM    H2F10401   6.377   1.546   6.278 -0.2849  1.7815 -0.5709
  103OSM    H2G10402   6.212   1.616   6.264  2.7235  1.9063 -0.2978
  103OSM    C3F10403   6.266   1.480   6.100 -0.2426  0.4283 -0.1851
  103OSM    H3F10404   6.170   1.423   6.098 -1.1144  1.7286  1.6091
  103OSM    H3G10405   6.346   1.409   6.071 -0.4457  0.5812 -1.1731
  103OSM    C4F10406   6.277   1.589   5.993  0.0637 -0.6033  0.1356
  103OSM    H4F10407   6.386   1.604   5.979 -0.0701 -1.2726 -1.9019
  103OSM    H4G10408   6.232   1.688   6.016 -0.5223 -0.8090 -0.0921
  103OSM    C5F10409   6.243   1.526   5.851 -0.4195  0.2167 -0.1729
  103OSM    H5F10410   6.139   1.491   5.841 -1.2389  3.0355 -3.5820
  103OSM    H5G10411   6.310   1.438   5.842 -0.0993 -0.0943  3.6255
  103OSM    C6F10412   6.275   1.611   5.728 -0.5061  0.3156  0.0916
  103OSM    H6F10413   6.359   1.682   5.747 -0.6257  0.1297  1.4710
  103OSM    H6G10414   6.190   1.677   5.701 -0.5629  1.1264  2.0603
  103OSM    C7F10415   6.293   1.525   5.598 -0.2193  0.9257 -0.3183
  103OSM    H7F10416   6.198   1.468   5.589 -0.5117  1.1366  1.2115
  103OSM    H7G10417   6.370   1.446   5.615 -1.5639 -0.7896 -1.7780
  103OSM    C8F10418   6.318   1.586   5.460 -0.1749 -0.7212  0.0165
  103OSM    H8F10419   6.305   1.522   5.370 -0.8785  0.1263 -0.4972
  103OSM    H8G10420   6.427   1.606   5.467 -0.3104 -0.1394  0.5677
  103OSM    C9F10421   6.224   1.703   5.433  0.4075 -0.2055  0.0247
  103OSM    H9F10422   6.176   1.749   5.521  2.8590  1.5416  0.5461
  103OSM   C10F10423   6.187   1.755   5.320  0.8831  0.6732 -0.2730
  103OSM   H10F10424   6.098   1.820   5.325 -0.5133 -1.2228  2.9205
  103OSM   C11F10425   6.248   1.704   5.191 -0.1916  0.0531 -0.0419
  103OSM   H11F10426   6.358   1.686   5.196 -0.2977 -0.8932 -0.9583
  103OSM   H11G10427   6.248   1.784   5.114 -1.0021 -0.4061 -0.5309
  103OSM   C12F10428   6.175   1.586   5.122 -1.0420  0.3055  0.3418
  103OSM   H12F10429   6.075   1.626   5.096 -0.0229  3.7981  1.2949
  103OSM   H12G10430   6.153   1.501   5.189 -1.1618 -0.2900 -0.4332
  103OSM   C13F10431   6.230   1.535   4.985 -0.0077 -0.0696 -0.4858
  103OSM   H13F10432   6.319   1.472   5.006  0.6768  1.6831  2.6641
  103OSM   H13G10433   6.259   1.624   4.925  1.4148  0.5110  0.9426
  103OSM   C14F10434   6.127   1.453   4.903 -0.0194 -0.0723 -0.4604
  103OSM   H14F10435   6.030   1.507   4.899 -0.7237 -1.2803 -0.3511
  103OSM   H14G10436   6.113   1.363   4.968 -0.9872 -0.7879 -1.6190
  103OSM   C15F10437   6.184   1.404   4.768 -0.0742  0.3927 -0.2660
  103OSM   H15F10438   6.260   1.323   4.771  1.2433  1.4173 -2.6760
  103OSM   H15G10439   6.239   1.494   4.730 -1.0906  0.0900 -2.6150
  103OSM   C16F10440   6.080   1.375   4.661 -0.0872 -0.3430 -0.2663
  103OSM   H16F10441   6.128   1.315   4.580 -0.2042 -1.1055  0.2293
  103OSM   H16G10442   6.020   1.458   4.617 -1.4162 -2.3543 -2.4904
  103OSM   C17F10443   5.976   1.278   4.719  0.0002  0.6223  0.3536
  103OSM   H17F10444   5.948   1.305   4.823 -2.2155  0.7485 -0.2204
  103OSM   H17G10445   6.026   1.178   4.720  1.9429  1.5469  2.6086
  103OSM   C18F10446   5.842   1.281   4.642 -0.3118 -0.5404 -0.6237
  103OSM   H18F10447   5.760   1.225   4.691  2.5614 -2.9647  1.7544
  103OSM   H18G10448   5.864   1.241   4.541  2.8592  0.7517 -0.5610
  103OSM   H18H10449   5.815   1.389   4.641  0.9674 -0.1068  2.3404
  104OSM      N10450   6.401   2.580   7.127 -0.2679 -0.1406  0.2221
  104OSM    C1510451   6.387   2.728   7.162 -0.5088  0.0902  0.2540
  104OSM   H15A10452   6.486   2.771   7.162  0.2021 -1.3934 -1.7507
  104OSM   H15B10453   6.340   2.758   7.255  2.3923  3.3427  0.8629
  104OSM   H15C10454   6.339   2.770   7.075 -0.1406  0.4157  0.2030
  104OSM    C1410455   6.467   2.512   7.238 -0.3654  0.5984 -0.5317
  104OSM   H14A10456   6.409   2.532   7.326  1.7680 -1.9882  1.6406
  104OSM   H14B10457   6.569   2.543   7.257  0.4411 -0.9332 -2.0619
  104OSM   H14C10458   6.469   2.404   7.227 -0.5552  0.5044  0.2977
  104OSM    C1310459   6.260   2.533   7.111  0.2028  0.5465  0.6255
  104OSM   H13A10460   6.204   2.539   7.203  0.2570  1.6928  0.5897
  104OSM   H13B10461   6.272   2.429   7.081  2.3829  0.8912  0.1036
  104OSM   H13C10462   6.211   2.580   7.027  0.4680 -1.3693 -0.6779
  104OSM    C1210463   6.470   2.561   6.989 -0.4125  0.2133 -0.0633
  104OSM   H12A10464   6.559   2.623   6.986  0.1933 -0.6151  0.3582
  104OSM   H12B10465   6.411   2.600   6.907 -0.2783  0.2684 -0.1349
  104OSM    C1110466   6.522   2.418   6.962 -0.1525  0.1175  0.2414
  104OSM   H11A10467   6.609   2.395   7.028  0.1458 -0.0662 -0.2097
  104OSM   H11B10468   6.551   2.412   6.855 -1.6134 -0.5975 -0.1423
  104OSM      P10469   6.440   2.177   6.987  0.4708  0.2626 -0.0593
  104OSM    O1310470   6.542   2.149   7.088 -0.1121 -0.1044  0.1825
  104OSM    O1410471   6.323   2.094   6.998  0.0609  0.1637  0.1315
  104OSM    O1110472   6.509   2.157   6.845 -0.0418 -0.2494 -0.2305
  104OSM    O1210473   6.409   2.327   6.979  0.2491 -0.1010 -0.2029
  104OSM    C1S10474   6.446   2.153   6.712  0.1644  0.0845 -0.7912
  104OSM    H1S10475   6.418   2.255   6.678  2.0287  1.1558  0.7022
  104OSM    H1T10476   6.347   2.104   6.724  0.7351 -0.6176  1.4790
  104OSM     NF10477   6.454   2.083   6.490 -0.0877 -0.4798 -0.0042
  104OSM    HNF10478   6.404   2.005   6.453 -2.0330  2.1417 -3.4647
  104OSM    C2S10479   6.529   2.073   6.616 -0.7357  0.6284 -0.2131
  104OSM    H2S10480   6.631   2.117   6.608 -0.1526 -0.1991  1.9698
  104OSM    C3S10481   6.552   1.926   6.673  0.2413 -0.6092 -0.6647
  104OSM    H3S10482   6.451   1.887   6.698 -0.7000  1.6186 -0.7278
  104OSM     O310483   6.633   1.923   6.784 -0.3856  0.8553  0.3181
  104OSM    HO310484   6.656   2.014   6.799  1.2983  0.4398  0.4292
  104OSM    C4S10485   6.622   1.828   6.577  0.2262 -1.0167 -0.7190
  104OSM    H4S10486   6.730   1.841   6.562 -0.2431  1.6052 -2.6689
  104OSM    C5S10487   6.561   1.717   6.541 -0.2094 -0.2017 -1.1252
  104OSM    H5S10488   6.459   1.708   6.582  0.4583  2.4450  1.5074
  104OSM    C6S10489   6.634   1.615   6.458  0.1846  0.3167 -0.0670
  104OSM    H6S10490   6.556   1.543   6.426 -1.4165  1.5994  0.8052
  104OSM    H6T10491   6.696   1.549   6.521 -1.6435 -2.0078 -0.5689
  104OSM    C7S10492   6.713   1.663   6.335  1.2596 -1.0566 -0.4703
  104OSM    H7S10493   6.746   1.568   6.288 -1.8591 -2.0823 -0.8546
  104OSM    H7T10494   6.801   1.721   6.369  1.3263  0.5782 -3.1398
  104OSM    C8S10495   6.635   1.755   6.238 -0.0180  0.2591 -0.7414
  104OSM    H8S10496   6.657   1.861   6.266  2.7254 -0.6261  0.9219
  104OSM    H8T10497   6.526   1.738   6.249 -0.3821  0.2839 -3.6559
  104OSM    C9S10498   6.689   1.732   6.098  0.7318  0.2289 -0.0683
  104OSM    H9S10499   6.660   1.629   6.067  0.1785 -0.7003  3.1574
  104OSM    H9T10500   6.800   1.733   6.108  0.7965  1.3515 -0.7048
  104OSM   C10S10501   6.627   1.835   6.001 -0.3484 -0.5172  0.1743
  104OSM   H10S10502   6.659   1.938   6.025  3.0743 -1.0373 -1.5881
  104OSM   H10T10503   6.515   1.838   6.002 -0.3349  0.4942 -0.0843
  104OSM   C11S10504   6.674   1.819   5.852 -0.3561 -0.5025  0.1254
  104OSM   H11S10505   6.643   1.719   5.814  0.4552 -0.6645 -0.1252
  104OSM   H11T10506   6.783   1.838   5.848 -0.6747  1.2966 -1.9403
  104OSM   C12S10507   6.607   1.927   5.759  0.2080 -0.6009 -0.2073
  104OSM   H12S10508   6.656   2.022   5.789  1.7758 -1.3086 -0.3866
  104OSM   H12T10509   6.499   1.928   5.786 -0.2759 -1.9258 -1.8753
  104OSM   C13S10510   6.604   1.893   5.615  0.2315  0.5239  0.2640
  104OSM   H13S10511   6.550   1.796   5.607 -0.4462  0.7553  1.7911
  104OSM   H13T10512   6.706   1.871   5.576 -0.0659 -2.7462  1.0392
  104OSM   C14S10513   6.535   2.002   5.525 -0.2827 -0.0519 -0.4425
  104OSM   H14S10514   6.603   2.089   5.538  2.7432 -2.1404 -1.0496
  104OSM   H14T10515   6.438   2.027   5.571  0.6521  2.2002  0.4531
  104OSM   C15S10516   6.518   1.958   5.375  0.5540  0.0107 -0.4653
  104OSM   H15S10517   6.463   1.862   5.370 -0.6458  0.4773  2.1330
  104OSM   H15T10518   6.617   1.945   5.326  1.2598 -1.2481  1.1828
  104OSM   C16S10519   6.424   2.043   5.291 -0.2250 -0.3404  0.4999
  104OSM   H16S10520   6.338   2.077   5.352 -1.5276  1.2529 -2.0431
  104OSM   H16T10521   6.385   1.982   5.206  0.3815  1.6572 -1.2993
  104OSM   C17S10522   6.477   2.179   5.242  0.0898 -1.2156  0.6804
  104OSM   H17S10523   6.501   2.220   5.343 -1.5826 -3.4426  2.0988
  104OSM   H17T10524   6.397   2.235   5.190  0.6445 -1.0420  0.0098
  104OSM   C18S10525   6.601   2.190   5.145 -0.4931  1.0864 -0.1390
  104OSM   H18S10526   6.615   2.299   5.126  0.3154  0.7909 -1.2971
  104OSM   H18T10527   6.578   2.138   5.050  4.3724 -0.4106 -0.7455
  104OSM   H18U10528   6.693   2.155   5.196 -0.1323 -1.2762 -2.2640
  104OSM    C1F10529   6.459   2.193   6.423  0.8271 -0.1230  0.7088
  104OSM     OF10530   6.539   2.282   6.453  0.5139 -0.0957 -0.7137
  104OSM    C2F10531   6.367   2.221   6.310 -0.6103 -0.3314  0.0012
  104OSM    H2F10532   6.302   2.305   6.341  0.7068  1.0121 -0.7177
  104OSM    H2G10533   6.312   2.128   6.286 -0.9107 -0.3637  0.8132
  104OSM    C3F10534   6.448   2.281   6.194 -0.0703 -0.2071  0.1112
  104OSM    H3F10535   6.513   2.363   6.229  2.6778 -0.7990 -3.0625
  104OSM    H3G10536   6.386   2.318   6.109 -1.9500 -2.1123  0.5658
  104OSM    C4F10537   6.556   2.186   6.130 -0.3744  0.5051 -0.3289
  104OSM    H4F10538   6.499   2.107   6.077 -2.0636  1.9446 -0.7277
  104OSM    H4G10539   6.616   2.152   6.217  0.5098  0.2780 -1.0136
  104OSM    C5F10540   6.644   2.271   6.033 -0.5721  0.3818  0.3455
  104OSM    H5F10541   6.728   2.202   6.009 -1.4117  0.0525 -1.8688
  104OSM    H5G10542   6.693   2.354   6.089 -2.0907  1.7679 -0.3277
  104OSM    C6F10543   6.573   2.325   5.911  0.1548 -0.0912  0.6922
  104OSM    H6F10544   6.492   2.397   5.933 -1.2594 -2.2532  3.1800
  104OSM    H6G10545   6.511   2.240   5.876 -1.7856  1.4044  0.3340
  104OSM    C7F10546   6.672   2.371   5.807  0.5379  0.1383 -0.0152
  104OSM    H7F10547   6.742   2.286   5.794 -0.4146 -0.4268 -1.6936
  104OSM    H7G10548   6.728   2.460   5.843 -0.1915 -0.1718  2.0412
  104OSM    C8F10549   6.607   2.392   5.666 -0.2516  0.0424  0.5233
  104OSM    H8F10550   6.548   2.300   5.647 -2.0858  0.4646  3.5342
  104OSM    H8G10551   6.695   2.399   5.599 -1.3349 -1.1948 -1.1057
  104OSM    C9F10552   6.520   2.517   5.656 -0.3279 -0.2725 -0.3719
  104OSM    H9F10553   6.487   2.555   5.754 -0.3256 -1.7910  0.2304
  104OSM   C10F10554   6.494   2.598   5.551  0.1819 -0.5536  0.3935
  104OSM   H10F10555   6.433   2.689   5.561  1.2244  0.2027  0.0520
  104OSM   C11F10556   6.535   2.577   5.403  0.6733 -0.0875 -0.3214
  104OSM   H11F10557   6.606   2.494   5.385  0.9015  0.0373 -0.0156
  104OSM   H11G10558   6.598   2.663   5.372  1.7175 -0.2389  1.2756
  104OSM   C12F10559   6.417   2.554   5.306  0.3417  0.0227 -0.7743
  104OSM   H12F10560   6.373   2.455   5.329 -0.0130  0.8641  2.8050
  104OSM   H12G10561   6.463   2.552   5.205  2.8612 -0.8430  0.3011
  104OSM   C13F10562   6.309   2.660   5.316  0.0030 -0.7638  0.3921
  104OSM   H13F10563   6.345   2.765   5.321  1.2912 -1.1997  0.6798
  104OSM   H13G10564   6.253   2.629   5.407  0.3223 -1.6572  0.3010
  104OSM   C14F10565   6.204   2.651   5.205  0.4971  0.1112 -0.8406
  104OSM   H14F10566   6.179   2.549   5.170 -2.0367  1.3458 -3.0633
  104OSM   H14G10567   6.222   2.712   5.114  1.9225 -0.5058 -0.9872
  104OSM   C15F10568   6.076   2.714   5.250  0.3767 -0.2162  0.3916
  104OSM   H15F10569   6.096   2.819   5.281 -1.1090  0.0611  0.4987
  104OSM   H15G10570   6.032   2.661   5.337  0.6132 -1.0061  0.0298
  104OSM   C16F10571   5.962   2.721   5.144  0.2367  0.2109 -1.2101
  104OSM   H16F10572   5.986   2.797   5.067  2.2112  0.8685 -0.0388
  104OSM   H16G10573   5.875   2.758   5.202  0.7040 -1.8778  0.9887
  104OSM   C17F10574   5.932   2.586   5.077  0.0465 -0.2014 -0.2386
  104OSM   H17F10575   5.892   2.511   5.149 -0.6508 -0.0010 -0.4063
  104OSM   H17G10576   6.027   2.543   5.038  1.3543 -0.1892  2.6990
  104OSM   C18F10577   5.845   2.594   4.946 -0.3992  0.5182  0.1035
  104OSM   H18F10578   5.908   2.651   4.874 -0.8561  1.6577  0.5912
  104OSM   H18G10579   5.753   2.646   4.979 -0.3091  0.2112  0.8662
  104OSM   H18H10580   5.818   2.490   4.917  0.0736  0.2295  0.6542
  105OSM      N10581   0.620   1.677   7.438 -0.6666  0.2218 -0.4332
  105OSM    C1510582   0.689   1.572   7.508  0.7634  0.2525  0.1521
  105OSM   H15A10583   0.714   1.609   7.607 -0.3112  2.0149 -0.2176
  105OSM   H15B10584   0.790   1.560   7.471  0.8331 -2.0228  0.8991
  105OSM   H15C10585   0.640   1.476   7.517 -2.1774  1.6197 -0.3991
  105OSM    C1410586   0.485   1.709   7.493 -0.2200  0.1204 -0.4872
  105OSM   H14A10587   0.422   1.621   7.497 -0.8525  0.6266  1.6456
  105OSM   H14B10588   0.432   1.784   7.436  2.7524  2.5936 -0.2364
  105OSM   H14C10589   0.499   1.737   7.596  3.0209 -0.4916 -0.6420
  105OSM    C1310590   0.694   1.804   7.449 -0.2045 -0.2597 -0.1296
  105OSM   H13A10591   0.653   1.882   7.387  1.4169  1.3336  0.7168
  105OSM   H13B10592   0.795   1.795   7.413 -0.8247  1.5199 -2.6046
  105OSM   H13C10593   0.690   1.850   7.547  1.3568  2.1412 -1.1070
  105OSM    C1210594   0.606   1.634   7.296 -0.6301 -0.3375 -0.1844
  105OSM   H12A10595   0.692   1.581   7.258  0.5382  1.6883 -0.5628
  105OSM   H12B10596   0.588   1.716   7.227  1.9948  1.8010  1.4837
  105OSM    C1110597   0.488   1.534   7.269  0.1512 -0.7371 -0.2853
  105OSM   H11A10598   0.489   1.463   7.355 -1.2787  0.2671  0.5970
  105OSM   H11B10599   0.513   1.473   7.179  0.7338  1.2324 -1.5281
  105OSM      P10600   0.307   1.695   7.161 -0.2399  0.4321 -0.3307
  105OSM    O1310601   0.168   1.735   7.205  0.4664  0.2675  0.4909
  105OSM    O1410602   0.410   1.801   7.164 -0.1102  0.2447  0.4507
  105OSM    O1110603   0.310   1.605   7.036  0.3346 -0.2653 -0.3046
  105OSM    O1210604   0.353   1.591   7.263  0.3539  0.1222 -0.0167
  105OSM    C1S10605   0.329   1.654   6.896 -0.6749  0.1224  0.0320
  105OSM    H1S10606   0.338   1.765   6.893 -1.8506  0.2331  0.1085
  105OSM    H1T10607   0.234   1.633   6.842 -2.0851 -1.4521  2.8915
  105OSM     NF10608   0.435   1.636   6.675 -0.5353 -0.8485  0.3555
  105OSM    HNF10609   0.389   1.575   6.611  0.7332  0.4455 -1.9062
  105OSM    C2S10610   0.448   1.589   6.813  0.1463  0.3044 -0.1411
  105OSM    H2S10611   0.548   1.613   6.853  0.4816  0.2582 -0.9424
  105OSM    C3S10612   0.436   1.436   6.817  0.3196  0.4211  0.2183
  105OSM    H3S10613   0.339   1.399   6.777  1.2987 -0.9574 -0.9998
  105OSM     O310614   0.438   1.384   6.950 -0.0954  0.2022 -1.2045
  105OSM    HO310615   0.420   1.462   7.003 -0.5509 -0.6779 -0.0069
  105OSM    C4S10616   0.535   1.360   6.731 -0.1338  0.3599 -0.3154
  105OSM    H4S10617   0.640   1.391   6.743  0.0242  0.2200 -1.2398
  105OSM    C5S10618   0.509   1.251   6.659  0.0048  0.2742 -0.0039
  105OSM    H5S10619   0.410   1.203   6.665  0.2408 -0.0950  1.1449
  105OSM    C6S10620   0.612   1.167   6.570  0.6842 -0.4630 -0.8841
  105OSM    H6S10621   0.600   1.061   6.600 -0.2769 -0.4771 -1.3122
  105OSM    H6T10622   0.715   1.209   6.572  0.4192  0.2051 -1.0782
  105OSM    C7S10623   0.566   1.175   6.427 -0.2237  0.3868 -0.1253
  105OSM    H7S10624   0.571   1.281   6.393 -1.5987  0.4346 -0.2401
  105OSM    H7T10625   0.462   1.138   6.420 -0.3483  0.6105  0.5421
  105OSM    C8S10626   0.659   1.082   6.350  0.5030  0.4192  0.5513
  105OSM    H8S10627   0.659   0.986   6.406  1.9180 -0.0976 -0.2648
  105OSM    H8T10628   0.767   1.107   6.348  0.4396  0.7477  1.1695
  105OSM    C9S10629   0.609   1.068   6.208  0.2021  1.2419 -0.3227
  105OSM    H9S10630   0.588   1.165   6.158 -1.4705  0.3889 -1.3683
  105OSM    H9T10631   0.507   1.025   6.203  0.2158  1.2893 -3.8204
  105OSM   C10S10632   0.689   0.981   6.111 -0.1245 -0.0203 -0.3869
  105OSM   H10S10633   0.683   0.877   6.149 -0.7573 -0.9752 -2.9225
  105OSM   H10T10634   0.795   1.014   6.121 -0.6274  1.6221 -0.0734
  105OSM   C11S10635   0.632   0.986   5.961  0.4875  0.3289  0.1410
  105OSM   H11S10636   0.633   1.091   5.926 -2.9972  0.7204  0.8134
  105OSM   H11T10637   0.526   0.955   5.972  1.2338 -3.3728 -1.7257
  105OSM   C12S10638   0.691   0.875   5.870 -0.2472 -0.3937 -0.1011
  105OSM   H12S10639   0.643   0.775   5.876 -0.4043 -0.3074  0.1002
  105OSM   H12T10640   0.789   0.856   5.918 -0.8083 -0.3470  1.1024
  105OSM   C13S10641   0.698   0.917   5.723 -0.8841  0.2100 -0.2551
  105OSM   H13S10642   0.785   0.985   5.726 -1.6999  1.2699  1.7052
  105OSM   H13T10643   0.608   0.976   5.696 -0.4687  1.1827  0.4342
  105OSM   C14S10644   0.715   0.806   5.616  0.3506 -0.6437  0.2432
  105OSM   H14S10645   0.631   0.735   5.632 -0.3238  0.0803 -0.0201
  105OSM   H14T10646   0.814   0.757   5.629  1.0468  0.9236  1.0934
  105OSM   C15S10647   0.694   0.851   5.467  0.1624 -0.2785 -0.6377
  105OSM   H15S10648   0.775   0.926   5.456 -0.5689  0.5849 -0.2664
  105OSM   H15T10649   0.591   0.893   5.462 -0.2184 -1.3036 -2.6490
  105OSM   C16S10650   0.706   0.740   5.364  0.1304  0.4825 -0.9257
  105OSM   H16S10651   0.630   0.659   5.369  0.6337 -0.1433 -2.5218
  105OSM   H16T10652   0.808   0.696   5.373 -0.0852  0.1688  0.0938
  105OSM   C17S10653   0.705   0.793   5.227  0.0919 -0.5263  0.1769
  105OSM   H17S10654   0.783   0.872   5.227  0.8596 -1.2687  0.5035
  105OSM   H17T10655   0.609   0.846   5.209 -0.7433 -1.0855  2.6997
  105OSM   C18S10656   0.737   0.695   5.118  0.2014  0.1906  0.4354
  105OSM   H18S10657   0.840   0.655   5.131  0.8352  1.9311  1.1076
  105OSM   H18T10658   0.735   0.737   5.015  1.2768 -2.0241 -0.5653
  105OSM   H18U10659   0.664   0.611   5.124 -2.1464  1.9768 -1.2004
  105OSM    C1F10660   0.466   1.762   6.647 -0.6303 -0.4464 -1.1183
  105OSM     OF10661   0.526   1.829   6.736  0.8721 -0.4548 -0.0777
  105OSM    C2F10662   0.427   1.820   6.520  0.8097 -0.5424  0.4554
  105OSM    H2F10663   0.344   1.893   6.526  2.7600  2.3087 -3.0621
  105OSM    H2G10664   0.406   1.731   6.457  0.3161  0.2789 -0.5514
  105OSM    C3F10665   0.553   1.894   6.464 -0.0542 -0.2780 -0.6977
  105OSM    H3F10666   0.598   1.970   6.532  1.2343  0.5804 -2.4314
  105OSM    H3G10667   0.522   1.942   6.369  0.8660 -0.2570 -1.0033
  105OSM    C4F10668   0.681   1.804   6.455  0.4745  0.1384  0.0009
  105OSM    H4F10669   0.648   1.699   6.446 -0.6516  0.4903 -0.1231
  105OSM    H4G10670   0.753   1.824   6.537  1.2158 -0.5240 -0.4816
  105OSM    C5F10671   0.748   1.837   6.319 -0.3216 -0.5642  0.1942
  105OSM    H5F10672   0.845   1.782   6.323 -0.1704 -0.2452  1.4596
  105OSM    H5G10673   0.773   1.944   6.307  0.4208 -0.9030 -1.5588
  105OSM    C6F10674   0.668   1.790   6.200 -0.3945 -0.2863 -0.6061
  105OSM    H6F10675   0.562   1.816   6.217 -0.1490 -0.2125  1.0062
  105OSM    H6G10676   0.688   1.681   6.187  1.6560 -0.1025  0.4912
  105OSM    C7F10677   0.740   1.840   6.069  0.1672 -0.2842  0.3325
  105OSM    H7F10678   0.834   1.788   6.044  1.4165  2.0648 -0.1774
  105OSM    H7G10679   0.779   1.940   6.098  3.0276 -0.9584 -0.8442
  105OSM    C8F10680   0.646   1.835   5.947 -0.0871  0.1774  0.1588
  105OSM    H8F10681   0.703   1.878   5.863  0.0900 -1.5251 -0.6418
  105OSM    H8G10682   0.555   1.891   5.975 -0.7307  0.0476 -1.5858
  105OSM    C9F10683   0.600   1.701   5.912  0.3433 -0.1667 -0.3118
  105OSM    H9F10684   0.542   1.648   5.988 -0.8609  1.4189 -0.0607
  105OSM   C10F10685   0.629   1.637   5.797  0.2936  0.0358 -0.2796
  105OSM   H10F10686   0.590   1.534   5.789 -0.6641  0.3416  0.2725
  105OSM   C11F10687   0.714   1.694   5.678  0.1027  0.1485  0.4875
  105OSM   H11F10688   0.818   1.655   5.684  0.7732  1.5658 -1.0144
  105OSM   H11G10689   0.711   1.805   5.677  1.9884  0.2604 -1.7225
  105OSM   C12F10690   0.667   1.642   5.540  0.4904  0.8962  0.6260
  105OSM   H12F10691   0.558   1.663   5.533  0.4155  0.2924 -0.2718
  105OSM   H12G10692   0.687   1.532   5.535  0.2374  0.8611  0.4078
  105OSM   C13F10693   0.741   1.704   5.420  0.4652 -0.1591 -0.7710
  105OSM   H13F10694   0.847   1.673   5.429  0.9755  1.9024  0.9926
  105OSM   H13G10695   0.727   1.814   5.427  1.4275 -0.0005 -1.2288
  105OSM   C14F10696   0.684   1.650   5.285  0.0934  0.0824  0.7705
  105OSM   H14F10697   0.581   1.690   5.277 -0.0287 -0.5098 -1.1872
  105OSM   H14G10698   0.700   1.540   5.288  0.0012  0.0534  0.2685
  105OSM   C15F10699   0.765   1.691   5.155 -0.5356  0.1317 -0.5864
  105OSM   H15F10700   0.727   1.627   5.072 -0.4122 -1.7628  0.7363
  105OSM   H15G10701   0.872   1.664   5.162 -0.7236 -0.8110 -1.1717
  105OSM   C16F10702   0.755   1.846   5.128 -0.0592  0.7714  0.0917
  105OSM   H16F10703   0.807   1.916   5.198  0.7021 -0.8009  1.1612
  105OSM   H16G10704   0.646   1.858   5.144 -0.2268 -1.2089  0.7265
  105OSM   C17F10705   0.797   1.881   4.988  0.1270 -0.2857  0.2183
  105OSM   H17F10706   0.719   1.838   4.922  0.8873 -0.1500 -0.7899
  105OSM   H17G10707   0.900   1.844   4.966  0.6982  0.3017  1.7509
  105OSM   C18F10708   0.798   2.032   4.962  0.1837 -0.6299 -0.5049
  105OSM   H18F10709   0.875   2.082   5.026 -3.2672  1.9506  2.0117
  105OSM   H18G10710   0.705   2.089   4.983  1.4342  1.0467  0.8243
  105OSM   H18H10711   0.829   2.063   4.860 -1.5939 -0.3294 -0.9793
  106OSM      N10712   6.456   4.136   7.731 -0.2244  0.5444  0.0093
  106OSM    C1510713   6.462   4.276   7.784 -0.4433 -0.1018  0.0217
  106OSM   H15A10714   6.516   4.287   7.876  1.7699 -1.9657 -0.9328
  106OSM   H15B10715   6.357   4.302   7.789 -0.7050 -0.9828 -0.5321
  106OSM   H15C10716   6.513   4.340   7.713 -0.9079  0.7928  0.4857
  106OSM    C1410717   6.593   4.079   7.718 -0.1585 -0.0423  0.2362
  106OSM   H14A10718   6.657   4.144   7.659 -0.0054 -1.4330 -1.2053
  106OSM   H14B10719   6.596   3.978   7.680 -0.2859  0.1054 -0.1774
  106OSM   H14C10720   6.636   4.072   7.817 -0.4036 -0.7632  0.2907
  106OSM    C1310721   6.373   4.048   7.821 -0.3097  0.3528 -0.4348
  106OSM   H13A10722   6.275   4.092   7.833  1.3424  3.7431  2.5706
  106OSM   H13B10723   6.421   4.036   7.917  0.5652  0.5572 -0.8334
  106OSM   H13C10724   6.362   3.952   7.772  0.3482 -0.1122  0.3178
  106OSM    C1210725   6.387   4.139   7.590  0.0541 -0.1129  0.5533
  106OSM   H12A10726   6.293   4.190   7.600  0.8597  1.6480 -0.4023
  106OSM   H12B10727   6.362   4.035   7.575 -0.4649  0.0379  0.3553
  106OSM    C1110728   6.459   4.197   7.467 -0.5318 -0.0521  0.2336
  106OSM   H11A10729   6.417   4.160   7.371  0.0344 -0.3292  0.0884
  106OSM   H11B10730   6.569   4.176   7.468 -0.7641 -1.5125 -1.0173
  106OSM      P10731   6.320   4.414   7.443  0.1581  0.2867  0.1942
  106OSM    O1310732   6.199   4.355   7.505 -0.0153  0.7110 -0.6198
  106OSM    O1410733   6.344   4.559   7.447  0.9649 -0.2517  0.7034
  106OSM    O1110734   6.326   4.368   7.286 -0.0146 -0.6299 -0.3992
  106OSM    O1210735   6.455   4.340   7.485  0.1496 -0.0450  0.4825
  106OSM    C1S10736   6.429   4.417   7.203 -0.0842  0.7130  0.4566
  106OSM    H1S10737   6.530   4.391   7.241  0.4458  3.3910  1.1088
  106OSM    H1T10738   6.430   4.528   7.201 -0.4669  0.7248  0.8165
  106OSM     NF10739   6.512   4.397   6.963 -0.6860  0.2027 -0.1707
  106OSM    HNF10740   6.498   4.460   6.887  2.3412 -1.4663 -2.3251
  106OSM    C2S10741   6.404   4.376   7.051 -0.0664 -0.4456  0.1040
  106OSM    H2S10742   6.381   4.268   7.060  1.0408 -0.5484  2.5510
  106OSM    C3S10743   6.270   4.441   6.997 -0.5371 -0.2850  0.3292
  106OSM    H3S10744   6.287   4.548   6.972 -0.2974 -0.7586 -1.7149
  106OSM     O310745   6.163   4.422   7.091  0.0601 -0.1257 -0.3278
  106OSM    HO310746   6.216   4.407   7.170  0.9173 -1.3494 -1.1044
  106OSM    C4S10747   6.234   4.378   6.862  0.3404  0.0717 -0.1972
  106OSM    H4S10748   6.241   4.446   6.776 -2.6376  0.1742 -0.4335
  106OSM    C5S10749   6.164   4.259   6.853 -0.3598 -0.1071  0.3960
  106OSM    H5S10750   6.137   4.211   6.948  0.2389  0.6186  0.9417
  106OSM    C6S10751   6.107   4.189   6.729  0.0569 -0.2289 -0.1570
  106OSM    H6S10752   5.999   4.170   6.747 -0.3003  1.9594  0.2639
  106OSM    H6T10753   6.150   4.086   6.730 -0.0370 -0.2887  1.5078
  106OSM    C7S10754   6.130   4.250   6.593  0.2314  0.2478  0.2844
  106OSM    H7S10755   6.239   4.260   6.575  0.1388 -1.0653 -1.2849
  106OSM    H7T10756   6.094   4.355   6.586  0.2150  0.3000  1.0528
  106OSM    C8S10757   6.065   4.157   6.489  0.9222  0.2792 -0.4558
  106OSM    H8S10758   5.957   4.161   6.517  1.0037 -0.1958 -0.0527
  106OSM    H8T10759   6.106   4.054   6.496 -0.7755 -0.3832  0.4935
  106OSM    C9S10760   6.065   4.213   6.348 -0.6644  0.3776  0.2780
  106OSM    H9S10761   6.164   4.260   6.331 -1.1057  2.0704  2.0161
  106OSM    H9T10762   6.003   4.304   6.342  0.6927  1.5394  2.4407
  106OSM   C10S10763   6.036   4.108   6.223  0.1775 -0.7869 -0.3391
  106OSM   H10S10764   5.927   4.107   6.246  0.0511  1.5473 -0.5652
  106OSM   H10T10765   6.095   4.016   6.242  0.6565 -0.2030  1.1666
  106OSM   C11S10766   6.045   4.179   6.085 -0.2923  0.2796 -0.1406
  106OSM   H11S10767   6.147   4.223   6.085 -0.3562  0.4268  0.1260
  106OSM   H11T10768   5.962   4.251   6.067 -0.2999  0.7969  1.8029
  106OSM   C12S10769   6.038   4.072   5.969  0.0290 -0.8816  0.0334
  106OSM   H12S10770   5.952   4.002   5.982 -0.5987 -0.9582 -3.5456
  106OSM   H12T10771   6.132   4.014   5.980  1.0221  0.8480  1.2017
  106OSM   C13S10772   6.030   4.140   5.829  0.6109 -0.6599  0.0372
  106OSM   H13S10773   6.100   4.225   5.820 -0.3706  0.1386 -0.1752
  106OSM   H13T10774   5.927   4.178   5.814 -0.7915 -4.0217  0.0882
  106OSM   C14S10775   6.057   4.039   5.722 -0.1077  0.0122 -0.5149
  106OSM   H14S10776   5.977   3.962   5.714 -0.2457  0.0910  0.0139
  106OSM   H14T10777   6.150   3.994   5.762 -0.1694  1.5426  1.5494
  106OSM   C15S10778   6.076   4.093   5.585  0.3033 -0.4275  0.1657
  106OSM   H15S10779   6.159   4.167   5.588 -1.1029  1.2127  0.0838
  106OSM   H15T10780   5.983   4.145   5.553 -0.1950 -0.1629  1.9560
  106OSM   C16S10781   6.104   3.983   5.481 -1.0258  0.1952  1.0358
  106OSM   H16S10782   6.025   3.906   5.480 -0.2968 -0.5649  0.4874
  106OSM   H16T10783   6.203   3.936   5.499 -1.4322 -2.1695 -2.1311
  106OSM   C17S10784   6.115   4.041   5.343 -0.7644 -0.9166 -0.1587
  106OSM   H17S10785   6.203   4.108   5.335 -0.3298 -1.4852 -0.1993
  106OSM   H17T10786   6.028   4.104   5.316 -0.1886  0.4955  1.0977
  106OSM   C18S10787   6.126   3.924   5.248  0.0918 -0.6073  0.8254
  106OSM   H18S10788   6.054   3.843   5.268 -0.0886 -2.0788 -4.3091
  106OSM   H18T10789   6.224   3.872   5.241 -0.7272 -2.0619 -4.1541
  106OSM   H18U10790   6.101   3.956   5.144 -0.0092 -0.0577  1.0133
  106OSM    C1F10791   6.634   4.349   6.984 -0.0237 -0.2157 -0.5555
  106OSM     OF10792   6.654   4.266   7.072  0.4302 -0.4407 -0.2077
  106OSM    C2F10793   6.743   4.409   6.894  0.0118  0.4006  0.6408
  106OSM    H2F10794   6.829   4.457   6.945  0.1280 -0.2457  1.0628
  106OSM    H2G10795   6.693   4.487   6.833 -1.3697 -0.8999  0.0522
  106OSM    C3F10796   6.812   4.307   6.790  0.4476 -0.3822  0.2619
  106OSM    H3F10797   6.873   4.236   6.849 -1.5541 -0.1668  2.7896
  106OSM    H3G10798   6.880   4.374   6.732  2.9436 -3.2364 -0.3648
  106OSM    C4F10799   6.721   4.229   6.691  0.3144  0.5372 -1.1087
  106OSM    H4F10800   6.663   4.150   6.742 -1.1184  0.9452 -2.0414
  106OSM    H4G10801   6.779   4.167   6.619 -0.0347 -2.4256  0.9887
  106OSM    C5F10802   6.614   4.313   6.615  0.3946  0.2651  0.8076
  106OSM    H5F10803   6.660   4.388   6.548  0.5147 -0.5415 -0.0273
  106OSM    H5G10804   6.554   4.372   6.687  0.1244  1.4365 -0.3412
  106OSM    C6F10805   6.531   4.236   6.507  0.1768 -0.2482 -0.4051
  106OSM    H6F10806   6.477   4.307   6.441 -2.1082 -1.3163  0.2117
  106OSM    H6G10807   6.446   4.188   6.559  0.0827 -0.7438 -1.0027
  106OSM    C7F10808   6.610   4.138   6.424  0.1735 -0.3525 -0.1726
  106OSM    H7F10809   6.661   4.067   6.493  1.4928  1.1781  0.4818
  106OSM    H7G10810   6.688   4.192   6.366 -1.2044  1.2995 -0.5523
  106OSM    C8F10811   6.511   4.075   6.324  0.1065 -0.4874  0.1253
  106OSM    H8F10812   6.476   4.164   6.268  1.6956  0.0788 -0.0080
  106OSM    H8G10813   6.429   4.027   6.382  1.7159 -0.3948  2.6398
  106OSM    C9F10814   6.588   3.976   6.238  0.2984  0.1170  0.0619
  106OSM    H9F10815   6.636   3.893   6.292  2.2614  0.6360 -0.8065
  106OSM   C10F10816   6.619   3.977   6.109 -0.2922 -0.7556  0.4637
  106OSM   H10F10817   6.678   3.897   6.062  0.8274  1.4469 -2.0893
  106OSM   C11F10818   6.574   4.085   6.017  0.1022  0.5268  0.3735
  106OSM   H11F10819   6.656   4.155   5.988  0.6319 -0.5450 -0.7875
  106OSM   H11G10820   6.495   4.145   6.067 -1.2358 -0.8112 -0.0507
  106OSM   C12F10821   6.514   4.038   5.881  0.0746  0.0904  0.3867
  106OSM   H12F10822   6.471   4.127   5.830  1.6753  0.9164  0.3993
  106OSM   H12G10823   6.429   3.970   5.899  0.3366 -0.6579 -1.0474
  106OSM   C13F10824   6.620   3.965   5.796 -0.3325 -0.6252  0.1002
  106OSM   H13F10825   6.605   3.855   5.794  1.4156 -0.9518  1.8704
  106OSM   H13G10826   6.724   3.973   5.834  0.2285 -2.5458 -0.9013
  106OSM   C14F10827   6.632   4.009   5.646 -0.1608 -0.2697 -0.3207
  106OSM   H14F10828   6.711   3.943   5.604 -0.6186 -0.6242 -0.6383
  106OSM   H14G10829   6.660   4.114   5.625 -0.7195  0.0125  0.3049
  106OSM   C15F10830   6.502   3.976   5.570  0.2000  0.0222 -0.1983
  106OSM   H15F10831   6.429   4.054   5.601 -1.7056 -1.5576 -0.4914
  106OSM   H15G10832   6.463   3.886   5.623  0.2417  0.3460  0.3915
  106OSM   C16F10833   6.504   3.970   5.418 -0.1651  0.2486 -0.6664
  106OSM   H16F10834   6.402   3.961   5.376 -0.1981  0.9455 -0.7551
  106OSM   H16G10835   6.575   3.900   5.369  0.5298  0.3576  0.1574
  106OSM   C17F10836   6.550   4.098   5.359 -0.7761 -0.2021  0.5778
  106OSM   H17F10837   6.655   4.122   5.388 -0.8590  2.1103 -0.7741
  106OSM   H17G10838   6.493   4.182   5.403 -1.7888  0.5201 -1.9219
  106OSM   C18F10839   6.536   4.084   5.206 -0.1623 -0.3172 -0.5465
  106OSM   H18F10840   6.436   4.048   5.174 -0.5474 -0.3860  0.6957
  106OSM   H18G10841   6.610   4.016   5.159 -0.9491 -1.9668  0.5370
  106OSM   H18H10842   6.553   4.183   5.158  0.0290  0.2794  0.6924
  107OSM      N10843   4.416   5.333   6.956 -0.3428  0.4203  0.1990
  107OSM    C1510844   4.322   5.341   7.078  0.7159 -0.4526  0.3313
  107OSM   H15A10845   4.358   5.412   7.151 -1.2373  0.3539  0.5776
  107OSM   H15B10846   4.311   5.239   7.111 -0.0368  0.1951  2.1902
  107OSM   H15C10847   4.225   5.370   7.042  1.2943 -0.7712 -1.6484
  107OSM    C1410848   4.362   5.223   6.876 -0.1202 -0.3093  0.4307
  107OSM   H14A10849   4.346   5.128   6.925  0.3812 -0.2458  0.7319
  107OSM   H14B10850   4.416   5.207   6.784  2.2683 -2.8283  2.1079
  107OSM   H14C10851   4.265   5.250   6.838  0.2539  0.4568 -0.0123
  107OSM    C1310852   4.401   5.461   6.874 -0.3822  0.0031 -0.6381
  107OSM   H13A10853   4.436   5.542   6.937 -1.7447 -2.0907  3.1146
  107OSM   H13B10854   4.295   5.475   6.859 -0.2216  1.7980 -0.3474
  107OSM   H13C10855   4.450   5.469   6.778  1.9670 -1.7644  0.3174
  107OSM    C1210856   4.550   5.305   7.005 -0.4464 -0.0255 -0.5090
  107OSM   H12A10857   4.545   5.224   7.077  0.2896 -0.7673 -1.2679
  107OSM   H12B10858   4.577   5.394   7.061 -1.5850  0.5900 -0.9103
  107OSM    C1110859   4.655   5.261   6.897  0.1768 -0.3850 -0.2353
  107OSM   H11A10860   4.753   5.277   6.946 -0.8054  0.9534  1.4309
  107OSM   H11B10861   4.657   5.334   6.814  1.8611  1.0824  1.0351
  107OSM      P10862   4.698   5.009   6.932  0.5379 -0.0964 -0.1484
  107OSM    O1310863   4.705   5.055   7.071 -0.0711 -0.3564  0.1722
  107OSM    O1410864   4.636   4.881   6.904 -0.3131  0.3218 -0.1939
  107OSM    O1110865   4.844   5.017   6.875 -0.5274 -0.8031  0.1835
  107OSM    O1210866   4.636   5.126   6.854  0.0411 -0.0360 -0.4043
  107OSM    C1S10867   4.848   4.973   6.737  0.1290  0.3454 -0.0901
  107OSM    H1S10868   4.805   5.039   6.659  0.0590 -0.7910 -1.0477
  107OSM    H1T10869   4.814   4.868   6.725 -0.1314  0.4272 -0.0586
  107OSM     NF10870   5.005   4.949   6.554 -0.0133 -0.1458 -0.1503
  107OSM    HNF10871   4.980   4.861   6.514 -0.5220 -0.6252  1.1702
  107OSM    C2S10872   4.998   4.948   6.701 -0.7923  0.0919  0.4535
  107OSM    H2S10873   5.062   5.033   6.733  0.6206 -0.2852 -1.1898
  107OSM    C3S10874   5.046   4.815   6.762  0.1383  0.3103  0.6646
  107OSM    H3S10875   4.978   4.732   6.731 -0.1025  1.4128 -2.0628
  107OSM     O310876   5.040   4.798   6.902  0.3150 -0.4443 -0.4083
  107OSM    HO310877   5.012   4.880   6.944 -1.6520 -0.4124 -1.6597
  107OSM    C4S10878   5.181   4.780   6.717 -0.4661 -0.0575  0.1210
  107OSM    H4S10879   5.172   4.722   6.624  0.3786  1.5014 -0.9761
  107OSM    C5S10880   5.303   4.814   6.762 -0.5666  0.2058 -0.1734
  107OSM    H5S10881   5.311   4.875   6.853  1.2369  0.3271 -0.3835
  107OSM    C6S10882   5.438   4.785   6.697  0.8909  0.6842 -0.6025
  107OSM    H6S10883   5.492   4.717   6.767  0.5532  1.5590  0.5499
  107OSM    H6T10884   5.495   4.880   6.696  2.2291 -0.0994 -0.9853
  107OSM    C7S10885   5.435   4.724   6.551 -0.2435 -0.7718  0.2094
  107OSM    H7S10886   5.359   4.644   6.566  2.0509 -2.9701  0.8178
  107OSM    H7T10887   5.538   4.684   6.535 -0.0993 -0.8326  1.2382
  107OSM    C8S10888   5.400   4.826   6.437 -0.4570  1.1885  0.4889
  107OSM    H8S10889   5.481   4.902   6.439 -0.0589  0.8333 -0.9176
  107OSM    H8T10890   5.306   4.881   6.458 -0.1915  1.0044  2.3311
  107OSM    C9S10891   5.406   4.758   6.304  0.6443  0.3167 -0.5727
  107OSM    H9S10892   5.313   4.697   6.306 -0.3776  1.8150 -0.2677
  107OSM    H9T10893   5.485   4.681   6.311  0.4145  0.0573 -0.8346
  107OSM   C10S10894   5.427   4.844   6.176  1.0405 -0.5013 -0.3434
  107OSM   H10S10895   5.510   4.918   6.180  0.4854  0.1087  0.3646
  107OSM   H10T10896   5.332   4.897   6.155  0.7982 -0.8533 -0.1472
  107OSM   C11S10897   5.439   4.750   6.052  0.3859 -0.9001  0.0028
  107OSM   H11S10898   5.352   4.682   6.044 -1.0776  0.7341  1.2806
  107OSM   H11T10899   5.534   4.694   6.068  0.7283 -0.4321 -0.3687
  107OSM   C12S10900   5.447   4.823   5.919 -0.2978  0.3342  0.4685
  107OSM   H12S10901   5.543   4.876   5.905 -0.3155 -0.1645 -2.0512
  107OSM   H12T10902   5.368   4.900   5.910 -1.9817 -1.4008 -0.4003
  107OSM   C13S10903   5.424   4.733   5.793 -0.7703  0.3185 -0.5987
  107OSM   H13S10904   5.351   4.652   5.816  2.4663 -2.6760 -0.1603
  107OSM   H13T10905   5.520   4.684   5.767 -0.2329  2.3670 -2.8748
  107OSM   C14S10906   5.398   4.826   5.670  0.1811 -0.7763  0.4501
  107OSM   H14S10907   5.458   4.919   5.680 -1.2916  0.1764  0.7687
  107OSM   H14T10908   5.291   4.856   5.675  0.0430 -0.7515 -1.7903
  107OSM   C15S10909   5.433   4.766   5.537  0.2503 -0.7683  0.5482
  107OSM   H15S10910   5.373   4.674   5.521 -0.2340 -0.6693  1.6783
  107OSM   H15T10911   5.539   4.745   5.512  0.4638 -1.0833  1.6624
  107OSM   C16S10912   5.390   4.857   5.420  0.0408 -0.3854  0.6387
  107OSM   H16S10913   5.457   4.942   5.442 -2.0198  0.9059  2.2875
  107OSM   H16T10914   5.282   4.878   5.434  0.1804 -0.1182  1.3592
  107OSM   C17S10915   5.412   4.787   5.283 -0.0959 -0.3958 -0.0417
  107OSM   H17S10916   5.373   4.685   5.299 -1.0942  0.4697  4.3489
  107OSM   H17T10917   5.523   4.789   5.273  0.0790  2.4821  1.2675
  107OSM   C18S10918   5.350   4.866   5.157  0.2650 -0.1282 -0.1752
  107OSM   H18S10919   5.381   4.971   5.137 -1.2188  0.4829  0.6017
  107OSM   H18T10920   5.239   4.867   5.158  0.2148  0.0417  2.9373
  107OSM   H18U10921   5.369   4.800   5.070 -0.4508  1.3571 -1.5258
  107OSM    C1F10922   5.023   5.057   6.476 -0.0185 -0.4208  0.4239
  107OSM     OF10923   5.035   5.168   6.521 -0.2781  0.1974  0.0192
  107OSM    C2F10924   5.041   5.023   6.332  0.3219  0.2257  0.2753
  107OSM    H2F10925   4.949   4.974   6.294  0.8079  0.5365 -1.3588
  107OSM    H2G10926   5.129   4.958   6.311 -1.1669 -1.6915 -0.3973
  107OSM    C3F10927   5.049   5.152   6.235 -0.3875 -0.3524  0.0847
  107OSM    H3F10928   5.138   5.210   6.268  0.2115 -0.7238 -0.8509
  107OSM    H3G10929   4.955   5.209   6.246  0.2302  0.4777  1.4404
  107OSM    C4F10930   5.077   5.112   6.088 -0.1939  0.3365  0.5211
  107OSM    H4F10931   5.003   5.035   6.055 -0.2828 -0.3244  2.1644
  107OSM    H4G10932   5.176   5.062   6.079 -1.1307 -1.3862 -1.0760
  107OSM    C5F10933   5.071   5.234   5.996 -0.2016  0.2147 -0.1259
  107OSM    H5F10934   5.145   5.306   6.038 -0.8078  2.1621 -2.1859
  107OSM    H5G10935   4.972   5.282   6.014 -0.5094  0.2585 -1.7321
  107OSM    C6F10936   5.095   5.205   5.842  0.1291  0.2401 -0.4526
  107OSM    H6F10937   5.189   5.148   5.825 -0.7583 -1.8679  1.1797
  107OSM    H6G10938   5.110   5.297   5.782  0.4311 -0.6179 -1.7315
  107OSM    C7F10939   4.985   5.122   5.781  0.1141  0.4608 -0.7451
  107OSM    H7F10940   4.883   5.163   5.798 -0.3650 -0.9904 -0.0062
  107OSM    H7G10941   4.969   5.022   5.827  2.7763 -0.0382 -0.7868
  107OSM    C8F10942   5.009   5.093   5.635  0.5346 -0.1508  0.8930
  107OSM    H8F10943   4.927   5.018   5.621  1.5973 -1.1403 -0.2382
  107OSM    H8G10944   5.110   5.048   5.622  0.6287  0.5628 -1.1541
  107OSM    C9F10945   4.989   5.218   5.550  0.6914  0.4409 -0.4150
  107OSM    H9F10946   5.063   5.296   5.573 -0.7486  1.5437  0.6221
  107OSM   C10F10947   4.888   5.237   5.467 -0.1029 -0.1419 -0.1946
  107OSM   H10F10948   4.878   5.328   5.404  0.4580  0.5427  0.6863
  107OSM   C11F10949   4.793   5.127   5.424 -0.1429  0.0061  0.1018
  107OSM   H11F10950   4.713   5.133   5.500  0.6822  3.8753  0.8990
  107OSM   H11G10951   4.843   5.028   5.430 -1.1703 -0.4994  0.5045
  107OSM   C12F10952   4.753   5.153   5.282  0.5088  0.1773  0.2671
  107OSM   H12F10953   4.737   5.258   5.249  0.3389 -0.5160 -2.0288
  107OSM   H12G10954   4.652   5.107   5.282  0.4095  0.3263  2.1622
  107OSM   C13F10955   4.846   5.091   5.182 -0.5004  0.0195  0.0449
  107OSM   H13F10956   4.863   4.983   5.205  4.2568  0.2140 -1.5844
  107OSM   H13G10957   4.950   5.129   5.188  0.6522 -2.8854 -0.0029
  107OSM   C14F10958   4.794   5.110   5.040  0.5697  0.6985  0.0581
  107OSM   H14F10959   4.871   5.168   4.986 -0.3511  2.2032  0.3042
  107OSM   H14G10960   4.698   5.166   5.035  0.8791  1.1044 -1.9011
  107OSM   C15F10961   4.793   4.978   4.956 -0.6422  0.3812  0.0923
  107OSM   H15F10962   4.778   4.898   5.031  1.0509  2.4824  2.8862
  107OSM   H15G10963   4.891   4.961   4.907  0.4868  2.0922  1.6026
  107OSM   C16F10964   4.682   4.989   4.850 -0.0682 -0.0543 -0.6239
  107OSM   H16F10965   4.589   5.027   4.897  0.6379  0.9061  0.0280
  107OSM   H16G10966   4.663   4.883   4.823  2.2139 -1.0766  1.3042
  107OSM   C17F10967   4.721   5.063   4.724  0.3454 -0.4989 -0.1902
  107OSM   H17F10968   4.752   5.165   4.756  1.4995 -0.6992 -0.6301
  107OSM   H17G10969   4.637   5.077   4.654 -0.3822  0.7547  0.8751
  107OSM   C18F10970   4.841   5.010   4.650  0.3798  0.1429 -0.1138
  107OSM   H18F10971   4.831   4.901   4.671 -1.2700  0.7003  2.5157
  107OSM   H18G10972   4.937   5.037   4.700  2.0116 -3.0207 -1.2456
  107OSM   H18H10973   4.849   5.033   4.542  1.0231  1.6058  0.2268
  108OSM      N10974   0.825   5.286   7.572  0.3145 -0.8231  0.1460
  108OSM    C1510975   0.772   5.423   7.531 -0.3907  0.6778  0.1243
  108OSM   H15A10976   0.844   5.499   7.503 -2.1027  1.5540 -2.1724
  108OSM   H15B10977   0.711   5.462   7.611 -0.9997 -0.9225  0.4787
  108OSM   H15C10978   0.710   5.404   7.445  3.6229 -0.7249 -2.7918
  108OSM    C1410979   0.917   5.309   7.687 -0.3546 -0.1014  0.2487
  108OSM   H14A10980   0.880   5.346   7.781 -1.7304  0.6011 -0.5327
  108OSM   H14B10981   0.989   5.385   7.657 -0.7285  0.1337 -0.0618
  108OSM   H14C10982   0.977   5.222   7.708 -0.0260  0.5664  2.3252
  108OSM    C1310983   0.711   5.198   7.620 -0.7884  0.2006 -0.9011
  108OSM   H13A10984   0.638   5.176   7.544 -0.3836  0.2047 -1.2918
  108OSM   H13B10985   0.664   5.231   7.712 -0.6415 -1.1562 -0.3105
  108OSM   H13C10986   0.756   5.103   7.641  1.0560  1.2683  0.2750
  108OSM    C1210987   0.896   5.211   7.455 -0.4119 -0.5929 -0.0539
  108OSM   H12A10988   0.936   5.123   7.503 -3.0463 -1.9927 -0.1974
  108OSM   H12B10989   0.976   5.276   7.424  0.1178 -0.2744  1.8241
  108OSM    C1110990   0.818   5.167   7.326  0.1717 -0.1398  0.4062
  108OSM   H11A10991   0.720   5.117   7.346 -0.3577  0.1841 -1.1959
  108OSM   H11B10992   0.874   5.090   7.268  2.7697  2.4265 -0.7233
  108OSM      P10993   0.854   5.346   7.137  0.2578  0.4832 -0.0082
  108OSM    O1310994   0.769   5.454   7.079 -0.0534  0.2616 -0.0500
  108OSM    O1410995   0.994   5.382   7.171 -0.2851 -0.4647 -0.5378
  108OSM    O1110996   0.849   5.235   7.026 -0.1461 -0.1788  0.1121
  108OSM    O1210997   0.774   5.285   7.253 -0.0675  0.4925  0.1269
  108OSM    C1S10998   0.729   5.165   6.982  0.0494 -0.6002  0.6061
  108OSM    H1S10999   0.636   5.224   6.995  0.4071  0.6856 -2.0006
  108OSM    H1T11000   0.720   5.071   7.041  0.0161 -0.4522  0.8362
  108OSM     NF11001   0.590   5.102   6.775 -0.2860  0.3314  0.0521
  108OSM    HNF11002   0.578   5.016   6.726  3.4137 -0.4801  0.2768
  108OSM    C2S11003   0.725   5.129   6.831 -1.0605 -0.2214 -0.1238
  108OSM    H2S11004   0.771   5.218   6.784 -0.1450 -1.1118 -0.9499
  108OSM    C3S11005   0.833   5.021   6.809  0.5267  0.0990 -1.1470
  108OSM    H3S11006   0.797   4.927   6.857  0.2622  1.1277  0.7541
  108OSM     O311007   0.951   5.054   6.878 -0.5145  0.3531  0.2745
  108OSM    HO311008   0.925   5.108   6.953 -0.0937  0.4310  0.3686
  108OSM    C4S11009   0.860   4.997   6.664 -0.0917  0.1245 -0.6345
  108OSM    H4S11010   0.819   4.902   6.627 -1.3738 -0.0190  1.0531
  108OSM    C5S11011   0.938   5.068   6.585 -0.1799 -0.4083  0.2052
  108OSM    H5S11012   0.969   5.165   6.627 -1.7985 -0.8663  2.6818
  108OSM    C6S11013   0.977   5.058   6.435  0.0883  1.1878  0.1522
  108OSM    H6S11014   1.083   5.088   6.420  0.2082  0.4849 -0.4528
  108OSM    H6T11015   0.914   5.118   6.367 -2.1461 -2.5709 -1.3897
  108OSM    C7S11016   0.963   4.909   6.382 -0.0895 -0.2789 -0.2656
  108OSM    H7S11017   0.860   4.868   6.385 -0.1299 -0.5160 -2.6612
  108OSM    H7T11018   1.028   4.854   6.454 -0.1360  2.3171  1.9548
  108OSM    C8S11019   1.014   4.889   6.239  0.9367  0.1514 -0.5368
  108OSM    H8S11020   0.937   4.937   6.175  0.1687  0.9609  0.9283
  108OSM    H8T11021   1.010   4.783   6.207  3.1653 -0.1235 -0.1217
  108OSM    C9S11022   1.155   4.936   6.211 -0.6730 -0.3164  0.1872
  108OSM    H9S11023   1.215   4.900   6.297  1.4581  1.6247 -0.3684
  108OSM    H9T11024   1.165   5.047   6.214  0.9648 -0.4243 -0.3384
  108OSM   C10S11025   1.193   4.897   6.069  0.1042  0.1281  0.4751
  108OSM   H10S11026   1.183   4.788   6.047  2.0810 -0.2940  1.4324
  108OSM   H10T11027   1.294   4.927   6.036  0.0202 -1.7266 -1.7551
  108OSM   C11S11028   1.091   4.958   5.975  0.0383  0.1210  0.2518
  108OSM   H11S11029   1.082   5.064   6.006 -0.2319  0.3765 -0.6703
  108OSM   H11T11030   0.995   4.903   5.987  1.3479 -2.4953 -0.5144
  108OSM   C12S11031   1.119   4.946   5.823 -0.0240 -0.1155  0.0384
  108OSM   H12S11032   1.150   4.841   5.803 -1.6285 -0.8264  1.0892
  108OSM   H12T11033   1.200   5.019   5.801 -0.8545  1.1579  1.0616
  108OSM   C13S11034   0.998   4.994   5.738 -0.1799 -0.2632 -0.2637
  108OSM   H13S11035   0.959   5.090   5.779  1.0444 -0.3987  1.2836
  108OSM   H13T11036   0.920   4.918   5.759 -1.5630  1.5464  1.6930
  108OSM   C14S11037   1.024   5.005   5.590 -0.2241 -0.3625  0.3968
  108OSM   H14S11038   1.095   4.925   5.560  2.1755  1.6499  0.3967
  108OSM   H14T11039   1.069   5.106   5.580  3.0425 -1.6164  1.2523
  108OSM   C15S11040   0.887   5.011   5.517 -0.7198 -0.4446  0.7867
  108OSM   H15S11041   0.826   5.084   5.574 -0.8175 -0.0576  0.1943
  108OSM   H15T11042   0.839   4.910   5.512 -3.0144  0.6412 -2.4626
  108OSM   C16S11043   0.905   5.058   5.366  0.1485  0.5845 -0.4536
  108OSM   H16S11044   0.987   4.994   5.328  0.3714 -0.7506  2.0500
  108OSM   H16T11045   0.940   5.164   5.370 -1.4633  1.1005  1.1804
  108OSM   C17S11046   0.777   5.045   5.285  0.2093 -0.3946 -0.6452
  108OSM   H17S11047   0.710   5.126   5.323  1.1828 -0.4164  1.2168
  108OSM   H17T11048   0.740   4.942   5.301 -0.9602  0.2626  1.2787
  108OSM   C18S11049   0.795   5.065   5.139  0.4779  0.0994 -0.1955
  108OSM   H18S11050   0.810   5.171   5.108 -1.1201  0.9988  1.8918
  108OSM   H18T11051   0.701   5.036   5.087  0.7475  0.0658 -0.6755
  108OSM   H18U11052   0.876   5.002   5.097 -1.4740 -1.3504 -2.0121
  108OSM    C1F11053   0.494   5.195   6.762  0.5156  0.3386  0.0234
  108OSM     OF11054   0.508   5.313   6.794  0.2889 -0.1547 -0.8010
  108OSM    C2F11055   0.361   5.140   6.712  0.1699 -0.0002 -0.0140
  108OSM    H2F11056   0.296   5.117   6.799  0.3538  0.5653  0.2800
  108OSM    H2G11057   0.382   5.043   6.662 -1.0268 -1.2383  1.7645
  108OSM    C3F11058   0.309   5.230   6.612 -0.2771 -0.1511  0.3456
  108OSM    H3F11059   0.259   5.323   6.647  2.2556  1.5829 -0.3524
  108OSM    H3G11060   0.236   5.173   6.551 -0.3567 -0.6120  0.8655
  108OSM    C4F11061   0.414   5.283   6.509  0.0322  0.3012  0.2440
  108OSM    H4F11062   0.476   5.199   6.471 -0.5116  0.5324 -1.2292
  108OSM    H4G11063   0.484   5.358   6.550  0.8309 -0.0374 -0.4898
  108OSM    C5F11064   0.343   5.356   6.389 -0.4154  0.3693 -0.5767
  108OSM    H5F11065   0.373   5.463   6.385 -0.7122  0.4579 -0.4268
  108OSM    H5G11066   0.233   5.349   6.402 -0.3094  1.8406  1.8105
  108OSM    C6F11067   0.395   5.296   6.253  1.2783  0.3799 -0.5626
  108OSM    H6F11068   0.346   5.196   6.246 -1.2267  1.4589  0.3475
  108OSM    H6G11069   0.506   5.294   6.259  1.2333  0.4449  0.5546
  108OSM    C7F11070   0.359   5.377   6.132 -0.4101 -0.1052 -0.0350
  108OSM    H7F11071   0.425   5.466   6.138 -0.0407 -0.3849  0.1109
  108OSM    H7G11072   0.252   5.404   6.123  0.4099  2.8806 -2.4703
  108OSM    C8F11073   0.391   5.302   5.995 -0.3533 -0.1486  0.0726
  108OSM    H8F11074   0.487   5.253   6.021 -0.5064  1.1054  3.4507
  108OSM    H8G11075   0.411   5.372   5.911 -2.1808 -1.7136 -1.7695
  108OSM    C9F11076   0.287   5.202   5.947 -0.2168 -0.0320 -0.5544
  108OSM    H9F11077   0.250   5.133   6.025  0.9081  0.6448  0.6024
  108OSM   C10F11078   0.234   5.198   5.825  0.1002 -0.3287  0.5259
  108OSM   H10F11079   0.166   5.112   5.813  0.7211 -1.0590  2.0141
  108OSM   C11F11080   0.257   5.295   5.712 -0.6000 -0.3267  0.1377
  108OSM   H11F11081   0.364   5.323   5.700 -1.2773  1.9988 -1.1082
  108OSM   H11G11082   0.197   5.387   5.725  2.0552  1.8054 -1.5330
  108OSM   C12F11083   0.215   5.221   5.584  0.1992 -0.6182 -0.4049
  108OSM   H12F11084   0.113   5.177   5.587  0.5056 -1.3075  2.2077
  108OSM   H12G11085   0.291   5.143   5.561 -0.8393 -1.4700 -1.0245
  108OSM   C13F11086   0.214   5.317   5.471 -0.2673  0.6604 -0.4436
  108OSM   H13F11087   0.306   5.380   5.472  0.9369 -1.0134 -1.2766
  108OSM   H13G11088   0.121   5.378   5.462 -1.0603 -0.7137 -2.0177
  108OSM   C14F11089   0.228   5.244   5.334 -0.1782  0.1706  0.4125
  108OSM   H14F11090   0.130   5.199   5.309  0.4891 -0.1583 -1.8289
  108OSM   H14G11091   0.303   5.164   5.355  2.1207  1.6801 -1.5389
  108OSM   C15F11092   0.266   5.334   5.217  0.0573  0.4977 -0.2989
  108OSM   H15F11093   0.209   5.429   5.225  0.7153  0.7611  2.4404
  108OSM   H15G11094   0.238   5.284   5.122 -1.9791 -0.1449  0.5810
  108OSM   C16F11095   0.407   5.386   5.202 -0.7388  0.4992 -0.1053
  108OSM   H16F11096   0.468   5.296   5.182 -0.9888 -0.0618  1.5038
  108OSM   H16G11097   0.450   5.429   5.295 -1.2211 -0.0473  0.3751
  108OSM   C17F11098   0.436   5.472   5.078 -0.0258 -0.2870 -0.0651
  108OSM   H17F11099   0.378   5.566   5.077 -1.8599 -1.3572 -0.0841
  108OSM   H17G11100   0.376   5.411   5.006  1.7448 -1.9378 -0.2187
  108OSM   C18F11101   0.588   5.483   5.044 -0.4648  0.4372  0.2911
  108OSM   H18F11102   0.600   5.559   4.964 -1.4597 -0.6123 -0.9143
  108OSM   H18G11103   0.628   5.383   5.018 -1.9567 -0.3657  0.9293
  108OSM   H18H11104   0.637   5.513   5.139 -0.4230 -0.6210  0.6219
  109OSM      N11105   5.521   6.230   7.261  0.5553  0.3181  0.5321
  109OSM    C1511106   5.636   6.326   7.277 -0.2857 -0.1946  0.4832
  109OSM   H15A11107   5.696   6.305   7.364  1.8249  0.0630 -0.8360
  109OSM   H15B11108   5.597   6.427   7.281  0.7740  0.1982  1.1772
  109OSM   H15C11109   5.690   6.309   7.186 -2.2872 -1.3035 -0.5736
  109OSM    C1411110   5.434   6.220   7.388 -0.3601 -0.6149  0.4669
  109OSM   H14A11111   5.388   6.318   7.397  0.0668 -0.3860  0.1804
  109OSM   H14B11112   5.489   6.203   7.480 -2.7810 -0.5567  2.0435
  109OSM   H14C11113   5.361   6.143   7.373 -1.9082  0.6273  1.2535
  109OSM    C1311114   5.439   6.276   7.147  0.5705 -0.2930 -0.1172
  109OSM   H13A11115   5.425   6.382   7.158  0.0069 -0.3733 -0.0106
  109OSM   H13B11116   5.338   6.238   7.155 -1.0147  3.8115  2.0994
  109OSM   H13C11117   5.487   6.257   7.053  2.4531 -0.7007  0.8704
  109OSM    C1211118   5.575   6.087   7.240  0.3784  0.7635 -0.3069
  109OSM   H12A11119   5.625   6.052   7.329 -1.3029  2.2285  1.2990
  109OSM   H12B11120   5.645   6.091   7.158 -0.5393  1.6807 -1.0882
  109OSM    C1111121   5.460   5.984   7.210  0.4459 -0.0403  0.2799
  109OSM   H11A11122   5.524   5.894   7.195  1.0832  0.7733 -2.4038
  109OSM   H11B11123   5.408   6.013   7.116 -0.0672  2.1541  1.1765
  109OSM      P11124   5.230   5.889   7.295 -0.1702 -0.5682  0.3740
  109OSM    O1311125   5.204   5.801   7.406  0.3814 -0.6829  0.2384
  109OSM    O1411126   5.130   6.000   7.270 -0.2444  0.3069  0.3596
  109OSM    O1111127   5.252   5.810   7.162  0.9115  0.3662 -0.2686
  109OSM    O1211128   5.371   5.952   7.317  0.0633  0.0735 -0.1742
  109OSM    C1S11129   5.144   5.779   7.075  0.1032  0.6226  0.9660
  109OSM    H1S11130   5.048   5.831   7.095 -0.8249 -0.2832 -0.8772
  109OSM    H1T11131   5.108   5.673   7.073 -2.6395  1.4790  0.5206
  109OSM     NF11132   5.058   5.812   6.839  0.3685  0.1125 -0.4975
  109OSM    HNF11133   5.031   5.727   6.795 -2.2898  0.3787  0.4192
  109OSM    C2S11134   5.179   5.807   6.921 -0.2904 -0.2582  0.0195
  109OSM    H2S11135   5.226   5.908   6.920 -2.2512  0.7021 -0.8124
  109OSM    C3S11136   5.284   5.704   6.865 -0.1959  0.2353 -0.1683
  109OSM    H3S11137   5.240   5.604   6.882  0.4895  0.4213  3.6947
  109OSM     O311138   5.407   5.718   6.944 -0.1263  0.7498 -0.1110
  109OSM    HO311139   5.375   5.772   7.017  1.0297  0.5211  0.5929
  109OSM    C4S11140   5.326   5.736   6.729  0.5533  0.3251  0.3190
  109OSM    H4S11141   5.369   5.835   6.710 -0.2102  1.1243  2.5190
  109OSM    C5S11142   5.311   5.653   6.624  0.5823  0.8397  0.0677
  109OSM    H5S11143   5.264   5.554   6.630  1.6756  0.2981 -0.0857
  109OSM    C6S11144   5.345   5.692   6.481  0.3998 -0.5209 -0.0040
  109OSM    H6S11145   5.438   5.637   6.456  0.4150 -0.4185 -0.1701
  109OSM    H6T11146   5.373   5.799   6.474  0.2376 -0.3559  1.4262
  109OSM    C7S11147   5.233   5.643   6.396 -0.1816  0.0239  0.0335
  109OSM    H7S11148   5.144   5.707   6.413  0.3308  0.3203  1.8078
  109OSM    H7T11149   5.203   5.540   6.421  1.4165 -0.8807 -1.5242
  109OSM    C8S11150   5.276   5.650   6.252  0.1798  0.3877  0.1154
  109OSM    H8S11151   5.352   5.578   6.216 -1.0914 -1.3739  0.8421
  109OSM    H8T11152   5.315   5.751   6.227 -0.4643  0.5731 -0.1527
  109OSM    C9S11153   5.156   5.621   6.151 -0.4582  0.3825 -0.6907
  109OSM    H9S11154   5.092   5.709   6.170  1.8585  2.4465 -1.8180
  109OSM    H9T11155   5.118   5.518   6.166  1.6382 -0.3546 -0.1052
  109OSM   C10S11156   5.188   5.627   6.004 -0.0963  0.8967  0.2903
  109OSM   H10S11157   5.242   5.537   5.968 -0.6329  0.3338  0.8711
  109OSM   H10T11158   5.247   5.718   5.979  3.0863 -1.5029 -1.5342
  109OSM   C11S11159   5.064   5.627   5.915 -0.5240  0.5892  0.3698
  109OSM   H11S11160   5.003   5.713   5.950 -1.5771 -0.2529  0.6526
  109OSM   H11T11161   5.011   5.530   5.924  0.8352 -0.2823 -0.5027
  109OSM   C12S11162   5.097   5.662   5.765 -0.5144 -0.0121 -0.3065
  109OSM   H12S11163   5.133   5.564   5.727  0.7524  0.3982 -0.2097
  109OSM   H12T11164   5.181   5.734   5.758  0.2183 -0.8197  0.0276
  109OSM   C13S11165   4.982   5.710   5.673  0.3398 -0.5047  0.1483
  109OSM   H13S11166   4.968   5.820   5.670 -0.6989 -0.6260  0.0072
  109OSM   H13T11167   4.893   5.655   5.710 -0.2673 -0.1019 -0.6924
  109OSM   C14S11168   5.016   5.675   5.529 -0.2590 -0.2242 -0.5624
  109OSM   H14S11169   5.053   5.570   5.523 -0.6209 -0.4419  0.8076
  109OSM   H14T11170   5.094   5.747   5.495  0.3976 -0.7406 -0.1704
  109OSM   C15S11171   4.895   5.684   5.445 -0.3585 -0.2457 -0.7966
  109OSM   H15S11172   4.865   5.790   5.436 -1.2392  0.0375  3.3955
  109OSM   H15T11173   4.815   5.627   5.497  0.4974 -0.5890  0.1796
  109OSM   C16S11174   4.926   5.620   5.304 -0.8105  0.0478 -0.2988
  109OSM   H16S11175   4.941   5.512   5.324  0.8240  0.0255 -1.4797
  109OSM   H16T11176   5.024   5.640   5.257  0.6039 -4.9391 -0.0787
  109OSM   C17S11177   4.804   5.625   5.217  0.4896 -0.6071 -0.0677
  109OSM   H17S11178   4.775   5.731   5.195 -0.1655 -0.3698  1.8235
  109OSM   H17T11179   4.716   5.577   5.264 -0.4212  1.1669  0.1548
  109OSM   C18S11180   4.826   5.557   5.079  0.4374  0.2139 -0.1707
  109OSM   H18S11181   4.725   5.537   5.036  1.2545  1.1741 -2.7025
  109OSM   H18T11182   4.873   5.456   5.084  1.9677  0.9461  0.9425
  109OSM   H18U11183   4.876   5.627   5.010 -1.3876  0.0735 -1.7298
  109OSM    C1F11184   4.983   5.920   6.837 -0.6352 -0.1138  1.1517
  109OSM     OF11185   4.999   6.011   6.916 -0.2531  0.2680  0.6913
  109OSM    C2F11186   4.877   5.913   6.728  0.1675  0.4351  0.0320
  109OSM    H2F11187   4.783   5.936   6.781 -0.2263 -0.5111 -0.2327
  109OSM    H2G11188   4.870   5.811   6.684 -2.8831 -0.8600  3.0263
  109OSM    C3F11189   4.898   6.019   6.618  0.9183 -0.3580  0.1737
  109OSM    H3F11190   4.896   6.118   6.668 -0.1444 -0.3950  0.2156
  109OSM    H3G11191   4.809   6.016   6.552  0.2566  1.4660  0.9177
  109OSM    C4F11192   5.013   5.988   6.523 -0.7298 -0.5138 -0.8513
  109OSM    H4F11193   5.008   5.879   6.502  2.1848 -0.7758 -0.6100
  109OSM    H4G11194   5.104   5.997   6.586 -0.2052  0.6353 -1.7373
  109OSM    C5F11195   5.036   6.084   6.412 -0.4862  0.4486  0.0104
  109OSM    H5F11196   5.034   6.184   6.460  0.1901  0.5334 -0.1310
  109OSM    H5G11197   4.944   6.069   6.351  0.4073 -0.0106 -1.2558
  109OSM    C6F11198   5.152   6.058   6.318 -0.3345  0.2185  0.1550
  109OSM    H6F11199   5.119   5.968   6.263 -0.7344 -0.0924  0.8929
  109OSM    H6G11200   5.243   6.019   6.368 -1.7970 -0.2126  2.6668
  109OSM    C7F11201   5.176   6.168   6.218 -0.1024  0.2229  0.3479
  109OSM    H7F11202   5.200   6.260   6.275  0.9076 -1.5311  2.9291
  109OSM    H7G11203   5.082   6.183   6.161 -1.0691  0.9113  2.0692
  109OSM    C8F11204   5.294   6.144   6.121 -0.0304 -0.1626  0.2077
  109OSM    H8F11205   5.391   6.122   6.170  0.8451 -1.2294 -1.8888
  109OSM    H8G11206   5.299   6.242   6.069 -0.2051  0.2961  1.0420
  109OSM    C9F11207   5.273   6.024   6.035 -0.2522  0.4488 -0.8748
  109OSM    H9F11208   5.260   5.931   6.092 -3.1277  1.2434 -0.0646
  109OSM   C10F11209   5.272   6.023   5.897 -0.2031 -0.2501  0.4032
  109OSM   H10F11210   5.270   5.930   5.838  1.9888 -0.5285  0.6992
  109OSM   C11F11211   5.290   6.145   5.813  0.6245 -0.3648  0.0838
  109OSM   H11F11212   5.383   6.200   5.837 -0.5962  2.1627 -0.6229
  109OSM   H11G11213   5.218   6.224   5.843  1.0704  0.3285 -0.6338
  109OSM   C12F11214   5.291   6.126   5.667 -0.0956  0.7841  0.0186
  109OSM   H12F11215   5.345   6.034   5.635 -2.4120 -1.2102  1.4791
  109OSM   H12G11216   5.347   6.215   5.630 -0.6658  0.3789 -1.9306
  109OSM   C13F11217   5.148   6.119   5.598 -0.1822  0.5538  0.4315
  109OSM   H13F11218   5.086   6.208   5.621 -1.2513  0.1627 -0.8165
  109OSM   H13G11219   5.090   6.037   5.647 -0.9153  0.9455  0.2310
  109OSM   C14F11220   5.145   6.084   5.450  0.1936  0.5520 -0.9154
  109OSM   H14F11221   5.190   5.985   5.428 -0.8790 -0.3233  0.6431
  109OSM   H14G11222   5.216   6.157   5.405 -0.7698  1.3423 -1.1751
  109OSM   C15F11223   5.003   6.088   5.380 -0.4056  0.2009 -0.0695
  109OSM   H15F11224   4.944   6.171   5.424 -0.5278 -0.7880  1.7398
  109OSM   H15G11225   4.951   5.993   5.407  1.4895 -0.1153  2.8845
  109OSM   C16F11226   5.025   6.113   5.225  0.2644  0.0957 -0.2515
  109OSM   H16F11227   5.091   6.042   5.172  2.5001  1.3631  0.6858
  109OSM   H16G11228   5.065   6.217   5.222 -0.5733  0.5163  1.3879
  109OSM   C17F11229   4.886   6.112   5.151  0.2330  0.0763  0.6119
  109OSM   H17F11230   4.838   6.014   5.174  1.5865 -0.7576  0.0028
  109OSM   H17G11231   4.887   6.114   5.040 -4.1339 -2.8181  0.2836
  109OSM   C18F11232   4.781   6.214   5.200  0.3758 -0.5823 -1.8102
  109OSM   H18F11233   4.796   6.239   5.308 -3.4011 -1.9157 -0.8071
  109OSM   H18G11234   4.678   6.177   5.181 -0.0565 -1.0117  0.9410
  109OSM   H18H11235   4.797   6.298   5.130  2.3394  0.2085 -0.4885
  110OSM      N11236   0.997   1.142   7.245 -0.7308 -0.0160  0.7694
  110OSM    C1511237   0.936   1.091   7.117 -0.4086 -0.1343 -0.1864
  110OSM   H15A11238   0.869   1.009   7.138  2.2019 -1.8132  2.2931
  110OSM   H15B11239   1.012   1.049   7.053  0.2655 -1.6018  1.5014
  110OSM   H15C11240   0.876   1.165   7.064 -2.2791  0.1510  2.1624
  110OSM    C1411241   0.897   1.227   7.312  0.0871  0.3345 -0.6485
  110OSM   H14A11242   0.806   1.168   7.315 -0.0913  0.5155 -1.9630
  110OSM   H14B11243   0.874   1.317   7.257 -0.1804  1.1690  0.7897
  110OSM   H14C11244   0.924   1.259   7.411 -0.0549 -4.0185  1.0269
  110OSM    C1311245   1.050   1.029   7.333 -0.4307 -0.2591 -0.6913
  110OSM   H13A11246   0.969   0.965   7.364  0.0907  0.0884  1.6259
  110OSM   H13B11247   1.107   1.062   7.419  1.0755 -1.4285 -1.1859
  110OSM   H13C11248   1.117   0.967   7.275  0.6566 -1.3758  1.6197
  110OSM    C1211249   1.110   1.246   7.216 -0.1756  0.0592  0.3018
  110OSM   H12A11250   1.139   1.286   7.312 -0.3839 -0.0976  0.4311
  110OSM   H12B11251   1.076   1.326   7.153 -1.2303 -0.8513 -0.3248
  110OSM    C1111252   1.229   1.184   7.150  0.0494 -0.5032 -1.3011
  110OSM   H11A11253   1.213   1.083   7.107 -2.1002 -0.4597 -0.7367
  110OSM   H11B11254   1.289   1.160   7.240 -2.4755 -1.9806  0.1263
  110OSM      P11255   1.408   1.345   7.071 -0.2770 -0.2970 -0.0226
  110OSM    O1311256   1.394   1.412   7.202  0.1644 -0.5309  0.1282
  110OSM    O1411257   1.514   1.244   7.054 -0.6815 -0.4822  0.5444
  110OSM    O1111258   1.417   1.443   6.947 -0.0330  0.2437  0.3097
  110OSM    O1211259   1.269   1.283   7.050 -0.0351  0.1056  0.0640
  110OSM    C1S11260   1.465   1.399   6.817  0.1328  0.5856  0.2479
  110OSM    H1S11261   1.407   1.309   6.788  0.8014  0.8058 -1.9633
  110OSM    H1T11262   1.572   1.371   6.813 -0.2799 -0.9644 -0.7885
  110OSM     NF11263   1.497   1.484   6.583  0.3271  0.0027  0.6473
  110OSM    HNF11264   1.579   1.529   6.548 -0.0487  0.0500 -0.2186
  110OSM    C2S11265   1.440   1.514   6.709  0.6481 -0.1741 -0.4275
  110OSM    H2S11266   1.331   1.535   6.698  0.5415  0.2244  1.1735
  110OSM    C3S11267   1.497   1.643   6.769  0.1293 -0.3814 -0.0924
  110OSM    H3S11268   1.604   1.623   6.791  0.3601  1.6365  0.9260
  110OSM     O311269   1.437   1.690   6.891  0.6192 -0.2566  0.0342
  110OSM    HO311270   1.376   1.618   6.910  2.0339 -1.7456 -0.7858
  110OSM    C4S11271   1.486   1.771   6.687 -0.2226 -0.3496  0.7376
  110OSM    H4S11272   1.385   1.788   6.647 -0.7531 -2.5574  0.9984
  110OSM    C5S11273   1.591   1.849   6.654  0.1862  0.1082 -0.3588
  110OSM    H5S11274   1.686   1.816   6.699 -0.2914 -0.1327  0.4891
  110OSM    C6S11275   1.587   1.952   6.545  0.6704  0.3134  0.2005
  110OSM    H6S11276   1.660   2.034   6.559  1.9645 -0.7645 -0.0265
  110OSM    H6T11277   1.486   1.998   6.540  0.0346 -0.6757  2.5383
  110OSM    C7S11278   1.621   1.900   6.405  0.0674 -0.2201 -0.1029
  110OSM    H7S11279   1.551   1.818   6.375  0.7432 -0.0848 -2.1873
  110OSM    H7T11280   1.723   1.857   6.412 -0.3643 -1.2392  0.1988
  110OSM    C8S11281   1.607   2.009   6.297 -0.2897 -0.4890  0.7215
  110OSM    H8S11282   1.675   2.094   6.319 -1.6690  0.7802  0.2776
  110OSM    H8T11283   1.504   2.050   6.298 -1.0000 -2.1024 -0.9186
  110OSM    C9S11284   1.641   1.964   6.155 -0.0708  0.2608  0.6147
  110OSM    H9S11285   1.592   1.868   6.128  0.7425 -0.8690  2.8452
  110OSM    H9T11286   1.747   1.943   6.131  0.1341  0.7008  1.1050
  110OSM   C10S11287   1.590   2.071   6.048 -0.0756  0.5932  0.0256
  110OSM   H10S11288   1.668   2.149   6.038 -0.1808  0.6761 -0.1390
  110OSM   H10T11289   1.498   2.118   6.090 -1.0535  0.9302 -2.3410
  110OSM   C11S11290   1.548   2.009   5.917  0.1055  0.1857  0.1622
  110OSM   H11S11291   1.492   1.915   5.932 -0.2965  0.1518 -1.3697
  110OSM   H11T11292   1.638   1.977   5.861 -1.0930 -1.3050 -1.0028
  110OSM   C12S11293   1.476   2.104   5.820  0.1157  0.0010 -0.5212
  110OSM   H12S11294   1.545   2.189   5.798  0.2570  0.9116  2.8980
  110OSM   H12T11295   1.391   2.155   5.869  1.1513  0.1608  1.2055
  110OSM   C13S11296   1.426   2.037   5.691  0.2027 -0.8395 -0.0568
  110OSM   H13S11297   1.347   1.966   5.726 -0.9843  0.3568 -0.2415
  110OSM   H13T11298   1.502   1.968   5.649 -0.5142 -2.2756  0.8812
  110OSM   C14S11299   1.354   2.133   5.602 -0.3813  0.4075  0.1560
  110OSM   H14S11300   1.423   2.212   5.565  0.0978 -0.9350 -1.9982
  110OSM   H14T11301   1.263   2.182   5.643 -0.3046  0.4798  0.2407
  110OSM   C15S11302   1.303   2.061   5.480  0.1030  0.3613  0.3394
  110OSM   H15S11303   1.374   1.980   5.454 -1.6519 -1.1950  0.1644
  110OSM   H15T11304   1.291   2.129   5.393  2.2939  0.9007  0.3912
  110OSM   C16S11305   1.167   1.987   5.500 -0.1075  0.3047  0.0555
  110OSM   H16S11306   1.112   2.057   5.566  0.6367  0.2086  0.7876
  110OSM   H16T11307   1.159   1.885   5.544  0.8910 -0.5861 -1.7034
  110OSM   C17S11308   1.098   1.973   5.365 -0.2796  0.3627 -0.0014
  110OSM   H17S11309   1.105   2.071   5.315  0.3395 -1.1132 -3.0460
  110OSM   H17T11310   0.990   1.949   5.380 -0.8581  2.0429 -1.2659
  110OSM   C18S11311   1.151   1.859   5.265 -0.0358 -0.6065  0.3487
  110OSM   H18S11312   1.152   1.761   5.317 -4.0686 -0.6392  0.6636
  110OSM   H18T11313   1.256   1.881   5.237  0.0318 -1.0250  0.2765
  110OSM   H18U11314   1.089   1.870   5.174 -1.4609  2.8398  1.5422
  110OSM    C1F11315   1.427   1.402   6.503 -0.4073  0.1853 -0.0820
  110OSM     OF11316   1.334   1.333   6.537 -0.4383  0.0672  0.6659
  110OSM    C2F11317   1.464   1.403   6.360  0.2244  0.3678  0.4541
  110OSM    H2F11318   1.568   1.367   6.350  0.4671  1.3817 -1.1228
  110OSM    H2G11319   1.472   1.507   6.321  0.0356  0.1682 -0.1281
  110OSM    C3F11320   1.385   1.301   6.271 -0.4685 -0.1289 -0.5327
  110OSM    H3F11321   1.287   1.350   6.249 -0.2056  0.3057 -0.7550
  110OSM    H3G11322   1.374   1.211   6.335  3.5504 -0.3699  0.0865
  110OSM    C4F11323   1.452   1.260   6.136 -0.8678 -0.0550 -0.7414
  110OSM    H4F11324   1.381   1.214   6.065 -1.1670 -0.1611 -0.3746
  110OSM    H4G11325   1.532   1.183   6.146 -2.1411 -1.3394 -0.0614
  110OSM    C5F11326   1.497   1.382   6.049 -0.1058 -0.1051  0.3777
  110OSM    H5F11327   1.584   1.436   6.094 -0.3013  0.9711 -0.5154
  110OSM    H5G11328   1.420   1.461   6.055 -0.5709 -0.4275 -0.9898
  110OSM    C6F11329   1.517   1.356   5.898  0.0585  0.6819  0.4236
  110OSM    H6F11330   1.557   1.447   5.847  2.2577 -1.4410 -1.8920
  110OSM    H6G11331   1.418   1.336   5.851  0.1480 -0.5088  0.7223
  110OSM    C7F11332   1.616   1.243   5.864 -0.6096  0.0155 -0.1516
  110OSM    H7F11333   1.580   1.147   5.907  2.2804 -0.5392  1.2972
  110OSM    H7G11334   1.712   1.268   5.915 -0.6785  1.3648 -0.6401
  110OSM    C8F11335   1.636   1.230   5.715 -0.3816  0.1118 -0.2414
  110OSM    H8F11336   1.731   1.176   5.697 -0.3616  1.1950 -4.4088
  110OSM    H8G11337   1.670   1.328   5.675  5.2253 -1.8078 -1.0702
  110OSM    C9F11338   1.515   1.177   5.627 -0.6324 -0.0875 -0.2541
  110OSM    H9F11339   1.429   1.245   5.637 -1.0986 -0.8414  1.0577
  110OSM   C10F11340   1.522   1.074   5.535  1.2117 -0.5387  0.0754
  110OSM   H10F11341   1.430   1.045   5.482  1.9062 -1.4994 -0.6365
  110OSM   C11F11342   1.644   0.987   5.502 -0.5978  0.0930  0.2279
  110OSM   H11F11343   1.606   0.888   5.468 -0.6544  0.8656 -2.1125
  110OSM   H11G11344   1.715   0.969   5.586  1.2140 -1.3311 -1.5116
  110OSM   C12F11345   1.741   1.026   5.379 -0.5285  0.5381  0.0928
  110OSM   H12F11346   1.807   0.940   5.357 -0.0531  0.6268  1.1325
  110OSM   H12G11347   1.798   1.118   5.404 -2.3320  1.8115 -0.2933
  110OSM   C13F11348   1.655   1.040   5.248  0.3201  0.2358 -0.1368
  110OSM   H13F11349   1.585   1.126   5.260  0.9770  0.8353 -0.4975
  110OSM   H13G11350   1.594   0.949   5.231  0.2871  0.3674 -0.7550
  110OSM   C14F11351   1.732   1.043   5.115 -0.1486 -0.1014  0.2960
  110OSM   H14F11352   1.666   1.055   5.027 -0.0522  1.6857  0.4351
  110OSM   H14G11353   1.793   0.951   5.101 -0.9385 -0.8599  1.5871
  110OSM   C15F11354   1.828   1.167   5.108 -0.1583 -0.2417  0.5128
  110OSM   H15F11355   1.873   1.169   5.007 -0.0921 -0.0656  0.5442
  110OSM   H15G11356   1.905   1.149   5.186 -0.8439 -0.7222  1.0974
  110OSM   C16F11357   1.764   1.308   5.111 -0.3988 -0.4275  0.0245
  110OSM   H16F11358   1.831   1.394   5.131 -2.9695  1.2942  1.9913
  110OSM   H16G11359   1.697   1.304   5.200 -0.6285 -1.8204 -0.1938
  110OSM   C17F11360   1.696   1.328   4.972 -0.0826  0.7305 -0.0821
  110OSM   H17F11361   1.620   1.251   4.945 -0.3393  1.1064 -0.4342
  110OSM   H17G11362   1.778   1.319   4.898  1.4835 -1.0595  1.7328
  110OSM   C18F11363   1.638   1.462   4.953 -0.1908 -0.4023 -0.2315
  110OSM   H18F11364   1.718   1.538   4.967  0.2071 -1.0165  0.9296
  110OSM   H18G11365   1.563   1.483   5.032  0.1790  2.6635 -0.5754
  110OSM   H18H11366   1.594   1.465   4.851  1.3382  0.0992 -0.9045
  111OSM      N11367   3.945   2.355   7.267 -0.0550  0.1305 -0.4326
  111OSM    C1511368   3.827   2.357   7.356 -0.6839 -1.3331  0.3461
  111OSM   H15A11369   3.854   2.348   7.460  1.2161  2.5432  0.3690
  111OSM   H15B11370   3.755   2.284   7.322 -2.0001 -0.1562  0.5066
  111OSM   H15C11371   3.782   2.455   7.353  1.0810 -0.4809  0.0190
  111OSM    C1411372   4.037   2.461   7.300 -0.1955 -0.0029  0.3401
  111OSM   H14A11373   4.118   2.477   7.230  1.2548  0.9326  2.1048
  111OSM   H14B11374   4.082   2.440   7.397 -0.5288 -2.1724  0.0640
  111OSM   H14C11375   3.989   2.556   7.318 -1.2086 -0.8919  2.7818
  111OSM    C1311376   4.013   2.223   7.283  0.4994 -0.3277  0.2182
  111OSM   H13A11377   4.025   2.211   7.389  1.4272  3.3824  0.6685
  111OSM   H13B11378   4.113   2.221   7.243  0.7323 -1.6091  0.8187
  111OSM   H13C11379   3.960   2.138   7.243  1.0757 -0.7135  0.2556
  111OSM    C1211380   3.902   2.375   7.121 -0.3562  0.2264 -0.1486
  111OSM   H12A11381   3.842   2.295   7.079 -0.8478  1.6245 -2.2925
  111OSM   H12B11382   3.991   2.363   7.062  1.0899  2.0533  1.5223
  111OSM    C1111383   3.847   2.512   7.080 -1.2696  0.6808 -0.0019
  111OSM   H11A11384   3.833   2.507   6.970 -0.7459 -0.8698 -0.0219
  111OSM   H11B11385   3.923   2.592   7.092 -0.1840 -0.6300  2.9733
  111OSM      P11386   3.580   2.525   7.137  0.5126 -0.2403 -0.2391
  111OSM    O1311387   3.535   2.394   7.200 -0.1027 -0.2529  0.2989
  111OSM    O1411388   3.499   2.648   7.171  0.4578  0.9405  0.0341
  111OSM    O1111389   3.566   2.511   6.983 -0.6529  0.3148 -0.4180
  111OSM    O1211390   3.729   2.554   7.155  0.0941  0.2605  0.1066
  111OSM    C1S11391   3.514   2.616   6.901  0.0139 -0.2393  0.2451
  111OSM    H1S11392   3.577   2.705   6.920  0.7020 -0.4357 -0.9645
  111OSM    H1T11393   3.412   2.648   6.929  1.0683  1.7945  2.0085
  111OSM     NF11394   3.526   2.666   6.654 -0.2650  0.3494 -0.1098
  111OSM    HNF11395   3.451   2.664   6.589 -1.4978 -0.3566  1.2541
  111OSM    C2S11396   3.511   2.565   6.752 -0.0391 -0.0622 -0.2483
  111OSM    H2S11397   3.597   2.495   6.742 -1.1960 -1.3343 -1.7224
  111OSM    C3S11398   3.383   2.481   6.727  0.9180  0.3285  0.3493
  111OSM    H3S11399   3.299   2.551   6.711  0.6586 -0.3565 -1.6433
  111OSM     O311400   3.343   2.381   6.825 -0.4355  0.3946 -0.1272
  111OSM    HO311401   3.419   2.387   6.883  1.1279  0.7219 -2.1012
  111OSM    C4S11402   3.388   2.409   6.585 -0.2727 -0.3474 -0.1305
  111OSM    H4S11403   3.341   2.477   6.512 -1.3698  1.8874  2.4691
  111OSM    C5S11404   3.446   2.292   6.554  0.4788 -0.2955 -0.5081
  111OSM    H5S11405   3.498   2.240   6.636  1.9406  1.2820 -0.3753
  111OSM    C6S11406   3.451   2.225   6.422 -0.3346  0.3020 -0.1642
  111OSM    H6S11407   3.383   2.138   6.431 -1.0720  0.9172  0.4005
  111OSM    H6T11408   3.556   2.195   6.401  0.2898  1.7608  0.6729
  111OSM    C7S11409   3.391   2.311   6.311 -0.2840  0.5301 -0.1604
  111OSM    H7S11410   3.442   2.411   6.309 -1.6380  1.2358 -1.3866
  111OSM    H7T11411   3.285   2.331   6.336  0.1338  2.0743  0.5053
  111OSM    C8S11412   3.415   2.251   6.177  0.0615  0.4607 -0.0751
  111OSM    H8S11413   3.362   2.154   6.185 -0.3134  0.7598  1.2181
  111OSM    H8T11414   3.524   2.235   6.163  0.3571  3.2552 -1.9044
  111OSM    C9S11415   3.359   2.329   6.061 -0.4568 -0.0756  0.5842
  111OSM    H9S11416   3.404   2.429   6.043  0.8664 -0.8801 -0.8583
  111OSM    H9T11417   3.249   2.334   6.070 -0.6883 -1.9388 -0.5825
  111OSM   C10S11418   3.388   2.262   5.928 -0.4320 -0.6513  0.4278
  111OSM   H10S11419   3.335   2.167   5.904  0.6775 -1.7183  1.9723
  111OSM   H10T11420   3.496   2.236   5.933 -0.5820 -1.1743  1.3012
  111OSM   C11S11421   3.377   2.373   5.821 -0.3264  0.5219  0.1431
  111OSM   H11S11422   3.450   2.456   5.834  1.4158 -0.8385 -0.4219
  111OSM   H11T11423   3.275   2.415   5.829 -0.8499 -0.7291  0.3611
  111OSM   C12S11424   3.375   2.303   5.690  0.0152  0.4823 -0.2208
  111OSM   H12S11425   3.282   2.244   5.676  1.3068 -2.1716  1.4783
  111OSM   H12T11426   3.457   2.228   5.684  0.1314  0.6375 -0.5692
  111OSM   C13S11427   3.388   2.398   5.573 -0.9061  0.6730  0.4209
  111OSM   H13S11428   3.482   2.455   5.581  0.1576 -0.6725 -1.6161
  111OSM   H13T11429   3.310   2.477   5.574 -2.6893 -0.9846  0.9666
  111OSM   C14S11430   3.386   2.321   5.439  0.1820  0.0031 -0.2871
  111OSM   H14S11431   3.287   2.279   5.409 -0.2208 -1.2826  2.5387
  111OSM   H14T11432   3.450   2.234   5.463  1.1643  1.0343  0.9344
  111OSM   C15S11433   3.441   2.388   5.313 -0.1520 -0.1681 -0.4074
  111OSM   H15S11434   3.549   2.403   5.331 -0.5518  0.6629  1.7367
  111OSM   H15T11435   3.392   2.488   5.311 -2.0203 -1.0441 -0.9647
  111OSM   C16S11436   3.403   2.308   5.186  0.8378  0.5701 -0.8200
  111OSM   H16S11437   3.298   2.324   5.154  0.7283 -0.6958 -1.1243
  111OSM   H16T11438   3.410   2.200   5.209  1.6745  0.7942  0.0531
  111OSM   C17S11439   3.507   2.338   5.079  0.1667 -0.1719  0.2595
  111OSM   H17S11440   3.602   2.305   5.125 -0.9147 -0.4563  2.4217
  111OSM   H17T11441   3.516   2.445   5.049 -0.5198 -0.0832  0.3555
  111OSM   C18S11442   3.480   2.247   4.959  0.3661  0.4059  0.7787
  111OSM   H18S11443   3.377   2.266   4.922  1.1569  1.4736 -1.0065
  111OSM   H18T11444   3.498   2.139   4.981 -0.5604 -0.2813 -1.5436
  111OSM   H18U11445   3.548   2.271   4.875  0.2591 -2.4900 -0.2534
  111OSM    C1F11446   3.630   2.750   6.650  0.0533 -0.1113  0.1723
  111OSM     OF11447   3.720   2.744   6.731  0.4369  0.0504 -0.2108
  111OSM    C2F11448   3.623   2.845   6.540 -0.0784 -0.1892 -0.3046
  111OSM    H2F11449   3.533   2.911   6.541 -0.9836 -1.3863  1.2110
  111OSM    H2G11450   3.630   2.785   6.447  0.2990 -1.7790  0.7113
  111OSM    C3F11451   3.743   2.935   6.539 -0.1671  1.4564 -0.6274
  111OSM    H3F11452   3.832   2.875   6.567 -1.2226  0.6288  1.1365
  111OSM    H3G11453   3.739   3.014   6.617  0.9047  2.9075 -1.9991
  111OSM    C4F11454   3.755   3.005   6.399  0.4887  0.3362  0.1443
  111OSM    H4F11455   3.762   2.917   6.331  1.2106 -0.3206  1.0314
  111OSM    H4G11456   3.855   3.052   6.387  1.2171 -1.5535 -1.9164
  111OSM    C5F11457   3.644   3.100   6.383  0.4392 -0.2554  0.6769
  111OSM    H5F11458   3.655   3.172   6.466  2.1065  0.0552  0.2197
  111OSM    H5G11459   3.541   3.060   6.398 -0.0379  0.7980  0.2922
  111OSM    C6F11460   3.653   3.174   6.246 -0.0060 -0.2699 -0.0445
  111OSM    H6F11461   3.762   3.166   6.226  0.0328  0.8239 -0.3474
  111OSM    H6G11462   3.629   3.281   6.265  0.2268 -0.5150  1.8615
  111OSM    C7F11463   3.563   3.125   6.127 -0.0275  0.4780  0.3780
  111OSM    H7F11464   3.458   3.116   6.161  0.1703  1.0471  1.1780
  111OSM    H7G11465   3.596   3.022   6.101 -1.2848 -0.1678  1.2413
  111OSM    C8F11466   3.579   3.198   5.994 -0.0604  0.3047  0.4477
  111OSM    H8F11467   3.543   3.302   6.011  1.5431  0.8385  0.8107
  111OSM    H8G11468   3.512   3.152   5.918  1.1564  2.6859 -2.2665
  111OSM    C9F11469   3.717   3.203   5.930 -0.1638  0.4320 -0.6731
  111OSM    H9F11470   3.790   3.257   5.992  2.3266 -2.3093 -1.0529
  111OSM   C10F11471   3.760   3.168   5.809  0.5918  0.4087 -0.1769
  111OSM   H10F11472   3.869   3.165   5.795  0.6903  0.2220  0.5874
  111OSM   C11F11473   3.678   3.092   5.710  0.0016  0.4837 -0.1131
  111OSM   H11F11474   3.570   3.088   5.737 -0.1526  1.6325 -0.4956
  111OSM   H11G11475   3.715   2.988   5.720 -2.1284 -0.5975 -2.3301
  111OSM   C12F11476   3.703   3.147   5.571 -0.7058  0.2024 -0.2503
  111OSM   H12F11477   3.652   3.091   5.490  2.4678 -1.2955 -1.3703
  111OSM   H12G11478   3.812   3.144   5.552  0.0306  0.5210  3.2103
  111OSM   C13F11479   3.658   3.293   5.570  0.2622  0.3712  0.1263
  111OSM   H13F11480   3.728   3.355   5.630 -0.0088 -0.4782  1.3578
  111OSM   H13G11481   3.567   3.289   5.633  0.7253 -1.0466  0.7393
  111OSM   C14F11482   3.622   3.349   5.431 -0.3344  0.6639 -0.5503
  111OSM   H14F11483   3.706   3.347   5.358 -0.6292  2.3986 -0.9717
  111OSM   H14G11484   3.611   3.459   5.442  0.6997  0.6718  0.4875
  111OSM   C15F11485   3.494   3.292   5.386  0.2382  0.0451  0.4682
  111OSM   H15F11486   3.409   3.305   5.458  0.0261  0.3444  0.1679
  111OSM   H15G11487   3.504   3.185   5.357  0.9499  0.5691 -1.3676
  111OSM   C16F11488   3.445   3.366   5.259  0.4774  0.4315  0.5774
  111OSM   H16F11489   3.511   3.361   5.170  2.1488  5.1192  1.2926
  111OSM   H16G11490   3.437   3.471   5.293 -2.9163  0.4039  0.1799
  111OSM   C17F11491   3.306   3.323   5.218  0.2754 -0.5204 -1.0303
  111OSM   H17F11492   3.285   3.390   5.132 -1.2800 -0.1786 -0.4281
  111OSM   H17G11493   3.236   3.351   5.300  3.5433  3.4598  0.7591
  111OSM   C18F11494   3.288   3.180   5.192  0.2078  0.1000  0.1511
  111OSM   H18F11495   3.280   3.119   5.285 -1.0994 -0.6236 -0.3979
  111OSM   H18G11496   3.355   3.136   5.115 -0.8436  0.0824 -0.7865
  111OSM   H18H11497   3.185   3.174   5.149 -0.2396  2.3392  0.7591
  112OSM      N11498   5.425   5.476   7.382 -0.7211 -0.1780 -0.4239
  112OSM    C1511499   5.427   5.526   7.245 -0.3638  0.4607 -0.8696
  112OSM   H15A11500   5.432   5.634   7.240  1.3228  0.4406 -0.1127
  112OSM   H15B11501   5.336   5.494   7.195  0.8813 -0.4984 -2.6241
  112OSM   H15C11502   5.516   5.493   7.193  0.1131  0.4586 -0.0624
  112OSM    C1411503   5.431   5.326   7.387 -0.1262  0.8499 -0.2897
  112OSM   H14A11504   5.523   5.284   7.350 -0.5304  0.7852 -1.2470
  112OSM   H14B11505   5.358   5.286   7.318  1.4260 -1.3524 -0.7545
  112OSM   H14C11506   5.428   5.277   7.483  0.1790  0.6692 -0.3726
  112OSM    C1311507   5.547   5.534   7.453 -0.2006  0.8968  0.8617
  112OSM   H13A11508   5.544   5.512   7.559  0.7344 -0.3875  0.6513
  112OSM   H13B11509   5.554   5.641   7.449 -2.4733  1.0482 -0.1989
  112OSM   H13C11510   5.638   5.487   7.418 -1.3769 -0.4027 -0.5866
  112OSM    C1211511   5.302   5.510   7.455  0.2420  0.2914  0.0496
  112OSM   H12A11512   5.290   5.614   7.481 -1.0242 -0.0476  0.9214
  112OSM   H12B11513   5.303   5.463   7.553 -3.3439 -0.1656  0.0156
  112OSM    C1111514   5.156   5.469   7.398  0.1057 -0.1267 -0.7072
  112OSM   H11A11515   5.133   5.541   7.317  1.2668  2.7496  1.3062
  112OSM   H11B11516   5.081   5.484   7.478  0.3364  2.4593 -0.8992
  112OSM      P11517   5.048   5.288   7.239 -0.1597 -0.0023 -0.1070
  112OSM    O1311518   5.069   5.144   7.241  0.4559  0.1643  0.1074
  112OSM    O1411519   4.911   5.325   7.270 -0.2133  0.1868  0.8552
  112OSM    O1111520   5.104   5.354   7.105 -0.6338  0.1630 -0.2328
  112OSM    O1211521   5.146   5.340   7.350 -0.0487 -0.0804 -0.2208
  112OSM    C1S11522   5.029   5.339   6.987  0.6565  0.2423 -0.7402
  112OSM    H1S11523   4.951   5.417   6.976  0.8652  0.3373 -1.5867
  112OSM    H1T11524   4.976   5.241   6.980  1.1119  0.0165 -1.0855
  112OSM     NF11525   5.034   5.327   6.744  0.0449 -0.3294 -0.0911
  112OSM    HNF11526   5.019   5.242   6.694  2.0613 -0.2953 -0.8583
  112OSM    C2S11527   5.118   5.336   6.862 -0.1772 -0.7417  0.0406
  112OSM    H2S11528   5.168   5.435   6.853  0.3600 -1.1451 -2.1822
  112OSM    C3S11529   5.232   5.224   6.865 -0.5270 -0.2955 -0.1085
  112OSM    H3S11530   5.177   5.129   6.879 -1.3129  0.4455  2.1835
  112OSM     O311531   5.320   5.216   6.975 -0.3114 -0.0080 -0.1520
  112OSM    HO311532   5.269   5.267   7.038  0.8917 -0.1555  0.9723
  112OSM    C4S11533   5.312   5.225   6.732 -0.6573 -0.7207 -0.2782
  112OSM    H4S11534   5.285   5.146   6.661 -3.4817 -0.1093 -0.0232
  112OSM    C5S11535   5.420   5.302   6.694  0.1970  0.8997 -0.5941
  112OSM    H5S11536   5.454   5.384   6.758 -1.7214  0.8991  0.5126
  112OSM    C6S11537   5.489   5.277   6.560  0.1048 -0.0166 -0.3119
  112OSM    H6S11538   5.593   5.241   6.572  0.2193  0.6711  0.9175
  112OSM    H6T11539   5.494   5.379   6.518  0.7773  0.8335  1.6959
  112OSM    C7S11540   5.423   5.188   6.454 -0.7583 -0.5282  0.5589
  112OSM    H7S11541   5.317   5.221   6.445 -0.7448 -0.6378  0.0021
  112OSM    H7T11542   5.415   5.083   6.491 -3.0803 -0.8478 -0.6156
  112OSM    C8S11543   5.489   5.192   6.316  0.1036 -0.4941  0.1360
  112OSM    H8S11544   5.427   5.137   6.242  1.5375  0.4609 -1.8770
  112OSM    H8T11545   5.595   5.158   6.314  0.6429  1.0722 -2.0485
  112OSM    C9S11546   5.487   5.326   6.234 -0.5272 -0.5616 -0.2644
  112OSM    H9S11547   5.528   5.411   6.293 -3.7154  0.6132  0.4220
  112OSM    H9T11548   5.382   5.357   6.217 -0.1941 -0.6889 -2.9398
  112OSM   C10S11549   5.547   5.326   6.094 -0.2563  0.6409 -0.2268
  112OSM   H10S11550   5.658   5.316   6.100 -0.2683 -0.3201 -1.1944
  112OSM   H10T11551   5.520   5.419   6.040 -0.2665 -0.2517 -1.8445
  112OSM   C11S11552   5.496   5.215   5.994 -0.4296 -0.2725  0.0434
  112OSM   H11S11553   5.386   5.207   5.996 -0.4714 -1.0285 -2.0108
  112OSM   H11T11554   5.529   5.114   6.027 -1.2763 -0.5589  0.0225
  112OSM   C12S11555   5.525   5.245   5.848 -0.6591  0.1554  0.0037
  112OSM   H12S11556   5.495   5.156   5.789  0.1044 -0.4506  0.5001
  112OSM   H12T11557   5.635   5.259   5.840 -0.9583  1.6531 -3.2011
  112OSM   C13S11558   5.433   5.362   5.791 -0.2955 -0.3306  0.0910
  112OSM   H13S11559   5.437   5.453   5.854  1.9687  0.8402 -1.6268
  112OSM   H13T11560   5.324   5.344   5.804 -1.3039  4.3050 -0.3530
  112OSM   C14S11561   5.450   5.396   5.649 -0.5845 -0.7819  0.0327
  112OSM   H14S11562   5.559   5.410   5.633 -0.0048 -2.5885  2.0030
  112OSM   H14T11563   5.407   5.497   5.630  1.3159  0.0521 -0.0581
  112OSM   C15S11564   5.389   5.292   5.552  0.7672  0.3583  0.2232
  112OSM   H15S11565   5.288   5.270   5.594  1.1852 -1.9975  0.1204
  112OSM   H15T11566   5.453   5.202   5.560 -1.4033 -1.2155  0.7907
  112OSM   C16S11567   5.381   5.333   5.401  0.0414 -0.6626  0.3849
  112OSM   H16S11568   5.307   5.281   5.337 -2.0282  2.7178 -0.2046
  112OSM   H16T11569   5.482   5.315   5.357 -0.3428  0.3555 -0.9784
  112OSM   C17S11570   5.341   5.479   5.371 -0.0152  0.4503  0.4710
  112OSM   H17S11571   5.431   5.544   5.369  0.4805 -0.1954  1.2518
  112OSM   H17T11572   5.273   5.526   5.446 -1.6453  0.3366 -0.8669
  112OSM   C18S11573   5.272   5.496   5.224  0.1033 -0.0325  0.4342
  112OSM   H18S11574   5.241   5.599   5.198 -1.1944 -0.3260  0.7635
  112OSM   H18T11575   5.186   5.428   5.207  0.1465 -0.1499  0.6794
  112OSM   H18U11576   5.352   5.459   5.156  0.0332 -1.0170  0.8667
  112OSM    C1F11577   4.944   5.428   6.708  0.6832 -0.2813  0.2710
  112OSM     OF11578   4.959   5.534   6.766  0.5249  0.1807  0.0314
  112OSM    C2F11579   4.841   5.386   6.613  0.8474 -0.1907  0.0886
  112OSM    H2F11580   4.785   5.299   6.652  1.3424 -0.8146 -0.5721
  112OSM    H2G11581   4.888   5.361   6.515  0.1041  0.0164 -0.3320
  112OSM    C3F11582   4.730   5.496   6.579 -0.1126  0.8007  0.4579
  112OSM    H3F11583   4.671   5.537   6.664 -1.2297  0.1606  0.0148
  112OSM    H3G11584   4.665   5.443   6.506  1.4595  0.4000 -0.7096
  112OSM    C4F11585   4.781   5.611   6.488  0.9909  0.4900 -0.5643
  112OSM    H4F11586   4.858   5.664   6.549 -1.0934  0.9040  1.8801
  112OSM    H4G11587   4.700   5.684   6.468 -0.0229  0.1477  1.9135
  112OSM    C5F11588   4.856   5.581   6.360 -0.3885  0.2162 -0.4565
  112OSM    H5F11589   4.954   5.534   6.382  0.7826  0.8474 -3.7364
  112OSM    H5G11590   4.888   5.677   6.312 -0.7534 -0.8953 -3.0966
  112OSM    C6F11591   4.789   5.491   6.252  0.0870  0.1627 -0.5301
  112OSM    H6F11592   4.752   5.394   6.291 -2.3089  1.5728  0.9847
  112OSM    H6G11593   4.859   5.466   6.169  0.2649  1.4197 -0.7923
  112OSM    C7F11594   4.666   5.556   6.182  0.3327  0.2799  0.1414
  112OSM    H7F11595   4.708   5.651   6.142  0.5151  0.2338  0.2212
  112OSM    H7G11596   4.591   5.587   6.258 -0.1812  0.4580 -0.4274
  112OSM    C8F11597   4.604   5.465   6.072  0.1533  0.8904  0.2220
  112OSM    H8F11598   4.500   5.501   6.054 -0.2873  1.0711  2.6703
  112OSM    H8G11599   4.599   5.367   6.124  4.1040  1.3496  1.7941
  112OSM    C9F11600   4.700   5.440   5.955  0.1490  0.1288  0.4783
  112OSM    H9F11601   4.786   5.374   5.970 -0.9335 -1.6411 -0.7623
  112OSM   C10F11602   4.686   5.484   5.825 -0.3886 -0.3507 -0.2865
  112OSM   H10F11603   4.760   5.450   5.751 -2.0030 -0.8974 -1.6993
  112OSM   C11F11604   4.592   5.584   5.765  0.5231  0.0421 -0.3627
  112OSM   H11F11605   4.631   5.654   5.688  0.4354 -2.2178 -2.5928
  112OSM   H11G11606   4.541   5.640   5.847 -0.4402  2.7493 -2.6640
  112OSM   C12F11607   4.481   5.501   5.701  0.2152 -0.3794 -0.6642
  112OSM   H12F11608   4.409   5.575   5.660  0.8300  1.1371  0.8955
  112OSM   H12G11609   4.444   5.448   5.792  1.6296  2.8893  2.0202
  112OSM   C13F11610   4.527   5.422   5.579  0.0411 -0.0349 -0.2234
  112OSM   H13F11611   4.572   5.329   5.621  0.5725 -0.6324 -2.0348
  112OSM   H13G11612   4.603   5.474   5.517 -2.3410  1.0429 -2.4576
  112OSM   C14F11613   4.408   5.387   5.487 -0.1967  0.5720  0.5480
  112OSM   H14F11614   4.315   5.377   5.547  0.3134 -1.2340  1.0805
  112OSM   H14G11615   4.437   5.288   5.446 -3.4623  0.0349 -0.7373
  112OSM   C15F11616   4.403   5.477   5.365  0.0747 -0.2205  0.0187
  112OSM   H15F11617   4.507   5.472   5.327  1.2512 -2.2841  3.0836
  112OSM   H15G11618   4.390   5.583   5.395  0.4597  0.2838 -1.4779
  112OSM   C16F11619   4.303   5.418   5.269  0.4834  0.0692  0.8979
  112OSM   H16F11620   4.209   5.396   5.324 -0.4204  0.3571 -0.4766
  112OSM   H16G11621   4.337   5.322   5.227 -0.2889  1.0787 -2.3126
  112OSM   C17F11622   4.278   5.513   5.149 -0.0038 -0.3176  0.0620
  112OSM   H17F11623   4.229   5.603   5.193  0.5308  0.0391 -0.0673
  112OSM   H17G11624   4.204   5.454   5.089  0.0259  0.0095 -0.3046
  112OSM   C18F11625   4.394   5.542   5.072  0.0701 -0.0813  0.1683
  112OSM   H18F11626   4.450   5.454   5.034  0.3697  0.5253 -0.8533
  112OSM   H18G11627   4.471   5.590   5.136  0.4845 -1.0797  0.4231
  112OSM   H18H11628   4.378   5.599   4.978  0.1953 -2.8328 -1.6214
  113OSM      N11629   3.652   0.424   7.290 -0.2834 -0.2267  0.4391
  113OSM    C1511630   3.684   0.478   7.427  0.0366 -0.5760 -0.3162
  113OSM   H15A11631   3.782   0.441   7.453 -0.4411 -1.5562  0.1202
  113OSM   H15B11632   3.611   0.450   7.501  1.6925  0.9715  2.0537
  113OSM   H15C11633   3.696   0.585   7.438  0.4553 -0.7473  1.0969
  113OSM    C1411634   3.659   0.273   7.297  0.1965 -0.2833 -0.5760
  113OSM   H14A11635   3.589   0.226   7.364  0.7559 -1.5391 -0.8487
  113OSM   H14B11636   3.757   0.246   7.331  0.5434  0.6861 -0.7626
  113OSM   H14C11637   3.661   0.228   7.198 -0.4190  0.4838 -0.9527
  113OSM    C1311638   3.522   0.479   7.261  1.1513  0.4015 -0.7672
  113OSM   H13A11639   3.490   0.443   7.164 -1.4046 -0.6095  0.3490
  113OSM   H13B11640   3.529   0.587   7.249  3.0055  0.7489  2.4254
  113OSM   H13C11641   3.444   0.449   7.329  2.0601 -1.0185 -0.3292
  113OSM    C1211642   3.761   0.478   7.190  0.0186  0.1615 -0.1475
  113OSM   H12A11643   3.750   0.424   7.097  0.7820  0.0574 -0.1825
  113OSM   H12B11644   3.852   0.439   7.233 -0.2285  1.9727  2.2231
  113OSM    C1111645   3.782   0.632   7.173  0.1293 -0.3979  1.1840
  113OSM   H11A11646   3.870   0.649   7.107 -2.3076 -0.5355 -2.3874
  113OSM   H11B11647   3.803   0.685   7.268  1.9017  1.0453  0.0618
  113OSM      P11648   3.623   0.660   6.963 -0.0193  0.2129  0.2752
  113OSM    O1311649   3.510   0.568   6.962  0.3644 -0.1772 -0.0739
  113OSM    O1411650   3.617   0.783   6.882  0.6501  0.1796  0.0524
  113OSM    O1111651   3.750   0.585   6.907 -0.1552 -0.3171  0.1831
  113OSM    O1211652   3.669   0.697   7.108  0.0475  0.2422 -0.1362
  113OSM    C1S11653   3.739   0.513   6.781  0.5228 -0.5291 -0.0001
  113OSM    H1S11654   3.636   0.514   6.740  0.6152  1.6300 -0.2846
  113OSM    H1T11655   3.755   0.405   6.798  2.3646 -0.2461  0.2228
  113OSM     NF11656   3.813   0.507   6.546 -0.2835 -0.0251 -0.7486
  113OSM    HNF11657   3.862   0.423   6.524  0.0952 -0.4018  1.3316
  113OSM    C2S11658   3.846   0.557   6.676  0.5346 -0.5742  1.0083
  113OSM    H2S11659   3.839   0.667   6.663 -1.8736 -0.7643  0.0548
  113OSM    C3S11660   3.986   0.523   6.724  0.1163  0.2157  0.8149
  113OSM    H3S11661   3.989   0.412   6.726  1.1246  0.1858 -0.4997
  113OSM     O311662   4.007   0.567   6.854  0.0373  0.5694  0.5793
  113OSM    HO311663   3.923   0.606   6.880  0.5322  0.7255  2.0401
  113OSM    C4S11664   4.087   0.587   6.637  0.3287 -0.2604  0.1999
  113OSM    H4S11665   4.084   0.696   6.623  0.0329 -0.0844  1.5233
  113OSM    C5S11666   4.174   0.519   6.559  0.7176  0.7038  0.0797
  113OSM    H5S11667   4.182   0.409   6.565  1.0030  0.7835  2.3380
  113OSM    C6S11668   4.267   0.579   6.471 -0.5940 -0.6498  0.1038
  113OSM    H6S11669   4.370   0.564   6.509 -0.2176  1.0672 -0.1423
  113OSM    H6T11670   4.251   0.689   6.469  0.9763 -0.4111 -1.1526
  113OSM    C7S11671   4.271   0.530   6.329  0.3034  0.0750 -0.0599
  113OSM    H7S11672   4.290   0.421   6.341  1.5658  0.5183  3.5507
  113OSM    H7T11673   4.359   0.573   6.277  0.5628 -0.5789 -0.1803
  113OSM    C8S11674   4.134   0.569   6.260 -0.3479  0.2685  0.0275
  113OSM    H8S11675   4.119   0.679   6.264  0.4480  0.5669 -3.0667
  113OSM    H8T11676   4.050   0.517   6.311  0.4295 -2.3883 -1.1798
  113OSM    C9S11677   4.122   0.518   6.113  0.2298  0.1417  0.1097
  113OSM    H9S11678   4.014   0.523   6.087  0.4633 -1.9402 -1.4454
  113OSM    H9T11679   4.152   0.412   6.106  1.9835  0.6818 -1.3505
  113OSM   C10S11680   4.217   0.592   6.022 -0.0115 -0.0828 -0.1183
  113OSM   H10S11681   4.320   0.574   6.058 -0.8402 -3.1582  1.0473
  113OSM   H10T11682   4.191   0.700   6.028 -0.4497 -0.2247  0.7888
  113OSM   C11S11683   4.214   0.547   5.876  0.5104 -0.9066 -0.3052
  113OSM   H11S11684   4.262   0.447   5.867  1.1200 -1.1108  3.6311
  113OSM   H11T11685   4.264   0.626   5.816  1.2301  0.2136  1.6790
  113OSM   C12S11686   4.076   0.529   5.809  0.6274 -0.1746 -0.4256
  113OSM   H12S11687   4.022   0.626   5.814  1.3469  0.1683  1.7398
  113OSM   H12T11688   4.022   0.444   5.856  0.7799 -1.4337 -2.4117
  113OSM   C13S11689   4.083   0.506   5.656 -0.3713  0.0668  0.0159
  113OSM   H13S11690   3.988   0.458   5.625  0.4052 -0.6388 -1.3223
  113OSM   H13T11691   4.155   0.424   5.638  1.5542  2.1670 -2.6381
  113OSM   C14S11692   4.133   0.624   5.584 -0.2386 -0.7058  0.8415
  113OSM   H14S11693   4.234   0.656   5.618 -0.6435  1.4270  0.1552
  113OSM   H14T11694   4.061   0.703   5.616  0.9624  1.2155 -0.9525
  113OSM   C15S11695   4.124   0.598   5.431  0.1617 -0.3630  0.4897
  113OSM   H15S11696   4.020   0.612   5.394 -0.6819 -2.4995  1.8346
  113OSM   H15T11697   4.156   0.495   5.407  2.6741  0.9263 -2.1986
  113OSM   C16S11698   4.216   0.694   5.345 -0.2677 -0.9545 -0.5590
  113OSM   H16S11699   4.208   0.790   5.400 -2.4839 -0.4421 -1.6495
  113OSM   H16T11700   4.178   0.713   5.242  1.4924  1.2452 -0.8732
  113OSM   C17S11701   4.359   0.657   5.342 -0.1721 -0.5863  0.5593
  113OSM   H17S11702   4.393   0.682   5.445 -1.9538  1.2893  0.7564
  113OSM   H17T11703   4.409   0.729   5.275 -3.0010  0.5798 -0.4735
  113OSM   C18S11704   4.393   0.518   5.298 -0.5852  0.1327 -0.1848
  113OSM   H18S11705   4.371   0.507   5.190 -3.6112  0.7234  0.2724
  113OSM   H18T11706   4.344   0.443   5.364 -0.6951  1.3283  1.1590
  113OSM   H18U11707   4.501   0.504   5.318 -0.0010  2.3929 -1.4903
  113OSM    C1F11708   3.714   0.544   6.467  0.8404 -0.1924  0.0677
  113OSM     OF11709   3.609   0.593   6.503  0.5189 -0.4572 -0.0819
  113OSM    C2F11710   3.734   0.498   6.327  0.3219 -0.1594  1.3506
  113OSM    H2F11711   3.709   0.391   6.312  1.4026 -0.5171  1.9563
  113OSM    H2G11712   3.844   0.500   6.310 -0.0050  0.1751 -1.1137
  113OSM    C3F11713   3.665   0.584   6.216  0.2361 -0.3920  0.0830
  113OSM    H3F11714   3.683   0.693   6.228 -0.8805  0.0160 -1.6795
  113OSM    H3G11715   3.557   0.562   6.208  0.4634 -0.8589 -3.0499
  113OSM    C4F11716   3.721   0.538   6.083  0.0856  0.9302 -0.9432
  113OSM    H4F11717   3.768   0.438   6.088  0.4281  1.1301 -0.1051
  113OSM    H4G11718   3.801   0.601   6.040  0.9649  0.1150 -0.5339
  113OSM    C5F11719   3.627   0.521   5.963  0.3542 -0.2034 -0.0306
  113OSM    H5F11720   3.589   0.625   5.954 -0.3387 -0.5830 -2.1131
  113OSM    H5G11721   3.546   0.453   5.994  1.8300 -1.4078  1.3570
  113OSM    C6F11722   3.690   0.490   5.829 -0.5516  0.0256 -0.5882
  113OSM    H6F11723   3.729   0.386   5.833  0.1726  0.3282  1.3101
  113OSM    H6G11724   3.769   0.566   5.810 -1.3094  1.4037  1.3831
  113OSM    C7F11725   3.598   0.509   5.706 -0.2088  0.3800  0.5246
  113OSM    H7F11726   3.551   0.610   5.704 -1.7888 -0.3227 -1.2777
  113OSM    H7G11727   3.515   0.436   5.714 -1.1854  1.4257  0.2608
  113OSM    C8F11728   3.673   0.480   5.578  0.2442 -0.1504  0.3457
  113OSM    H8F11729   3.729   0.384   5.582  0.4480 -0.1478 -1.5133
  113OSM    H8G11730   3.749   0.560   5.565 -1.0109  0.6780 -2.6751
  113OSM    C9F11731   3.569   0.480   5.467 -0.4826  0.0178  0.2088
  113OSM    H9F11732   3.464   0.457   5.491 -1.1139  0.0479 -2.2754
  113OSM   C10F11733   3.599   0.500   5.342 -0.4182 -0.2579 -0.1973
  113OSM   H10F11734   3.520   0.513   5.267 -0.0079  1.3832 -0.3835
  113OSM   C11F11735   3.732   0.502   5.283  0.5278 -0.0735 -0.3805
  113OSM   H11F11736   3.812   0.470   5.353 -1.7064 -3.6846  0.7954
  113OSM   H11G11737   3.763   0.603   5.248  0.1815  0.1456 -0.0684
  113OSM   C12F11738   3.745   0.414   5.163 -0.0635 -0.0089 -0.3214
  113OSM   H12F11739   3.705   0.464   5.072 -1.4400 -1.9226 -0.8482
  113OSM   H12G11740   3.677   0.326   5.173 -1.4760  1.0676 -0.1029
  113OSM   C13F11741   3.885   0.364   5.140 -0.6089  0.2106  0.6994
  113OSM   H13F11742   3.921   0.289   5.214  0.5308  0.0497  0.0172
  113OSM   H13G11743   3.962   0.444   5.139 -1.3862  0.9801  1.6636
  113OSM   C14F11744   3.893   0.288   5.004 -0.0077  0.8173 -0.0463
  113OSM   H14F11745   3.837   0.338   4.922  0.0920  1.0776  0.0408
  113OSM   H14G11746   3.829   0.199   5.018 -0.8612  1.4818  0.3391
  113OSM   C15F11747   4.032   0.245   4.945  0.3514 -0.3021 -0.1684
  113OSM   H15F11748   4.036   0.157   4.877  2.5352 -0.0752 -0.4103
  113OSM   H15G11749   4.093   0.227   5.036 -0.5536  0.3919  0.5888
  113OSM   C16F11750   4.080   0.368   4.874 -0.5978 -0.5216  0.3840
  113OSM   H16F11751   4.058   0.450   4.945 -2.8573 -0.1021 -0.7176
  113OSM   H16G11752   4.026   0.399   4.782 -3.2070 -2.2214  1.2274
  113OSM   C17F11753   4.238   0.365   4.864  0.2639  0.1622 -0.0382
  113OSM   H17F11754   4.290   0.344   4.960  2.8421  0.5523 -1.2710
  113OSM   H17G11755   4.259   0.467   4.825 -0.3888  0.3496  0.0902
  113OSM   C18F11756   4.296   0.270   4.760 -0.2900 -0.6116  0.1559
  113OSM   H18F11757   4.257   0.286   4.657 -0.1767  2.5863  0.5304
  113OSM   H18G11758   4.272   0.163   4.781  0.5458 -0.4881  1.8847
  113OSM   H18H11759   4.407   0.273   4.753 -0.0832 -1.6383  2.1816
  114OSM      N11760   3.182   6.050   6.883  0.7795 -0.5100  0.2909
  114OSM    C1511761   3.053   6.103   6.843  0.5158 -0.0587 -0.2989
  114OSM   H15A11762   3.053   6.176   6.764 -0.5185 -1.3651 -1.5797
  114OSM   H15B11763   3.000   6.139   6.930  1.9009 -0.1502  0.6127
  114OSM   H15C11764   2.999   6.017   6.804  1.5339 -0.0551 -1.8046
  114OSM    C1411765   3.165   5.954   6.993  0.8360  0.2044  0.0441
  114OSM   H14A11766   3.256   5.939   7.050 -0.4951  1.4818  2.6897
  114OSM   H14B11767   3.115   5.860   6.976 -2.2522  1.5813  0.7551
  114OSM   H14C11768   3.100   5.999   7.067  0.4203 -1.9689  1.0617
  114OSM    C1311769   3.245   5.991   6.765  0.4508 -0.0062 -0.0250
  114OSM   H13A11770   3.267   6.060   6.685 -0.5549 -1.0142 -1.2130
  114OSM   H13B11771   3.192   5.909   6.719  1.4951 -0.7015 -0.0312
  114OSM   H13C11772   3.341   5.950   6.794  0.0109  0.0064  1.5106
  114OSM    C1211773   3.272   6.170   6.922 -0.3648  0.0054  0.2912
  114OSM   H12A11774   3.267   6.240   6.839 -2.8838  0.9821  1.1688
  114OSM   H12B11775   3.374   6.137   6.930 -0.4152 -0.0367  0.7474
  114OSM    C1111776   3.235   6.247   7.055  0.0331 -0.1507  0.3206
  114OSM   H11A11777   3.306   6.328   7.083 -0.0082  0.1247 -0.3690
  114OSM   H11B11778   3.237   6.175   7.141  0.1237 -2.7713 -1.7345
  114OSM      P11779   3.072   6.440   6.994  0.3708  0.4703 -0.0054
  114OSM    O1311780   2.924   6.450   6.980 -0.6557  0.1169 -0.2711
  114OSM    O1411781   3.149   6.542   7.068  0.1526  0.6932 -0.3533
  114OSM    O1111782   3.133   6.429   6.850  1.0583 -0.1873 -0.0761
  114OSM    O1211783   3.101   6.296   7.060 -0.1351 -0.4892  0.4768
  114OSM    C1S11784   3.199   6.537   6.786  0.2250  0.9068 -0.3614
  114OSM    H1S11785   3.300   6.556   6.828 -1.3372 -0.2589  4.5426
  114OSM    H1T11786   3.146   6.635   6.787 -0.4502  0.5393  0.9671
  114OSM     NF11787   3.316   6.575   6.573  0.1557 -0.8461 -0.2753
  114OSM    HNF11788   3.278   6.662   6.541 -1.1268 -0.9766  0.8253
  114OSM    C2S11789   3.218   6.493   6.635  0.0712 -0.2697  0.0289
  114OSM    H2S11790   3.275   6.398   6.641  1.3995  0.5855  2.4483
  114OSM    C3S11791   3.087   6.459   6.562  0.2184 -0.4074  0.3119
  114OSM    H3S11792   3.023   6.547   6.539 -0.7949 -1.2484 -0.1692
  114OSM     O311793   3.011   6.363   6.639  0.8951  0.1803 -0.5061
  114OSM    HO311794   3.045   6.368   6.728  2.0086 -1.0221 -0.8333
  114OSM    C4S11795   3.098   6.407   6.422  0.1863 -0.2302  0.1850
  114OSM    H4S11796   3.014   6.437   6.358 -0.1108 -1.5630 -0.0917
  114OSM    C5S11797   3.181   6.314   6.375 -0.1540  0.3461  0.2802
  114OSM    H5S11798   3.254   6.270   6.445 -0.0281  1.7752  1.0888
  114OSM    C6S11799   3.170   6.248   6.243  0.3148 -0.0286  0.3221
  114OSM    H6S11800   3.068   6.266   6.201 -0.3235 -0.3402  1.6857
  114OSM    H6T11801   3.170   6.139   6.260  0.0313  0.2438  2.2785
  114OSM    C7S11802   3.274   6.301   6.144  0.4103 -0.3310 -0.8370
  114OSM    H7S11803   3.219   6.277   6.050 -1.2847  2.3916 -0.6596
  114OSM    H7T11804   3.356   6.227   6.152 -0.9059 -1.9623 -1.8524
  114OSM    C8S11805   3.321   6.446   6.149 -0.1421 -0.2997 -0.4136
  114OSM    H8S11806   3.386   6.463   6.237 -1.1982 -0.2709  0.3865
  114OSM    H8T11807   3.232   6.510   6.166  0.6278  0.8697 -0.6861
  114OSM    C9S11808   3.392   6.492   6.021  0.2160  0.1819 -0.1376
  114OSM    H9S11809   3.478   6.432   5.984  0.0916  0.1522 -0.3780
  114OSM    H9T11810   3.434   6.594   6.042  0.4625  0.5024 -2.0290
  114OSM   C10S11811   3.284   6.504   5.912 -0.0064  0.2901  0.1765
  114OSM   H10S11812   3.185   6.539   5.950 -0.1938  0.6619 -0.6386
  114OSM   H10T11813   3.270   6.400   5.878  0.3271  0.3861 -0.2557
  114OSM   C11S11814   3.337   6.569   5.781  0.2556  0.5610 -0.3531
  114OSM   H11S11815   3.434   6.523   5.753 -0.9050 -1.6627 -1.0103
  114OSM   H11T11816   3.353   6.679   5.789  0.1428  0.7086 -1.8886
  114OSM   C12S11817   3.242   6.544   5.661 -0.2732 -0.5610 -0.1113
  114OSM   H12S11818   3.141   6.569   5.702 -0.0900 -1.3844  0.9082
  114OSM   H12T11819   3.256   6.442   5.618  1.2077 -0.9688  1.2043
  114OSM   C13S11820   3.278   6.645   5.551  0.5559  0.8968  0.7191
  114OSM   H13S11821   3.388   6.639   5.539  0.7227 -0.8665  2.5464
  114OSM   H13T11822   3.235   6.745   5.570 -1.7935 -0.1532  1.2898
  114OSM   C14S11823   3.227   6.586   5.419 -0.2421  0.6510 -0.0102
  114OSM   H14S11824   3.115   6.585   5.416 -0.2495  0.2162  0.2216
  114OSM   H14T11825   3.253   6.478   5.414 -1.3171  0.4146 -1.2177
  114OSM   C15S11826   3.286   6.668   5.306  0.1661  0.4733  0.2684
  114OSM   H15S11827   3.397   6.666   5.305  0.1672 -0.2901 -1.3862
  114OSM   H15T11828   3.261   6.776   5.310  1.8029  0.8342  3.2177
  114OSM   C16S11829   3.250   6.621   5.168 -0.4296 -0.4671 -0.4848
  114OSM   H16S11830   3.262   6.512   5.150  2.6980 -0.7974  2.4202
  114OSM   H16T11831   3.316   6.671   5.095 -1.1322  2.3985  0.7270
  114OSM   C17S11832   3.111   6.656   5.129 -0.0288 -0.3073 -0.1424
  114OSM   H17S11833   3.098   6.763   5.154 -0.1252  0.0213 -1.5236
  114OSM   H17T11834   3.045   6.603   5.201  0.4145  2.0239  2.1020
  114OSM   C18S11835   3.079   6.628   4.984  0.1501 -0.1749  0.3235
  114OSM   H18S11836   3.118   6.693   4.903 -0.2940  3.0666  2.5165
  114OSM   H18T11837   2.970   6.637   4.968  0.2125  0.3587  0.1644
  114OSM   H18U11838   3.115   6.525   4.964  0.3297 -0.0028 -0.2818
  114OSM    C1F11839   3.442   6.566   6.608 -0.3168  0.2169 -0.0290
  114OSM     OF11840   3.482   6.466   6.669 -0.2803 -0.7055 -0.2077
  114OSM    C2F11841   3.534   6.676   6.557 -0.1791 -0.1256  0.1626
  114OSM    H2F11842   3.564   6.729   6.650  3.5332 -3.0128  0.8707
  114OSM    H2G11843   3.478   6.749   6.495 -1.0755 -0.7305  0.2361
  114OSM    C3F11844   3.660   6.628   6.485 -0.5917  0.0086 -0.1567
  114OSM    H3F11845   3.731   6.569   6.548  0.0744 -0.4137 -1.2711
  114OSM    H3G11846   3.717   6.719   6.456 -3.2354  2.9773  3.1991
  114OSM    C4F11847   3.635   6.561   6.345  0.1581 -0.8196  0.1831
  114OSM    H4F11848   3.563   6.614   6.280  0.8347  0.1419  0.1944
  114OSM    H4G11849   3.597   6.458   6.363  0.3100 -1.1638 -1.3407
  114OSM    C5F11850   3.763   6.551   6.262  0.4339  0.1878  0.0221
  114OSM    H5F11851   3.812   6.463   6.307  0.5110  0.2135 -0.0115
  114OSM    H5G11852   3.823   6.641   6.287  0.0480  0.1719  1.0400
  114OSM    C6F11853   3.735   6.524   6.118 -0.3151  0.3545  0.5894
  114OSM    H6F11854   3.674   6.609   6.083 -1.9968 -1.2637 -0.5996
  114OSM    H6G11855   3.669   6.437   6.098  0.5273 -0.0414 -0.5863
  114OSM    C7F11856   3.866   6.522   6.037 -0.0227 -0.0577 -0.0238
  114OSM    H7F11857   3.914   6.425   6.061 -0.0021 -0.2649 -0.8467
  114OSM    H7G11858   3.934   6.601   6.074 -0.2149 -1.0195  2.5359
  114OSM    C8F11859   3.854   6.533   5.885 -0.6984 -0.2102 -0.3493
  114OSM    H8F11860   3.803   6.442   5.847  0.8002 -0.0969 -2.8090
  114OSM    H8G11861   3.961   6.520   5.857 -0.6576  1.0489 -0.8642
  114OSM    C9F11862   3.801   6.669   5.828  0.3891 -0.2826 -0.1234
  114OSM    H9F11863   3.818   6.758   5.891 -1.0996  0.1684 -0.3018
  114OSM   C10F11864   3.748   6.688   5.703  0.4738 -0.1936 -0.3240
  114OSM   H10F11865   3.729   6.789   5.666  1.1241  0.3831  0.8484
  114OSM   C11F11866   3.719   6.575   5.611 -0.6008  0.5561  0.1596
  114OSM   H11F11867   3.620   6.606   5.570 -0.5372  0.7576  0.1566
  114OSM   H11G11868   3.707   6.479   5.665 -0.0058  0.5851  0.3500
  114OSM   C12F11869   3.810   6.572   5.493  0.5348 -0.3147  0.4569
  114OSM   H12F11870   3.827   6.673   5.451 -0.7728 -0.7777 -1.2947
  114OSM   H12G11871   3.771   6.518   5.404  0.3472  0.4443  0.0709
  114OSM   C13F11872   3.945   6.503   5.528 -0.3821 -0.4421 -0.4790
  114OSM   H13F11873   3.924   6.403   5.572 -1.6755  0.3845  0.8610
  114OSM   H13G11874   3.992   6.562   5.609 -0.0610 -0.8608 -0.3515
  114OSM   C14F11875   4.053   6.494   5.421 -0.1860 -0.7565  0.3439
  114OSM   H14F11876   4.149   6.475   5.473  0.9579  1.1852 -0.9440
  114OSM   H14G11877   4.064   6.593   5.372 -0.0658 -0.3841  1.1104
  114OSM   C15F11878   4.038   6.388   5.312 -0.2533  0.6182  0.0485
  114OSM   H15F11879   3.946   6.416   5.256 -0.5404  0.4153  0.4213
  114OSM   H15G11880   4.023   6.285   5.349 -1.3433  0.2273 -1.3686
  114OSM   C16F11881   4.154   6.395   5.209 -0.1654 -0.1336  0.4303
  114OSM   H16F11882   4.239   6.333   5.246 -0.1741 -1.7385 -2.0115
  114OSM   H16G11883   4.181   6.503   5.214  0.0341 -0.2082  1.1732
  114OSM   C17F11884   4.119   6.356   5.065 -0.6869 -0.0333 -0.3077
  114OSM   H17F11885   4.210   6.368   5.003  0.4463 -0.5698  1.1782
  114OSM   H17G11886   4.052   6.431   5.018  0.9729  3.2096  2.0897
  114OSM   C18F11887   4.067   6.211   5.064 -0.0157 -0.1341 -0.2083
  114OSM   H18F11888   4.005   6.200   4.972  0.1470 -2.0117 -0.1337
  114OSM   H18G11889   4.006   6.191   5.155  1.2464  2.0662  1.2081
  114OSM   H18H11890   4.139   6.126   5.062 -2.0489 -2.0082  0.9801
  115OSM      N11891   0.011   1.276   7.087 -0.0880 -0.8673 -0.5801
  115OSM    C1511892   0.088   1.200   7.177 -0.2196  0.8100 -0.8488
  115OSM   H15A11893   0.029   1.148   7.251 -2.0419  1.0413 -2.0560
  115OSM   H15B11894   0.156   1.262   7.233  1.9705 -2.6813  0.7125
  115OSM   H15C11895   0.130   1.116   7.123 -0.4189  1.3454 -1.8514
  115OSM    C1411896  -0.053   1.392   7.153 -0.1505 -0.2387 -0.1153
  115OSM   H14A11897   0.017   1.449   7.213 -0.5106 -0.3292  0.3938
  115OSM   H14B11898  -0.128   1.352   7.219 -2.7742  1.8960 -1.6460
  115OSM   H14C11899  -0.119   1.444   7.086 -0.9405  0.3935  1.1259
  115OSM    C1311900   0.101   1.328   6.978 -0.0732 -0.3637  0.1668
  115OSM   H13A11901   0.147   1.253   6.916 -0.8865  0.7397 -1.8879
  115OSM   H13B11902   0.183   1.376   7.030  0.1014  0.0825 -0.5131
  115OSM   H13C11903   0.059   1.391   6.901  0.7575 -0.8745 -0.7267
  115OSM    C1211904  -0.094   1.186   7.027  0.4160 -0.6752  0.1646
  115OSM   H12A11905  -0.130   1.240   6.942 -2.4195 -0.6174  1.3019
  115OSM   H12B11906  -0.170   1.162   7.100  2.0988 -0.8658  1.9511
  115OSM    C1111907  -0.056   1.044   6.977  0.7447 -0.2905  0.2057
  115OSM   H11A11908  -0.150   1.004   6.933 -0.0701 -0.5371  2.0519
  115OSM   H11B11909  -0.027   0.980   7.063  0.7317 -4.2725 -2.5071
  115OSM      P11910   0.017   1.092   6.736  0.1756 -0.0660  0.1357
  115OSM    O1311911   0.126   1.177   6.687 -0.0971 -0.9174 -0.2384
  115OSM    O1411912  -0.019   0.967   6.663 -0.2373 -0.4435  0.0575
  115OSM    O1111913  -0.111   1.184   6.744 -0.0472 -0.4143 -0.2274
  115OSM    O1211914   0.048   1.049   6.886  0.4120 -0.4220  0.3709
  115OSM    C1S11915  -0.163   1.248   6.628 -0.8166  0.1469  0.2950
  115OSM    H1S11916  -0.083   1.267   6.554 -0.0763 -1.3569  0.6644
  115OSM    H1T11917  -0.221   1.337   6.659 -0.5665 -0.5253  2.9668
  115OSM     NF11918  -0.325   1.196   6.438 -0.1802  0.2725  0.3734
  115OSM    HNF11919  -0.418   1.231   6.435  0.3177  1.5682 -0.9149
  115OSM    C2S11920  -0.278   1.155   6.566 -0.0894  0.5472 -0.8428
  115OSM    H2S11921  -0.237   1.052   6.565  2.3097  1.4124  0.7055
  115OSM    C3S11922  -0.395   1.143   6.666 -0.5242  0.0854  0.2646
  115OSM    H3S11923  -0.437   1.244   6.683  0.0783  0.2684  0.7006
  115OSM     O311924  -0.366   1.089   6.793  0.0846 -0.0102 -0.0070
  115OSM    HO311925  -0.271   1.099   6.803 -0.1893  1.2489  1.8361
  115OSM    C4S11926  -0.507   1.062   6.605 -0.1117  0.0840 -0.0335
  115OSM    H4S11927  -0.586   1.130   6.569 -1.2072  0.3490  2.6754
  115OSM    C5S11928  -0.521   0.927   6.578 -0.6567 -0.1116  0.1257
  115OSM    H5S11929  -0.450   0.852   6.616 -1.3735 -0.6436  0.4169
  115OSM    C6S11930  -0.639   0.878   6.504  0.1056 -0.5646 -0.3462
  115OSM    H6S11931  -0.711   0.837   6.578  1.1138 -0.9166  0.4680
  115OSM    H6T11932  -0.613   0.793   6.438 -0.4373  0.1636 -1.5362
  115OSM    C7S11933  -0.718   0.970   6.402 -0.5336  0.4508 -0.0911
  115OSM    H7S11934  -0.765   1.051   6.462 -0.2366  1.0386 -0.6445
  115OSM    H7T11935  -0.809   0.912   6.374  0.1688 -1.5838  1.5510
  115OSM    C8S11936  -0.642   1.009   6.277  0.0754  0.5861  0.0044
  115OSM    H8S11937  -0.599   0.917   6.232  0.8134  0.8880  0.0749
  115OSM    H8T11938  -0.568   1.088   6.306 -1.2691  2.9200 -2.4853
  115OSM    C9S11939  -0.737   1.081   6.187 -0.0408  0.1405  0.0933
  115OSM    H9S11940  -0.784   1.175   6.221 -0.6765 -0.1984  0.1836
  115OSM    H9T11941  -0.821   1.009   6.173  0.0669  0.3816 -2.1798
  115OSM   C10S11942  -0.674   1.101   6.048 -0.2726  0.7052  0.2329
  115OSM   H10S11943  -0.627   1.003   6.026 -0.0802  1.3153 -2.5241
  115OSM   H10T11944  -0.594   1.173   6.077  1.6555  0.0047 -2.7948
  115OSM   C11S11945  -0.778   1.139   5.947 -0.1680  0.2177  0.0594
  115OSM   H11S11946  -0.811   1.242   5.972 -1.7232  0.3013 -1.9988
  115OSM   H11T11947  -0.860   1.065   5.953  1.2649 -1.3924  0.5727
  115OSM   C12S11948  -0.716   1.136   5.807  0.0698 -0.3474  0.0811
  115OSM   H12S11949  -0.671   1.034   5.803  1.6231  0.3354 -2.9233
  115OSM   H12T11950  -0.638   1.215   5.807 -2.4056  2.3040  1.5214
  115OSM   C13S11951  -0.819   1.180   5.701  0.4608 -0.2242  0.2399
  115OSM   H13S11952  -0.848   1.286   5.716  0.3448  0.0640 -1.7401
  115OSM   H13T11953  -0.906   1.112   5.711  0.4982 -0.2731  0.2348
  115OSM   C14S11954  -0.770   1.151   5.556 -0.2491  0.4335  0.5405
  115OSM   H14S11955  -0.742   1.044   5.542  0.7604  0.5936  1.1755
  115OSM   H14T11956  -0.686   1.209   5.513 -0.0648  0.6752  1.2209
  115OSM   C15S11957  -0.897   1.152   5.456  0.2619  0.0311  0.1058
  115OSM   H15S11958  -0.926   1.257   5.438 -0.0363  0.0785  0.8383
  115OSM   H15T11959  -0.981   1.097   5.503  0.2234 -0.1254 -0.1381
  115OSM   C16S11960  -0.873   1.100   5.312 -0.3502 -0.2395 -0.8027
  115OSM   H16S11961  -0.957   1.137   5.250 -0.9766 -0.3068 -0.0089
  115OSM   H16T11962  -0.875   0.988   5.311 -1.4582 -0.2568  0.3872
  115OSM   C17S11963  -0.739   1.153   5.253  0.0551 -0.1696 -0.0015
  115OSM   H17S11964  -0.657   1.103   5.310 -0.8751  0.1492  1.6953
  115OSM   H17T11965  -0.725   1.262   5.269  2.1959 -0.5860  1.3989
  115OSM   C18S11966  -0.725   1.117   5.105 -0.5996 -0.0215  0.3749
  115OSM   H18S11967  -0.645   1.164   5.045 -0.4512 -0.4483  0.2343
  115OSM   H18T11968  -0.821   1.130   5.051 -1.0745 -0.5433  1.0699
  115OSM   H18U11969  -0.701   1.009   5.101 -0.7932 -0.0327 -1.0300
  115OSM    C1F11970  -0.240   1.192   6.331 -0.1318  0.8805 -0.5888
  115OSM     OF11971  -0.127   1.145   6.333  0.3364  0.2126  0.4656
  115OSM    C2F11972  -0.296   1.225   6.197 -0.4441 -0.2979  0.6206
  115OSM    H2F11973  -0.382   1.295   6.197  0.6752  1.1446  1.6126
  115OSM    H2G11974  -0.334   1.129   6.158 -0.2571  0.9640 -2.9918
  115OSM    C3F11975  -0.195   1.299   6.108  0.1731  0.1408 -1.3193
  115OSM    H3F11976  -0.098   1.244   6.102  0.1068  0.0498 -1.5819
  115OSM    H3G11977  -0.177   1.398   6.155 -2.5187 -0.0818  0.3613
  115OSM    C4F11978  -0.254   1.347   5.980  0.3804 -0.2349 -0.1629
  115OSM    H4F11979  -0.307   1.443   5.995  0.7838  0.3867 -2.3506
  115OSM    H4G11980  -0.334   1.273   5.956  0.0766 -0.2638  0.8960
  115OSM    C5F11981  -0.150   1.373   5.876  0.9532  0.2478 -0.2862
  115OSM    H5F11982  -0.081   1.286   5.869  0.3507 -0.2670  0.1155
  115OSM    H5G11983  -0.085   1.454   5.917  0.4026  0.5562 -0.0147
  115OSM    C6F11984  -0.199   1.420   5.738  0.0671  0.3449 -0.1895
  115OSM    H6F11985  -0.285   1.490   5.752 -1.1366 -1.1374  0.0544
  115OSM    H6G11986  -0.249   1.331   5.695  0.2389 -0.6342  1.5665
  115OSM    C7F11987  -0.086   1.478   5.651  0.5057 -0.0321  1.0763
  115OSM    H7F11988  -0.021   1.397   5.612 -1.6114 -0.6579 -1.4788
  115OSM    H7G11989  -0.025   1.551   5.707 -0.0775  1.8577 -0.6080
  115OSM    C8F11990  -0.144   1.554   5.532 -0.6383  0.0488 -0.3941
  115OSM    H8F11991  -0.192   1.648   5.567  0.3083  1.4755 -2.6818
  115OSM    H8G11992  -0.228   1.507   5.477 -0.4725  0.6177 -1.1496
  115OSM    C9F11993  -0.025   1.600   5.441  0.2315  0.8334 -0.5024
  115OSM    H9F11994   0.047   1.659   5.500 -1.0127  0.8940  1.0317
  115OSM   C10F11995  -0.008   1.567   5.315 -0.5368  0.4903 -0.0838
  115OSM   H10F11996   0.078   1.611   5.263 -0.4924 -0.7466 -1.0947
  115OSM   C11F11997  -0.110   1.498   5.233  0.3704 -0.3601  0.6594
  115OSM   H11F11998  -0.155   1.419   5.297 -0.1816  0.4174  1.2336
  115OSM   H11G11999  -0.066   1.451   5.142 -0.5386 -1.3094  0.6956
  115OSM   C12F12000  -0.227   1.594   5.179  0.2983  0.6152 -0.1805
  115OSM   H12F12001  -0.287   1.618   5.270 -0.7621 -0.5381 -0.5494
  115OSM   H12G12002  -0.293   1.542   5.106  0.3951  0.8205 -0.4179
  115OSM   C13F12003  -0.179   1.713   5.094  0.3410 -0.1642  0.9559
  115OSM   H13F12004  -0.090   1.681   5.036 -1.0568 -0.9556 -0.8321
  115OSM   H13G12005  -0.138   1.789   5.164  0.3522  1.8780 -1.1133
  115OSM   C14F12006  -0.292   1.784   5.013  0.3259  0.1186 -0.2288
  115OSM   H14F12007  -0.357   1.835   5.087 -2.6746 -3.0943 -0.3826
  115OSM   H14G12008  -0.353   1.719   4.947  0.8145  0.1756 -0.7396
  115OSM   C15F12009  -0.230   1.884   4.920 -0.0473 -0.2745 -0.3575
  115OSM   H15F12010  -0.151   1.833   4.860 -0.1478  0.7127 -1.3644
  115OSM   H15G12011  -0.183   1.969   4.973 -0.5044  0.2136 -0.7144
  115OSM   C16F12012  -0.336   1.959   4.832  0.2922 -0.1079 -0.3950
  115OSM   H16F12013  -0.379   2.047   4.884  1.1000 -0.4912  0.9621
  115OSM   H16G12014  -0.420   1.889   4.808 -0.2087 -0.2017  1.4794
  115OSM   C17F12015  -0.274   2.012   4.711 -0.1983  0.6978  0.3760
  115OSM   H17F12016  -0.218   1.927   4.666 -0.3429  1.0979 -0.5818
  115OSM   H17G12017  -0.194   2.084   4.736  0.2317 -0.1523  1.5321
  115OSM   C18F12018  -0.366   2.056   4.601 -0.3485 -0.0207  0.2243
  115OSM   H18F12019  -0.314   2.077   4.505  1.0752 -1.9702  0.4999
  115OSM   H18G12020  -0.417   2.151   4.627  2.1316  1.9130 -1.5224
  115OSM   H18H12021  -0.433   1.969   4.579 -0.1928 -0.1972  0.4408
  116OSM      N12022   2.532   5.468   6.720  0.1154  0.2491 -0.0662
  116OSM    C1512023   2.457   5.421   6.603 -0.6253  0.0447 -0.2625
  116OSM   H15A12024   2.472   5.314   6.596 -1.0362  0.1070 -2.6080
  116OSM   H15B12025   2.504   5.476   6.523 -0.0482  0.3478  0.2751
  116OSM   H15C12026   2.353   5.449   6.603 -0.7787 -0.4983  0.2630
  116OSM    C1412027   2.479   5.399   6.846  0.3564 -0.1871  0.5213
  116OSM   H14A12028   2.392   5.452   6.882 -1.0085 -1.5657 -0.5989
  116OSM   H14B12029   2.556   5.400   6.921  1.4122 -1.4947 -0.4866
  116OSM   H14C12030   2.464   5.295   6.824 -0.0664  0.4821 -3.1925
  116OSM    C1312031   2.672   5.424   6.702 -0.6831 -0.0506  0.0276
  116OSM   H13A12032   2.689   5.319   6.720  1.3914  0.1536 -0.4492
  116OSM   H13B12033   2.737   5.478   6.770  0.6335 -1.3247 -0.1785
  116OSM   H13C12034   2.700   5.447   6.600 -2.3745  0.9704 -0.2318
  116OSM    C1212035   2.520   5.615   6.720 -0.3053 -0.8678 -0.2754
  116OSM   H12A12036   2.415   5.638   6.718 -0.5495 -1.9360 -0.1934
  116OSM   H12B12037   2.573   5.651   6.633  2.1531 -1.1357  0.9939
  116OSM    C1112038   2.592   5.684   6.848  0.8693 -0.7496 -0.1071
  116OSM   H11A12039   2.531   5.671   6.941  2.1321 -1.3699  0.6656
  116OSM   H11B12040   2.572   5.789   6.818 -0.3820 -1.1136 -0.5944
  116OSM      P12041   2.867   5.715   6.828  0.1887  0.1392 -0.1807
  116OSM    O1312042   2.844   5.860   6.819  0.4592 -0.2173  0.2016
  116OSM    O1412043   2.979   5.660   6.903  0.1535 -0.2830  0.1881
  116OSM    O1112044   2.880   5.665   6.672 -0.5469  0.5399  0.0185
  116OSM    O1212045   2.731   5.642   6.861  0.2927 -0.2746 -0.4277
  116OSM    C1S12046   2.957   5.747   6.578 -0.0215  0.1239  0.2071
  116OSM    H1S12047   3.020   5.827   6.621  2.1507 -0.7621 -1.1680
  116OSM    H1T12048   2.886   5.798   6.510  0.5589  1.5082  0.5998
  116OSM     NF12049   3.146   5.723   6.413  0.2267  0.0108  0.2708
  116OSM    HNF12050   3.125   5.739   6.317 -0.7398  0.9292  0.6236
  116OSM    C2S12051   3.043   5.655   6.485 -0.0692 -0.1397 -0.5458
  116OSM    H2S12052   3.089   5.573   6.544  0.3433 -0.3794 -1.1898
  116OSM    C3S12053   2.952   5.566   6.389  0.6544 -0.1119 -0.2960
  116OSM    H3S12054   2.905   5.642   6.323  0.8632  1.1013  0.9102
  116OSM     O312055   2.854   5.488   6.469  0.0333 -0.1215 -0.7037
  116OSM    HO312056   2.855   5.542   6.548 -1.3568  2.1010 -2.1093
  116OSM    C4S12057   3.032   5.479   6.294  0.3751 -0.1396 -0.6213
  116OSM    H4S12058   3.073   5.542   6.214  0.1468  0.3359 -0.3701
  116OSM    C5S12059   3.044   5.344   6.292  0.7564 -0.2540 -0.1122
  116OSM    H5S12060   2.989   5.277   6.360  0.7059 -1.6821 -1.4899
  116OSM    C6S12061   3.100   5.267   6.185 -0.1960  0.2791 -0.3679
  116OSM    H6S12062   3.069   5.160   6.189 -0.6881  0.4741  2.0123
  116OSM    H6T12063   3.211   5.264   6.194 -0.1646  0.6704 -0.5986
  116OSM    C7S12064   3.066   5.322   6.045  0.1501  0.8243  0.3782
  116OSM    H7S12065   3.093   5.428   6.023  0.0217  0.6549 -0.6676
  116OSM    H7T12066   2.957   5.319   6.022  0.4766  0.2997 -1.1735
  116OSM    C8S12067   3.124   5.227   5.931  0.4401 -0.5909  0.1944
  116OSM    H8S12068   3.079   5.127   5.949  0.8575 -0.3763  2.6975
  116OSM    H8T12069   3.233   5.235   5.948  0.4996  1.3209 -0.8603
  116OSM    C9S12070   3.088   5.274   5.788  0.9058  0.4281 -0.2284
  116OSM    H9S12071   2.984   5.245   5.762  0.3277  0.8267  1.4737
  116OSM    H9T12072   3.157   5.219   5.721  0.3731  1.2427 -1.4741
  116OSM   C10S12073   3.106   5.415   5.743 -0.3561 -0.8160  0.3922
  116OSM   H10S12074   3.202   5.446   5.790 -1.8856  3.9802  0.9097
  116OSM   H10T12075   3.043   5.490   5.795  1.7410  1.3315  0.0440
  116OSM   C11S12076   3.106   5.447   5.594  0.0579  0.5910  0.2586
  116OSM   H11S12077   3.140   5.356   5.540 -2.2204  0.5494 -1.2453
  116OSM   H11T12078   3.182   5.528   5.580 -1.8043  1.9690 -3.3651
  116OSM   C12S12079   2.969   5.485   5.531 -0.5287 -0.2941 -0.3949
  116OSM   H12S12080   2.933   5.580   5.575 -1.4822  0.2836 -2.2972
  116OSM   H12T12081   2.902   5.399   5.551 -0.0560 -0.8737 -1.2436
  116OSM   C13S12082   2.975   5.505   5.377 -0.4653  0.2735  0.0328
  116OSM   H13S12083   3.044   5.426   5.340 -0.5841 -0.0882  0.5697
  116OSM   H13T12084   3.017   5.601   5.340 -0.3708 -1.0576 -3.7187
  116OSM   C14S12085   2.843   5.463   5.301  0.2098 -0.0210  0.4719
  116OSM   H14S12086   2.773   5.547   5.318 -1.1222 -0.7104 -1.2380
  116OSM   H14T12087   2.807   5.376   5.361  0.1457 -1.4928 -1.5836
  116OSM   C15S12088   2.847   5.436   5.151 -0.8390 -0.1132  0.7126
  116OSM   H15S12089   2.931   5.366   5.131  0.0619  0.5494  2.0210
  116OSM   H15T12090   2.872   5.528   5.094  2.6961 -0.7867  0.9176
  116OSM   C16S12091   2.726   5.366   5.098 -0.0337  0.6147  0.8354
  116OSM   H16S12092   2.632   5.422   5.117 -1.3342 -1.1129 -0.2644
  116OSM   H16T12093   2.719   5.279   5.167  0.4898  0.5998  0.8772
  116OSM   C17S12094   2.757   5.315   4.953 -0.6123  0.1021 -0.8870
  116OSM   H17S12095   2.683   5.237   4.924 -0.2917 -0.3845 -0.4228
  116OSM   H17T12096   2.851   5.258   4.964 -1.0461 -0.3282  1.0807
  116OSM   C18S12097   2.776   5.428   4.856  0.2892  0.3213  0.2534
  116OSM   H18S12098   2.681   5.486   4.850 -0.6602 -1.0724  1.1358
  116OSM   H18T12099   2.791   5.382   4.756  0.6216  0.2666  0.3268
  116OSM   H18U12100   2.861   5.491   4.891 -0.1202 -0.3299  2.5702
  116OSM    C1F12101   3.240   5.787   6.475  0.3881 -0.0058 -0.1806
  116OSM     OF12102   3.266   5.759   6.592  0.4002 -0.2958 -0.9612
  116OSM    C2F12103   3.299   5.904   6.413  0.2837  0.2606 -0.5368
  116OSM    H2F12104   3.279   5.998   6.468  0.1743 -0.5583  0.8823
  116OSM    H2G12105   3.265   5.909   6.307 -2.2063 -0.5038  0.1624
  116OSM    C3F12106   3.455   5.889   6.412  0.4605  0.5933 -0.6421
  116OSM    H3F12107   3.488   5.792   6.367 -1.1114 -0.5109  0.4746
  116OSM    H3G12108   3.493   5.891   6.516 -1.6268  0.8430  0.1484
  116OSM    C4F12109   3.522   6.001   6.338 -0.5033  0.8367  0.6219
  116OSM    H4F12110   3.630   6.011   6.361 -0.6392  2.3534  0.7079
  116OSM    H4G12111   3.472   6.097   6.366 -2.0674 -0.4826  2.6658
  116OSM    C5F12112   3.511   5.980   6.187  0.7485 -0.7644 -0.0794
  116OSM    H5F12113   3.418   6.029   6.150 -0.2037 -2.8852 -0.6793
  116OSM    H5G12114   3.519   5.871   6.163  0.2793 -0.6668 -0.7113
  116OSM    C6F12115   3.621   6.051   6.107  0.3491  0.3002 -0.4934
  116OSM    H6F12116   3.722   6.022   6.142 -0.0232 -0.9566 -0.3874
  116OSM    H6G12117   3.597   6.157   6.126  0.9220  0.4417 -0.5524
  116OSM    C7F12118   3.614   6.036   5.955  0.2509 -0.6637  0.4659
  116OSM    H7F12119   3.619   5.927   5.939 -2.1670 -0.9122  0.9123
  116OSM    H7G12120   3.703   6.075   5.902 -0.6139  0.0081 -0.5262
  116OSM    C8F12121   3.491   6.094   5.890 -0.0795 -0.1543 -0.8098
  116OSM    H8F12122   3.510   6.203   5.880 -0.2486 -0.0521 -0.0466
  116OSM    H8G12123   3.405   6.080   5.958 -1.3994  0.3242 -2.3041
  116OSM    C9F12124   3.467   6.030   5.758  0.1688 -0.2673 -0.1091
  116OSM    H9F12125   3.415   5.933   5.760  0.6325 -0.5083  0.8244
  116OSM   C10F12126   3.488   6.086   5.635  0.7949 -0.8511  0.4013
  116OSM   H10F12127   3.466   6.031   5.542 -1.8619 -0.2289  0.5783
  116OSM   C11F12128   3.532   6.227   5.609 -0.6500 -0.7691  0.1606
  116OSM   H11F12129   3.643   6.226   5.608 -0.6119  0.4000 -2.4542
  116OSM   H11G12130   3.501   6.296   5.691 -1.8859  0.6805 -1.4468
  116OSM   C12F12131   3.490   6.296   5.477 -0.0366  0.1943 -0.0179
  116OSM   H12F12132   3.518   6.403   5.475 -0.5817  0.3506  0.3765
  116OSM   H12G12133   3.381   6.315   5.475  0.4584  3.7818  1.0848
  116OSM   C13F12134   3.523   6.228   5.345 -0.0712  0.1338 -0.2956
  116OSM   H13F12135   3.475   6.130   5.328  2.8120 -1.0241 -2.7365
  116OSM   H13G12136   3.634   6.225   5.342  0.1679  4.1368 -1.4252
  116OSM   C14F12137   3.500   6.314   5.217 -0.4351 -0.0650  0.2851
  116OSM   H14F12138   3.402   6.367   5.222 -0.1009  0.7026 -0.8766
  116OSM   H14G12139   3.493   6.252   5.125  0.7854  1.0639 -0.6081
  116OSM   C15F12140   3.617   6.421   5.187  0.4724  0.3283  0.6501
  116OSM   H15F12141   3.713   6.368   5.206  0.3817  0.8318  2.8204
  116OSM   H15G12142   3.600   6.505   5.257 -2.0227  0.0353  0.4960
  116OSM   C16F12143   3.619   6.481   5.043  0.4579  0.1106  0.4892
  116OSM   H16F12144   3.526   6.543   5.043  1.0563  1.0292 -0.7576
  116OSM   H16G12145   3.603   6.398   4.972  0.5621  0.2588  0.2921
  116OSM   C17F12146   3.741   6.558   5.000  0.2870 -0.0760 -0.2613
  116OSM   H17F12147   3.723   6.576   4.892 -0.7272 -0.9499 -0.2506
  116OSM   H17G12148   3.831   6.494   5.016  1.8262  1.4850 -2.0710
  116OSM   C18F12149   3.739   6.699   5.065  0.2988  0.4849  0.4492
  116OSM   H18F12150   3.645   6.746   5.028 -0.9309 -2.5211 -0.6005
  116OSM   H18G12151   3.828   6.762   5.043 -0.8623  2.0988  0.1683
  116OSM   H18H12152   3.732   6.691   5.176  0.4010  0.3061  0.4415
  117OSM      N12153   2.545   2.517   7.403 -0.5379 -0.0666  0.0456
  117OSM    C1512154   2.574   2.520   7.258 -0.5243 -0.7764  0.4348
  117OSM   H15A12155   2.480   2.498   7.209 -0.4887  0.3788 -0.2042
  117OSM   H15B12156   2.652   2.448   7.236 -1.4414 -2.6439  2.8743
  117OSM   H15C12157   2.605   2.617   7.221  0.0895 -1.4471 -0.8786
  117OSM    C1412158   2.560   2.370   7.442  0.5394 -0.0872 -0.0481
  117OSM   H14A12159   2.530   2.370   7.546  1.6436  0.8558  0.2951
  117OSM   H14B12160   2.665   2.350   7.430  0.9665  0.8528  1.7293
  117OSM   H14C12161   2.503   2.309   7.375 -1.0823  2.8554 -1.5747
  117OSM    C1312162   2.646   2.606   7.475  0.5604  0.7761  0.1035
  117OSM   H13A12163   2.619   2.611   7.579 -1.6214  0.0501 -0.3530
  117OSM   H13B12164   2.647   2.704   7.430 -0.4789  0.1558 -1.3987
  117OSM   H13C12165   2.746   2.566   7.467  1.0955  2.2643 -1.0651
  117OSM    C1212166   2.407   2.563   7.443 -0.0424  0.4166  0.0686
  117OSM   H12A12167   2.393   2.660   7.397 -1.4625  0.8580  1.3505
  117OSM   H12B12168   2.395   2.581   7.549  1.1419 -1.6295  0.6007
  117OSM    C1112169   2.282   2.472   7.407 -0.4894  0.0800  0.5528
  117OSM   H11A12170   2.270   2.462   7.297  2.9577  1.8249 -0.1177
  117OSM   H11B12171   2.195   2.531   7.446 -1.9414 -1.0248 -0.8996
  117OSM      P12172   2.229   2.210   7.415 -0.1657 -0.3208  0.1327
  117OSM    O1312173   2.246   2.109   7.522  0.6736  0.2748  0.3513
  117OSM    O1412174   2.095   2.225   7.350 -0.2751 -0.0202  0.3614
  117OSM    O1112175   2.335   2.191   7.305 -0.1256 -0.0557  0.6706
  117OSM    O1212176   2.277   2.352   7.470  0.0065  1.0075  0.4838
  117OSM    C1S12177   2.307   2.219   7.159 -0.8935 -0.2454  0.1751
  117OSM    H1S12178   2.297   2.328   7.143  1.9654  0.2388  1.2142
  117OSM    H1T12179   2.211   2.174   7.125 -1.3912 -0.5329  1.8425
  117OSM     NF12180   2.375   2.178   6.930 -0.8917  0.2001 -0.0217
  117OSM    HNF12181   2.315   2.105   6.900 -2.1389 -0.1563  3.0178
  117OSM    C2S12182   2.416   2.153   7.067  0.2693  0.2352 -0.3728
  117OSM    H2S12183   2.499   2.225   7.082 -0.4768  1.1496 -0.4870
  117OSM    C3S12184   2.453   2.005   7.095  0.0732  1.0057 -0.0088
  117OSM    H3S12185   2.369   1.934   7.081  0.4671  0.4647  0.3235
  117OSM     O312186   2.483   1.974   7.232  0.2702 -0.4502 -0.2392
  117OSM    HO312187   2.473   2.057   7.279 -0.3466 -1.6179  1.8230
  117OSM    C4S12188   2.554   1.955   7.001 -0.4229  0.2829 -0.4160
  117OSM    H4S12189   2.509   1.915   6.908 -1.1511 -1.0077  0.4599
  117OSM    C5S12190   2.687   1.965   7.015 -0.3143 -0.0170  0.0785
  117OSM    H5S12191   2.721   2.003   7.113 -1.8388  0.3558  0.4909
  117OSM    C6S12192   2.803   1.919   6.928 -0.3952  0.3920 -0.3013
  117OSM    H6S12193   2.860   1.843   6.986 -1.1739 -0.8212 -1.0683
  117OSM    H6T12194   2.879   1.999   6.919 -2.7305  2.4917 -3.1898
  117OSM    C7S12195   2.756   1.859   6.795  0.4083 -1.1039 -0.3557
  117OSM    H7S12196   2.681   1.777   6.799 -0.5594 -0.1924  0.4796
  117OSM    H7T12197   2.846   1.806   6.755  0.3236 -0.8439 -0.8960
  117OSM    C8S12198   2.696   1.952   6.693 -0.2261  0.4019 -0.1631
  117OSM    H8S12199   2.760   2.041   6.675 -1.3971  0.7926 -2.7884
  117OSM    H8T12200   2.608   2.005   6.734  2.0960  2.6312  2.3753
  117OSM    C9S12201   2.678   1.890   6.556  0.1945 -0.2755 -0.0862
  117OSM    H9S12202   2.596   1.816   6.549  1.6359 -1.7816 -2.1398
  117OSM    H9T12203   2.772   1.837   6.531  0.5943  0.8726 -1.0914
  117OSM   C10S12204   2.673   2.000   6.450  0.1120  0.2822  0.5569
  117OSM   H10S12205   2.770   2.053   6.463  1.1090 -1.7721  2.1116
  117OSM   H10T12206   2.591   2.072   6.467 -1.7799 -1.9137  1.2960
  117OSM   C11S12207   2.664   1.942   6.308 -0.1497 -0.7062 -0.2581
  117OSM   H11S12208   2.602   1.850   6.302  0.8769 -1.3352 -2.0542
  117OSM   H11T12209   2.766   1.909   6.277  0.2677  0.4872 -0.2119
  117OSM   C12S12210   2.599   2.041   6.208 -0.8021 -0.0439  0.2789
  117OSM   H12S12211   2.640   2.142   6.229  0.0545 -0.2166 -0.5369
  117OSM   H12T12212   2.491   2.052   6.230 -0.7597 -1.0755  1.0665
  117OSM   C13S12213   2.619   2.022   6.055 -0.1533  0.5940 -0.9698
  117OSM   H13S12214   2.563   1.934   6.016 -0.8571 -0.2715  1.8146
  117OSM   H13T12215   2.728   2.009   6.043  0.0852 -1.2890  2.3112
  117OSM   C14S12216   2.582   2.148   5.981 -0.1757  0.4714 -0.1431
  117OSM   H14S12217   2.648   2.232   6.008 -1.4801  0.8176  2.3630
  117OSM   H14T12218   2.482   2.193   6.001  0.3426  1.4110  0.4011
  117OSM   C15S12219   2.600   2.125   5.832  0.6545  0.0626  0.0386
  117OSM   H15S12220   2.503   2.085   5.796  0.0194  1.2355  0.3928
  117OSM   H15T12221   2.687   2.060   5.809  0.5530  0.3589 -1.2420
  117OSM   C16S12222   2.643   2.254   5.751 -0.4941  0.1592 -0.2988
  117OSM   H16S12223   2.749   2.278   5.770 -0.3267 -0.2731 -0.6793
  117OSM   H16T12224   2.576   2.340   5.773 -1.1511 -0.6728  1.1192
  117OSM   C17S12225   2.631   2.240   5.598 -0.3836 -0.9322  1.0884
  117OSM   H17S12226   2.523   2.234   5.574 -0.5355 -3.7940  2.1369
  117OSM   H17T12227   2.685   2.148   5.569  2.6708  1.2231 -0.6452
  117OSM   C18S12228   2.682   2.371   5.523 -0.2961  0.5341 -0.3913
  117OSM   H18S12229   2.628   2.464   5.550 -1.4767 -0.0057 -0.7983
  117OSM   H18T12230   2.660   2.352   5.416 -1.4100 -0.7862  0.0427
  117OSM   H18U12231   2.792   2.381   5.528 -0.2867  1.5181 -1.8083
  117OSM    C1F12232   2.393   2.294   6.874  0.6314  0.0747 -0.1718
  117OSM     OF12233   2.468   2.373   6.923  0.5944  0.5114  0.0746
  117OSM    C2F12234   2.294   2.320   6.755  0.4175 -0.1113 -0.3802
  117OSM    H2F12235   2.193   2.333   6.800  1.1177  0.2229  1.1703
  117OSM    H2G12236   2.291   2.236   6.683 -0.1689 -2.1929  1.9183
  117OSM    C3F12237   2.319   2.448   6.671 -1.0415 -0.2266 -0.0119
  117OSM    H3F12238   2.316   2.542   6.730 -0.2849 -0.0191 -0.2969
  117OSM    H3G12239   2.237   2.456   6.595 -2.7530  0.8413  1.8403
  117OSM    C4F12240   2.457   2.443   6.601 -0.3756  0.1792  0.1329
  117OSM    H4F12241   2.540   2.447   6.675 -1.0424  3.3752  0.8408
  117OSM    H4G12242   2.478   2.524   6.529 -0.2690 -1.5947 -1.9377
  117OSM    C5F12243   2.482   2.319   6.523 -0.0310  0.1885  0.5385
  117OSM    H5F12244   2.487   2.230   6.590  1.4806 -0.5990 -0.5624
  117OSM    H5G12245   2.580   2.323   6.471  0.1593 -1.7170  0.6813
  117OSM    C6F12246   2.391   2.295   6.405 -0.4065 -0.6033  0.0360
  117OSM    H6F12247   2.297   2.266   6.457  0.4452  1.5009  3.0412
  117OSM    H6G12248   2.427   2.206   6.351  0.7470 -0.1296 -0.0158
  117OSM    C7F12249   2.364   2.414   6.305 -0.6459  0.1649 -0.7045
  117OSM    H7F12250   2.326   2.494   6.372  1.7181  0.1585  0.7793
  117OSM    H7G12251   2.281   2.396   6.235  0.1015  0.4415 -1.6792
  117OSM    C8F12252   2.489   2.455   6.222  0.4025  0.2780  0.1754
  117OSM    H8F12253   2.518   2.382   6.143 -2.2343 -0.1555 -0.4631
  117OSM    H8G12254   2.574   2.466   6.293  0.0298  0.6850  0.5625
  117OSM    C9F12255   2.471   2.594   6.167  0.2297 -0.0217  0.3014
  117OSM    H9F12256   2.526   2.665   6.231 -2.7043  0.1617  2.8795
  117OSM   C10F12257   2.391   2.632   6.065 -0.1174 -0.3786  0.4150
  117OSM   H10F12258   2.378   2.737   6.034 -2.2170 -0.1219  1.9779
  117OSM   C11F12259   2.312   2.535   5.978  0.4683 -0.0558  0.2770
  117OSM   H11F12260   2.230   2.488   6.036  1.7106 -2.7147  0.0599
  117OSM   H11G12261   2.376   2.447   5.953 -2.1012 -2.0521  0.3228
  117OSM   C12F12262   2.250   2.596   5.851  0.2354  0.4641  0.0530
  117OSM   H12F12263   2.184   2.680   5.879 -0.4798  0.2637 -0.9872
  117OSM   H12G12264   2.175   2.518   5.825  0.0762  0.2802  1.0245
  117OSM   C13F12265   2.343   2.614   5.737  0.5747  0.2323  0.1108
  117OSM   H13F12266   2.370   2.509   5.712  1.2999  0.0145  1.7222
  117OSM   H13G12267   2.443   2.657   5.759  1.5621 -1.6745 -0.4344
  117OSM   C14F12268   2.270   2.692   5.620 -0.4869 -0.1058 -1.4799
  117OSM   H14F12269   2.244   2.789   5.667  2.7623 -0.8211  2.3441
  117OSM   H14G12270   2.174   2.646   5.587 -1.4816  0.5626  0.3213
  117OSM   C15F12271   2.358   2.721   5.498 -0.2362  0.2516 -0.2170
  117OSM   H15F12272   2.392   2.627   5.449  0.7308  0.3688  0.2041
  117OSM   H15G12273   2.447   2.774   5.539 -0.9832  0.9090  0.5843
  117OSM   C16F12274   2.293   2.811   5.396 -0.0072 -0.1102 -0.2594
  117OSM   H16F12275   2.260   2.909   5.436 -1.4373 -0.6369 -0.0797
  117OSM   H16G12276   2.205   2.749   5.365  0.0630  0.1144 -0.9351
  117OSM   C17F12277   2.390   2.824   5.275  0.0602 -0.3198  0.2014
  117OSM   H17F12278   2.409   2.721   5.239  3.0308  0.1000  0.3597
  117OSM   H17G12279   2.490   2.858   5.309 -0.1408  0.0485  0.4483
  117OSM   C18F12280   2.359   2.913   5.155 -0.1633 -0.0613 -0.3826
  117OSM   H18F12281   2.430   2.886   5.073  1.0356  0.0937  0.5799
  117OSM   H18G12282   2.374   3.020   5.181 -1.2659 -0.4805  2.3101
  117OSM   H18H12283   2.256   2.893   5.117 -0.3638  2.2838 -1.2906
  118OSM      N12284   4.121   1.446   7.089 -0.1108 -0.1556 -0.5928
  118OSM    C1512285   4.009   1.452   7.199 -0.6417  0.2690  0.4194
  118OSM   H15A12286   3.926   1.517   7.174 -0.4962 -0.9796 -4.2112
  118OSM   H15B12287   4.048   1.474   7.297 -0.4142 -0.6603  0.5481
  118OSM   H15C12288   3.970   1.351   7.205  0.9678 -0.4717 -0.9174
  118OSM    C1412289   4.061   1.411   6.951 -0.0581 -0.2808  0.4125
  118OSM   H14A12290   4.016   1.503   6.916  1.7462  0.8317  0.8683
  118OSM   H14B12291   3.988   1.332   6.953  0.6469 -1.1166 -2.4077
  118OSM   H14C12292   4.136   1.391   6.875  1.1303  0.2202  1.4159
  118OSM    C1312293   4.189   1.584   7.069  0.6980  0.7255  0.1980
  118OSM   H13A12294   4.249   1.604   7.157 -0.8655  1.8712  1.0668
  118OSM   H13B12295   4.112   1.659   7.058  0.4253  0.4267  0.0420
  118OSM   H13C12296   4.259   1.582   6.987  0.8664 -0.1510  0.3481
  118OSM    C1212297   4.229   1.355   7.143 -0.6346 -0.1087 -0.0503
  118OSM   H12A12298   4.262   1.392   7.239 -1.6230  3.2607 -0.8856
  118OSM   H12B12299   4.314   1.362   7.076 -0.8423 -1.1265 -0.4345
  118OSM    C1112300   4.200   1.202   7.163 -0.2192 -0.0025  0.0662
  118OSM   H11A12301   4.292   1.156   7.205  0.2364 -1.1238 -2.0171
  118OSM   H11B12302   4.181   1.164   7.060 -2.3539  0.0854  0.3713
  118OSM      P12303   4.075   1.037   7.327  0.1261 -0.4496 -0.0768
  118OSM    O1312304   4.202   0.959   7.323  0.1389 -0.1132 -0.4706
  118OSM    O1412305   4.008   1.062   7.454 -0.1626 -0.5309 -0.9887
  118OSM    O1112306   3.984   0.942   7.245  0.2857 -0.0522  0.2338
  118OSM    O1212307   4.088   1.175   7.246  0.7590  0.7201 -0.1332
  118OSM    C1S12308   3.870   0.990   7.174 -0.2071  0.1234 -0.4721
  118OSM    H1S12309   3.813   1.075   7.216 -1.0067 -0.0221 -1.2388
  118OSM    H1T12310   3.795   0.907   7.175 -0.0817 -0.1063  2.9259
  118OSM     NF12311   3.771   1.031   6.955  0.8822 -0.2344  0.3156
  118OSM    HNF12312   3.721   0.946   6.939  0.9337 -0.0270 -1.0156
  118OSM    C2S12313   3.898   1.006   7.022  0.4261 -0.8996  0.2783
  118OSM    H2S12314   3.965   1.094   7.017  0.4427 -0.9426 -0.2190
  118OSM    C3S12315   3.972   0.891   6.956  0.4825  0.2223 -0.0545
  118OSM    H3S12316   3.903   0.805   6.965  0.2801  0.3634 -0.2712
  118OSM     O312317   4.093   0.840   7.020 -0.3182 -0.4725  0.1231
  118OSM    HO312318   4.082   0.871   7.110  1.9180 -0.3482  0.3909
  118OSM    C4S12319   3.991   0.915   6.808 -0.5849  0.0405 -0.3004
  118OSM    H4S12320   3.897   0.905   6.751 -1.0127 -2.7897  0.7775
  118OSM    C5S12321   4.099   0.950   6.736  0.0321 -0.1810 -0.5941
  118OSM    H5S12322   4.198   0.971   6.778  0.1139 -0.0004 -0.8741
  118OSM    C6S12323   4.097   0.981   6.592 -0.4029 -0.3614 -0.4303
  118OSM    H6S12324   4.193   0.957   6.542 -0.1572 -0.9304  0.3002
  118OSM    H6T12325   4.101   1.091   6.577  1.8740 -0.0319  1.8710
  118OSM    C7S12326   3.995   0.917   6.491  0.0161 -0.5714  0.0814
  118OSM    H7S12327   3.894   0.948   6.528  0.0154 -1.1363  0.5765
  118OSM    H7T12328   3.991   0.806   6.493  0.2111 -0.5742  0.7924
  118OSM    C8S12329   4.020   0.962   6.348 -0.9246 -0.4487 -0.0385
  118OSM    H8S12330   4.105   0.906   6.303 -1.1624  0.1621 -1.2859
  118OSM    H8T12331   4.042   1.069   6.370 -0.3342 -0.6623  0.4690
  118OSM    C9S12332   3.906   0.939   6.252 -0.4039 -0.4828  0.3145
  118OSM    H9S12333   3.816   0.997   6.283  0.3988  1.0284 -0.0737
  118OSM    H9T12334   3.873   0.833   6.244  0.5166 -0.9148  2.0070
  118OSM   C10S12335   3.941   0.969   6.107 -0.2399  0.0395  0.1850
  118OSM   H10S12336   4.039   0.923   6.079 -0.7174 -1.5254  0.9957
  118OSM   H10T12337   3.960   1.078   6.103 -0.5950  0.1170  0.6093
  118OSM   C11S12338   3.825   0.926   6.018  0.0137  0.2631 -0.0292
  118OSM   H11S12339   3.746   1.004   6.024  0.0029  0.4314 -1.9687
  118OSM   H11T12340   3.779   0.833   6.056  0.8134 -0.4863 -0.8764
  118OSM   C12S12341   3.871   0.917   5.874  0.3687 -0.0348 -0.1623
  118OSM   H12S12342   3.934   0.826   5.867  0.1355 -0.3484  1.4351
  118OSM   H12T12343   3.937   1.004   5.851 -0.0024 -0.0038 -1.2037
  118OSM   C13S12344   3.749   0.921   5.779 -0.9027  0.1240 -0.0106
  118OSM   H13S12345   3.689   1.014   5.783 -1.3219 -0.0098 -2.1209
  118OSM   H13T12346   3.683   0.833   5.796 -1.7675  0.4664 -1.4084
  118OSM   C14S12347   3.786   0.908   5.624 -0.1105  0.1268 -0.1181
  118OSM   H14S12348   3.692   0.925   5.568 -0.0321  0.3930 -0.1696
  118OSM   H14T12349   3.808   0.800   5.604  0.6848  0.5698 -1.8004
  118OSM   C15S12350   3.908   0.975   5.561  0.0383 -0.8492 -0.3581
  118OSM   H15S12351   3.999   0.957   5.621 -0.1144  1.3018  0.5908
  118OSM   H15T12352   3.885   1.082   5.544  0.0856 -1.0495 -1.8322
  118OSM   C16S12353   3.947   0.929   5.419  0.2287 -0.6750  0.1358
  118OSM   H16S12354   3.979   0.823   5.417  0.0283 -0.7345  0.0856
  118OSM   H16T12355   4.026   0.998   5.382  0.1539 -0.3644  0.5469
  118OSM   C17S12356   3.828   0.922   5.318  0.0711 -0.4995 -0.3033
  118OSM   H17S12357   3.784   1.023   5.313  0.9630 -0.0722  0.1689
  118OSM   H17T12358   3.753   0.848   5.354  1.0975 -1.2252  0.4206
  118OSM   C18S12359   3.883   0.880   5.179 -0.9701  0.2147  0.7530
  118OSM   H18S12360   3.925   0.778   5.196 -1.2864  0.4635  3.5337
  118OSM   H18T12361   3.955   0.952   5.135 -0.3296 -1.5599 -1.2658
  118OSM   H18U12362   3.799   0.869   5.106  1.4151 -2.1099 -1.8752
  118OSM    C1F12363   3.716   1.148   6.959  0.2876  0.4427  0.2101
  118OSM     OF12364   3.776   1.245   6.998 -0.0869 -0.1150  0.4714
  118OSM    C2F12365   3.579   1.151   6.898  0.0797  0.8491 -0.0357
  118OSM    H2F12366   3.508   1.172   6.981  1.8521  2.5270  1.1475
  118OSM    H2G12367   3.559   1.054   6.847  2.7491  0.3614 -0.3061
  118OSM    C3F12368   3.563   1.276   6.815 -0.2928 -0.3781 -0.2500
  118OSM    H3F12369   3.589   1.362   6.881 -0.4393 -0.4116 -0.1483
  118OSM    H3G12370   3.460   1.281   6.774 -0.7855 -1.3851  0.8190
  118OSM    C4F12371   3.667   1.283   6.698  0.6435  0.2894  0.4117
  118OSM    H4F12372   3.767   1.304   6.740  0.2270 -0.4455  1.8329
  118OSM    H4G12373   3.645   1.375   6.640 -0.5134  2.0022  3.3332
  118OSM    C5F12374   3.675   1.150   6.615 -0.2730 -0.0478  0.3234
  118OSM    H5F12375   3.703   1.065   6.681  0.9661  1.4877  1.8784
  118OSM    H5G12376   3.743   1.174   6.531 -1.4047 -0.6628 -0.8163
  118OSM    C6F12377   3.537   1.123   6.541  0.7238 -0.0427  0.8153
  118OSM    H6F12378   3.471   1.076   6.617  0.0994 -0.3498  0.0864
  118OSM    H6G12379   3.555   1.036   6.474 -1.4474  0.8748 -1.0606
  118OSM    C7F12380   3.476   1.243   6.468  0.0297  0.4331  1.0862
  118OSM    H7F12381   3.447   1.326   6.535  3.0976  1.8175  0.8514
  118OSM    H7G12382   3.382   1.200   6.426  0.2996  1.2368 -0.4374
  118OSM    C8F12383   3.570   1.290   6.353  0.0886 -0.2433 -0.7775
  118OSM    H8F12384   3.594   1.197   6.296  0.8158  0.2469 -1.2928
  118OSM    H8G12385   3.671   1.317   6.391 -0.7738  1.9702  0.0938
  118OSM    C9F12386   3.515   1.402   6.270 -0.0439  0.3964  0.0277
  118OSM    H9F12387   3.516   1.497   6.325  3.4498  0.0119  0.9006
  118OSM   C10F12388   3.471   1.387   6.144  0.1908  0.4921  0.4376
  118OSM   H10F12389   3.435   1.472   6.084  0.5626  1.2944  1.3324
  118OSM   C11F12390   3.491   1.267   6.052  0.2984  0.0373 -0.3746
  118OSM   H11F12391   3.441   1.177   6.093  0.9008  0.2990  1.0017
  118OSM   H11G12392   3.596   1.232   6.043  0.6161  1.1088 -1.0110
  118OSM   C12F12393   3.434   1.307   5.911 -0.0408 -0.8226 -0.4580
  118OSM   H12F12394   3.336   1.358   5.916  1.2292  1.7872 -0.3369
  118OSM   H12G12395   3.416   1.220   5.844  0.3402  0.8325 -2.8799
  118OSM   C13F12396   3.539   1.394   5.839  1.0173  0.3357  0.5131
  118OSM   H13F12397   3.644   1.359   5.848  1.3892  0.8679 -1.2777
  118OSM   H13G12398   3.544   1.496   5.883  0.5231 -0.1473  1.7097
  118OSM   C14F12399   3.493   1.414   5.690  0.4652  0.2821  0.0321
  118OSM   H14F12400   3.536   1.512   5.660 -0.4245  1.7171  3.0753
  118OSM   H14G12401   3.383   1.431   5.687  0.6126  2.0896  2.1310
  118OSM   C15F12402   3.537   1.308   5.592  0.7079 -0.3000 -0.3274
  118OSM   H15F12403   3.462   1.228   5.608  1.0519 -0.5661 -0.0138
  118OSM   H15G12404   3.644   1.280   5.601  1.3446  1.1471 -2.7233
  118OSM   C16F12405   3.523   1.354   5.443 -0.5796 -0.2059 -0.8741
  118OSM   H16F12406   3.555   1.460   5.435 -1.7701  0.2728  0.3432
  118OSM   H16G12407   3.419   1.359   5.404 -1.4263  1.5488  1.4095
  118OSM   C17F12408   3.615   1.274   5.355 -0.5654  0.1026  0.4451
  118OSM   H17F12409   3.594   1.165   5.360 -0.0714 -0.0238 -0.1205
  118OSM   H17G12410   3.720   1.296   5.383 -0.2699 -0.4328 -0.2175
  118OSM   C18F12411   3.589   1.324   5.210 -0.4171  0.8338  0.1477
  118OSM   H18F12412   3.483   1.304   5.187 -0.3988 -0.8183  1.3358
  118OSM   H18G12413   3.663   1.269   5.147 -1.1198 -0.2643  0.2532
  118OSM   H18H12414   3.614   1.432   5.202  1.4259  0.3041 -2.8187
  119OSM      N12415   2.714   4.501   7.488 -0.5749  0.2185 -0.0649
  119OSM    C1512416   2.745   4.483   7.632  0.3775  0.3158 -0.3509
  119OSM   H15A12417   2.732   4.380   7.664  0.0017  0.4218 -0.1640
  119OSM   H15B12418   2.690   4.549   7.697 -0.1433 -0.7710  0.3438
  119OSM   H15C12419   2.848   4.508   7.652  0.3322 -0.1200  0.4622
  119OSM    C1412420   2.581   4.436   7.476  0.1535  0.4094  0.1535
  119OSM   H14A12421   2.555   4.438   7.372 -3.9400  2.1227  1.0106
  119OSM   H14B12422   2.501   4.487   7.528  1.8477  1.9684  1.3639
  119OSM   H14C12423   2.586   4.333   7.509 -3.1885  0.0952 -0.0344
  119OSM    C1312424   2.716   4.651   7.463 -0.4769  0.0624 -0.5522
  119OSM   H13A12425   2.635   4.701   7.515 -0.2502  0.5087 -0.6230
  119OSM   H13B12426   2.703   4.665   7.357 -2.6857 -1.4355 -0.5364
  119OSM   H13C12427   2.808   4.696   7.498 -0.1133 -1.5480  0.6348
  119OSM    C1212428   2.824   4.442   7.399  0.5967  0.2381  0.0790
  119OSM   H12A12429   2.832   4.342   7.439 -3.2114  0.4786  1.9278
  119OSM   H12B12430   2.914   4.494   7.427  0.9471 -1.1976  1.8454
  119OSM    C1112431   2.804   4.451   7.245 -0.4913  0.4159 -0.3891
  119OSM   H11A12432   2.722   4.387   7.205 -1.5734  2.3022 -1.3215
  119OSM   H11B12433   2.894   4.408   7.195 -0.1946 -0.4949  0.8887
  119OSM      P12434   2.900   4.684   7.134  0.5685  0.0516 -0.4651
  119OSM    O1312435   2.841   4.816   7.118  0.2077  0.1445 -0.2199
  119OSM    O1412436   3.027   4.668   7.206 -0.9263 -0.2284  0.5263
  119OSM    O1112437   2.909   4.616   6.991  0.1377  0.3800  0.0470
  119OSM    O1212438   2.797   4.584   7.205  0.6161 -0.5524 -0.0195
  119OSM    C1S12439   2.929   4.698   6.874 -0.7522 -0.4430 -0.0761
  119OSM    H1S12440   3.006   4.778   6.882 -0.5580 -0.4589 -1.5233
  119OSM    H1T12441   2.834   4.745   6.841 -1.4660 -0.9856  1.1344
  119OSM     NF12442   3.023   4.683   6.640  0.4269  0.0580 -0.3062
  119OSM    HNF12443   2.973   4.673   6.554 -0.1527  0.2372  0.0019
  119OSM    C2S12444   2.982   4.607   6.761 -0.7653  0.2886  0.5366
  119OSM    H2S12445   3.075   4.561   6.800 -0.4176 -1.5979 -2.2075
  119OSM    C3S12446   2.884   4.491   6.734 -1.4268  0.6255 -0.1006
  119OSM    H3S12447   2.790   4.536   6.696 -1.7941  0.2432  0.3452
  119OSM     O312448   2.846   4.409   6.845 -0.5014  0.1413  0.1121
  119OSM    HO312449   2.898   4.441   6.918 -0.5834  2.5433 -0.7869
  119OSM    C4S12450   2.954   4.408   6.631  0.0754 -0.8308 -0.1803
  119OSM    H4S12451   2.920   4.425   6.527 -0.6341  0.9782  0.3076
  119OSM    C5S12452   3.043   4.312   6.649  0.0556  0.4042  0.0866
  119OSM    H5S12453   3.062   4.279   6.752 -2.0535  0.5826  0.5660
  119OSM    C6S12454   3.092   4.208   6.545  0.0178 -0.6922 -0.3882
  119OSM    H6S12455   3.062   4.104   6.572 -0.9725 -1.4660 -3.9677
  119OSM    H6T12456   3.203   4.208   6.547  0.0268 -0.3399 -0.8600
  119OSM    C7S12457   3.038   4.245   6.405  0.0584  0.4565  0.7251
  119OSM    H7S12458   3.065   4.348   6.373  0.5365 -0.8071 -3.6245
  119OSM    H7T12459   2.927   4.242   6.398  0.1391 -1.2348 -0.4413
  119OSM    C8S12460   3.103   4.157   6.299  0.3062  0.1183  0.1590
  119OSM    H8S12461   3.106   4.048   6.322  1.9995  0.3092  1.0347
  119OSM    H8T12462   3.210   4.187   6.288  0.3628 -0.8696 -2.8860
  119OSM    C9S12463   3.031   4.173   6.160 -0.4051  0.1891  0.3247
  119OSM    H9S12464   3.000   4.280   6.159  1.9444  0.9370  0.0003
  119OSM    H9T12465   2.949   4.099   6.161  0.7684 -1.2636 -2.0116
  119OSM   C10S12466   3.126   4.155   6.044  0.3539 -0.0828  0.1075
  119OSM   H10S12467   3.214   4.223   6.047  2.8865 -3.0216 -1.5000
  119OSM   H10T12468   3.068   4.189   5.956 -1.1563  0.3037  1.2135
  119OSM   C11S12469   3.176   4.013   6.015 -0.3929  0.6303  0.7247
  119OSM   H11S12470   3.097   3.935   6.025 -1.1270  1.0511 -1.3809
  119OSM   H11T12471   3.253   3.985   6.090  1.3276 -1.7361 -1.7661
  119OSM   C12S12472   3.230   3.992   5.869 -0.0777  0.1258  0.6197
  119OSM   H12S12473   3.158   4.047   5.804 -0.1450  1.0561  1.4529
  119OSM   H12T12474   3.238   3.884   5.846 -1.0829  0.3459 -0.9515
  119OSM   C13S12475   3.372   4.038   5.861 -0.9002 -0.3140 -0.0276
  119OSM   H13S12476   3.424   3.996   5.950 -1.2428 -0.3089  0.1764
  119OSM   H13T12477   3.378   4.149   5.869  0.3186 -0.2851 -0.9882
  119OSM   C14S12478   3.456   3.993   5.733  0.4232 -0.2083 -0.1585
  119OSM   H14S12479   3.452   3.882   5.736  1.6557 -0.2613  0.0952
  119OSM   H14T12480   3.560   4.031   5.742  0.4112 -0.4191  0.9390
  119OSM   C15S12481   3.402   4.034   5.596 -0.9214 -0.6778  0.1791
  119OSM   H15S12482   3.386   4.144   5.589 -1.6948 -0.7498  0.7171
  119OSM   H15T12483   3.307   3.979   5.583 -0.1846 -2.1055  0.6050
  119OSM   C16S12484   3.492   3.984   5.491 -0.4972 -0.1289  0.3275
  119OSM   H16S12485   3.520   3.878   5.510 -1.5687 -0.3492  0.7676
  119OSM   H16T12486   3.584   4.041   5.514 -0.6426  1.4269 -2.4890
  119OSM   C17S12487   3.452   4.018   5.342  0.1116 -0.3144 -0.2901
  119OSM   H17S12488   3.350   3.977   5.323  1.0940 -2.4510 -1.3876
  119OSM   H17T12489   3.511   3.952   5.275 -1.3018 -0.1484 -1.7784
  119OSM   C18S12490   3.466   4.163   5.294  0.3616 -0.4623 -0.6676
  119OSM   H18S12491   3.566   4.207   5.316  0.0348  1.3657 -2.5407
  119OSM   H18T12492   3.397   4.229   5.352  0.4450 -1.0862  0.1619
  119OSM   H18U12493   3.449   4.158   5.185  1.3096 -2.1297 -0.7664
  119OSM    C1F12494   3.122   4.770   6.626 -0.4413  0.7437 -0.4496
  119OSM     OF12495   3.207   4.774   6.716 -0.2853 -0.1958 -0.1422
  119OSM    C2F12496   3.134   4.847   6.506  0.7890  0.4620  0.3075
  119OSM    H2F12497   3.138   4.956   6.527 -5.2899  1.1677 -0.6254
  119OSM    H2G12498   3.045   4.831   6.443  2.0278 -1.5096 -1.0577
  119OSM    C3F12499   3.254   4.801   6.421 -0.5010  0.5244  0.2832
  119OSM    H3F12500   3.245   4.691   6.408 -0.2640  0.2226  2.3930
  119OSM    H3G12501   3.348   4.816   6.478 -0.4491  0.5699  0.1861
  119OSM    C4F12502   3.263   4.874   6.282  0.8514  0.7049 -0.2460
  119OSM    H4F12503   3.214   4.972   6.302 -1.4550  0.1906 -2.6801
  119OSM    H4G12504   3.186   4.841   6.208  0.9545  0.8776 -0.4299
  119OSM    C5F12505   3.391   4.878   6.207  0.8921  0.2360 -0.7195
  119OSM    H5F12506   3.424   4.772   6.204 -1.1238 -0.6722  3.1035
  119OSM    H5G12507   3.470   4.927   6.266 -0.2805  1.4018 -0.0683
  119OSM    C6F12508   3.390   4.948   6.074 -0.6499 -0.1947 -0.2103
  119OSM    H6F12509   3.347   5.051   6.073 -1.5348 -0.5549 -1.2274
  119OSM    H6G12510   3.313   4.902   6.008 -0.8204 -1.2631  0.6866
  119OSM    C7F12511   3.527   4.945   6.003 -0.7466 -0.1894  0.1998
  119OSM    H7F12512   3.578   4.847   5.988  0.3651  0.7556 -2.6752
  119OSM    H7G12513   3.583   5.002   6.080  1.5121 -0.7701 -0.9503
  119OSM    C8F12514   3.518   5.032   5.871 -0.4845  0.6983  0.3317
  119OSM    H8F12515   3.623   5.068   5.864  0.3526 -1.8709 -1.9724
  119OSM    H8G12516   3.442   5.110   5.893  0.0245  1.9009 -1.8605
  119OSM    C9F12517   3.468   4.953   5.758  0.3705 -0.0612  0.0508
  119OSM    H9F12518   3.412   4.863   5.789 -1.3342  0.8490 -0.2142
  119OSM   C10F12519   3.487   4.981   5.628  0.1564  0.3005  0.4701
  119OSM   H10F12520   3.448   4.910   5.554  0.4792  0.6016 -0.0014
  119OSM   C11F12521   3.557   5.098   5.568  0.1413  0.3786  0.4890
  119OSM   H11F12522   3.668   5.097   5.573  0.3316  1.5327 -2.0292
  119OSM   H11G12523   3.524   5.192   5.617  1.7061  1.2082  0.0176
  119OSM   C12F12524   3.524   5.133   5.420 -0.2779 -0.2870 -0.5551
  119OSM   H12F12525   3.560   5.049   5.357  1.7480  0.0791  0.0395
  119OSM   H12G12526   3.581   5.219   5.381 -2.3142  2.3555  1.8410
  119OSM   C13F12527   3.372   5.166   5.413 -0.2923 -0.2299 -0.1370
  119OSM   H13F12528   3.337   5.232   5.494  0.8550  0.6757 -0.3444
  119OSM   H13G12529   3.319   5.070   5.431 -1.1982  0.2483 -0.2233
  119OSM   C14F12530   3.341   5.239   5.275 -0.1167  0.0443 -0.1495
  119OSM   H14F12531   3.409   5.325   5.258  3.0249 -2.3674 -0.6580
  119OSM   H14G12532   3.231   5.258   5.272 -0.2002 -0.5088 -0.7164
  119OSM   C15F12533   3.377   5.146   5.155 -0.1679 -0.0535 -0.7418
  119OSM   H15F12534   3.335   5.046   5.181  0.2079 -0.6422 -2.2661
  119OSM   H15G12535   3.488   5.142   5.158 -0.0980  1.5379 -0.1994
  119OSM   C16F12536   3.328   5.198   5.019 -0.7872 -0.0676 -0.1474
  119OSM   H16F12537   3.378   5.135   4.941  0.5981  1.9289 -0.9539
  119OSM   H16G12538   3.367   5.301   5.006 -0.1003 -0.0733  1.6898
  119OSM   C17F12539   3.174   5.191   5.002 -0.3476 -0.0740 -0.5229
  119OSM   H17F12540   3.133   5.292   5.023  0.4457 -0.0365  0.9516
  119OSM   H17G12541   3.132   5.122   5.078 -2.1217  0.8572 -0.6083
  119OSM   C18F12542   3.127   5.169   4.856  0.0475 -0.0498  0.6798
  119OSM   H18F12543   3.167   5.254   4.797 -0.9745  0.4654  0.7235
  119OSM   H18G12544   3.017   5.172   4.850  0.0456 -1.3842 -0.5111
  119OSM   H18H12545   3.161   5.073   4.812  3.7547  2.1969 -1.9184
  120OSM      N12546   0.065   2.103   7.333 -0.3587 -0.2290  0.0906
  120OSM    C1512547  -0.067   2.049   7.320  0.4638 -0.8566 -0.5706
  120OSM   H15A12548  -0.121   2.075   7.230 -2.6156  0.6239  1.5283
  120OSM   H15B12549  -0.132   2.075   7.402 -0.8645 -0.8931 -1.5905
  120OSM   H15C12550  -0.054   1.942   7.316 -0.9092 -1.0598 -0.0773
  120OSM    C1412551   0.121   2.050   7.461  0.5569  0.7393  0.1541
  120OSM   H14A12552   0.225   2.076   7.473  1.0030 -0.6382 -0.4708
  120OSM   H14B12553   0.113   1.942   7.464 -1.4626  0.8826  1.9864
  120OSM   H14C12554   0.068   2.092   7.545 -0.1876 -1.8800  1.0788
  120OSM    C1312555   0.149   2.049   7.219  0.1641 -0.8005 -0.3585
  120OSM   H13A12556   0.108   2.075   7.123 -1.6146 -2.5726 -0.1421
  120OSM   H13B12557   0.165   1.942   7.214  2.8613 -0.4200 -2.5311
  120OSM   H13C12558   0.249   2.089   7.217  0.2947 -1.0945  0.0042
  120OSM    C1212559   0.078   2.256   7.350  0.1497  0.5487  0.5598
  120OSM   H12A12560   0.182   2.284   7.357 -0.1021  2.0762 -0.8802
  120OSM   H12B12561   0.021   2.288   7.436  1.4690  1.9758  0.9486
  120OSM    C1112562   0.016   2.349   7.236  0.0168  0.8221 -0.4859
  120OSM   H11A12563   0.035   2.456   7.254 -2.2129  0.8986  1.9649
  120OSM   H11B12564  -0.093   2.333   7.247  0.2045 -0.1883  0.0591
  120OSM      P12565   0.184   2.357   7.015  0.2102  0.0859  0.1630
  120OSM    O1312566   0.214   2.495   7.048 -0.4410 -0.1607 -1.0158
  120OSM    O1412567   0.296   2.256   7.038  0.2166 -0.5191 -0.4102
  120OSM    O1112568   0.141   2.353   6.855 -0.4172  0.4208  0.3603
  120OSM    O1212569   0.054   2.304   7.101  0.1837  0.2915 -0.3819
  120OSM    C1S12570   0.015   2.391   6.803 -0.5152 -0.2954 -0.2599
  120OSM    H1S12571   0.006   2.500   6.823  3.4300 -0.1150  1.5743
  120OSM    H1T12572  -0.059   2.335   6.863  0.2767 -1.1643 -0.0729
  120OSM     NF12573  -0.133   2.412   6.596 -0.1711  0.1159  0.1478
  120OSM    HNF12574  -0.199   2.344   6.566  0.6300 -0.9424  0.6924
  120OSM    C2S12575  -0.003   2.370   6.647 -0.7721  0.0380 -0.0087
  120OSM    H2S12576   0.078   2.435   6.607 -1.1399  1.5817  1.6252
  120OSM    C3S12577   0.037   2.223   6.606 -0.3057  0.3090 -0.4375
  120OSM    H3S12578  -0.025   2.148   6.661  0.9903 -0.3343  0.1708
  120OSM     O312579   0.175   2.191   6.644 -0.0493 -0.0750  0.5283
  120OSM    HO312580   0.197   2.275   6.684 -1.6956  0.8022 -0.3080
  120OSM    C4S12581   0.014   2.194   6.458  0.4617  0.7632 -0.0485
  120OSM    H4S12582  -0.085   2.151   6.433 -0.0036  2.2747 -0.9596
  120OSM    C5S12583   0.103   2.216   6.353  0.2207 -0.7876  0.1294
  120OSM    H5S12584   0.200   2.267   6.365 -0.7698  1.7283 -1.7626
  120OSM    C6S12585   0.076   2.192   6.208  0.1981  0.7113  0.1718
  120OSM    H6S12586   0.094   2.281   6.144 -1.2657 -0.5594 -2.1257
  120OSM    H6T12587  -0.032   2.170   6.194  0.6639 -2.4964  0.8480
  120OSM    C7S12588   0.146   2.057   6.163  0.4378 -0.3086  0.2481
  120OSM    H7S12589   0.109   1.976   6.230 -1.8005  1.6028  1.4495
  120OSM    H7T12590   0.254   2.067   6.185  0.4468 -1.1952  0.6320
  120OSM    C8S12591   0.132   2.034   6.009  0.0174 -0.4095  0.6557
  120OSM    H8S12592   0.146   2.129   5.953 -0.6367 -0.1589  0.9052
  120OSM    H8T12593   0.032   1.987   5.996  0.1105 -0.1865 -1.1114
  120OSM    C9S12594   0.241   1.942   5.967  0.0622  0.7843 -0.0854
  120OSM    H9S12595   0.245   1.848   6.025  1.8680  0.6136 -0.4311
  120OSM    H9T12596   0.332   2.006   5.969  1.0908 -0.5589 -1.4724
  120OSM   C10S12597   0.213   1.916   5.815  0.2166 -0.2145 -0.7452
  120OSM   H10S12598   0.206   2.011   5.759 -1.2591  0.7141  0.9308
  120OSM   H10T12599   0.124   1.850   5.809  0.2921 -0.5965  1.4406
  120OSM   C11S12600   0.324   1.840   5.743 -0.4795 -0.0626  0.2808
  120OSM   H11S12601   0.368   1.758   5.804  0.0053 -0.4047 -0.5156
  120OSM   H11T12602   0.412   1.907   5.743 -1.8582  1.8189  1.0618
  120OSM   C12S12603   0.286   1.790   5.596 -0.8971 -0.0273 -1.1414
  120OSM   H12S12604   0.179   1.759   5.600 -0.9558  0.2324  2.0271
  120OSM   H12T12605   0.346   1.700   5.571  1.4345  1.6066 -1.8082
  120OSM   C13S12606   0.312   1.896   5.484  0.1259 -0.3295  0.7187
  120OSM   H13S12607   0.417   1.931   5.483 -0.2307  0.7608  0.3748
  120OSM   H13T12608   0.248   1.983   5.513 -0.0592  0.4943 -1.9188
  120OSM   C14S12609   0.261   1.854   5.340  0.1293  0.5996 -0.3895
  120OSM   H14S12610   0.153   1.875   5.324 -0.7595 -1.3560  2.4058
  120OSM   H14T12611   0.283   1.746   5.332 -2.1068  0.1517 -1.2993
  120OSM   C15S12612   0.343   1.924   5.232 -0.5521 -0.4449 -0.1393
  120OSM   H15S12613   0.450   1.911   5.259 -0.5185 -1.0915 -0.5537
  120OSM   H15T12614   0.316   2.032   5.230  1.2589  0.0431  0.2825
  120OSM   C16S12615   0.328   1.863   5.092 -0.8699  0.2333  0.1022
  120OSM   H16S12616   0.369   1.760   5.087 -1.5167 -0.0463  0.4220
  120OSM   H16T12617   0.375   1.934   5.021 -0.6137 -1.6929 -1.7434
  120OSM   C17S12618   0.183   1.860   5.049  0.1419  1.0388  0.4312
  120OSM   H17S12619   0.144   1.964   5.051 -2.6618  0.1126 -0.8002
  120OSM   H17T12620   0.136   1.796   5.126  2.2237  0.8822  1.6458
  120OSM   C18S12621   0.158   1.806   4.907 -0.2936 -0.3640  0.1804
  120OSM   H18S12622   0.169   1.885   4.830 -1.7091  0.0370  0.3759
  120OSM   H18T12623   0.060   1.754   4.899 -1.2793  0.8624  3.2246
  120OSM   H18U12624   0.237   1.729   4.891 -2.4290 -2.4151 -1.2955
  120OSM    C1F12625  -0.167   2.540   6.583  0.1414  0.3392  0.1574
  120OSM     OF12626  -0.081   2.624   6.572  0.2537  0.0934  0.3011
  120OSM    C2F12627  -0.309   2.573   6.592 -0.7166  0.4598 -0.3311
  120OSM    H2F12628  -0.322   2.646   6.674  1.3094  2.0798 -1.3571
  120OSM    H2G12629  -0.362   2.475   6.601  0.9655 -0.3804  0.9904
  120OSM    C3F12630  -0.361   2.627   6.457  0.6882  0.4668 -0.3992
  120OSM    H3F12631  -0.334   2.561   6.371 -0.9079 -1.6434  0.6228
  120OSM    H3G12632  -0.309   2.722   6.434  1.7622  0.3872  1.5505
  120OSM    C4F12633  -0.513   2.654   6.464 -0.5954  0.3112 -0.4206
  120OSM    H4F12634  -0.535   2.717   6.553 -0.7221 -1.4854  0.8849
  120OSM    H4G12635  -0.558   2.558   6.497  1.1155 -0.2785  0.3119
  120OSM    C5F12636  -0.582   2.722   6.341 -0.0740  0.3085 -0.3661
  120OSM    H5F12637  -0.526   2.818   6.342  1.0965 -0.2266  3.8003
  120OSM    H5G12638  -0.692   2.727   6.352 -0.1128  0.3577 -0.7698
  120OSM    C6F12639  -0.588   2.636   6.218 -0.7942 -0.3364 -0.1772
  120OSM    H6F12640  -0.660   2.552   6.222 -0.4679 -0.5996  0.1869
  120OSM    H6G12641  -0.489   2.587   6.211  0.1717  1.6503 -1.2394
  120OSM    C7F12642  -0.615   2.726   6.098 -0.0937 -0.6727  0.7284
  120OSM    H7F12643  -0.534   2.801   6.095 -0.8410  0.1907  1.4476
  120OSM    H7G12644  -0.709   2.785   6.105 -0.5261 -1.3501  0.7616
  120OSM    C8F12645  -0.596   2.644   5.969  0.1829 -0.0623  0.7208
  120OSM    H8F12646  -0.668   2.559   5.963  1.8077 -1.3767 -1.5533
  120OSM    H8G12647  -0.498   2.593   5.965  0.3561  0.3388 -1.8233
  120OSM    C9F12648  -0.596   2.710   5.836 -0.4975  0.2419  0.7397
  120OSM    H9F12649  -0.512   2.774   5.803 -1.7947  0.1406 -3.3878
  120OSM   C10F12650  -0.692   2.686   5.743  0.2659 -0.3635 -0.3235
  120OSM   H10F12651  -0.689   2.748   5.653 -1.4829  0.8624  0.4083
  120OSM   C11F12652  -0.821   2.611   5.748  0.1710 -0.3214 -0.7427
  120OSM   H11F12653  -0.888   2.698   5.766 -1.3216 -1.0386 -2.5574
  120OSM   H11G12654  -0.821   2.536   5.830  1.7606 -0.1436 -0.5610
  120OSM   C12F12655  -0.862   2.540   5.621  0.3811 -0.0153  0.1704
  120OSM   H12F12656  -0.842   2.604   5.533  2.3067 -0.7248  0.0269
  120OSM   H12G12657  -0.970   2.515   5.623  0.4082 -0.2176 -0.7127
  120OSM   C13F12658  -0.786   2.411   5.585  0.2297  0.6484 -0.3321
  120OSM   H13F12659  -0.807   2.340   5.667  1.4456  0.2481 -0.3464
  120OSM   H13G12660  -0.677   2.432   5.574  0.3328  0.2393 -0.0877
  120OSM   C14F12661  -0.829   2.358   5.448  0.0095 -0.1921 -0.8803
  120OSM   H14F12662  -0.822   2.435   5.369 -0.3212  1.3554  0.5486
  120OSM   H14G12663  -0.933   2.324   5.467  0.4462 -1.3962 -0.4931
  120OSM   C15F12664  -0.749   2.231   5.405  0.2578  0.0178 -0.0405
  120OSM   H15F12665  -0.755   2.165   5.494  1.1214  2.0406  1.6144
  120OSM   H15G12666  -0.646   2.263   5.380 -0.3099  0.9164 -1.3402
  120OSM   C16F12667  -0.807   2.155   5.278  0.6622  0.2883 -0.1242
  120OSM   H16F12668  -0.914   2.127   5.289  0.3587  1.2411 -0.5578
  120OSM   H16G12669  -0.752   2.062   5.252  0.4551  0.2665 -0.4927
  120OSM   C17F12670  -0.815   2.242   5.145  0.1748 -0.4921 -0.0558
  120OSM   H17F12671  -0.727   2.225   5.079  0.8742  1.0268  0.4204
  120OSM   H17G12672  -0.806   2.350   5.171 -3.3904 -0.7654  3.2390
  120OSM   C18F12673  -0.947   2.204   5.082  0.4019 -0.6496  0.9587
  120OSM   H18F12674  -0.954   2.094   5.067  1.5726 -0.5810 -0.3752
  120OSM   H18G12675  -0.957   2.241   4.977  1.3427  1.7936  1.6684
  120OSM   H18H12676  -1.037   2.246   5.131  0.3909 -0.4186  0.7431
  121OSM      N12677   1.459   0.519   7.505 -0.0141 -0.1372  0.3846
  121OSM    C1512678   1.400   0.461   7.632 -0.4421 -0.5514 -0.1546
  121OSM   H15A12679   1.480   0.405   7.677 -0.0665 -0.0619 -0.2009
  121OSM   H15B12680   1.316   0.395   7.615  1.0389 -2.6808  0.3752
  121OSM   H15C12681   1.370   0.537   7.703  1.6588  0.6347 -0.4765
  121OSM    C1412682   1.569   0.612   7.550 -0.2793  0.2139 -0.6878
  121OSM   H14A12683   1.624   0.664   7.474  0.1753  4.3417  2.1322
  121OSM   H14B12684   1.636   0.556   7.614  0.7486 -0.1730 -2.0390
  121OSM   H14C12685   1.523   0.694   7.604 -1.8770 -1.0038 -0.0964
  121OSM    C1312686   1.524   0.410   7.432  0.0895 -1.1550  0.0206
  121OSM   H13A12687   1.559   0.458   7.341 -0.9637 -2.5217 -1.1385
  121OSM   H13B12688   1.452   0.338   7.398 -1.2265  0.2665 -0.3270
  121OSM   H13C12689   1.600   0.376   7.501  0.1178  1.0848  1.1982
  121OSM    C1212690   1.360   0.594   7.421  0.0188  0.5338  0.0913
  121OSM   H12A12691   1.407   0.644   7.338  0.4766  0.0142  0.0354
  121OSM   H12B12692   1.307   0.653   7.496  0.5569 -0.2918  1.1442
  121OSM    C1112693   1.244   0.513   7.355 -0.4101 -0.7533  0.5272
  121OSM   H11A12694   1.170   0.586   7.315  1.9852  2.5098  1.6218
  121OSM   H11B12695   1.187   0.464   7.437 -2.6505  2.6654  1.2581
  121OSM      P12696   1.214   0.286   7.217 -0.2000 -0.0962 -0.2471
  121OSM    O1312697   1.276   0.227   7.095 -0.2834 -0.6563 -0.2114
  121OSM    O1412698   1.218   0.193   7.336 -0.2096 -0.8720  0.5331
  121OSM    O1112699   1.071   0.329   7.197 -0.3276  0.1579 -0.1783
  121OSM    O1212700   1.299   0.418   7.264  0.1787 -0.2057  0.1386
  121OSM    C1S12701   1.029   0.430   7.104 -0.2430 -0.3682 -0.1800
  121OSM    H1S12702   1.104   0.509   7.084 -0.6218 -0.1993 -0.9810
  121OSM    H1T12703   0.946   0.487   7.151  0.5200  0.6533 -0.0330
  121OSM     NF12704   0.946   0.498   6.882 -1.5239  0.1685 -0.1867
  121OSM    HNF12705   0.849   0.514   6.868 -1.5657  1.4152  1.2991
  121OSM    C2S12706   0.973   0.381   6.969 -0.1394  0.3113 -0.1693
  121OSM    H2S12707   1.051   0.318   6.921  2.6927  3.2438  0.2922
  121OSM    C3S12708   0.851   0.280   7.007  0.0437  1.1493 -0.7283
  121OSM    H3S12709   0.783   0.342   7.070  0.0820 -0.4558  0.9721
  121OSM     O312710   0.887   0.172   7.093 -0.5417  0.1063  0.1985
  121OSM    HO312711   0.957   0.213   7.143 -0.5140  1.6735 -1.0431
  121OSM    C4S12712   0.772   0.240   6.884 -0.3066 -0.0965 -0.3619
  121OSM    H4S12713   0.736   0.330   6.832  2.6009  1.0249 -0.6418
  121OSM    C5S12714   0.761   0.120   6.823  0.3051 -0.5440  0.0803
  121OSM    H5S12715   0.809   0.031   6.867  0.7996  0.3725  1.4522
  121OSM    C6S12716   0.695   0.102   6.685  0.8446 -0.8421  0.0096
  121OSM    H6S12717   0.660   0.201   6.646 -1.5491 -2.3723 -2.0513
  121OSM    H6T12718   0.597   0.053   6.700  1.3260 -1.5646  0.8724
  121OSM    C7S12719   0.777   0.029   6.571 -0.0031 -0.1791 -0.7272
  121OSM    H7S12720   0.817  -0.061   6.622  0.8855  1.4662  1.7147
  121OSM    H7T12721   0.868   0.087   6.543  1.1800  0.2248  3.2868
  121OSM    C8S12722   0.698  -0.002   6.444 -0.8061 -0.0233  0.0296
  121OSM    H8S12723   0.758  -0.028   6.354 -1.8939 -0.4937 -0.5792
  121OSM    H8T12724   0.655   0.094   6.410  3.0276  1.0780 -2.3281
  121OSM    C9S12725   0.583  -0.108   6.457  0.1916  0.0811 -0.1091
  121OSM    H9S12726   0.509  -0.085   6.536  0.7777 -0.5758  0.6424
  121OSM    H9T12727   0.636  -0.201   6.487  0.0283 -0.2792 -0.9061
  121OSM   C10S12728   0.496  -0.130   6.339  0.3805  1.0555 -0.2483
  121OSM   H10S12729   0.465  -0.041   6.280  0.2314  0.4046 -1.1792
  121OSM   H10T12730   0.407  -0.192   6.360  2.3280 -1.6147  0.7497
  121OSM   C11S12731   0.584  -0.220   6.237  0.0461  0.5093  0.3537
  121OSM   H11S12732   0.587  -0.318   6.288 -3.3072 -0.4362 -1.0054
  121OSM   H11T12733   0.690  -0.188   6.230  1.0685 -1.7906  3.1778
  121OSM   C12S12734   0.513  -0.229   6.101 -0.4693 -1.1055  0.3276
  121OSM   H12S12735   0.403  -0.240   6.115 -0.3918 -0.1739  1.9113
  121OSM   H12T12736   0.565  -0.296   6.030  0.6990 -0.6486  0.7209
  121OSM   C13S12737   0.521  -0.091   6.023  0.3273  0.3043 -0.5599
  121OSM   H13S12738   0.625  -0.052   6.027  0.0356  0.9967  0.7582
  121OSM   H13T12739   0.453  -0.018   6.072 -2.4024 -1.1233 -2.0112
  121OSM   C14S12740   0.465  -0.095   5.884 -0.6090  0.6287  1.3846
  121OSM   H14S12741   0.362  -0.053   5.881 -0.1828  1.8578  2.6734
  121OSM   H14T12742   0.460  -0.202   5.858  1.5288  0.4904  1.3154
  121OSM   C15S12743   0.542  -0.025   5.774 -0.7223  0.5060 -0.1243
  121OSM   H15S12744   0.646  -0.061   5.788 -1.0116 -0.5568 -0.6095
  121OSM   H15T12745   0.558   0.084   5.785  0.1548  0.5749 -1.8128
  121OSM   C16S12746   0.504  -0.068   5.630 -0.2740  0.1425  0.9612
  121OSM   H16S12747   0.545  -0.005   5.548 -2.0003 -2.9205 -2.5788
  121OSM   H16T12748   0.396  -0.055   5.608 -0.1502 -1.6716 -1.1250
  121OSM   C17S12749   0.528  -0.214   5.592 -0.3580 -0.2877  0.4433
  121OSM   H17S12750   0.471  -0.283   5.659 -1.3895  0.8870  0.8183
  121OSM   H17T12751   0.635  -0.236   5.612  0.1172  0.1682 -1.4214
  121OSM   C18S12752   0.488  -0.254   5.449 -0.1377 -0.2631  0.3322
  121OSM   H18S12753   0.557  -0.203   5.378 -2.3344  3.2345  0.4528
  121OSM   H18T12754   0.380  -0.234   5.429 -0.8545 -1.5592  2.4894
  121OSM   H18U12755   0.492  -0.365   5.452 -2.1676 -0.3589  2.2001
  121OSM    C1F12756   1.042   0.573   6.826 -0.1719  0.2878  0.3257
  121OSM     OF12757   1.162   0.545   6.848 -0.0323 -0.3052 -0.4794
  121OSM    C2F12758   1.006   0.680   6.723  0.4788 -0.4394 -0.4595
  121OSM    H2F12759   1.093   0.687   6.654  1.5509  1.1156  0.9535
  121OSM    H2G12760   0.987   0.775   6.777  0.6321  2.1966 -4.6214
  121OSM    C3F12761   0.873   0.657   6.644  0.6605  0.8550 -0.2353
  121OSM    H3F12762   0.848   0.752   6.591 -1.6607  0.7051  0.4939
  121OSM    H3G12763   0.785   0.641   6.709  1.2605  0.1966  0.4268
  121OSM    C4F12764   0.889   0.544   6.535  0.1979  0.1516 -0.2284
  121OSM    H4F12765   0.905   0.447   6.587  2.0552 -0.2787 -1.4777
  121OSM    H4G12766   0.975   0.576   6.472 -2.5731  2.7438 -3.0179
  121OSM    C5F12767   0.780   0.545   6.428 -0.2908  0.0731 -0.0107
  121OSM    H5F12768   0.808   0.607   6.340  2.2083  1.0784  1.3928
  121OSM    H5G12769   0.684   0.584   6.468 -0.5339 -1.0112  0.5083
  121OSM    C6F12770   0.756   0.412   6.368  0.2176  0.6726  0.2948
  121OSM    H6F12771   0.743   0.329   6.441  1.5086 -1.8818 -2.1820
  121OSM    H6G12772   0.859   0.397   6.328 -0.0004  0.5187 -0.2148
  121OSM    C7F12773   0.651   0.416   6.257  0.1631  0.7351  0.3543
  121OSM    H7F12774   0.650   0.519   6.215 -3.6535 -0.3483 -2.7536
  121OSM    H7G12775   0.550   0.393   6.298  1.3439 -4.3319  1.1074
  121OSM    C8F12776   0.690   0.328   6.138 -0.2415 -0.0967 -0.9577
  121OSM    H8F12777   0.716   0.226   6.175  1.0507  1.4108  2.7330
  121OSM    H8G12778   0.779   0.379   6.095  0.5979 -1.4063 -0.8474
  121OSM    C9F12779   0.589   0.314   6.023 -1.5560  0.1323 -0.1978
  121OSM    H9F12780   0.527   0.223   6.025 -1.3417  0.0048  1.1906
  121OSM   C10F12781   0.588   0.384   5.906 -0.4858  0.6797 -0.6282
  121OSM   H10F12782   0.517   0.353   5.827 -0.8740 -0.0431 -0.0037
  121OSM   C11F12783   0.672   0.501   5.870 -0.3232 -0.4779  0.2921
  121OSM   H11F12784   0.719   0.541   5.962  0.4911 -0.9200  0.0818
  121OSM   H11G12785   0.612   0.584   5.827  1.3354  0.6160  0.0059
  121OSM   C12F12786   0.768   0.447   5.754 -0.3503 -0.7962  0.1796
  121OSM   H12F12787   0.843   0.371   5.785  1.3946  0.6814 -0.2488
  121OSM   H12G12788   0.820   0.540   5.724 -2.9308  1.0893  1.1479
  121OSM   C13F12789   0.702   0.395   5.626  0.3289 -0.4420  0.1473
  121OSM   H13F12790   0.638   0.479   5.592  0.1341 -1.1743 -1.3385
  121OSM   H13G12791   0.640   0.307   5.655  0.9176 -0.3824  1.7328
  121OSM   C14F12792   0.784   0.355   5.509 -0.3209  0.0977  0.1387
  121OSM   H14F12793   0.829   0.256   5.530  0.6250  0.2422 -1.0823
  121OSM   H14G12794   0.872   0.421   5.498 -0.3737  0.0963 -0.3458
  121OSM   C15F12795   0.695   0.357   5.382 -0.0874 -0.4891  0.4477
  121OSM   H15F12796   0.699   0.454   5.328  0.0233 -0.0175  1.2931
  121OSM   H15G12797   0.588   0.335   5.402 -0.1889  0.8902  1.5415
  121OSM   C16F12798   0.740   0.255   5.277 -0.0203  0.1383  0.7444
  121OSM   H16F12799   0.708   0.151   5.300 -1.3167 -0.0812 -1.6965
  121OSM   H16G12800   0.849   0.259   5.259 -0.3724  0.0015 -1.8727
  121OSM   C17F12801   0.679   0.297   5.134 -0.0740  0.0547  0.3576
  121OSM   H17F12802   0.739   0.385   5.104 -0.9532  0.8973  0.9867
  121OSM   H17G12803   0.574   0.331   5.150 -0.4020  0.1870 -1.7581
  121OSM   C18F12804   0.677   0.186   5.035  0.4611 -1.0397  0.5291
  121OSM   H18F12805   0.781   0.178   4.998 -0.3294 -0.5388 -2.0372
  121OSM   H18G12806   0.622   0.207   4.940 -0.0176  0.1748  1.0578
  121OSM   H18H12807   0.645   0.091   5.084  0.3384 -0.9516  0.6223
  122OSM      N12808   1.116   1.900   7.049 -0.2905  0.0330 -0.7129
  122OSM    C1512809   1.187   1.883   6.918 -0.1431 -0.1262  0.0360
  122OSM   H15A12810   1.291   1.858   6.935 -0.2504 -1.6942 -1.3388
  122OSM   H15B12811   1.178   1.980   6.870  0.9560  0.5303  1.1146
  122OSM   H15C12812   1.140   1.804   6.861  1.2220  1.2954 -3.3387
  122OSM    C1412813   1.171   2.009   7.131 -0.4980 -0.0780  0.4521
  122OSM   H14A12814   1.271   1.993   7.169  0.1326  1.0174 -0.6936
  122OSM   H14B12815   1.115   2.027   7.221 -1.5361  0.5148 -0.2944
  122OSM   H14C12816   1.174   2.100   7.073  2.2960  0.0438  0.6151
  122OSM    C1312817   0.969   1.925   7.029  0.3629  0.1682  0.0927
  122OSM   H13A12818   0.929   1.829   7.004 -0.6443  0.4538  0.5455
  122OSM   H13B12819   0.942   1.995   6.951  0.5532 -0.8296 -0.8932
  122OSM   H13C12820   0.924   1.952   7.124  1.6531 -3.2385  1.8284
  122OSM    C1212821   1.129   1.777   7.131  0.1147  0.6946  0.5259
  122OSM   H12A12822   1.050   1.795   7.202 -0.2576  0.5010  0.1646
  122OSM   H12B12823   1.222   1.766   7.185 -0.0980 -1.7869  0.4907
  122OSM    C1112824   1.100   1.637   7.060  0.3784 -0.0471 -0.2630
  122OSM   H11A12825   1.112   1.555   7.133  2.1706  2.2216  2.1796
  122OSM   H11B12826   1.180   1.620   6.985 -0.2596  0.3599 -1.0515
  122OSM      P12827   0.862   1.538   7.019  0.0174 -0.1053  0.2111
  122OSM    O1312828   0.894   1.462   7.142 -0.1859 -0.1437 -0.4721
  122OSM    O1412829   0.724   1.599   7.021 -0.1688  0.0203 -0.5454
  122OSM    O1112830   0.868   1.434   6.896 -0.4313  0.2456 -0.1268
  122OSM    O1212831   0.976   1.643   6.989  0.2061 -0.2552 -0.5394
  122OSM    C1S12832   0.991   1.363   6.871 -0.1884  0.5431  0.7729
  122OSM    H1S12833   0.992   1.263   6.920  1.5074  1.0209  1.7776
  122OSM    H1T12834   1.089   1.407   6.896 -1.0720  2.3296  1.2082
  122OSM     NF12835   1.116   1.232   6.691  0.4281  0.0752 -0.4996
  122OSM    HNF12836   1.201   1.263   6.649  0.3511  0.9309 -0.0349
  122OSM    C2S12837   1.010   1.331   6.717 -0.2515 -0.3636  0.4486
  122OSM    H2S12838   0.913   1.291   6.679 -0.3168  0.8962 -0.7822
  122OSM    C3S12839   1.025   1.470   6.635  0.3407 -0.4961 -0.3744
  122OSM    H3S12840   1.132   1.494   6.649  0.0566  0.8780 -0.4556
  122OSM     O312841   0.941   1.578   6.681  0.1080 -0.4507 -0.6763
  122OSM    HO312842   0.890   1.528   6.745 -1.1792 -1.2863 -2.3005
  122OSM    C4S12843   0.991   1.444   6.488 -0.3907 -0.0831  0.6434
  122OSM    H4S12844   1.074   1.403   6.428 -1.2120  1.2213 -1.5064
  122OSM    C5S12845   0.878   1.480   6.422 -0.7241 -1.0621  0.0890
  122OSM    H5S12846   0.791   1.514   6.480  0.5535  0.2423  1.3065
  122OSM    C6S12847   0.861   1.472   6.275  0.5027 -0.1852 -0.2343
  122OSM    H6S12848   0.858   1.575   6.235  0.9026  1.0163  2.6098
  122OSM    H6T12849   0.756   1.439   6.258  0.3625  0.3678 -0.4656
  122OSM    C7S12850   0.943   1.387   6.180  0.8820  0.0200 -0.5872
  122OSM    H7S12851   0.936   1.279   6.207  1.7562  0.1335  0.1373
  122OSM    H7T12852   1.048   1.415   6.200  0.3855  0.6583  1.3332
  122OSM    C8S12853   0.894   1.414   6.036 -0.2747 -0.3401  0.1288
  122OSM    H8S12854   0.910   1.524   6.029  0.0137 -0.0964  3.2936
  122OSM    H8T12855   0.786   1.388   6.032 -0.4361  0.4711 -1.2919
  122OSM    C9S12856   0.970   1.332   5.930 -0.4505  0.4182 -0.3521
  122OSM    H9S12857   0.954   1.222   5.940  0.3328  0.3523  0.2434
  122OSM    H9T12858   1.081   1.340   5.926 -0.2488 -1.3599  0.7504
  122OSM   C10S12859   0.914   1.380   5.798  0.8883 -0.1047  0.2489
  122OSM   H10S12860   0.935   1.489   5.790 -0.0463  0.0697  0.0749
  122OSM   H10T12861   0.804   1.368   5.794  0.7558  0.3911  1.7728
  122OSM   C11S12862   0.962   1.292   5.677 -0.4201 -0.0263  0.1129
  122OSM   H11S12863   0.936   1.187   5.700  0.2323 -0.1883  0.1519
  122OSM   H11T12864   1.070   1.314   5.661 -0.7474  2.0149  0.3714
  122OSM   C12S12865   0.907   1.324   5.538  0.2646 -0.0708  0.3649
  122OSM   H12S12866   0.925   1.432   5.517  1.2619  0.0503  1.6972
  122OSM   H12T12867   0.797   1.309   5.539  0.3945 -1.1090 -0.2641
  122OSM   C13S12868   0.963   1.229   5.431  0.2667 -0.4257 -0.3558
  122OSM   H13S12869   0.965   1.128   5.476 -0.6626 -0.8590 -1.2342
  122OSM   H13T12870   1.072   1.246   5.417  0.8362 -2.8120  0.6861
  122OSM   C14S12871   0.884   1.240   5.303  0.4864 -0.5334  0.0121
  122OSM   H14S12872   0.829   1.337   5.306  0.7743 -0.3752  0.2376
  122OSM   H14T12873   0.805   1.161   5.301  1.8256 -1.9328  0.7203
  122OSM   C15S12874   0.961   1.228   5.172  0.8435 -0.0426  0.0483
  122OSM   H15S12875   0.966   1.120   5.147 -1.1605 -0.6134  1.7676
  122OSM   H15T12876   1.064   1.269   5.174  0.8073  0.1898 -1.5229
  122OSM   C16S12877   0.887   1.284   5.055  0.0614  0.2121 -0.3975
  122OSM   H16S12878   0.950   1.260   4.966  1.2199 -0.6960  0.6208
  122OSM   H16T12879   0.869   1.393   5.050 -0.4331  0.0787 -2.8354
  122OSM   C17S12880   0.756   1.217   5.025 -0.0326  0.0082 -0.3988
  122OSM   H17S12881   0.752   1.112   5.061 -0.3897  0.0804 -0.2276
  122OSM   H17T12882   0.720   1.220   4.920 -1.6384 -0.8134  0.0890
  122OSM   C18S12883   0.625   1.280   5.089  0.0411  0.4388 -0.1363
  122OSM   H18S12884   0.622   1.272   5.200 -1.4908  0.2435 -0.1690
  122OSM   H18T12885   0.545   1.209   5.055 -1.6474  1.0332  2.3287
  122OSM   H18U12886   0.611   1.386   5.059 -1.4095  0.6103  1.0409
  122OSM    C1F12887   1.113   1.105   6.718  0.4075 -0.0530  0.2902
  122OSM     OF12888   1.040   1.058   6.801 -0.2358 -0.1704 -0.2356
  122OSM    C2F12889   1.216   1.022   6.658 -0.1250 -0.0001 -0.5778
  122OSM    H2F12890   1.210   0.920   6.702 -4.0459 -0.0037 -0.7814
  122OSM    H2G12891   1.311   1.066   6.696 -0.3855  1.3689 -1.4562
  122OSM    C3F12892   1.209   1.027   6.504 -0.6538 -0.7566 -0.1501
  122OSM    H3F12893   1.304   0.994   6.458 -1.2595 -2.4055 -0.2789
  122OSM    H3G12894   1.197   1.133   6.473  1.1413 -0.2510  0.7430
  122OSM    C4F12895   1.093   0.939   6.448 -0.4320  0.5680  0.2501
  122OSM    H4F12896   1.007   0.952   6.516 -0.6101 -0.6899  0.2920
  122OSM    H4G12897   1.109   0.829   6.446 -0.1490  0.6138 -1.1893
  122OSM    C5F12898   1.043   0.974   6.305 -0.2608 -0.5144 -0.6612
  122OSM    H5F12899   1.030   1.084   6.305  2.5530 -0.0267  2.2910
  122OSM    H5G12900   0.954   0.914   6.279 -0.4778 -0.6379  0.3148
  122OSM    C6F12901   1.165   0.937   6.207  0.3235  0.2978 -0.0815
  122OSM    H6F12902   1.199   0.833   6.225 -1.8178 -0.2566  1.1996
  122OSM    H6G12903   1.249   1.004   6.237  2.1748 -1.4474 -1.1547
  122OSM    C7F12904   1.140   0.961   6.060  0.3262 -0.0982  0.0494
  122OSM    H7F12905   1.132   1.070   6.044  0.4077 -0.0641  0.2508
  122OSM    H7G12906   1.054   0.905   6.016  0.8295 -0.1417 -0.9066
  122OSM    C8F12907   1.260   0.919   5.978  0.0105 -0.3290 -0.0683
  122OSM    H8F12908   1.260   0.810   5.953  2.2692 -0.0122 -1.8027
  122OSM    H8G12909   1.350   0.928   6.043  0.2770  1.6045 -0.6436
  122OSM    C9F12910   1.284   0.999   5.854  0.6270 -0.1168 -0.3718
  122OSM    H9F12911   1.364   1.074   5.866 -0.8812  1.2873  1.5850
  122OSM   C10F12912   1.216   0.988   5.735 -0.6009 -0.3925 -0.4493
  122OSM   H10F12913   1.257   1.051   5.654 -0.4545 -1.7773 -1.4909
  122OSM   C11F12914   1.103   0.896   5.702 -0.0686  0.1180  0.3239
  122OSM   H11F12915   1.023   0.960   5.658  0.4500  1.2863  1.0171
  122OSM   H11G12916   1.059   0.845   5.789  0.1130 -0.7730 -0.0978
  122OSM   C12F12917   1.138   0.783   5.600 -0.1489 -0.1445  0.9787
  122OSM   H12F12918   1.069   0.695   5.606 -0.9259  0.2327 -1.5130
  122OSM   H12G12919   1.242   0.748   5.615  0.1090 -1.2147 -2.5449
  122OSM   C13F12920   1.121   0.829   5.450 -0.8872 -0.3906 -0.0883
  122OSM   H13F12921   1.198   0.907   5.428 -0.7261  0.0234  1.7387
  122OSM   H13G12922   1.028   0.888   5.432  0.0744  1.1454 -0.2545
  122OSM   C14F12923   1.116   0.713   5.354 -0.3050 -0.2443 -0.2881
  122OSM   H14F12924   1.041   0.635   5.382 -2.2395  1.1427 -1.3347
  122OSM   H14G12925   1.212   0.657   5.359  0.3396  0.9203  1.2875
  122OSM   C15F12926   1.099   0.754   5.204 -0.2010 -0.3407 -0.2946
  122OSM   H15F12927   0.992   0.783   5.194 -0.2519  0.2026  1.3740
  122OSM   H15G12928   1.111   0.662   5.143  0.3461 -0.5622  0.1322
  122OSM   C16F12929   1.196   0.860   5.146 -0.2096  0.2893  0.6118
  122OSM   H16F12930   1.192   0.958   5.197  0.5783  1.8020 -2.0417
  122OSM   H16G12931   1.162   0.889   5.044 -1.4015  1.8740  1.4176
  122OSM   C17F12932   1.341   0.807   5.129  0.0225  0.3234 -0.3983
  122OSM   H17F12933   1.344   0.705   5.084  1.6698  0.0048  0.3477
  122OSM   H17G12934   1.395   0.794   5.225 -2.9382  0.4847  1.4174
  122OSM   C18F12935   1.426   0.895   5.043 -0.1821 -0.0181 -0.2625
  122OSM   H18F12936   1.384   0.901   4.940  1.2754  1.7628 -0.8071
  122OSM   H18G12937   1.535   0.875   5.039  0.3156  2.0725  1.1470
  122OSM   H18H12938   1.413   0.999   5.081 -1.9012 -0.0449 -0.6806
  123OSM      N12939   2.877   0.817   2.258 -0.0543 -0.5502 -0.0803
  123OSM    C1512940   2.798   0.922   2.186  0.6452 -0.1349 -0.0553
  123OSM   H15A12941   2.842   1.020   2.186 -0.3742  0.3679 -1.6080
  123OSM   H15B12942   2.709   0.931   2.247  0.9406 -1.2843  0.5773
  123OSM   H15C12943   2.762   0.895   2.088  0.5151 -1.4749  0.3341
  123OSM    C1412944   2.809   0.687   2.264 -0.6426  0.3216  0.2931
  123OSM   H14A12945   2.864   0.607   2.311  0.6724  0.9073 -0.2086
  123OSM   H14B12946   2.792   0.655   2.162  0.4408  0.5749  0.0290
  123OSM   H14C12947   2.704   0.680   2.291 -0.8507 -1.5405 -0.8455
  123OSM    C1312948   3.007   0.809   2.174  0.0233 -0.0387  0.3380
  123OSM   H13A12949   3.050   0.908   2.175 -2.1714  0.9889  0.5954
  123OSM   H13B12950   2.987   0.786   2.071 -1.7419 -1.0008  0.8442
  123OSM   H13C12951   3.069   0.729   2.212  0.1612  0.1209  0.4486
  123OSM    C1212952   2.909   0.856   2.397  0.1141 -0.3775  0.0018
  123OSM   H12A12953   2.970   0.944   2.408  1.0479 -1.0679  0.4763
  123OSM   H12B12954   2.969   0.776   2.437  1.5848  0.7963  0.2440
  123OSM    C1112955   2.801   0.889   2.503  0.8914 -0.3579 -0.1400
  123OSM   H11A12956   2.862   0.896   2.595  1.9782 -0.8575 -0.7975
  123OSM   H11B12957   2.724   0.811   2.519  0.5144 -0.1041 -0.6961
  123OSM      P12958   2.610   1.052   2.567  0.0031 -0.0097  0.1887
  123OSM    O1312959   2.568   1.192   2.534 -0.0159 -0.0236 -0.6682
  123OSM    O1412960   2.508   0.941   2.560 -0.5072  0.0127  0.1824
  123OSM    O1112961   2.675   1.057   2.707  0.1813 -0.1667 -0.4637
  123OSM    O1212962   2.738   1.015   2.469  0.6052  0.3569 -0.6006
  123OSM    C1S12963   2.605   1.093   2.829  0.1325 -0.0231  0.2899
  123OSM    H1S12964   2.557   1.000   2.866  1.2453 -0.9929 -0.5990
  123OSM    H1T12965   2.529   1.171   2.809  1.3488  0.7593 -1.5958
  123OSM     NF12966   2.614   1.177   3.058 -0.7206  0.2534  0.8703
  123OSM    HNF12967   2.596   1.275   3.071 -0.4224  0.4713 -0.2450
  123OSM    C2S12968   2.699   1.143   2.945  0.7446 -0.7511  0.0843
  123OSM    H2S12969   2.760   1.052   2.964 -1.2049 -2.0047  0.6141
  123OSM    C3S12970   2.800   1.254   2.903 -0.2528 -0.2827  0.8690
  123OSM    H3S12971   2.734   1.338   2.871  1.5258  1.2464  1.0155
  123OSM     O312972   2.859   1.243   2.776  0.0277  0.5249 -0.6651
  123OSM    HO312973   2.807   1.175   2.734  0.6345 -1.5394  1.7143
  123OSM    C4S12974   2.911   1.292   3.003 -0.5933 -0.0991 -0.4002
  123OSM    H4S12975   2.995   1.222   2.991  0.5650  1.2037  0.0098
  123OSM    C5S12976   2.924   1.405   3.076 -0.0160 -1.0361 -0.3515
  123OSM    H5S12977   2.849   1.483   3.056  0.3965 -0.4053  0.5099
  123OSM    C6S12978   3.053   1.421   3.147  1.0309 -0.3349 -0.3595
  123OSM    H6S12979   3.132   1.430   3.069  1.7809 -0.9125  0.3198
  123OSM    H6T12980   3.064   1.325   3.202  0.2407  0.6764  1.6726
  123OSM    C7S12981   3.056   1.534   3.251  0.2692  0.5320 -1.2827
  123OSM    H7S12982   2.975   1.519   3.325  1.6122 -3.4414 -0.3111
  123OSM    H7T12983   3.048   1.632   3.200  1.4773  1.9647  1.1163
  123OSM    C8S12984   3.185   1.540   3.337  0.0567  0.1472  0.1498
  123OSM    H8S12985   3.276   1.549   3.273  1.1049 -1.2316  1.3732
  123OSM    H8T12986   3.191   1.442   3.389 -4.3630 -0.5064 -0.1895
  123OSM    C9S12987   3.167   1.650   3.436 -0.0965  0.3483  0.1506
  123OSM    H9S12988   3.084   1.629   3.507 -0.7804  1.2534 -0.3615
  123OSM    H9T12989   3.134   1.742   3.384 -3.1024  0.9245  2.7741
  123OSM   C10S12990   3.286   1.687   3.527 -0.5812 -0.3754  0.1453
  123OSM   H10S12991   3.286   1.793   3.560  1.2013 -0.5676  0.8994
  123OSM   H10T12992   3.377   1.689   3.463 -1.5189  0.6442 -1.2105
  123OSM   C11S12993   3.300   1.603   3.654  0.2256  0.2984  0.4448
  123OSM   H11S12994   3.408   1.577   3.665  1.1845  2.4596 -2.5642
  123OSM   H11T12995   3.233   1.514   3.645 -0.2905  0.8460 -2.0791
  123OSM   C12S12996   3.266   1.689   3.776  0.2252 -0.2919  0.2432
  123OSM   H12S12997   3.169   1.739   3.756  0.2408 -0.4740 -0.3046
  123OSM   H12T12998   3.337   1.774   3.783 -2.2515  1.9624 -0.2843
  123OSM   C13S12999   3.267   1.618   3.906  0.1577  0.4525 -0.2428
  123OSM   H13S13000   3.370   1.594   3.942  0.5926  0.9603 -1.1186
  123OSM   H13T13001   3.220   1.518   3.911  2.2601 -0.5491  1.9741
  123OSM   C14S13002   3.197   1.710   4.007 -0.8725  0.2507  0.3829
  123OSM   H14S13003   3.088   1.695   3.994 -0.9753  0.7733  0.6166
  123OSM   H14T13004   3.217   1.818   3.991 -1.3873  0.8134  2.9840
  123OSM   C15S13005   3.232   1.685   4.157 -0.2034  0.4704 -0.2682
  123OSM   H15S13006   3.180   1.764   4.216 -1.5139 -0.5065 -0.0716
  123OSM   H15T13007   3.340   1.685   4.184 -0.4603  0.4169  0.8380
  123OSM   C16S13008   3.163   1.560   4.218 -0.5778 -0.6955 -0.6731
  123OSM   H16S13009   3.217   1.464   4.203  1.4412  0.0303  1.4853
  123OSM   H16T13010   3.059   1.558   4.179 -0.5814 -1.6220 -0.6287
  123OSM   C17S13011   3.163   1.557   4.373 -0.0736  0.5379 -0.2396
  123OSM   H17S13012   3.129   1.456   4.404  1.7339 -0.2494 -0.7209
  123OSM   H17T13013   3.103   1.637   4.421  1.7012  0.3906  2.4231
  123OSM   C18S13014   3.309   1.565   4.429  0.2364 -0.1184  0.1583
  123OSM   H18S13015   3.372   1.494   4.370  1.7069  1.3865 -0.1887
  123OSM   H18T13016   3.303   1.539   4.536  0.3626  0.8597  0.4102
  123OSM   H18U13017   3.345   1.670   4.422  0.4073 -0.1506  0.5154
  123OSM    C1F13018   2.568   1.076   3.127  0.0467  0.2259 -0.6498
  123OSM     OF13019   2.591   0.962   3.097  0.1173  0.0828  0.1710
  123OSM    C2F13020   2.486   1.102   3.254 -0.4183  0.1598  0.4227
  123OSM    H2F13021   2.417   1.016   3.266  2.4438 -2.0290  2.5522
  123OSM    H2G13022   2.427   1.196   3.246 -0.1636  0.5956  2.7505
  123OSM    C3F13023   2.583   1.111   3.376 -0.4655 -0.1948  0.2910
  123OSM    H3F13024   2.651   1.195   3.353  2.1546 -2.2546  0.0019
  123OSM    H3G13025   2.648   1.021   3.375 -0.7607 -0.5052 -2.8560
  123OSM    C4F13026   2.499   1.128   3.507  0.1182 -0.2172  0.0175
  123OSM    H4F13027   2.408   1.186   3.479 -0.2730 -0.9304 -0.2169
  123OSM    H4G13028   2.564   1.160   3.591  2.9094 -2.4155 -1.1111
  123OSM    C5F13029   2.429   0.995   3.551  0.1971 -0.4484 -0.2942
  123OSM    H5F13030   2.368   0.959   3.465  0.6199  2.5448 -2.0083
  123OSM    H5G13031   2.375   1.017   3.645  1.5273 -1.7614  0.8233
  123OSM    C6F13032   2.538   0.891   3.589  0.5772 -0.2369 -0.2201
  123OSM    H6F13033   2.615   0.951   3.642 -1.3092  0.1377  2.3303
  123OSM    H6G13034   2.560   0.853   3.487 -1.4355  1.6247 -1.4513
  123OSM    C7F13035   2.498   0.782   3.690 -0.2680  0.0898 -0.6862
  123OSM    H7F13036   2.589   0.719   3.699  1.2628  2.1668 -0.6106
  123OSM    H7G13037   2.410   0.727   3.650  2.3052 -2.9549 -2.6517
  123OSM    C8F13038   2.469   0.839   3.837 -0.1403 -0.1223  0.5030
  123OSM    H8F13039   2.425   0.752   3.890 -1.0736 -0.7745 -1.2606
  123OSM    H8G13040   2.395   0.920   3.828 -0.1650 -0.1251  0.6717
  123OSM    C9F13041   2.590   0.899   3.904  0.5490 -0.5694  0.1943
  123OSM    H9F13042   2.686   0.867   3.860  0.4530 -0.0494 -0.4133
  123OSM   C10F13043   2.602   0.987   4.001  0.9888 -0.3023 -0.3631
  123OSM   H10F13044   2.704   1.014   4.035  0.7402 -0.0092  0.1579
  123OSM   C11F13045   2.496   1.058   4.073 -0.3575  0.3983  0.5345
  123OSM   H11F13046   2.492   1.016   4.177 -0.6448 -0.5658  0.1488
  123OSM   H11G13047   2.396   1.049   4.026 -0.3400 -0.0018  0.5701
  123OSM   C12F13048   2.516   1.202   4.095  1.1777  0.7090 -0.2301
  123OSM   H12F13049   2.613   1.222   4.148 -0.0823  1.1244  2.0572
  123OSM   H12G13050   2.441   1.246   4.163  1.3949 -0.3465  0.7218
  123OSM   C13F13051   2.517   1.281   3.963  0.0993 -0.7108  0.1970
  123OSM   H13F13052   2.415   1.297   3.923  0.4423 -0.3908 -0.5669
  123OSM   H13G13053   2.569   1.224   3.883 -1.0680 -0.4276 -0.7816
  123OSM   C14F13054   2.592   1.421   3.958  0.2935 -0.2038 -0.2830
  123OSM   H14F13055   2.692   1.403   4.004 -0.1948 -0.3115  0.7764
  123OSM   H14G13056   2.547   1.504   4.015 -0.1645  0.2875 -1.3441
  123OSM   C15F13057   2.606   1.475   3.820  0.4777  0.3810 -0.0959
  123OSM   H15F13058   2.611   1.383   3.758 -1.8986  0.6490 -0.8049
  123OSM   H15G13059   2.687   1.550   3.816 -0.7505  1.7283 -0.6053
  123OSM   C16F13060   2.478   1.556   3.785  0.3763 -0.2001  0.5446
  123OSM   H16F13061   2.450   1.636   3.858  1.9152  1.8786 -1.0126
  123OSM   H16G13062   2.396   1.482   3.779 -1.5354  1.9501 -1.7027
  123OSM   C17F13063   2.479   1.619   3.637 -0.4740 -0.2583  0.0081
  123OSM   H17F13064   2.561   1.694   3.642  0.4089 -1.2153  0.3928
  123OSM   H17G13065   2.378   1.654   3.609 -0.9594 -2.2227 -0.8725
  123OSM   C18F13066   2.519   1.513   3.526  0.0106 -0.2307 -0.1322
  123OSM   H18F13067   2.477   1.562   3.436 -2.1328 -0.8249  0.4603
  123OSM   H18G13068   2.467   1.415   3.537 -0.1442  0.0266  1.7686
  123OSM   H18H13069   2.628   1.495   3.519  0.1117 -0.0947  0.8843
  124OSM      N13070   3.253   2.568   2.472 -0.9567  0.2765  0.3379
  124OSM    C1513071   3.344   2.441   2.465 -0.0437 -0.0661  0.1891
  124OSM   H15A13072   3.386   2.428   2.367  1.5455  0.5413  0.7705
  124OSM   H15B13073   3.294   2.349   2.492  0.6981 -0.3824  0.4900
  124OSM   H15C13074   3.423   2.455   2.538 -2.2421  0.3826  2.6580
  124OSM    C1413075   3.330   2.673   2.385 -0.0891  1.2607 -0.3720
  124OSM   H14A13076   3.344   2.645   2.282  1.2548  1.6491 -0.3109
  124OSM   H14B13077   3.430   2.672   2.426 -0.7657 -1.4813  1.4689
  124OSM   H14C13078   3.289   2.770   2.411 -0.8948  0.4783  1.4471
  124OSM    C1313079   3.139   2.540   2.387  0.4922  0.8499 -0.2485
  124OSM   H13A13080   3.077   2.464   2.432  1.3663  0.2204 -0.0663
  124OSM   H13B13081   3.152   2.496   2.289 -0.3821  1.8221 -0.8239
  124OSM   H13C13082   3.074   2.626   2.378  2.8800  2.7668 -0.4995
  124OSM    C1213083   3.233   2.622   2.606  0.2133  0.7470  0.1886
  124OSM   H12A13084   3.163   2.704   2.613 -0.8317 -0.2481  2.3808
  124OSM   H12B13085   3.318   2.677   2.642  0.2244  0.9141 -0.0904
  124OSM    C1113086   3.182   2.524   2.720 -0.0732 -0.1820 -0.8617
  124OSM   H11A13087   3.195   2.580   2.815  1.0714  0.1792 -1.2145
  124OSM   H11B13088   3.250   2.438   2.735  0.4031  0.4461  0.7458
  124OSM      P13089   2.926   2.590   2.732 -0.2546  0.0095  0.0047
  124OSM    O1313090   2.994   2.726   2.755  0.3558  0.2121 -0.1046
  124OSM    O1413091   2.817   2.571   2.633  0.3315  0.2613  0.0216
  124OSM    O1113092   2.881   2.528   2.872  0.7228 -0.0677  0.1339
  124OSM    O1213093   3.038   2.484   2.699 -0.1954  0.6302  0.1294
  124OSM    C1S13094   2.930   2.407   2.926  0.1068  0.3794  0.1206
  124OSM    H1S13095   3.040   2.402   2.922  0.0673  0.0155 -0.8383
  124OSM    H1T13096   2.894   2.317   2.871  2.3320  0.0691 -0.9317
  124OSM     NF13097   2.934   2.244   3.101 -0.3758 -0.3787 -0.0456
  124OSM    HNF13098   2.865   2.172   3.107  0.5382 -1.3245 -0.4021
  124OSM    C2S13099   2.894   2.378   3.074 -1.2803 -0.1922  0.2084
  124OSM    H2S13100   2.950   2.450   3.138 -2.3365  0.1972  0.7123
  124OSM    C3S13101   2.745   2.419   3.098  0.2325  0.4372 -0.2201
  124OSM    H3S13102   2.681   2.359   3.030 -1.4103  0.1457  1.5187
  124OSM     O313103   2.711   2.556   3.075 -0.5996  0.2365  0.6618
  124OSM    HO313104   2.774   2.571   3.003  0.9446  1.1620  2.1239
  124OSM    C4S13105   2.693   2.373   3.234 -0.1762 -0.5695  1.0026
  124OSM    H4S13106   2.697   2.263   3.237  1.4157 -0.7724 -2.8679
  124OSM    C5S13107   2.650   2.456   3.339  0.4874  0.2912  0.6112
  124OSM    H5S13108   2.650   2.564   3.319  2.0660  0.2203  0.0775
  124OSM    C6S13109   2.586   2.404   3.465  0.1056 -0.6798 -0.0247
  124OSM    H6S13110   2.557   2.298   3.447  1.7968 -1.1213 -0.2999
  124OSM    H6T13111   2.495   2.459   3.496  0.2425  0.0402 -0.8516
  124OSM    C7S13112   2.681   2.391   3.584 -0.4092  0.2845 -0.1257
  124OSM    H7S13113   2.723   2.491   3.606  1.6023 -0.4594 -0.4010
  124OSM    H7T13114   2.754   2.311   3.560 -0.6657  0.4217 -1.4920
  124OSM    C8S13115   2.603   2.350   3.720 -0.0424 -0.0160 -0.0560
  124OSM    H8S13116   2.563   2.247   3.708  0.9807 -0.3876 -0.4977
  124OSM    H8T13117   2.523   2.426   3.729  0.2132  0.2349  0.1474
  124OSM    C9S13118   2.676   2.347   3.853  0.3393  0.7039 -0.4437
  124OSM    H9S13119   2.704   2.450   3.885  1.7599 -0.0922  0.9927
  124OSM    H9T13120   2.771   2.295   3.830  0.9631  1.7856 -0.4211
  124OSM   C10S13121   2.614   2.272   3.976 -0.0713  0.4009  0.3827
  124OSM   H10S13122   2.592   2.167   3.948 -1.9952  0.4457  1.5514
  124OSM   H10T13123   2.511   2.304   4.003 -0.7857 -1.1848 -0.3168
  124OSM   C11S13124   2.704   2.267   4.104 -0.2093 -0.2717 -0.0659
  124OSM   H11S13125   2.754   2.363   4.128  3.0981 -1.7734 -0.5017
  124OSM   H11T13126   2.789   2.199   4.083  1.6658  1.0528  2.7493
  124OSM   C12S13127   2.629   2.201   4.223  0.0516 -0.5989 -1.1174
  124OSM   H12S13128   2.596   2.103   4.183  0.4768 -1.7660  1.2376
  124OSM   H12T13129   2.536   2.260   4.236 -0.1732 -1.2190  0.2207
  124OSM   C13S13130   2.712   2.156   4.347 -0.0259 -0.2035  0.3062
  124OSM   H13S13131   2.757   2.250   4.385  1.0528 -0.3793 -0.4893
  124OSM   H13T13132   2.797   2.095   4.310  1.0561  1.2491  0.2993
  124OSM   C14S13133   2.631   2.090   4.460 -0.1821 -0.6135 -0.0850
  124OSM   H14S13134   2.604   1.985   4.434  2.1714 -0.9399 -1.5228
  124OSM   H14T13135   2.545   2.159   4.474  0.1720 -0.1246 -0.3255
  124OSM   C15S13136   2.715   2.098   4.587  0.1974  0.4230  0.0982
  124OSM   H15S13137   2.716   2.208   4.604  0.5135  1.3938 -4.7617
  124OSM   H15T13138   2.817   2.070   4.554 -0.0042  1.7397 -1.8088
  124OSM   C16S13139   2.663   2.018   4.705 -0.3354  0.0758  0.3892
  124OSM   H16S13140   2.610   1.927   4.670 -1.7668  1.1829 -0.4407
  124OSM   H16T13141   2.588   2.085   4.752 -0.0470 -0.3667  1.5092
  124OSM   C17S13142   2.772   1.985   4.807 -0.3890 -0.7525 -0.0864
  124OSM   H17S13143   2.853   1.921   4.766  0.4452  0.3141 -0.1491
  124OSM   H17T13144   2.713   1.938   4.889 -0.0043  1.3592  1.4896
  124OSM   C18S13145   2.835   2.116   4.862 -0.3043 -0.3906 -0.5666
  124OSM   H18S13146   2.884   2.091   4.959  0.0878  0.9437 -0.3975
  124OSM   H18T13147   2.761   2.192   4.895  0.2524  0.4499 -1.2173
  124OSM   H18U13148   2.912   2.156   4.793 -0.8702 -2.9290 -2.8526
  124OSM    C1F13149   3.060   2.202   3.089 -0.6010  0.0966  0.3779
  124OSM     OF13150   3.160   2.279   3.092  0.5720 -0.9463 -0.1795
  124OSM    C2F13151   3.079   2.056   3.063  0.5326  0.1806 -0.1470
  124OSM    H2F13152   3.057   2.041   2.955  0.7041  1.1669 -0.3238
  124OSM    H2G13153   3.000   1.998   3.114  1.7612  0.5373  2.3241
  124OSM    C3F13154   3.204   1.988   3.103  0.1957 -0.5517  0.1479
  124OSM    H3F13155   3.232   2.002   3.210 -0.0292 -0.8309  0.2440
  124OSM    H3G13156   3.294   2.040   3.063 -0.4446  1.5975  1.3081
  124OSM    C4F13157   3.229   1.837   3.063 -0.2903 -0.0512 -0.2938
  124OSM    H4F13158   3.216   1.830   2.953 -0.5279 -0.8911 -0.2212
  124OSM    H4G13159   3.159   1.774   3.122  0.1227 -0.2059  0.0319
  124OSM    C5F13160   3.372   1.789   3.106 -0.2366  0.9088 -0.2433
  124OSM    H5F13161   3.370   1.769   3.215  1.7251  1.5276 -0.0563
  124OSM    H5G13162   3.449   1.868   3.093  1.9106 -1.1880 -1.0463
  124OSM    C6F13163   3.424   1.660   3.040 -0.4774  0.0198  0.5192
  124OSM    H6F13164   3.412   1.657   2.930 -3.2814 -2.7281  0.7460
  124OSM    H6G13165   3.361   1.572   3.066 -0.8924 -0.0109 -0.5533
  124OSM    C7F13166   3.573   1.627   3.073 -0.7374 -0.4690 -0.1978
  124OSM    H7F13167   3.636   1.718   3.063  0.3630 -1.1495  0.3492
  124OSM    H7G13168   3.625   1.551   3.010 -0.2554 -0.2350 -0.0904
  124OSM    C8F13169   3.592   1.602   3.225 -0.1000  0.0912 -0.4790
  124OSM    H8F13170   3.544   1.505   3.252 -0.6267 -0.0116 -1.7035
  124OSM    H8G13171   3.541   1.676   3.290  0.0472 -1.2840  1.2864
  124OSM    C9F13172   3.728   1.593   3.282 -0.2488 -0.5974 -0.4145
  124OSM    H9F13173   3.780   1.690   3.274 -0.4690 -0.6428 -2.9682
  124OSM   C10F13174   3.793   1.494   3.344  0.2785  0.0407 -0.1577
  124OSM   H10F13175   3.901   1.504   3.363  0.5939 -1.7395 -0.8314
  124OSM   C11F13176   3.746   1.358   3.379 -0.4861 -0.1292 -0.9801
  124OSM   H11F13177   3.810   1.284   3.328  0.4510  0.2933 -0.4362
  124OSM   H11G13178   3.643   1.343   3.341 -0.1984  1.2803 -2.3954
  124OSM   C12F13179   3.759   1.331   3.532  0.6399 -0.4119  0.2753
  124OSM   H12F13180   3.846   1.384   3.577  0.3268  1.7032 -1.4493
  124OSM   H12G13181   3.768   1.223   3.554 -0.0628 -0.3706  0.7748
  124OSM   C13F13182   3.635   1.383   3.613  0.5733  0.8726 -0.0282
  124OSM   H13F13183   3.541   1.360   3.559  1.5945  0.6301 -1.7983
  124OSM   H13G13184   3.640   1.494   3.620  1.1878  0.7916  1.0444
  124OSM   C14F13185   3.654   1.332   3.756  0.2818  0.3464 -0.0991
  124OSM   H14F13186   3.754   1.369   3.790  0.7328  0.4307 -1.4679
  124OSM   H14G13187   3.651   1.221   3.756 -1.2534  0.3381 -1.7286
  124OSM   C15F13188   3.548   1.374   3.864  0.8328 -0.3432 -0.2325
  124OSM   H15F13189   3.443   1.357   3.832 -0.4810 -0.4407  3.6484
  124OSM   H15G13190   3.563   1.482   3.884 -1.0099 -0.1846  0.4267
  124OSM   C16F13191   3.567   1.286   3.992  1.1366 -0.7130 -0.8677
  124OSM   H16F13192   3.670   1.310   4.026  0.9337 -3.2379  1.9330
  124OSM   H16G13193   3.554   1.178   3.969  2.1812 -1.2874  1.0215
  124OSM   C17F13194   3.474   1.321   4.107 -0.1976  0.4933  0.2065
  124OSM   H17F13195   3.366   1.309   4.087 -0.1342  1.6360 -0.9619
  124OSM   H17G13196   3.487   1.429   4.128 -1.8332  0.4511  1.6299
  124OSM   C18F13197   3.508   1.246   4.238 -0.4664 -0.3083  0.7880
  124OSM   H18F13198   3.615   1.272   4.248 -0.5384  0.6844 -0.6822
  124OSM   H18G13199   3.498   1.136   4.225 -1.3469 -0.0841 -0.7421
  124OSM   H18H13200   3.457   1.294   4.324  1.8417  1.5053  1.2549
  125OSM      N13201   4.014   6.060   2.513  0.3789 -0.1157 -0.4342
  125OSM    C1513202   4.099   5.957   2.453 -0.4033 -0.9701  0.7397
  125OSM   H15A13203   4.188   6.009   2.421 -1.0389  0.1922  0.8417
  125OSM   H15B13204   4.050   5.901   2.374  0.1204  0.5490 -0.7131
  125OSM   H15C13205   4.140   5.890   2.527  0.1089 -1.3372  0.1427
  125OSM    C1413206   3.941   6.140   2.409 -0.6212  0.3053 -0.1415
  125OSM   H14A13207   3.893   6.065   2.348 -0.4146 -1.1577  1.4278
  125OSM   H14B13208   4.002   6.190   2.335  2.4628 -0.8227  1.4612
  125OSM   H14C13209   3.853   6.195   2.440 -1.6836 -1.9397  1.0561
  125OSM    C1313210   3.918   5.980   2.604 -0.7570 -0.2998  0.4309
  125OSM   H13A13211   3.864   5.905   2.550  1.1480 -0.2423 -1.6986
  125OSM   H13B13212   3.845   6.046   2.648 -0.6431  0.3963 -0.4122
  125OSM   H13C13213   3.975   5.935   2.684  1.2560 -1.4688 -1.5431
  125OSM    C1213214   4.088   6.157   2.597 -0.0301  0.0142  0.1948
  125OSM   H12A13215   4.125   6.102   2.682  2.4200  1.5762  0.2273
  125OSM   H12B13216   4.023   6.233   2.638 -2.0915 -2.5446  1.9235
  125OSM    C1113217   4.216   6.240   2.546  0.4999 -0.0432 -0.2610
  125OSM   H11A13218   4.292   6.161   2.530  1.3495  0.5071  0.8743
  125OSM   H11B13219   4.260   6.311   2.620  0.7753  1.6014 -1.9484
  125OSM      P13220   4.153   6.457   2.424 -0.7550 -1.0276 -0.0945
  125OSM    O1313221   4.268   6.545   2.441  0.0591 -0.4268  0.2982
  125OSM    O1413222   4.067   6.491   2.305 -0.3128  0.6030 -0.0927
  125OSM    O1113223   4.074   6.470   2.556  0.3064  0.8639  0.1122
  125OSM    O1213224   4.191   6.308   2.425 -0.3875  0.6789  0.5037
  125OSM    C1S13225   3.986   6.579   2.575  0.8546  0.3462 -0.5493
  125OSM    H1S13226   3.884   6.537   2.565  0.6389  0.7016  0.0801
  125OSM    H1T13227   3.992   6.655   2.494 -0.4803 -0.9798 -1.9721
  125OSM     NF13228   3.869   6.689   2.759 -0.3910 -0.0130 -0.2760
  125OSM    HNF13229   3.872   6.789   2.766 -0.2188 -0.0186 -0.2647
  125OSM    C2S13230   3.997   6.629   2.722 -0.3112 -0.6730  0.2951
  125OSM    H2S13231   4.012   6.536   2.781 -1.1029 -1.1370 -0.2165
  125OSM    C3S13232   4.120   6.720   2.744  0.1781  0.2913  0.3775
  125OSM    H3S13233   4.117   6.807   2.676  1.1126  0.0644  0.0316
  125OSM     O313234   4.248   6.659   2.722 -0.3000 -0.0703  0.4977
  125OSM    HO313235   4.225   6.571   2.691  2.3826 -1.2765  1.5969
  125OSM    C4S13236   4.122   6.779   2.887  0.4931  0.3356  0.4479
  125OSM    H4S13237   4.066   6.874   2.883  0.5833  0.3898  0.4917
  125OSM    C5S13238   4.172   6.727   3.003  0.1515 -0.1747  0.0752
  125OSM    H5S13239   4.216   6.626   3.004 -0.7305 -0.5712  0.9008
  125OSM    C6S13240   4.162   6.801   3.134 -0.7456 -0.1057 -0.3396
  125OSM    H6S13241   4.154   6.912   3.124  0.3040  0.1191  1.0013
  125OSM    H6T13242   4.255   6.782   3.191 -2.0748 -3.4761  0.8991
  125OSM    C7S13243   4.055   6.757   3.227 -0.4000  0.3474 -0.1206
  125OSM    H7S13244   4.060   6.648   3.244  2.9515  0.5253  0.7560
  125OSM    H7T13245   3.954   6.779   3.184 -0.6911  1.0043  0.8839
  125OSM    C8S13246   4.068   6.830   3.366  0.7402  0.1763 -0.7263
  125OSM    H8S13247   3.965   6.831   3.407  0.2287 -1.9480 -1.7799
  125OSM    H8T13248   4.098   6.936   3.357 -0.5492  0.6272  0.0275
  125OSM    C9S13249   4.169   6.748   3.451 -0.2618  0.2964 -0.2412
  125OSM    H9S13250   4.267   6.777   3.409  1.4140 -3.8869  0.2783
  125OSM    H9T13251   4.153   6.638   3.444 -1.2337  0.4935 -1.6453
  125OSM   C10S13252   4.160   6.783   3.605 -0.5069 -0.5848  0.1488
  125OSM   H10S13253   4.057   6.768   3.644 -1.1337  2.2124 -0.2449
  125OSM   H10T13254   4.179   6.890   3.625  1.0908 -0.8564  0.1999
  125OSM   C11S13255   4.251   6.707   3.697  0.0487 -0.3004 -0.4233
  125OSM   H11S13256   4.354   6.729   3.663 -0.3437  1.0149 -0.8381
  125OSM   H11T13257   4.244   6.596   3.691 -0.4714 -0.3093  0.1945
  125OSM   C12S13258   4.224   6.743   3.849 -0.1918 -0.5917 -0.1196
  125OSM   H12S13259   4.124   6.698   3.868  0.0738 -0.7571  0.9675
  125OSM   H12T13260   4.231   6.853   3.862  1.8375 -0.6104 -0.6957
  125OSM   C13S13261   4.329   6.663   3.930 -0.1588 -0.0577  0.9125
  125OSM   H13S13262   4.422   6.715   3.898 -0.5436 -0.9910 -2.0944
  125OSM   H13T13263   4.341   6.561   3.889  0.5413  0.5007 -0.3331
  125OSM   C14S13264   4.313   6.682   4.085  0.0064 -0.4567  0.0170
  125OSM   H14S13265   4.204   6.662   4.098 -0.0547 -0.4049 -0.3988
  125OSM   H14T13266   4.356   6.777   4.122 -0.9232  0.3963 -0.9963
  125OSM   C15S13267   4.383   6.573   4.165  0.8109  0.0894  0.1691
  125OSM   H15S13268   4.491   6.588   4.146  0.6461  0.9047 -0.1698
  125OSM   H15T13269   4.353   6.482   4.109  0.1477  1.1544 -1.2937
  125OSM   C16S13270   4.344   6.574   4.314  0.0383  0.0133  0.3084
  125OSM   H16S13271   4.378   6.668   4.363  2.8171 -0.6737 -0.1731
  125OSM   H16T13272   4.417   6.505   4.360  0.5149  0.9890  1.0371
  125OSM   C17S13273   4.195   6.544   4.358 -0.2827  0.5182  0.3044
  125OSM   H17S13274   4.178   6.440   4.323  1.1377  0.0697  0.8788
  125OSM   H17T13275   4.121   6.616   4.318 -1.7243 -0.9352  0.2340
  125OSM   C18S13276   4.184   6.556   4.510 -0.1803 -0.4215  0.5823
  125OSM   H18S13277   4.091   6.506   4.545 -0.8615  1.7686  2.1199
  125OSM   H18T13278   4.169   6.660   4.545 -3.9802  0.1412 -2.0380
  125OSM   H18U13279   4.277   6.515   4.554 -1.0580 -3.2910 -0.0402
  125OSM    C1F13280   3.755   6.627   2.769 -0.2746  0.5903 -0.3650
  125OSM     OF13281   3.754   6.503   2.771  0.7142  0.5148 -0.5306
  125OSM    C2F13282   3.629   6.705   2.780  0.2562  0.8869 -0.4581
  125OSM    H2F13283   3.545   6.679   2.712 -0.6002 -0.9943  1.2269
  125OSM    H2G13284   3.647   6.812   2.755 -1.5160  1.7082  1.5670
  125OSM    C3F13285   3.577   6.684   2.925  0.2241 -0.1549  0.0880
  125OSM    H3F13286   3.577   6.581   2.967 -3.3585 -0.3545 -0.1135
  125OSM    H3G13287   3.473   6.723   2.920  1.0714  2.1002 -1.4159
  125OSM    C4F13288   3.660   6.772   3.022 -0.5225 -0.0727 -0.1036
  125OSM    H4F13289   3.665   6.873   2.977 -0.2681 -0.3709 -0.7592
  125OSM    H4G13290   3.758   6.719   3.020 -0.4269 -0.0365  1.6121
  125OSM    C5F13291   3.596   6.781   3.161 -0.7316 -0.3890  0.1033
  125OSM    H5F13292   3.486   6.791   3.151 -0.9788  0.9560  3.0486
  125OSM    H5G13293   3.620   6.877   3.210 -3.2795  0.3196  0.0942
  125OSM    C6F13294   3.638   6.664   3.251  0.0805  0.0470 -0.2599
  125OSM    H6F13295   3.747   6.660   3.271  0.4761  5.3388 -0.0848
  125OSM    H6G13296   3.611   6.574   3.190  1.1380 -0.8911  0.6069
  125OSM    C7F13297   3.563   6.668   3.387  0.3308 -0.0573 -0.4609
  125OSM    H7F13298   3.454   6.685   3.377  0.3231  2.4473  2.4691
  125OSM    H7G13299   3.609   6.754   3.440  1.9418 -0.3658 -1.2698
  125OSM    C8F13300   3.596   6.535   3.472  0.6361  0.0513  0.4176
  125OSM    H8F13301   3.707   6.526   3.468  0.5895 -0.1430 -0.9742
  125OSM    H8G13302   3.559   6.451   3.410 -1.4284 -0.9764  2.8549
  125OSM    C9F13303   3.524   6.535   3.602  0.3501 -0.3750 -0.2228
  125OSM    H9F13304   3.421   6.498   3.607  0.1417  0.3691  1.7225
  125OSM   C10F13305   3.556   6.589   3.718 -0.2639  0.0604 -0.3320
  125OSM   H10F13306   3.496   6.559   3.805 -0.2516 -0.5252 -0.5208
  125OSM   C11F13307   3.690   6.662   3.748  0.0893  0.4984 -0.0838
  125OSM   H11F13308   3.675   6.770   3.768 -3.2780 -0.1872  1.7270
  125OSM   H11G13309   3.761   6.649   3.663 -0.9189  1.0357 -1.0267
  125OSM   C12F13310   3.757   6.594   3.870 -1.0396 -0.1845  0.5530
  125OSM   H12F13311   3.866   6.616   3.876 -0.8952 -0.4165 -0.8111
  125OSM   H12G13312   3.763   6.486   3.845  1.7859 -0.0053  0.0508
  125OSM   C13F13313   3.706   6.618   4.007  0.3693 -0.9261  0.3105
  125OSM   H13F13314   3.601   6.582   4.008  0.6862 -2.1357 -2.1464
  125OSM   H13G13315   3.689   6.723   4.040 -0.6091 -1.2211  0.7912
  125OSM   C14F13316   3.772   6.522   4.102  0.4194  0.8422 -0.0076
  125OSM   H14F13317   3.877   6.500   4.076  0.9725  0.9325  2.0081
  125OSM   H14G13318   3.703   6.435   4.115 -1.5195  2.4942  1.4734
  125OSM   C15F13319   3.800   6.576   4.247 -0.0673 -0.0317  0.0819
  125OSM   H15F13320   3.725   6.651   4.279 -1.5298 -0.6493 -1.7336
  125OSM   H15G13321   3.896   6.631   4.239  0.0637 -0.3777 -0.8920
  125OSM   C16F13322   3.813   6.475   4.360 -0.1809  0.2840  0.6757
  125OSM   H16F13323   3.867   6.518   4.447  0.3310 -0.6720  0.8523
  125OSM   H16G13324   3.879   6.392   4.326  1.3165  1.4268  0.7057
  125OSM   C17F13325   3.678   6.405   4.391  0.7479 -0.3869  0.3710
  125OSM   H17F13326   3.601   6.414   4.311  0.9475  1.6314  0.3580
  125OSM   H17G13327   3.635   6.473   4.467  0.1706  0.6906 -0.8750
  125OSM   C18F13328   3.691   6.265   4.449 -0.6486 -0.1816  0.6310
  125OSM   H18F13329   3.773   6.254   4.523  0.5314 -0.4993 -0.6858
  125OSM   H18G13330   3.711   6.188   4.372  2.3762 -0.2257  1.3342
  125OSM   H18H13331   3.594   6.230   4.491 -0.6936 -1.0427 -0.1583
  126OSM      N13332   2.422   0.709   2.801  0.2411  0.7823 -0.0856
  126OSM    C1513333   2.557   0.715   2.735 -0.2956  0.6986 -0.6410
  126OSM   H15A13334   2.637   0.668   2.791 -0.9352  1.1850  0.7243
  126OSM   H15B13335   2.594   0.815   2.719 -0.2226  0.8875  0.5910
  126OSM   H15C13336   2.543   0.673   2.637 -0.6331 -1.3721  0.2333
  126OSM    C1413337   2.441   0.730   2.953 -1.2487 -0.5972 -0.1806
  126OSM   H14A13338   2.514   0.809   2.968  0.5446 -1.8787 -1.7719
  126OSM   H14B13339   2.477   0.637   2.996 -0.2078  0.1588  0.6563
  126OSM   H14C13340   2.353   0.762   3.006 -0.7703 -0.8488  0.8016
  126OSM    C1313341   2.336   0.830   2.771 -0.1990 -0.2468 -0.1191
  126OSM   H13A13342   2.287   0.823   2.675  1.2220 -0.0624 -0.8974
  126OSM   H13B13343   2.399   0.918   2.767  0.7700 -0.9617 -1.8950
  126OSM   H13C13344   2.255   0.839   2.841 -0.0271 -2.0061  0.3295
  126OSM    C1213345   2.353   0.578   2.770  0.8533  0.0561  0.5970
  126OSM   H12A13346   2.257   0.581   2.819  0.1367  2.4405 -0.7747
  126OSM   H12B13347   2.404   0.491   2.808  0.5349 -1.0547 -1.3770
  126OSM    C1113348   2.321   0.537   2.624  0.5666  0.2116  0.1249
  126OSM   H11A13349   2.264   0.619   2.577 -2.0157 -0.8195  1.2729
  126OSM   H11B13350   2.246   0.455   2.622 -0.1259  0.8023  0.9865
  126OSM      P13351   2.485   0.397   2.465  0.7464 -0.0687  0.0650
  126OSM    O1313352   2.364   0.333   2.412  0.4232  0.0756 -0.5171
  126OSM    O1413353   2.599   0.427   2.372 -0.0423 -0.3801 -0.3204
  126OSM    O1113354   2.536   0.301   2.581 -0.5756  0.0443 -0.4941
  126OSM    O1213355   2.446   0.521   2.553 -0.3258 -0.4517  0.5043
  126OSM    C1S13356   2.619   0.339   2.692  0.8641 -0.2544 -0.4394
  126OSM    H1S13357   2.596   0.440   2.732  0.1257 -0.0642 -1.3187
  126OSM    H1T13358   2.720   0.338   2.645 -0.0983 -1.2670 -2.6041
  126OSM     NF13359   2.673   0.295   2.935 -0.6866 -0.0950 -0.0752
  126OSM    HNF13360   2.765   0.266   2.963 -1.2146  0.3798  2.3665
  126OSM    C2S13361   2.624   0.237   2.810 -0.5040  0.9537  0.1784
  126OSM    H2S13362   2.517   0.221   2.838 -0.2126  0.2335  0.9057
  126OSM    C3S13363   2.692   0.110   2.764  0.8807 -0.4265 -0.2335
  126OSM    H3S13364   2.801   0.130   2.775  0.9593 -0.4288 -0.9392
  126OSM     O313365   2.671   0.073   2.628  0.3544  0.1662 -0.5492
  126OSM    HO313366   2.620   0.147   2.594  2.5197  1.4118 -1.2905
  126OSM    C4S13367   2.670   0.006   2.870 -0.0617 -0.4405  0.0262
  126OSM    H4S13368   2.725   0.025   2.963 -0.3870 -1.3831  0.4293
  126OSM    C5S13369   2.592  -0.104   2.860  0.0242  1.2672 -0.2229
  126OSM    H5S13370   2.552  -0.131   2.761  0.3816 -2.1696  0.4351
  126OSM    C6S13371   2.569  -0.209   2.968 -0.4320  0.1564  0.3845
  126OSM    H6S13372   2.614  -0.305   2.936 -2.2919 -0.2283 -1.3001
  126OSM    H6T13373   2.462  -0.235   2.982 -0.9030  1.4587 -0.5684
  126OSM    C7S13374   2.617  -0.192   3.110  0.1057 -0.2573 -0.2872
  126OSM    H7S13375   2.567  -0.102   3.153  0.1852  0.8190 -2.2921
  126OSM    H7T13376   2.720  -0.151   3.110 -0.5517  1.5791 -1.8532
  126OSM    C8S13377   2.590  -0.310   3.203  0.0874 -0.4167 -0.8478
  126OSM    H8S13378   2.596  -0.405   3.146 -1.3351 -1.0123 -0.0339
  126OSM    H8T13379   2.485  -0.310   3.238  0.4447 -1.4025  0.2778
  126OSM    C9S13380   2.671  -0.321   3.330 -0.1496 -0.4319  0.1567
  126OSM    H9S13381   2.643  -0.238   3.399  0.0598 -0.1400 -0.1036
  126OSM    H9T13382   2.778  -0.321   3.299 -0.2828  1.8046 -0.4513
  126OSM   C10S13383   2.649  -0.455   3.403 -0.5538 -0.1455  0.2701
  126OSM   H10S13384   2.673  -0.538   3.332  0.4309  0.4188 -0.0799
  126OSM   H10T13385   2.541  -0.451   3.427 -0.2725  0.7282  1.5030
  126OSM   C11S13386   2.727  -0.476   3.531  0.8863  0.3652 -0.2352
  126OSM   H11S13387   2.833  -0.446   3.512  1.2806 -0.8764 -0.0645
  126OSM   H11T13388   2.749  -0.581   3.559 -0.6865  0.1776  0.3477
  126OSM   C12S13389   2.668  -0.405   3.649 -0.5275 -0.0816  0.2828
  126OSM   H12S13390   2.564  -0.442   3.662 -0.6831  0.5711  0.9664
  126OSM   H12T13391   2.670  -0.296   3.628  1.4087 -0.5789 -2.7672
  126OSM   C13S13392   2.762  -0.427   3.764  0.9344 -0.5658  0.6050
  126OSM   H13S13393   2.855  -0.372   3.736  1.3341 -1.7467 -0.4758
  126OSM   H13T13394   2.780  -0.536   3.778 -0.0664 -0.6663  1.1931
  126OSM   C14S13395   2.713  -0.384   3.900  0.0847  0.4192 -0.4073
  126OSM   H14S13396   2.637  -0.304   3.893  0.7395  0.9274 -2.1808
  126OSM   H14T13397   2.798  -0.359   3.968  1.2427 -1.2139 -1.1819
  126OSM   C15S13398   2.628  -0.505   3.955  0.8248 -0.5041 -0.1811
  126OSM   H15S13399   2.681  -0.598   3.985 -1.3367 -1.4054  1.0920
  126OSM   H15T13400   2.561  -0.537   3.873  0.1680  0.4979 -0.0603
  126OSM   C16S13401   2.538  -0.461   4.067 -0.8259  0.4538 -0.4961
  126OSM   H16S13402   2.454  -0.394   4.038  1.1238  2.3522 -2.0559
  126OSM   H16T13403   2.601  -0.418   4.148  0.6751 -0.7224 -0.9981
  126OSM   C17S13404   2.460  -0.587   4.122  0.7068 -0.2423  0.2750
  126OSM   H17S13405   2.427  -0.639   4.029  0.7405 -1.0753  0.7215
  126OSM   H17T13406   2.367  -0.552   4.172  0.7616 -1.9422  1.6621
  126OSM   C18S13407   2.542  -0.678   4.205 -0.7003  0.2229 -0.1244
  126OSM   H18S13408   2.576  -0.617   4.291 -0.4729  1.5630 -1.1343
  126OSM   H18T13409   2.628  -0.721   4.149 -0.7487 -1.3174  0.9142
  126OSM   H18U13410   2.480  -0.761   4.243  2.1433 -1.4122  1.3043
  126OSM    C1F13411   2.610   0.375   3.014  0.1879 -0.0518  0.4492
  126OSM     OF13412   2.506   0.422   2.978  0.6826 -0.0520  0.3942
  126OSM    C2F13413   2.658   0.394   3.155 -0.2023  0.5998  0.1819
  126OSM    H2F13414   2.769   0.386   3.158 -0.2799 -1.2338 -0.3775
  126OSM    H2G13415   2.626   0.304   3.211 -0.8764  0.4364 -0.4530
  126OSM    C3F13416   2.593   0.515   3.230  0.6364  0.4476  0.2430
  126OSM    H3F13417   2.487   0.488   3.209  1.5430 -1.1620 -2.8241
  126OSM    H3G13418   2.617   0.610   3.178 -0.0395 -0.3604 -1.6344
  126OSM    C4F13419   2.626   0.516   3.379 -0.1302  0.1245 -0.1553
  126OSM    H4F13420   2.578   0.431   3.432  1.3399 -1.8675 -1.8724
  126OSM    H4G13421   2.577   0.606   3.422  0.3398 -1.3374  3.8954
  126OSM    C5F13422   2.773   0.523   3.411  0.4009  0.0629  0.0529
  126OSM    H5F13423   2.804   0.630   3.406 -0.2015  0.1624 -3.4946
  126OSM    H5G13424   2.840   0.467   3.343 -0.2906 -0.0732 -0.5201
  126OSM    C6F13425   2.800   0.470   3.556  0.1735 -0.0337 -0.4524
  126OSM    H6F13426   2.760   0.368   3.577  0.9420  0.0718  1.7756
  126OSM    H6G13427   2.747   0.531   3.631 -1.1188  0.9853 -2.1170
  126OSM    C7F13428   2.956   0.463   3.592  0.9458 -0.3333  0.9309
  126OSM    H7F13429   2.999   0.417   3.500 -0.0120  1.0180 -0.2376
  126OSM    H7G13430   2.968   0.394   3.678 -1.9449 -3.0307 -0.6247
  126OSM    C8F13431   3.013   0.603   3.627 -0.0669  0.4311  0.2621
  126OSM    H8F13432   3.011   0.669   3.537  0.3155 -0.3722 -0.3500
  126OSM    H8G13433   3.122   0.587   3.643  0.8885 -0.3704 -5.0515
  126OSM    C9F13434   2.944   0.678   3.743  1.0914 -0.0567 -0.0427
  126OSM    H9F13435   2.836   0.695   3.727  0.2544 -3.7249  0.6241
  126OSM   C10F13436   2.987   0.687   3.866 -0.1012 -0.7225 -0.4504
  126OSM   H10F13437   2.935   0.755   3.936 -1.0350 -3.5024  1.7378
  126OSM   C11F13438   3.112   0.634   3.923  0.2477  0.2611  0.7194
  126OSM   H11F13439   3.180   0.714   3.957  0.0898  1.9164 -2.4502
  126OSM   H11G13440   3.160   0.573   3.843  0.0096 -0.8782  1.4230
  126OSM   C12F13441   3.089   0.535   4.043  0.3628 -0.9206  1.0760
  126OSM   H12F13442   3.191   0.508   4.077  1.8112  3.4395  0.7779
  126OSM   H12G13443   3.038   0.440   4.016 -2.3248  0.0965  2.1435
  126OSM   C13F13444   3.009   0.602   4.158 -0.1292  0.3423  0.1026
  126OSM   H13F13445   2.911   0.640   4.123 -1.0762 -1.8623  0.2358
  126OSM   H13G13446   3.072   0.689   4.190  1.1122 -0.7377  0.7085
  126OSM   C14F13447   2.983   0.499   4.270 -0.9069  0.3485  0.1861
  126OSM   H14F13448   2.937   0.400   4.247 -2.1024  0.3021  2.4181
  126OSM   H14G13449   2.924   0.552   4.348 -1.1703  0.3880 -0.0404
  126OSM   C15F13450   3.108   0.448   4.332 -0.1864 -0.0102 -0.3993
  126OSM   H15F13451   3.173   0.532   4.364 -1.1833  0.3101  0.8867
  126OSM   H15G13452   3.157   0.386   4.255 -2.4094 -2.1718 -0.1884
  126OSM   C16F13453   3.094   0.359   4.450  0.8374  0.1517  0.1882
  126OSM   H16F13454   3.186   0.316   4.496  0.4672 -0.8390  0.0358
  126OSM   H16G13455   3.038   0.272   4.409  1.7760 -0.7934  0.8378
  126OSM   C17F13456   3.016   0.420   4.570  0.2838 -0.2366 -0.0393
  126OSM   H17F13457   2.910   0.451   4.557 -0.3014 -0.4461  3.3163
  126OSM   H17G13458   3.067   0.516   4.594  1.6340 -0.8072 -0.5213
  126OSM   C18F13459   3.023   0.330   4.690  0.5875  0.1398 -1.0168
  126OSM   H18F13460   3.126   0.303   4.719  0.0916 -1.7153 -0.8823
  126OSM   H18G13461   2.979   0.228   4.685 -0.9213  0.4169  3.0377
  126OSM   H18H13462   2.990   0.380   4.783  1.2633  2.4596 -1.9293
  127OSM      N13463   2.497   2.661   2.704 -0.5113  0.5125 -0.9251
  127OSM    C1513464   2.366   2.719   2.745 -1.1943  0.3591  0.5948
  127OSM   H15A13465   2.297   2.636   2.738  0.3562 -0.8558 -1.5084
  127OSM   H15B13466   2.343   2.797   2.675  0.4338 -0.5567 -1.0239
  127OSM   H15C13467   2.380   2.752   2.847  1.2152 -0.8626  0.7337
  127OSM    C1413468   2.482   2.595   2.569  0.2473  0.2232  0.1159
  127OSM   H14A13469   2.440   2.659   2.494  1.7880  0.6995 -0.3842
  127OSM   H14B13470   2.421   2.506   2.581  0.8239 -0.0520  1.1769
  127OSM   H14C13471   2.578   2.574   2.523 -0.4196  0.4468 -1.4277
  127OSM    C1313472   2.592   2.776   2.685 -0.0438 -0.0136 -0.3956
  127OSM   H13A13473   2.599   2.847   2.766 -0.3283 -0.3233 -0.0915
  127OSM   H13B13474   2.558   2.839   2.604  0.2953  2.0603  0.9980
  127OSM   H13C13475   2.690   2.740   2.658 -0.1246 -1.3782  0.9633
  127OSM    C1213476   2.554   2.565   2.802 -0.0940 -0.3083 -0.0804
  127OSM   H12A13477   2.567   2.614   2.898 -0.6116 -0.5043  0.0961
  127OSM   H12B13478   2.655   2.537   2.774  0.2531  0.6980  0.1303
  127OSM    C1113479   2.465   2.437   2.830  0.0780  0.3091  0.0716
  127OSM   H11A13480   2.361   2.466   2.856 -0.0958 -0.8216  0.7128
  127OSM   H11B13481   2.510   2.375   2.911 -1.1036 -0.8644 -0.1308
  127OSM      P13482   2.385   2.221   2.704 -0.0338  0.1646 -0.2621
  127OSM    O1313483   2.253   2.244   2.643 -0.0912 -0.1348 -0.5133
  127OSM    O1413484   2.480   2.126   2.643  0.2431 -0.0721 -0.4384
  127OSM    O1113485   2.363   2.169   2.846 -0.6835  0.0547 -0.5810
  127OSM    O1213486   2.465   2.355   2.715 -0.3820  0.3518 -0.7221
  127OSM    C1S13487   2.460   2.088   2.912  0.0327 -0.6121  0.5540
  127OSM    H1S13488   2.563   2.122   2.890 -1.1971  1.6101 -2.3502
  127OSM    H1T13489   2.448   1.986   2.870  1.0989 -0.1766 -0.8802
  127OSM     NF13490   2.516   1.969   3.113  0.3504  0.8814 -0.2783
  127OSM    HNF13491   2.468   1.889   3.148  0.7112  0.3857 -0.8910
  127OSM    C2S13492   2.436   2.079   3.067 -0.7114 -0.1011 -0.3818
  127OSM    H2S13493   2.481   2.163   3.124  1.6020 -2.3215  1.3017
  127OSM    C3S13494   2.289   2.064   3.114  0.1428  0.1373 -0.1151
  127OSM    H3S13495   2.261   1.962   3.080  0.6976 -0.7460  1.9683
  127OSM     O313496   2.187   2.142   3.052 -0.1948  0.0638 -0.0035
  127OSM    HO313497   2.228   2.175   2.971 -2.4519  0.7269 -0.9521
  127OSM    C4S13498   2.268   2.060   3.265 -0.4117  0.6748  0.3476
  127OSM    H4S13499   2.301   1.967   3.313 -0.9762 -0.1634 -0.8422
  127OSM    C5S13500   2.251   2.175   3.329 -0.5109  0.3245 -0.0420
  127OSM    H5S13501   2.248   2.264   3.265  0.9643  1.6620  1.6431
  127OSM    C6S13502   2.264   2.196   3.475  1.4250 -0.0079 -0.2673
  127OSM    H6S13503   2.162   2.207   3.517  0.2994 -1.3635 -2.4446
  127OSM    H6T13504   2.307   2.298   3.487 -1.8361  1.8990 -2.9665
  127OSM    C7S13505   2.327   2.084   3.564  0.4870 -0.1459  0.0698
  127OSM    H7S13506   2.438   2.089   3.556  0.4866  2.6912  0.7700
  127OSM    H7T13507   2.284   1.984   3.543 -0.8930  0.0652  1.6748
  127OSM    C8S13508   2.297   2.109   3.716 -0.2163  0.8236  0.4940
  127OSM    H8S13509   2.187   2.113   3.731  0.0301  1.9717  2.2728
  127OSM    H8T13510   2.347   2.206   3.734 -2.1832  1.8995  0.4446
  127OSM    C9S13511   2.349   1.995   3.809 -1.2788  0.3268 -0.0125
  127OSM    H9S13512   2.459   2.004   3.801 -1.3833  3.0306  0.4774
  127OSM    H9T13513   2.310   1.903   3.761 -0.9319  1.1403 -1.9500
  127OSM   C10S13514   2.295   2.010   3.950  0.8498  0.0008  0.2056
  127OSM   H10S13515   2.185   1.997   3.947  1.0724 -2.2561 -0.1142
  127OSM   H10T13516   2.323   2.115   3.975  0.0486  0.2906 -0.0878
  127OSM   C11S13517   2.369   1.919   4.043 -0.3342 -0.0400 -0.1391
  127OSM   H11S13518   2.475   1.951   4.045 -0.5441  0.9119  4.1130
  127OSM   H11T13519   2.356   1.812   4.015  0.0179 -0.3191  0.7340
  127OSM   C12S13520   2.319   1.927   4.188 -0.3614  0.7192  0.0991
  127OSM   H12S13521   2.210   1.947   4.187 -0.5642 -0.0927  1.8724
  127OSM   H12T13522   2.370   2.011   4.240  0.9774  0.4767 -0.7764
  127OSM   C13S13523   2.318   1.784   4.254 -0.6710  0.2499  0.8487
  127OSM   H13S13524   2.422   1.746   4.263 -0.2600  0.9458 -0.7652
  127OSM   H13T13525   2.256   1.715   4.194 -0.3625 -0.9330  1.8361
  127OSM   C14S13526   2.267   1.772   4.394  0.3175 -0.2388 -0.0693
  127OSM   H14S13527   2.159   1.798   4.388 -0.2872 -2.7226 -0.8354
  127OSM   H14T13528   2.312   1.843   4.466 -0.6819 -0.5645  0.9010
  127OSM   C15S13529   2.289   1.640   4.464 -0.0423  0.2403 -0.3361
  127OSM   H15S13530   2.396   1.615   4.450 -0.1419  0.2752 -1.2197
  127OSM   H15T13531   2.233   1.564   4.406  1.8221 -1.2273 -0.2887
  127OSM   C16S13532   2.241   1.639   4.611  0.5985 -0.7739 -0.3460
  127OSM   H16S13533   2.267   1.735   4.662 -0.9320 -1.4607  1.8629
  127OSM   H16T13534   2.286   1.549   4.659  2.7443 -0.6925 -2.0277
  127OSM   C17S13535   2.091   1.631   4.617  0.5218  0.3993 -0.0373
  127OSM   H17S13536   2.054   1.544   4.559  1.2033 -0.5063  0.8525
  127OSM   H17T13537   2.046   1.728   4.589 -0.7925 -0.0479  0.4070
  127OSM   C18S13538   2.047   1.606   4.762  0.9843 -1.0670  1.3520
  127OSM   H18S13539   1.939   1.585   4.776  0.8497 -1.4786 -0.1477
  127OSM   H18T13540   2.067   1.703   4.813 -4.3530 -0.5032  3.0046
  127OSM   H18U13541   2.107   1.533   4.820 -0.8565 -2.6800  1.3194
  127OSM    C1F13542   2.651   1.976   3.131  0.0381 -0.5461  0.2657
  127OSM     OF13543   2.716   2.075   3.095 -0.1401 -0.0630 -0.8619
  127OSM    C2F13544   2.725   1.859   3.197 -0.2553 -0.8086  0.3160
  127OSM    H2F13545   2.826   1.841   3.154  1.4765  0.3904  3.5431
  127OSM    H2G13546   2.661   1.769   3.181 -2.7475  0.3186  3.0432
  127OSM    C3F13547   2.726   1.873   3.353 -0.4633  0.1822 -0.0681
  127OSM    H3F13548   2.758   1.778   3.401  0.0699  1.1816  1.6416
  127OSM    H3G13549   2.626   1.907   3.389 -1.2334 -1.2465 -0.7753
  127OSM    C4F13550   2.836   1.971   3.406  1.1664  0.4533 -0.1232
  127OSM    H4F13551   2.850   2.059   3.339 -0.2142  0.5340 -0.3310
  127OSM    H4G13552   2.937   1.923   3.398  1.5359  0.8796  1.7017
  127OSM    C5F13553   2.797   2.022   3.549 -0.7085  0.4277  0.2592
  127OSM    H5F13554   2.690   2.051   3.547 -0.9210 -0.3774 -0.6524
  127OSM    H5G13555   2.863   2.111   3.558  1.2864 -1.1709  2.7996
  127OSM    C6F13556   2.829   1.932   3.663 -0.0002  0.0770 -0.1969
  127OSM    H6F13557   2.934   1.912   3.693 -0.1000  0.2706  0.3011
  127OSM    H6G13558   2.774   1.840   3.633  0.3349 -0.2838  0.2738
  127OSM    C7F13559   2.763   1.982   3.788  0.4357 -0.2685 -0.4618
  127OSM    H7F13560   2.672   2.044   3.769  0.2626  0.5831  2.6145
  127OSM    H7G13561   2.836   2.036   3.852  1.6685 -1.5000 -0.7885
  127OSM    C8F13562   2.708   1.863   3.881 -0.0252 -0.0173 -0.0259
  127OSM    H8F13563   2.636   1.805   3.820 -1.6925  1.1091  0.7829
  127OSM    H8G13564   2.639   1.900   3.960 -0.6140  2.0305 -1.4075
  127OSM    C9F13565   2.800   1.766   3.935 -0.1103  0.2812  0.2210
  127OSM    H9F13566   2.853   1.703   3.862 -0.5597 -0.5929  0.6322
  127OSM   C10F13567   2.812   1.732   4.067  0.2802  0.8814  0.3167
  127OSM   H10F13568   2.887   1.654   4.088 -1.1017 -1.3195 -2.1967
  127OSM   C11F13569   2.739   1.799   4.183  0.6376 -0.0227  0.6370
  127OSM   H11F13570   2.638   1.835   4.152  0.6999 -0.1173  0.3208
  127OSM   H11G13571   2.799   1.880   4.230  1.8687 -0.6023  0.0995
  127OSM   C12F13572   2.710   1.691   4.285  0.5885  1.0866  0.9715
  127OSM   H12F13573   2.665   1.603   4.235 -0.6283  1.6005  1.1101
  127OSM   H12G13574   2.634   1.742   4.348  0.2987  0.6586  0.9717
  127OSM   C13F13575   2.817   1.657   4.390  0.3014  0.1812 -0.0062
  127OSM   H13F13576   2.844   1.753   4.440 -2.9790  1.5940 -0.6995
  127OSM   H13G13577   2.908   1.613   4.343  0.3337 -0.9201  1.0607
  127OSM   C14F13578   2.773   1.560   4.493 -0.0102  0.7896 -0.8392
  127OSM   H14F13579   2.739   1.466   4.443 -1.4852  0.3218  0.9303
  127OSM   H14G13580   2.678   1.599   4.534  0.2632  2.2236 -1.5033
  127OSM   C15F13581   2.874   1.547   4.606 -0.6881 -0.4500  0.2716
  127OSM   H15F13582   2.967   1.581   4.554 -2.5096 -0.0953 -3.0549
  127OSM   H15G13583   2.881   1.444   4.646 -0.1941  0.6923  3.3927
  127OSM   C16F13584   2.833   1.632   4.729 -0.2883  1.1658  0.1220
  127OSM   H16F13585   2.738   1.606   4.781 -0.5264 -0.5418 -1.0880
  127OSM   H16G13586   2.813   1.738   4.701 -2.6225  1.3986  2.2887
  127OSM   C17F13587   2.947   1.621   4.830  0.2279 -0.2803  0.0885
  127OSM   H17F13588   3.042   1.634   4.774 -0.9117  0.9129 -1.6664
  127OSM   H17G13589   2.940   1.516   4.867  0.5285 -0.2944  0.1130
  127OSM   C18F13590   2.944   1.708   4.947 -0.4600  0.1658 -0.1027
  127OSM   H18F13591   3.018   1.674   5.023 -1.9338 -1.8194  0.5390
  127OSM   H18G13592   2.846   1.710   4.999 -1.7424  0.6841 -2.3854
  127OSM   H18H13593   2.960   1.816   4.928 -1.0637  0.3274  0.2812
  128OSM      N13594   2.187   1.127   2.484 -0.7223  0.3840  0.1281
  128OSM    C1513595   2.202   1.143   2.633  0.2467  0.2298 -0.0208
  128OSM   H15A13596   2.196   1.247   2.660  0.0572  0.3744 -0.6196
  128OSM   H15B13597   2.306   1.126   2.658  0.3836 -0.6690 -1.1201
  128OSM   H15C13598   2.135   1.073   2.681  3.3098 -2.8893  0.1593
  128OSM    C1413599   2.050   1.172   2.443  0.0041 -0.3052 -0.2204
  128OSM   H14A13600   1.981   1.115   2.504  0.8592  0.0142  1.0827
  128OSM   H14B13601   2.038   1.188   2.337  2.1133  2.1849 -0.1951
  128OSM   H14C13602   2.023   1.269   2.481  0.9209  0.4752 -1.4856
  128OSM    C1313603   2.293   1.219   2.420 -0.1684  0.3173 -0.2136
  128OSM   H13A13604   2.267   1.318   2.455 -0.0174 -0.4254  2.1837
  128OSM   H13B13605   2.285   1.218   2.312  0.5145  0.4330 -0.2709
  128OSM   H13C13606   2.395   1.196   2.446  0.0493  0.8753 -0.5437
  128OSM    C1213607   2.223   0.981   2.450 -0.0913 -0.0508 -0.4369
  128OSM   H12A13608   2.315   0.965   2.504 -0.8370  1.6865  1.4971
  128OSM   H12B13609   2.248   0.973   2.345 -2.4846 -0.5612 -1.0380
  128OSM    C1113610   2.117   0.873   2.494  0.0835  0.6235 -0.1367
  128OSM   H11A13611   2.151   0.773   2.460 -1.4643  0.0365 -0.0519
  128OSM   H11B13612   2.023   0.896   2.439  0.5409 -0.2866 -1.3583
  128OSM      P13613   1.990   0.768   2.694  0.3991 -0.2074 -0.0017
  128OSM    O1313614   1.860   0.817   2.645  0.1128  0.2815 -0.2454
  128OSM    O1413615   2.023   0.626   2.674  0.7825  0.1220 -0.5468
  128OSM    O1113616   2.015   0.788   2.850  0.2198  0.1903  0.2604
  128OSM    O1213617   2.102   0.864   2.633  0.1416  0.1392  0.3626
  128OSM    C1S13618   1.890   0.832   2.919 -0.7292  0.3594 -0.5822
  128OSM    H1S13619   1.794   0.790   2.882 -0.5346 -1.8640  1.1949
  128OSM    H1T13620   1.884   0.943   2.923  1.6111  0.5341  3.3336
  128OSM     NF13621   1.779   0.820   3.136  0.4161  0.0673 -0.1345
  128OSM    HNF13622   1.769   0.902   3.191 -2.0725  1.2422 -2.1316
  128OSM    C2S13623   1.907   0.803   3.078 -0.2304 -0.2889 -0.0119
  128OSM    H2S13624   1.926   0.693   3.082  3.1004  0.2222  3.0542
  128OSM    C3S13625   2.029   0.875   3.137 -0.2267 -0.1225 -0.2937
  128OSM    H3S13626   2.010   0.985   3.140  0.3718 -0.0283  0.0908
  128OSM     O313627   2.145   0.868   3.056  0.0162  0.0853  0.2951
  128OSM    HO313628   2.116   0.825   2.975 -3.1906  2.6465 -0.1450
  128OSM    C4S13629   2.044   0.828   3.282 -0.6598  0.0610  0.2202
  128OSM    H4S13630   1.973   0.871   3.354  0.1352  0.0960  0.9992
  128OSM    C5S13631   2.148   0.752   3.331  0.8443  0.0266  0.5446
  128OSM    H5S13632   2.222   0.715   3.259  1.6385 -1.8315  2.2264
  128OSM    C6S13633   2.159   0.708   3.477  0.3665 -0.2202 -0.1582
  128OSM    H6S13634   2.255   0.746   3.516 -1.1730  4.2786 -0.1811
  128OSM    H6T13635   2.145   0.598   3.486 -1.4523  0.0918  1.6705
  128OSM    C7S13636   2.056   0.772   3.577  1.3124 -0.1786 -0.2933
  128OSM    H7S13637   1.961   0.716   3.568  0.7043  0.6856  0.6536
  128OSM    H7T13638   2.048   0.879   3.547  1.9265 -0.8164 -3.0065
  128OSM    C8S13639   2.104   0.762   3.711 -0.1154  0.4488 -0.2058
  128OSM    H8S13640   2.028   0.800   3.783 -0.8464 -3.3010  1.2719
  128OSM    H8T13641   2.194   0.824   3.729  1.2434 -1.7095  0.9865
  128OSM    C9S13642   2.142   0.624   3.763  0.9938 -0.3047  0.6656
  128OSM    H9S13643   2.235   0.595   3.709  0.7096  1.1455 -0.6823
  128OSM    H9T13644   2.060   0.550   3.748  0.4708  0.2236  0.8815
  128OSM   C10S13645   2.159   0.623   3.919 -0.2723  0.5062  0.2850
  128OSM   H10S13646   2.063   0.656   3.965 -0.2881 -0.8039  1.2550
  128OSM   H10T13647   2.241   0.687   3.958  0.7546 -2.1036  2.7179
  128OSM   C11S13648   2.190   0.485   3.992 -0.1844  0.3511 -0.0437
  128OSM   H11S13649   2.283   0.438   3.952 -1.6366 -2.0883 -0.7596
  128OSM   H11T13650   2.104   0.419   3.972  1.4570 -2.4969  1.6786
  128OSM   C12S13651   2.206   0.502   4.146 -0.0878  0.7650  0.6916
  128OSM   H12S13652   2.290   0.566   4.179 -0.4806  0.8558  1.5305
  128OSM   H12T13653   2.254   0.405   4.171 -0.1877  0.0173 -1.7220
  128OSM   C13S13654   2.075   0.532   4.219 -0.4703  0.4319 -0.6034
  128OSM   H13S13655   2.007   0.446   4.201  0.0662  0.0650 -0.9062
  128OSM   H13T13656   2.029   0.621   4.171  1.6268  1.5277 -0.6487
  128OSM   C14S13657   2.082   0.547   4.370 -0.0851 -0.2400  0.2361
  128OSM   H14S13658   1.984   0.587   4.402 -0.5508 -0.2088 -1.1730
  128OSM   H14T13659   2.164   0.617   4.398 -0.6323  0.1718  0.8257
  128OSM   C15S13660   2.092   0.414   4.445  0.2869  0.1321  1.0138
  128OSM   H15S13661   2.196   0.380   4.428 -0.2141 -0.3412 -1.5015
  128OSM   H15T13662   2.009   0.341   4.429 -1.2839  1.8168  1.2214
  128OSM   C16S13663   2.066   0.438   4.596 -0.1415  0.1995  0.3359
  128OSM   H16S13664   1.962   0.457   4.631 -0.6723 -0.2811 -0.9384
  128OSM   H16T13665   2.132   0.516   4.640 -0.6209  0.7242  0.1389
  128OSM   C17S13666   2.082   0.305   4.682 -0.6940  0.1051 -0.4006
  128OSM   H17S13667   2.188   0.279   4.659 -0.5856  1.2714 -1.3283
  128OSM   H17T13668   2.015   0.223   4.648 -0.5493 -0.5837  0.9205
  128OSM   C18S13669   2.055   0.324   4.834 -0.0354 -0.0802 -0.4058
  128OSM   H18S13670   2.081   0.424   4.874 -2.0236  0.7206 -1.0229
  128OSM   H18T13671   2.092   0.232   4.885  0.7571  0.1996 -0.4628
  128OSM   H18U13672   1.945   0.325   4.846  0.0546 -0.3244  0.5027
  128OSM    C1F13673   1.670   0.734   3.103  0.4986  0.1429 -0.7187
  128OSM     OF13674   1.683   0.626   3.048  0.5173  0.2797  0.4543
  128OSM    C2F13675   1.530   0.781   3.141  0.3941 -0.5647  0.5883
  128OSM    H2F13676   1.475   0.782   3.044 -2.2768 -1.1137  2.0195
  128OSM    H2G13677   1.530   0.886   3.178  1.2079 -0.2012 -0.3867
  128OSM    C3F13678   1.448   0.694   3.244 -0.3482 -0.3230 -0.2665
  128OSM    H3F13679   1.446   0.588   3.211  1.7364  0.4371 -3.2430
  128OSM    H3G13680   1.348   0.743   3.255  0.4226  1.1047  0.7113
  128OSM    C4F13681   1.508   0.699   3.388  0.9411 -0.2218 -0.2623
  128OSM    H4F13682   1.487   0.800   3.428 -0.6279 -0.6925  0.1982
  128OSM    H4G13683   1.618   0.686   3.378  1.4008  2.4082  0.6993
  128OSM    C5F13684   1.446   0.591   3.487 -0.9102 -0.3197 -0.1120
  128OSM    H5F13685   1.506   0.499   3.476 -0.1952  0.0926  0.2367
  128OSM    H5G13686   1.340   0.576   3.456 -0.8716 -0.6183 -0.0943
  128OSM    C6F13687   1.450   0.623   3.635  0.8192  0.2782  0.1848
  128OSM    H6F13688   1.388   0.541   3.678  1.3930 -0.1777  0.1760
  128OSM    H6G13689   1.404   0.723   3.650 -0.6210 -0.6623  2.6760
  128OSM    C7F13690   1.595   0.604   3.687  0.0279  0.2352  0.0963
  128OSM    H7F13691   1.667   0.659   3.622  1.4240 -0.5149  0.9486
  128OSM    H7G13692   1.610   0.494   3.687 -4.9384 -0.6862  1.3067
  128OSM    C8F13693   1.604   0.658   3.832 -0.2930  0.5748  0.0463
  128OSM    H8F13694   1.513   0.639   3.892  0.4715  0.0219  1.0695
  128OSM    H8G13695   1.623   0.768   3.832 -0.4426  0.6835  3.0516
  128OSM    C9F13696   1.726   0.600   3.901  0.0607 -0.3675 -0.5939
  128OSM    H9F13697   1.814   0.590   3.835  1.5393 -0.4250  1.2769
  128OSM   C10F13698   1.747   0.541   4.024  0.0824 -0.2202 -0.5880
  128OSM   H10F13699   1.851   0.516   4.051  1.0137 -0.2959 -3.9055
  128OSM   C11F13700   1.652   0.537   4.144  0.2474 -0.3877 -0.0333
  128OSM   H11F13701   1.545   0.540   4.112  0.5894 -1.4156 -1.3685
  128OSM   H11G13702   1.669   0.617   4.219 -1.4185 -0.3207  0.3110
  128OSM   C12F13703   1.659   0.402   4.215 -0.5030  0.3215  0.3983
  128OSM   H12F13704   1.763   0.365   4.226 -0.0585  1.4908  0.2776
  128OSM   H12G13705   1.602   0.332   4.151  0.4149 -1.6056  1.6239
  128OSM   C13F13706   1.602   0.386   4.359  0.3142  0.5094 -0.0718
  128OSM   H13F13707   1.608   0.280   4.392  1.4603  0.3939 -0.5860
  128OSM   H13G13708   1.498   0.425   4.360  0.1489  0.1081 -0.7460
  128OSM   C14F13709   1.686   0.462   4.457  0.4412 -0.3117 -0.2812
  128OSM   H14F13710   1.700   0.564   4.416 -1.4417  0.0019 -0.2002
  128OSM   H14G13711   1.782   0.408   4.475  0.2886 -1.3570 -2.3658
  128OSM   C15F13712   1.615   0.485   4.591 -0.3924  0.5752 -0.6843
  128OSM   H15F13713   1.519   0.537   4.569 -1.1419 -0.3974  0.2187
  128OSM   H15G13714   1.686   0.544   4.653  0.8808 -1.4309 -0.1247
  128OSM   C16F13715   1.593   0.363   4.682 -0.2076 -0.6351  0.2066
  128OSM   H16F13716   1.689   0.311   4.703 -0.0770  0.0492  1.4082
  128OSM   H16G13717   1.529   0.285   4.637 -1.0875  0.4423 -0.4683
  128OSM   C17F13718   1.543   0.416   4.820 -0.2084  0.4458  1.1752
  128OSM   H17F13719   1.433   0.433   4.820 -0.3014 -0.1013  0.4720
  128OSM   H17G13720   1.583   0.518   4.842 -0.8271  0.9227  0.1755
  128OSM   C18F13721   1.584   0.324   4.931  0.0109 -0.4649  0.2961
  128OSM   H18F13722   1.524   0.334   5.024  1.6407 -0.3594  1.3844
  128OSM   H18G13723   1.695   0.324   4.945 -0.0510  0.8707  0.9422
  128OSM   H18H13724   1.545   0.222   4.913  2.1611 -1.5075  1.1384
  129OSM      N13725   1.946   5.953   1.927  0.5120 -0.7658  0.2013
  129OSM    C1513726   1.803   5.937   1.895  0.6660  0.0329  0.2523
  129OSM   H15A13727   1.791   5.858   1.823 -0.0858 -0.0049  0.4094
  129OSM   H15B13728   1.763   6.028   1.853  1.4538 -0.3395 -1.3499
  129OSM   H15C13729   1.749   5.907   1.984 -1.3591  2.6085  0.0363
  129OSM    C1413730   2.012   5.838   1.985 -0.6204  0.6092  0.7180
  129OSM   H14A13731   2.116   5.863   1.970  0.3030 -3.0416 -0.0999
  129OSM   H14B13732   1.990   5.745   1.935  1.0417  0.6207 -0.1118
  129OSM   H14C13733   1.991   5.843   2.091 -0.6980  0.3325  0.7157
  129OSM    C1313734   2.020   5.986   1.801 -0.3308 -0.2768  0.6513
  129OSM   H13A13735   1.982   6.077   1.757  0.4978  0.0706  0.6298
  129OSM   H13B13736   2.029   5.904   1.732 -1.5547  1.5951 -1.8798
  129OSM   H13C13737   2.120   6.011   1.833  0.5874 -3.3908  0.4886
  129OSM    C1213738   1.964   6.076   2.021  0.3106  0.5913 -0.4736
  129OSM   H12A13739   1.922   6.164   1.973 -1.0635  1.0030  1.3710
  129OSM   H12B13740   2.069   6.098   2.025 -0.1532  2.9099  1.5161
  129OSM    C1113741   1.912   6.059   2.161  0.1401 -0.7857 -0.1083
  129OSM   H11A13742   1.805   6.030   2.150 -0.4484  1.1619  0.1881
  129OSM   H11B13743   1.912   6.156   2.214 -0.7705 -2.2510  2.7881
  129OSM      P13744   2.127   5.994   2.287  0.0045 -0.5476 -0.1888
  129OSM    O1313745   2.177   5.877   2.363 -0.3497  0.6518 -0.0594
  129OSM    O1413746   2.209   6.043   2.173 -0.2647  0.0229  0.2268
  129OSM    O1113747   2.098   6.115   2.382  0.0310 -0.1121  0.1025
  129OSM    O1213748   1.983   5.957   2.231 -0.2982 -0.0950 -0.0143
  129OSM    C1S13749   1.985   6.108   2.470  0.1810 -0.4400  0.1000
  129OSM    H1S13750   1.983   6.012   2.527  1.1792  0.4504  1.7125
  129OSM    H1T13751   1.889   6.123   2.416 -0.2147 -0.4204  0.7896
  129OSM     NF13752   1.941   6.167   2.713  0.0307 -0.3379  0.1749
  129OSM    HNF13753   1.862   6.219   2.743  0.4916  0.4731  0.0122
  129OSM    C2S13754   2.002   6.214   2.590  0.5911  1.0725 -0.5349
  129OSM    H2S13755   2.111   6.207   2.614  0.2657 -0.8592  0.5795
  129OSM    C3S13756   1.970   6.358   2.537 -0.2813  0.0737 -1.0664
  129OSM    H3S13757   1.865   6.361   2.502 -1.2883 -0.9841  1.5600
  129OSM     O313758   2.043   6.388   2.418 -0.5785  0.1913 -0.0589
  129OSM    HO313759   2.088   6.307   2.393  1.6118  0.8997  1.2788
  129OSM    C4S13760   1.995   6.462   2.646 -0.1099  0.8993  0.3377
  129OSM    H4S13761   1.900   6.485   2.695 -1.4642 -3.1259 -0.0306
  129OSM    C5S13762   2.115   6.515   2.685 -0.5586  0.2467 -0.3404
  129OSM    H5S13763   2.205   6.487   2.628  0.7593  2.1022  0.7321
  129OSM    C6S13764   2.135   6.617   2.791  0.5986 -0.9425  0.2568
  129OSM    H6S13765   2.064   6.701   2.782 -1.0493 -2.3720 -0.5323
  129OSM    H6T13766   2.236   6.664   2.785  0.2230 -0.3248 -2.8726
  129OSM    C7S13767   2.123   6.555   2.932  0.7605 -0.7809 -0.2274
  129OSM    H7S13768   2.190   6.600   3.007  2.4821 -0.9236 -1.6209
  129OSM    H7T13769   2.152   6.448   2.939 -1.4718 -1.3362  2.0432
  129OSM    C8S13770   1.976   6.565   2.986  0.4690 -0.0419 -1.0251
  129OSM    H8S13771   1.924   6.476   2.945  1.0947 -1.2008  0.5983
  129OSM    H8T13772   1.940   6.656   2.934 -1.6947  0.7114  1.5744
  129OSM    C9S13773   1.979   6.560   3.143  0.1210 -0.1721 -0.2019
  129OSM    H9S13774   1.879   6.523   3.170 -0.3327 -1.1541 -2.9393
  129OSM    H9T13775   1.995   6.667   3.169  3.4492 -0.1556 -1.7162
  129OSM   C10S13776   2.081   6.468   3.213  0.0227 -0.2307  0.3238
  129OSM   H10S13777   2.187   6.495   3.197 -0.1412  0.6988  0.7193
  129OSM   H10T13778   2.067   6.370   3.164  0.3308  0.1961 -0.6390
  129OSM   C11S13779   2.054   6.464   3.364  0.2242  0.1398 -0.0842
  129OSM   H11S13780   1.951   6.429   3.385  0.3285 -0.8318 -1.1109
  129OSM   H11T13781   2.065   6.563   3.414  0.6780  0.7158 -1.2745
  129OSM   C12S13782   2.151   6.373   3.443  0.3479  0.0494 -0.0290
  129OSM   H12S13783   2.242   6.432   3.466 -0.2648  2.7635 -3.6762
  129OSM   H12T13784   2.173   6.285   3.381 -1.4756 -0.0716 -0.5793
  129OSM   C13S13785   2.086   6.318   3.572 -0.2810  0.0731 -0.1943
  129OSM   H13S13786   2.161   6.257   3.626  1.2564  1.1101 -1.0726
  129OSM   H13T13787   2.000   6.259   3.533 -1.4783  0.7391  1.3281
  129OSM   C14S13788   2.049   6.426   3.673  0.3040 -0.1052 -0.5021
  129OSM   H14S13789   1.953   6.481   3.659 -0.4658 -0.7141  1.8804
  129OSM   H14T13790   2.127   6.504   3.670  0.0556  0.2838  1.7194
  129OSM   C15S13791   2.044   6.370   3.819  0.3902 -0.3422  0.9957
  129OSM   H15S13792   2.136   6.310   3.836 -0.0752 -0.7265  2.2461
  129OSM   H15T13793   1.962   6.296   3.832 -0.3839  0.6663  2.0790
  129OSM   C16S13794   2.029   6.474   3.921 -0.1110 -0.7706 -0.1596
  129OSM   H16S13795   1.933   6.525   3.901  1.6231  1.7717 -2.9933
  129OSM   H16T13796   2.093   6.561   3.895 -1.4827  0.4528  0.4378
  129OSM   C17S13797   2.041   6.431   4.074 -0.3191 -0.4558  0.3741
  129OSM   H17S13798   2.147   6.440   4.106  0.1307  0.7047 -1.2634
  129OSM   H17T13799   2.010   6.325   4.085  0.0714 -0.7337 -0.9641
  129OSM   C18S13800   1.960   6.530   4.158 -0.9769  0.8531 -0.0356
  129OSM   H18S13801   2.013   6.627   4.147  0.2054  0.2503  0.1984
  129OSM   H18T13802   1.972   6.490   4.261  1.0776 -0.2036 -0.6368
  129OSM   H18U13803   1.851   6.540   4.135 -0.9622  0.2664 -0.3989
  129OSM    C1F13804   1.996   6.068   2.788 -0.1190  0.6338  0.4995
  129OSM     OF13805   2.087   6.006   2.739  0.1400 -0.2036 -0.2463
  129OSM    C2F13806   1.933   6.040   2.915  0.9103 -0.5546  0.7021
  129OSM    H2F13807   1.846   5.972   2.898  0.0134  0.8645 -0.6546
  129OSM    H2G13808   1.888   6.135   2.950  1.5537 -1.3824  4.1669
  129OSM    C3F13809   2.035   6.004   3.023  0.0660 -0.4685 -0.0287
  129OSM    H3F13810   2.119   6.076   3.035  0.7818 -1.4749  1.2243
  129OSM    H3G13811   2.087   5.908   3.002 -0.1263 -0.8619  1.1812
  129OSM    C4F13812   1.967   6.001   3.158  0.8728  0.3326  0.4591
  129OSM    H4F13813   1.885   5.926   3.155 -1.9328  3.1167  1.3911
  129OSM    H4G13814   1.914   6.098   3.176 -0.9437 -0.9681  2.6686
  129OSM    C5F13815   2.060   5.961   3.277  0.5101 -0.8690 -0.2526
  129OSM    H5F13816   2.151   6.023   3.274  0.5292 -0.9454 -1.8076
  129OSM    H5G13817   2.094   5.857   3.255  1.3044 -0.9665  1.2843
  129OSM    C6F13818   1.999   5.943   3.421 -0.2315 -0.2776  0.1547
  129OSM    H6F13819   1.895   5.904   3.409 -0.8467  0.9865  1.0896
  129OSM    H6G13820   1.983   6.033   3.484 -2.0296 -1.3893  1.4148
  129OSM    C7F13821   2.074   5.850   3.505 -0.3004 -0.4129  0.2264
  129OSM    H7F13822   2.174   5.896   3.519 -0.5915  0.1975  0.3392
  129OSM    H7G13823   2.096   5.756   3.450  1.9023  0.2666 -0.1418
  129OSM    C8F13824   2.003   5.830   3.639  0.0878 -0.0878  0.2695
  129OSM    H8F13825   1.908   5.776   3.617  0.5598 -1.0682  0.6077
  129OSM    H8G13826   1.984   5.924   3.696 -0.0407 -0.8942  1.5769
  129OSM    C9F13827   2.076   5.734   3.723 -0.5467 -0.3030 -0.0016
  129OSM    H9F13828   2.088   5.630   3.688 -0.0225 -0.6195  1.0568
  129OSM   C10F13829   2.103   5.757   3.856  0.0037  0.1340  0.3439
  129OSM   H10F13830   2.144   5.679   3.923 -0.9528 -0.2730  0.4732
  129OSM   C11F13831   2.051   5.880   3.929  0.0948 -0.4694  0.0693
  129OSM   H11F13832   1.944   5.881   3.898 -0.4385 -2.4832  1.6571
  129OSM   H11G13833   2.100   5.974   3.895  0.2678 -0.0291  1.4941
  129OSM   C12F13834   2.052   5.875   4.084 -0.2284  0.5206  0.1143
  129OSM   H12F13835   2.148   5.822   4.105  0.6598  2.0166 -0.0353
  129OSM   H12G13836   1.963   5.816   4.115  0.5464 -1.2911 -0.9377
  129OSM   C13F13837   2.052   6.016   4.143  0.1991  0.2485 -0.4680
  129OSM   H13F13838   1.956   6.063   4.112 -0.2970 -2.1968 -3.0260
  129OSM   H13G13839   2.143   6.072   4.113  0.6386  0.4389  1.1103
  129OSM   C14F13840   2.066   6.012   4.300 -0.7944 -0.4625  0.5933
  129OSM   H14F13841   2.095   6.112   4.338 -1.2235  0.1121 -0.5294
  129OSM   H14G13842   2.142   5.934   4.324  0.4987  0.8895  1.0121
  129OSM   C15F13843   1.929   5.978   4.370 -0.7324 -0.5994  0.0206
  129OSM   H15F13844   1.894   5.889   4.313  0.4374  0.2119 -2.0962
  129OSM   H15G13845   1.865   6.067   4.350  0.1559  0.3717  1.3048
  129OSM   C16F13846   1.939   5.951   4.526  0.1612 -0.6263  0.1683
  129OSM   H16F13847   2.039   5.903   4.530  0.5160  0.0193 -0.5959
  129OSM   H16G13848   1.872   5.870   4.561 -1.0703 -0.6152 -1.9677
  129OSM   C17F13849   1.928   6.084   4.609 -0.6048  0.5529  0.7417
  129OSM   H17F13850   1.823   6.122   4.607 -0.5393  0.7253 -0.2692
  129OSM   H17G13851   1.989   6.143   4.537 -0.1519 -2.8201 -1.8840
  129OSM   C18F13852   1.999   6.066   4.738  0.6298 -0.6843 -0.6597
  129OSM   H18F13853   2.013   6.156   4.802 -0.3418 -1.4095  0.6231
  129OSM   H18G13854   2.102   6.030   4.715  0.7822 -2.0568  1.8196
  129OSM   H18H13855   1.950   5.996   4.809 -2.1255  1.3211 -0.4114
  130OSM      N13856   3.471   3.276   2.227 -0.0228 -0.4034  0.4179
  130OSM    C1513857   3.577   3.262   2.324  1.5682 -0.5804 -0.5611
  130OSM   H15A13858   3.647   3.343   2.314 -0.5793  1.2655 -1.3562
  130OSM   H15B13859   3.634   3.170   2.324  0.8498 -1.0428  0.0761
  130OSM   H15C13860   3.542   3.271   2.426  2.3983 -3.1574  0.0226
  130OSM    C1413861   3.427   3.421   2.233  0.4666  0.9221 -0.3266
  130OSM   H14A13862   3.372   3.452   2.321  0.0884  0.3931 -0.3717
  130OSM   H14B13863   3.371   3.448   2.144 -0.4604  0.2194  0.0351
  130OSM   H14C13864   3.512   3.487   2.222  0.7124  0.3273 -2.4059
  130OSM    C1313865   3.552   3.252   2.099 -0.0613 -0.0380 -0.7585
  130OSM   H13A13866   3.557   3.147   2.075  3.2388  0.1925 -1.4664
  130OSM   H13B13867   3.654   3.280   2.120 -0.5419  0.9423  0.4205
  130OSM   H13C13868   3.515   3.307   2.014 -2.1514 -0.7759 -0.3988
  130OSM    C1213869   3.345   3.195   2.234 -1.2077  0.4825 -0.1877
  130OSM   H12A13870   3.293   3.179   2.141 -0.7020  1.4716 -0.6553
  130OSM   H12B13871   3.286   3.239   2.312  0.4977 -0.1308  1.5256
  130OSM    C1113872   3.369   3.049   2.287 -0.0234  0.0496  0.9736
  130OSM   H11A13873   3.443   2.997   2.221 -4.0035 -2.6337 -1.8908
  130OSM   H11B13874   3.283   2.982   2.265  0.4053 -0.3513  0.4658
  130OSM      P13875   3.338   3.067   2.559 -0.2549  0.0221 -0.5628
  130OSM    O1313876   3.239   3.179   2.542 -0.3505 -0.1672 -0.4781
  130OSM    O1413877   3.281   2.940   2.611  0.0690  0.5487  0.2070
  130OSM    O1113878   3.450   3.099   2.664  0.0124  0.3739  0.2773
  130OSM    O1213879   3.418   3.054   2.424 -0.2055  0.3014  0.6474
  130OSM    C1S13880   3.458   3.227   2.725 -0.7849 -0.0020 -0.0193
  130OSM    H1S13881   3.393   3.306   2.683  0.7289  0.4696 -1.5482
  130OSM    H1T13882   3.560   3.268   2.707 -0.4581 -0.4436  0.7575
  130OSM     NF13883   3.454   3.350   2.937 -0.0474  0.5688  0.8825
  130OSM    HNF13884   3.522   3.373   3.006 -1.5755 -0.8379  3.0277
  130OSM    C2S13885   3.446   3.212   2.881 -0.2522  0.5945  0.6855
  130OSM    H2S13886   3.347   3.167   2.905 -1.1369  2.3144  0.4842
  130OSM    C3S13887   3.563   3.128   2.935 -0.2508  0.0852 -0.6732
  130OSM    H3S13888   3.656   3.189   2.934 -0.4105  0.3210 -1.2152
  130OSM     O313889   3.589   3.010   2.872 -0.4899 -0.1546  0.5257
  130OSM    HO313890   3.540   3.028   2.792  0.8823  1.2813 -0.0506
  130OSM    C4S13891   3.567   3.106   3.085  0.4739  0.0779  0.0109
  130OSM    H4S13892   3.578   3.196   3.148 -0.1577 -0.9245  1.6400
  130OSM    C5S13893   3.536   2.996   3.156 -0.1320  0.0299 -0.6946
  130OSM    H5S13894   3.487   2.912   3.105  1.2885  0.0360 -2.1616
  130OSM    C6S13895   3.550   2.977   3.308  0.2436 -0.0176  0.0042
  130OSM    H6S13896   3.564   2.868   3.326 -0.3127 -0.2992 -1.1377
  130OSM    H6T13897   3.459   3.016   3.357 -0.8668 -0.6348 -1.4827
  130OSM    C7S13898   3.673   3.057   3.360 -0.9745 -0.2840  0.4347
  130OSM    H7S13899   3.659   3.165   3.341 -0.2464 -0.1849  0.4242
  130OSM    H7T13900   3.765   3.038   3.300 -0.4321  3.1080 -0.0162
  130OSM    C8S13901   3.703   3.026   3.509 -0.3893 -0.1761  0.3223
  130OSM    H8S13902   3.617   3.066   3.566 -1.8734 -1.3361 -1.0101
  130OSM    H8T13903   3.793   3.088   3.531  0.1675 -0.4494 -1.0638
  130OSM    C9S13904   3.739   2.882   3.543  0.7100  0.6052 -0.4081
  130OSM    H9S13905   3.820   2.863   3.469  0.6299 -2.2063  0.1056
  130OSM    H9T13906   3.653   2.822   3.509  0.4448  0.7861 -0.0645
  130OSM   C10S13907   3.782   2.853   3.683  0.4749 -0.2977  0.4972
  130OSM   H10S13908   3.701   2.831   3.755 -0.2743  1.1592  0.1359
  130OSM   H10T13909   3.832   2.947   3.715  1.3942  0.9945 -3.9391
  130OSM   C11S13910   3.887   2.737   3.685  0.0945 -0.3719 -0.6793
  130OSM   H11S13911   3.962   2.766   3.609 -0.3181 -0.0951 -0.9852
  130OSM   H11T13912   3.833   2.643   3.662 -1.3528  0.3542 -0.3501
  130OSM   C12S13913   3.964   2.724   3.816 -0.2388  0.6308 -0.2049
  130OSM   H12S13914   3.964   2.828   3.855 -0.6529  0.8314 -0.7369
  130OSM   H12T13915   4.067   2.696   3.783  0.0290  1.1809  0.1476
  130OSM   C13S13916   3.895   2.618   3.912  0.7734  0.5488 -0.2627
  130OSM   H13S13917   3.893   2.526   3.849 -0.2923  0.8367 -0.6591
  130OSM   H13T13918   3.791   2.656   3.921  0.7244  0.8432 -1.7039
  130OSM   C14S13919   3.961   2.610   4.050 -0.0684  0.4550 -0.0128
  130OSM   H14S13920   3.970   2.713   4.092 -0.7560  1.5452 -2.4068
  130OSM   H14T13921   4.070   2.597   4.034 -0.1797 -0.9799  0.2654
  130OSM   C15S13922   3.908   2.501   4.138  0.5015 -0.0905  0.5610
  130OSM   H15S13923   3.934   2.401   4.097 -0.8493 -0.4902  0.6125
  130OSM   H15T13924   3.797   2.507   4.126  0.6856  0.0396 -1.2961
  130OSM   C16S13925   3.944   2.511   4.287  0.2606  0.0500  0.4857
  130OSM   H16S13926   3.920   2.617   4.310  2.2817  0.3801  1.2429
  130OSM   H16T13927   4.052   2.487   4.297 -0.2712 -2.0067  1.9461
  130OSM   C17S13928   3.860   2.416   4.372  0.4476  0.4784 -0.0981
  130OSM   H17S13929   3.872   2.317   4.324  1.4121  0.2047  0.6627
  130OSM   H17T13930   3.752   2.442   4.376  0.7183  1.5251  1.3712
  130OSM   C18S13931   3.912   2.424   4.519 -0.1220 -0.2602 -0.0304
  130OSM   H18S13932   3.834   2.393   4.591  0.7245  0.3786  1.1971
  130OSM   H18T13933   3.944   2.528   4.540  0.0275 -0.3439  0.1521
  130OSM   H18U13934   4.003   2.362   4.534 -0.6864 -2.0149 -3.0035
  130OSM    C1F13935   3.356   3.438   2.944  0.3371  0.6866 -0.6508
  130OSM     OF13936   3.250   3.427   2.887  0.2491 -0.0932  0.0424
  130OSM    C2F13937   3.388   3.561   3.025  0.4203 -0.3478  0.1749
  130OSM    H2F13938   3.483   3.606   2.989  0.2360  1.6307  1.9898
  130OSM    H2G13939   3.383   3.538   3.134  0.0930 -2.3770 -0.2211
  130OSM    C3F13940   3.287   3.673   3.008  0.4624  0.3446 -0.0452
  130OSM    H3F13941   3.183   3.644   3.033  0.6848 -1.2101 -0.7733
  130OSM    H3G13942   3.285   3.700   2.900 -1.5964  1.2550  0.1771
  130OSM    C4F13943   3.340   3.800   3.081  0.1977 -0.2787 -0.1738
  130OSM    H4F13944   3.295   3.891   3.036  0.2565  1.3364  2.8074
  130OSM    H4G13945   3.450   3.804   3.066  0.6311 -2.3109  1.9220
  130OSM    C5F13946   3.314   3.805   3.231 -0.0361  0.5465 -0.1856
  130OSM    H5F13947   3.358   3.899   3.271  1.9721  0.6048 -2.3343
  130OSM    H5G13948   3.353   3.712   3.277 -0.5993  0.5136  0.2387
  130OSM    C6F13949   3.168   3.833   3.253 -0.8030  0.0393 -0.2028
  130OSM    H6F13950   3.097   3.787   3.182 -0.3037 -0.3386 -0.4607
  130OSM    H6G13951   3.155   3.943   3.237  0.5277  0.1889 -0.3491
  130OSM    C7F13952   3.115   3.806   3.398 -0.2078 -0.2146  0.2104
  130OSM    H7F13953   3.007   3.832   3.392 -0.3966 -0.7263  1.1469
  130OSM    H7G13954   3.168   3.874   3.467  1.1678 -1.4140  0.3754
  130OSM    C8F13955   3.135   3.659   3.436 -0.3621 -0.1804  0.6139
  130OSM    H8F13956   3.240   3.633   3.461  0.5878  1.3407 -1.4669
  130OSM    H8G13957   3.098   3.607   3.344 -3.2738  0.9214  1.0522
  130OSM    C9F13958   3.048   3.606   3.546  0.2591 -0.3043  0.8928
  130OSM    H9F13959   2.950   3.590   3.498  0.6826  0.2370 -0.1894
  130OSM   C10F13960   3.076   3.566   3.666  0.0039  0.1170  0.4483
  130OSM   H10F13961   2.990   3.543   3.730 -1.6965  1.9989 -1.0312
  130OSM   C11F13962   3.209   3.585   3.743  0.4580 -0.5513 -0.3963
  130OSM   H11F13963   3.248   3.687   3.720 -1.1986  1.0230  3.1121
  130OSM   H11G13964   3.284   3.515   3.702  1.0525 -0.8266  1.1086
  130OSM   C12F13965   3.201   3.563   3.895  0.5292 -0.6763 -0.0155
  130OSM   H12F13966   3.120   3.489   3.911 -1.0088  0.6908 -1.2221
  130OSM   H12G13967   3.172   3.661   3.937  1.2065 -0.5131  0.0889
  130OSM   C13F13968   3.328   3.516   3.967  0.6255 -0.3598  0.6421
  130OSM   H13F13969   3.406   3.596   3.969 -0.4108  0.7934 -1.5770
  130OSM   H13G13970   3.369   3.433   3.906 -0.9232 -0.7314  0.0738
  130OSM   C14F13971   3.287   3.456   4.105 -0.3035  0.5728 -0.0160
  130OSM   H14F13972   3.235   3.362   4.077 -1.6087  1.6395 -1.3581
  130OSM   H14G13973   3.213   3.522   4.154 -1.5073 -2.0739  1.9556
  130OSM   C15F13974   3.403   3.451   4.208  0.2934 -0.1830  0.6791
  130OSM   H15F13975   3.378   3.421   4.312  0.1080 -1.9659  0.1397
  130OSM   H15G13976   3.421   3.560   4.220  2.3367 -0.3729 -0.2042
  130OSM   C16F13977   3.528   3.365   4.183 -0.3194  0.1569  0.2059
  130OSM   H16F13978   3.581   3.411   4.098 -0.3114 -1.3742 -0.6510
  130OSM   H16G13979   3.498   3.261   4.158  0.4853 -0.6636  2.4137
  130OSM   C17F13980   3.645   3.359   4.289 -0.9834  0.4393 -1.0285
  130OSM   H17F13981   3.674   3.463   4.315  1.0939 -0.1063 -0.9837
  130OSM   H17G13982   3.732   3.309   4.241 -0.3295 -0.4161  0.9054
  130OSM   C18F13983   3.620   3.281   4.417  0.8032 -0.5501  0.7051
  130OSM   H18F13984   3.716   3.274   4.473  2.0010 -1.2309 -1.3393
  130OSM   H18G13985   3.592   3.177   4.392 -1.5650  0.0493  0.6540
  130OSM   H18H13986   3.552   3.333   4.488 -1.2741 -2.5777  0.3362
  131OSM      N13987   0.923   0.251   2.325 -0.7496 -0.1504 -0.1151
  131OSM    C1513988   1.059   0.268   2.266 -0.1772  0.3744 -0.5272
  131OSM   H15A13989   1.050   0.289   2.160 -0.1313 -1.7083 -0.9806
  131OSM   H15B13990   1.123   0.182   2.277  0.0621  0.7384  1.1875
  131OSM   H15C13991   1.098   0.361   2.305 -0.3113  0.0925  0.2849
  131OSM    C1413992   0.844   0.381   2.311 -0.7139  0.2941  0.5642
  131OSM   H14A13993   0.826   0.410   2.208 -1.6590 -0.1858  0.5816
  131OSM   H14B13994   0.886   0.461   2.370 -0.3283 -0.9154  1.9958
  131OSM   H14C13995   0.748   0.349   2.349 -1.1286 -1.7294 -1.8848
  131OSM    C1313996   0.851   0.141   2.254  0.3849 -0.1481 -0.2354
  131OSM   H13A13997   0.758   0.112   2.301  0.4683 -0.0552 -0.0106
  131OSM   H13B13998   0.917   0.056   2.247 -0.0036 -0.3414 -2.2729
  131OSM   H13C13999   0.830   0.172   2.152 -0.1492  0.1580 -0.0369
  131OSM    C1214000   0.941   0.213   2.469  1.2612 -0.2089  0.4462
  131OSM   H12A14001   1.001   0.124   2.465 -0.1429 -1.2286  1.1870
  131OSM   H12B14002   0.854   0.173   2.518  0.1615  0.6325 -0.7603
  131OSM    C1114003   1.004   0.320   2.565  0.2226  0.2334  0.3169
  131OSM   H11A14004   1.006   0.281   2.669  2.9645 -0.7086 -0.0161
  131OSM   H11B14005   0.946   0.414   2.558 -0.8284 -0.4637 -5.2828
  131OSM      P14006   1.276   0.298   2.594 -0.4325  0.0799 -0.0597
  131OSM    O1314007   1.383   0.335   2.500 -0.1206 -0.1755 -0.2388
  131OSM    O1414008   1.291   0.354   2.733  0.2830 -0.5106  0.0224
  131OSM    O1114009   1.261   0.138   2.605  0.2207 -0.5456 -0.0133
  131OSM    O1214010   1.142   0.355   2.527 -0.2275 -0.1085  0.2329
  131OSM    C1S14011   1.360   0.055   2.671  0.5463 -0.1573 -0.0379
  131OSM    H1S14012   1.461   0.101   2.670 -0.2348  1.6292 -0.1698
  131OSM    H1T14013   1.369  -0.043   2.620 -2.5371 -0.1037 -0.8590
  131OSM     NF14014   1.432  -0.084   2.868  0.0700  0.2775  0.1985
  131OSM    HNF14015   1.407  -0.180   2.856  2.3112 -0.3619  0.2342
  131OSM    C2S14016   1.337   0.017   2.822  0.3694  0.4054 -0.3885
  131OSM    H2S14017   1.364   0.104   2.885  0.9606  0.5470 -0.8246
  131OSM    C3S14018   1.190  -0.009   2.862 -0.3835  0.0688 -0.3289
  131OSM    H3S14019   1.157  -0.105   2.819 -0.1401 -0.5431  0.8144
  131OSM     O314020   1.094   0.086   2.816 -0.0217 -0.4709  0.7389
  131OSM    HO314021   1.139   0.146   2.756  0.3742 -1.2946  0.1979
  131OSM    C4S14022   1.176  -0.018   3.009  0.1201  1.0452  0.9673
  131OSM    H4S14023   1.217   0.069   3.063  0.6221  3.8854 -3.5127
  131OSM    C5S14024   1.109  -0.112   3.079 -0.6896  0.1207  0.4873
  131OSM    H5S14025   1.058  -0.187   3.017 -1.1150 -0.5294  1.6022
  131OSM    C6S14026   1.077  -0.118   3.221 -0.4106  0.1786 -0.8072
  131OSM    H6S14027   0.972  -0.151   3.233 -0.4424  0.6109  0.2075
  131OSM    H6T14028   1.072  -0.015   3.262  0.5632  0.6726 -1.8776
  131OSM    C7S14029   1.185  -0.181   3.307  0.1414 -0.4194 -0.2244
  131OSM    H7S14030   1.281  -0.123   3.307  1.5373 -2.6028  0.5257
  131OSM    H7T14031   1.211  -0.275   3.254 -3.1655 -0.8249 -1.2988
  131OSM    C8S14032   1.138  -0.210   3.443 -0.3072 -0.0984  0.1052
  131OSM    H8S14033   1.062  -0.291   3.442  0.2201 -0.6147  0.7690
  131OSM    H8T14034   1.090  -0.122   3.490  1.1636 -0.0326  1.5785
  131OSM    C9S14035   1.253  -0.257   3.527 -0.0933 -0.0752 -0.5629
  131OSM    H9S14036   1.335  -0.182   3.526  0.2512 -0.4107  0.7755
  131OSM    H9T14037   1.292  -0.358   3.502 -0.8053 -0.6049  0.3689
  131OSM   C10S14038   1.199  -0.264   3.674 -0.2242 -0.6392  0.1746
  131OSM   H10S14039   1.122  -0.344   3.679 -1.8273  0.6668 -1.5927
  131OSM   H10T14040   1.146  -0.168   3.695  0.5601  0.0581 -0.9122
  131OSM   C11S14041   1.305  -0.281   3.779  0.3175  0.3216 -0.0023
  131OSM   H11S14042   1.381  -0.201   3.788 -0.0899  0.5113  2.5028
  131OSM   H11T14043   1.354  -0.380   3.771  1.7562  1.0536 -0.4922
  131OSM   C12S14044   1.236  -0.280   3.922  0.1848 -0.5285  0.2238
  131OSM   H12S14045   1.179  -0.375   3.931 -0.0515 -0.5360 -1.0815
  131OSM   H12T14046   1.170  -0.191   3.921  2.6277  1.5124  2.9525
  131OSM   C13S14047   1.330  -0.263   4.041 -0.2680  0.1313  0.1511
  131OSM   H13S14048   1.373  -0.161   4.049  1.7106 -0.6372 -0.1959
  131OSM   H13T14049   1.404  -0.345   4.028  1.4379  1.6366 -0.0414
  131OSM   C14S14050   1.259  -0.311   4.166 -0.2827  0.4973  0.1463
  131OSM   H14S14051   1.331  -0.333   4.247  1.5602 -0.1335 -1.6018
  131OSM   H14T14052   1.209  -0.406   4.138 -0.2727 -0.4649  3.0518
  131OSM   C15S14053   1.152  -0.211   4.216  0.7869  0.0107  0.9875
  131OSM   H15S14054   1.070  -0.192   4.144  0.0788 -1.5608  1.3429
  131OSM   H15T14055   1.204  -0.114   4.232  1.6565 -0.4363  0.9723
  131OSM   C16S14056   1.092  -0.250   4.355 -0.4190 -0.4107 -0.0804
  131OSM   H16S14057   1.154  -0.198   4.431 -1.2829 -1.1072  1.1202
  131OSM   H16T14058   1.091  -0.361   4.356 -0.1812 -0.4548 -1.6480
  131OSM   C17S14059   0.950  -0.189   4.377  0.5501  0.0033 -0.5819
  131OSM   H17S14060   0.884  -0.222   4.294  0.6579  0.3268 -0.7980
  131OSM   H17T14061   0.958  -0.079   4.366 -1.3951  0.3695  1.0373
  131OSM   C18S14062   0.871  -0.224   4.513  0.2664 -0.0468 -0.1400
  131OSM   H18S14063   0.867  -0.330   4.544  1.1652  0.0921  0.4978
  131OSM   H18T14064   0.765  -0.194   4.498  0.8793  3.0754  0.9551
  131OSM   H18U14065   0.914  -0.167   4.599 -0.2074 -0.7434  0.5677
  131OSM    C1F14066   1.564  -0.056   2.889  0.0940  0.0706 -0.3772
  131OSM     OF14067   1.595   0.065   2.884  0.4853  0.3757  0.5021
  131OSM    C2F14068   1.661  -0.165   2.932 -0.5241  0.0450  0.0870
  131OSM    H2F14069   1.736  -0.119   3.001  1.3535 -4.5677  1.5083
  131OSM    H2G14070   1.714  -0.198   2.840 -1.2775  1.6894 -0.9902
  131OSM    C3F14071   1.604  -0.280   3.019  0.0695  0.0320  0.0893
  131OSM    H3F14072   1.700  -0.323   3.055  0.5781  0.3787 -0.8236
  131OSM    H3G14073   1.546  -0.349   2.953  0.5607 -1.2646  0.9536
  131OSM    C4F14074   1.511  -0.245   3.142 -0.8225  0.0917  0.4239
  131OSM    H4F14075   1.406  -0.224   3.114 -1.6854 -2.6914  1.2622
  131OSM    H4G14076   1.560  -0.156   3.185  0.7919  0.1319 -1.3555
  131OSM    C5F14077   1.511  -0.370   3.243 -0.3932  0.9001 -0.0747
  131OSM    H5F14078   1.445  -0.447   3.198  0.3608  0.1743  0.0306
  131OSM    H5G14079   1.459  -0.329   3.332  0.3680  0.9784  0.3433
  131OSM    C6F14080   1.641  -0.433   3.296  0.0489  0.0735  0.3398
  131OSM    H6F14081   1.704  -0.354   3.344 -0.2200  2.8578 -3.4624
  131OSM    H6G14082   1.695  -0.480   3.211 -0.7941  1.4107 -0.9892
  131OSM    C7F14083   1.627  -0.546   3.401 -0.0732  0.7798 -0.4353
  131OSM    H7F14084   1.730  -0.578   3.430 -0.1111  1.0214 -0.0405
  131OSM    H7G14085   1.565  -0.619   3.345 -1.5616 -0.1342  2.2571
  131OSM    C8F14086   1.545  -0.530   3.533 -0.8270 -0.5526  0.3418
  131OSM    H8F14087   1.566  -0.625   3.586  2.2585 -0.0172  0.3012
  131OSM    H8G14088   1.437  -0.521   3.509 -0.7381 -0.7462 -0.1289
  131OSM    C9F14089   1.603  -0.410   3.605  0.0843  0.5402 -0.1892
  131OSM    H9F14090   1.618  -0.323   3.540  1.1078 -0.0882 -0.8131
  131OSM   C10F14091   1.637  -0.421   3.735  0.5669 -0.0160  0.1638
  131OSM   H10F14092   1.675  -0.334   3.790  1.9225 -2.0487  2.6671
  131OSM   C11F14093   1.617  -0.543   3.820 -0.2879  0.1275 -0.3345
  131OSM   H11F14094   1.677  -0.631   3.788  0.2822  0.6288 -0.6489
  131OSM   H11G14095   1.510  -0.574   3.827 -1.7162  4.5804  0.8321
  131OSM   C12F14096   1.659  -0.514   3.965 -0.0020  1.0385 -0.1226
  131OSM   H12F14097   1.610  -0.420   4.000 -0.8421  0.6724 -0.2736
  131OSM   H12G14098   1.769  -0.507   3.954 -0.3083  2.1033 -4.0741
  131OSM   C13F14099   1.625  -0.642   4.047  0.6456  0.2431  0.9487
  131OSM   H13F14100   1.660  -0.735   3.998 -1.9637  0.4166 -1.4879
  131OSM   H13G14101   1.516  -0.661   4.039  1.2634 -3.3929 -0.9181
  131OSM   C14F14102   1.672  -0.646   4.190 -0.1190  0.0916 -0.8529
  131OSM   H14F14103   1.782  -0.629   4.197 -0.1021  0.5282 -1.9438
  131OSM   H14G14104   1.654  -0.736   4.251 -1.6461  1.2188  0.4644
  131OSM   C15F14105   1.608  -0.532   4.267 -1.0360 -0.2556 -0.7203
  131OSM   H15F14106   1.505  -0.528   4.228 -0.3265  0.2251 -2.6543
  131OSM   H15G14107   1.655  -0.433   4.248 -0.2597  0.0679  2.2710
  131OSM   C16F14108   1.606  -0.541   4.416  0.1122 -0.3313  0.2405
  131OSM   H16F14109   1.709  -0.548   4.458 -0.4798  0.9337  2.0293
  131OSM   H16G14110   1.552  -0.629   4.456  1.0848 -1.4601 -0.8433
  131OSM   C17F14111   1.533  -0.421   4.477 -0.0182 -1.0160  0.9227
  131OSM   H17F14112   1.432  -0.411   4.431 -0.4106  0.5935  2.0405
  131OSM   H17G14113   1.599  -0.341   4.438  2.0495 -2.4474  1.3413
  131OSM   C18F14114   1.512  -0.413   4.636  0.4166  0.0883  0.5772
  131OSM   H18F14115   1.608  -0.449   4.679  0.6441 -1.4806 -1.1058
  131OSM   H18G14116   1.440  -0.492   4.663  0.0278 -1.0191 -3.0835
  131OSM   H18H14117   1.478  -0.313   4.669 -1.5784 -0.1074 -0.7352
  132OSM      N14118   0.107   6.571   2.575  0.0411  0.1084 -0.3935
  132OSM    C1514119   0.254   6.555   2.593  0.5392  0.4464 -0.4463
  132OSM   H15A14120   0.305   6.615   2.519 -0.5224  0.6831 -1.0091
  132OSM   H15B14121   0.288   6.454   2.608  0.9700  0.4264 -1.5235
  132OSM   H15C14122   0.285   6.609   2.682  2.3257 -1.1300 -0.0462
  132OSM    C1414123   0.065   6.476   2.467  0.0596 -0.3515 -0.7988
  132OSM   H14A14124   0.122   6.476   2.376 -0.7144 -4.2001 -1.4550
  132OSM   H14B14125  -0.041   6.491   2.450  0.1109 -0.2487 -1.0190
  132OSM   H14C14126   0.078   6.377   2.509  1.6686 -0.2376 -0.9612
  132OSM    C1314127   0.044   6.514   2.697  0.7964 -0.4521  0.0163
  132OSM   H13A14128  -0.063   6.507   2.691  0.7002  0.9319 -0.2072
  132OSM   H13B14129   0.058   6.584   2.778  1.8659  1.1279 -1.4532
  132OSM   H13C14130   0.081   6.415   2.720  0.6698 -0.6141 -0.4712
  132OSM    C1214131   0.061   6.713   2.558 -0.3592  0.6524 -0.5877
  132OSM   H12A14132  -0.045   6.709   2.540 -1.0449  0.6512  2.7108
  132OSM   H12B14133   0.098   6.755   2.466  1.7501  0.2911  0.0164
  132OSM    C1114134   0.099   6.812   2.668  0.0869 -0.0061  0.0868
  132OSM   H11A14135   0.049   6.787   2.765  0.3232  1.4663  0.6001
  132OSM   H11B14136   0.054   6.906   2.629  0.9869 -0.4043 -2.0499
  132OSM      P14137   0.334   6.904   2.594 -0.1634  0.1345  0.0881
  132OSM    O1314138   0.413   6.802   2.528  0.0423 -0.0814 -0.1625
  132OSM    O1414139   0.265   7.002   2.520 -0.3279 -0.3924  0.1163
  132OSM    O1114140   0.421   6.970   2.698 -0.0284 -0.0623 -0.7280
  132OSM    O1214141   0.238   6.836   2.689 -0.0641 -0.4543  0.2296
  132OSM    C1S14142   0.369   7.077   2.781  0.5789  0.8943  0.2371
  132OSM    H1S14143   0.282   7.048   2.844  1.0512  1.0402  0.9739
  132OSM    H1T14144   0.337   7.162   2.717  0.3835 -0.7343 -1.9031
  132OSM     NF14145   0.407   7.221   2.978 -0.2376  0.7523  0.9151
  132OSM    HNF14146   0.405   7.317   2.951  1.4675  0.8509  1.0291
  132OSM    C2S14147   0.469   7.130   2.884  0.9078  0.2807 -0.4623
  132OSM    H2S14148   0.502   7.041   2.941 -0.7777  0.9636  1.6855
  132OSM    C3S14149   0.588   7.182   2.803  0.6533 -0.2259 -0.1626
  132OSM    H3S14150   0.544   7.252   2.728 -1.9224 -1.3280  0.2130
  132OSM     O314151   0.652   7.076   2.733 -0.2226  0.1345  0.0374
  132OSM    HO314152   0.578   7.018   2.717 -0.0185  0.1963 -1.3217
  132OSM    C4S14153   0.702   7.255   2.877 -0.0018  0.0268 -0.5902
  132OSM    H4S14154   0.773   7.185   2.924 -0.5548  0.6559  1.2709
  132OSM    C5S14155   0.743   7.381   2.864 -0.6765  0.0321 -0.1683
  132OSM    H5S14156   0.686   7.451   2.801  0.4374 -0.0867 -1.3317
  132OSM    C6S14157   0.871   7.429   2.932 -0.3551  0.4936  0.2399
  132OSM    H6S14158   0.839   7.526   2.977 -1.0585  0.6290 -0.5162
  132OSM    H6T14159   0.953   7.442   2.859  0.2093 -2.4113  0.2707
  132OSM    C7S14160   0.929   7.356   3.055 -0.7774  1.1697  0.5085
  132OSM    H7S14161   0.954   7.251   3.029 -1.1994  1.4562 -1.1591
  132OSM    H7T14162   0.853   7.351   3.135 -2.1437 -2.0760 -0.8202
  132OSM    C8S14163   1.056   7.422   3.121 -0.3361  0.1120 -0.0565
  132OSM    H8S14164   1.039   7.531   3.135  0.3228  0.1970  0.1030
  132OSM    H8T14165   1.134   7.393   3.047 -1.0643 -1.2109 -0.3367
  132OSM    C9S14166   1.094   7.361   3.258 -0.5142  0.2056  0.2525
  132OSM    H9S14167   1.014   7.401   3.323  0.2746  1.0177  0.7437
  132OSM    H9T14168   1.189   7.407   3.294 -0.0070  0.2258 -1.0565
  132OSM   C10S14169   1.104   7.204   3.253  0.3528  0.3508  0.1398
  132OSM   H10S14170   1.192   7.180   3.189  0.8555  1.8523  0.2276
  132OSM   H10T14171   1.006   7.162   3.222 -1.1430  1.8570  2.5516
  132OSM   C11S14172   1.146   7.138   3.383 -0.4397 -0.9176  0.1256
  132OSM   H11S14173   1.246   7.168   3.420 -0.1910 -0.5500 -0.8035
  132OSM   H11T14174   1.140   7.030   3.356 -0.8355 -0.5808 -1.2016
  132OSM   C12S14175   1.044   7.165   3.491 -0.1925  0.3110 -0.5972
  132OSM   H12S14176   0.946   7.173   3.439 -0.4368 -1.8130 -0.5588
  132OSM   H12T14177   1.055   7.268   3.530  0.0173  0.1157 -0.1287
  132OSM   C13S14178   1.031   7.054   3.602 -0.5445  0.2826 -0.0161
  132OSM   H13S14179   1.031   6.956   3.550  3.7124 -0.7796  1.5350
  132OSM   H13T14180   0.935   7.082   3.651  0.7720  1.2505  2.1768
  132OSM   C14S14181   1.151   7.053   3.694  0.4167 -0.4971  0.3535
  132OSM   H14S14182   1.238   7.020   3.633  0.2671  0.9168 -0.6589
  132OSM   H14T14183   1.137   6.975   3.772  2.6562 -1.5684 -0.2354
  132OSM   C15S14184   1.182   7.187   3.759 -0.0025 -0.1425 -0.0761
  132OSM   H15S14185   1.088   7.210   3.813  1.4854 -1.4672  3.3179
  132OSM   H15T14186   1.201   7.273   3.691  2.0275  0.0225  0.6252
  132OSM   C16S14187   1.302   7.188   3.861  0.8188  0.9738 -0.5739
  132OSM   H16S14188   1.264   7.267   3.929 -3.4642  0.6720 -2.3581
  132OSM   H16T14189   1.404   7.211   3.823  0.2709  1.6833 -1.6550
  132OSM   C17S14190   1.301   7.046   3.934 -0.3985  0.5720  0.1237
  132OSM   H17S14191   1.335   6.972   3.859  0.1346  2.0736 -1.1508
  132OSM   H17T14192   1.197   7.030   3.969  0.2632  0.3806  2.1650
  132OSM   C18S14193   1.395   7.060   4.063  0.1821  0.3324  0.1585
  132OSM   H18S14194   1.496   7.071   4.018  0.6071  0.2511  1.0756
  132OSM   H18T14195   1.392   6.966   4.122 -0.4739 -0.1595 -0.6278
  132OSM   H18U14196   1.355   7.145   4.123  0.2866 -0.6831  1.7101
  132OSM    C1F14197   0.316   7.174   3.066  0.4143 -0.1520  1.0412
  132OSM     OF14198   0.267   7.066   3.065  0.1810 -0.0420 -0.0061
  132OSM    C2F14199   0.275   7.272   3.162 -0.4260 -1.1449 -1.3080
  132OSM    H2F14200   0.164   7.279   3.154 -0.4089 -0.2587 -0.8946
  132OSM    H2G14201   0.316   7.372   3.136  1.2004 -1.3536  0.2269
  132OSM    C3F14202   0.312   7.226   3.304 -0.3003 -0.2076  0.1702
  132OSM    H3F14203   0.421   7.207   3.318  0.1365  1.3844 -0.8463
  132OSM    H3G14204   0.259   7.132   3.330 -0.8904  0.4557  1.4886
  132OSM    C4F14205   0.266   7.325   3.412 -0.1613 -0.5845  0.0764
  132OSM    H4F14206   0.156   7.333   3.406 -0.1088 -0.8165 -1.7337
  132OSM    H4G14207   0.314   7.423   3.393  0.8933 -1.6355 -3.7543
  132OSM    C5F14208   0.311   7.266   3.546  0.0493  0.0903 -0.3550
  132OSM    H5F14209   0.422   7.272   3.549  0.0705 -0.0952  3.0594
  132OSM    H5G14210   0.287   7.158   3.559 -2.5499  0.8427  1.9444
  132OSM    C6F14211   0.253   7.341   3.665  0.3305 -0.0449  0.7003
  132OSM    H6F14212   0.146   7.313   3.663  0.9890 -2.8582 -0.7067
  132OSM    H6G14213   0.272   7.451   3.662  1.9124 -0.3131 -0.2359
  132OSM    C7F14214   0.312   7.284   3.796  0.2665 -0.3410  0.0379
  132OSM    H7F14215   0.395   7.353   3.823 -0.7808  1.2763 -0.7501
  132OSM    H7G14216   0.346   7.179   3.784 -1.2435 -1.1302  2.1336
  132OSM    C8F14217   0.212   7.286   3.905  0.0629  0.4240 -0.4946
  132OSM    H8F14218   0.133   7.213   3.879  1.8131 -1.0894 -1.8558
  132OSM    H8G14219   0.172   7.389   3.916 -0.4283  0.3765 -1.6257
  132OSM    C9F14220   0.285   7.235   4.032  0.2128  0.4444  0.4914
  132OSM    H9F14221   0.352   7.150   4.014  1.1054  1.2344 -0.0228
  132OSM   C10F14222   0.287   7.287   4.152  0.4614 -0.3935  0.2939
  132OSM   H10F14223   0.342   7.248   4.238 -1.2210  0.0417  1.6288
  132OSM   C11F14224   0.203   7.408   4.196 -1.0733  0.4956 -0.1631
  132OSM   H11F14225   0.152   7.393   4.293  3.3745 -0.2560  2.3233
  132OSM   H11G14226   0.145   7.451   4.112  0.5616  3.0336 -0.1086
  132OSM   C12F14227   0.301   7.521   4.235  0.7787  0.2334  0.9824
  132OSM   H12F14228   0.237   7.612   4.226  1.0577  0.2601 -1.4770
  132OSM   H12G14229   0.377   7.541   4.157 -1.9606  2.6330 -1.2995
  132OSM   C13F14230   0.370   7.490   4.369  0.4023 -0.5582  0.3352
  132OSM   H13F14231   0.424   7.394   4.386  0.8631 -0.4599 -0.4693
  132OSM   H13G14232   0.289   7.484   4.444  0.3614 -1.2891  0.2405
  132OSM   C14F14233   0.469   7.608   4.407  0.6174 -0.4014 -0.1827
  132OSM   H14F14234   0.404   7.698   4.396  0.2257 -0.6236  0.2662
  132OSM   H14G14235   0.548   7.608   4.329 -0.0324 -1.1571 -0.8534
  132OSM   C15F14236   0.519   7.613   4.549  0.2652 -0.1314 -0.2357
  132OSM   H15F14237   0.434   7.622   4.620  0.5538  0.6904  0.0201
  132OSM   H15G14238   0.572   7.709   4.567 -2.2040  0.9462  1.9782
  132OSM   C16F14239   0.604   7.490   4.571 -0.2151  0.5073  1.0019
  132OSM   H16F14240   0.684   7.476   4.496 -0.1232  0.7863  1.0458
  132OSM   H16G14241   0.541   7.399   4.554  0.4231  0.8121 -4.8009
  132OSM   C17F14242   0.667   7.495   4.708  0.3176  0.2895 -0.2853
  132OSM   H17F14243   0.591   7.524   4.783 -0.3218  0.0420 -0.8229
  132OSM   H17G14244   0.744   7.576   4.712  1.3694 -0.6720 -0.5360
  132OSM   C18F14245   0.737   7.368   4.753  0.4960  0.3931  0.0553
  132OSM   H18F14246   0.814   7.345   4.677 -0.9288 -0.4578 -1.1667
  132OSM   H18G14247   0.676   7.279   4.778  1.8276 -0.2965  0.9833
  132OSM   H18H14248   0.809   7.403   4.831  1.9062 -0.1292 -0.9865
  133OSM      N14249   6.279   1.618   2.109  0.4038 -0.4178  0.0237
  133OSM    C1514250   6.224   1.490   2.052  0.3589  0.1462  0.0105
  133OSM   H15A14251   6.263   1.402   2.103  0.8164  0.9156  1.0310
  133OSM   H15B14252   6.243   1.483   1.946  1.5684  0.6087  0.1859
  133OSM   H15C14253   6.118   1.490   2.071  0.2184  2.2673 -0.5783
  133OSM    C1414254   6.186   1.722   2.058 -0.3002  0.1598  0.3748
  133OSM   H14A14255   6.094   1.726   2.115 -2.7087 -1.3121 -3.0594
  133OSM   H14B14256   6.160   1.716   1.953  1.0849  1.9484 -0.1068
  133OSM   H14C14257   6.240   1.812   2.081 -0.0120  1.1118 -3.4546
  133OSM    C1314258   6.278   1.614   2.261  0.7085 -0.5392 -0.0419
  133OSM   H13A14259   6.176   1.598   2.294 -0.2326  0.5003 -2.1715
  133OSM   H13B14260   6.309   1.706   2.308 -0.7655  0.3977 -0.8278
  133OSM   H13C14261   6.331   1.530   2.301  0.1367 -0.8783  0.0190
  133OSM    C1214262   6.424   1.647   2.054  1.0471 -0.2341  0.1146
  133OSM   H12A14263   6.407   1.641   1.947  0.5867  0.2884  0.1558
  133OSM   H12B14264   6.498   1.572   2.076  0.7266 -0.6414 -0.1743
  133OSM    C1114265   6.498   1.781   2.092  0.6125 -0.0122 -0.4109
  133OSM   H11A14266   6.435   1.863   2.052  0.2915 -0.2166 -0.3372
  133OSM   H11B14267   6.598   1.774   2.043  0.2838  0.0206 -1.1006
  133OSM      P14268   6.551   1.929   2.295  0.0859  0.2979  0.1897
  133OSM    O1314269   6.655   2.005   2.222 -0.3110  0.6952 -0.0535
  133OSM    O1414270   6.423   2.002   2.324 -0.1048  0.7940  0.1236
  133OSM    O1114271   6.608   1.890   2.436 -0.0013 -0.6929 -0.7118
  133OSM    O1214272   6.520   1.785   2.238  0.2709 -0.2173  0.1500
  133OSM    C1S14273   6.527   1.807   2.524  0.1801  0.1124  0.3059
  133OSM    H1S14274   6.500   1.712   2.473 -1.1087  0.9321 -0.5908
  133OSM    H1T14275   6.429   1.856   2.541 -0.9253 -1.1481 -1.9697
  133OSM     NF14276   6.534   1.671   2.744 -0.2690 -0.1219  0.8871
  133OSM    HNF14277   6.483   1.703   2.824 -1.0280 -0.1055  0.4089
  133OSM    C2S14278   6.605   1.770   2.657 -0.0038  0.1729  0.6414
  133OSM    H2S14279   6.700   1.726   2.620 -0.9961 -0.4302 -1.3249
  133OSM    C3S14280   6.637   1.899   2.739 -0.4225  0.9340  0.3319
  133OSM    H3S14281   6.536   1.936   2.767 -0.3685  3.1289 -2.0467
  133OSM     O314282   6.691   2.010   2.666 -0.3565  0.5707  0.2798
  133OSM    HO314283   6.694   1.973   2.578  0.9437  0.0181  0.5308
  133OSM    C4S14284   6.708   1.875   2.871  0.2840  0.0145 -0.4078
  133OSM    H4S14285   6.640   1.832   2.946 -1.3908  3.2100  0.0892
  133OSM    C5S14286   6.835   1.907   2.901 -0.6778  0.3080 -0.7849
  133OSM    H5S14287   6.886   1.981   2.837  0.5821 -0.9915 -1.3310
  133OSM    C6S14288   6.895   1.881   3.032  0.2048 -0.7573  0.3759
  133OSM    H6S14289   6.925   1.978   3.078  1.7374 -0.5417 -0.9966
  133OSM    H6T14290   6.994   1.836   3.007  1.0300  1.4714 -0.6367
  133OSM    C7S14291   6.816   1.796   3.143 -0.3052  0.1028  0.0003
  133OSM    H7S14292   6.784   1.704   3.089  1.9461 -0.4449 -0.5415
  133OSM    H7T14293   6.722   1.844   3.177 -0.4053 -0.3523  0.3804
  133OSM    C8S14294   6.898   1.773   3.264  0.1363 -0.1927  0.1486
  133OSM    H8S14295   6.996   1.728   3.237  0.3174  0.1129  0.2936
  133OSM    H8T14296   6.849   1.694   3.324  1.6365  0.6175  2.5857
  133OSM    C9S14297   6.911   1.902   3.352  0.0511  0.8072  0.1008
  133OSM    H9S14298   6.804   1.921   3.375  0.0715  0.2363  0.6726
  133OSM    H9T14299   6.946   1.989   3.292  0.1245  1.5240  1.1448
  133OSM   C10S14300   6.993   1.882   3.478  0.4780  0.2308  0.2027
  133OSM   H10S14301   7.099   1.866   3.449  1.0885  0.1370  2.3119
  133OSM   H10T14302   6.949   1.796   3.534 -1.8075 -0.9024 -3.0575
  133OSM   C11S14303   6.995   2.001   3.576 -0.4282 -0.6952  0.2452
  133OSM   H11S14304   6.889   2.030   3.593 -0.1036  0.3829  0.5245
  133OSM   H11T14305   7.037   2.093   3.531 -2.9153  0.0156 -0.7576
  133OSM   C12S14306   7.077   1.971   3.702 -0.2945 -0.1775 -0.1004
  133OSM   H12S14307   7.072   2.057   3.773  3.3017 -0.5352  0.8030
  133OSM   H12T14308   7.187   1.966   3.684 -0.5374 -2.1228 -1.3728
  133OSM   C13S14309   7.018   1.851   3.780  0.2751  0.0549  0.1626
  133OSM   H13S14310   7.039   1.757   3.724  0.6655  1.1803 -1.6655
  133OSM   H13T14311   6.908   1.865   3.777  0.5157  2.2958 -1.2779
  133OSM   C14S14312   7.069   1.830   3.927 -0.6604  0.2555 -0.0969
  133OSM   H14S14313   7.018   1.905   3.992 -0.8819 -0.4986  0.6239
  133OSM   H14T14314   7.179   1.845   3.934 -0.7707  0.4887  1.4431
  133OSM   C15S14315   7.020   1.685   3.961  0.8189  0.2101 -0.5999
  133OSM   H15S14316   7.087   1.618   3.904  0.7821 -0.0722 -0.3143
  133OSM   H15T14317   6.917   1.677   3.919  0.7869 -1.0868 -0.3266
  133OSM   C16S14318   7.021   1.640   4.103  0.7068  0.3869  0.3574
  133OSM   H16S14319   7.121   1.621   4.147  0.5243 -3.4548 -0.5711
  133OSM   H16T14320   6.968   1.543   4.113  0.2139  0.6577  0.4216
  133OSM   C17S14321   6.957   1.736   4.208  0.3439 -0.3291 -0.4298
  133OSM   H17S14322   6.889   1.799   4.146  1.6598 -0.0377 -1.6262
  133OSM   H17T14323   7.039   1.805   4.238 -1.3717  1.2403  0.8529
  133OSM   C18S14324   6.899   1.662   4.326  0.4653  0.4376 -0.0322
  133OSM   H18S14325   6.825   1.589   4.286 -0.4710  1.9451 -1.1232
  133OSM   H18T14326   6.845   1.741   4.382 -1.8682 -0.1911 -1.2369
  133OSM   H18U14327   6.980   1.603   4.375  0.3845 -0.3697 -0.8450
  133OSM    C1F14328   6.512   1.544   2.706 -0.2040  0.3346  0.1438
  133OSM     OF14329   6.544   1.503   2.599 -0.4427 -0.3131  0.4909
  133OSM    C2F14330   6.440   1.460   2.801 -0.4230 -0.3120  0.0494
  133OSM    H2F14331   6.331   1.461   2.783 -0.5068 -3.8065 -0.3463
  133OSM    H2G14332   6.464   1.503   2.901 -0.9637  0.9281 -0.3352
  133OSM    C3F14333   6.478   1.316   2.803 -0.2792 -0.2331  0.0225
  133OSM    H3F14334   6.446   1.267   2.709  1.5406  0.5910 -1.0665
  133OSM    H3G14335   6.416   1.271   2.884  2.5796  0.3726  2.7606
  133OSM    C4F14336   6.625   1.290   2.848  0.3447 -0.4612 -0.6068
  133OSM    H4F14337   6.690   1.292   2.759  0.9058 -1.4367 -0.2306
  133OSM    H4G14338   6.634   1.183   2.876 -0.0279 -0.9091 -2.1186
  133OSM    C5F14339   6.694   1.370   2.965  0.2380  0.2683  0.4011
  133OSM    H5F14340   6.686   1.475   2.928  0.1658  0.5272  1.1255
  133OSM    H5G14341   6.802   1.344   2.974  0.1416  0.3740  2.6145
  133OSM    C6F14342   6.615   1.363   3.093 -0.2571  0.2581 -0.3249
  133OSM    H6F14343   6.647   1.276   3.155 -1.2562  0.4674  0.5127
  133OSM    H6G14344   6.508   1.344   3.069 -0.4405 -0.9685  1.2665
  133OSM    C7F14345   6.636   1.480   3.192 -0.0810 -0.2730 -0.0553
  133OSM    H7F14346   6.619   1.577   3.142 -3.0432 -1.0419 -0.7176
  133OSM    H7G14347   6.742   1.476   3.225  0.1842 -1.3022 -0.9785
  133OSM    C8F14348   6.551   1.473   3.324  0.0724  0.8420  0.7773
  133OSM    H8F14349   6.584   1.385   3.383 -2.9277 -0.3670  0.8710
  133OSM    H8G14350   6.445   1.448   3.299  0.2530 -1.3856  1.9982
  133OSM    C9F14351   6.550   1.602   3.402  0.5837 -0.1847  0.1873
  133OSM    H9F14352   6.481   1.676   3.360  1.9129  0.6656 -0.5781
  133OSM   C10F14353   6.627   1.641   3.509  0.4798  0.0224 -0.1912
  133OSM   H10F14354   6.618   1.738   3.559  1.2411 -0.1594  0.3133
  133OSM   C11F14355   6.724   1.549   3.579 -0.3340  0.8218  0.6122
  133OSM   H11F14356   6.804   1.619   3.613 -0.6081  1.7697 -0.6424
  133OSM   H11G14357   6.761   1.470   3.510  0.1984  0.3052  1.4555
  133OSM   C12F14358   6.648   1.487   3.700 -0.2846  0.2814 -0.6114
  133OSM   H12F14359   6.711   1.416   3.758  1.9689 -0.7549 -4.0367
  133OSM   H12G14360   6.569   1.420   3.661 -1.0100  0.1235  1.0561
  133OSM   C13F14361   6.591   1.581   3.810  0.5126  0.5881 -0.3101
  133OSM   H13F14362   6.508   1.642   3.768  0.1199  0.4796  0.2969
  133OSM   H13G14363   6.675   1.648   3.839  1.2198  0.2053 -1.4582
  133OSM   C14F14364   6.539   1.509   3.931 -0.2679 -0.6518 -0.4208
  133OSM   H14F14365   6.623   1.457   3.981 -0.2874 -0.3952 -0.1126
  133OSM   H14G14366   6.461   1.436   3.901 -0.3062 -0.6386 -0.3548
  133OSM   C15F14367   6.468   1.591   4.040 -0.6591 -0.3734 -0.6246
  133OSM   H15F14368   6.436   1.526   4.124 -1.7194 -0.6096 -1.1801
  133OSM   H15G14369   6.375   1.636   3.999 -2.3874 -0.3567  2.9690
  133OSM   C16F14370   6.551   1.709   4.087  0.6426 -0.6997  0.2445
  133OSM   H16F14371   6.571   1.774   3.999  0.8240  0.1501  0.8915
  133OSM   H16G14372   6.646   1.676   4.134 -0.7114  0.0743  3.8460
  133OSM   C17F14373   6.480   1.782   4.199  0.6650 -0.4203  0.2947
  133OSM   H17F14374   6.553   1.805   4.279 -1.7481  1.7646  2.0326
  133OSM   H17G14375   6.406   1.713   4.243  0.3010  0.2434  0.7421
  133OSM   C18F14376   6.425   1.914   4.155  0.2170  0.0345 -0.3833
  133OSM   H18F14377   6.348   1.901   4.077 -0.8662  0.5729  0.5620
  133OSM   H18G14378   6.508   1.967   4.105  0.2962  0.2126 -0.0697
  133OSM   H18H14379   6.380   1.980   4.232  1.1732  1.3096 -0.8921
  134OSM      N14380   6.596   4.347   2.558  0.3250 -0.2091 -0.4928
  134OSM    C1514381   6.698   4.361   2.669  0.2104  0.0887 -0.1167
  134OSM   H15A14382   6.788   4.301   2.659 -0.6045 -0.9610 -1.5517
  134OSM   H15B14383   6.656   4.318   2.758 -0.4020 -1.9531 -1.3138
  134OSM   H15C14384   6.734   4.460   2.693  0.9258 -0.9557  3.7388
  134OSM    C1414385   6.477   4.428   2.599 -0.2043  0.1262 -0.7789
  134OSM   H14A14386   6.396   4.411   2.529 -0.0835 -0.7855 -0.7089
  134OSM   H14B14387   6.493   4.535   2.599  0.6835  0.0032 -1.8043
  134OSM   H14C14388   6.451   4.387   2.695  0.9960 -1.1765 -0.9734
  134OSM    C1314389   6.650   4.411   2.437 -0.4373  0.1246 -0.1686
  134OSM   H13A14390   6.754   4.388   2.423 -0.7364 -1.2676 -0.2506
  134OSM   H13B14391   6.632   4.518   2.433  0.8866  0.3683  0.0937
  134OSM   H13C14392   6.594   4.376   2.352 -0.2569 -1.0888  0.1973
  134OSM    C1214393   6.572   4.200   2.522 -0.2512  0.7389 -0.5231
  134OSM   H12A14394   6.662   4.158   2.479 -1.1413 -2.6271  0.5580
  134OSM   H12B14395   6.492   4.191   2.451 -0.0006 -2.8186 -0.5369
  134OSM    C1114396   6.523   4.111   2.632 -0.1991  0.3003 -0.2008
  134OSM   H11A14397   6.446   4.166   2.692  1.5035  0.3435  2.0849
  134OSM   H11B14398   6.603   4.090   2.706 -1.1793  2.9897  1.7920
  134OSM      P14399   6.336   3.973   2.511 -0.1443  0.0424 -0.1541
  134OSM    O1314400   6.343   4.070   2.407 -0.0093  0.9778  0.5458
  134OSM    O1414401   6.321   3.832   2.474 -0.2421  0.1796 -0.1122
  134OSM    O1114402   6.229   4.023   2.615  0.1257 -0.6957 -0.4978
  134OSM    O1214403   6.477   3.985   2.581 -0.0574  0.5774 -0.1373
  134OSM    C1S14404   6.229   3.953   2.742 -0.1164 -0.1449 -0.4184
  134OSM    H1S14405   6.333   3.945   2.780 -0.1041  0.2866 -0.3558
  134OSM    H1T14406   6.181   3.853   2.730  0.7466 -0.3070 -3.1935
  134OSM     NF14407   6.198   3.969   2.988 -0.1991 -0.8236 -0.2381
  134OSM    HNF14408   6.140   3.904   3.036 -1.7888 -0.0540 -1.0500
  134OSM    C2S14409   6.153   4.024   2.855 -0.4567 -0.1202  0.7262
  134OSM    H2S14410   6.181   4.132   2.849  1.4522 -0.6445 -4.0715
  134OSM    C3S14411   6.006   4.020   2.833  0.1396 -0.4390 -0.4450
  134OSM    H3S14412   5.983   3.913   2.851 -0.3288 -0.4748 -1.2284
  134OSM     O314413   5.965   4.038   2.702  0.5081  0.2665  0.2407
  134OSM    HO314414   6.048   4.024   2.656  0.4984 -0.0930  0.3240
  134OSM    C4S14415   5.927   4.106   2.925  0.1013  0.0394  0.2048
  134OSM    H4S14416   5.903   4.048   3.015  0.2853 -0.6938 -0.2104
  134OSM    C5S14417   5.868   4.225   2.909 -0.3051  0.2294 -0.4009
  134OSM    H5S14418   5.886   4.283   2.818  1.6962 -0.3174 -0.3867
  134OSM    C6S14419   5.792   4.298   3.019 -0.8960 -0.2277 -0.1182
  134OSM    H6S14420   5.734   4.382   2.974  0.1210  0.6739  0.2244
  134OSM    H6T14421   5.860   4.343   3.094  1.3769 -2.5600 -0.6204
  134OSM    C7S14422   5.694   4.215   3.101  0.6964  0.1177 -0.1574
  134OSM    H7S14423   5.754   4.139   3.155 -1.2800 -0.9207  0.6826
  134OSM    H7T14424   5.636   4.150   3.031  0.6074  1.1027 -1.0171
  134OSM    C8S14425   5.606   4.297   3.197 -0.0993 -0.2852  0.3557
  134OSM    H8S14426   5.539   4.223   3.245  1.0030  0.2916  2.9274
  134OSM    H8T14427   5.537   4.368   3.145 -1.1754 -0.5343  1.3806
  134OSM    C9S14428   5.688   4.354   3.305  0.1044  0.3560 -0.5355
  134OSM    H9S14429   5.756   4.432   3.265  2.2332 -0.4306  1.3472
  134OSM    H9T14430   5.752   4.273   3.345 -0.2261  0.6784  0.6802
  134OSM   C10S14431   5.607   4.419   3.417 -0.3774 -0.0852 -0.1663
  134OSM   H10S14432   5.528   4.356   3.464 -0.9125 -0.2869 -1.3015
  134OSM   H10T14433   5.547   4.504   3.377 -1.5721 -0.2430  1.1935
  134OSM   C11S14434   5.691   4.450   3.546  0.2207  0.2957  0.1134
  134OSM   H11S14435   5.650   4.546   3.586  0.1368  0.1222  0.4490
  134OSM   H11T14436   5.797   4.463   3.518 -0.5197  0.5246 -2.9460
  134OSM   C12S14437   5.683   4.347   3.657  0.2340 -0.1763  0.5799
  134OSM   H12S14438   5.712   4.251   3.610 -1.5780  0.3407 -1.7510
  134OSM   H12T14439   5.579   4.325   3.690  0.2406 -2.4216 -0.6965
  134OSM   C13S14440   5.764   4.387   3.788  0.8245 -0.3711 -0.2318
  134OSM   H13S14441   5.727   4.476   3.843  1.1428 -0.2934 -0.1435
  134OSM   H13T14442   5.868   4.404   3.754  0.3785  1.0743 -0.9983
  134OSM   C14S14443   5.757   4.274   3.887  0.2516 -0.1355  0.2833
  134OSM   H14S14444   5.760   4.181   3.826  0.1705  0.1774 -0.2046
  134OSM   H14T14445   5.657   4.271   3.935 -0.5662 -1.0480 -1.3661
  134OSM   C15S14446   5.869   4.285   3.984  0.1220  0.2019 -0.0755
  134OSM   H15S14447   5.862   4.384   4.033  1.7278 -0.4649  1.6276
  134OSM   H15T14448   5.970   4.280   3.938  1.0947  4.6613  1.0895
  134OSM   C16S14449   5.835   4.188   4.097 -0.1669 -0.0121  0.3879
  134OSM   H16S14450   5.826   4.083   4.062  0.2288 -0.4718  1.6216
  134OSM   H16T14451   5.746   4.208   4.160  0.4458 -0.4044  1.4010
  134OSM   C17S14452   5.948   4.191   4.206 -0.0548 -0.3668  0.3080
  134OSM   H17S14453   5.943   4.295   4.245 -2.6050  0.3067 -1.5636
  134OSM   H17T14454   6.048   4.156   4.172  1.5401  1.5227  2.6815
  134OSM   C18S14455   5.911   4.103   4.320  0.2564  0.0443 -0.2819
  134OSM   H18S14456   5.926   4.146   4.421 -0.0335 -0.4528 -0.0186
  134OSM   H18T14457   5.963   4.004   4.323  3.1154  1.4612  0.4366
  134OSM   H18U14458   5.803   4.079   4.318  0.2140  0.2573 -0.6866
  134OSM    C1F14459   6.323   3.981   3.037 -0.7404  0.0746  0.2465
  134OSM     OF14460   6.407   4.045   2.971  0.2250  0.2797  0.4383
  134OSM    C2F14461   6.369   3.918   3.165  0.0800 -0.9892  0.3226
  134OSM    H2F14462   6.418   3.819   3.154  0.9067 -0.4924 -0.7055
  134OSM    H2G14463   6.279   3.914   3.230 -0.5563 -0.1882 -0.4793
  134OSM    C3F14464   6.469   4.019   3.232  0.1612 -0.3219  0.3399
  134OSM    H3F14465   6.439   4.123   3.208 -1.5753 -0.8672  0.0321
  134OSM    H3G14466   6.572   4.007   3.191  0.3210 -2.3461  1.1986
  134OSM    C4F14467   6.481   4.022   3.379 -0.6499  0.0905 -0.4569
  134OSM    H4F14468   6.384   4.033   3.430 -0.5869 -0.8350 -0.1100
  134OSM    H4G14469   6.554   4.101   3.405  0.0764 -0.2448 -1.3725
  134OSM    C5F14470   6.548   3.887   3.423 -0.0468 -0.3462 -0.2895
  134OSM    H5F14471   6.623   3.863   3.345 -0.1962  0.7346 -0.7936
  134OSM    H5G14472   6.464   3.814   3.417 -0.5112  0.2199 -0.8141
  134OSM    C6F14473   6.606   3.888   3.557  0.2923  0.1320  0.1871
  134OSM    H6F14474   6.608   3.788   3.606  0.3821 -0.1616 -0.4057
  134OSM    H6G14475   6.540   3.947   3.624 -0.8794 -0.4402 -0.4406
  134OSM    C7F14476   6.757   3.927   3.564 -1.1438 -0.4663 -0.1517
  134OSM    H7F14477   6.820   3.871   3.492  1.3711  0.3588  1.2769
  134OSM    H7G14478   6.790   3.886   3.661 -0.4929  1.1315  0.3274
  134OSM    C8F14479   6.795   4.078   3.550  0.0215 -0.2742 -0.0848
  134OSM    H8F14480   6.767   4.116   3.450  1.2190  1.0104  0.0334
  134OSM    H8G14481   6.905   4.077   3.539 -0.0948 -0.8168 -1.3071
  134OSM    C9F14482   6.736   4.177   3.648 -0.7069  0.2938  0.1731
  134OSM    H9F14483   6.644   4.227   3.614 -0.8847 -0.1508 -0.0035
  134OSM   C10F14484   6.789   4.214   3.774  0.8005 -0.7622  1.2142
  134OSM   H10F14485   6.722   4.276   3.836 -0.0217 -0.9078  0.5013
  134OSM   C11F14486   6.916   4.152   3.825  0.1600 -0.0855 -0.1765
  134OSM   H11F14487   6.995   4.230   3.830  1.4642 -1.4122  1.3394
  134OSM   H11G14488   6.945   4.072   3.754  0.0282 -0.2325 -0.0667
  134OSM   C12F14489   6.911   4.083   3.961 -0.0470 -0.6429 -0.3103
  134OSM   H12F14490   7.009   4.034   3.978  0.0930 -0.8987 -1.6765
  134OSM   H12G14491   6.838   4.002   3.939  0.0999 -0.6408 -0.8406
  134OSM   C13F14492   6.857   4.176   4.077 -0.0319  0.0820 -0.1468
  134OSM   H13F14493   6.761   4.224   4.050  0.5225  1.5167  0.3822
  134OSM   H13G14494   6.942   4.245   4.092 -0.1265  0.3583 -0.8539
  134OSM   C14F14495   6.845   4.102   4.215 -0.3785 -0.6543  0.1071
  134OSM   H14F14496   6.942   4.049   4.222 -0.5024 -0.9195 -0.1351
  134OSM   H14G14497   6.770   4.020   4.201 -1.6132  0.8357 -3.0578
  134OSM   C15F14498   6.815   4.194   4.335  0.0643 -0.1420 -0.3795
  134OSM   H15F14499   6.757   4.140   4.412  1.0487 -2.1656 -0.9986
  134OSM   H15G14500   6.756   4.282   4.302  0.5672 -0.0882 -1.1869
  134OSM   C16F14501   6.941   4.241   4.411 -0.7770  0.5148  0.5221
  134OSM   H16F14502   7.004   4.304   4.344  0.7693 -0.9661  0.5149
  134OSM   H16G14503   7.016   4.161   4.424  0.7275  1.8109  0.1888
  134OSM   C17F14504   6.914   4.327   4.528 -0.2209 -0.1420 -1.0465
  134OSM   H17F14505   7.011   4.364   4.569 -0.3580 -0.0234 -0.8253
  134OSM   H17G14506   6.864   4.271   4.611  0.8433  1.9297  1.1023
  134OSM   C18F14507   6.837   4.455   4.501  0.0172  0.1049  0.4628
  134OSM   H18F14508   6.803   4.493   4.600  1.0971  2.2062  0.0931
  134OSM   H18G14509   6.747   4.429   4.443 -0.9083 -1.1341  2.3320
  134OSM   H18H14510   6.901   4.529   4.448  0.7944 -1.5603 -1.0037
  135OSM      N14511   0.579   2.289   2.420 -0.2331  0.4553 -0.0931
  135OSM    C1514512   0.564   2.153   2.376  0.7283  0.4912  0.6929
  135OSM   H15A14513   0.478   2.147   2.312  0.7072 -0.4213  0.7969
  135OSM   H15B14514   0.541   2.095   2.464  0.9829  1.0451  1.1293
  135OSM   H15C14515   0.654   2.112   2.332  0.0904 -0.5377  0.3113
  135OSM    C1414516   0.583   2.382   2.301  0.6004 -0.7780  0.0462
  135OSM   H14A14517   0.576   2.485   2.333  1.1792 -1.6768  3.3758
  135OSM   H14B14518   0.495   2.369   2.240  0.0980 -1.2469  0.8640
  135OSM   H14C14519   0.670   2.379   2.237 -0.4472 -1.5827 -1.3987
  135OSM    C1314520   0.453   2.328   2.499  0.6720  0.1508  0.4412
  135OSM   H13A14521   0.368   2.309   2.436  0.1496  1.5061  0.7054
  135OSM   H13B14522   0.445   2.434   2.520 -0.4674  0.2395 -0.3746
  135OSM   H13C14523   0.445   2.273   2.592  0.6252  1.0473  0.9765
  135OSM    C1214524   0.708   2.302   2.504  0.1591 -0.0728  0.0620
  135OSM   H12A14525   0.722   2.407   2.527 -2.9084  1.2458 -3.0741
  135OSM   H12B14526   0.781   2.266   2.433 -0.9925  0.1104 -1.2752
  135OSM    C1114527   0.709   2.228   2.639 -0.5902 -0.4914  0.2532
  135OSM   H11A14528   0.638   2.292   2.696  1.6267  1.8554  0.5521
  135OSM   H11B14529   0.810   2.255   2.676 -0.8833  0.2865  0.5016
  135OSM      P14530   0.789   1.985   2.601 -0.3364 -0.4265  0.2504
  135OSM    O1314531   0.731   1.853   2.582 -0.0752 -0.2176 -0.4642
  135OSM    O1414532   0.862   2.049   2.493  0.5038  0.7228  0.0917
  135OSM    O1114533   0.885   1.986   2.731  0.0477  0.4180  0.4341
  135OSM    O1214534   0.678   2.084   2.648  0.4123  0.2474 -0.3029
  135OSM    C1S14535   0.883   1.878   2.822 -0.3718 -0.0877  0.7549
  135OSM    H1S14536   0.964   1.810   2.790  0.5438  0.7817  1.1660
  135OSM    H1T14537   0.784   1.827   2.830 -1.6896  1.7633 -1.9545
  135OSM     NF14538   0.926   1.808   3.054 -0.1977 -0.2135  0.0842
  135OSM    HNF14539   0.847   1.783   3.109  1.2686 -2.3328  1.3673
  135OSM    C2S14540   0.920   1.924   2.968 -0.9484 -0.2843  0.1518
  135OSM    H2S14541   1.021   1.967   2.953 -1.4178  0.3291 -1.5996
  135OSM    C3S14542   0.832   2.043   3.009 -0.5603 -0.1785 -0.2769
  135OSM    H3S14543   0.730   2.006   3.030 -0.8819  0.0946 -1.2844
  135OSM     O314544   0.815   2.152   2.920 -0.1077  0.1205 -0.0095
  135OSM    HO314545   0.807   2.118   2.831  0.8456  0.3741 -0.2080
  135OSM    C4S14546   0.884   2.106   3.139 -0.3111  0.8160 -0.6294
  135OSM    H4S14547   0.988   2.143   3.135  0.1355 -0.4715 -2.7139
  135OSM    C5S14548   0.824   2.120   3.257 -0.6549  0.0144 -0.5431
  135OSM    H5S14549   0.718   2.093   3.274 -0.3637 -0.7142  0.1914
  135OSM    C6S14550   0.885   2.175   3.391  0.5434 -0.5765  0.0595
  135OSM    H6S14551   0.861   2.283   3.400  3.2070  0.1602 -0.7976
  135OSM    H6T14552   0.995   2.166   3.396  0.5418  0.1434  2.2271
  135OSM    C7S14553   0.834   2.118   3.527  0.0026  0.1349  0.2715
  135OSM    H7S14554   0.874   2.016   3.514 -0.3310  0.1115 -0.6559
  135OSM    H7T14555   0.723   2.117   3.531  0.0237 -0.4881  0.8061
  135OSM    C8S14556   0.887   2.194   3.652 -0.7254  0.2756  0.0554
  135OSM    H8S14557   0.845   2.297   3.655  1.5617  1.3339 -1.1552
  135OSM    H8T14558   0.998   2.199   3.641 -0.9632  1.2801 -2.7142
  135OSM    C9S14559   0.851   2.114   3.776 -0.0346  0.3895  0.0188
  135OSM    H9S14560   0.925   2.134   3.857  1.3768 -3.7580 -0.0233
  135OSM    H9T14561   0.850   2.004   3.768 -2.8537  0.1978  1.5192
  135OSM   C10S14562   0.705   2.149   3.810  0.3167  0.3586 -0.2804
  135OSM   H10S14563   0.646   2.086   3.740  0.9033  0.3789 -0.8017
  135OSM   H10T14564   0.670   2.254   3.804 -0.4858  0.0722 -0.8143
  135OSM   C11S14565   0.668   2.106   3.955  0.5766  0.0721  0.2720
  135OSM   H11S14566   0.731   2.160   4.029 -0.2399  0.5734  0.6144
  135OSM   H11T14567   0.699   2.000   3.971  2.1379  0.4468 -0.1322
  135OSM   C12S14568   0.516   2.112   3.980 -0.8699  0.1874  0.2742
  135OSM   H12S14569   0.460   2.030   3.931 -0.8542 -0.3198  1.0995
  135OSM   H12T14570   0.489   2.206   3.927 -0.5577 -0.4885 -1.1354
  135OSM   C13S14571   0.475   2.143   4.123  0.7439  0.3309 -0.5917
  135OSM   H13S14572   0.367   2.165   4.134  0.6179  0.1008 -1.3434
  135OSM   H13T14573   0.530   2.231   4.163  0.9496  0.5693 -1.3876
  135OSM   C14S14574   0.481   2.017   4.212  0.1028  0.2769 -0.3434
  135OSM   H14S14575   0.580   1.969   4.195 -0.5981 -0.8022 -1.5509
  135OSM   H14T14576   0.404   1.943   4.179 -1.3763  0.8427  1.6055
  135OSM   C15S14577   0.476   2.051   4.371  0.2121 -0.0255  0.0918
  135OSM   H15S14578   0.386   2.114   4.391  1.2086  0.9036  1.8733
  135OSM   H15T14579   0.563   2.117   4.394  0.5411 -0.8797  1.4010
  135OSM   C16S14580   0.466   1.924   4.450 -0.3133 -0.1546 -0.6550
  135OSM   H16S14581   0.559   1.864   4.437  1.2992  2.0671  0.0020
  135OSM   H16T14582   0.375   1.873   4.412  0.3184 -1.1526 -0.8652
  135OSM   C17S14583   0.454   1.956   4.598 -0.2776 -0.4443 -0.3915
  135OSM   H17S14584   0.369   2.026   4.607 -0.7627 -0.8539 -1.5857
  135OSM   H17T14585   0.537   2.010   4.648 -0.3216 -0.1366 -0.6505
  135OSM   C18S14586   0.402   1.828   4.672 -0.1320 -0.0345 -0.0415
  135OSM   H18S14587   0.402   1.833   4.783 -0.1764  1.1993 -0.0748
  135OSM   H18T14588   0.475   1.747   4.653 -1.6923 -1.4255 -0.2349
  135OSM   H18U14589   0.300   1.806   4.635 -0.3456 -1.2383  1.1988
  135OSM    C1F14590   1.025   1.716   3.051 -1.4133 -0.2773  0.0772
  135OSM     OF14591   1.118   1.729   2.971  0.0620 -0.2558  0.1862
  135OSM    C2F14592   1.017   1.601   3.145  0.5040 -0.2677 -0.6206
  135OSM    H2F14593   1.117   1.554   3.156 -0.0888 -1.2263  1.0969
  135OSM    H2G14594   0.964   1.519   3.091 -0.7095 -0.9100  1.4383
  135OSM    C3F14595   0.960   1.626   3.286 -0.3584  0.1136 -0.3336
  135OSM    H3F14596   0.968   1.523   3.327 -3.2686  0.2632  0.8867
  135OSM    H3G14597   0.850   1.642   3.282 -0.3735  0.7024  1.3812
  135OSM    C4F14598   1.027   1.729   3.375 -0.2143  0.2371 -0.1897
  135OSM    H4F14599   1.015   1.823   3.318 -1.0824  0.1521 -0.1596
  135OSM    H4G14600   1.135   1.708   3.362 -0.3986 -2.1994  1.4726
  135OSM    C5F14601   0.970   1.742   3.513  0.4730 -0.2518  0.2170
  135OSM    H5F14602   0.860   1.745   3.500  0.4505  1.2687  0.6392
  135OSM    H5G14603   0.999   1.840   3.555 -0.5785 -0.3373  1.2042
  135OSM    C6F14604   1.018   1.632   3.603  0.5900  0.1135 -0.7973
  135OSM    H6F14605   1.125   1.603   3.591  0.9935 -0.7706  3.2443
  135OSM    H6G14606   0.955   1.542   3.591  0.6489 -0.5735  2.8266
  135OSM    C7F14607   1.019   1.669   3.757  0.3291  0.0237  0.2873
  135OSM    H7F14608   0.932   1.735   3.777 -2.4307 -2.8325 -1.4562
  135OSM    H7G14609   1.117   1.715   3.783  0.4751 -0.9021  1.4325
  135OSM    C8F14610   1.006   1.551   3.855  0.1281 -0.4242 -0.4836
  135OSM    H8F14611   0.908   1.501   3.843 -1.1813  1.8016  0.2765
  135OSM    H8G14612   1.004   1.595   3.957 -1.6881 -2.3246  0.3550
  135OSM    C9F14613   1.112   1.446   3.838  0.2192 -0.6830  0.1120
  135OSM    H9F14614   1.126   1.411   3.734  0.2643  0.0670 -0.1404
  135OSM   C10F14615   1.197   1.401   3.924 -0.3870  0.4977  0.2677
  135OSM   H10F14616   1.263   1.318   3.893 -1.5285 -0.0481 -0.7868
  135OSM   C11F14617   1.208   1.454   4.066 -0.2141  0.2281 -0.0372
  135OSM   H11F14618   1.144   1.539   4.097  0.4221  0.8977 -0.5191
  135OSM   H11G14619   1.310   1.493   4.084 -0.1993  0.7927 -1.2689
  135OSM   C12F14620   1.174   1.340   4.168  0.4442  0.2326  0.3751
  135OSM   H12F14621   1.243   1.254   4.163 -2.1690 -1.9555 -0.9763
  135OSM   H12G14622   1.072   1.296   4.159  1.1446 -1.4633  0.4064
  135OSM   C13F14623   1.195   1.380   4.315  0.4535 -0.1653 -0.8042
  135OSM   H13F14624   1.143   1.475   4.340  2.0427 -0.0132  2.4041
  135OSM   H13G14625   1.304   1.401   4.316  0.7035 -1.3709  0.2992
  135OSM   C14F14626   1.154   1.263   4.403 -0.3833 -0.5025  0.2488
  135OSM   H14F14627   1.200   1.172   4.358 -1.2159  0.6550 -3.2624
  135OSM   H14G14628   1.043   1.255   4.409 -0.4005  0.3945  1.3610
  135OSM   C15F14629   1.215   1.270   4.545 -0.5974 -0.1836  0.7153
  135OSM   H15F14630   1.155   1.194   4.599 -3.8670 -1.1888 -3.7430
  135OSM   H15G14631   1.194   1.368   4.593  3.2220  1.0609  0.2050
  135OSM   C16F14632   1.363   1.237   4.539 -0.7916  0.3561 -0.2180
  135OSM   H16F14633   1.423   1.313   4.484  0.2774 -0.4029 -0.1359
  135OSM   H16G14634   1.365   1.138   4.490 -3.5514  0.6937 -1.2430
  135OSM   C17F14635   1.434   1.218   4.673  0.4034 -0.1493  0.0611
  135OSM   H17F14636   1.396   1.296   4.742 -1.3188 -0.8644 -0.0264
  135OSM   H17G14637   1.544   1.236   4.664  0.1052  0.9420 -2.1661
  135OSM   C18F14638   1.410   1.080   4.727  0.0731 -0.4757 -0.3769
  135OSM   H18F14639   1.304   1.071   4.759  0.9046 -0.1423  2.8428
  135OSM   H18G14640   1.465   1.068   4.823  0.0209 -1.6825 -0.4849
  135OSM   H18H14641   1.430   0.996   4.658  5.5391  0.5299 -0.4914
  136OSM      N14642   3.315   5.705   2.505  0.4538  0.2439 -0.7103
  136OSM    C1514643   3.388   5.783   2.405 -0.3586  0.5521 -0.6709
  136OSM   H15A14644   3.325   5.790   2.318  0.3849 -0.1654 -1.2831
  136OSM   H15B14645   3.482   5.734   2.386 -0.1503 -0.8230  3.1090
  136OSM   H15C14646   3.404   5.880   2.449  1.5695 -0.4270  0.9386
  136OSM    C1414647   3.184   5.765   2.550 -0.0360  0.4046  0.6196
  136OSM   H14A14648   3.126   5.694   2.607 -0.7647  0.9281  0.5536
  136OSM   H14B14649   3.134   5.797   2.460  1.7001  0.7697 -0.2528
  136OSM   H14C14650   3.206   5.853   2.609  0.0820  1.6437 -1.1983
  136OSM    C1314651   3.290   5.570   2.439 -0.1352 -0.0344  0.4034
  136OSM   H13A14652   3.243   5.497   2.504 -0.1743 -0.6618 -0.3223
  136OSM   H13B14653   3.383   5.535   2.398  0.3505  2.7331 -1.0854
  136OSM   H13C14654   3.218   5.581   2.359  0.2360 -1.8448 -0.2124
  136OSM    C1214655   3.395   5.688   2.628 -0.2976 -0.5577 -0.5593
  136OSM   H12A14656   3.331   5.646   2.704  1.4350  1.9927  2.5807
  136OSM   H12B14657   3.437   5.781   2.664  1.1204 -1.1690 -0.5589
  136OSM    C1114658   3.521   5.598   2.618  0.4993  0.0337 -0.2812
  136OSM   H11A14659   3.486   5.503   2.574 -2.4170 -0.3724  2.5073
  136OSM   H11B14660   3.548   5.594   2.726  0.8079 -0.0327 -0.3620
  136OSM      P14661   3.703   5.595   2.436 -0.1669  0.0892 -0.0592
  136OSM    O1314662   3.598   5.539   2.344  0.3863  0.7401  0.0757
  136OSM    O1414663   3.801   5.688   2.373 -0.5355 -0.4329  0.0146
  136OSM    O1114664   3.785   5.486   2.518 -0.2684 -0.3174 -0.5645
  136OSM    O1214665   3.621   5.671   2.548 -0.4257 -0.7509  0.3100
  136OSM    C1S14666   3.870   5.537   2.624  0.2063  0.7505 -0.6123
  136OSM    H1S14667   3.882   5.646   2.640  2.2510  0.2366  2.0967
  136OSM    H1T14668   3.976   5.519   2.598  0.0371 -0.8545 -0.3364
  136OSM     NF14669   3.925   5.524   2.864  0.4895 -0.2165  0.1531
  136OSM    HNF14670   3.986   5.456   2.905 -0.2863  0.6525  2.9841
  136OSM    C2S14671   3.828   5.470   2.763 -0.6450 -0.8176  0.3804
  136OSM    H2S14672   3.725   5.505   2.788  0.4160  2.0649  1.0872
  136OSM    C3S14673   3.828   5.315   2.753  0.0874 -0.9499  0.3736
  136OSM    H3S14674   3.931   5.272   2.749  0.6003 -0.7123  5.0638
  136OSM     O314675   3.763   5.260   2.637  0.5062  0.0629  0.2659
  136OSM    HO314676   3.765   5.338   2.582  1.7748  0.0638  0.2717
  136OSM    C4S14677   3.752   5.264   2.869 -0.1023  0.5022  0.9896
  136OSM    H4S14678   3.658   5.317   2.892  0.0074  1.4546 -0.6039
  136OSM    C5S14679   3.799   5.181   2.958 -0.0108  1.0731  0.0980
  136OSM    H5S14680   3.903   5.144   2.948 -0.5209 -0.6836  0.8900
  136OSM    C6S14681   3.739   5.141   3.086  0.2543 -0.3965 -0.0894
  136OSM    H6S14682   3.697   5.039   3.075  1.3565 -1.2781  2.7804
  136OSM    H6T14683   3.645   5.196   3.104  1.1294  1.0685  0.1872
  136OSM    C7S14684   3.840   5.167   3.200 -0.0333  0.0599  0.2151
  136OSM    H7S14685   3.866   5.275   3.196 -1.6920  0.5134  1.1215
  136OSM    H7T14686   3.930   5.105   3.180 -1.0057 -0.4873 -2.9936
  136OSM    C8S14687   3.784   5.131   3.340  0.5235  0.0659  0.3017
  136OSM    H8S14688   3.757   5.024   3.347  0.1011 -0.0802 -2.4733
  136OSM    H8T14689   3.690   5.189   3.358  2.0485  2.4181  1.2418
  136OSM    C9S14690   3.872   5.165   3.452 -0.4263 -0.0604 -0.0417
  136OSM    H9S14691   3.902   5.271   3.449  0.0499 -0.1992 -0.1982
  136OSM    H9T14692   3.959   5.100   3.430 -1.2186 -1.1434 -0.1053
  136OSM   C10S14693   3.816   5.131   3.595  0.1717 -0.2625  0.9848
  136OSM   H10S14694   3.783   5.025   3.597  1.9485 -0.8448  2.1709
  136OSM   H10T14695   3.727   5.194   3.613  1.5725  1.4443  2.2121
  136OSM   C11S14696   3.905   5.168   3.710  0.1756  0.2004  0.1422
  136OSM   H11S14697   3.924   5.278   3.706 -0.0729  0.2123 -1.3384
  136OSM   H11T14698   3.998   5.111   3.687 -0.0582  0.9351 -3.0475
  136OSM   C12S14699   3.840   5.129   3.842 -0.2719 -0.8108 -0.4886
  136OSM   H12S14700   3.817   5.020   3.844 -1.1288 -0.6316  0.4805
  136OSM   H12T14701   3.742   5.181   3.855  0.5711  0.3591  1.8240
  136OSM   C13S14702   3.928   5.157   3.964  0.7026 -0.1438  0.6781
  136OSM   H13S14703   3.929   5.262   3.999  1.0888  1.5487 -3.7723
  136OSM   H13T14704   4.032   5.133   3.933  0.1600  1.4260 -2.8305
  136OSM   C14S14705   3.891   5.060   4.085 -0.0350  0.1386 -0.2368
  136OSM   H14S14706   3.880   4.956   4.047  0.4259  0.0470 -0.1182
  136OSM   H14T14707   3.791   5.082   4.128 -1.0159 -2.4239 -0.9575
  136OSM   C15S14708   4.008   5.062   4.188  0.6748  0.3285 -0.6256
  136OSM   H15S14709   4.018   5.168   4.219  1.7417  1.0459 -3.1223
  136OSM   H15T14710   4.099   5.031   4.131 -0.1669 -1.1870 -1.2201
  136OSM   C16S14711   3.980   4.972   4.311 -0.2578 -0.2536 -0.4107
  136OSM   H16S14712   3.974   4.866   4.277 -0.3346  0.2515 -2.0820
  136OSM   H16T14713   3.881   4.980   4.360 -0.1875 -0.6324 -0.1974
  136OSM   C17S14714   4.090   4.981   4.423  0.4312  0.5025  0.7877
  136OSM   H17S14715   4.180   4.986   4.358 -0.8087 -1.4204 -1.2163
  136OSM   H17T14716   4.090   4.889   4.485  0.2361 -1.4519 -1.9689
  136OSM   C18S14717   4.062   5.103   4.510  0.0431 -0.1327 -0.6412
  136OSM   H18S14718   4.047   5.193   4.447  0.4697 -0.5313 -1.3273
  136OSM   H18T14719   4.145   5.140   4.574 -2.2964  0.2644  2.3742
  136OSM   H18U14720   3.976   5.093   4.579 -0.4723  1.4296 -1.0172
  136OSM    C1F14721   3.927   5.650   2.910  0.2005 -0.0816  0.2742
  136OSM     OF14722   3.862   5.745   2.865 -0.8134 -0.2470  0.6745
  136OSM    C2F14723   4.021   5.665   3.028 -0.7234  0.2047 -0.0883
  136OSM    H2F14724   4.130   5.659   3.005 -0.6957  1.5904 -0.4574
  136OSM    H2G14725   4.001   5.584   3.101  2.9294 -0.5878  0.2154
  136OSM    C3F14726   3.996   5.800   3.104 -0.0213  0.5336 -0.3896
  136OSM    H3F14727   3.893   5.816   3.142 -0.2145  1.2870 -1.2084
  136OSM    H3G14728   4.031   5.879   3.034 -0.0659  0.1689 -0.8240
  136OSM    C4F14729   4.070   5.800   3.242 -1.1017 -0.9721  0.6457
  136OSM    H4F14730   4.043   5.886   3.306 -0.1272 -1.3120  1.5388
  136OSM    H4G14731   4.180   5.808   3.232 -1.0507 -0.7316  1.3930
  136OSM    C5F14732   4.048   5.681   3.331  0.1931 -0.4817  0.0007
  136OSM    H5F14733   4.099   5.596   3.280 -1.3239 -1.5733  0.2252
  136OSM    H5G14734   3.943   5.656   3.359  0.1786 -2.5200 -1.5353
  136OSM    C6F14735   4.120   5.701   3.466 -0.1324 -0.1470 -0.1413
  136OSM    H6F14736   4.096   5.804   3.499  0.8303  0.0053  0.0977
  136OSM    H6G14737   4.230   5.707   3.450  0.0926 -0.1129  1.3331
  136OSM    C7F14738   4.086   5.595   3.572  0.0459 -0.0619 -1.0948
  136OSM    H7F14739   4.099   5.493   3.529 -2.2789 -0.6472 -0.5782
  136OSM    H7G14740   3.976   5.610   3.582 -0.3119 -3.0549  0.8351
  136OSM    C8F14741   4.155   5.609   3.710 -0.0863  0.0172 -0.0399
  136OSM    H8F14742   4.118   5.703   3.756 -1.3316 -0.2809 -0.3950
  136OSM    H8G14743   4.265   5.623   3.703  0.0594 -0.5013  0.9967
  136OSM    C9F14744   4.142   5.493   3.807  0.4750  0.9587  0.2580
  136OSM    H9F14745   4.100   5.404   3.757  0.5049  0.6712  0.7447
  136OSM   C10F14746   4.188   5.488   3.930  0.2123 -0.0506  0.2152
  136OSM   H10F14747   4.182   5.393   3.986  1.9323 -0.2253  0.1417
  136OSM   C11F14748   4.255   5.597   4.010  0.4199 -0.0255 -0.4524
  136OSM   H11F14749   4.291   5.686   3.953 -1.5346  0.8950 -0.3223
  136OSM   H11G14750   4.338   5.557   4.073 -1.5044  0.9301  2.8939
  136OSM   C12F14751   4.152   5.654   4.111 -0.0845  0.6635  0.2732
  136OSM   H12F14752   4.056   5.678   4.061 -0.4076  0.5494  0.8339
  136OSM   H12G14753   4.193   5.753   4.137 -0.1785  0.5806  0.7405
  136OSM   C13F14754   4.137   5.582   4.243 -0.4177 -0.3271  0.2351
  136OSM   H13F14755   4.239   5.560   4.283  0.0427  0.2614 -0.5923
  136OSM   H13G14756   4.075   5.490   4.237 -0.5572 -0.1801 -0.6379
  136OSM   C14F14757   4.067   5.672   4.349 -0.3276  0.1926  0.1499
  136OSM   H14F14758   3.972   5.693   4.296  0.2182 -1.5254 -1.6392
  136OSM   H14G14759   4.123   5.765   4.373  0.1503 -0.1291  0.3035
  136OSM   C15F14760   4.036   5.598   4.479  0.2717  0.7567 -0.0737
  136OSM   H15F14761   4.013   5.490   4.468 -1.6701  1.2312 -1.2689
  136OSM   H15G14762   3.957   5.656   4.531 -1.5182  0.0546 -1.8721
  136OSM   C16F14763   4.158   5.621   4.567 -0.4079 -0.3961 -0.3298
  136OSM   H16F14764   4.150   5.726   4.603 -2.6835 -0.5607 -0.1828
  136OSM   H16G14765   4.245   5.614   4.499 -0.6068  1.7712 -0.8966
  136OSM   C17F14766   4.162   5.531   4.691 -0.2080 -0.0933 -0.2814
  136OSM   H17F14767   4.073   5.547   4.755 -0.9386  0.6648 -1.4571
  136OSM   H17G14768   4.249   5.566   4.751 -0.1175 -0.8128  0.0208
  136OSM   C18F14769   4.189   5.381   4.657 -0.0030  1.1873  0.4724
  136OSM   H18F14770   4.220   5.321   4.745 -0.8061  1.5163  0.9865
  136OSM   H18G14771   4.267   5.368   4.578 -0.4641  0.5555  0.1174
  136OSM   H18H14772   4.097   5.336   4.616 -0.6419  2.4662  0.4582
  137OSM      N14773   1.070   3.975   2.374  0.1878  0.1045  0.0202
  137OSM    C1514774   1.186   3.974   2.475  0.8406  0.6678  1.4694
  137OSM   H15A14775   1.271   3.927   2.427  0.5313  0.2012  1.3693
  137OSM   H15B14776   1.162   3.919   2.565 -2.3009  0.4543  0.6245
  137OSM   H15C14777   1.211   4.078   2.490 -2.4678  1.4961  1.8828
  137OSM    C1414778   1.123   4.042   2.250 -0.4795 -0.0891  0.0748
  137OSM   H14A14779   1.219   4.006   2.216 -0.2539  1.3708 -0.9306
  137OSM   H14B14780   1.140   4.148   2.258  2.1055 -0.5399  2.0761
  137OSM   H14C14781   1.052   4.035   2.169 -1.0004  1.4501  0.3727
  137OSM    C1314782   1.027   3.835   2.336 -0.0362  0.0342  0.5801
  137OSM   H13A14783   0.930   3.840   2.289  0.4686  2.0165 -0.3448
  137OSM   H13B14784   1.015   3.784   2.430  2.3796  1.4910  1.7654
  137OSM   H13C14785   1.090   3.772   2.276  1.0968  0.7420  0.9906
  137OSM    C1214786   0.946   4.041   2.446 -0.0070 -0.0126 -0.0017
  137OSM   H12A14787   0.975   4.136   2.488 -2.6709 -0.0132  2.0900
  137OSM   H12B14788   0.921   3.978   2.530  1.2518 -0.4602  0.0611
  137OSM    C1114789   0.820   4.066   2.366 -0.2157  0.4128  0.3665
  137OSM   H11A14790   0.778   3.968   2.334  0.9040 -0.0491  0.2652
  137OSM   H11B14791   0.849   4.130   2.280 -0.8706  1.7978  1.1461
  137OSM      P14792   0.635   4.068   2.548  0.2252  0.1792 -0.2223
  137OSM    O1314793   0.512   4.147   2.560 -0.1935  0.6375  0.1628
  137OSM    O1414794   0.608   3.925   2.513 -0.3596  0.2448 -0.8830
  137OSM    O1114795   0.715   4.077   2.680  0.0962  0.1949  0.0825
  137OSM    O1214796   0.731   4.141   2.447  0.5704  0.5587 -0.5515
  137OSM    C1S14797   0.720   4.203   2.744  0.1185 -0.6066 -0.4631
  137OSM    H1S14798   0.618   4.242   2.760 -0.1279 -1.2962 -0.3215
  137OSM    H1T14799   0.784   4.274   2.687  1.6605 -0.8649  0.8523
  137OSM     NF14800   0.725   4.295   2.981 -0.1787 -0.3439  0.3206
  137OSM    HNF14801   0.785   4.373   2.997  1.5462 -1.1277 -1.8464
  137OSM    C2S14802   0.769   4.190   2.892  0.0615 -0.1423  0.8004
  137OSM    H2S14803   0.721   4.094   2.919  0.3096 -1.0964 -1.8387
  137OSM    C3S14804   0.918   4.178   2.877 -0.2910  1.0175 -0.0011
  137OSM    H3S14805   0.956   4.276   2.840  0.3763 -0.0970 -2.4520
  137OSM     O314806   0.972   4.087   2.772 -0.0583  0.1208  0.5765
  137OSM    HO314807   0.900   4.086   2.708  0.5029  1.2237 -0.0950
  137OSM    C4S14808   0.981   4.143   3.016  0.2919 -0.5385  1.1423
  137OSM    H4S14809   0.934   4.054   3.062 -0.1644 -0.8505  0.1243
  137OSM    C5S14810   1.061   4.227   3.073  0.0452  0.5825 -0.5170
  137OSM    H5S14811   1.086   4.317   3.016 -0.6570 -0.0327 -1.8354
  137OSM    C6S14812   1.117   4.217   3.214  0.3285  0.0227  0.2110
  137OSM    H6S14813   1.114   4.322   3.250  0.7321  1.7064 -4.0490
  137OSM    H6T14814   1.220   4.176   3.204  0.6775  0.5015  1.5907
  137OSM    C7S14815   1.034   4.134   3.316  0.0055  0.0342  0.5460
  137OSM    H7S14816   1.023   4.031   3.278 -2.2837  1.4439 -3.1489
  137OSM    H7T14817   0.932   4.178   3.304  0.7474  2.5426  2.4928
  137OSM    C8S14818   1.077   4.140   3.461  0.3341 -0.6103  0.2065
  137OSM    H8S14819   1.064   4.235   3.517 -0.1499 -0.7546  0.3403
  137OSM    H8T14820   1.187   4.129   3.463  0.4305  0.0058 -0.9020
  137OSM    C9S14821   1.011   4.033   3.543  0.3399 -0.0222 -0.0253
  137OSM    H9S14822   1.014   3.934   3.494  0.3545 -0.9737  1.8223
  137OSM    H9T14823   0.907   4.066   3.564  0.2147  0.8016 -1.7301
  137OSM   C10S14824   1.087   4.021   3.677 -0.1014  0.0878 -0.0987
  137OSM   H10S14825   1.074   4.119   3.727  0.6849 -0.0990  0.4830
  137OSM   H10T14826   1.193   3.992   3.661  0.2103  0.6298  0.9404
  137OSM   C11S14827   1.024   3.909   3.775  0.3024 -0.2912 -0.3385
  137OSM   H11S14828   1.041   3.805   3.742  1.1239 -0.7271  1.3415
  137OSM   H11T14829   0.914   3.922   3.771  0.2109 -0.9429 -0.0476
  137OSM   C12S14830   1.091   3.918   3.914 -0.5599  0.5094  0.1657
  137OSM   H12S14831   1.058   3.828   3.970  2.3251 -0.6111  0.2401
  137OSM   H12T14832   1.053   3.998   3.981 -0.3894  0.2916  0.5236
  137OSM   C13S14833   1.239   3.900   3.917 -0.5953 -0.2332 -0.1483
  137OSM   H13S14834   1.297   3.961   3.845 -1.7317  0.5602 -0.4157
  137OSM   H13T14835   1.263   3.797   3.885  2.4200 -0.0544  1.1951
  137OSM   C14S14836   1.301   3.913   4.056 -0.0828  0.4198  0.0846
  137OSM   H14S14837   1.301   4.021   4.083 -1.8301 -0.1801  2.9009
  137OSM   H14T14838   1.405   3.874   4.061 -0.6488 -1.7891 -2.7042
  137OSM   C15S14839   1.227   3.830   4.166 -0.4193 -0.5325 -0.2758
  137OSM   H15S14840   1.208   3.732   4.117  2.7742 -1.7424  0.6251
  137OSM   H15T14841   1.125   3.865   4.193  0.8354  0.9890  2.9871
  137OSM   C16S14842   1.302   3.804   4.296 -0.0383  0.3524 -0.6920
  137OSM   H16S14843   1.407   3.770   4.279  1.0579  0.7564  3.9697
  137OSM   H16T14844   1.252   3.719   4.346  0.5167 -1.2266 -2.6684
  137OSM   C17S14845   1.317   3.925   4.396  0.1459  0.8444  0.1086
  137OSM   H17S14846   1.240   4.005   4.382  1.4215  1.9874 -0.6355
  137OSM   H17T14847   1.405   3.987   4.369  1.6801 -1.9968 -2.0082
  137OSM   C18S14848   1.337   3.879   4.534 -0.2885 -0.3887  0.3483
  137OSM   H18S14849   1.412   3.797   4.532 -0.6299 -0.7040 -1.5551
  137OSM   H18T14850   1.242   3.842   4.579 -0.4526  0.8931  1.1068
  137OSM   H18U14851   1.378   3.961   4.597  0.4592 -0.6258  0.1838
  137OSM    C1F14852   0.607   4.292   3.037 -0.2563  0.4042 -0.2191
  137OSM     OF14853   0.518   4.217   3.001  0.3102  0.3560 -0.2503
  137OSM    C2F14854   0.587   4.396   3.150  0.3220 -0.0751  0.3784
  137OSM    H2F14855   0.476   4.402   3.160  0.2247 -2.2263  1.2120
  137OSM    H2G14856   0.617   4.494   3.108  0.3733 -0.8864 -1.5474
  137OSM    C3F14857   0.638   4.371   3.296 -0.4121 -0.5336  0.3235
  137OSM    H3F14858   0.620   4.452   3.369  1.4785 -0.7040  1.0380
  137OSM    H3G14859   0.748   4.369   3.282 -0.5206 -0.8956 -0.5752
  137OSM    C4F14860   0.605   4.233   3.352 -0.3360 -0.0777  0.6476
  137OSM    H4F14861   0.618   4.161   3.268 -0.7102 -1.5550  1.8135
  137OSM    H4G14862   0.498   4.231   3.381 -0.1064  0.9201  1.6388
  137OSM    C5F14863   0.693   4.190   3.470  0.3767 -0.1909 -0.0124
  137OSM    H5F14864   0.800   4.207   3.444  0.0765 -1.9531 -2.8288
  137OSM    H5G14865   0.684   4.080   3.478 -0.6773 -0.0469  1.0740
  137OSM    C6F14866   0.649   4.267   3.600 -0.0925  0.5947 -0.2532
  137OSM    H6F14867   0.541   4.270   3.625  0.5518  1.9881  2.9026
  137OSM    H6G14868   0.670   4.375   3.585  0.3806  0.6035  0.3951
  137OSM    C7F14869   0.699   4.221   3.736 -0.1924  0.0790 -0.7079
  137OSM    H7F14870   0.810   4.221   3.730 -0.1175  0.3522  0.4086
  137OSM    H7G14871   0.657   4.119   3.750 -1.6276  0.6503 -0.7825
  137OSM    C8F14872   0.662   4.306   3.858  0.5396 -0.1174 -0.1540
  137OSM    H8F14873   0.719   4.401   3.862  0.1492  0.1054  0.2257
  137OSM    H8G14874   0.703   4.252   3.947  0.0529  1.3189  0.9740
  137OSM    C9F14875   0.519   4.339   3.890  0.0198  0.9125 -0.3404
  137OSM    H9F14876   0.488   4.416   3.818 -1.0815  0.9701  0.1753
  137OSM   C10F14877   0.433   4.286   3.981 -0.4713  0.0792 -0.1330
  137OSM   H10F14878   0.330   4.325   3.988 -1.8127 -3.3002  0.7985
  137OSM   C11F14879   0.467   4.186   4.089 -0.7773  0.7818  0.3912
  137OSM   H11F14880   0.551   4.123   4.054 -1.8853  0.4196 -1.8114
  137OSM   H11G14881   0.386   4.113   4.111  0.6530 -1.4411 -1.3608
  137OSM   C12F14882   0.517   4.255   4.222  0.0122  0.5276  1.2010
  137OSM   H12F14883   0.448   4.341   4.229 -2.1753 -0.7010 -2.5600
  137OSM   H12G14884   0.616   4.306   4.212  0.0742  0.2957  0.5642
  137OSM   C13F14885   0.509   4.160   4.339 -0.3440  0.4698  0.9703
  137OSM   H13F14886   0.572   4.071   4.319 -1.3044  0.0102 -0.1671
  137OSM   H13G14887   0.403   4.131   4.358 -0.4108 -1.7314 -1.9791
  137OSM   C14F14888   0.566   4.239   4.461  0.5772 -0.2688 -0.5477
  137OSM   H14F14889   0.660   4.286   4.425  0.6061  0.7923  0.7945
  137OSM   H14G14890   0.595   4.159   4.532  0.3116 -0.2212 -0.3844
  137OSM   C15F14891   0.458   4.328   4.530  0.8433  0.5718  0.9045
  137OSM   H15F14892   0.367   4.271   4.554  0.1431  1.2694 -0.0057
  137OSM   H15G14893   0.422   4.408   4.462 -1.9129 -1.2276  0.1025
  137OSM   C16F14894   0.523   4.398   4.654  0.2312 -0.7490 -0.1105
  137OSM   H16F14895   0.622   4.444   4.631 -0.6370  1.0344 -0.4925
  137OSM   H16G14896   0.538   4.311   4.721 -2.1757 -2.7148 -1.9058
  137OSM   C17F14897   0.414   4.487   4.724 -0.3485 -0.1093 -0.2195
  137OSM   H17F14898   0.311   4.447   4.737 -0.5645  0.8033  1.0722
  137OSM   H17G14899   0.411   4.571   4.651  1.2888 -1.7681 -2.3349
  137OSM   C18F14900   0.462   4.519   4.864  0.5868 -0.1910  0.8331
  137OSM   H18F14901   0.406   4.603   4.910 -1.1593  0.9854 -3.1127
  137OSM   H18G14902   0.573   4.520   4.858  0.5004 -0.4068 -1.2961
  137OSM   H18H14903   0.443   4.428   4.925  0.5756 -1.0156 -0.3634
  138OSM      N14904   0.412   4.827   2.141 -0.4048 -0.4484  0.0993
  138OSM    C1514905   0.518   4.738   2.195 -0.2313  0.0154 -0.6924
  138OSM   H15A14906   0.545   4.656   2.130  0.5446 -1.6166  1.5453
  138OSM   H15B14907   0.480   4.692   2.285 -1.4526 -1.0898 -1.7311
  138OSM   H15C14908   0.609   4.788   2.225 -0.1908  0.0597 -0.8876
  138OSM    C1414909   0.438   4.848   1.998 -0.2305 -0.8451 -0.3335
  138OSM   H14A14910   0.408   4.758   1.946 -4.7897  0.6444 -0.7250
  138OSM   H14B14911   0.543   4.869   1.981 -0.4059 -0.9769 -1.6146
  138OSM   H14C14912   0.395   4.940   1.964  1.9372 -0.1401 -1.3555
  138OSM    C1314913   0.280   4.773   2.170 -0.0480  0.5321 -0.1696
  138OSM   H13A14914   0.254   4.701   2.094 -3.0996  0.0662  1.1847
  138OSM   H13B14915   0.198   4.842   2.176 -0.6803  0.1182 -2.7149
  138OSM   H13C14916   0.282   4.724   2.266 -1.3579 -0.8771 -0.8042
  138OSM    C1214917   0.428   4.959   2.210  0.4747 -0.4741 -0.4227
  138OSM   H12A14918   0.353   5.030   2.179  1.0327  0.8044  1.0219
  138OSM   H12B14919   0.516   4.998   2.162  0.4388 -1.1628 -1.0648
  138OSM    C1114920   0.432   4.985   2.362  0.4402 -0.3755 -0.3889
  138OSM   H11A14921   0.327   4.979   2.399 -0.3148  0.7474 -2.2144
  138OSM   H11B14922   0.451   5.094   2.376  0.5008 -0.1312 -2.1258
  138OSM      P14923   0.662   4.946   2.472 -0.3508  0.3453  0.0912
  138OSM    O1314924   0.724   4.845   2.557  0.1531 -0.1682  0.0997
  138OSM    O1414925   0.721   4.972   2.337  0.1478  0.4810 -0.2676
  138OSM    O1114926   0.653   5.082   2.561  0.0742  0.8290 -0.6478
  138OSM    O1214927   0.513   4.902   2.445 -0.1026  0.3777  0.5047
  138OSM    C1S14928   0.558   5.084   2.675  0.0497 -0.6084  0.8880
  138OSM    H1S14929   0.505   4.987   2.681 -0.8922 -0.2170 -0.5028
  138OSM    H1T14930   0.478   5.161   2.666 -2.2024 -3.0158 -1.9102
  138OSM     NF14931   0.554   5.087   2.932  0.5453  0.1399 -0.5519
  138OSM    HNF14932   0.547   5.168   2.990  1.4802 -2.2039  3.1597
  138OSM    C2S14933   0.634   5.096   2.817 -0.6831  0.1145  0.6843
  138OSM    H2S14934   0.701   5.008   2.823  1.2832  1.6085  2.4085
  138OSM    C3S14935   0.735   5.216   2.826 -0.2422 -0.0687  0.1002
  138OSM    H3S14936   0.678   5.311   2.840  1.2728  0.7136  1.3908
  138OSM     O314937   0.808   5.241   2.710 -0.8459 -0.3922 -0.6487
  138OSM    HO314938   0.754   5.199   2.643 -2.3996 -0.0754  0.3525
  138OSM    C4S14939   0.830   5.212   2.943 -0.1418 -0.9520 -0.1156
  138OSM    H4S14940   0.787   5.255   3.035 -3.3374 -1.5446 -1.2092
  138OSM    C5S14941   0.945   5.147   2.942  0.3222  0.4770 -0.0200
  138OSM    H5S14942   0.969   5.079   2.858 -1.7559 -2.1093  1.3357
  138OSM    C6S14943   1.041   5.138   3.058 -0.1887  0.3974  0.2184
  138OSM    H6S14944   1.134   5.193   3.033  0.3591 -0.2002  0.8863
  138OSM    H6T14945   1.075   5.033   3.076  1.0422  0.9666  1.3853
  138OSM    C7S14946   0.977   5.195   3.190  0.2540  0.0779 -0.2135
  138OSM    H7S14947   0.888   5.129   3.201  0.0089 -0.5296 -4.2880
  138OSM    H7T14948   0.934   5.296   3.177  0.0537 -0.1592 -1.5475
  138OSM    C8S14949   1.056   5.177   3.320 -0.2414 -0.1430 -0.7329
  138OSM    H8S14950   0.981   5.206   3.397 -0.8637 -0.2083 -1.2998
  138OSM    H8T14951   1.139   5.250   3.329 -1.4086  1.1056  0.4116
  138OSM    C9S14952   1.108   5.039   3.363 -0.1314  0.0118 -0.5850
  138OSM    H9S14953   1.190   5.011   3.293 -1.1318 -0.0754 -1.7514
  138OSM    H9T14954   1.032   4.962   3.336  0.5924 -0.9886  0.1261
  138OSM   C10S14955   1.151   5.019   3.510 -0.3208  0.5579  0.2751
  138OSM   H10S14956   1.237   5.083   3.539  1.3639 -0.8654 -1.3508
  138OSM   H10T14957   1.181   4.913   3.524  1.4098  0.9561 -0.2170
  138OSM   C11S14958   1.037   5.047   3.620  0.0639  0.2970 -0.7940
  138OSM   H11S14959   0.937   5.007   3.594 -0.1549  0.5303 -0.3246
  138OSM   H11T14960   1.020   5.157   3.622 -1.4564  0.0731 -0.0223
  138OSM   C12S14961   1.070   4.989   3.758  0.2780  0.0328  0.7248
  138OSM   H12S14962   1.109   4.887   3.739  1.8629  0.6178  0.6846
  138OSM   H12T14963   0.975   4.996   3.816  1.3958 -0.0528  2.6485
  138OSM   C13S14964   1.180   5.062   3.845  0.7530 -0.1897 -0.3059
  138OSM   H13S14965   1.139   5.152   3.895 -0.5832  0.1153 -1.8964
  138OSM   H13T14966   1.275   5.086   3.792 -0.3432  0.5490 -1.9917
  138OSM   C14S14967   1.221   4.973   3.967 -0.7159  0.2551 -0.2094
  138OSM   H14S14968   1.299   5.027   4.026 -1.7512  1.2547  0.2781
  138OSM   H14T14969   1.278   4.887   3.926  0.8926  0.9525  0.4660
  138OSM   C15S14970   1.104   4.942   4.053  0.0946  0.3267  0.0450
  138OSM   H15S14971   1.021   4.888   4.002  1.5682  0.2735 -2.4720
  138OSM   H15T14972   1.059   5.041   4.076  1.3414  1.4703 -2.0718
  138OSM   C16S14973   1.128   4.861   4.179 -0.2175 -0.0531 -0.5696
  138OSM   H16S14974   1.166   4.757   4.169  0.1485 -0.2500  2.0814
  138OSM   H16T14975   1.033   4.852   4.235  0.8407 -1.4059  1.0925
  138OSM   C17S14976   1.215   4.936   4.281 -0.3327 -0.2392 -0.3545
  138OSM   H17S14977   1.156   5.027   4.308 -0.3897 -0.8005  1.5634
  138OSM   H17T14978   1.318   4.965   4.250  0.0127 -0.4664  0.5463
  138OSM   C18S14979   1.233   4.867   4.416 -0.1236  0.0032  0.3963
  138OSM   H18S14980   1.276   4.940   4.489 -0.0483  0.3923 -0.0308
  138OSM   H18T14981   1.309   4.789   4.393  1.0989  1.7281 -1.7924
  138OSM   H18U14982   1.136   4.834   4.458 -1.3332  1.0197 -1.4806
  138OSM    C1F14983   0.473   4.985   2.962 -0.4935  0.0727 -0.4514
  138OSM     OF14984   0.486   4.879   2.900 -0.4955  0.1755 -0.2450
  138OSM    C2F14985   0.378   5.009   3.071  0.0856  0.7419 -0.4215
  138OSM    H2F14986   0.277   4.994   3.027 -0.0719  0.2292  0.1084
  138OSM    H2G14987   0.385   5.116   3.103 -0.7782  1.3732 -2.1851
  138OSM    C3F14988   0.388   4.909   3.187 -0.5904  0.7571  0.0399
  138OSM    H3F14989   0.385   4.805   3.148  1.0726  0.8001 -0.3055
  138OSM    H3G14990   0.294   4.913   3.246 -0.4355  0.9072  0.2801
  138OSM    C4F14991   0.504   4.928   3.280  0.2943  0.4610  0.1327
  138OSM    H4F14992   0.476   4.866   3.368  2.7024  2.3791  2.4335
  138OSM    H4G14993   0.507   5.033   3.316 -2.7485  0.6590  0.0077
  138OSM    C5F14994   0.649   4.877   3.234  0.2151  0.1406  0.3057
  138OSM    H5F14995   0.718   4.895   3.319 -0.3331 -2.0308  1.2808
  138OSM    H5G14996   0.677   4.941   3.148  0.5740  0.5092  0.6927
  138OSM    C6F14997   0.670   4.727   3.212 -0.3181 -0.3276 -0.1424
  138OSM    H6F14998   0.614   4.707   3.118 -0.1883  0.9454 -0.5082
  138OSM    H6G14999   0.633   4.671   3.300  1.9805 -2.7986 -0.6194
  138OSM    C7F15000   0.823   4.698   3.192 -0.1100  0.6909  0.4716
  138OSM    H7F15001   0.867   4.779   3.131 -0.3191 -0.4273 -1.2272
  138OSM    H7G15002   0.837   4.612   3.123 -1.9548  0.8113 -0.1065
  138OSM    C8F15003   0.913   4.690   3.312 -0.2688  0.0415 -0.0602
  138OSM    H8F15004   0.895   4.783   3.370 -0.0313 -0.2096  0.4112
  138OSM    H8G15005   1.019   4.697   3.280  0.1971  1.8042  1.6631
  138OSM    C9F15006   0.888   4.559   3.385  0.4880 -0.2570 -0.5357
  138OSM    H9F15007   0.910   4.469   3.325  0.4071 -1.4887  1.1951
  138OSM   C10F15008   0.863   4.546   3.512 -0.2559 -0.1880 -0.5732
  138OSM   H10F15009   0.867   4.445   3.557 -0.0466 -0.5317 -1.3404
  138OSM   C11F15010   0.861   4.658   3.619 -0.3590 -0.5861 -0.5885
  138OSM   H11F15011   0.875   4.761   3.579 -1.9882  1.0581  2.7136
  138OSM   H11G15012   0.942   4.639   3.692  0.1460  1.7273 -0.4519
  138OSM   C12F15013   0.730   4.680   3.689 -0.1768 -0.3328  0.3045
  138OSM   H12F15014   0.689   4.594   3.745  1.7526 -1.1648  0.5035
  138OSM   H12G15015   0.664   4.704   3.603  0.2988  1.3565  0.3613
  138OSM   C13F15016   0.730   4.809   3.764 -0.0982 -0.2557 -1.6414
  138OSM   H13F15017   0.625   4.837   3.788  0.6017  1.4499 -0.3483
  138OSM   H13G15018   0.782   4.893   3.713  3.1976 -0.6332  0.7842
  138OSM   C14F15019   0.789   4.790   3.906 -0.0969  0.4004  0.0658
  138OSM   H14F15020   0.790   4.891   3.954 -0.6115  0.2779  0.3324
  138OSM   H14G15021   0.895   4.760   3.888 -0.9523 -1.0988 -3.2359
  138OSM   C15F15022   0.712   4.711   4.001  0.7684 -0.3112 -0.0058
  138OSM   H15F15023   0.715   4.602   3.981 -1.1251 -0.0512 -2.1526
  138OSM   H15G15024   0.604   4.731   3.988  1.0950  0.3191 -2.1235
  138OSM   C16F15025   0.761   4.731   4.143 -0.4466 -0.4918 -0.2803
  138OSM   H16F15026   0.759   4.839   4.169 -1.1913 -0.4554 -0.4618
  138OSM   H16G15027   0.868   4.704   4.150 -0.6153 -0.8403  1.7289
  138OSM   C17F15028   0.689   4.649   4.253  0.9731 -0.3100 -0.3603
  138OSM   H17F15029   0.720   4.544   4.234 -0.1735 -0.3689 -2.2671
  138OSM   H17G15030   0.580   4.660   4.234  0.9808  0.3826 -0.0313
  138OSM   C18F15031   0.716   4.702   4.394  0.0059 -0.8975  0.1488
  138OSM   H18F15032   0.823   4.731   4.402 -0.5778  0.8724  2.8385
  138OSM   H18G15033   0.679   4.645   4.482 -1.5765 -0.3827 -0.1502
  138OSM   H18H15034   0.669   4.802   4.404  0.4284 -0.6831  0.0146
  139OSM      N15035   1.299   1.984   2.589 -0.4052  0.2868 -1.1060
  139OSM    C1515036   1.307   2.007   2.442  0.2392  0.4162 -0.6311
  139OSM   H15A15037   1.219   1.968   2.393  0.6889 -0.8133 -0.4873
  139OSM   H15B15038   1.397   1.975   2.391  0.1026  0.5136 -0.9359
  139OSM   H15C15039   1.305   2.113   2.420  0.1496  0.3449 -0.9777
  139OSM    C1415040   1.182   2.051   2.638 -0.3043 -0.0150  0.3044
  139OSM   H14A15041   1.157   2.015   2.736 -0.7668 -3.0871 -0.8150
  139OSM   H14B15042   1.095   2.038   2.575 -0.6941  0.0063  0.8335
  139OSM   H14C15043   1.193   2.158   2.641 -0.8524  0.1556 -2.0044
  139OSM    C1315044   1.287   1.840   2.612 -0.0032  0.5067  0.0709
  139OSM   H13A15045   1.201   1.797   2.562 -0.9857  1.1284  1.1577
  139OSM   H13B15046   1.273   1.836   2.719 -0.3401  1.1047  0.0547
  139OSM   H13C15047   1.381   1.788   2.605  0.1247  0.6485  0.7146
  139OSM    C1215048   1.428   2.033   2.665  0.2599  1.1204  0.0942
  139OSM   H12A15049   1.417   2.000   2.767  1.8580  0.0805 -0.0302
  139OSM   H12B15050   1.440   2.139   2.681  1.6607  1.4512 -2.5562
  139OSM    C1115051   1.559   1.975   2.621 -0.4584  0.0019  0.2329
  139OSM   H11A15052   1.643   2.028   2.671 -1.5961  0.9440  1.2062
  139OSM   H11B15053   1.576   1.982   2.511 -0.5659 -0.1732  0.2043
  139OSM      P15054   1.680   1.750   2.692  0.3337 -0.0593  0.5795
  139OSM    O1315055   1.624   1.628   2.748  0.0915  0.2901  0.1853
  139OSM    O1415056   1.756   1.739   2.561 -0.2845 -0.6804 -0.5453
  139OSM    O1115057   1.761   1.838   2.800 -0.2701  0.4948  0.2662
  139OSM    O1215058   1.562   1.840   2.660  0.3757 -0.1481 -0.2440
  139OSM    C1S15059   1.713   1.892   2.918 -0.7180 -0.1000  0.2257
  139OSM    H1S15060   1.602   1.902   2.925 -0.5865  0.5514  1.8163
  139OSM    H1T15061   1.739   2.000   2.915 -0.0267 -0.2799 -1.0714
  139OSM     NF15062   1.686   1.859   3.154 -0.3327 -0.0985  0.1658
  139OSM    HNF15063   1.740   1.912   3.220  0.4215 -1.2710  0.5291
  139OSM    C2S15064   1.759   1.815   3.040 -0.2910 -0.5914  0.4480
  139OSM    H2S15065   1.744   1.704   3.036  0.8613 -0.7964  1.4527
  139OSM    C3S15066   1.914   1.835   3.054 -0.9117 -0.1212  0.0155
  139OSM    H3S15067   1.920   1.945   3.069 -2.8722  0.0186  0.0759
  139OSM     O315068   1.999   1.800   2.943  0.3306 -0.1161  0.3547
  139OSM    HO315069   1.935   1.778   2.875  1.4643 -1.0383 -0.4500
  139OSM    C4S15070   1.971   1.770   3.178  0.4866 -0.6732  0.0593
  139OSM    H4S15071   1.994   1.664   3.162 -0.9065 -0.7536 -1.6576
  139OSM    C5S15072   2.015   1.826   3.293  0.3791 -0.3555  0.3618
  139OSM    H5S15073   2.020   1.936   3.297 -0.6520 -0.2477 -0.7489
  139OSM    C6S15074   2.097   1.751   3.398  0.3451 -0.7829 -0.0974
  139OSM    H6S15075   2.197   1.792   3.420 -0.6782  1.5406  0.5047
  139OSM    H6T15076   2.120   1.647   3.366  0.6898 -1.4776  2.2133
  139OSM    C7S15077   2.014   1.743   3.527 -0.0188  0.0154 -0.5957
  139OSM    H7S15078   1.918   1.688   3.512 -2.1231  2.4527  2.5733
  139OSM    H7T15079   1.993   1.843   3.570  2.0771 -0.4492  1.8030
  139OSM    C8S15080   2.108   1.671   3.634 -0.2227 -0.1941  0.1664
  139OSM    H8S15081   2.188   1.744   3.659  0.2530 -0.4997 -0.4281
  139OSM    H8T15082   2.162   1.589   3.582  1.0315 -0.3437  1.6569
  139OSM    C9S15083   2.032   1.651   3.764 -1.0325  0.3689 -0.5201
  139OSM    H9S15084   1.957   1.570   3.748 -0.4769 -0.3720  0.4904
  139OSM    H9T15085   1.983   1.750   3.772  0.1796  1.0999 -1.7745
  139OSM   C10S15086   2.107   1.618   3.898  0.8003 -0.8012  0.4311
  139OSM   H10S15087   2.170   1.704   3.929 -0.3450 -0.3428  1.5811
  139OSM   H10T15088   2.174   1.533   3.869 -0.1919 -0.9644 -1.5664
  139OSM   C11S15089   2.025   1.592   4.022 -0.2504 -0.4684 -0.4439
  139OSM   H11S15090   2.103   1.557   4.093 -1.1835  1.3561  1.5867
  139OSM   H11T15091   1.941   1.522   4.000  0.5176 -1.6939  0.3761
  139OSM   C12S15092   1.965   1.721   4.076  0.0599 -0.1517 -0.3271
  139OSM   H12S15093   1.888   1.758   4.006  0.4333  1.7461  0.2146
  139OSM   H12T15094   2.047   1.795   4.083  0.8593 -1.0495  0.0836
  139OSM   C13S15095   1.902   1.717   4.224 -0.6693 -0.1441  0.2375
  139OSM   H13S15096   1.911   1.825   4.246  1.1485  0.0312 -1.1364
  139OSM   H13T15097   1.982   1.670   4.285 -0.0604  2.6830  1.7481
  139OSM   C14S15098   1.755   1.668   4.224  0.0744  0.0362 -0.1574
  139OSM   H14S15099   1.720   1.673   4.118  2.0239 -0.0565 -0.8411
  139OSM   H14T15100   1.688   1.722   4.293 -0.2394 -2.5806  1.7282
  139OSM   C15S15101   1.741   1.518   4.263  0.1988  0.9672 -0.2585
  139OSM   H15S15102   1.772   1.459   4.174 -0.3361  1.3027 -0.6769
  139OSM   H15T15103   1.631   1.507   4.273  0.1326  1.2597 -0.6212
  139OSM   C16S15104   1.810   1.475   4.389  0.3539  0.2284  0.0498
  139OSM   H16S15105   1.806   1.560   4.460 -0.0367  1.6025 -1.5612
  139OSM   H16T15106   1.919   1.463   4.371  0.1799  1.4287 -2.1248
  139OSM   C17S15107   1.753   1.352   4.459 -0.5451  0.3638  0.5125
  139OSM   H17S15108   1.764   1.273   4.381 -0.9991  1.9008 -1.1893
  139OSM   H17T15109   1.644   1.354   4.480 -0.4528 -0.1154  1.0660
  139OSM   C18S15110   1.827   1.321   4.589 -0.3703  1.0702 -0.1016
  139OSM   H18S15111   1.936   1.339   4.581 -0.4333  1.6824  0.3729
  139OSM   H18T15112   1.798   1.223   4.632 -0.5884  0.3378 -1.8360
  139OSM   H18U15113   1.794   1.394   4.666 -3.3913  0.3327 -0.5719
  139OSM    C1F15114   1.565   1.828   3.191 -0.5997 -0.0128  0.5798
  139OSM     OF15115   1.484   1.767   3.129  0.2541  0.2012  0.6018
  139OSM    C2F15116   1.529   1.873   3.326 -0.2517  0.5292  0.3572
  139OSM    H2F15117   1.554   1.981   3.336  1.1993  0.1898  0.6941
  139OSM    H2G15118   1.589   1.810   3.395 -1.5608 -0.0813  0.9767
  139OSM    C3F15119   1.374   1.859   3.363 -0.2535 -0.1632  0.4000
  139OSM    H3F15120   1.362   1.750   3.381  0.4272 -0.7973 -2.5445
  139OSM    H3G15121   1.298   1.885   3.287  0.3299  2.4903  0.6220
  139OSM    C4F15122   1.343   1.931   3.494 -0.5661  0.3228  0.2444
  139OSM    H4F15123   1.435   1.916   3.555 -0.9801  1.2803  1.1427
  139OSM    H4G15124   1.261   1.890   3.557 -0.1459 -0.2444  0.4335
  139OSM    C5F15125   1.332   2.081   3.483  0.0200  0.0902 -0.4664
  139OSM    H5F15126   1.243   2.110   3.423 -1.5480 -1.9108  0.7063
  139OSM    H5G15127   1.421   2.110   3.425  2.6955  0.3509  3.4073
  139OSM    C6F15128   1.340   2.137   3.627  0.1634 -0.1917  0.1380
  139OSM    H6F15129   1.437   2.111   3.675 -1.7639 -2.1379  3.3216
  139OSM    H6G15130   1.258   2.102   3.693  1.6534 -2.1392  1.0750
  139OSM    C7F15131   1.333   2.295   3.619 -0.1895  0.7566  0.4924
  139OSM    H7F15132   1.252   2.324   3.549 -1.9285  0.0668  2.1520
  139OSM    H7G15133   1.427   2.324   3.567  1.3922 -3.6545  0.5144
  139OSM    C8F15134   1.316   2.361   3.753  0.6893  0.0927 -0.6805
  139OSM    H8F15135   1.219   2.330   3.796  1.1015 -2.1629 -1.2546
  139OSM    H8G15136   1.309   2.470   3.736  2.9724  0.2576 -0.9436
  139OSM    C9F15137   1.433   2.335   3.853 -0.0718  0.0949  1.3359
  139OSM    H9F15138   1.520   2.284   3.811  0.1819  0.5917  1.2444
  139OSM   C10F15139   1.445   2.367   3.980  0.1371 -0.5354 -0.4917
  139OSM   H10F15140   1.537   2.339   4.033 -1.2069 -2.4506  0.9578
  139OSM   C11F15141   1.350   2.442   4.067  0.0057 -0.8307  0.1078
  139OSM   H11F15142   1.303   2.525   4.011  1.7147  1.7282  2.2392
  139OSM   H11G15143   1.395   2.483   4.160  0.9089  1.1083 -1.1067
  139OSM   C12F15144   1.240   2.346   4.129  0.2809 -0.2040  0.1029
  139OSM   H12F15145   1.304   2.289   4.200  1.0969 -0.8570 -1.1344
  139OSM   H12G15146   1.201   2.279   4.050 -1.4393  0.6291  0.1907
  139OSM   C13F15147   1.127   2.430   4.196 -0.4060  0.7623  0.3141
  139OSM   H13F15148   1.046   2.469   4.132 -2.2897  0.4728  2.3933
  139OSM   H13G15149   1.169   2.522   4.242 -1.6765  1.6940 -0.3273
  139OSM   C14F15150   1.053   2.346   4.292  0.5250 -0.3099  0.0737
  139OSM   H14F15151   0.990   2.413   4.354 -2.0938 -2.4010 -0.1314
  139OSM   H14G15152   1.129   2.306   4.363  0.0187  1.6742  1.8381
  139OSM   C15F15153   0.956   2.245   4.243 -0.0935 -0.3159 -1.0157
  139OSM   H15F15154   1.006   2.174   4.175  0.8351 -1.6594  1.0018
  139OSM   H15G15155   0.877   2.303   4.189 -0.0207  1.5867  0.7922
  139OSM   C16F15156   0.876   2.179   4.353 -0.6057  0.6678 -0.2508
  139OSM   H16F15157   0.792   2.118   4.315  0.0773  0.3533 -1.2884
  139OSM   H16G15158   0.819   2.259   4.405 -2.7787 -1.2066  0.4251
  139OSM   C17F15159   0.957   2.092   4.455  0.0031 -0.2876  1.0021
  139OSM   H17F15160   1.044   2.139   4.505  1.1386 -1.0917 -0.1349
  139OSM   H17G15161   0.998   2.005   4.399 -0.7095  0.4141 -0.6984
  139OSM   C18F15162   0.864   2.035   4.564 -0.0388 -0.4899 -0.1948
  139OSM   H18F15163   0.818   2.124   4.612 -1.8001 -2.5567  2.2234
  139OSM   H18G15164   0.926   1.979   4.637 -2.9197 -1.0968  1.9785
  139OSM   H18H15165   0.788   1.963   4.528 -1.5894  0.2168  1.4933
  140OSM      N15166   5.920   6.064   2.226 -0.3124 -0.4724  0.3145
  140OSM    C1515167   6.041   6.033   2.142  0.1074 -0.4216  0.6165
  140OSM   H15A15168   6.022   6.015   2.037  2.5074 -0.9139  0.2276
  140OSM   H15B15169   6.085   5.942   2.177  2.9184 -0.0182 -1.5534
  140OSM   H15C15170   6.109   6.117   2.151 -0.2194 -0.2251  1.2911
  140OSM    C1415171   5.852   6.185   2.155 -0.4658 -0.3032  0.7299
  140OSM   H14A15172   5.932   6.257   2.148  1.1542 -1.9870  1.0820
  140OSM   H14B15173   5.766   6.216   2.213 -2.2403 -0.3656 -1.6925
  140OSM   H14C15174   5.818   6.166   2.054 -1.5305  1.6255  0.6893
  140OSM    C1315175   5.829   5.953   2.216 -0.3642 -0.1485  0.6915
  140OSM   H13A15176   5.869   5.868   2.269  2.1575  0.7890  0.4299
  140OSM   H13B15177   5.809   5.929   2.113 -0.5889  1.3619  0.3680
  140OSM   H13C15178   5.735   5.969   2.267 -1.1419 -0.8065 -0.4956
  140OSM    C1215179   5.964   6.103   2.364  0.3405  0.5561 -0.1350
  140OSM   H12A15180   6.029   6.189   2.361  0.8081  0.2841  1.3111
  140OSM   H12B15181   6.027   6.028   2.409 -1.1312  0.5808  2.1770
  140OSM    C1115182   5.865   6.135   2.474 -0.3709  0.0508 -0.2341
  140OSM   H11A15183   5.909   6.155   2.574  0.7254 -2.0165 -0.2521
  140OSM   H11B15184   5.793   6.054   2.498 -1.3504  0.8129 -0.5133
  140OSM      P15185   5.791   6.384   2.488 -0.3763  0.2611 -0.2432
  140OSM    O1315186   5.935   6.422   2.491  0.5812 -0.6300  0.4172
  140OSM    O1415187   5.698   6.474   2.415 -0.6850 -0.1478  0.0862
  140OSM    O1115188   5.736   6.377   2.632 -0.8576  0.1835  0.2480
  140OSM    O1215189   5.779   6.235   2.438 -0.3662  0.0710  0.3199
  140OSM    C1S15190   5.831   6.382   2.745 -0.4728 -0.2771 -0.2441
  140OSM    H1S15191   5.897   6.470   2.730  0.4576 -1.0714 -0.9060
  140OSM    H1T15192   5.889   6.287   2.740 -1.3439 -0.8895  0.8887
  140OSM     NF15193   5.897   6.361   2.974  0.2390  0.2546 -0.6901
  140OSM    HNF15194   5.906   6.268   3.010  0.7691  0.2406 -0.8579
  140OSM    C2S15195   5.779   6.388   2.890  0.1994 -0.0953  0.6500
  140OSM    H2S15196   5.737   6.490   2.904  1.7273  0.4961  1.1194
  140OSM    C3S15197   5.666   6.282   2.915  0.2338  0.8323  0.1483
  140OSM    H3S15198   5.712   6.181   2.913  0.2687  0.8173  1.3712
  140OSM     O315199   5.567   6.276   2.816  0.2900 -0.0700  0.2812
  140OSM    HO315200   5.599   6.315   2.734 -0.4838 -0.5206 -0.2502
  140OSM    C4S15201   5.610   6.303   3.055  0.3168 -0.3704 -0.3975
  140OSM    H4S15202   5.666   6.258   3.139  0.0386  0.8538  0.4714
  140OSM    C5S15203   5.494   6.359   3.089  0.0351 -0.0281 -0.2705
  140OSM    H5S15204   5.429   6.410   3.016  2.3117  1.1779 -1.5719
  140OSM    C6S15205   5.437   6.374   3.233 -0.0828  0.3289  0.3258
  140OSM    H6S15206   5.348   6.313   3.259  1.0712 -0.1633  3.5656
  140OSM    H6T15207   5.395   6.475   3.253 -0.8672  0.1670 -0.4690
  140OSM    C7S15208   5.543   6.336   3.336  1.0659 -0.5770 -0.6856
  140OSM    H7S15209   5.637   6.392   3.317  0.6291  0.4065 -0.0535
  140OSM    H7T15210   5.564   6.227   3.323  1.1412 -0.4833 -1.3952
  140OSM    C8S15211   5.498   6.362   3.480 -0.6568 -0.2050 -0.1928
  140OSM    H8S15212   5.394   6.329   3.505  0.5640 -2.6178  2.2787
  140OSM    H8T15213   5.502   6.472   3.493  3.0244 -0.2700  0.2753
  140OSM    C9S15214   5.591   6.286   3.577 -0.2780  0.4003  0.3371
  140OSM    H9S15215   5.697   6.316   3.581 -0.3730  0.7865  0.0015
  140OSM    H9T15216   5.588   6.183   3.536  0.9868 -0.0594  1.3504
  140OSM   C10S15217   5.536   6.298   3.725  0.6962 -0.2093  0.2383
  140OSM   H10S15218   5.603   6.241   3.793  2.5109  1.0922 -0.3853
  140OSM   H10T15219   5.429   6.267   3.720  0.1206  1.8060 -1.0436
  140OSM   C11S15220   5.529   6.440   3.779  0.3008  0.3496  0.3474
  140OSM   H11S15221   5.457   6.488   3.709 -1.6413 -1.9415  0.6562
  140OSM   H11T15222   5.627   6.491   3.766  0.1687  0.0718 -2.2347
  140OSM   C12S15223   5.466   6.459   3.921  0.6906  0.5618  0.1823
  140OSM   H12S15224   5.368   6.407   3.916  0.8326  0.4326 -1.7519
  140OSM   H12T15225   5.443   6.567   3.932 -3.0105 -0.0996  0.2079
  140OSM   C13S15226   5.543   6.394   4.037 -0.1177  0.5020  0.0194
  140OSM   H13S15227   5.645   6.438   4.027 -0.3551  1.0295 -0.1324
  140OSM   H13T15228   5.560   6.286   4.018  1.8557  0.4693  1.6534
  140OSM   C14S15229   5.481   6.411   4.180  0.3055  0.7167  0.2772
  140OSM   H14S15230   5.376   6.376   4.173  0.8750 -0.7197 -2.5544
  140OSM   H14T15231   5.472   6.521   4.195  0.1258  1.2581 -3.0506
  140OSM   C15S15232   5.557   6.331   4.285  0.6679 -0.5298 -1.1492
  140OSM   H15S15233   5.665   6.333   4.258  0.7853 -1.5896 -0.7902
  140OSM   H15T15234   5.536   6.223   4.268  6.0757 -1.8395 -1.2089
  140OSM   C16S15235   5.544   6.383   4.433 -0.1788  0.0688 -0.1827
  140OSM   H16S15236   5.451   6.340   4.477  0.2483  1.4117  2.2268
  140OSM   H16T15237   5.533   6.493   4.439  0.5780  0.1343  0.1167
  140OSM   C17S15238   5.649   6.323   4.529  0.1465  0.2324  0.6318
  140OSM   H17S15239   5.646   6.215   4.500 -2.3039  0.7488 -1.3340
  140OSM   H17T15240   5.616   6.335   4.634 -1.4488 -0.9735  0.3096
  140OSM   C18S15241   5.787   6.383   4.520 -0.7265  0.4969  0.2725
  140OSM   H18S15242   5.818   6.374   4.413 -0.0792  1.7481  0.3340
  140OSM   H18T15243   5.861   6.333   4.586  0.8767  0.5046 -1.4328
  140OSM   H18U15244   5.782   6.492   4.541 -0.6414  0.5523  0.0141
  140OSM    C1F15245   5.989   6.446   3.000 -0.0283 -0.5511  0.1328
  140OSM     OF15246   5.981   6.560   2.956 -0.1000  0.5137  0.1793
  140OSM    C2F15247   6.111   6.399   3.076  0.1630 -0.4404  0.0182
  140OSM    H2F15248   6.193   6.472   3.059  0.3301  0.1225  2.8347
  140OSM    H2G15249   6.146   6.305   3.028 -0.1743 -0.8631  0.5878
  140OSM    C3F15250   6.093   6.354   3.218  0.2686 -0.1259 -0.7839
  140OSM    H3F15251   6.186   6.322   3.269 -0.4383  1.4816  1.7247
  140OSM    H3G15252   6.035   6.261   3.200 -2.1257  1.2992 -0.9368
  140OSM    C4F15253   6.018   6.435   3.327 -0.2197  0.2170 -0.1526
  140OSM    H4F15254   5.921   6.453   3.275  0.1616 -2.5257 -2.0745
  140OSM    H4G15255   6.074   6.530   3.335  0.6943 -0.2964 -0.2656
  140OSM    C5F15256   6.011   6.360   3.461  0.3475  0.0060 -0.0034
  140OSM    H5F15257   6.111   6.314   3.480 -0.1029 -0.9894  0.0347
  140OSM    H5G15258   5.932   6.284   3.446  1.5008 -1.0385 -1.0449
  140OSM    C6F15259   5.972   6.438   3.581 -0.4519  0.1775 -0.2179
  140OSM    H6F15260   5.864   6.464   3.578 -0.3892  0.3736 -1.6123
  140OSM    H6G15261   6.030   6.533   3.583 -1.9484  1.1183 -0.2108
  140OSM    C7F15262   5.997   6.352   3.702  0.2960 -0.1583 -0.2767
  140OSM    H7F15263   6.103   6.325   3.720  0.2223 -0.4422 -0.2563
  140OSM    H7G15264   5.950   6.261   3.659 -1.9242  1.6210 -1.9098
  140OSM    C8F15265   5.925   6.392   3.835  0.5052 -0.5557 -0.4340
  140OSM    H8F15266   5.815   6.375   3.831  0.5425 -0.6150 -2.3135
  140OSM    H8G15267   5.935   6.502   3.848 -0.6570 -0.5463  0.5994
  140OSM    C9F15268   5.973   6.311   3.952 -0.5222 -0.0882 -0.1584
  140OSM    H9F15269   5.990   6.203   3.946 -1.5277 -0.2904  0.3722
  140OSM   C10F15270   6.021   6.349   4.068 -0.3009  0.5431 -0.0983
  140OSM   H10F15271   6.057   6.275   4.140  1.4749  2.1568  0.7633
  140OSM   C11F15272   6.030   6.492   4.123  0.4210  0.7307 -0.7954
  140OSM   H11F15273   6.087   6.553   4.050  1.5222  2.4957  1.4008
  140OSM   H11G15274   6.099   6.503   4.209 -0.7963  1.2810  0.1471
  140OSM   C12F15275   5.898   6.570   4.152 -0.0262 -0.4682 -0.1437
  140OSM   H12F15276   5.835   6.529   4.233  1.3812  0.8175  1.6840
  140OSM   H12G15277   5.835   6.552   4.062  1.2167  0.6462 -1.2917
  140OSM   C13F15278   5.905   6.718   4.181 -0.2404  0.2240  0.3556
  140OSM   H13F15279   5.809   6.770   4.203  1.2166  2.2519  2.3673
  140OSM   H13G15280   5.940   6.762   4.085 -1.0693  2.8410  1.1516
  140OSM   C14F15281   5.999   6.755   4.299 -0.2905  0.1861  1.5787
  140OSM   H14F15282   5.991   6.865   4.313 -1.8290 -0.0400  2.7268
  140OSM   H14G15283   6.108   6.739   4.287 -0.5514 -2.8167  2.4193
  140OSM   C15F15284   5.964   6.699   4.428  0.2157 -0.2016 -0.8207
  140OSM   H15F15285   5.982   6.589   4.420  4.0825  0.2143  0.4499
  140OSM   H15G15286   5.859   6.708   4.464  1.0983  0.0514  1.8845
  140OSM   C16F15287   6.047   6.749   4.548 -0.7083 -0.0113  0.5261
  140OSM   H16F15288   6.028   6.858   4.542 -1.0595 -0.1289 -0.7728
  140OSM   H16G15289   6.155   6.734   4.526 -0.8382  0.4646 -0.5240
  140OSM   C17F15290   6.010   6.691   4.686 -0.6907 -0.6158  0.0794
  140OSM   H17F15291   6.090   6.707   4.762 -0.7177  0.6392 -0.1312
  140OSM   H17G15292   5.988   6.583   4.680 -1.0699 -0.6545  1.5595
  140OSM   C18F15293   5.871   6.756   4.726 -0.5747  0.2381 -0.7050
  140OSM   H18F15294   5.846   6.714   4.826 -0.4422  0.4654 -0.5737
  140OSM   H18G15295   5.791   6.724   4.656 -0.4314 -1.0195 -0.3271
  140OSM   H18H15296   5.875   6.867   4.727 -1.3204  0.2694 -0.2269
  141OSM      N15297   2.817   3.609   2.880  0.4410 -0.6982  0.4169
  141OSM    C1515298   2.892   3.549   2.775  0.1641  0.6085 -0.0272
  141OSM   H15A15299   2.952   3.618   2.717  1.5758  0.2093  0.8935
  141OSM   H15B15300   2.828   3.496   2.706  0.5256  1.7312 -1.2744
  141OSM   H15C15301   2.966   3.475   2.803 -0.2481  0.3652  0.4350
  141OSM    C1415302   2.900   3.645   2.995 -0.5234  0.9480  0.4934
  141OSM   H14A15303   2.848   3.701   3.071 -1.3908  0.1566  0.5017
  141OSM   H14B15304   2.982   3.709   2.967 -0.1961  0.8118  1.1320
  141OSM   H14C15305   2.932   3.553   3.041  1.3601  1.3338  0.0579
  141OSM    C1315306   2.753   3.743   2.826 -0.0201  0.0162  0.1200
  141OSM   H13A15307   2.831   3.795   2.772  0.1881 -1.0776 -0.6896
  141OSM   H13B15308   2.709   3.803   2.904 -0.0711 -1.5354  1.3389
  141OSM   H13C15309   2.681   3.712   2.752 -0.1538  0.2401  0.1574
  141OSM    C1215310   2.706   3.525   2.932  0.0461 -0.1119 -0.0221
  141OSM   H12A15311   2.652   3.583   3.006 -1.8955  0.1768 -1.5719
  141OSM   H12B15312   2.734   3.438   2.988  0.1471  1.3171  2.2724
  141OSM    C1115313   2.600   3.476   2.824 -0.1144  0.3978 -0.2000
  141OSM   H11A15314   2.558   3.566   2.773  1.8913  1.6983  0.3254
  141OSM   H11B15315   2.520   3.425   2.882  1.6998 -2.5571 -0.1131
  141OSM      P15316   2.578   3.252   2.680 -0.1614  0.0613  0.4526
  141OSM    O1315317   2.433   3.260   2.648  0.4092  0.2935 -0.0290
  141OSM    O1415318   2.663   3.174   2.583  0.3225 -0.4497 -0.0568
  141OSM    O1115319   2.582   3.196   2.832  0.3148  0.2576  0.5823
  141OSM    O1215320   2.648   3.395   2.711 -0.6125 -0.1291  0.2887
  141OSM    C1S15321   2.713   3.170   2.881 -0.5353 -0.3948  0.0138
  141OSM    H1S15322   2.786   3.254   2.886 -0.0313 -0.8665  0.8742
  141OSM    H1T15323   2.759   3.089   2.820 -4.2533 -1.3113 -1.8988
  141OSM     NF15324   2.840   3.119   3.088 -0.0810  0.5617  0.9081
  141OSM    HNF15325   2.884   3.033   3.113 -1.4924 -0.4229  0.1338
  141OSM    C2S15326   2.712   3.123   3.029  0.2596  1.2875 -0.1471
  141OSM    H2S15327   2.646   3.197   3.079 -0.9074  0.1061  0.1042
  141OSM    C3S15328   2.638   2.986   3.041 -0.0646  0.5746  0.2342
  141OSM    H3S15329   2.692   2.912   2.977 -0.0309 -0.6007  1.5723
  141OSM     O315330   2.511   2.987   2.970 -0.7487 -0.2269 -0.2949
  141OSM    HO315331   2.505   3.075   2.932  0.7331  1.2863  2.5692
  141OSM    C4S15332   2.635   2.915   3.168  0.3300 -0.1315 -0.5315
  141OSM    H4S15333   2.706   2.832   3.182 -0.9708 -0.8971  2.3769
  141OSM    C5S15334   2.548   2.943   3.271 -0.1923  0.1964  0.1978
  141OSM    H5S15335   2.490   3.036   3.263 -0.6176 -0.1433 -1.0659
  141OSM    C6S15336   2.539   2.860   3.402  0.1154 -0.6838  0.0422
  141OSM    H6S15337   2.596   2.766   3.390  3.0729  0.8365  1.1838
  141OSM    H6T15338   2.431   2.833   3.408  0.2229 -1.0762  0.2282
  141OSM    C7S15339   2.591   2.914   3.543 -0.0663  0.3512  0.5230
  141OSM    H7S15340   2.545   3.007   3.583  0.2145  0.3548  0.8343
  141OSM    H7T15341   2.699   2.935   3.528 -0.1971  0.2518 -0.6950
  141OSM    C8S15342   2.572   2.811   3.657  0.4240  0.6620  0.0660
  141OSM    H8S15343   2.624   2.718   3.624 -1.4402  0.0004 -1.1889
  141OSM    H8T15344   2.462   2.793   3.655  0.2906  1.5220 -0.8950
  141OSM    C9S15345   2.615   2.856   3.800  0.1850  0.3209  0.8028
  141OSM    H9S15346   2.587   2.963   3.804 -1.6290 -0.0868  0.2225
  141OSM    H9T15347   2.726   2.852   3.804  0.1730  0.6951  1.7614
  141OSM   C10S15348   2.546   2.764   3.909 -0.4047 -0.0408 -0.0023
  141OSM   H10S15349   2.555   2.659   3.874  3.5367  0.0730  0.1826
  141OSM   H10T15350   2.440   2.793   3.918 -0.1929  1.0354 -0.8407
  141OSM   C11S15351   2.618   2.781   4.049 -0.6471  0.2893  0.7499
  141OSM   H11S15352   2.619   2.888   4.077  0.8765  0.3576  0.4865
  141OSM   H11T15353   2.726   2.760   4.034  0.1893  2.5028  3.0229
  141OSM   C12S15354   2.566   2.690   4.156  0.3527  0.6086  0.4199
  141OSM   H12S15355   2.589   2.590   4.113  1.0328  0.4081  1.2462
  141OSM   H12T15356   2.460   2.711   4.184  0.1995  1.1543 -0.5272
  141OSM   C13S15357   2.658   2.687   4.278  0.1026 -0.0413 -0.2092
  141OSM   H13S15358   2.637   2.777   4.340 -0.2202 -0.2139 -0.0633
  141OSM   H13T15359   2.763   2.710   4.250  0.1169 -0.2071 -0.2898
  141OSM   C14S15360   2.650   2.556   4.358 -0.1175 -0.2626  0.2046
  141OSM   H14S15361   2.739   2.542   4.424 -0.0113 -0.7183 -0.0303
  141OSM   H14T15362   2.646   2.466   4.292  1.5673  0.0958 -0.4438
  141OSM   C15S15363   2.531   2.562   4.463 -0.4514  0.1671 -0.1063
  141OSM   H15S15364   2.443   2.534   4.400 -0.5704  0.2025  0.0423
  141OSM   H15T15365   2.520   2.668   4.494 -0.9186  0.8478 -2.4560
  141OSM   C16S15366   2.548   2.469   4.587  0.2817 -0.2529 -0.3114
  141OSM   H16S15367   2.656   2.473   4.613  0.3346  1.2169 -0.6841
  141OSM   H16T15368   2.508   2.371   4.556 -3.4191  1.4519 -1.4530
  141OSM   C17S15369   2.469   2.506   4.722  0.1414  0.7258 -0.0956
  141OSM   H17S15370   2.368   2.530   4.684  0.5110 -0.6756 -2.1653
  141OSM   H17T15371   2.518   2.591   4.775  2.5912 -0.7522  0.1421
  141OSM   C18S15372   2.469   2.395   4.826 -0.6850 -0.2718 -0.3593
  141OSM   H18S15373   2.573   2.388   4.865 -1.4479 -1.7440  1.5715
  141OSM   H18T15374   2.430   2.301   4.781  0.6103 -0.0948 -1.9782
  141OSM   H18U15375   2.409   2.413   4.917  0.6491 -1.3479  0.7957
  141OSM    C1F15376   2.912   3.225   3.099 -0.6483 -0.6266  0.2554
  141OSM     OF15377   2.865   3.335   3.097 -0.4978  0.0164 -0.3136
  141OSM    C2F15378   3.065   3.206   3.125  0.1810 -0.1394  0.6885
  141OSM    H2F15379   3.109   3.265   3.042 -2.4650 -0.7908 -1.3341
  141OSM    H2G15380   3.083   3.098   3.109 -2.2234 -0.3823 -1.0804
  141OSM    C3F15381   3.110   3.265   3.257  0.4107  0.3303 -0.5885
  141OSM    H3F15382   3.055   3.220   3.343 -2.1800 -0.2601 -2.4510
  141OSM    H3G15383   3.080   3.372   3.264 -0.0819  0.0806  3.7310
  141OSM    C4F15384   3.259   3.261   3.287 -1.0313 -0.3121 -0.3753
  141OSM    H4F15385   3.315   3.309   3.203  1.0453  0.7266  1.4904
  141OSM    H4G15386   3.293   3.156   3.276  1.1594  0.4921 -2.2038
  141OSM    C5F15387   3.298   3.328   3.415 -0.0137 -0.0953 -0.2254
  141OSM    H5F15388   3.231   3.293   3.497  1.6094 -1.1228  0.7290
  141OSM    H5G15389   3.296   3.439   3.417  0.8413 -0.0854  0.9089
  141OSM    C6F15390   3.436   3.278   3.460 -0.2944 -0.1229 -0.2810
  141OSM    H6F15391   3.509   3.290   3.377 -0.8697 -0.4345 -0.8442
  141OSM    H6G15392   3.433   3.170   3.486  1.0048 -0.0247  0.3714
  141OSM    C7F15393   3.507   3.358   3.573 -0.5581  0.0334 -0.4015
  141OSM    H7F15394   3.563   3.283   3.633 -0.4217 -0.3340 -0.9680
  141OSM    H7G15395   3.435   3.405   3.642  0.4621  0.6827  0.2479
  141OSM    C8F15396   3.600   3.466   3.513 -0.0214 -1.1470 -0.2062
  141OSM    H8F15397   3.535   3.527   3.447  1.8170  0.7715 -0.3628
  141OSM    H8G15398   3.666   3.421   3.435  0.6080 -1.3029  0.4054
  141OSM    C9F15399   3.673   3.552   3.620 -0.3067 -0.1255  0.4403
  141OSM    H9F15400   3.628   3.650   3.645  0.4939  0.3373  0.1279
  141OSM   C10F15401   3.779   3.520   3.684  0.0337  0.0797 -0.0100
  141OSM   H10F15402   3.819   3.597   3.752 -0.9918  2.1125 -1.6046
  141OSM   C11F15403   3.862   3.396   3.663  0.2732 -0.2233 -0.0333
  141OSM   H11F15404   3.965   3.434   3.646  0.0214  0.3533 -0.2967
  141OSM   H11G15405   3.834   3.355   3.564  0.5940  1.0538 -0.6689
  141OSM   C12F15406   3.856   3.295   3.776 -0.1182 -0.1898  0.3868
  141OSM   H12F15407   3.914   3.207   3.739  1.5674  1.5139 -1.2463
  141OSM   H12G15408   3.749   3.271   3.793 -0.5428  0.1033 -1.6152
  141OSM   C13F15409   3.918   3.348   3.902  0.1615 -0.1997 -0.5425
  141OSM   H13F15410   3.865   3.440   3.934  1.0028  0.7104 -1.6847
  141OSM   H13G15411   4.020   3.381   3.874  0.1494 -1.3421 -2.0634
  141OSM   C14F15412   3.921   3.244   4.013  0.0361  1.0274  0.1804
  141OSM   H14F15413   3.828   3.185   4.005  0.5838  0.0897  0.5819
  141OSM   H14G15414   3.921   3.299   4.109 -1.2194 -0.1633  0.8997
  141OSM   C15F15415   4.045   3.152   4.019  0.1755 -0.6512  0.3156
  141OSM   H15F15416   4.135   3.215   4.030 -1.1805  1.6881 -1.2361
  141OSM   H15G15417   4.060   3.100   3.922  0.4752 -0.9517  0.5229
  141OSM   C16F15418   4.047   3.049   4.135 -0.2351  0.6653  0.0206
  141OSM   H16F15419   3.973   2.970   4.110  1.7004 -1.4744  0.6239
  141OSM   H16G15420   4.007   3.094   4.228 -0.1975  0.5033  0.1179
  141OSM   C17F15421   4.185   2.986   4.148  0.6626 -0.4704  0.0572
  141OSM   H17F15422   4.248   3.075   4.169 -1.0121  0.9178 -0.5116
  141OSM   H17G15423   4.217   2.932   4.056  1.4821  0.4492 -0.2165
  141OSM   C18F15424   4.187   2.875   4.252  0.6719  0.0214 -0.3694
  141OSM   H18F15425   4.122   2.795   4.210 -0.7160  1.7195 -1.5771
  141OSM   H18G15426   4.153   2.914   4.350 -0.3572 -1.7834  0.0454
  141OSM   H18H15427   4.287   2.830   4.269  0.2838 -0.4202  0.8520
  142OSM      N15428   2.791   5.081   2.422  0.1122 -0.4378  0.2523
  142OSM    C1515429   2.851   5.083   2.558 -0.4841 -0.3639  0.1143
  142OSM   H15A15430   2.799   5.024   2.631 -2.2608  1.2756  0.2483
  142OSM   H15B15431   2.838   5.182   2.600  1.9409  0.8256 -1.6952
  142OSM   H15C15432   2.957   5.063   2.556 -0.7739 -2.0211 -0.1686
  142OSM    C1415433   2.842   4.962   2.345 -0.4070 -0.1762  0.3550
  142OSM   H14A15434   2.798   4.951   2.247  1.6659 -0.5168 -0.5688
  142OSM   H14B15435   2.820   4.872   2.401 -1.4461  1.9249  3.6294
  142OSM   H14C15436   2.947   4.963   2.322 -0.1114  0.9528  1.6022
  142OSM    C1315437   2.643   5.068   2.426  0.5038 -0.9122 -0.2360
  142OSM   H13A15438   2.597   5.068   2.329  0.8331  0.6836 -0.4143
  142OSM   H13B15439   2.598   5.156   2.469  1.6987 -0.7237  0.7008
  142OSM   H13C15440   2.610   4.980   2.480  1.4980  0.0458  2.0803
  142OSM    C1215441   2.830   5.204   2.344  0.1390 -0.3687  0.5819
  142OSM   H12A15442   2.817   5.194   2.237 -0.5012  0.5056  0.5647
  142OSM   H12B15443   2.935   5.213   2.369  1.1125  0.5280 -3.2157
  142OSM    C1115444   2.753   5.332   2.380  0.2005 -0.2593  0.1317
  142OSM   H11A15445   2.643   5.345   2.371  0.3079  2.9701  1.8649
  142OSM   H11B15446   2.784   5.400   2.298  1.1751 -1.5929 -0.6479
  142OSM      P15447   2.888   5.477   2.553  0.2489 -0.0851 -0.4352
  142OSM    O1315448   2.902   5.476   2.701 -0.1537  0.3599  0.4092
  142OSM    O1415449   3.012   5.454   2.476  0.1590 -0.3513  0.5174
  142OSM    O1115450   2.811   5.610   2.507 -0.0887 -0.3074 -0.1304
  142OSM    O1215451   2.783   5.363   2.511 -0.1525 -0.1210 -0.3089
  142OSM    C1S15452   2.679   5.638   2.545  0.7298  0.1559 -0.8519
  142OSM    H1S15453   2.635   5.571   2.622  1.4085 -0.9439 -1.3954
  142OSM    H1T15454   2.610   5.634   2.458  0.0909  2.0731 -0.4850
  142OSM     NF15455   2.543   5.796   2.698  0.0844  0.0873 -0.8879
  142OSM    HNF15456   2.456   5.827   2.659  0.1592 -0.3398 -1.4069
  142OSM    C2S15457   2.661   5.782   2.612 -0.7194  0.6234  0.9483
  142OSM    H2S15458   2.747   5.788   2.682 -1.2807  0.7620  1.6279
  142OSM    C3S15459   2.678   5.889   2.497 -0.6018 -0.9890 -0.7177
  142OSM    H3S15460   2.588   5.885   2.432 -1.4815 -0.8716  0.4645
  142OSM     O315461   2.787   5.862   2.407  0.2147  0.1228 -0.0868
  142OSM    HO315462   2.824   5.782   2.445 -1.2026 -1.0433 -1.0406
  142OSM    C4S15463   2.683   6.029   2.551  0.7296 -0.2477 -0.3622
  142OSM    H4S15464   2.772   6.048   2.613  0.5692 -1.0085  0.1049
  142OSM    C5S15465   2.585   6.122   2.527 -0.1887 -0.1642 -0.4283
  142OSM    H5S15466   2.495   6.093   2.470 -0.8841 -1.6437  1.3333
  142OSM    C6S15467   2.577   6.265   2.577 -0.0188 -0.1340 -0.5382
  142OSM    H6S15468   2.559   6.335   2.492  1.1652  1.3437  0.3877
  142OSM    H6T15469   2.679   6.291   2.611  0.3044  0.5014 -1.9162
  142OSM    C7S15470   2.475   6.270   2.691 -0.1654  0.0028 -0.0579
  142OSM    H7S15471   2.385   6.226   2.643  1.0859 -2.1659 -0.5634
  142OSM    H7T15472   2.449   6.373   2.721 -1.8100 -0.7505  1.3035
  142OSM    C8S15473   2.524   6.186   2.808 -0.2255 -0.2000  0.0918
  142OSM    H8S15474   2.633   6.202   2.824 -0.2659  1.2409 -0.8232
  142OSM    H8T15475   2.495   6.081   2.789  0.4151 -0.3010 -0.3518
  142OSM    C9S15476   2.452   6.220   2.936  0.1273 -1.2953 -0.7425
  142OSM    H9S15477   2.355   6.167   2.943  0.1219 -1.1786  0.2133
  142OSM    H9T15478   2.431   6.329   2.951 -3.5885 -1.9721  0.0835
  142OSM   C10S15479   2.539   6.165   3.053  0.1575  0.5290 -0.3926
  142OSM   H10S15480   2.630   6.227   3.067 -0.1495  0.8133  0.4448
  142OSM   H10T15481   2.582   6.067   3.021  1.4209  0.5444  1.1090
  142OSM   C11S15482   2.469   6.154   3.180  0.0412 -0.1898  0.3805
  142OSM   H11S15483   2.377   6.092   3.170 -0.6897  0.9865 -0.4603
  142OSM   H11T15484   2.440   6.253   3.220  1.2770 -0.0231  0.8868
  142OSM   C12S15485   2.548   6.088   3.294  0.2431 -0.5022 -0.6070
  142OSM   H12S15486   2.646   6.138   3.307 -1.5376  2.6905  1.9127
  142OSM   H12T15487   2.568   5.981   3.272 -0.1453 -0.5948 -0.5255
  142OSM   C13S15488   2.459   6.102   3.423 -0.0794  0.6037 -0.4627
  142OSM   H13S15489   2.358   6.058   3.413  0.8404 -2.0523  0.8846
  142OSM   H13T15490   2.451   6.211   3.446  1.2651  0.1427  2.8639
  142OSM   C14S15491   2.514   6.018   3.545 -0.3745  0.4006  0.3479
  142OSM   H14S15492   2.625   6.007   3.540 -0.1472  1.7512  1.6185
  142OSM   H14T15493   2.483   5.913   3.527 -0.7840  0.8575 -1.8860
  142OSM   C15S15494   2.457   6.080   3.676  0.1514 -0.3786 -0.3437
  142OSM   H15S15495   2.346   6.080   3.672  0.1387 -0.7547 -0.0202
  142OSM   H15T15496   2.478   6.189   3.675  1.4867 -0.5513 -3.4895
  142OSM   C16S15497   2.521   6.030   3.802 -0.4509 -0.0858  0.3132
  142OSM   H16S15498   2.488   6.093   3.887 -3.3106 -1.5306  0.3929
  142OSM   H16T15499   2.632   6.028   3.799 -0.4783 -0.9015 -0.6451
  142OSM   C17S15500   2.460   5.901   3.855 -0.2508  0.2493 -0.9024
  142OSM   H17S15501   2.464   5.824   3.775 -3.1311 -1.2657  0.2738
  142OSM   H17T15502   2.352   5.916   3.874 -0.4933 -2.3908  0.1968
  142OSM   C18S15503   2.525   5.865   3.993  0.7513  0.5365 -0.3868
  142OSM   H18S15504   2.481   5.767   4.020 -1.1489  1.3223 -0.4882
  142OSM   H18T15505   2.488   5.934   4.072  2.1777  0.2074  0.5980
  142OSM   H18U15506   2.636   5.861   3.996  0.7414 -3.6158 -0.6088
  142OSM    C1F15507   2.542   5.743   2.826  0.8665 -0.5473  0.2857
  142OSM     OF15508   2.636   5.675   2.860 -0.3702  0.5601 -0.1500
  142OSM    C2F15509   2.424   5.769   2.913  0.6391 -1.1601 -0.0347
  142OSM    H2F15510   2.344   5.700   2.880  0.2498 -0.4340 -0.6161
  142OSM    H2G15511   2.390   5.873   2.895  1.4335 -1.0921 -1.2523
  142OSM    C3F15512   2.451   5.734   3.061 -0.7448  0.1329  0.2705
  142OSM    H3F15513   2.536   5.799   3.089 -0.8780 -0.2562  1.6584
  142OSM    H3G15514   2.497   5.633   3.058  0.7619  0.8041 -0.2698
  142OSM    C4F15515   2.327   5.737   3.154 -0.3448 -0.0046 -0.2652
  142OSM    H4F15516   2.262   5.648   3.138 -0.0468 -0.3207  0.2416
  142OSM    H4G15517   2.283   5.836   3.131  0.1631  0.1702 -0.4818
  142OSM    C5F15518   2.366   5.730   3.302 -0.1365  0.2438  0.5319
  142OSM    H5F15519   2.271   5.739   3.359 -0.6342 -1.0083 -0.0674
  142OSM    H5G15520   2.429   5.817   3.331  1.7261 -0.8524 -0.0588
  142OSM    C6F15521   2.436   5.606   3.353 -0.3710  0.3487 -0.1270
  142OSM    H6F15522   2.519   5.576   3.285  0.9329  2.6735  0.3241
  142OSM    H6G15523   2.364   5.522   3.347 -1.1549  1.0878 -1.7303
  142OSM    C7F15524   2.494   5.624   3.495  0.0358  0.1410 -0.2504
  142OSM    H7F15525   2.428   5.682   3.563  0.3511 -0.6020  0.7226
  142OSM    H7G15526   2.584   5.688   3.481  0.3557 -0.2584 -0.0363
  142OSM    C8F15527   2.528   5.489   3.560  0.3178  0.0756 -0.1757
  142OSM    H8F15528   2.572   5.429   3.477  1.5487  2.0745 -1.0408
  142OSM    H8G15529   2.433   5.444   3.597 -0.1996  1.6952  0.5409
  142OSM    C9F15530   2.615   5.504   3.681 -0.2406  0.2221  0.0834
  142OSM    H9F15531   2.714   5.543   3.653  0.0478 -1.1549 -0.9390
  142OSM   C10F15532   2.586   5.485   3.816  0.2376 -0.1702  0.3205
  142OSM   H10F15533   2.662   5.487   3.895 -2.1146 -2.2983  2.8528
  142OSM   C11F15534   2.450   5.428   3.862 -1.1576  0.2411 -0.0946
  142OSM   H11F15535   2.431   5.330   3.814  0.0887 -1.1669  2.1070
  142OSM   H11G15536   2.365   5.490   3.828  1.5059  1.9095 -4.4952
  142OSM   C12F15537   2.436   5.392   4.009 -0.2585 -0.1122 -0.1409
  142OSM   H12F15538   2.331   5.364   4.031  0.1879 -0.9156  1.1209
  142OSM   H12G15539   2.459   5.477   4.077  1.2758 -1.0149  0.5405
  142OSM   C13F15540   2.531   5.278   4.055 -0.1609  0.6152 -0.2315
  142OSM   H13F15541   2.628   5.290   4.001 -0.7234  3.2016 -0.7687
  142OSM   H13G15542   2.501   5.176   4.022  0.9807  0.2837 -0.2874
  142OSM   C14F15543   2.543   5.290   4.204  0.1846  0.9193 -0.0597
  142OSM   H14F15544   2.446   5.287   4.258  0.1921  0.1717 -0.0731
  142OSM   H14G15545   2.597   5.385   4.226 -0.2237  1.1031  0.1633
  142OSM   C15F15546   2.638   5.181   4.263  0.7012 -0.3688 -0.5735
  142OSM   H15F15547   2.722   5.159   4.194  2.0237 -0.0833  0.8731
  142OSM   H15G15548   2.575   5.089   4.259 -0.4172  0.3475  0.0507
  142OSM   C16F15549   2.694   5.207   4.406 -0.2830 -0.6630 -0.3476
  142OSM   H16F15550   2.605   5.230   4.468 -0.9511 -1.5485 -0.9665
  142OSM   H16G15551   2.750   5.301   4.386 -0.9521 -0.7378 -3.0363
  142OSM   C17F15552   2.776   5.098   4.465 -0.4370  0.4330 -0.8527
  142OSM   H17F15553   2.863   5.072   4.401  0.0395  1.7884 -0.7791
  142OSM   H17G15554   2.717   5.004   4.470  0.4626 -0.0988  0.5617
  142OSM   C18F15555   2.833   5.123   4.610  0.1290  0.7325  0.4533
  142OSM   H18F15556   2.876   5.025   4.638 -4.2198 -1.3759  0.5662
  142OSM   H18G15557   2.747   5.155   4.673 -2.1125  0.0155 -2.0377
  142OSM   H18H15558   2.914   5.199   4.606  0.4310  0.4546  1.2593
  143OSM      N15559   1.809   4.376   2.361 -0.3320 -0.5356 -0.4744
  143OSM    C1515560   1.671   4.420   2.316  0.4314 -0.2527  0.7053
  143OSM   H15A15561   1.603   4.413   2.400 -1.4602 -0.2784 -0.7588
  143OSM   H15B15562   1.626   4.361   2.237 -1.8734  1.6577  0.4663
  143OSM   H15C15563   1.682   4.525   2.297  1.8430 -0.3188  1.1071
  143OSM    C1415564   1.796   4.229   2.387 -1.1526  1.1218 -0.1996
  143OSM   H14A15565   1.891   4.186   2.414 -1.9126  1.5963  4.0615
  143OSM   H14B15566   1.751   4.171   2.308  0.3403 -0.5524  0.1245
  143OSM   H14C15567   1.733   4.216   2.474  0.3395 -0.8515  0.6427
  143OSM    C1315568   1.900   4.397   2.247 -0.2532  0.2945 -0.7708
  143OSM   H13A15569   1.943   4.496   2.245 -0.1358  0.2356 -1.7870
  143OSM   H13B15570   1.860   4.379   2.149  0.9549  0.2829 -1.2834
  143OSM   H13C15571   1.985   4.330   2.247 -2.8848 -3.2970 -0.5272
  143OSM    C1215572   1.855   4.447   2.496 -0.0174  0.1213  1.3248
  143OSM   H12A15573   1.885   4.547   2.465 -0.6143  0.2186  1.0431
  143OSM   H12B15574   1.943   4.401   2.538 -0.9623 -0.6407  2.5035
  143OSM    C1115575   1.760   4.447   2.610  0.1162 -0.4149  0.2543
  143OSM   H11A15576   1.815   4.485   2.698 -0.2088 -1.5422  0.9704
  143OSM   H11B15577   1.741   4.341   2.638  1.5265 -0.4773  1.0512
  143OSM      P15578   1.653   4.679   2.623  0.3946 -0.1161  0.0775
  143OSM    O1315579   1.765   4.733   2.550 -0.5040  0.7567  0.0316
  143OSM    O1415580   1.522   4.741   2.591 -0.1732  0.0179  0.0418
  143OSM    O1115581   1.683   4.682   2.779 -0.2157 -0.7729 -0.0076
  143OSM    O1215582   1.645   4.526   2.594  0.1454  0.0269  0.1224
  143OSM    C1S15583   1.590   4.620   2.864  0.2004  0.0967  0.0846
  143OSM    H1S15584   1.613   4.511   2.861  1.5297  0.3149  1.3695
  143OSM    H1T15585   1.487   4.638   2.828  1.3076  1.7455 -2.5678
  143OSM     NF15586   1.542   4.577   3.105  0.4470  0.3413 -0.9478
  143OSM    HNF15587   1.454   4.616   3.131  0.4772 -0.4867  0.4811
  143OSM    C2S15588   1.612   4.666   3.011  0.3155 -0.4436 -1.0307
  143OSM    H2S15589   1.719   4.667   3.042 -0.0789 -1.4906  0.4563
  143OSM    C3S15590   1.566   4.818   3.005 -0.4000  0.3621 -1.1238
  143OSM    H3S15591   1.456   4.829   3.000 -0.4712  0.8926  0.7033
  143OSM     O315592   1.611   4.905   2.904  0.3981  0.5065 -0.5552
  143OSM    HO315593   1.638   4.847   2.833 -2.9150 -0.2596 -1.3496
  143OSM    C4S15594   1.588   4.876   3.151  0.0973  0.1624  0.8228
  143OSM    H4S15595   1.511   4.848   3.224 -0.4333  0.5292  0.4101
  143OSM    C5S15596   1.706   4.936   3.186 -0.4863 -0.3847 -0.3363
  143OSM    H5S15597   1.791   4.945   3.116  0.5194 -0.1604  0.8643
  143OSM    C6S15598   1.752   4.977   3.325 -0.7098 -0.0519 -0.6089
  143OSM    H6S15599   1.761   5.088   3.329  0.1159 -0.1360  0.2532
  143OSM    H6T15600   1.850   4.931   3.348 -1.0553  0.7948  3.0333
  143OSM    C7S15601   1.654   4.916   3.426  0.3984  0.2034  0.2648
  143OSM    H7S15602   1.629   4.808   3.424  0.2188  0.0584  3.8613
  143OSM    H7T15603   1.562   4.976   3.406  0.6867  1.0346  1.3284
  143OSM    C8S15604   1.696   4.950   3.567  0.2547 -0.7314 -0.8223
  143OSM    H8S15605   1.713   5.059   3.564 -1.9817 -0.2600  0.8379
  143OSM    H8T15606   1.795   4.910   3.596  0.8232  2.2118  1.7364
  143OSM    C9S15607   1.592   4.911   3.670 -0.1768  0.3465 -0.2258
  143OSM    H9S15608   1.560   4.810   3.638  0.1333  0.5585 -1.2525
  143OSM    H9T15609   1.506   4.981   3.659 -0.6212 -0.5040 -2.8963
  143OSM   C10S15610   1.661   4.913   3.811  0.2518 -1.1522  0.2642
  143OSM   H10S15611   1.678   5.019   3.839 -1.9446 -0.8300  0.6198
  143OSM   H10T15612   1.757   4.861   3.794  1.9520  1.4812  1.3072
  143OSM   C11S15613   1.587   4.839   3.918 -0.0625 -0.6556  0.4780
  143OSM   H11S15614   1.603   4.730   3.907  1.6329 -0.2480 -1.9442
  143OSM   H11T15615   1.480   4.869   3.910  0.7478  2.2203 -1.0215
  143OSM   C12S15616   1.632   4.895   4.056 -0.6573 -0.7707  0.0156
  143OSM   H12S15617   1.596   5.000   4.066  0.6419 -0.2224 -0.8650
  143OSM   H12T15618   1.741   4.906   4.074 -1.0521  0.7701  1.8414
  143OSM   C13S15619   1.573   4.815   4.165 -0.8157 -0.1248 -0.6671
  143OSM   H13S15620   1.482   4.764   4.126  0.0976 -0.4172 -2.5415
  143OSM   H13T15621   1.546   4.891   4.241 -1.3414  0.4846 -1.4429
  143OSM   C14S15622   1.679   4.714   4.214  0.5368  0.9161  0.7236
  143OSM   H14S15623   1.755   4.761   4.280  2.3275  0.9705 -1.2600
  143OSM   H14T15624   1.737   4.679   4.126  0.3609  0.8969  0.6140
  143OSM   C15S15625   1.614   4.597   4.287 -0.2332  0.1018 -0.7041
  143OSM   H15S15626   1.546   4.628   4.369 -0.7488 -5.5176  1.4208
  143OSM   H15T15627   1.690   4.540   4.346 -0.3227 -1.0358 -1.6670
  143OSM   C16S15628   1.553   4.494   4.195 -0.8272 -0.4881 -0.6703
  143OSM   H16S15629   1.619   4.480   4.107  0.8448  1.3061  0.2271
  143OSM   H16T15630   1.464   4.548   4.155  0.3309  2.4971  0.4584
  143OSM   C17S15631   1.522   4.356   4.249  0.9246 -0.0025 -0.8589
  143OSM   H17S15632   1.620   4.318   4.286  0.6981 -1.2002 -1.4338
  143OSM   H17T15633   1.486   4.289   4.168 -1.0403 -0.9768  0.7302
  143OSM   C18S15634   1.429   4.350   4.375 -0.7198  0.1569  0.4065
  143OSM   H18S15635   1.466   4.417   4.456  1.8367 -1.1449  0.4065
  143OSM   H18T15636   1.435   4.250   4.422  0.5429  0.0837  0.1138
  143OSM   H18U15637   1.325   4.381   4.350 -0.0180  1.8102 -0.6851
  143OSM    C1F15638   1.567   4.443   3.102 -1.3337 -0.2593 -0.1254
  143OSM     OF15639   1.671   4.404   3.048  0.2749  0.2361  0.1176
  143OSM    C2F15640   1.449   4.355   3.146  0.2413  0.3222  0.2228
  143OSM    H2F15641   1.437   4.274   3.071 -1.8715  0.0784  0.7644
  143OSM    H2G15642   1.360   4.421   3.145 -0.3238 -0.3625  1.8750
  143OSM    C3F15643   1.470   4.284   3.282 -0.0319  0.1696 -0.3133
  143OSM    H3F15644   1.577   4.275   3.310  0.0422 -0.4609 -0.7562
  143OSM    H3G15645   1.426   4.182   3.277 -2.0511  1.0386 -2.7015
  143OSM    C4F15646   1.396   4.361   3.391  0.3162 -0.1187  0.2988
  143OSM    H4F15647   1.407   4.294   3.479 -1.0251  1.0686  1.4233
  143OSM    H4G15648   1.291   4.361   3.353  1.0745 -0.4653 -2.0032
  143OSM    C5F15649   1.454   4.504   3.419 -0.7058 -0.4063 -0.9098
  143OSM    H5F15650   1.398   4.573   3.352 -0.9421  0.8375  0.5418
  143OSM    H5G15651   1.561   4.509   3.388 -0.2275 -0.6481  0.6514
  143OSM    C6F15652   1.425   4.554   3.563  0.3958 -1.0628  0.3684
  143OSM    H6F15653   1.454   4.661   3.556  0.2014 -1.0949 -1.7480
  143OSM    H6G15654   1.486   4.502   3.640  1.3189 -3.4007 -1.7984
  143OSM    C7F15655   1.285   4.538   3.604 -0.2960  0.3203  1.3043
  143OSM    H7F15656   1.259   4.431   3.601  0.3194  0.1776 -0.8032
  143OSM    H7G15657   1.226   4.587   3.524  1.9234 -2.5569 -2.3867
  143OSM    C8F15658   1.251   4.598   3.742 -0.3693  0.3062  0.1759
  143OSM    H8F15659   1.140   4.598   3.746 -0.4331  0.1856 -1.0175
  143OSM    H8G15660   1.289   4.701   3.757 -1.0951  0.3460  1.9625
  143OSM    C9F15661   1.311   4.514   3.850  1.0289 -0.8720 -0.7628
  143OSM    H9F15662   1.419   4.527   3.867  1.4606 -1.0383 -3.0537
  143OSM   C10F15663   1.251   4.410   3.916  0.2771  0.0334 -0.3882
  143OSM   H10F15664   1.313   4.343   3.977 -1.4101 -1.3818 -0.1627
  143OSM   C11F15665   1.106   4.369   3.895 -0.7011  0.4368 -0.5125
  143OSM   H11F15666   1.097   4.265   3.857 -2.7913  1.0923 -2.0081
  143OSM   H11G15667   1.059   4.430   3.816  0.0452 -3.1050 -4.0258
  143OSM   C12F15668   1.020   4.379   4.022  0.2036  1.0576 -0.5372
  143OSM   H12F15669   0.918   4.350   3.989 -0.0760  1.4604 -0.0526
  143OSM   H12G15670   1.016   4.487   4.051  2.6772  1.3228 -0.9822
  143OSM   C13F15671   1.063   4.285   4.134 -0.2734 -0.3867 -0.3087
  143OSM   H13F15672   1.140   4.338   4.194 -2.4980  1.6180  0.9438
  143OSM   H13G15673   1.108   4.191   4.096  1.4163  0.1263  0.3385
  143OSM   C14F15674   0.939   4.243   4.217  0.0977 -0.5414 -0.2730
  143OSM   H14F15675   0.879   4.175   4.152 -1.1775  1.2479 -1.0500
  143OSM   H14G15676   0.878   4.334   4.233  0.6728  0.0883 -1.5222
  143OSM   C15F15677   0.964   4.182   4.353 -0.0283 -0.2065 -0.6885
  143OSM   H15F15678   1.034   4.096   4.345 -0.1510 -0.4296  0.3674
  143OSM   H15G15679   0.867   4.143   4.391  0.0778 -0.8373 -1.0534
  143OSM   C16F15680   1.027   4.278   4.460 -0.4829 -0.0758 -0.3803
  143OSM   H16F15681   1.126   4.310   4.420 -0.9282 -0.0199 -1.4577
  143OSM   H16G15682   1.037   4.227   4.558  0.4759  0.5711 -0.1267
  143OSM   C17F15683   0.935   4.397   4.490 -0.3582  0.0886  0.1107
  143OSM   H17F15684   0.838   4.359   4.530 -0.2851  0.8288  1.0015
  143OSM   H17G15685   0.913   4.447   4.393 -0.2663  1.8543  0.9580
  143OSM   C18F15686   0.993   4.500   4.594  0.1652  0.2567 -0.1123
  143OSM   H18F15687   0.910   4.567   4.624 -2.5726 -1.4076 -3.2886
  143OSM   H18G15688   1.079   4.557   4.551  0.5401 -0.1359  0.1078
  143OSM   H18H15689   1.036   4.440   4.677  1.1042 -0.6049 -1.1909
  144OSM      N15690   1.326   5.429   2.089 -0.2544 -0.2529  0.3122
  144OSM    C1515691   1.428   5.364   2.012 -1.3603 -0.1134 -0.1102
  144OSM   H15A15692   1.524   5.404   2.039 -1.0268  0.2483 -1.7089
  144OSM   H15B15693   1.412   5.386   1.907  2.1203  2.0557 -0.3515
  144OSM   H15C15694   1.427   5.258   2.031  0.3145 -0.6901 -2.7928
  144OSM    C1415695   1.329   5.575   2.061  0.5035 -0.1686  0.5479
  144OSM   H14A15696   1.291   5.602   1.964 -1.6440  0.6226  1.5704
  144OSM   H14B15697   1.429   5.614   2.075  1.1255 -1.7618  0.7314
  144OSM   H14C15698   1.274   5.626   2.137 -0.0361 -1.5178  1.0961
  144OSM    C1315699   1.197   5.375   2.046  0.1227  0.3532  0.3328
  144OSM   H13A15700   1.195   5.385   1.939  0.9386 -0.3003  0.2451
  144OSM   H13B15701   1.111   5.425   2.086 -0.5851 -0.2586 -0.4020
  144OSM   H13C15702   1.191   5.268   2.061 -5.2743  0.1975 -0.9206
  144OSM    C1215703   1.337   5.399   2.234  0.5597 -0.2686  0.0636
  144OSM   H12A15704   1.268   5.454   2.297  0.1669 -0.5009 -0.1600
  144OSM   H12B15705   1.439   5.420   2.263  0.9513 -1.4151 -0.4367
  144OSM    C1115706   1.308   5.249   2.275  0.2241 -0.4601 -0.4495
  144OSM   H11A15707   1.203   5.231   2.245  0.5431 -1.2909 -1.1145
  144OSM   H11B15708   1.306   5.244   2.386  1.6203 -1.7281 -0.4480
  144OSM      P15709   1.537   5.126   2.283  0.2862  0.1706  0.2420
  144OSM    O1315710   1.554   4.977   2.254 -0.3492 -0.0645 -0.3551
  144OSM    O1415711   1.636   5.222   2.236 -0.0493  0.5073 -0.5954
  144OSM    O1115712   1.500   5.149   2.435 -0.2777 -0.1575 -0.8498
  144OSM    O1215713   1.401   5.159   2.214 -0.2475 -0.0240  0.0364
  144OSM    C1S15714   1.576   5.087   2.533  0.7218 -0.0115  0.2154
  144OSM    H1S15715   1.674   5.043   2.504 -0.3446 -2.3973  0.0873
  144OSM    H1T15716   1.518   5.003   2.575  0.5768 -0.7692 -1.4188
  144OSM     NF15717   1.708   5.140   2.732 -0.1210  0.4931 -0.1113
  144OSM    HNF15718   1.681   5.079   2.806  3.6398 -1.3886 -0.0552
  144OSM    C2S15719   1.593   5.180   2.652 -0.7316 -0.8874 -0.4111
  144OSM    H2S15720   1.611   5.283   2.615  1.8711 -1.2302 -0.3329
  144OSM    C3S15721   1.454   5.183   2.729 -0.6104  0.2438  0.9871
  144OSM    H3S15722   1.436   5.084   2.775 -0.7256  0.8501  2.2681
  144OSM     O315723   1.342   5.207   2.648 -0.1733 -0.4709 -0.7874
  144OSM    HO315724   1.380   5.233   2.564  1.7155  1.8671  0.6777
  144OSM    C4S15725   1.455   5.269   2.852  0.1101  0.1160  0.0373
  144OSM    H4S15726   1.483   5.374   2.835  0.9251 -0.1323 -0.1933
  144OSM    C5S15727   1.417   5.230   2.978  0.2396 -0.4906 -0.1823
  144OSM    H5S15728   1.392   5.125   2.996 -2.3869 -0.0979 -1.0035
  144OSM    C6S15729   1.411   5.309   3.105  0.0204  0.1083  0.9068
  144OSM    H6S15730   1.312   5.288   3.150 -0.2542  0.7303  0.5970
  144OSM    H6T15731   1.413   5.414   3.070 -0.3671  0.1052  0.8738
  144OSM    C7S15732   1.518   5.272   3.209 -0.9976 -0.2284 -0.5049
  144OSM    H7S15733   1.612   5.315   3.167 -0.8631 -0.0901 -0.0684
  144OSM    H7T15734   1.548   5.165   3.222  2.0510  0.2664 -2.2782
  144OSM    C8S15735   1.492   5.347   3.345 -0.2349 -0.1137 -0.6562
  144OSM    H8S15736   1.409   5.299   3.402  1.2655 -2.1292 -0.0351
  144OSM    H8T15737   1.463   5.452   3.322 -1.5061 -0.5043 -0.9606
  144OSM    C9S15738   1.619   5.352   3.433  0.2599  0.1955 -0.1709
  144OSM    H9S15739   1.691   5.419   3.381  0.6396  1.4699  1.9023
  144OSM    H9T15740   1.671   5.255   3.439 -0.6798 -0.2991  0.1489
  144OSM   C10S15741   1.591   5.409   3.572 -0.4657  0.7958  0.3023
  144OSM   H10S15742   1.525   5.339   3.628  0.1361 -0.8930 -0.9786
  144OSM   H10T15743   1.547   5.511   3.572 -0.9854  0.5767  0.7860
  144OSM   C11S15744   1.719   5.428   3.661  0.3405  0.1113 -0.4403
  144OSM   H11S15745   1.767   5.525   3.638 -1.6593  2.3045  3.5493
  144OSM   H11T15746   1.792   5.350   3.633  0.1821  0.1049 -0.8478
  144OSM   C12S15747   1.685   5.422   3.810  0.7874 -0.7036  0.4288
  144OSM   H12S15748   1.646   5.322   3.836  0.1349 -0.6009 -0.1194
  144OSM   H12T15749   1.609   5.500   3.833  0.5992 -0.5332 -0.7079
  144OSM   C13S15750   1.813   5.449   3.891 -0.2309  0.2693  0.2690
  144OSM   H13S15751   1.858   5.546   3.862 -1.3436  0.8348  0.3832
  144OSM   H13T15752   1.874   5.360   3.864  0.7001  0.5331  1.4197
  144OSM   C14S15753   1.795   5.460   4.047 -0.2841 -0.1866  0.3950
  144OSM   H14S15754   1.749   5.363   4.075  0.7693 -0.0636  2.7369
  144OSM   H14T15755   1.707   5.525   4.065 -1.8130 -2.2535  0.7478
  144OSM   C15S15756   1.922   5.497   4.123 -0.4992  0.2184 -0.7817
  144OSM   H15S15757   1.956   5.596   4.086 -1.7646  1.5125  1.3549
  144OSM   H15T15758   2.008   5.428   4.107  0.0426  0.5285  0.6506
  144OSM   C16S15759   1.902   5.506   4.281 -1.1588 -0.3188  0.1235
  144OSM   H16S15760   1.868   5.407   4.318  0.6742 -0.8619  0.4721
  144OSM   H16T15761   1.817   5.573   4.304 -1.0727  0.0442 -0.5953
  144OSM   C17S15762   2.025   5.564   4.353 -0.7783 -0.2010 -0.4294
  144OSM   H17S15763   2.029   5.674   4.334 -1.6367  0.2519  1.6240
  144OSM   H17T15764   2.115   5.508   4.321 -0.4729 -1.9340  2.9843
  144OSM   C18S15765   2.004   5.560   4.506  0.7764  0.0807  0.9013
  144OSM   H18S15766   2.000   5.458   4.550  0.9581 -0.5883 -0.5815
  144OSM   H18T15767   1.902   5.603   4.518  0.7141  0.8137 -1.7097
  144OSM   H18U15768   2.079   5.628   4.553 -0.4286  2.4530 -0.4299
  144OSM    C1F15769   1.835   5.141   2.692 -0.0634 -0.0791  0.1377
  144OSM     OF15770   1.876   5.220   2.608 -0.4662  0.0674 -0.0150
  144OSM    C2F15771   1.922   5.035   2.736 -0.2658  0.0307 -0.0894
  144OSM    H2F15772   2.017   5.032   2.679 -1.0371 -0.6963 -1.3772
  144OSM    H2G15773   1.882   4.935   2.710  1.3013 -0.4803 -0.6548
  144OSM    C3F15774   1.954   5.047   2.886 -0.1749  0.2271 -0.1189
  144OSM    H3F15775   1.860   5.073   2.939 -0.1914  2.0723 -0.9675
  144OSM    H3G15776   2.020   5.136   2.891 -2.0174  1.7799 -1.7541
  144OSM    C4F15777   2.037   4.938   2.957  0.0737  0.3780  0.1247
  144OSM    H4F15778   2.110   4.914   2.877  0.3490  2.3046 -0.2524
  144OSM    H4G15779   1.978   4.846   2.975  2.7982 -1.5142 -0.0712
  144OSM    C5F15780   2.112   4.990   3.077 -0.2890  0.5802 -0.6589
  144OSM    H5F15781   2.047   4.986   3.168  1.2723  1.3316  0.5476
  144OSM    H5G15782   2.141   5.094   3.053  0.2614  0.9916  1.5430
  144OSM    C6F15783   2.248   4.921   3.103  0.1379 -0.3540 -0.2529
  144OSM    H6F15784   2.313   4.928   3.013 -2.9182 -0.5343 -2.6616
  144OSM    H6G15785   2.212   4.817   3.120 -1.1989 -0.0815 -1.2462
  144OSM    C7F15786   2.310   4.960   3.236  0.1239  0.2272  0.0041
  144OSM    H7F15787   2.230   4.999   3.302  0.1510 -0.3687  0.3965
  144OSM    H7G15788   2.379   5.041   3.204  1.4160 -0.2221  1.5169
  144OSM    C8F15789   2.388   4.852   3.315 -1.1038 -0.2783  0.2844
  144OSM    H8F15790   2.451   4.792   3.246  1.0099  2.4107 -0.2652
  144OSM    H8G15791   2.315   4.778   3.355 -0.0448 -0.0005  2.8592
  144OSM    C9F15792   2.481   4.914   3.414 -0.1304 -0.7683 -0.0320
  144OSM    H9F15793   2.561   4.977   3.373  1.4256 -1.9225  1.1367
  144OSM   C10F15794   2.461   4.901   3.549 -0.1192 -0.4002  0.2424
  144OSM   H10F15795   2.540   4.948   3.608  0.6320  0.4370 -1.3667
  144OSM   C11F15796   2.359   4.818   3.621  0.3552  0.2672  0.0028
  144OSM   H11F15797   2.264   4.806   3.564  0.4572  0.5332 -0.2273
  144OSM   H11G15798   2.326   4.877   3.708  1.4008  0.8650  0.0062
  144OSM   C12F15799   2.405   4.682   3.655  1.0425  0.4570  0.4069
  144OSM   H12F15800   2.449   4.635   3.564 -1.1896  0.7140 -0.8823
  144OSM   H12G15801   2.318   4.625   3.694  1.8913 -1.4414 -0.3040
  144OSM   C13F15802   2.514   4.659   3.755 -0.4814  0.3602  0.0713
  144OSM   H13F15803   2.595   4.733   3.737  1.5449 -1.4839  1.1197
  144OSM   H13G15804   2.552   4.555   3.750 -0.9038  0.2540 -1.0730
  144OSM   C14F15805   2.482   4.693   3.906 -0.4138 -0.2132  0.4277
  144OSM   H14F15806   2.383   4.646   3.924  0.1276 -1.0427  1.3404
  144OSM   H14G15807   2.476   4.804   3.916 -0.8519 -0.0836 -0.9759
  144OSM   C15F15808   2.581   4.628   4.000  0.1531  0.2039  0.0841
  144OSM   H15F15809   2.595   4.519   3.981 -3.7905 -0.4325  0.0556
  144OSM   H15G15810   2.545   4.607   4.103  2.6091 -3.4607  0.3793
  144OSM   C16F15811   2.710   4.704   4.011 -0.0342 -0.9543  0.0011
  144OSM   H16F15812   2.685   4.811   4.028 -0.9991 -1.1428 -0.1416
  144OSM   H16G15813   2.769   4.699   3.917 -0.2048 -1.5237 -0.0821
  144OSM   C17F15814   2.795   4.652   4.125  0.6150  0.2027 -0.1594
  144OSM   H17F15815   2.820   4.545   4.109  1.9070  0.3591  0.6896
  144OSM   H17G15816   2.734   4.678   4.214 -0.3914  0.2753 -0.8540
  144OSM   C18F15817   2.927   4.729   4.120  0.3485 -0.1082 -0.0302
  144OSM   H18F15818   2.979   4.713   4.023  1.5710 -2.1945  0.9103
  144OSM   H18G15819   2.986   4.690   4.205 -1.5678  0.8297  1.8387
  144OSM   H18H15820   2.910   4.837   4.143  0.4724 -0.2375  0.6900
  145SAPE     N15821   6.318   5.561   7.470 -0.1702 -0.2907  0.0766
  145SAPE   HN115822   6.402   5.597   7.420  0.2955 -3.2359 -1.4431
  145SAPE   HN215823   6.356   5.518   7.557  1.2979  0.1835 -0.2972
  145SAPE   HN315824   6.281   5.497   7.398  1.7959 -0.5483 -0.7751
  145SAPE   C1215825   6.210   5.660   7.519  0.2762 -0.0868 -0.0273
  145SAPE  H12A15826   6.253   5.726   7.596  4.3652 -0.8974 -1.3732
  145SAPE  H12B15827   6.129   5.599   7.565 -0.4801  1.0325  0.1748
  145SAPE   C1115828   6.140   5.744   7.407 -0.3640 -0.6448 -0.2023
  145SAPE  H11A15829   6.204   5.833   7.387  0.3553 -0.6538  1.8059
  145SAPE  H11B15830   6.044   5.774   7.453  0.0220 -0.3274  0.4117
  145SAPE     P15831   6.102   5.730   7.145  0.0681 -0.1145 -0.0569
  145SAPE   O1315832   6.079   5.876   7.154  0.3650 -0.2200  0.1989
  145SAPE   O1415833   6.216   5.688   7.064  0.4487 -0.3545 -0.4129
  145SAPE   O1215834   6.120   5.665   7.291 -0.0164  0.3430 -0.3616
  145SAPE   O1115835   5.971   5.662   7.109  0.0767  0.0136  0.6972
  145SAPE    C115836   5.866   5.714   7.032 -0.3996 -0.1940 -0.2540
  145SAPE    HA15837   5.769   5.683   7.077 -0.0108 -1.1531 -0.0601
  145SAPE    HB15838   5.865   5.825   7.030  2.1710 -0.1283 -2.4665
  145SAPE    C215839   5.872   5.666   6.889 -0.1235  0.3721  0.6310
  145SAPE    HS15840   5.872   5.555   6.894 -1.2302  0.3308 -0.0014
  145SAPE   O2115841   5.984   5.722   6.833 -0.1738 -0.3129  0.2474
  145SAPE   C2115842   6.081   5.643   6.787 -0.0684  0.1670  0.0097
  145SAPE   O2215843   6.084   5.522   6.793 -0.4935 -0.1148  0.0456
  145SAPE   C2215844   6.196   5.733   6.732  0.0323 -0.0255 -0.3776
  145SAPE   H2R15845   6.231   5.798   6.815 -0.4382  0.6464 -0.6990
  145SAPE   H2S15846   6.284   5.669   6.709  1.6255  1.7469  0.4404
  145SAPE    C315847   5.747   5.713   6.809  0.3693 -0.0745 -0.1214
  145SAPE    HX15848   5.763   5.821   6.787  0.8681 -0.2662 -0.7079
  145SAPE    HY15849   5.657   5.694   6.872  1.1166  1.3733  1.4526
  145SAPE   O3115850   5.753   5.657   6.681 -0.0973  0.1390  0.2727
  145SAPE   C3115851   5.730   5.533   6.661  0.6727 -0.0339 -0.4533
  145SAPE   O3215852   5.681   5.452   6.738  0.0186 -0.1743  0.0999
  145SAPE   C3215853   5.763   5.513   6.516  0.5072  0.6264 -0.3955
  145SAPE   H2X15854   5.777   5.612   6.469 -0.1368  0.4533 -0.9797
  145SAPE   H2Y15855   5.678   5.454   6.474  0.9534 -0.1176 -0.2640
  145SAPE   C2315856   6.149   5.818   6.617 -0.0394 -0.5211 -0.6453
  145SAPE   H3R15857   6.231   5.884   6.582 -0.5649 -0.7454 -2.3892
  145SAPE   H3S15858   6.059   5.874   6.650  1.2894 -0.8576  4.2763
  145SAPE   C2415859   6.107   5.732   6.499  0.0285  0.3057 -0.3775
  145SAPE   H4R15860   6.019   5.670   6.526 -0.2294  0.7154 -0.2678
  145SAPE   H4S15861   6.193   5.670   6.467  0.3753  0.2403  0.6386
  145SAPE   C2515862   6.065   5.818   6.377  0.3125  0.1969 -0.0282
  145SAPE   H5R15863   5.998   5.900   6.408  0.5477  0.1193  0.7147
  145SAPE   C2615864   6.086   5.793   6.242  0.1062  0.7557 -0.5070
  145SAPE   H6R15865   6.041   5.859   6.167  0.4974  0.9676 -0.5602
  145SAPE   C2715866   6.159   5.670   6.188 -0.5868 -0.2292  0.2006
  145SAPE   H7R15867   6.091   5.619   6.116  0.3645 -1.5363  0.2000
  145SAPE   H7S15868   6.157   5.592   6.266 -0.6304 -0.6080 -0.1769
  145SAPE   C2815869   6.300   5.679   6.129  0.1042 -0.5405 -0.4270
  145SAPE   H8R15870   6.382   5.702   6.198  0.4837  0.0948 -1.0746
  145SAPE   C2915871   6.329   5.655   6.002 -0.1132  0.4518  0.1546
  145SAPE   H9R15872   6.435   5.674   5.978  0.4505  2.4972  3.5182
  145SAPE  C21015873   6.228   5.614   5.899  0.5112 -0.5015  0.1940
  145SAPE  H10R15874   6.150   5.692   5.905  1.1676  0.1220  0.8854
  145SAPE  H10S15875   6.175   5.527   5.943  0.5809 -0.6029  0.0787
  145SAPE  C21115876   6.252   5.588   5.750  0.4906  0.1799 -0.1536
  145SAPE  H11R15877   6.345   5.639   5.720 -0.2214  3.0288  2.0260
  145SAPE  C21215878   6.167   5.532   5.659 -0.3818 -0.0803  0.7442
  145SAPE  H12R15879   6.199   5.528   5.554  1.2474 -1.8883  1.2463
  145SAPE  C21315880   6.026   5.491   5.688 -0.5920 -0.6630  0.2079
  145SAPE  H13R15881   5.970   5.580   5.653  0.7906  0.4879  0.8334
  145SAPE  H13S15882   5.994   5.493   5.794 -0.6618 -1.1913  0.2007
  145SAPE  C21415883   5.981   5.356   5.624  0.0879  0.5235  0.2743
  145SAPE  H14R15884   6.021   5.271   5.681 -1.3737 -0.2844  0.1428
  145SAPE  C21515885   5.933   5.344   5.498  0.1686 -0.1952 -0.5964
  145SAPE  H15R15886   5.899   5.245   5.466  1.3223 -0.7819 -0.0602
  145SAPE  C21615887   5.904   5.469   5.409  0.2189 -0.0065 -0.5085
  145SAPE  H16R15888   5.918   5.444   5.302 -1.9486 -2.7341 -0.2751
  145SAPE  H16S15889   5.974   5.553   5.428  0.4245  0.0973 -1.6727
  145SAPE  C21715890   5.772   5.541   5.438  0.0039 -0.1281 -0.3609
  145SAPE  H17R15891   5.760   5.561   5.547 -0.4573 -2.3528  0.0563
  145SAPE  H17S15892   5.691   5.466   5.424  1.0430 -2.0246  2.8018
  145SAPE  C21815893   5.751   5.672   5.367 -0.2231 -0.2063  0.5593
  145SAPE  H18R15894   5.823   5.751   5.400  2.3340 -2.5299  0.8830
  145SAPE  H18S15895   5.648   5.708   5.388  0.2545  1.8426 -0.2775
  145SAPE  C21915896   5.750   5.664   5.214 -0.1247 -0.0358  0.5238
  145SAPE  H19R15897   5.839   5.606   5.180 -0.7838 -0.5861 -0.3154
  145SAPE  H19S15898   5.758   5.771   5.186  1.1337 -0.2615 -0.0650
  145SAPE  C22015899   5.618   5.591   5.159  0.1096 -0.6577 -0.5523
  145SAPE  H20R15900   5.599   5.503   5.223 -1.3332 -0.4093 -0.6028
  145SAPE  H20S15901   5.635   5.545   5.059  0.8409 -2.5026  0.3704
  145SAPE  H20T15902   5.522   5.646   5.153 -0.5163 -1.8522 -2.0317
  145SAPE   C3315903   5.881   5.412   6.500  0.0811  0.0353 -0.7161
  145SAPE   H3X15904   5.858   5.320   6.557  0.4115  2.3068  3.4491
  145SAPE   H3Y15905   5.977   5.452   6.537 -1.2059  1.3639  1.3897
  145SAPE   C3415906   5.899   5.361   6.354  0.1997 -0.4918 -0.4044
  145SAPE   H4X15907   5.941   5.440   6.288  0.0553 -0.1432 -0.0893
  145SAPE   H4Y15908   5.797   5.336   6.317 -1.2967  0.6727  2.5780
  145SAPE   C3515909   5.998   5.249   6.337  0.2834  0.0797 -0.6936
  145SAPE   H5X15910   5.964   5.172   6.409 -1.5200  3.0451  1.8664
  145SAPE   H5Y15911   6.096   5.286   6.374  1.0244 -0.3812 -2.1026
  145SAPE   C3615912   6.032   5.200   6.196  0.3457  0.5677  0.4343
  145SAPE   H6X15913   5.941   5.185   6.133  0.4082 -0.4461  0.5674
  145SAPE   H6Y15914   6.075   5.098   6.194 -0.7741 -0.0491 -3.8067
  145SAPE   C3715915   6.119   5.286   6.111  0.1944  0.6510 -0.4275
  145SAPE   H7X15916   6.217   5.306   6.160  1.6965  0.0286 -3.0185
  145SAPE   H7Y15917   6.063   5.382   6.112  0.9619  1.1420 -1.8543
  145SAPE   C3815918   6.144   5.237   5.969 -0.0730  0.0938  0.5475
  145SAPE   H8X15919   6.197   5.323   5.921 -1.6999  0.0721 -1.3824
  145SAPE   H8Y15920   6.046   5.242   5.918  0.9610 -1.4779 -1.7412
  145SAPE   C3915921   6.222   5.105   5.973  0.5324  0.0859 -0.0579
  145SAPE   H9X15922   6.161   5.014   5.989 -0.8145  0.6088 -1.8508
  145SAPE   H9Y15923   6.284   5.121   6.064  0.8861 -1.1110 -0.0642
  145SAPE  C31015924   6.326   5.086   5.855 -0.6064 -0.4024 -0.3557
  145SAPE  H10X15925   6.392   4.997   5.865 -0.1017 -0.0013 -0.0840
  145SAPE  H10Y15926   6.387   5.179   5.861 -1.4473  0.3523 -2.4899
  145SAPE  C31115927   6.279   5.095   5.708 -0.3242 -0.3496  0.8488
  145SAPE  H11X15928   6.228   5.193   5.702  0.1489 -0.1671 -0.4737
  145SAPE  H11Y15929   6.212   5.013   5.674 -2.2779  0.8230  1.6764
  145SAPE  C31215930   6.406   5.119   5.611 -0.5057  0.3212  0.2407
  145SAPE  H12X15931   6.470   5.029   5.604 -0.0399  0.5754  1.1103
  145SAPE  H12Y15932   6.476   5.193   5.655  0.3512  0.7309 -1.6847
  145SAPE  C31315933   6.373   5.189   5.478  0.1116  1.4143 -0.0675
  145SAPE  H13X15934   6.462   5.211   5.416  1.0523 -0.0016  0.7421
  145SAPE  H13Y15935   6.330   5.292   5.480 -1.7710  0.6974 -0.5798
  145SAPE  C31415936   6.276   5.099   5.398  0.4948  0.6942  0.1180
  145SAPE  H14X15937   6.172   5.112   5.433  0.1815 -2.8456  0.8348
  145SAPE  H14Y15938   6.290   4.989   5.406 -0.9058  0.6117  1.9400
  145SAPE  C31515939   6.276   5.136   5.246 -0.3337  0.1390  0.1295
  145SAPE  H15X15940   6.225   5.053   5.194  1.9523 -1.6789  0.6418
  145SAPE  H15Y15941   6.383   5.142   5.217  0.0734 -2.7364  0.7203
  145SAPE  C31615942   6.214   5.269   5.226 -0.1374  0.3417 -0.9316
  145SAPE  H16X15943   6.280   5.347   5.271 -0.1736 -0.4184  0.5184
  145SAPE  H16Y15944   6.112   5.284   5.269 -0.8054  1.0819 -2.6590
  145SAPE  C31715945   6.197   5.309   5.080  0.5375 -1.0019 -0.8212
  145SAPE  H17X15946   6.129   5.244   5.020 -0.0596 -1.2317  0.0953
  145SAPE  H17Y15947   6.297   5.315   5.031  0.1898  1.9372 -1.3794
  145SAPE  C31815948   6.132   5.451   5.063 -0.0494 -0.5528  0.1076
  145SAPE  H18X15949   6.094   5.469   4.960 -1.3462 -1.8181  0.3273
  145SAPE  H18Y15950   6.205   5.528   5.095  0.6915 -0.7156 -1.1052
  145SAPE  H18Z15951   6.046   5.455   5.132  1.3919  0.5467  1.9070
  146SAPE     N15952   1.507   3.727   7.266  0.2586  0.1116 -0.4106
  146SAPE   HN115953   1.610   3.718   7.264  0.2027 -0.9103  0.4204
  146SAPE   HN215954   1.470   3.810   7.216 -0.2674 -0.0852 -0.3565
  146SAPE   HN315955   1.471   3.734   7.364 -0.5891  0.6680 -0.7465
  146SAPE   C1215956   1.439   3.596   7.236  0.1878  0.2525  0.1510
  146SAPE  H12A15957   1.330   3.614   7.238  0.1941  1.1345 -3.0114
  146SAPE  H12B15958   1.472   3.535   7.323  2.2228  1.6417  0.4375
  146SAPE   C1115959   1.476   3.541   7.096 -0.2949  0.4336  0.3040
  146SAPE  H11A15960   1.481   3.626   7.023  0.7291  1.7679  1.8553
  146SAPE  H11B15961   1.394   3.479   7.054  0.0476  0.8410 -1.0273
  146SAPE     P15962   1.735   3.544   7.111  0.2125  0.0098 -0.0462
  146SAPE   O1315963   1.747   3.627   7.233 -0.0928  0.5833  0.3415
  146SAPE   O1415964   1.841   3.445   7.093 -0.2687  0.2164  0.0634
  146SAPE   O1215965   1.595   3.462   7.119 -0.3420  0.0469  0.0706
  146SAPE   O1115966   1.716   3.636   6.981 -0.1092  0.7551  0.2025
  146SAPE    C115967   1.732   3.577   6.850  0.0854  0.0799  0.4206
  146SAPE    HA15968   1.825   3.517   6.843 -1.1814 -2.5690  3.6068
  146SAPE    HB15969   1.646   3.511   6.830 -0.1389  1.2010 -2.7743
  146SAPE    C215970   1.736   3.695   6.754 -0.1108  0.2545 -0.8118
  146SAPE    HS15971   1.761   3.651   6.655  1.4079  0.1684 -0.4163
  146SAPE   O2115972   1.838   3.791   6.788 -0.2643  0.6322 -0.3829
  146SAPE   C2115973   1.961   3.751   6.761  0.0726  0.0658  0.1825
  146SAPE   O2215974   1.988   3.656   6.691 -0.4380  0.0062  0.2469
  146SAPE   C2215975   2.057   3.865   6.801  0.3700  0.4978  0.0192
  146SAPE   H2R15976   2.006   3.936   6.869 -1.8576  0.2463 -1.2912
  146SAPE   H2S15977   2.136   3.823   6.867  0.8171  1.1285 -0.1036
  146SAPE    C315978   1.597   3.766   6.748 -0.3118 -0.3031 -0.6544
  146SAPE    HX15979   1.564   3.792   6.850 -1.1364 -0.9935 -0.7328
  146SAPE    HY15980   1.524   3.687   6.720  0.6372 -0.4368 -3.0064
  146SAPE   O3115981   1.581   3.876   6.659 -0.6279 -0.1326  0.4435
  146SAPE   C3115982   1.585   3.999   6.695  0.1342  0.4765  0.1405
  146SAPE   O3215983   1.585   4.041   6.807  0.0978 -0.3480 -0.1196
  146SAPE   C3215984   1.578   4.078   6.572  0.4394  0.7004  0.5385
  146SAPE   H2X15985   1.634   4.030   6.489  0.5486  1.0591  0.3998
  146SAPE   H2Y15986   1.622   4.179   6.591  1.9128 -0.5470  5.3161
  146SAPE   C2315987   2.093   3.953   6.683  0.1983 -0.3296  0.5756
  146SAPE   H3R15988   2.129   3.897   6.593 -0.9933 -0.4080  0.1325
  146SAPE   H3S15989   2.170   4.022   6.724 -0.8900  0.7164  0.8778
  146SAPE   C2415990   1.967   4.034   6.629 -0.0091 -0.0748  0.1806
  146SAPE   H4R15991   1.898   4.066   6.710  0.9591  2.3284  0.1325
  146SAPE   H4S15992   1.915   3.960   6.565  0.7320 -1.3727  1.0433
  146SAPE   C2515993   2.006   4.149   6.543  0.4109  0.0020 -0.4260
  146SAPE   H5R15994   2.058   4.220   6.610  0.8927 -0.0149 -0.7796
  146SAPE   C2615995   1.993   4.165   6.409 -0.0703 -0.6275  0.3905
  146SAPE   H6R15996   2.028   4.263   6.375  1.9156 -1.9808 -1.7987
  146SAPE   C2715997   1.930   4.072   6.307  0.7829 -0.4917  0.1182
  146SAPE   H7R15998   1.890   3.977   6.350 -0.7373 -1.1200 -2.4662
  146SAPE   H7S15999   2.014   4.039   6.243  0.0919 -2.8095  0.3127
  146SAPE   C2816000   1.843   4.147   6.212  0.4842  0.1569 -0.2106
  146SAPE   H8R16001   1.779   4.226   6.256  1.7133  0.5732  0.9083
  146SAPE   C2916002   1.846   4.143   6.081 -0.7242 -0.5877  0.3232
  146SAPE   H9R16003   1.774   4.203   6.023 -0.2656 -0.4672 -0.1279
  146SAPE  C21016004   1.922   4.049   5.991  0.4492 -0.0605 -0.3822
  146SAPE  H10R16005   1.894   3.947   6.024 -2.0591  0.1024 -1.7554
  146SAPE  H10S16006   2.028   4.051   6.024 -0.2094  0.2397  1.8906
  146SAPE  C21116007   1.891   4.084   5.852 -0.4790  0.7072  0.1754
  146SAPE  H11R16008   1.790   4.059   5.818 -0.1663 -0.5252  0.0965
  146SAPE  C21216009   1.973   4.137   5.766 -0.6323  0.2302  0.0875
  146SAPE  H12R16010   1.942   4.167   5.665  1.5001  0.1300 -0.6465
  146SAPE  C21316011   2.118   4.175   5.805  0.3782 -0.2748  0.1759
  146SAPE  H13R16012   2.190   4.091   5.812  3.0904  1.9170  0.3842
  146SAPE  H13S16013   2.127   4.236   5.898 -0.1394 -0.0356  0.0718
  146SAPE  C21416014   2.182   4.275   5.705 -0.2360  0.8450  0.7747
  146SAPE  H14R16015   2.150   4.378   5.724 -1.6737  0.2398  1.7616
  146SAPE  C21516016   2.260   4.251   5.599 -0.3803 -0.4269 -0.3451
  146SAPE  H15R16017   2.305   4.334   5.544  1.1573 -1.1848 -0.2843
  146SAPE  C21616018   2.300   4.116   5.538 -0.3202  0.0061  0.4577
  146SAPE  H16R16019   2.282   4.038   5.615  0.4419 -0.2948  0.3426
  146SAPE  H16S16020   2.409   4.115   5.514 -0.7676  1.6205 -1.9472
  146SAPE  C21716021   2.209   4.070   5.416  0.3041  0.1051 -0.3452
  146SAPE  H17R16022   2.106   4.112   5.421  1.2370  2.9434 -2.2058
  146SAPE  H17S16023   2.199   3.960   5.417  2.4710 -0.1261  0.0802
  146SAPE  C21816024   2.266   4.108   5.280  0.2750 -0.2115 -0.0507
  146SAPE  H18R16025   2.369   4.069   5.263  1.1396  2.8917 -3.0433
  146SAPE  H18S16026   2.268   4.218   5.268 -2.5950 -0.2848 -2.1801
  146SAPE  C21916027   2.181   4.050   5.166 -0.1481  0.5511 -0.3838
  146SAPE  H19R16028   2.174   3.939   5.165 -0.1276  0.5418  0.0334
  146SAPE  H19S16029   2.221   4.069   5.064  0.4376 -0.1343 -0.2963
  146SAPE  C22016030   2.029   4.091   5.162 -0.2282  0.1680  0.2678
  146SAPE  H20R16031   1.964   4.034   5.092 -1.5818  0.8896  0.9025
  146SAPE  H20S16032   2.022   4.196   5.126  2.6352  0.3543  0.0385
  146SAPE  H20T16033   1.989   4.087   5.265  1.1059  0.8000  0.8319
  146SAPE   C3316034   1.437   4.109   6.528 -0.0694 -0.0432 -0.0940
  146SAPE   H3X16035   1.379   4.142   6.617 -0.2532  2.5988 -1.0999
  146SAPE   H3Y16036   1.383   4.020   6.487  1.7071 -0.6606 -1.1846
  146SAPE   C3416037   1.432   4.227   6.425  0.2784 -0.3025  0.2746
  146SAPE   H4X16038   1.521   4.210   6.361 -1.2111  0.7083 -2.2107
  146SAPE   H4Y16039   1.437   4.324   6.480 -1.2105 -0.4750  0.7560
  146SAPE   C3516040   1.303   4.238   6.349  0.5608 -0.0557 -0.5234
  146SAPE   H5X16041   1.213   4.256   6.412 -1.4968 -0.5350 -3.1585
  146SAPE   H5Y16042   1.275   4.139   6.306 -1.3667  0.3183 -0.2433
  146SAPE   C3616043   1.312   4.348   6.239  0.2388 -0.3019  0.1815
  146SAPE   H6X16044   1.398   4.411   6.269  0.3223  1.4839 -3.2837
  146SAPE   H6Y16045   1.225   4.417   6.241  0.5351  0.1270 -0.8279
  146SAPE   C3716046   1.338   4.281   6.102 -0.5527  0.3338 -0.3670
  146SAPE   H7X16047   1.269   4.199   6.073  0.0969 -1.1297  1.9441
  146SAPE   H7Y16048   1.442   4.241   6.105 -0.4403  0.6417  0.0792
  146SAPE   C3816049   1.330   4.376   5.982  0.8159  0.2911 -0.1273
  146SAPE   H8X16050   1.400   4.462   5.983  0.2394  0.7670  0.2729
  146SAPE   H8Y16051   1.225   4.413   5.983  1.4050  2.0867 -0.9410
  146SAPE   C3916052   1.340   4.298   5.857  0.3899  0.0951  0.3733
  146SAPE   H9X16053   1.271   4.211   5.859  2.0187 -1.2453  0.4471
  146SAPE   H9Y16054   1.431   4.235   5.851 -1.3117 -2.7114  1.7676
  146SAPE  C31016055   1.319   4.377   5.728  0.2899 -0.8495 -0.9302
  146SAPE  H10X16056   1.394   4.460   5.733 -1.1702  0.5918 -1.7047
  146SAPE  H10Y16057   1.216   4.415   5.716 -0.7698 -4.0038 -2.8895
  146SAPE  C31116058   1.351   4.290   5.610 -0.3715  0.3701 -0.7263
  146SAPE  H11X16059   1.307   4.188   5.620 -0.6620  0.3122 -2.2337
  146SAPE  H11Y16060   1.460   4.276   5.619 -0.5799  0.2009  2.5101
  146SAPE  C31216061   1.301   4.360   5.479 -0.2828 -0.0529 -0.4618
  146SAPE  H12X16062   1.350   4.459   5.487 -0.4921  0.0238 -0.0941
  146SAPE  H12Y16063   1.190   4.364   5.481 -0.3194  0.0568  2.5829
  146SAPE  C31316064   1.340   4.283   5.350 -0.6396 -0.2373 -0.2006
  146SAPE  H13X16065   1.283   4.188   5.361 -1.0485  0.1604  1.3566
  146SAPE  H13Y16066   1.447   4.255   5.335 -1.1188 -3.0849  0.9454
  146SAPE  C31416067   1.301   4.360   5.226 -0.9735 -1.1975 -0.9070
  146SAPE  H14X16068   1.358   4.455   5.235 -4.6842  1.0738  1.0520
  146SAPE  H14Y16069   1.193   4.384   5.222 -1.2713 -2.4303 -0.6739
  146SAPE  C31516070   1.334   4.280   5.098 -0.2965  0.3142 -0.0819
  146SAPE  H15X16071   1.434   4.238   5.119  0.3074  1.6078 -0.2821
  146SAPE  H15Y16072   1.335   4.342   5.005  1.4410 -0.9897 -0.9792
  146SAPE  C31616073   1.232   4.170   5.070 -0.2886 -1.1813 -0.4868
  146SAPE  H16X16074   1.128   4.206   5.052  0.1509 -0.3009 -1.3990
  146SAPE  H16Y16075   1.220   4.101   5.157 -1.8312 -0.4039 -0.0424
  146SAPE  C31716076   1.274   4.080   4.955  0.2017 -0.3067  0.0215
  146SAPE  H17X16077   1.222   3.982   4.955  1.6870 -1.1163 -0.3627
  146SAPE  H17Y16078   1.382   4.061   4.972 -0.1562 -1.3668  1.3158
  146SAPE  C31816079   1.255   4.144   4.820 -0.2465  0.0988  0.4286
  146SAPE  H18X16080   1.166   4.209   4.821  0.3602  1.2094 -3.1582
  146SAPE  H18Y16081   1.249   4.078   4.731  1.4789 -0.0818  0.4069
  146SAPE  H18Z16082   1.341   4.211   4.801 -0.3022  0.2628  0.7507
  147SAPE     N16083   4.789   3.658   7.091  0.3634  0.2785 -0.2576
  147SAPE   HN116084   4.837   3.689   7.178  0.6798 -1.0299  0.0627
  147SAPE   HN216085   4.851   3.695   7.017  1.4490 -3.1041 -1.2414
  147SAPE   HN316086   4.694   3.691   7.065  0.1342  0.5703  0.8984
  147SAPE   C1216087   4.789   3.504   7.086 -0.1981  0.1425 -0.8366
  147SAPE  H12A16088   4.737   3.472   7.178 -0.8518 -0.8238 -1.5206
  147SAPE  H12B16089   4.897   3.475   7.078 -0.6286 -2.7711  1.8542
  147SAPE   C1116090   4.707   3.448   6.970 -0.3085  0.2541 -0.0518
  147SAPE  H11A16091   4.730   3.508   6.879  0.4640  4.4678  2.6131
  147SAPE  H11B16092   4.601   3.477   6.985 -1.1523 -1.4488 -2.2286
  147SAPE     P16093   4.792   3.237   6.835  0.3296  0.2145 -0.0708
  147SAPE   O1316094   4.856   3.111   6.876 -0.2472 -0.3641  0.2494
  147SAPE   O1416095   4.682   3.226   6.737  0.1495 -0.7737  0.6677
  147SAPE   O1216096   4.737   3.308   6.967 -0.0515  0.2664  0.0599
  147SAPE   O1116097   4.893   3.345   6.778 -0.5014 -0.8605  0.6170
  147SAPE    C116098   5.023   3.361   6.838 -0.1399 -0.5962 -0.1360
  147SAPE    HA16099   5.029   3.469   6.867 -2.4937 -0.8386  1.5486
  147SAPE    HB16100   5.030   3.315   6.939 -0.1976 -0.3312 -0.0101
  147SAPE    C216101   5.148   3.333   6.751 -0.3611 -0.5297  0.3115
  147SAPE    HS16102   5.242   3.332   6.810 -1.2372  2.0922  1.9565
  147SAPE   O2116103   5.153   3.430   6.638 -0.2650  0.2282 -0.6018
  147SAPE   C2116104   5.250   3.518   6.658  1.1917  0.0387  0.0947
  147SAPE   O2216105   5.320   3.534   6.755  0.3747 -0.4814  0.5412
  147SAPE   C2216106   5.246   3.603   6.537 -0.4189 -0.6672  0.1892
  147SAPE   H2R16107   5.331   3.575   6.472 -1.7154 -0.0285 -1.8507
  147SAPE   H2S16108   5.155   3.577   6.480  0.0722 -1.9319 -0.0499
  147SAPE    C316109   5.133   3.191   6.690 -0.9690  0.2280  0.0080
  147SAPE    HX16110   5.037   3.179   6.635  0.0886 -1.5915 -1.5440
  147SAPE    HY16111   5.134   3.122   6.777 -1.2452  0.8525  0.5174
  147SAPE   O3116112   5.230   3.161   6.591  0.0089 -0.3258  0.0793
  147SAPE   C3116113   5.274   3.042   6.582  0.3350  0.4488  0.4141
  147SAPE   O3216114   5.230   2.946   6.644 -0.0296  0.1011  0.6171
  147SAPE   C3216115   5.373   3.039   6.461 -0.2463  0.1085 -0.0422
  147SAPE   H2X16116   5.425   2.941   6.465 -0.1063  0.1619 -0.5841
  147SAPE   H2Y16117   5.440   3.126   6.476  0.4398 -0.5624  0.9927
  147SAPE   C2316118   5.258   3.757   6.561  0.1684 -0.1924 -0.0508
  147SAPE   H3R16119   5.361   3.791   6.586  0.1651  1.7136 -2.3405
  147SAPE   H3S16120   5.177   3.791   6.629 -1.6819  0.2958 -2.3784
  147SAPE   C2416121   5.233   3.845   6.435  0.7238  0.6233 -0.4394
  147SAPE   H4R16122   5.321   3.840   6.368 -1.1007 -1.7021 -2.8789
  147SAPE   H4S16123   5.234   3.948   6.477  1.7431 -0.0718  1.3572
  147SAPE   C2516124   5.101   3.820   6.363  0.1777  0.5549  0.2907
  147SAPE   H5R16125   5.012   3.812   6.427  0.4711 -0.0534  0.6242
  147SAPE   C2616126   5.079   3.826   6.230  0.0679 -0.2723  0.2879
  147SAPE   H6R16127   4.979   3.817   6.186  0.0696  2.8120 -0.5690
  147SAPE   C2716128   5.192   3.843   6.133 -0.3811  0.1033 -0.6343
  147SAPE   H7R16129   5.281   3.899   6.169  0.8181 -2.0905 -0.0529
  147SAPE   H7S16130   5.164   3.917   6.054 -0.0676  2.3350  1.2209
  147SAPE   C2816131   5.238   3.718   6.073 -0.0266  1.0729 -0.4953
  147SAPE   H8R16132   5.305   3.664   6.142 -1.2726 -0.8242 -0.7035
  147SAPE   C2916133   5.211   3.670   5.951  0.0640 -0.7037  0.0941
  147SAPE   H9R16134   5.241   3.570   5.916  1.9075 -0.4662  0.9107
  147SAPE  C21016135   5.143   3.757   5.844 -0.2501  0.4156  0.6616
  147SAPE  H10R16136   5.227   3.820   5.807  1.2195 -1.0972  1.2728
  147SAPE  H10S16137   5.063   3.823   5.884  0.6429  0.5907  2.2577
  147SAPE  C21116138   5.069   3.677   5.745 -0.3174  0.4902  0.9733
  147SAPE  H11R16139   4.963   3.660   5.771 -0.6071 -1.0121 -0.9471
  147SAPE  C21216140   5.118   3.628   5.635 -0.0504 -0.0762  0.9749
  147SAPE  H12R16141   5.049   3.591   5.558 -0.2104 -0.2246  1.1898
  147SAPE  C21316142   5.258   3.653   5.588 -0.1512 -0.8970 -0.4019
  147SAPE  H13R16143   5.323   3.605   5.664  1.8897  1.6686 -0.3566
  147SAPE  H13S16144   5.292   3.758   5.598  0.3325 -1.1878  1.2024
  147SAPE  C21416145   5.300   3.604   5.451  0.1628  0.1719 -0.2128
  147SAPE  H14R16146   5.373   3.521   5.449 -0.2355 -0.1786 -2.3484
  147SAPE  C21516147   5.277   3.669   5.330  0.5008 -0.2341 -0.6795
  147SAPE  H15R16148   5.340   3.649   5.242 -0.7041 -0.5651 -1.4900
  147SAPE  C21616149   5.190   3.786   5.300  0.2430 -0.2395  0.5599
  147SAPE  H16R16150   5.254   3.861   5.250  1.0593 -0.3793  1.3742
  147SAPE  H16S16151   5.159   3.821   5.401 -0.2398 -2.1406  1.1108
  147SAPE  C21716152   5.060   3.752   5.212  0.1350  0.0408  0.0098
  147SAPE  H17R16153   5.105   3.722   5.115 -1.5287  0.4791 -0.9354
  147SAPE  H17S16154   5.003   3.847   5.207 -1.3800 -0.8588 -0.5232
  147SAPE  C21816155   4.963   3.644   5.266 -0.1859 -0.7176 -0.7387
  147SAPE  H18R16156   4.949   3.660   5.375 -0.9662  0.4595 -0.9952
  147SAPE  H18S16157   4.997   3.541   5.239  0.4234 -0.5794 -0.5097
  147SAPE  C21916158   4.833   3.654   5.187 -0.5764  0.0711 -1.0439
  147SAPE  H19R16159   4.782   3.735   5.244  2.8076  0.1974  2.1251
  147SAPE  H19S16160   4.781   3.559   5.212  1.4657 -0.3322  2.1435
  147SAPE  C22016161   4.845   3.677   5.030 -0.3893  0.5949 -0.2017
  147SAPE  H20R16162   4.872   3.782   5.008 -1.6151  0.7746 -0.9205
  147SAPE  H20S16163   4.748   3.673   4.976  0.2821 -2.0667 -1.3608
  147SAPE  H20T16164   4.908   3.599   4.982 -2.8060 -0.5853 -1.6539
  147SAPE   C3316165   5.308   3.055   6.317  0.4866  0.5288 -0.1076
  147SAPE   H3X16166   5.261   3.155   6.307  0.9604  1.0172  2.1496
  147SAPE   H3Y16167   5.233   2.973   6.314 -1.1249  1.7900  2.8092
  147SAPE   C3416168   5.401   3.026   6.197 -0.1046  0.0953 -0.1818
  147SAPE   H4X16169   5.449   2.927   6.214  2.2180  0.8776 -1.7460
  147SAPE   H4Y16170   5.477   3.106   6.187 -1.2818  1.1296 -1.2462
  147SAPE   C3516171   5.335   3.029   6.055 -0.2876  0.0780 -0.0902
  147SAPE   H5X16172   5.307   3.134   6.031  0.7019  0.1754 -0.8917
  147SAPE   H5Y16173   5.236   2.979   6.058 -0.2157 -0.0842 -0.4007
  147SAPE   C3616174   5.416   2.963   5.945  0.9132  0.1065  0.3902
  147SAPE   H6X16175   5.411   2.852   5.956 -2.8174  0.2156  0.8577
  147SAPE   H6Y16176   5.522   2.995   5.955  0.9686 -0.1934  0.8021
  147SAPE   C3716177   5.359   2.990   5.809 -0.1310  0.6579  0.4784
  147SAPE   H7X16178   5.353   3.101   5.808 -2.0546  0.6254  2.1297
  147SAPE   H7Y16179   5.261   2.946   5.779  1.6345 -1.4861 -2.8130
  147SAPE   C3816180   5.451   2.951   5.687 -0.4045 -0.0115 -0.1926
  147SAPE   H8X16181   5.472   2.843   5.695 -3.2906 -0.7520 -1.3367
  147SAPE   H8Y16182   5.544   3.012   5.689 -0.0005 -0.6088 -0.4764
  147SAPE   C3916183   5.381   2.956   5.551 -0.0512 -0.7656  0.1261
  147SAPE   H9X16184   5.276   2.928   5.570  0.6484 -2.3413  1.9729
  147SAPE   H9Y16185   5.426   2.883   5.481  2.0066  0.6270 -0.0993
  147SAPE  C31016186   5.395   3.098   5.487  0.0221  0.8529 -0.3646
  147SAPE  H10X16187   5.499   3.134   5.482  0.1431  1.1473  2.6538
  147SAPE  H10Y16188   5.333   3.170   5.545  1.0406  0.4479  1.2829
  147SAPE  C31116189   5.341   3.093   5.345  0.3953 -0.2915 -0.1059
  147SAPE  H11X16190   5.231   3.076   5.337  0.3696  0.0376 -0.4828
  147SAPE  H11Y16191   5.393   3.008   5.295 -0.4790 -0.7473 -0.2694
  147SAPE  C31216192   5.362   3.235   5.276 -0.3896  0.3537  0.2411
  147SAPE  H12X16193   5.470   3.241   5.254 -0.8908  1.1962 -2.3228
  147SAPE  H12Y16194   5.335   3.314   5.349 -0.5431 -1.9791  2.8986
  147SAPE  C31316195   5.284   3.247   5.147  0.0841 -0.0835 -0.2839
  147SAPE  H13X16196   5.182   3.216   5.178  0.8322 -1.1025  1.3009
  147SAPE  H13Y16197   5.323   3.179   5.068  1.9493 -0.1643  0.6505
  147SAPE  C31416198   5.279   3.390   5.087  0.1579 -0.0300 -0.0720
  147SAPE  H14X16199   5.380   3.435   5.086  0.2777 -0.2866  0.1711
  147SAPE  H14Y16200   5.221   3.456   5.155 -2.4441  0.5068 -2.6006
  147SAPE  C31516201   5.219   3.389   4.942  0.2937 -0.4070 -0.3117
  147SAPE  H15X16202   5.115   3.350   4.936  0.2283 -0.0439 -2.8096
  147SAPE  H15Y16203   5.285   3.321   4.885  1.4025 -0.6022  1.1471
  147SAPE  C31616204   5.226   3.523   4.879  0.2566  0.2169 -0.5287
  147SAPE  H16X16205   5.330   3.561   4.889  0.8166 -1.2718 -0.3907
  147SAPE  H16Y16206   5.168   3.604   4.928 -2.5933 -2.0365  0.1046
  147SAPE  C31716207   5.192   3.528   4.723  0.6977  0.0362  0.6868
  147SAPE  H17X16208   5.224   3.434   4.674 -1.7423 -0.1528 -0.7014
  147SAPE  H17Y16209   5.240   3.612   4.669  2.8450 -1.8945 -0.5514
  147SAPE  C31816210   5.045   3.526   4.683  0.3380  0.3199  0.0817
  147SAPE  H18X16211   4.991   3.436   4.720  0.6313 -1.0016 -2.4066
  147SAPE  H18Y16212   5.020   3.526   4.574  0.2162 -0.6891  0.0950
  147SAPE  H18Z16213   4.986   3.608   4.729  0.7798  1.0462 -0.6156
  148SAPE     N16214   2.576   4.434   6.937  0.0137  0.0427 -0.4323
  148SAPE   HN116215   2.678   4.415   6.945  0.3136  2.2219  2.2804
  148SAPE   HN216216   2.564   4.508   6.865 -0.3217  1.4607  1.0410
  148SAPE   HN316217   2.543   4.471   7.029  0.2117 -0.7209 -0.0448
  148SAPE   C1216218   2.504   4.308   6.906 -0.0365  0.1391 -0.3598
  148SAPE  H12A16219   2.529   4.269   6.805 -0.4039 -1.1514  0.0313
  148SAPE  H12B16220   2.394   4.327   6.903  0.2440  2.0977 -0.0182
  148SAPE   C1116221   2.543   4.198   7.006  0.3599 -0.8466 -0.6030
  148SAPE  H11A16222   2.498   4.104   6.965 -0.4098 -1.6939  2.0051
  148SAPE  H11B16223   2.478   4.217   7.093  0.5148  1.8642 -0.9991
  148SAPE     P16224   2.750   4.050   7.062 -0.0426 -0.1881  0.0923
  148SAPE   O1316225   2.890   4.058   7.110 -0.1561 -0.4123 -0.8042
  148SAPE   O1416226   2.654   3.966   7.135  0.4568 -0.3560 -0.6163
  148SAPE   O1216227   2.682   4.191   7.033  1.0183  0.1100  0.1476
  148SAPE   O1116228   2.749   3.992   6.913  0.1544 -0.0394 -0.0476
  148SAPE    C116229   2.791   4.071   6.805  0.6017  0.6593  0.9440
  148SAPE    HA16230   2.717   4.153   6.795 -2.1950 -1.7517  0.6946
  148SAPE    HB16231   2.895   4.105   6.826  1.4206 -1.7823  1.2157
  148SAPE    C216232   2.809   3.988   6.678 -0.1347  0.5860  0.0354
  148SAPE    HS16233   2.847   4.063   6.606  1.2482  0.5157  0.6622
  148SAPE   O2116234   2.688   3.926   6.640  0.5927 -0.2980 -0.2749
  148SAPE   C2116235   2.584   4.002   6.602 -0.0537 -0.7273  0.6089
  148SAPE   O2216236   2.583   4.116   6.570  0.1175 -0.4460 -0.3641
  148SAPE   C2216237   2.461   3.932   6.595  1.0832  0.3110  0.0853
  148SAPE   H2R16238   2.469   3.828   6.633  1.5870  0.5641  0.7070
  148SAPE   H2S16239   2.387   3.993   6.651 -1.2117  0.0104 -2.4477
  148SAPE    C316240   2.924   3.891   6.711  0.2143 -0.4830  0.5447
  148SAPE    HX16241   2.896   3.811   6.783  0.4727 -1.4142 -0.3577
  148SAPE    HY16242   3.003   3.955   6.756 -1.0106  1.7836 -0.3776
  148SAPE   O3116243   2.978   3.837   6.589 -0.3635  0.1328  0.0176
  148SAPE   C3116244   2.921   3.727   6.544  0.6316 -0.1871  0.1063
  148SAPE   O3216245   2.848   3.648   6.609 -0.0019  0.5661  0.3758
  148SAPE   C3216246   2.962   3.712   6.399  0.1609 -0.4752 -0.1698
  148SAPE   H2X16247   3.064   3.667   6.393  0.6401  0.5602  0.0150
  148SAPE   H2Y16248   2.971   3.813   6.354 -2.8240  0.3065  0.7805
  148SAPE   C2316249   2.404   3.930   6.448  0.2267 -0.1274 -1.2619
  148SAPE   H3R16250   2.312   3.867   6.444 -0.7459  1.2457 -1.0832
  148SAPE   H3S16251   2.484   3.900   6.377  0.3780  0.4530 -1.3416
  148SAPE   C2416252   2.340   4.067   6.393  0.1876  0.0863 -0.0537
  148SAPE   H4R16253   2.415   4.147   6.412  1.7047 -1.5131  0.9360
  148SAPE   H4S16254   2.252   4.095   6.454  1.0276  2.9630 -0.0092
  148SAPE   C2516255   2.300   4.053   6.248 -0.3071 -0.3577 -0.4112
  148SAPE   H5R16256   2.204   4.004   6.229 -1.5209  2.0299 -0.7615
  148SAPE   C2616257   2.370   4.093   6.144 -0.2331 -0.3877 -0.5047
  148SAPE   H6R16258   2.342   4.060   6.043 -1.6203 -1.5105  0.2216
  148SAPE   C2716259   2.502   4.170   6.159 -0.0902  0.8534 -0.1581
  148SAPE   H7R16260   2.563   4.157   6.067 -0.1271  1.0844 -0.2173
  148SAPE   H7S16261   2.547   4.130   6.252 -0.8304 -0.3021 -0.2790
  148SAPE   C2816262   2.475   4.315   6.182 -1.3616  0.1832  0.0330
  148SAPE   H8R16263   2.429   4.349   6.276  1.5724 -0.4727  1.8334
  148SAPE   C2916264   2.490   4.415   6.093  0.4438 -0.5210  0.5924
  148SAPE   H9R16265   2.454   4.514   6.124 -0.0822 -0.5444  0.0809
  148SAPE  C21016266   2.538   4.394   5.951 -0.2100 -0.3944  0.3282
  148SAPE  H10R16267   2.497   4.467   5.879  2.0715  1.1369  0.4728
  148SAPE  H10S16268   2.504   4.296   5.911 -0.8659 -0.3632  0.7887
  148SAPE  C21116269   2.687   4.407   5.946 -0.4848  0.1049 -0.7780
  148SAPE  H11R16270   2.734   4.492   5.997 -0.3662 -0.7305  0.5268
  148SAPE  C21216271   2.772   4.316   5.887  0.0222  0.0164  0.0556
  148SAPE  H12R16272   2.876   4.354   5.890  0.1578 -0.3116 -0.4024
  148SAPE  C21316273   2.735   4.194   5.803 -1.0808  0.1079 -0.1186
  148SAPE  H13R16274   2.684   4.124   5.873  0.0056 -0.6535 -0.0763
  148SAPE  H13S16275   2.826   4.139   5.772  0.0855  1.9592 -0.1709
  148SAPE  C21416276   2.654   4.194   5.676 -1.0412 -0.7159  0.3986
  148SAPE  H14R16277   2.546   4.182   5.693 -1.0285 -1.4951 -0.0414
  148SAPE  C21516278   2.704   4.227   5.551 -0.0408  0.1089 -0.2660
  148SAPE  H15R16279   2.641   4.207   5.463 -0.8986  0.9063  0.1470
  148SAPE  C21616280   2.848   4.253   5.512 -0.4170  0.4990 -0.4391
  148SAPE  H16R16281   2.904   4.275   5.605  1.9697 -1.5465 -1.2834
  148SAPE  H16S16282   2.852   4.341   5.444  0.0615 -0.0630 -1.1605
  148SAPE  C21716283   2.927   4.140   5.458  0.4593  0.3268 -0.1254
  148SAPE  H17R16284   2.915   4.049   5.522 -1.8939  1.5089  1.2465
  148SAPE  H17S16285   3.035   4.166   5.455  1.1944 -2.1374  1.6695
  148SAPE  C21816286   2.880   4.122   5.310 -0.2115 -1.3192  0.2821
  148SAPE  H18R16287   2.911   4.220   5.269 -0.6316 -0.7494  1.2933
  148SAPE  H18S16288   2.770   4.112   5.311 -0.1943 -1.6705 -0.4637
  148SAPE  C21916289   2.944   4.014   5.223 -0.0641  0.2910 -0.7976
  148SAPE  H19R16290   2.907   3.915   5.257 -0.8476  0.8373 -0.0347
  148SAPE  H19S16291   3.055   4.014   5.219 -0.0808  0.5614 -1.5972
  148SAPE  C22016292   2.900   4.017   5.075  0.0003 -0.3482  0.2544
  148SAPE  H20R16293   2.794   3.985   5.060  0.2744 -1.8601  1.3665
  148SAPE  H20S16294   2.967   3.943   5.027  2.5654  1.5581  0.7013
  148SAPE  H20T16295   2.925   4.114   5.026  0.4571  0.0249  1.2199
  148SAPE   C3316296   2.848   3.653   6.313 -0.0746  0.0328  0.5924
  148SAPE   H3X16297   2.776   3.589   6.368 -0.7837 -0.5010 -0.8884
  148SAPE   H3Y16298   2.898   3.584   6.242 -1.1553  0.8574 -1.0313
  148SAPE   C3416299   2.761   3.765   6.253 -0.6229 -0.1221 -0.4935
  148SAPE   H4X16300   2.770   3.847   6.328  3.5623 -1.5423  0.8420
  148SAPE   H4Y16301   2.654   3.740   6.244 -0.2566 -1.8439 -0.3528
  148SAPE   C3516302   2.812   3.819   6.119  0.1880  0.6610  0.0336
  148SAPE   H5X16303   2.913   3.865   6.128  0.3323  0.4280 -0.3762
  148SAPE   H5Y16304   2.740   3.900   6.094 -1.2008  1.5886  5.6349
  148SAPE   C3616305   2.796   3.723   5.999 -0.3888 -0.1174  0.3838
  148SAPE   H6X16306   2.689   3.693   6.007 -0.2540 -0.9109 -0.5560
  148SAPE   H6Y16307   2.863   3.637   6.019  0.0792  0.0967 -0.2240
  148SAPE   C3716308   2.831   3.788   5.868 -0.2686  0.0016 -0.2233
  148SAPE   H7X16309   2.937   3.822   5.863  0.2409 -1.2429  1.4646
  148SAPE   H7Y16310   2.767   3.877   5.853  0.7324  0.6725 -0.6778
  148SAPE   C3816311   2.822   3.701   5.743 -0.0278 -0.4467  0.3508
  148SAPE   H8X16312   2.726   3.645   5.737  0.4233 -1.1102 -1.3570
  148SAPE   H8Y16313   2.905   3.628   5.751  2.3223  2.2170  2.3487
  148SAPE   C3916314   2.845   3.777   5.613 -0.4208 -0.2090  0.0883
  148SAPE   H9X16315   2.847   3.707   5.527 -1.7655  0.9090 -0.8869
  148SAPE   H9Y16316   2.943   3.831   5.618 -1.0948  1.1092 -0.4881
  148SAPE  C31016317   2.724   3.870   5.574 -0.1702 -0.0485  0.8197
  148SAPE  H10X16318   2.739   3.956   5.506  0.2645 -0.4748  0.3585
  148SAPE  H10Y16319   2.700   3.924   5.668 -1.5501  0.9214 -0.0697
  148SAPE  C31116320   2.608   3.798   5.516 -0.1631 -0.1392  0.1715
  148SAPE  H11X16321   2.524   3.866   5.539  1.5243  1.2989  2.5313
  148SAPE  H11Y16322   2.588   3.706   5.575  1.1292  0.2933  1.3533
  148SAPE  C31216323   2.627   3.771   5.364  0.2953 -0.1167 -0.4595
  148SAPE  H12X16324   2.719   3.709   5.350  1.2748  1.0810  0.4374
  148SAPE  H12Y16325   2.630   3.872   5.318 -2.5518  2.0761  3.5717
  148SAPE  C31316326   2.500   3.715   5.299 -0.3331 -0.1448 -0.7571
  148SAPE  H13X16327   2.414   3.776   5.332  0.3322  0.4978 -0.1636
  148SAPE  H13Y16328   2.489   3.610   5.336  1.5051 -0.0357  0.2072
  148SAPE  C31416329   2.515   3.713   5.147  0.3441 -0.0234 -0.9776
  148SAPE  H14X16330   2.611   3.659   5.133  0.5311  0.1150 -0.2783
  148SAPE  H14Y16331   2.527   3.820   5.121 -0.6407  0.1570 -0.7167
  148SAPE  C31516332   2.405   3.644   5.075  0.0275 -0.0339 -0.0876
  148SAPE  H15X16333   2.438   3.628   4.970  0.5017 -1.8527  0.3156
  148SAPE  H15Y16334   2.305   3.693   5.073 -1.4080 -2.7530 -1.8764
  148SAPE  C31616335   2.373   3.502   5.124  0.6124  0.0419  0.1728
  148SAPE  H16X16336   2.351   3.514   5.232 -3.0457 -1.0650 -0.3170
  148SAPE  H16Y16337   2.465   3.444   5.102 -0.2310 -0.1724 -3.2590
  148SAPE  C31716338   2.259   3.425   5.048 -0.7669  0.2372 -0.2898
  148SAPE  H17X16339   2.275   3.426   4.938  1.8861 -1.9440 -0.0550
  148SAPE  H17Y16340   2.168   3.483   5.073 -1.2826 -1.4487  2.2073
  148SAPE  C31816341   2.241   3.283   5.090 -0.1822  0.3599 -0.5482
  148SAPE  H18X16342   2.318   3.211   5.055 -0.4995 -0.3205  0.1224
  148SAPE  H18Y16343   2.140   3.244   5.066  0.3313  0.5610 -3.3618
  148SAPE  H18Z16344   2.242   3.271   5.201  1.7408 -0.3595 -0.5961
  149SAPE     N16345   4.401   6.570   7.421  0.9280 -0.4084  0.0748
  149SAPE   HN116346   4.501   6.558   7.397  0.8043  0.4713 -0.9365
  149SAPE   HN216347   4.383   6.568   7.523  1.2227 -1.2021  0.1201
  149SAPE   HN316348   4.348   6.486   7.390  0.5830 -0.6667  1.3064
  149SAPE   C1216349   4.355   6.699   7.341  0.7275 -0.1513 -0.6035
  149SAPE  H12A16350   4.403   6.787   7.388 -3.2604  0.3051  3.2396
  149SAPE  H12B16351   4.245   6.710   7.351  0.7781 -0.8004  1.0353
  149SAPE   C1116352   4.392   6.674   7.195 -0.9559  0.5246  0.0582
  149SAPE  H11A16353   4.503   6.678   7.195 -0.9462  0.6313 -0.9554
  149SAPE  H11B16354   4.355   6.763   7.138 -0.0780  0.0118 -1.3748
  149SAPE     P16355   4.228   6.549   7.033 -0.0033  0.3581 -0.2997
  149SAPE   O1316356   4.209   6.405   6.993 -0.8638 -0.6882 -0.4007
  149SAPE   O1416357   4.114   6.618   7.106  0.5030  0.3074  0.4841
  149SAPE   O1216358   4.347   6.551   7.139 -0.0678 -1.0829  0.2666
  149SAPE   O1116359   4.287   6.631   6.922 -0.3999  0.1309 -0.8647
  149SAPE    C116360   4.421   6.635   6.879 -0.0420 -0.2767  0.2915
  149SAPE    HA16361   4.446   6.742   6.864  2.2696 -0.8369 -0.1484
  149SAPE    HB16362   4.489   6.596   6.957  1.0337  2.4581  0.8387
  149SAPE    C216363   4.442   6.561   6.747 -0.0303  0.0607 -0.4696
  149SAPE    HS16364   4.369   6.478   6.750  0.6749 -0.5520  0.2331
  149SAPE   O2116365   4.579   6.515   6.734  0.3833 -0.0857 -0.1401
  149SAPE   C2116366   4.591   6.417   6.642 -0.0715 -0.3436  0.0668
  149SAPE   O2216367   4.503   6.360   6.584  0.0265 -0.0224  0.5098
  149SAPE   C2216368   4.736   6.391   6.616  0.3678  0.2425 -0.1793
  149SAPE   H2R16369   4.788   6.373   6.713 -1.5173 -0.7155  0.7034
  149SAPE   H2S16370   4.747   6.301   6.552  1.5502 -0.0592  0.4056
  149SAPE    C316371   4.402   6.658   6.627  0.1759 -0.1714  1.0895
  149SAPE    HX16372   4.495   6.718   6.616 -0.4542  0.5604 -0.6022
  149SAPE    HY16373   4.318   6.724   6.655  0.3894  0.9175 -0.6729
  149SAPE   O3116374   4.385   6.594   6.499  0.1145  0.1074  0.5700
  149SAPE   C3116375   4.266   6.535   6.481  0.0430 -0.3061  0.5325
  149SAPE   O3216376   4.167   6.552   6.552 -0.0385  0.1841  0.2178
  149SAPE   C3216377   4.288   6.422   6.377 -0.4758 -0.0627 -0.2131
  149SAPE   H2X16378   4.237   6.331   6.416 -2.4666  1.0721  0.0001
  149SAPE   H2Y16379   4.396   6.396   6.370 -0.8210 -1.3098 -1.3911
  149SAPE   C2316380   4.791   6.507   6.537 -0.1781  0.3394  0.9153
  149SAPE   H3R16381   4.899   6.489   6.517 -0.5648  0.7331 -2.0025
  149SAPE   H3S16382   4.788   6.606   6.589  0.4024  0.6922  0.2809
  149SAPE   C2416383   4.736   6.536   6.394 -0.0983 -0.7918  0.6218
  149SAPE   H4R16384   4.791   6.624   6.354 -0.9428 -0.9423 -0.9641
  149SAPE   H4S16385   4.632   6.577   6.395  0.1630  0.0283 -1.2137
  149SAPE   C2516386   4.713   6.418   6.299  0.5724  0.5290  0.5312
  149SAPE   H5R16387   4.627   6.352   6.317  0.6885  0.8458  2.4355
  149SAPE   C2616388   4.785   6.391   6.189  0.6058 -0.3532 -0.3277
  149SAPE   H6R16389   4.766   6.301   6.130 -0.5732 -1.7340  1.9894
  149SAPE   C2716390   4.902   6.471   6.142 -0.4570  0.5422 -0.0359
  149SAPE   H7R16391   4.984   6.406   6.103 -1.7146 -0.7018 -0.6759
  149SAPE   H7S16392   4.965   6.517   6.222 -0.2081  2.3379 -1.2075
  149SAPE   C2816393   4.848   6.578   6.051 -0.3066 -0.1294  0.4159
  149SAPE   H8R16394   4.812   6.671   6.097  0.0924 -0.6053  1.7497
  149SAPE   C2916395   4.852   6.565   5.919  0.1956  0.4874 -0.5718
  149SAPE   H9R16396   4.798   6.643   5.863  0.2971  0.5206 -0.6235
  149SAPE  C21016397   4.902   6.443   5.856 -0.4359 -0.2354  0.1760
  149SAPE  H10R16398   4.873   6.346   5.904  1.9800 -1.1705 -0.1089
  149SAPE  H10S16399   5.012   6.434   5.864 -0.3871  0.9329  0.9308
  149SAPE  C21116400   4.856   6.442   5.717 -0.4280 -0.0207  1.5039
  149SAPE  H11R16401   4.751   6.412   5.701 -0.6594 -0.4727  3.5489
  149SAPE  C21216402   4.929   6.455   5.604  0.3889 -0.1208 -0.6016
  149SAPE  H12R16403   4.877   6.453   5.507  0.8602 -3.8414 -0.9097
  149SAPE  C21316404   5.070   6.507   5.598  0.3607 -0.1473  0.0334
  149SAPE  H13R16405   5.129   6.422   5.558 -1.2205 -1.6614  0.7758
  149SAPE  H13S16406   5.118   6.534   5.694  1.5632 -1.6184 -0.1190
  149SAPE  C21416407   5.098   6.626   5.508 -0.3464 -0.4945  0.4126
  149SAPE  H14R16408   5.106   6.725   5.554  0.3935 -0.4635  0.2254
  149SAPE  C21516409   5.115   6.621   5.376  0.1868 -1.0421 -0.0720
  149SAPE  H15R16410   5.120   6.712   5.314  1.6771  0.2929  1.8761
  149SAPE  C21616411   5.135   6.490   5.298  0.4327 -0.2311 -0.1227
  149SAPE  H16R16412   5.053   6.459   5.230  0.5696 -1.3666  0.2029
  149SAPE  H16S16413   5.137   6.403   5.367  2.0687  0.9130  1.3561
  149SAPE  C21716414   5.266   6.486   5.220 -0.8408 -0.7051  0.6479
  149SAPE  H17R16415   5.361   6.487   5.278 -0.9722  1.2476  0.8974
  149SAPE  H17S16416   5.261   6.585   5.169  2.0649 -1.0069 -0.3954
  149SAPE  C21816417   5.266   6.361   5.133  0.4195  0.5956  0.0195
  149SAPE  H18R16418   5.163   6.359   5.091 -0.2851  1.5427  1.5890
  149SAPE  H18S16419   5.275   6.276   5.203 -2.6092  1.0673  1.1603
  149SAPE  C21916420   5.360   6.356   5.019 -0.6915  0.1065  0.1889
  149SAPE  H19R16421   5.465   6.330   5.044 -0.2052  1.1152 -0.7349
  149SAPE  H19S16422   5.375   6.462   4.988 -0.0993  0.1489  0.5951
  149SAPE  C22016423   5.303   6.245   4.919 -0.7230 -0.1130 -0.0380
  149SAPE  H20R16424   5.388   6.211   4.856 -0.4911 -0.3944  0.4220
  149SAPE  H20S16425   5.218   6.290   4.864 -2.1256 -2.6199 -0.0526
  149SAPE  H20T16426   5.274   6.154   4.976 -2.1250  0.9990  1.0933
  149SAPE   C3316427   4.222   6.471   6.247 -0.2953  0.1678  0.0610
  149SAPE   H3X16428   4.114   6.495   6.261 -0.6219 -0.6399 -0.9362
  149SAPE   H3Y16429   4.229   6.393   6.168  0.4718 -1.5329  1.7454
  149SAPE   C3416430   4.301   6.588   6.191 -0.8242 -0.9230 -0.9002
  149SAPE   H4X16431   4.409   6.582   6.217 -0.8856  1.1223  0.0016
  149SAPE   H4Y16432   4.270   6.676   6.251  3.1617  1.9618 -2.6226
  149SAPE   C3516433   4.274   6.622   6.043 -0.1328 -0.5875 -0.0592
  149SAPE   H5X16434   4.287   6.726   6.006  1.0733 -1.2484 -1.6485
  149SAPE   H5Y16435   4.171   6.586   6.027 -0.3224  0.2681 -0.8461
  149SAPE   C3616436   4.377   6.558   5.949 -0.4748  0.5771  0.8147
  149SAPE   H6X16437   4.392   6.453   5.984  1.1371  1.1316  1.9117
  149SAPE   H6Y16438   4.468   6.619   5.965  0.3669 -0.7057  1.1175
  149SAPE   C3716439   4.334   6.553   5.799  0.0447  0.1235 -0.0062
  149SAPE   H7X16440   4.293   6.652   5.768  0.1399  0.3312  0.5230
  149SAPE   H7Y16441   4.255   6.479   5.775 -0.7310  0.9532 -0.0688
  149SAPE   C3816442   4.460   6.525   5.712  0.3532 -0.0521 -0.4827
  149SAPE   H8X16443   4.493   6.425   5.745 -0.0408 -0.2377 -0.6479
  149SAPE   H8Y16444   4.546   6.587   5.744  0.4683  0.4803 -1.7485
  149SAPE   C3916445   4.438   6.524   5.566 -0.2201  0.3068  0.3662
  149SAPE   H9X16446   4.392   6.617   5.527  1.5125  1.0551 -0.0158
  149SAPE   H9Y16447   4.371   6.441   5.536  1.2791 -0.6349 -0.5124
  149SAPE  C31016448   4.566   6.493   5.492 -0.8737  0.1098  0.2751
  149SAPE  H10X16449   4.604   6.390   5.510  0.3754  0.0523 -2.3495
  149SAPE  H10Y16450   4.655   6.556   5.513 -1.0471  0.8238 -1.0269
  149SAPE  C31116451   4.541   6.524   5.350 -0.4102  0.0038 -0.3589
  149SAPE  H11X16452   4.469   6.609   5.345  1.7263  1.9397  0.1375
  149SAPE  H11Y16453   4.492   6.437   5.301 -2.0936 -0.0904  1.3792
  149SAPE  C31216454   4.671   6.576   5.274 -0.1481  0.3527 -0.3589
  149SAPE  H12X16455   4.762   6.517   5.297 -0.7307 -0.8904 -1.1663
  149SAPE  H12Y16456   4.690   6.681   5.305 -0.4497  0.0561  0.8846
  149SAPE  C31316457   4.655   6.582   5.126 -0.1947 -0.6450  0.7427
  149SAPE  H13X16458   4.555   6.622   5.101  0.8613  0.2203 -2.6658
  149SAPE  H13Y16459   4.645   6.477   5.093 -2.3027  0.6312 -3.3410
  149SAPE  C31416460   4.768   6.657   5.042  0.3397  0.5843  0.2639
  149SAPE  H14X16461   4.856   6.590   5.051  0.7219  1.2998  2.5685
  149SAPE  H14Y16462   4.780   6.758   5.087 -1.2240  1.3947 -1.0338
  149SAPE  C31516463   4.724   6.664   4.895  0.2045 -0.2407  0.5398
  149SAPE  H15X16464   4.802   6.712   4.833  0.4441 -0.3016  0.7903
  149SAPE  H15Y16465   4.635   6.729   4.881  1.5549  1.3043 -1.4670
  149SAPE  C31616466   4.696   6.527   4.836 -0.8251  0.6924  0.1676
  149SAPE  H16X16467   4.601   6.488   4.877 -0.5940 -2.1197 -1.6733
  149SAPE  H16Y16468   4.769   6.446   4.859 -1.7745 -0.3739 -0.4822
  149SAPE  C31716469   4.682   6.518   4.687  0.2683 -0.1472  0.2118
  149SAPE  H17X16470   4.724   6.425   4.645  0.8937  1.4499 -3.0195
  149SAPE  H17Y16471   4.741   6.595   4.632 -1.4494 -1.6921 -4.2122
  149SAPE  C31816472   4.536   6.514   4.647 -0.7956 -0.3760 -0.2805
  149SAPE  H18X16473   4.525   6.509   4.537  1.3883  2.5595 -0.7502
  149SAPE  H18Y16474   4.477   6.597   4.690 -1.2116 -1.3594  1.1462
  149SAPE  H18Z16475   4.479   6.424   4.679 -1.7656  0.0151 -0.8609
  150SAPE     N16476   2.605   6.848   6.903  0.5116 -0.2120 -0.7695
  150SAPE   HN116477   2.557   6.761   6.873  1.2775 -1.7155  2.0072
  150SAPE   HN216478   2.604   6.915   6.823  1.8723 -0.5465 -1.0926
  150SAPE   HN316479   2.706   6.823   6.915  1.0055  0.2660 -3.3221
  150SAPE   C1216480   2.550   6.939   7.017  0.1106  0.0248  0.4196
  150SAPE  H12A16481   2.606   7.034   7.014  1.4510 -0.7454  0.0906
  150SAPE  H12B16482   2.573   6.881   7.109  0.8656 -1.1030 -0.4482
  150SAPE   C1116483   2.395   6.970   7.012 -0.2041  0.1357  0.4544
  150SAPE  H11A16484   2.386   7.055   7.082 -1.9835 -0.5149  1.0864
  150SAPE  H11B16485   2.329   6.894   7.060 -0.9788  1.2338  1.1664
  150SAPE     P16486   2.314   7.135   6.826  0.1530 -0.2776 -0.1662
  150SAPE   O1316487   2.186   7.172   6.890 -0.4467  0.5956 -0.5855
  150SAPE   O1416488   2.432   7.227   6.841 -0.0639  0.1559  0.0165
  150SAPE   O1216489   2.357   6.987   6.872 -0.2671 -0.2659  0.0391
  150SAPE   O1116490   2.291   7.128   6.672  0.0210  0.0956 -0.0907
  150SAPE    C116491   2.366   7.036   6.588  0.4485 -0.6475  0.0841
  150SAPE    HA16492   2.448   6.980   6.636  1.6433  0.8544 -0.1445
  150SAPE    HB16493   2.298   6.975   6.523  0.3239 -0.0527 -0.3526
  150SAPE    C216494   2.442   7.127   6.484  0.8397 -0.3794 -0.0827
  150SAPE    HS16495   2.509   7.193   6.543 -1.2416  1.8397 -0.0339
  150SAPE   O2116496   2.353   7.207   6.404 -0.5276  0.6078 -0.5133
  150SAPE   C2116497   2.382   7.342   6.389  0.6988 -0.9486 -0.0039
  150SAPE   O2216498   2.484   7.398   6.418 -0.1878 -0.4078 -0.0323
  150SAPE   C2216499   2.264   7.415   6.325 -0.3949 -0.3625  0.7738
  150SAPE   H2R16500   2.196   7.336   6.288  1.3098 -1.4587 -0.1796
  150SAPE   H2S16501   2.216   7.484   6.398  1.0880  1.6787 -0.0616
  150SAPE    C316502   2.524   7.039   6.388  1.0318  0.5934  0.3548
  150SAPE    HX16503   2.452   6.961   6.357  0.2969  1.6899 -0.7781
  150SAPE    HY16504   2.603   6.985   6.445  0.5807 -1.8211 -1.1580
  150SAPE   O3116505   2.580   7.102   6.265  0.5373 -0.2274 -0.0425
  150SAPE   C3116506   2.694   7.171   6.282  0.1072  0.1387 -0.1307
  150SAPE   O3216507   2.748   7.190   6.390  0.6174  0.5159 -0.1934
  150SAPE   C3216508   2.741   7.227   6.144 -0.1485 -0.2359 -0.0519
  150SAPE   H2X16509   2.656   7.226   6.072  1.6931  0.8567 -2.3847
  150SAPE   H2Y16510   2.816   7.156   6.103 -1.0074 -1.1139 -0.1446
  150SAPE   C2316511   2.297   7.509   6.208  0.1864 -0.0670 -0.7829
  150SAPE   H3R16512   2.392   7.560   6.234 -0.5889  1.2870 -0.4829
  150SAPE   H3S16513   2.215   7.584   6.200 -0.8910 -1.1009  0.2727
  150SAPE   C2416514   2.317   7.430   6.080 -0.2900  0.5233 -0.3716
  150SAPE   H4R16515   2.223   7.371   6.066  1.1518 -2.5143  1.6412
  150SAPE   H4S16516   2.400   7.357   6.090 -1.4786 -0.8910 -0.4038
  150SAPE   C2516517   2.346   7.512   5.956 -0.5513  0.1708  0.1276
  150SAPE   H5R16518   2.347   7.621   5.973  0.5159  0.2443 -0.3122
  150SAPE   C2616519   2.349   7.472   5.826  0.3066  0.6113 -0.7428
  150SAPE   H6R16520   2.371   7.547   5.749  0.8143  0.8089 -0.4073
  150SAPE   C2716521   2.338   7.326   5.783 -0.7010  0.3412  0.4290
  150SAPE   H7R16522   2.397   7.260   5.851  1.3002  1.1349 -0.4582
  150SAPE   H7S16523   2.400   7.335   5.691  0.7686 -0.2431  1.3242
  150SAPE   C2816524   2.198   7.277   5.746 -0.5636 -0.0598  0.0184
  150SAPE   H8R16525   2.134   7.346   5.689  4.1319  1.7392 -3.7455
  150SAPE   C2916526   2.153   7.157   5.788 -0.7011  0.0058 -0.0369
  150SAPE   H9R16527   2.046   7.139   5.772 -1.1678 -0.8858  3.2559
  150SAPE  C21016528   2.226   7.047   5.851 -0.0025 -0.0995 -0.1858
  150SAPE  H10R16529   2.330   7.056   5.814 -0.6923  2.3953 -1.7507
  150SAPE  H10S16530   2.197   6.949   5.807  1.2464  0.0051 -1.2992
  150SAPE  C21116531   2.209   7.030   6.004 -0.0683 -0.6816  0.0975
  150SAPE  H11R16532   2.152   7.102   6.063 -0.2499  0.5886 -1.5508
  150SAPE  C21216533   2.287   6.946   6.072 -0.7961 -0.0948 -0.4833
  150SAPE  H12R16534   2.285   6.951   6.181 -0.0475 -3.0260 -0.2674
  150SAPE  C21316535   2.384   6.845   6.024 -0.2081 -0.3921  0.9574
  150SAPE  H13R16536   2.478   6.849   6.084  1.6696  3.7267 -1.7604
  150SAPE  H13S16537   2.422   6.878   5.925 -0.6431  0.4545  1.0560
  150SAPE  C21416538   2.331   6.707   6.016 -0.4319  0.7327 -0.3065
  150SAPE  H14R16539   2.284   6.669   6.107  0.5491  0.5845  0.1461
  150SAPE  C21516540   2.333   6.628   5.912 -0.0303 -0.3456 -0.1418
  150SAPE  H15R16541   2.311   6.526   5.947 -0.9177  0.5321  2.0874
  150SAPE  C21616542   2.384   6.647   5.776 -1.0750  0.5547 -0.4914
  150SAPE  H16R16543   2.445   6.557   5.752 -0.9303  0.4111  0.3561
  150SAPE  H16S16544   2.454   6.732   5.767  1.2442 -1.0429  1.2485
  150SAPE  C21716545   2.270   6.681   5.675 -0.2174 -0.0004 -0.3327
  150SAPE  H17R16546   2.336   6.706   5.590  1.2675  1.0758  1.0793
  150SAPE  H17S16547   2.214   6.769   5.715 -1.0590 -0.0647 -1.3264
  150SAPE  C21816548   2.174   6.569   5.633  0.3493  0.0843 -0.1092
  150SAPE  H18R16549   2.110   6.539   5.718 -1.1571  4.1151  0.3899
  150SAPE  H18S16550   2.241   6.489   5.596  1.1306  1.3090 -1.4479
  150SAPE  C21916551   2.089   6.600   5.507 -0.3891  0.4225  0.1387
  150SAPE  H19R16552   2.154   6.616   5.418 -1.2064  0.9603 -0.3786
  150SAPE  H19S16553   2.042   6.697   5.532 -0.3277 -0.0229  2.1455
  150SAPE  C22016554   1.988   6.496   5.459  0.5241 -0.0578 -0.7240
  150SAPE  H20R16555   1.938   6.447   5.545  1.6407  0.4877  0.2724
  150SAPE  H20S16556   2.047   6.427   5.395  0.5383 -1.5190  0.8235
  150SAPE  H20T16557   1.904   6.545   5.405  0.8327  0.9015 -0.3578
  150SAPE   C3316558   2.800   7.370   6.140  0.0415 -0.2243 -0.1333
  150SAPE   H3X16559   2.905   7.370   6.175  0.3916 -0.1541 -1.1441
  150SAPE   H3Y16560   2.740   7.437   6.205  1.2829 -0.6561  1.5192
  150SAPE   C3416561   2.795   7.425   5.992 -0.0327 -0.0416  0.6203
  150SAPE   H4X16562   2.831   7.530   5.999 -1.6880  0.5766  0.2958
  150SAPE   H4Y16563   2.690   7.426   5.954  0.8711 -0.8714 -2.2048
  150SAPE   C3516564   2.879   7.356   5.890  0.7199  0.4209  0.0972
  150SAPE   H5X16565   2.839   7.255   5.866 -1.0622  1.2017 -0.4355
  150SAPE   H5Y16566   2.978   7.337   5.936 -0.1575 -0.4225  1.7450
  150SAPE   C3616567   2.883   7.426   5.750  0.0490  0.2211  0.4206
  150SAPE   H6X16568   2.956   7.375   5.684  0.8797  1.8422  0.0531
  150SAPE   H6Y16569   2.916   7.531   5.761 -0.2337  0.4099 -0.4758
  150SAPE   C3716570   2.745   7.398   5.673 -0.5718 -0.6512  0.0833
  150SAPE   H7X16571   2.670   7.455   5.732  1.0976  0.3876  1.2947
  150SAPE   H7Y16572   2.723   7.289   5.681 -0.9242 -0.4648  2.3782
  150SAPE   C3816573   2.751   7.441   5.526  0.0869  0.0625 -0.6672
  150SAPE   H8X16574   2.832   7.380   5.479 -0.8356 -0.0282 -2.2281
  150SAPE   H8Y16575   2.784   7.547   5.523  0.3810 -0.0111 -0.1125
  150SAPE   C3916576   2.626   7.412   5.448 -0.3551 -0.1905 -0.0349
  150SAPE   H9X16577   2.555   7.497   5.451  0.0445  0.1229  0.7179
  150SAPE   H9Y16578   2.577   7.316   5.475 -0.4833 -0.3709 -0.8655
  150SAPE  C31016579   2.647   7.406   5.287 -1.3691  0.3486  0.1478
  150SAPE  H10X16580   2.545   7.396   5.244 -1.7447  3.0052  0.2587
  150SAPE  H10Y16581   2.693   7.305   5.276 -1.7185 -0.0836  2.1818
  150SAPE  C31116582   2.748   7.514   5.246 -0.0940  0.3636 -0.1557
  150SAPE  H11X16583   2.850   7.501   5.289  1.5523 -2.0266 -4.1563
  150SAPE  H11Y16584   2.715   7.618   5.270 -0.1754  0.3873 -0.3657
  150SAPE  C31216585   2.785   7.524   5.100 -0.0942  0.4451  0.0883
  150SAPE  H12X16586   2.697   7.494   5.038 -1.2489 -0.6237  2.1412
  150SAPE  H12Y16587   2.873   7.458   5.087 -0.8267 -0.5879  0.2382
  150SAPE  C31316588   2.833   7.666   5.043  1.5501 -0.0470 -0.2082
  150SAPE  H13X16589   2.748   7.737   5.033  0.9959 -0.4716  1.1435
  150SAPE  H13Y16590   2.876   7.651   4.942 -0.0381 -1.4370 -0.7267
  150SAPE  C31416591   2.943   7.720   5.134  0.0866  0.0394  0.1415
  150SAPE  H14X16592   3.014   7.636   5.152 -1.5107 -1.4142 -0.0750
  150SAPE  H14Y16593   2.902   7.755   5.231 -1.4042 -2.3448  0.4560
  150SAPE  C31516594   3.017   7.835   5.065 -0.1108 -0.1682 -0.4610
  150SAPE  H15X16595   3.047   7.812   4.960  0.1888  4.0998 -1.5195
  150SAPE  H15Y16596   3.111   7.842   5.123 -0.8411  0.3004  0.6928
  150SAPE  C31616597   2.943   7.971   5.063  0.2023  0.3478 -0.4723
  150SAPE  H16X16598   2.907   7.995   5.165  0.5337 -0.2935 -0.1984
  150SAPE  H16Y16599   2.852   7.968   4.999 -1.4407  1.0333  1.7050
  150SAPE  C31716600   3.031   8.083   5.009 -0.5748  0.5398 -0.6338
  150SAPE  H17X16601   3.129   8.093   5.062 -0.1036  1.1252 -1.5815
  150SAPE  H17Y16602   2.988   8.185   5.019  1.5777  1.5363 -0.9658
  150SAPE  C31816603   3.070   8.068   4.860 -0.2233  0.7653  0.3414
  150SAPE  H18X16604   3.140   7.984   4.841 -0.5917  0.6571 -0.5862
  150SAPE  H18Y16605   3.105   8.167   4.824 -0.5443  1.0814  0.8904
  150SAPE  H18Z16606   2.976   8.045   4.805 -0.8830  3.2464  0.3106
  151SAPE     N16607   6.398   5.512   7.103 -0.1603 -0.5608 -0.6751
  151SAPE   HN116608   6.398   5.466   7.196 -2.5079 -0.2204 -0.4427
  151SAPE   HN216609   6.480   5.576   7.103  0.7965 -1.6918  1.1147
  151SAPE   HN316610   6.316   5.571   7.080  0.9997  0.5097 -2.3107
  151SAPE   C1216611   6.405   5.404   6.999 -0.4020 -0.5605  0.0109
  151SAPE  H12A16612   6.303   5.368   6.973 -0.1421 -0.9864 -0.4232
  151SAPE  H12B16613   6.463   5.322   7.045 -0.4738  0.5151  2.1626
  151SAPE   C1116614   6.474   5.467   6.871 -0.8434  0.4868 -0.7460
  151SAPE  H11A16615   6.418   5.558   6.840  2.1807  2.0932 -1.8890
  151SAPE  H11B16616   6.464   5.380   6.803 -0.2279 -0.0728 -0.1473
  151SAPE     P16617   6.685   5.622   6.929 -0.2124 -0.1516  0.2734
  151SAPE   O1316618   6.631   5.673   7.058 -0.0318 -0.3243 -0.3648
  151SAPE   O1416619   6.832   5.599   6.930 -0.3612 -0.2242  0.5177
  151SAPE   O1216620   6.617   5.481   6.888  0.3890 -0.0272 -0.0484
  151SAPE   O1116621   6.645   5.724   6.818 -0.2952 -0.5606  0.2145
  151SAPE    C116622   6.634   5.685   6.677 -0.8689 -0.0198 -0.4762
  151SAPE    HA16623   6.719   5.616   6.658 -1.1364 -0.5971  0.3705
  151SAPE    HB16624   6.539   5.635   6.647 -0.3986 -1.5576  0.4745
  151SAPE    C216625   6.636   5.811   6.581  0.2206  0.1773 -0.2141
  151SAPE    HS16626   6.737   5.857   6.582  0.3464 -0.0671  1.1677
  151SAPE   O2116627   6.534   5.906   6.634  0.7620 -0.0692  0.9043
  151SAPE   C2116628   6.587   5.998   6.710 -0.5643  0.2626 -0.4972
  151SAPE   O2216629   6.703   6.004   6.758  0.4594  0.1736  0.0259
  151SAPE   C2216630   6.484   6.111   6.722 -0.0956  0.5127  0.3785
  151SAPE   H2R16631   6.455   6.139   6.618  1.3044 -1.4226 -0.5920
  151SAPE   H2S16632   6.396   6.058   6.765  0.6768 -0.8257  0.3553
  151SAPE    C316633   6.606   5.784   6.435 -0.0533 -0.7339 -0.7785
  151SAPE    HX16634   6.605   5.878   6.376 -1.7044  0.8180  1.5344
  151SAPE    HY16635   6.504   5.739   6.444 -0.3328  0.0454  0.1354
  151SAPE   O3116636   6.695   5.683   6.384 -0.5390  0.6089  0.1290
  151SAPE   C3116637   6.816   5.732   6.349  0.7489 -0.2841  0.2977
  151SAPE   O3216638   6.846   5.847   6.362  0.2112  0.3585  0.0577
  151SAPE   C3216639   6.907   5.618   6.307 -0.0049 -0.1646  0.0205
  151SAPE   H2X16640   6.853   5.522   6.327  0.8461 -0.9051 -1.1496
  151SAPE   H2Y16641   6.991   5.628   6.379 -1.2456 -0.8324  1.6447
  151SAPE   C2316642   6.527   6.228   6.813  0.5776 -0.0394  0.6731
  151SAPE   H3R16643   6.584   6.191   6.901  1.9691  2.0068  0.7051
  151SAPE   H3S16644   6.438   6.278   6.857 -1.2906 -2.3578 -0.3264
  151SAPE   C2416645   6.612   6.336   6.740 -0.0052  0.3719 -0.5749
  151SAPE   H4R16646   6.707   6.281   6.722  0.0370 -0.0578  0.8030
  151SAPE   H4S16647   6.630   6.420   6.811 -1.0945 -0.2559  0.4887
  151SAPE   C2516648   6.560   6.396   6.611 -0.1691  0.2079  0.5608
  151SAPE   H5R16649   6.475   6.465   6.615 -0.2764  0.2531 -1.5293
  151SAPE   C2616650   6.601   6.353   6.489 -0.3028 -0.3322 -0.2205
  151SAPE   H6R16651   6.557   6.398   6.398 -2.1849 -1.0718  0.2804
  151SAPE   C2716652   6.719   6.263   6.461  0.3566  0.0640  0.4683
  151SAPE   H7R16653   6.687   6.157   6.454 -1.1912  0.5168  0.4589
  151SAPE   H7S16654   6.806   6.256   6.531  0.0281  2.3513  1.1648
  151SAPE   C2816655   6.781   6.307   6.328 -0.0890 -0.4774  0.3882
  151SAPE   H8R16656   6.865   6.378   6.335 -0.6250  0.3043 -0.8206
  151SAPE   C2916657   6.747   6.270   6.200 -0.0140 -0.1939 -0.7035
  151SAPE   H9R16658   6.810   6.312   6.121  0.2007  2.8209  0.9335
  151SAPE  C21016659   6.642   6.171   6.161 -0.6208  0.0531  0.2843
  151SAPE  H10R16660   6.590   6.202   6.067 -0.1677  1.3482  0.4441
  151SAPE  H10S16661   6.560   6.176   6.236 -1.6088 -1.3879 -0.6495
  151SAPE  C21116662   6.695   6.029   6.156  0.5808  0.7345 -0.2367
  151SAPE  H11R16663   6.776   6.012   6.228 -0.6054  0.2428  1.0125
  151SAPE  C21216664   6.665   5.936   6.061 -0.0234  0.1037 -0.8984
  151SAPE  H12R16665   6.731   5.848   6.068  1.8388  1.4024 -1.1760
  151SAPE  C21316666   6.578   5.940   5.948  0.0047 -0.7951 -0.7016
  151SAPE  H13R16667   6.538   6.044   5.941  1.1524 -0.3189 -0.4585
  151SAPE  H13S16668   6.493   5.869   5.956 -0.8836  0.1951 -1.0265
  151SAPE  C21416669   6.676   5.901   5.836 -0.1856  0.1363  0.2387
  151SAPE  H14R16670   6.719   5.801   5.847  0.2616  0.0504 -1.8487
  151SAPE  C21516671   6.710   5.991   5.742 -0.0381  0.1428  0.4696
  151SAPE  H15R16672   6.790   5.962   5.672 -0.7475 -1.3354  0.2313
  151SAPE  C21616673   6.659   6.135   5.720 -0.2667  0.0390  0.1421
  151SAPE  H16R16674   6.742   6.208   5.728 -0.6658  0.9220 -2.6401
  151SAPE  H16S16675   6.586   6.167   5.797 -0.6472  1.8924 -0.9420
  151SAPE  C21716676   6.584   6.163   5.589  0.5029  0.3105 -1.0617
  151SAPE  H17R16677   6.519   6.252   5.597  0.2246  0.0750 -0.6431
  151SAPE  H17S16678   6.522   6.071   5.579 -0.1912  0.4862  0.9861
  151SAPE  C21816679   6.674   6.185   5.465  0.5553 -0.0086  0.2911
  151SAPE  H18R16680   6.726   6.088   5.449 -2.8852 -2.4523  2.6392
  151SAPE  H18S16681   6.740   6.271   5.489 -1.0338  1.2216  0.3992
  151SAPE  C21916682   6.586   6.195   5.339  0.1016 -0.5800 -0.6569
  151SAPE  H19R16683   6.543   6.297   5.329  1.2316  0.1020  0.8895
  151SAPE  H19S16684   6.507   6.117   5.343  0.3268 -0.7761  2.1392
  151SAPE  C22016685   6.665   6.191   5.207  0.0495  0.2085  0.5709
  151SAPE  H20R16686   6.732   6.279   5.192  1.0548 -0.4464  1.0602
  151SAPE  H20S16687   6.591   6.197   5.125  1.9441 -0.2340 -1.2656
  151SAPE  H20T16688   6.734   6.103   5.204  1.8613  1.6004 -1.2843
  151SAPE   C3316689   6.951   5.633   6.161  0.1487 -0.0036  0.2446
  151SAPE   H3X16690   6.866   5.683   6.111 -0.0555 -1.4035 -0.8861
  151SAPE   H3Y16691   6.944   5.530   6.120  0.1357  0.3180 -0.5734
  151SAPE   C3416692   7.082   5.711   6.137  0.3561 -0.2546  0.0984
  151SAPE   H4X16693   7.149   5.658   6.208 -0.4797  0.6596  1.5963
  151SAPE   H4Y16694   7.072   5.819   6.163 -1.6585 -0.2549 -0.5018
  151SAPE   C3516695   7.126   5.704   5.988 -0.6231  0.9715 -0.1223
  151SAPE   H5X16696   7.152   5.599   5.964 -1.1563 -0.0281  3.1410
  151SAPE   H5Y16697   7.225   5.755   5.981 -0.8011  1.1104 -2.0330
  151SAPE   C3616698   7.029   5.779   5.895 -0.5105 -0.1163  0.2444
  151SAPE   H6X16699   7.000   5.876   5.941 -2.4929  0.8935 -2.8723
  151SAPE   H6Y16700   6.935   5.721   5.883 -0.0607 -1.7740  3.5467
  151SAPE   C3716701   7.088   5.804   5.750 -0.2903 -1.2925 -0.2648
  151SAPE   H7X16702   7.190   5.844   5.769 -1.4646  1.5458  0.5420
  151SAPE   H7Y16703   7.023   5.877   5.697  2.4708  2.1562  0.6765
  151SAPE   C3816704   7.102   5.680   5.657 -1.1104  0.5271  0.6512
  151SAPE   H8X16705   7.012   5.616   5.659 -1.4105  0.8628 -0.7588
  151SAPE   H8Y16706   7.196   5.632   5.693 -1.2515  0.4095  0.8625
  151SAPE   C3916707   7.128   5.719   5.510 -0.6416  0.3923  0.2189
  151SAPE   H9X16708   7.050   5.790   5.477 -0.3361  0.5271 -0.2346
  151SAPE   H9Y16709   7.118   5.629   5.445  0.2216 -1.1341  2.0941
  151SAPE  C31016710   7.267   5.770   5.483  0.1448 -0.6550 -0.3955
  151SAPE  H10X16711   7.339   5.686   5.493  0.1936 -0.6122 -0.3838
  151SAPE  H10Y16712   7.300   5.847   5.557  0.3061 -0.4370 -0.6943
  151SAPE  C31116713   7.279   5.832   5.342 -0.1047 -0.6380  0.3515
  151SAPE  H11X16714   7.190   5.888   5.306 -0.5191 -1.0659  0.6874
  151SAPE  H11Y16715   7.285   5.739   5.282  0.3194 -1.1430  1.1577
  151SAPE  C31216716   7.410   5.913   5.325  0.1421 -0.3689  0.6709
  151SAPE  H12X16717   7.493   5.839   5.333  1.7614  1.5421  3.6624
  151SAPE  H12Y16718   7.433   5.992   5.399 -0.3896  0.2050  0.2320
  151SAPE  C31316719   7.434   5.973   5.182 -0.4667  0.2124  0.0499
  151SAPE  H13X16720   7.359   6.053   5.160 -0.8885 -0.5413 -1.3214
  151SAPE  H13Y16721   7.402   5.901   5.105 -0.1462 -0.1637  0.2663
  151SAPE  C31416722   7.583   6.016   5.146 -0.3309  0.8000 -0.1493
  151SAPE  H14X16723   7.589   6.057   5.043 -0.3329  1.6542  0.1837
  151SAPE  H14Y16724   7.640   5.921   5.142 -1.0982  0.3664 -2.4521
  151SAPE  C31516725   7.641   6.122   5.238  0.1695  0.0977 -0.2915
  151SAPE  H15X16726   7.747   6.128   5.207  0.4288 -3.2262 -0.4436
  151SAPE  H15Y16727   7.640   6.086   5.344  1.6510 -0.2070 -0.3672
  151SAPE  C31616728   7.573   6.254   5.225  0.3942 -0.4498 -0.9808
  151SAPE  H16X16729   7.466   6.253   5.254  0.0684  1.8559 -1.8771
  151SAPE  H16Y16730   7.578   6.285   5.119 -1.4155  0.2670 -0.8937
  151SAPE  C31716731   7.638   6.362   5.319 -0.1588  0.1082  0.2203
  151SAPE  H17X16732   7.592   6.457   5.284 -2.6827 -0.9120  0.5654
  151SAPE  H17Y16733   7.748   6.353   5.302  0.0168  1.8437  0.2630
  151SAPE  C31816734   7.624   6.339   5.465  0.5266 -0.8808 -0.1225
  151SAPE  H18X16735   7.689   6.261   5.510 -0.9076 -0.7353  2.3461
  151SAPE  H18Y16736   7.515   6.325   5.483  0.5873  0.9139  2.0544
  151SAPE  H18Z16737   7.653   6.432   5.518  0.9123 -0.8841 -0.3242
  152SAPE     N16738   3.447   0.354   6.849 -0.3951 -0.1059  0.5445
  152SAPE   HN116739   3.488   0.448   6.867 -0.8447 -0.1575  1.9042
  152SAPE   HN216740   3.420   0.326   6.945  2.1967  0.7302  1.5980
  152SAPE   HN316741   3.518   0.281   6.827 -0.9510 -0.1396 -1.3202
  152SAPE   C1216742   3.342   0.352   6.740 -0.0363  0.4229 -0.1943
  152SAPE  H12A16743   3.308   0.248   6.718  2.4825 -0.4034 -0.5145
  152SAPE  H12B16744   3.387   0.384   6.643  2.6491  1.6844  1.3541
  152SAPE   C1116745   3.226   0.441   6.777  0.2401  0.0677 -0.1342
  152SAPE  H11A16746   3.147   0.434   6.700 -1.3350 -0.0734  1.4387
  152SAPE  H11B16747   3.261   0.547   6.781 -0.1531  0.1789  0.3868
  152SAPE     P16748   3.067   0.293   6.921  0.1496 -0.0316 -0.2138
  152SAPE   O1316749   3.124   0.191   7.013 -0.0156 -0.0878 -0.7202
  152SAPE   O1416750   2.938   0.348   6.962  0.7750 -0.5224  0.3733
  152SAPE   O1216751   3.175   0.411   6.909  0.4025  0.2924  0.2893
  152SAPE   O1116752   3.050   0.236   6.780  0.2756  0.5810 -0.1179
  152SAPE    C116753   3.028   0.098   6.757 -0.3726  0.1674  0.8326
  152SAPE    HA16754   3.090   0.034   6.824  0.4722 -1.4599 -1.3981
  152SAPE    HB16755   2.927   0.069   6.794 -0.3154 -1.7302 -0.4162
  152SAPE    C216756   3.052   0.055   6.609  0.3568  0.0881 -1.2180
  152SAPE    HS16757   3.067  -0.055   6.608  1.9486  0.2280  0.5633
  152SAPE   O2116758   3.163   0.122   6.558 -0.3918 -0.1862  0.4020
  152SAPE   C2116759   3.232   0.053   6.466  0.2067 -0.8640  0.5386
  152SAPE   O2216760   3.218  -0.061   6.433 -0.6281  0.2873  0.1124
  152SAPE   C2216761   3.345   0.133   6.403  0.0314 -0.4858 -0.2665
  152SAPE   H2R16762   3.292   0.222   6.365 -2.6433 -2.4913 -1.6004
  152SAPE   H2S16763   3.426   0.164   6.472 -0.3970 -0.9513  0.4590
  152SAPE    C316764   2.935   0.097   6.519  0.2169  0.5007  0.0572
  152SAPE    HX16765   2.895   0.198   6.544 -2.6755  0.1461 -2.6245
  152SAPE    HY16766   2.851   0.030   6.547  1.9970 -2.9315 -2.1104
  152SAPE   O3116767   2.957   0.085   6.379  0.0057  0.5177 -0.3932
  152SAPE   C3116768   2.924  -0.037   6.329  0.0042  0.1021 -0.5400
  152SAPE   O3216769   2.887  -0.128   6.401 -0.0755 -0.1744 -0.3251
  152SAPE   C3216770   2.937  -0.034   6.178 -0.6801  0.2875  0.2936
  152SAPE   H2X16771   2.991  -0.122   6.137 -0.6144  0.8637 -0.8981
  152SAPE   H2Y16772   2.990   0.056   6.141 -1.7800  0.4451 -0.9787
  152SAPE   C2316773   3.412   0.070   6.282 -0.3793  1.1493  0.2800
  152SAPE   H3R16774   3.332   0.069   6.204  0.2783  1.2934 -0.4103
  152SAPE   H3S16775   3.457  -0.030   6.297 -2.3136  0.0767 -0.6226
  152SAPE   C2416776   3.527   0.162   6.219  0.6111  0.5470 -0.1546
  152SAPE   H4R16777   3.605   0.182   6.296  1.7382  2.8239 -1.7632
  152SAPE   H4S16778   3.483   0.258   6.184 -1.1061 -0.0447  0.2736
  152SAPE   C2516779   3.593   0.079   6.111 -0.0506  0.1521 -0.7163
  152SAPE   H5R16780   3.664   0.009   6.158 -0.7455 -0.6955 -0.9042
  152SAPE   C2616781   3.560   0.070   5.984  1.4304  0.0113  1.0792
  152SAPE   H6R16782   3.598  -0.014   5.925 -0.7681 -0.8876  0.8711
  152SAPE   C2716783   3.453   0.160   5.913  0.8513 -0.1892  0.6604
  152SAPE   H7R16784   3.504   0.232   5.845 -0.4423 -0.0612 -0.1983
  152SAPE   H7S16785   3.413   0.221   5.998  0.4509 -1.4321  1.3930
  152SAPE   C2816786   3.340   0.085   5.857 -0.7532  0.1435  1.1614
  152SAPE   H8R16787   3.308  -0.000   5.919 -0.3222 -2.6227 -2.1505
  152SAPE   C2916788   3.254   0.132   5.760 -0.1375  0.4834  0.1893
  152SAPE   H9R16789   3.167   0.067   5.741  0.9059 -1.4000  1.5495
  152SAPE  C21016790   3.279   0.262   5.683  0.8824  0.6785 -0.3086
  152SAPE  H10R16791   3.356   0.320   5.738  0.1933  0.3531  1.0387
  152SAPE  H10S16792   3.185   0.321   5.682  0.6417  0.3082  0.1058
  152SAPE  C21116793   3.334   0.238   5.544  0.2012 -0.4334  0.6120
  152SAPE  H11R16794   3.437   0.203   5.554  1.0481  2.1104  1.6091
  152SAPE  C21216795   3.268   0.260   5.428  0.6231 -0.5223 -0.0701
  152SAPE  H12R16796   3.323   0.248   5.333  1.5970 -0.0206  0.4072
  152SAPE  C21316797   3.123   0.315   5.410  0.4140 -0.2540  0.0044
  152SAPE  H13R16798   3.098   0.376   5.500  0.6683 -0.7516  0.4212
  152SAPE  H13S16799   3.061   0.225   5.427  0.2959  0.0809  1.5303
  152SAPE  C21416800   3.071   0.384   5.286  0.5571  0.1969 -0.6240
  152SAPE  H14R16801   3.005   0.469   5.309 -0.3392 -1.0866  2.0069
  152SAPE  C21516802   3.057   0.341   5.160  0.3403  1.0359 -0.2227
  152SAPE  H15R16803   3.012   0.406   5.084 -1.1653 -0.6792 -0.8777
  152SAPE  C21616804   3.119   0.220   5.101 -0.7262 -0.4568  0.1296
  152SAPE  H16R16805   3.049   0.172   5.030  1.4950  0.3528 -2.8023
  152SAPE  H16S16806   3.147   0.148   5.181 -0.5060  1.2064  1.6292
  152SAPE  C21716807   3.246   0.254   5.021  0.7226  0.3459 -0.1655
  152SAPE  H17R16808   3.323   0.302   5.085  0.6896 -1.1348  1.0302
  152SAPE  H17S16809   3.220   0.326   4.940  0.0072  0.2460 -0.0295
  152SAPE  C21816810   3.294   0.125   4.956  0.1858 -0.2756 -0.0195
  152SAPE  H18R16811   3.211   0.071   4.905  2.4932 -3.3846 -0.7591
  152SAPE  H18S16812   3.319   0.052   5.036  0.6799 -0.1805 -0.0872
  152SAPE  C21916813   3.410   0.159   4.867  0.5037  0.3497  0.5022
  152SAPE  H19R16814   3.382   0.224   4.781  2.9729 -0.7750 -1.2798
  152SAPE  H19S16815   3.430   0.065   4.811 -0.5230  1.1572 -1.3032
  152SAPE  C22016816   3.538   0.211   4.943 -0.3613 -0.8486  0.0356
  152SAPE  H20R16817   3.518   0.313   4.979  0.6335 -1.0649  1.2681
  152SAPE  H20S16818   3.623   0.214   4.872 -1.3437  2.1417 -1.1591
  152SAPE  H20T16819   3.569   0.147   5.029 -0.3942 -0.3775  0.3995
  152SAPE   C3316820   2.807  -0.025   6.101  0.3125  0.1940 -0.6663
  152SAPE   H3X16821   2.756   0.070   6.126  0.3995  0.3674 -1.1434
  152SAPE   H3Y16822   2.733  -0.106   6.120  2.2353 -1.9324 -1.7229
  152SAPE   C3416823   2.826  -0.016   5.949 -0.4783 -0.2735  0.3490
  152SAPE   H4X16824   2.866  -0.111   5.908 -0.7844  0.1568 -0.9923
  152SAPE   H4Y16825   2.907   0.060   5.937 -0.2321 -1.0168 -4.4194
  152SAPE   C3516826   2.713   0.043   5.866  0.1951 -0.0917 -0.5175
  152SAPE   H5X16827   2.665   0.126   5.922  2.0186  0.8022 -0.1885
  152SAPE   H5Y16828   2.630  -0.026   5.841 -0.7731  0.7412  0.3216
  152SAPE   C3616829   2.763   0.094   5.730 -0.6882  0.6091  0.0746
  152SAPE   H6X16830   2.810   0.021   5.661 -0.7159  1.0990 -0.4787
  152SAPE   H6Y16831   2.832   0.178   5.754  1.0659 -0.8810  0.5105
  152SAPE   C3716832   2.649   0.166   5.649  0.0399  0.6284 -1.1352
  152SAPE   H7X16833   2.694   0.208   5.556  1.4980 -0.9581 -1.1890
  152SAPE   H7Y16834   2.600   0.237   5.719 -1.7857 -2.5489  1.0128
  152SAPE   C3816835   2.526   0.081   5.592 -0.4166 -0.1048  0.2685
  152SAPE   H8X16836   2.454   0.065   5.675  0.0952 -1.5239  0.4740
  152SAPE   H8Y16837   2.555  -0.017   5.547 -1.8794 -0.4407  0.0092
  152SAPE   C3916838   2.461   0.151   5.470  0.7687  0.0925  0.1001
  152SAPE   H9X16839   2.533   0.145   5.386  0.2880  0.5200 -0.3508
  152SAPE   H9Y16840   2.435   0.258   5.489 -0.5013  0.3424 -2.5084
  152SAPE  C31016841   2.323   0.082   5.434 -0.0939 -0.8098  0.5705
  152SAPE  H10X16842   2.250   0.093   5.516  1.1254 -0.4392  1.6423
  152SAPE  H10Y16843   2.332  -0.027   5.415 -1.1375 -0.8532  0.2833
  152SAPE  C31116844   2.260   0.145   5.302  0.1910  0.1733  0.6770
  152SAPE  H11X16845   2.322   0.113   5.216 -0.6748 -2.1974  0.8574
  152SAPE  H11Y16846   2.264   0.254   5.324  1.3509  0.1870  0.4679
  152SAPE  C31216847   2.114   0.093   5.271 -0.0124  0.0738  0.0205
  152SAPE  H12X16848   2.112  -0.016   5.289 -1.7922 -0.2734 -1.9832
  152SAPE  H12Y16849   2.097   0.102   5.162 -2.9269 -1.6528  0.2357
  152SAPE  C31316850   2.003   0.167   5.354  0.2283  0.4269  0.2153
  152SAPE  H13X16851   1.985   0.269   5.312  0.2288  0.0875 -0.6377
  152SAPE  H13Y16852   2.023   0.192   5.460 -0.8080 -0.8306  0.7329
  152SAPE  C31416853   1.880   0.081   5.352 -0.1255  1.0321  0.3428
  152SAPE  H14X16854   1.820   0.125   5.435 -1.0753  0.7458 -0.1838
  152SAPE  H14Y16855   1.910  -0.025   5.368  1.4097  0.9769 -2.3690
  152SAPE  C31516856   1.802   0.097   5.218 -0.0410  0.0139 -0.1808
  152SAPE  H15X16857   1.874   0.081   5.134 -0.1977  1.2227 -0.5738
  152SAPE  H15Y16858   1.778   0.205   5.207 -1.0729 -0.1966 -0.0766
  152SAPE  C31616859   1.677   0.011   5.211  0.0478  0.0325  0.3938
  152SAPE  H16X16860   1.617   0.071   5.140 -0.1044 -0.9191 -0.3126
  152SAPE  H16Y16861   1.623   0.015   5.307 -0.3907  2.1933  0.1028
  152SAPE  C31716862   1.694  -0.134   5.161 -0.0687  0.8095 -0.0260
  152SAPE  H17X16863   1.687  -0.195   5.254  1.4458 -0.6597 -0.8245
  152SAPE  H17Y16864   1.792  -0.144   5.111 -0.5230  0.9411 -0.9600
  152SAPE  C31816865   1.584  -0.193   5.062 -0.8726 -0.3649 -0.6807
  152SAPE  H18X16866   1.596  -0.303   5.050 -2.2522 -0.8624  1.8593
  152SAPE  H18Y16867   1.597  -0.141   4.965 -1.0810 -0.8667 -0.9851
  152SAPE  H18Z16868   1.483  -0.172   5.103 -1.0118  0.1986 -1.2975
  153SAPE     N16869   0.465   6.815   7.076  0.4138  0.0351 -0.1976
  153SAPE   HN116870   0.377   6.766   7.102 -0.1568 -0.4324 -2.7913
  153SAPE   HN216871   0.516   6.854   7.158 -0.3259  1.4146 -0.3592
  153SAPE   HN316872   0.437   6.893   7.013  1.3519 -0.4748 -1.2693
  153SAPE   C1216873   0.549   6.724   6.990 -0.3599  0.0811  0.3355
  153SAPE  H12A16874   0.604   6.657   7.059 -0.8882 -2.4205 -1.5562
  153SAPE  H12B16875   0.612   6.795   6.933  1.8529 -2.8584 -1.0904
  153SAPE   C1116876   0.463   6.631   6.900 -0.0109  0.0734 -0.3078
  153SAPE  H11A16877   0.522   6.549   6.854  0.1495 -0.4393  0.7907
  153SAPE  H11B16878   0.414   6.695   6.823  1.1410  0.9720 -0.3186
  153SAPE     P16879   0.388   6.421   7.030  0.0481 -0.2286  0.2724
  153SAPE   O1316880   0.519   6.428   7.099 -0.0651  0.0294  0.5321
  153SAPE   O1416881   0.278   6.378   7.117  0.7314  0.0982 -0.3672
  153SAPE   O1216882   0.358   6.569   6.976  0.0538 -0.0420  0.2831
  153SAPE   O1116883   0.379   6.326   6.901  0.0195  0.5188 -0.8702
  153SAPE    C116884   0.305   6.367   6.793  0.6661  0.0291 -0.0958
  153SAPE    HA16885   0.208   6.312   6.794  1.0183 -0.6497  2.2343
  153SAPE    HB16886   0.283   6.475   6.783  0.8714  0.0663 -0.1547
  153SAPE    C216887   0.364   6.328   6.655  0.1544  0.1246 -0.4787
  153SAPE    HS16888   0.358   6.219   6.639  0.4213  0.4464 -3.1353
  153SAPE   O2116889   0.500   6.375   6.641 -0.5529  0.2201  0.1768
  153SAPE   C2116890   0.591   6.288   6.687 -0.1317 -0.0160 -0.0499
  153SAPE   O2216891   0.567   6.174   6.728  0.4214 -0.2217 -0.2838
  153SAPE   C2216892   0.726   6.335   6.648  0.2421 -0.7740  0.2230
  153SAPE   H2R16893   0.748   6.437   6.686  4.1367 -1.0033 -0.9639
  153SAPE   H2S16894   0.805   6.272   6.695 -0.4364  0.1222  2.7023
  153SAPE    C316895   0.281   6.389   6.547  0.3127 -0.3999  0.1429
  153SAPE    HX16896   0.264   6.498   6.564  0.5574  0.0152 -1.9785
  153SAPE    HY16897   0.176   6.353   6.549 -0.7536  2.4361  1.4533
  153SAPE   O3116898   0.335   6.369   6.418  0.4068  0.7200 -0.2560
  153SAPE   C3116899   0.319   6.258   6.356 -0.3508  0.4789  0.4026
  153SAPE   O3216900   0.264   6.162   6.407  0.0373  0.5243 -0.1537
  153SAPE   C3216901   0.385   6.269   6.219 -0.0763  0.1856 -0.2717
  153SAPE   H2X16902   0.492   6.239   6.221  0.4029  1.5782 -2.2533
  153SAPE   H2Y16903   0.387   6.372   6.176  0.2153 -0.4829 -1.9508
  153SAPE   C2316904   0.738   6.336   6.490  0.0066 -0.5280 -0.2660
  153SAPE   H3R16905   0.639   6.371   6.455 -0.5845 -0.7210  1.1361
  153SAPE   H3S16906   0.746   6.233   6.447 -2.5606 -1.3529  1.0137
  153SAPE   C2416907   0.838   6.442   6.446  0.2162  0.1137  1.0628
  153SAPE   H4R16908   0.792   6.539   6.473 -0.2912  0.0507  0.4469
  153SAPE   H4S16909   0.827   6.440   6.336  1.7223  0.4325  0.8938
  153SAPE   C2516910   0.979   6.434   6.498  0.7909 -0.1664  0.5061
  153SAPE   H5R16911   0.995   6.466   6.602  1.1035  1.4753 -0.0097
  153SAPE   C2616912   1.086   6.380   6.435 -0.0650 -0.3840  0.1588
  153SAPE   H6R16913   1.176   6.363   6.496 -1.5837 -3.5828  1.7427
  153SAPE   C2716914   1.079   6.339   6.288 -0.1531 -0.0833 -0.6336
  153SAPE   H7R16915   0.993   6.269   6.286 -1.1651  1.0557  1.0593
  153SAPE   H7S16916   1.172   6.285   6.260 -0.1065 -0.6501  0.5479
  153SAPE   C2816917   1.077   6.449   6.196 -0.3110 -0.3110 -0.3225
  153SAPE   H8R16918   1.133   6.540   6.223 -2.5680  1.8241 -2.2887
  153SAPE   C2916919   0.996   6.456   6.090  0.0977 -0.0392  0.1242
  153SAPE   H9R16920   1.010   6.548   6.032  1.0782  2.1818  3.5828
  153SAPE  C21016921   0.910   6.333   6.036 -1.1842 -0.3258 -0.3323
  153SAPE  H10R16922   0.801   6.334   6.059 -1.3380 -3.3821 -0.5514
  153SAPE  H10S16923   0.944   6.237   6.080  0.0856  0.8770  1.4384
  153SAPE  C21116924   0.933   6.317   5.890  0.9197  0.8532  0.0605
  153SAPE  H11R16925   1.023   6.366   5.849  2.1744 -2.1961 -1.0974
  153SAPE  C21216926   0.853   6.249   5.810 -0.8047  0.4348 -0.5149
  153SAPE  H12R16927   0.869   6.258   5.701  0.5506 -0.6649 -0.4373
  153SAPE  C21316928   0.726   6.172   5.838 -0.5878 -0.7893  0.0163
  153SAPE  H13R16929   0.643   6.242   5.819 -2.1220 -2.5763 -0.1126
  153SAPE  H13S16930   0.724   6.128   5.940  1.7252  1.3064  1.0729
  153SAPE  C21416931   0.698   6.062   5.735  0.5148 -0.7330 -0.7567
  153SAPE  H14R16932   0.710   6.086   5.628  0.8489 -0.3125 -0.6271
  153SAPE  C21516933   0.655   5.945   5.769  0.0528  0.3523 -0.0100
  153SAPE  H15R16934   0.631   5.880   5.684  0.5084  1.1791 -0.7896
  153SAPE  C21616935   0.613   5.905   5.908 -0.2484 -0.9878  0.0720
  153SAPE  H16R16936   0.547   5.817   5.898  1.3832 -2.3086  0.3948
  153SAPE  H16S16937   0.553   5.982   5.961  2.0783 -0.3802  1.9855
  153SAPE  C21716938   0.711   5.863   6.017 -0.6545  0.1320 -0.5070
  153SAPE  H17R16939   0.783   5.942   6.050  1.9155 -2.5534  0.7873
  153SAPE  H17S16940   0.773   5.795   5.956 -0.5867 -1.4573  1.2489
  153SAPE  C21816941   0.655   5.783   6.145 -0.0395 -0.3908 -0.1804
  153SAPE  H18R16942   0.745   5.756   6.203 -0.8018 -3.5604 -0.3134
  153SAPE  H18S16943   0.601   5.692   6.111 -2.1063  0.8366 -0.3743
  153SAPE  C21916944   0.553   5.869   6.221  0.2340 -0.2076 -0.5128
  153SAPE  H19R16945   0.462   5.893   6.162  1.0355 -1.0393 -2.1525
  153SAPE  H19S16946   0.601   5.961   6.263  0.5266 -1.5678  2.4205
  153SAPE  C22016947   0.487   5.789   6.338  0.1637  0.2353 -0.6572
  153SAPE  H20R16948   0.463   5.682   6.317 -0.6444  0.2409  0.1664
  153SAPE  H20S16949   0.390   5.836   6.366 -0.3745 -1.9872  1.5251
  153SAPE  H20T16950   0.561   5.802   6.420  1.2299  0.1504 -1.5890
  153SAPE   C3316951   0.305   6.191   6.107  0.9458  0.5342  0.3368
  153SAPE   H3X16952   0.201   6.230   6.110  0.7623  0.0726  0.0825
  153SAPE   H3Y16953   0.303   6.081   6.120  1.5781  0.4368 -0.3308
  153SAPE   C3416954   0.360   6.235   5.968  0.9428 -0.0108 -0.4086
  153SAPE   H4X16955   0.465   6.202   5.952  1.3489  1.2000 -0.3720
  153SAPE   H4Y16956   0.354   6.346   5.969 -1.0694 -0.0034 -2.6376
  153SAPE   C3516957   0.262   6.174   5.867 -0.2361 -1.0187 -0.8356
  153SAPE   H5X16958   0.161   6.178   5.915  0.1867 -0.6443  0.0396
  153SAPE   H5Y16959   0.300   6.070   5.860 -1.1230 -1.6185  1.9213
  153SAPE   C3616960   0.243   6.247   5.725 -0.1834  0.2781 -0.1258
  153SAPE   H6X16961   0.339   6.296   5.698  1.3863 -1.1916  2.3418
  153SAPE   H6Y16962   0.177   6.335   5.740 -4.2798 -2.2676 -1.7607
  153SAPE   C3716963   0.195   6.162   5.612  0.1566 -0.1662  0.1075
  153SAPE   H7X16964   0.090   6.135   5.637  0.0653 -0.7226 -0.8345
  153SAPE   H7Y16965   0.264   6.075   5.611  1.0158  0.4948  0.5766
  153SAPE   C3816966   0.192   6.239   5.480  0.5346 -0.4652  0.2058
  153SAPE   H8X16967   0.289   6.292   5.495  0.3786 -0.1288  0.0307
  153SAPE   H8Y16968   0.100   6.300   5.487  0.3260 -0.5037 -1.7798
  153SAPE   C3916969   0.209   6.146   5.362  0.0126  0.6280 -0.6985
  153SAPE   H9X16970   0.132   6.068   5.380  0.7048  0.4546  2.0039
  153SAPE   H9Y16971   0.311   6.101   5.365 -0.7335 -1.1657 -0.9758
  153SAPE  C31016972   0.182   6.212   5.223  0.9041  0.2638 -0.5618
  153SAPE  H10X16973   0.091   6.276   5.228 -2.4047 -3.9537  2.3596
  153SAPE  H10Y16974   0.165   6.132   5.147 -0.0171 -0.9979  0.9030
  153SAPE  C31116975   0.288   6.305   5.170 -0.3025 -0.7315 -0.2338
  153SAPE  H11X16976   0.382   6.246   5.161  0.4981 -0.2232  3.3432
  153SAPE  H11Y16977   0.308   6.388   5.241  1.3365 -0.8788 -0.4823
  153SAPE  C31216978   0.247   6.387   5.044 -0.0661 -0.5951 -0.3468
  153SAPE  H12X16979   0.172   6.467   5.064  0.9365 -0.0622  1.5809
  153SAPE  H12Y16980   0.191   6.315   4.980  2.1674  0.0047 -3.1613
  153SAPE  C31316981   0.377   6.421   4.964  0.1449 -0.6674  0.2148
  153SAPE  H13X16982   0.347   6.431   4.858  1.9394 -3.2532 -0.6484
  153SAPE  H13Y16983   0.443   6.331   4.968  0.5465 -0.3295  2.0020
  153SAPE  C31416984   0.454   6.547   5.030 -0.8539  0.3486  1.3791
  153SAPE  H14X16985   0.490   6.517   5.131  0.7040  0.9427  1.0310
  153SAPE  H14Y16986   0.383   6.633   5.031  1.9084  2.7796  1.7549
  153SAPE  C31516987   0.578   6.574   4.943  0.4590  0.4154 -0.1359
  153SAPE  H15X16988   0.554   6.596   4.837  2.7753 -1.1502 -1.0726
  153SAPE  H15Y16989   0.627   6.474   4.948 -0.0965  0.1822  0.8970
  153SAPE  C31616990   0.670   6.674   5.000 -0.3476 -0.0533  0.3633
  153SAPE  H16X16991   0.689   6.646   5.106 -1.3143 -1.2938  0.2318
  153SAPE  H16Y16992   0.618   6.772   5.010 -0.7208 -0.2632  0.4967
  153SAPE  C31716993   0.802   6.689   4.918 -0.0449 -0.1139 -0.3225
  153SAPE  H17X16994   0.773   6.741   4.823 -0.9471  0.2840  0.1552
  153SAPE  H17Y16995   0.837   6.587   4.892 -0.3810 -0.5455  0.8711
  153SAPE  C31816996   0.924   6.755   4.991  1.0026  0.1799 -0.4324
  153SAPE  H18X16997   1.014   6.765   4.927  1.5233  1.8739  0.5041
  153SAPE  H18Y16998   0.946   6.702   5.086 -0.8720 -2.2085 -1.2360
  153SAPE  H18Z16999   0.878   6.854   5.015 -1.4387 -1.4562  2.1769
  154SAPE     N17000   6.387   4.834   7.305 -0.0657 -0.7305 -0.0504
  154SAPE   HN117001   6.410   4.806   7.208  0.0040  0.0034 -0.2482
  154SAPE   HN217002   6.380   4.754   7.372 -1.2029 -2.3013 -1.9370
  154SAPE   HN317003   6.298   4.886   7.292  0.5326 -0.0278 -1.6035
  154SAPE   C1217004   6.466   4.946   7.357 -0.4687  0.4162 -0.3462
  154SAPE  H12A17005   6.570   4.915   7.380 -0.5941  0.8800  0.9234
  154SAPE  H12B17006   6.418   4.971   7.454 -2.0685 -1.3241 -0.6229
  154SAPE   C1117007   6.458   5.077   7.270  0.1277  0.5182  0.2926
  154SAPE  H11A17008   6.508   5.051   7.174 -0.4283 -1.6467  0.5376
  154SAPE  H11B17009   6.510   5.158   7.326 -1.8976  0.3661  2.5230
  154SAPE     P17010   6.234   5.203   7.318  0.3500 -0.3249 -0.1088
  154SAPE   O1317011   6.234   5.152   7.455 -0.2606 -0.5642 -0.4250
  154SAPE   O1417012   6.282   5.340   7.298 -0.5460  0.0084  0.2084
  154SAPE   O1217013   6.325   5.104   7.232  0.3545  0.5553  0.1468
  154SAPE   O1117014   6.096   5.173   7.246 -0.3268 -0.4363  0.3420
  154SAPE    C117015   6.051   5.247   7.137  0.0172 -0.7817  0.4750
  154SAPE    HA17016   5.956   5.301   7.159  0.5198 -0.2241  1.3365
  154SAPE    HB17017   6.119   5.329   7.106  0.1962 -1.3165 -0.5792
  154SAPE    C217018   6.028   5.165   7.012 -0.4819  0.0237  0.4100
  154SAPE    HS17019   5.972   5.077   7.051  0.8960 -0.8795  0.3982
  154SAPE   O2117020   6.162   5.128   6.958  0.1541  0.0390  0.1296
  154SAPE   C2117021   6.182   5.017   6.904 -0.7150  0.3753 -0.2791
  154SAPE   O2217022   6.105   4.925   6.894 -0.4421  0.2547  0.1115
  154SAPE   C2217023   6.328   5.013   6.861 -0.4681 -0.2068 -0.3584
  154SAPE   H2R17024   6.383   5.103   6.895 -1.2850  0.5303 -0.9566
  154SAPE   H2S17025   6.372   4.917   6.896  0.1560  0.3751  0.5085
  154SAPE    C317026   5.943   5.235   6.900 -0.2993 -0.3018  0.8397
  154SAPE    HX17027   5.988   5.333   6.874  0.5276 -0.3812  1.8703
  154SAPE    HY17028   5.839   5.250   6.936 -0.1321 -0.1285  1.2590
  154SAPE   O3117029   5.935   5.160   6.775 -0.8806 -0.2149 -1.2504
  154SAPE   C3117030   5.841   5.070   6.758 -0.1931 -0.4097  0.4426
  154SAPE   O3217031   5.748   5.042   6.830 -0.0077  0.0241  0.2807
  154SAPE   C3217032   5.880   4.998   6.629 -0.2215  0.2279  0.4339
  154SAPE   H2X17033   5.984   4.960   6.636 -0.5650 -1.4560 -2.2782
  154SAPE   H2Y17034   5.889   5.076   6.550  1.3833 -1.2457 -0.9280
  154SAPE   C2317035   6.328   4.995   6.700 -0.3790  0.0494 -0.0484
  154SAPE   H3R17036   6.255   4.914   6.680 -0.8063  0.3507  0.2721
  154SAPE   H3S17037   6.424   4.948   6.670  0.1132  0.0141  1.5054
  154SAPE   C2417038   6.296   5.123   6.625 -0.3994  0.5396  0.8940
  154SAPE   H4R17039   6.362   5.206   6.661  0.0351 -0.0805  1.5579
  154SAPE   H4S17040   6.193   5.158   6.649 -0.7359 -0.0794  0.3699
  154SAPE   C2517041   6.294   5.093   6.477  0.0655  0.3390 -0.6300
  154SAPE   H5R17042   6.238   5.007   6.437  1.2433  0.4928 -2.8082
  154SAPE   C2617043   6.364   5.163   6.389 -0.3288 -0.0919  0.6124
  154SAPE   H6R17044   6.351   5.137   6.282  0.7341 -0.6236  0.6032
  154SAPE   C2717045   6.445   5.286   6.408 -0.0073 -0.1800  0.5192
  154SAPE   H7R17046   6.547   5.257   6.440  0.7061  1.6966  0.0624
  154SAPE   H7S17047   6.400   5.336   6.496 -0.4149 -0.6389  0.5774
  154SAPE   C2817048   6.468   5.384   6.301  0.5546  0.4452  0.2171
  154SAPE   H8R17049   6.432   5.486   6.316  3.6174  1.7982 -0.7101
  154SAPE   C2917050   6.546   5.369   6.203 -0.4527 -0.3137  0.7754
  154SAPE   H9R17051   6.565   5.460   6.144  1.5834 -0.8090  0.5913
  154SAPE  C21017052   6.638   5.245   6.164  0.2159 -0.4205 -0.3518
  154SAPE  H10R17053   6.578   5.187   6.090 -0.9703 -2.1102  1.8129
  154SAPE  H10S17054   6.643   5.185   6.257  0.5894 -0.1793 -0.2135
  154SAPE  C21117055   6.777   5.277   6.114  0.2522 -0.0216 -0.4018
  154SAPE  H11R17056   6.858   5.292   6.187  0.6213  0.8151 -0.9713
  154SAPE  C21217057   6.803   5.332   5.994 -0.9158 -0.1476  0.5999
  154SAPE  H12R17058   6.908   5.358   5.971 -1.0545 -0.0866  0.0257
  154SAPE  C21317059   6.706   5.365   5.883 -0.5335  0.1967 -0.2819
  154SAPE  H13R17060   6.687   5.474   5.875  0.8292  0.3223 -2.7334
  154SAPE  H13S17061   6.606   5.321   5.904 -0.0491 -0.5769  0.4679
  154SAPE  C21417062   6.757   5.315   5.741  0.0680  0.3449 -0.2270
  154SAPE  H14R17063   6.818   5.223   5.743 -1.1777 -0.5214  1.6012
  154SAPE  C21517064   6.712   5.360   5.623 -0.7795  0.5129 -0.5061
  154SAPE  H15R17065   6.776   5.331   5.538 -0.6930 -3.3356  0.6791
  154SAPE  C21617066   6.606   5.466   5.602 -0.0835 -0.0207 -0.0240
  154SAPE  H16R17067   6.540   5.457   5.691  0.7249 -0.1131  0.5766
  154SAPE  H16S17068   6.542   5.435   5.516 -0.5555 -0.4386  0.4683
  154SAPE  C21717069   6.648   5.610   5.591 -0.4161  0.2142  0.3127
  154SAPE  H17R17070   6.708   5.629   5.683  0.4511 -0.9793  0.0133
  154SAPE  H17S17071   6.568   5.687   5.604 -0.8695 -0.6877  3.8946
  154SAPE  C21817072   6.729   5.647   5.462 -0.9613 -0.4592 -0.6567
  154SAPE  H18R17073   6.684   5.605   5.369 -0.4485 -0.4790 -0.9041
  154SAPE  H18S17074   6.831   5.604   5.463  0.2244  2.1042 -1.3292
  154SAPE  C21917075   6.754   5.800   5.442  0.3539 -0.7238  0.7343
  154SAPE  H19R17076   6.828   5.828   5.520  0.2974 -3.8082  2.0380
  154SAPE  H19S17077   6.657   5.854   5.447  0.7993  0.6155 -2.5453
  154SAPE  C22017078   6.799   5.836   5.296  0.1869  0.5441 -0.2419
  154SAPE  H20R17079   6.853   5.934   5.300 -0.7097  1.0224  1.7342
  154SAPE  H20S17080   6.719   5.832   5.219 -0.3691 -0.3563  0.3681
  154SAPE  H20T17081   6.877   5.763   5.265  0.7441  1.1884 -0.3945
  154SAPE   C3317082   5.794   4.881   6.591 -0.4691  0.1680 -0.8548
  154SAPE   H3X17083   5.687   4.914   6.593 -0.6131 -0.2294 -1.6736
  154SAPE   H3Y17084   5.805   4.804   6.670 -1.1588  0.4928 -0.4257
  154SAPE   C3417085   5.810   4.820   6.450 -0.0644 -0.0740 -0.6088
  154SAPE   H4X17086   5.738   4.736   6.441 -1.5856  1.0294  0.7400
  154SAPE   H4Y17087   5.913   4.778   6.449  0.6286  1.5521 -1.1613
  154SAPE   C3517088   5.773   4.911   6.331  0.0487 -0.3170 -0.3824
  154SAPE   H5X17089   5.827   5.007   6.317 -1.0206  0.5982  1.4825
  154SAPE   H5Y17090   5.669   4.950   6.338  0.4135  0.7020 -0.5002
  154SAPE   C3617091   5.800   4.828   6.197  0.5310  0.4416  0.0268
  154SAPE   H6X17092   5.711   4.768   6.167  0.8502 -0.2956  0.5292
  154SAPE   H6Y17093   5.883   4.756   6.208  1.2024  0.8427 -1.9741
  154SAPE   C3717094   5.805   4.923   6.076 -0.1615  0.0275  0.1726
  154SAPE   H7X17095   5.883   5.002   6.086  1.2443 -1.4315  1.1701
  154SAPE   H7Y17096   5.701   4.962   6.073 -0.5061 -0.5501  2.6107
  154SAPE   C3817097   5.836   4.853   5.938  0.0490 -0.2430 -0.0505
  154SAPE   H8X17098   5.772   4.763   5.935  0.4989 -0.5784  0.2232
  154SAPE   H8Y17099   5.941   4.816   5.949  0.8450  1.7934 -0.3234
  154SAPE   C3917100   5.817   4.940   5.815 -0.5737  0.3902 -0.5435
  154SAPE   H9X17101   5.883   5.027   5.834  1.5159 -1.2065 -0.1188
  154SAPE   H9Y17102   5.717   4.988   5.817  0.4139  2.5173  1.0035
  154SAPE  C31017103   5.833   4.866   5.680 -0.2139 -0.3398 -0.4749
  154SAPE  H10X17104   5.768   4.777   5.667 -1.2211  0.5657 -1.7787
  154SAPE  H10Y17105   5.938   4.830   5.673 -0.1134 -0.3094  0.6341
  154SAPE  C31117106   5.811   4.965   5.560 -0.7080 -0.5972 -0.0727
  154SAPE  H11X17107   5.865   5.061   5.573 -1.0514 -0.3706 -0.3034
  154SAPE  H11Y17108   5.705   4.997   5.567  0.0306  1.8901  0.6114
  154SAPE  C31217109   5.825   4.898   5.421 -0.2576 -0.8495  0.8503
  154SAPE  H12X17110   5.739   4.832   5.397  1.6201 -2.5974 -1.6087
  154SAPE  H12Y17111   5.918   4.838   5.421  1.8724  2.2377  0.9982
  154SAPE  C31317112   5.836   4.996   5.301 -0.8018 -0.3009  0.0235
  154SAPE  H13X17113   5.838   4.932   5.211  1.6775 -0.9719  0.4758
  154SAPE  H13Y17114   5.937   5.043   5.308 -0.2935 -1.2287 -0.8034
  154SAPE  C31417115   5.728   5.097   5.284 -0.3534  0.2618 -0.2509
  154SAPE  H14X17116   5.732   5.145   5.384  2.7348  0.1559 -0.2207
  154SAPE  H14Y17117   5.629   5.050   5.266 -0.1237 -0.9472  1.4173
  154SAPE  C31517118   5.760   5.205   5.170  0.2250  0.1631 -0.6526
  154SAPE  H15X17119   5.858   5.248   5.199 -0.0338  0.8948 -0.8506
  154SAPE  H15Y17120   5.681   5.282   5.183  1.3558  1.0273  1.5664
  154SAPE  C31617121   5.740   5.157   5.026  0.7836  0.2280  0.6623
  154SAPE  H16X17122   5.818   5.081   5.006  2.5792  1.9655  0.7186
  154SAPE  H16Y17123   5.769   5.233   4.951  0.3756 -0.3478 -0.0899
  154SAPE  C31717124   5.608   5.103   4.982 -0.1787  0.1904  0.1480
  154SAPE  H17X17125   5.597   5.007   5.036 -0.4202  0.3337  0.3539
  154SAPE  H17Y17126   5.604   5.091   4.872 -0.9490  0.0498  0.1905
  154SAPE  C31817127   5.495   5.192   5.026  0.1480 -0.0730 -0.2458
  154SAPE  H18X17128   5.509   5.296   4.989  0.1136 -0.6407 -1.9448
  154SAPE  H18Y17129   5.481   5.197   5.136 -0.0640 -1.1127 -0.2119
  154SAPE  H18Z17130   5.401   5.146   4.989 -0.5323 -0.5762  1.9461
  155SAPE     N17131   2.538   0.607   6.861 -0.0531  0.2670 -0.0554
  155SAPE   HN117132   2.629   0.602   6.810  0.1881 -1.3741  0.5012
  155SAPE   HN217133   2.495   0.515   6.838  0.0070 -0.1558  1.4056
  155SAPE   HN317134   2.478   0.684   6.825  1.3621  1.1592 -0.5874
  155SAPE   C1217135   2.555   0.623   7.014  0.9328 -0.1360  0.0671
  155SAPE  H12A17136   2.664   0.611   7.032  1.2868  0.2425 -1.6313
  155SAPE  H12B17137   2.498   0.542   7.065  3.3173 -1.2905  1.0231
  155SAPE   C1117138   2.523   0.768   7.061  0.0045  0.1982  0.0970
  155SAPE  H11A17139   2.605   0.840   7.038 -0.4679  0.1786 -1.8400
  155SAPE  H11B17140   2.523   0.758   7.172 -1.6147 -1.2237  0.0270
  155SAPE     P17141   2.270   0.821   7.089 -0.3183  0.0945 -0.0731
  155SAPE   O1317142   2.266   0.717   7.198  0.4132 -0.1985  0.4623
  155SAPE   O1417143   2.236   0.957   7.128 -0.1943 -0.0657 -0.0757
  155SAPE   O1217144   2.404   0.817   7.000 -0.1462  0.5110 -0.7897
  155SAPE   O1117145   2.161   0.778   6.986  0.4444  0.0602 -0.4837
  155SAPE    C117146   2.146   0.646   6.948  0.1538  0.5510  0.5884
  155SAPE    HA17147   2.242   0.590   6.945 -0.1112  0.0454  1.3275
  155SAPE    HB17148   2.075   0.603   7.022 -0.3403  2.3843  1.2319
  155SAPE    C217149   2.095   0.633   6.803 -0.0729 -0.2634 -0.3537
  155SAPE    HS17150   2.145   0.543   6.763  1.3373  0.1251  0.4649
  155SAPE   O2117151   2.130   0.750   6.726  0.4608 -0.0782  0.1111
  155SAPE   C2117152   2.251   0.747   6.665  0.5204 -0.5514  0.3297
  155SAPE   O2217153   2.336   0.662   6.664 -0.0136  0.2205  0.0736
  155SAPE   C2217154   2.272   0.870   6.590  0.3779  0.5353 -0.3060
  155SAPE   H2R17155   2.366   0.863   6.530 -0.2822 -0.2363 -1.2768
  155SAPE   H2S17156   2.193   0.890   6.514 -0.4939  0.5761  0.5960
  155SAPE    C317157   1.939   0.619   6.815 -0.3115 -0.3454 -0.1991
  155SAPE    HX17158   1.889   0.711   6.851  0.8608  0.1364  0.2253
  155SAPE    HY17159   1.919   0.544   6.895  1.2362 -0.7196 -0.1300
  155SAPE   O3117160   1.897   0.565   6.689 -0.3263 -0.3767 -0.4661
  155SAPE   C3117161   1.772   0.536   6.680 -0.1295  0.6408 -0.5740
  155SAPE   O3217162   1.686   0.561   6.768 -0.4201  0.3486 -0.0467
  155SAPE   C3217163   1.743   0.438   6.568  0.2223 -0.2083 -0.0883
  155SAPE   H2X17164   1.788   0.339   6.596  0.3495 -0.1212  0.0209
  155SAPE   H2Y17165   1.796   0.465   6.474  0.6522 -0.9151 -0.0603
  155SAPE   C2317166   2.291   0.991   6.683 -0.1167 -0.2323  0.0768
  155SAPE   H3R17167   2.381   0.971   6.744 -0.0708 -0.5199 -0.0835
  155SAPE   H3S17168   2.215   1.005   6.763  2.1519  1.7998  2.0042
  155SAPE   C2417169   2.309   1.128   6.609 -0.6246  0.2297  0.0234
  155SAPE   H4R17170   2.399   1.116   6.546  0.8985  0.2074  2.1045
  155SAPE   H4S17171   2.334   1.205   6.685 -0.4986 -0.7664  1.0283
  155SAPE   C2517172   2.177   1.171   6.553 -0.4688  0.1674  0.6973
  155SAPE   H5R17173   2.100   1.222   6.612  0.1966  1.2472  0.6383
  155SAPE   C2617174   2.147   1.168   6.419 -1.1074 -0.1081 -0.4443
  155SAPE   H6R17175   2.045   1.196   6.388 -1.4897  1.3093  1.8753
  155SAPE   C2717176   2.242   1.111   6.308 -0.0787 -0.8865  0.1325
  155SAPE   H7R17177   2.344   1.108   6.354  0.6908  1.2859 -1.2453
  155SAPE   H7S17178   2.255   1.190   6.231  0.6263  0.2879  1.4025
  155SAPE   C2817179   2.195   0.987   6.228 -0.1961  0.2624 -0.1456
  155SAPE   H8R17180   2.136   0.917   6.289  0.0240  0.1753 -0.0304
  155SAPE   C2917181   2.197   0.976   6.088 -0.1677 -0.4094 -0.3581
  155SAPE   H9R17182   2.164   0.886   6.035  1.8502 -3.6385  3.3211
  155SAPE  C21017183   2.241   1.087   6.000 -0.0763 -0.3597  0.4197
  155SAPE  H10R17184   2.306   1.049   5.918  0.0624 -0.2421  0.4750
  155SAPE  H10S17185   2.313   1.156   6.048  1.2445 -1.0931 -0.4377
  155SAPE  C21117186   2.119   1.153   5.938 -0.1890  0.0252  0.2732
  155SAPE  H11R17187   2.028   1.147   5.999 -0.4355 -1.2922 -0.1801
  155SAPE  C21217188   2.110   1.216   5.820 -0.4043 -0.8689 -0.4936
  155SAPE  H12R17189   2.007   1.245   5.793 -0.3416 -0.0835  0.0832
  155SAPE  C21317190   2.206   1.220   5.709 -0.2747  0.0434 -0.0274
  155SAPE  H13R17191   2.304   1.185   5.748  0.8743  0.0555 -2.6720
  155SAPE  H13S17192   2.235   1.322   5.675  1.9906 -0.8440 -0.9706
  155SAPE  C21417193   2.166   1.132   5.588 -0.8264  0.6293 -0.2962
  155SAPE  H14R17194   2.128   1.031   5.610  1.6528 -0.4530 -0.6517
  155SAPE  C21517195   2.154   1.172   5.465 -0.4390 -0.2518 -0.1579
  155SAPE  H15R17196   2.107   1.102   5.395 -2.0040  0.2993  0.2903
  155SAPE  C21617197   2.200   1.308   5.408 -0.4201 -0.0641  0.1858
  155SAPE  H16R17198   2.307   1.336   5.415 -0.1613 -1.0126  0.1992
  155SAPE  H16S17199   2.160   1.394   5.466 -0.4919 -0.0254  0.0801
  155SAPE  C21717200   2.155   1.337   5.263 -0.2810  0.0148  0.3627
  155SAPE  H17R17201   2.048   1.309   5.251 -0.9613  2.1342  1.0631
  155SAPE  H17S17202   2.218   1.285   5.187  0.2133  1.4179 -0.2100
  155SAPE  C21817203   2.169   1.478   5.211 -0.5305 -0.2035  0.3484
  155SAPE  H18R17204   2.158   1.476   5.101  0.3472 -0.8355  0.2658
  155SAPE  H18S17205   2.265   1.531   5.232 -0.8186  0.2004  0.6594
  155SAPE  C21917206   2.047   1.580   5.244  0.2627  0.6678 -0.1237
  155SAPE  H19R17207   2.046   1.624   5.346 -0.4374  2.9964 -1.0782
  155SAPE  H19S17208   1.955   1.518   5.239  0.9515 -0.3094 -1.2387
  155SAPE  C22017209   2.040   1.700   5.153 -0.6464  0.1133 -0.1122
  155SAPE  H20R17210   2.022   1.664   5.050  1.5704  0.2113 -0.5928
  155SAPE  H20S17211   2.141   1.747   5.153  0.1364 -1.5144 -0.7226
  155SAPE  H20T17212   1.956   1.765   5.186 -2.3038 -1.6711 -0.6713
  155SAPE   C3317213   1.594   0.426   6.532  0.6609 -0.0974 -0.1402
  155SAPE   H3X17214   1.526   0.412   6.619 -1.0332 -0.4891 -1.4600
  155SAPE   H3Y17215   1.588   0.333   6.470  2.4745  1.9510 -3.7556
  155SAPE   C3417216   1.534   0.547   6.459  0.2466  0.1394  0.0338
  155SAPE   H4X17217   1.555   0.517   6.354 -2.5626 -3.2893  0.2208
  155SAPE   H4Y17218   1.586   0.640   6.489  0.4765  0.6518 -1.8418
  155SAPE   C3517219   1.386   0.576   6.498  0.2286  0.2326 -0.0414
  155SAPE   H5X17220   1.358   0.675   6.456  0.3800 -0.6483 -2.4259
  155SAPE   H5Y17221   1.387   0.591   6.608  2.9451 -0.7372  0.1420
  155SAPE   C3617222   1.285   0.467   6.466  0.5238 -0.3129  0.0900
  155SAPE   H6X17223   1.193   0.478   6.528  0.4073  1.1300 -0.3073
  155SAPE   H6Y17224   1.328   0.365   6.476 -0.9124 -0.9472  0.0462
  155SAPE   C3717225   1.220   0.470   6.321 -0.2535  0.0936 -0.4293
  155SAPE   H7X17226   1.177   0.571   6.304 -4.1127 -1.2738  0.2495
  155SAPE   H7Y17227   1.135   0.400   6.333 -0.0254  0.1891  2.9246
  155SAPE   C3817228   1.314   0.421   6.210  0.0002 -0.3700  0.8503
  155SAPE   H8X17229   1.361   0.332   6.256  1.0975 -0.3377 -0.1434
  155SAPE   H8Y17230   1.389   0.502   6.193  0.8692 -1.5385 -1.3138
  155SAPE   C3917231   1.247   0.375   6.082 -0.1625 -0.3974  0.2951
  155SAPE   H9X17232   1.188   0.284   6.105 -0.2928 -0.8201 -1.5650
  155SAPE   H9Y17233   1.329   0.347   6.014  1.7023  4.6599  0.0597
  155SAPE  C31017234   1.162   0.474   5.998 -0.1594  0.2848 -0.7018
  155SAPE  H10X17235   1.222   0.566   5.980 -0.6758  0.8718  0.4470
  155SAPE  H10Y17236   1.074   0.517   6.051  1.1645  2.8485 -0.4320
  155SAPE  C31117237   1.117   0.422   5.855 -0.3745 -0.0347 -0.0797
  155SAPE  H11X17238   1.039   0.493   5.822  0.7039  1.1118 -0.2168
  155SAPE  H11Y17239   1.071   0.322   5.872 -0.7198  0.2901  0.9593
  155SAPE  C31217240   1.233   0.425   5.749  0.9725  0.0998 -0.4535
  155SAPE  H12X17241   1.328   0.397   5.799  1.8773  0.5670 -1.8505
  155SAPE  H12Y17242   1.264   0.528   5.720  1.7753 -0.8447 -3.2260
  155SAPE  C31317243   1.196   0.348   5.622 -0.5176  0.1453  0.0375
  155SAPE  H13X17244   1.103   0.393   5.581  0.0208  1.6820  0.4346
  155SAPE  H13Y17245   1.168   0.244   5.647 -0.0752  0.3007  1.2164
  155SAPE  C31417246   1.305   0.341   5.516 -0.4072  0.1809  0.3911
  155SAPE  H14X17247   1.405   0.320   5.561  0.6605 -1.5794 -2.5387
  155SAPE  H14Y17248   1.316   0.441   5.470 -1.7093  0.2474  0.1872
  155SAPE  C31517249   1.276   0.232   5.403  1.0082  0.7654 -0.5730
  155SAPE  H15X17250   1.272   0.137   5.461  1.5051  1.0110 -0.1219
  155SAPE  H15Y17251   1.362   0.222   5.334  0.9594  1.3811 -0.7262
  155SAPE  C31617252   1.150   0.254   5.315 -0.1760  0.2710 -0.7647
  155SAPE  H16X17253   1.072   0.318   5.363 -0.1881 -0.6709  0.5213
  155SAPE  H16Y17254   1.112   0.150   5.305  1.7652 -0.3388 -2.2919
  155SAPE  C31717255   1.188   0.307   5.177  0.1250  0.1642  0.1435
  155SAPE  H17X17256   1.253   0.396   5.160 -1.1865  0.9098 -1.2464
  155SAPE  H17Y17257   1.089   0.331   5.133  0.0831  0.0907  0.1986
  155SAPE  C31817258   1.243   0.191   5.097  0.7229 -0.5768  0.2980
  155SAPE  H18X17259   1.173   0.107   5.110  1.7775 -1.1587  2.9255
  155SAPE  H18Y17260   1.340   0.154   5.136  1.0763 -1.3857 -1.2400
  155SAPE  H18Z17261   1.253   0.218   4.989 -5.1381 -0.2203 -0.4596
  156SAPE     N17262   1.971   6.211   6.531 -0.2654 -0.0942  0.5063
  156SAPE   HN117263   1.872   6.187   6.514  0.1896 -0.0971 -3.0427
  156SAPE   HN217264   1.971   6.292   6.596  0.6432  0.3838 -0.0677
  156SAPE   HN317265   2.020   6.238   6.443  1.8816  0.7354  1.8658
  156SAPE   C1217266   2.050   6.103   6.599  0.4667  0.3430 -0.3078
  156SAPE  H12A17267   2.153   6.142   6.613  0.1988  0.6964  0.8266
  156SAPE  H12B17268   2.062   6.017   6.530 -1.6003 -0.2805  0.0247
  156SAPE   C1117269   1.976   6.047   6.724  0.0939 -0.5322  0.0020
  156SAPE  H11A17270   2.003   6.102   6.816 -1.6152 -1.1377  0.8951
  156SAPE  H11B17271   2.009   5.941   6.736  0.5351 -0.3934  0.0623
  156SAPE     P17272   1.730   6.050   6.836 -0.4797 -0.0054 -0.5354
  156SAPE   O1317273   1.775   5.934   6.909  0.5871 -0.1231  0.2527
  156SAPE   O1417274   1.722   6.170   6.923 -0.5787 -0.1907  0.2102
  156SAPE   O1217275   1.830   6.060   6.709 -0.2031 -0.4148 -0.2157
  156SAPE   O1117276   1.595   6.025   6.771  0.4195  0.7896  0.2779
  156SAPE    C117277   1.570   5.916   6.674  0.2033  0.0960 -0.8098
  156SAPE    HA17278   1.628   5.826   6.703  1.2311  1.2725  0.9402
  156SAPE    HB17279   1.461   5.894   6.681  0.3027  0.2122  2.8212
  156SAPE    C217280   1.609   5.946   6.521 -0.1237  1.1420  0.6437
  156SAPE    HS17281   1.718   5.963   6.510  0.1410 -0.0767  1.1869
  156SAPE   O2117282   1.533   6.057   6.486  0.0084 -0.4263 -0.2632
  156SAPE   C2117283   1.586   6.176   6.451  0.2668  0.0916  0.7895
  156SAPE   O2217284   1.706   6.201   6.449  0.0473  0.2051  0.3185
  156SAPE   C2217285   1.476   6.273   6.412  0.2026 -0.1282  0.5789
  156SAPE   H2R17286   1.383   6.217   6.388  2.0082 -2.5138 -1.4839
  156SAPE   H2S17287   1.465   6.325   6.510 -1.4936 -1.9171  1.3960
  156SAPE    C317288   1.566   5.827   6.431  0.8770  0.6893  0.4431
  156SAPE    HX17289   1.457   5.809   6.444  0.7951  0.6836 -0.2360
  156SAPE    HY17290   1.618   5.733   6.459 -1.3284 -1.1404 -1.2483
  156SAPE   O3117291   1.603   5.846   6.297 -0.0111  0.8346 -0.3737
  156SAPE   C3117292   1.505   5.900   6.222 -0.2897 -0.8164  0.7859
  156SAPE   O3217293   1.391   5.925   6.252  0.3283  0.4505  0.7215
  156SAPE   C3217294   1.568   5.931   6.087  0.0560  0.0957 -0.1349
  156SAPE   H2X17295   1.651   5.997   6.118 -0.4812 -0.6565  3.2436
  156SAPE   H2Y17296   1.491   5.992   6.034 -0.9441  0.4233  1.5925
  156SAPE   C2317297   1.521   6.378   6.297 -0.7265  0.0897 -1.2410
  156SAPE   H3R17298   1.613   6.428   6.333 -1.4038 -0.5722  1.6200
  156SAPE   H3S17299   1.436   6.449   6.287 -1.4972 -0.7021 -0.4534
  156SAPE   C2417300   1.541   6.324   6.157 -0.7168  0.0658  0.0821
  156SAPE   H4R17301   1.605   6.235   6.168 -2.0277 -0.8918  0.2223
  156SAPE   H4S17302   1.589   6.406   6.100  0.1355 -0.5967 -0.1657
  156SAPE   C2517303   1.406   6.296   6.092 -0.2019  0.9711  0.1121
  156SAPE   H5R17304   1.342   6.232   6.154 -1.7182  0.9459 -1.4040
  156SAPE   C2617305   1.356   6.359   5.980 -0.0446  0.1272 -0.3723
  156SAPE   H6R17306   1.257   6.337   5.938 -0.9314 -1.5821  2.3421
  156SAPE   C2717307   1.427   6.469   5.899 -0.6200  0.4442 -0.5898
  156SAPE   H7R17308   1.471   6.542   5.970 -1.7741  1.2043 -0.6130
  156SAPE   H7S17309   1.362   6.530   5.833 -2.3137 -1.2864 -0.6151
  156SAPE   C2817310   1.553   6.418   5.826 -1.1794  0.0117 -0.1876
  156SAPE   H8R17311   1.567   6.310   5.816 -0.5742  0.0358  0.3680
  156SAPE   C2917312   1.612   6.500   5.730  0.4174  0.1688 -0.3674
  156SAPE   H9R17313   1.695   6.456   5.673  0.8476  1.3140 -0.6582
  156SAPE  C21017314   1.578   6.648   5.695 -0.3321  0.7136 -0.1451
  156SAPE  H10R17315   1.665   6.708   5.727 -0.1203 -0.0703  0.8161
  156SAPE  H10S17316   1.493   6.690   5.754  0.6233 -0.5485  2.2902
  156SAPE  C21117317   1.546   6.665   5.551 -0.3098  1.0134  0.5476
  156SAPE  H11R17318   1.629   6.661   5.478  0.2084  1.4609  1.0966
  156SAPE  C21217319   1.429   6.710   5.500  0.7365 -0.2440  0.4306
  156SAPE  H12R17320   1.426   6.719   5.391 -0.0981  1.0323  0.5471
  156SAPE  C21317321   1.302   6.732   5.568 -0.1584 -0.1657 -0.3703
  156SAPE  H13R17322   1.302   6.838   5.599 -4.3518  0.3216 -1.4913
  156SAPE  H13S17323   1.306   6.667   5.659 -0.4271 -0.2241 -0.4010
  156SAPE  C21417324   1.184   6.705   5.483 -0.0952 -0.3976 -0.6305
  156SAPE  H14R17325   1.197   6.616   5.418 -0.4377 -0.4128 -0.6848
  156SAPE  C21517326   1.058   6.759   5.488  0.0261 -0.0834  0.3364
  156SAPE  H15R17327   0.981   6.727   5.416  0.8589  4.2210 -2.8360
  156SAPE  C21617328   1.012   6.865   5.579  0.2560  0.2116  0.6067
  156SAPE  H16R17329   1.002   6.959   5.521  0.0646 -0.5049 -0.5550
  156SAPE  H16S17330   1.089   6.885   5.656  0.0247 -1.4019  1.2924
  156SAPE  C21717331   0.902   6.821   5.676  0.3210 -0.0294  0.0470
  156SAPE  H17R17332   0.855   6.731   5.632  1.7921 -0.4494 -0.7334
  156SAPE  H17S17333   0.827   6.901   5.693  1.1375  1.0649 -1.2422
  156SAPE  C21817334   0.940   6.770   5.820  0.3731  0.0204 -0.4175
  156SAPE  H18R17335   1.019   6.691   5.816  2.4418  2.0233 -2.2400
  156SAPE  H18S17336   0.846   6.729   5.863 -0.4190  1.2510 -0.9424
  156SAPE  C21917337   0.982   6.884   5.912 -0.1894 -0.8171  0.5521
  156SAPE  H19R17338   0.893   6.919   5.968  0.4039 -1.0717  1.7103
  156SAPE  H19S17339   1.023   6.963   5.846  0.3461 -1.3218  0.2589
  156SAPE  C22017340   1.088   6.850   6.016 -0.6310 -0.0966  0.8140
  156SAPE  H20R17341   1.187   6.838   5.967 -0.0581 -0.9755  2.1106
  156SAPE  H20S17342   1.062   6.758   6.073 -1.1772 -1.6768 -1.8456
  156SAPE  H20T17343   1.104   6.933   6.089  0.8545 -2.2024  3.0502
  156SAPE   C3317344   1.610   5.808   6.013  0.5013  0.4751 -0.1420
  156SAPE   H3X17345   1.515   5.758   5.985  0.2101  0.1757  1.2998
  156SAPE   H3Y17346   1.684   5.744   6.066  1.5319  1.0938 -0.7932
  156SAPE   C3417347   1.670   5.832   5.870 -0.0578  0.0664  0.3022
  156SAPE   H4X17348   1.758   5.900   5.882  1.1048 -1.2544 -0.3728
  156SAPE   H4Y17349   1.593   5.888   5.813 -0.9011 -0.1938  1.1598
  156SAPE   C3517350   1.722   5.715   5.789 -0.3562  0.1710  0.0603
  156SAPE   H5X17351   1.810   5.681   5.848  0.2508  0.5434 -0.6186
  156SAPE   H5Y17352   1.770   5.756   5.697 -0.8172 -2.2381 -1.3698
  156SAPE   C3617353   1.645   5.589   5.781 -0.1989 -0.5080  0.1186
  156SAPE   H6X17354   1.572   5.594   5.697  1.0753  1.0694 -0.9513
  156SAPE   H6Y17355   1.582   5.572   5.871 -0.1991  3.6408  1.1022
  156SAPE   C3717356   1.733   5.466   5.763  0.4099 -0.0876 -0.5041
  156SAPE   H7X17357   1.659   5.388   5.736 -2.4891  2.0328  0.8233
  156SAPE   H7Y17358   1.787   5.443   5.857 -0.8436 -2.5932 -0.3373
  156SAPE   C3817359   1.830   5.485   5.638  0.6654 -0.1707 -0.0925
  156SAPE   H8X17360   1.914   5.542   5.682  1.0385 -0.2376 -0.7086
  156SAPE   H8Y17361   1.783   5.544   5.557 -0.8781  0.5637  1.2660
  156SAPE   C3917362   1.874   5.350   5.584 -0.2357  0.5534 -0.0335
  156SAPE   H9X17363   1.872   5.276   5.667  1.4059  2.5751  1.9368
  156SAPE   H9Y17364   1.978   5.368   5.550 -0.0713  2.2727  1.2466
  156SAPE  C31017365   1.796   5.306   5.466  0.0911 -0.1018 -0.5533
  156SAPE  H10X17366   1.801   5.385   5.389 -2.5795  0.3734 -0.3218
  156SAPE  H10Y17367   1.690   5.302   5.497  0.7759 -0.1253  1.9894
  156SAPE  C31117368   1.853   5.173   5.415 -0.1074 -0.0171 -0.7044
  156SAPE  H11X17369   1.873   5.091   5.487 -0.7130  0.7942  0.4221
  156SAPE  H11Y17370   1.951   5.204   5.373  0.5749 -1.4340 -0.2318
  156SAPE  C31217371   1.770   5.116   5.299 -0.2692 -0.7574 -0.1046
  156SAPE  H12X17372   1.761   5.189   5.216  2.5307 -0.6935 -0.4719
  156SAPE  H12Y17373   1.677   5.085   5.350 -0.2060  0.5760  0.8800
  156SAPE  C31317374   1.819   4.996   5.224 -0.4811  0.6897 -0.1052
  156SAPE  H13X17375   1.831   4.916   5.300 -0.2706  1.3729  0.6050
  156SAPE  H13Y17376   1.921   5.014   5.183 -1.1420  0.5167 -1.8866
  156SAPE  C31417377   1.737   4.951   5.107  0.2954 -0.6373 -0.5220
  156SAPE  H14X17378   1.630   4.973   5.129  0.5020 -0.3964  0.2703
  156SAPE  H14Y17379   1.740   4.841   5.093  0.2075 -0.6678 -0.3044
  156SAPE  C31517380   1.779   5.030   4.976  0.1866 -0.0219  0.0062
  156SAPE  H15X17381   1.888   5.051   4.985  0.3911 -1.1697  0.3408
  156SAPE  H15Y17382   1.726   5.128   4.969 -0.2877 -0.3455 -1.0094
  156SAPE  C31617383   1.753   4.956   4.842 -1.2211  0.2517  0.3382
  156SAPE  H16X17384   1.645   4.935   4.827 -0.9701  0.8516 -3.0000
  156SAPE  H16Y17385   1.806   4.859   4.855  1.8941  1.9017  1.0752
  156SAPE  C31717386   1.806   5.031   4.716  0.5108  0.2248  0.0464
  156SAPE  H17X17387   1.914   5.055   4.732  0.4362  0.1244  0.7165
  156SAPE  H17Y17388   1.759   5.131   4.705 -0.5776 -0.2667  0.1144
  156SAPE  C31817389   1.794   4.957   4.582  0.4294 -0.6523  0.3487
  156SAPE  H18X17390   1.852   5.012   4.505 -2.6105  1.7160 -0.4110
  156SAPE  H18Y17391   1.689   4.968   4.549 -0.6113  0.9107  3.6509
  156SAPE  H18Z17392   1.814   4.848   4.580  1.1768 -0.5127 -0.4658
  157SAPE     N17393   2.051   1.689   7.357 -0.2692 -0.1563  0.0809
  157SAPE   HN117394   1.953   1.663   7.332  0.4964 -0.7328 -2.5678
  157SAPE   HN217395   2.097   1.600   7.386  2.1864  0.0199 -2.8593
  157SAPE   HN317396   2.054   1.760   7.433 -1.9085  1.0496 -0.9170
  157SAPE   C1217397   2.122   1.732   7.234  0.1274 -0.3007  0.7330
  157SAPE  H12A17398   2.114   1.657   7.152 -2.0533  0.6721 -0.0200
  157SAPE  H12B17399   2.227   1.758   7.259 -0.5411  3.4814  0.1473
  157SAPE   C1117400   2.061   1.854   7.185 -0.5379 -0.1025  0.1531
  157SAPE  H11A17401   2.125   1.896   7.104 -1.1800  2.8185  1.0172
  157SAPE  H11B17402   2.057   1.928   7.268 -0.1460 -1.5458  1.5112
  157SAPE     P17403   1.872   1.801   6.990  0.1380  0.2480  0.2882
  157SAPE   O1317404   1.811   1.668   6.995  0.1754  0.0429 -0.9430
  157SAPE   O1417405   1.792   1.910   6.939  0.0711  0.3882 -0.0040
  157SAPE   O1217406   1.927   1.835   7.134 -0.4274 -0.0932  0.2886
  157SAPE   O1117407   2.012   1.791   6.909  0.6029 -0.2442 -0.5692
  157SAPE    C117408   2.071   1.660   6.871  0.3676 -0.6843 -0.3798
  157SAPE    HA17409   2.172   1.664   6.918 -0.2452  1.3527  0.9160
  157SAPE    HB17410   2.025   1.578   6.931 -0.8928  1.0093  1.0612
  157SAPE    C217411   2.065   1.626   6.721  0.2553  0.6290  0.7818
  157SAPE    HS17412   2.127   1.534   6.717  0.9979  1.1724 -1.1322
  157SAPE   O2117413   2.130   1.729   6.640 -0.0775  0.3209 -0.7253
  157SAPE   C2117414   2.260   1.743   6.649  0.7058  0.2737  0.0297
  157SAPE   O2217415   2.329   1.665   6.715 -0.0649 -0.6029 -0.1581
  157SAPE   C2217416   2.299   1.878   6.579  0.6309  0.6368  0.2689
  157SAPE   H2R17417   2.214   1.949   6.594 -0.5804 -0.8706  0.8100
  157SAPE   H2S17418   2.381   1.925   6.637  0.7506 -0.5885  1.1232
  157SAPE    C317419   1.923   1.592   6.666  0.8414  0.1953 -0.0606
  157SAPE    HX17420   1.876   1.693   6.658  1.0633  0.4741  1.8336
  157SAPE    HY17421   1.856   1.533   6.732  0.1095 -0.4209 -1.3157
  157SAPE   O3117422   1.943   1.522   6.543  0.1313 -0.4325 -0.5404
  157SAPE   C3117423   1.846   1.536   6.450  0.4560 -0.1505 -0.4029
  157SAPE   O3217424   1.733   1.572   6.485 -0.1979  0.2153  1.0105
  157SAPE   C3217425   1.892   1.491   6.319 -0.3247  0.0350  0.5581
  157SAPE   H2X17426   1.826   1.405   6.293 -0.6537  0.6535 -0.7661
  157SAPE   H2Y17427   1.998   1.459   6.323 -0.9093 -2.1646 -0.1068
  157SAPE   C2317428   2.315   1.855   6.431  0.0305  0.2011  0.1609
  157SAPE   H3R17429   2.389   1.772   6.423 -0.6052 -0.4242  0.7068
  157SAPE   H3S17430   2.360   1.948   6.390 -2.2756  0.9049 -0.9647
  157SAPE   C2417431   2.188   1.820   6.346  0.6529 -0.5512  0.5221
  157SAPE   H4R17432   2.132   1.735   6.391  0.3755  0.9502  3.2686
  157SAPE   H4S17433   2.241   1.802   6.250  3.3833  1.2995  1.5631
  157SAPE   C2517434   2.090   1.934   6.327  0.0362 -0.1365  0.2805
  157SAPE   H5R17435   2.028   1.941   6.418 -1.3192 -0.1250 -0.6233
  157SAPE   C2617436   2.080   2.033   6.231 -0.2476 -0.0044 -0.8037
  157SAPE   H6R17437   2.007   2.114   6.240 -1.9469 -1.6575  1.2754
  157SAPE   C2717438   2.168   2.031   6.105  0.3831  0.0319  0.0025
  157SAPE   H7R17439   2.146   1.943   6.041 -3.0048  0.9647 -0.3198
  157SAPE   H7S17440   2.274   2.016   6.135  0.9076  2.5438 -0.3835
  157SAPE   C2817441   2.182   2.155   6.022  0.5885  0.0007  0.1973
  157SAPE   H8R17442   2.244   2.237   6.063  0.5597 -0.1874  0.6243
  157SAPE   C2917443   2.112   2.176   5.907  0.1949  0.0662 -0.3238
  157SAPE   H9R17444   2.120   2.271   5.852  2.6660 -0.2765 -0.6752
  157SAPE  C21017445   2.009   2.079   5.843  0.4496  0.5440 -0.1962
  157SAPE  H10R17446   1.988   1.992   5.909  1.5538 -1.2798 -2.1288
  157SAPE  H10S17447   2.047   2.055   5.742  2.0930  5.3267 -0.9678
  157SAPE  C21117448   1.883   2.158   5.809  0.3644  0.2122  0.0656
  157SAPE  H11R17449   1.839   2.190   5.905  0.2822  0.1912  0.0357
  157SAPE  C21217450   1.826   2.188   5.693  0.8191 -0.3338 -1.0145
  157SAPE  H12R17451   1.750   2.268   5.697 -1.6329 -2.4004 -2.8785
  157SAPE  C21317452   1.901   2.164   5.561 -0.1809  0.4258 -0.3059
  157SAPE  H13R17453   1.907   2.054   5.545  4.2790  0.5854 -1.0661
  157SAPE  H13S17454   2.003   2.204   5.578  0.5282 -0.6276 -1.8537
  157SAPE  C21417455   1.839   2.229   5.440  0.1767  0.5349 -0.7981
  157SAPE  H14R17456   1.878   2.330   5.418 -0.5443  0.7638 -1.0660
  157SAPE  C21517457   1.735   2.182   5.371  0.2525  0.4162  0.0782
  157SAPE  H15R17458   1.687   2.238   5.289  0.4551 -1.3228 -1.2760
  157SAPE  C21617459   1.675   2.050   5.392  0.3132 -0.6381  0.1457
  157SAPE  H16R17460   1.565   2.069   5.400  0.5674  0.0713  2.9370
  157SAPE  H16S17461   1.711   2.008   5.489  0.1829 -2.4473 -0.5581
  157SAPE  C21717462   1.697   1.950   5.276 -0.5180  0.4020  0.4484
  157SAPE  H17R17463   1.706   1.850   5.323  1.5240  0.0405 -0.5784
  157SAPE  H17S17464   1.791   1.985   5.228 -2.2026  0.8035 -2.8539
  157SAPE  C21817465   1.588   1.934   5.165  0.3586  0.0286 -0.0331
  157SAPE  H18R17466   1.578   2.035   5.118  0.1544  0.4728  0.9298
  157SAPE  H18S17467   1.492   1.901   5.211  0.1272 -0.6347 -0.9582
  157SAPE  C21917468   1.621   1.830   5.066  0.1936 -0.3530 -0.5449
  157SAPE  H19R17469   1.630   1.730   5.114 -1.6155  0.1248  0.8887
  157SAPE  H19S17470   1.725   1.860   5.041  0.7198  0.2548  2.1361
  157SAPE  C22017471   1.532   1.807   4.949  0.7638  0.1206  0.1560
  157SAPE  H20R17472   1.425   1.822   4.974  1.2748  1.5113  1.6954
  157SAPE  H20S17473   1.544   1.715   4.888  1.1218  0.0555  0.3213
  157SAPE  H20T17474   1.562   1.884   4.874  2.0239 -1.9392 -1.5901
  157SAPE   C3317475   1.852   1.596   6.210 -0.0818  0.1714  0.6007
  157SAPE   H3X17476   1.905   1.689   6.240 -0.8817  0.3110  1.6541
  157SAPE   H3Y17477   1.745   1.625   6.223 -1.0102 -2.1890 -1.1585
  157SAPE   C3417478   1.882   1.558   6.070  0.4503  0.7050  0.6066
  157SAPE   H4X17479   1.827   1.464   6.050  1.7699 -0.5228  2.3362
  157SAPE   H4Y17480   1.991   1.536   6.061  0.6254  0.7106  2.3557
  157SAPE   C3517481   1.830   1.660   5.968 -0.2704 -0.0329 -0.7437
  157SAPE   H5X17482   1.870   1.761   5.991 -0.1609 -0.6465  2.1435
  157SAPE   H5Y17483   1.721   1.666   5.989 -0.0601 -2.3560  1.4664
  157SAPE   C3617484   1.853   1.621   5.826 -0.3726  0.8673  0.4817
  157SAPE   H6X17485   1.789   1.534   5.802  3.3873 -2.4650  1.4259
  157SAPE   H6Y17486   1.954   1.576   5.816 -0.8540 -1.0234  2.9599
  157SAPE   C3717487   1.849   1.740   5.723 -0.7751  0.0090  0.3333
  157SAPE   H7X17488   1.939   1.803   5.742 -0.1650  0.0960 -2.4720
  157SAPE   H7Y17489   1.758   1.799   5.745 -0.4406  1.0860 -1.0298
  157SAPE   C3817490   1.854   1.704   5.571  0.0603 -0.2204 -0.6252
  157SAPE   H8X17491   1.954   1.661   5.552  0.6477  1.2034 -0.8274
  157SAPE   H8Y17492   1.832   1.795   5.512  0.0699  1.0490  1.2608
  157SAPE   C3917493   1.737   1.612   5.536  0.2630 -1.0673  0.6757
  157SAPE   H9X17494   1.742   1.512   5.586  2.1550 -1.2691  0.1899
  157SAPE   H9Y17495   1.748   1.607   5.426  1.5349 -2.1710  0.8178
  157SAPE  C31017496   1.590   1.670   5.564 -0.5360 -0.9457 -0.4635
  157SAPE  H10X17497   1.572   1.763   5.506 -0.3661 -0.2386  0.5868
  157SAPE  H10Y17498   1.574   1.685   5.673  0.4092 -0.5990 -0.3610
  157SAPE  C31117499   1.485   1.568   5.519 -0.3904 -0.2045  0.1335
  157SAPE  H11X17500   1.392   1.609   5.564  0.0098  0.8543  0.0411
  157SAPE  H11Y17501   1.505   1.477   5.578  0.3242 -0.5098 -0.5592
  157SAPE  C31217502   1.472   1.549   5.373  0.0660  0.3268 -0.3583
  157SAPE  H12X17503   1.560   1.484   5.348 -0.4181 -0.5996  0.3043
  157SAPE  H12Y17504   1.462   1.625   5.293 -1.4092  0.3757 -0.1476
  157SAPE  C31317505   1.350   1.460   5.351 -0.8422 -0.5976 -0.2309
  157SAPE  H13X17506   1.265   1.529   5.373 -0.0845  1.1936 -2.4481
  157SAPE  H13Y17507   1.350   1.384   5.431  0.6489 -0.6501 -0.2586
  157SAPE  C31417508   1.336   1.392   5.214 -0.6631 -0.6588 -0.0280
  157SAPE  H14X17509   1.265   1.306   5.213 -2.6900  0.9187 -2.1470
  157SAPE  H14Y17510   1.437   1.358   5.183 -0.1718 -0.9739  1.7915
  157SAPE  C31517511   1.283   1.486   5.112 -0.0481 -0.4364  0.1022
  157SAPE  H15X17512   1.350   1.572   5.096 -0.1413 -0.0230  1.7352
  157SAPE  H15Y17513   1.184   1.519   5.152 -0.8640 -0.5245 -1.7268
  157SAPE  C31617514   1.238   1.411   4.981  0.1394 -0.2514 -0.5149
  157SAPE  H16X17515   1.157   1.337   4.994  0.8094 -0.8757  0.1730
  157SAPE  H16Y17516   1.334   1.368   4.948  0.0752 -0.7554 -0.0439
  157SAPE  C31717517   1.178   1.507   4.873  0.0820  0.2151 -0.6053
  157SAPE  H17X17518   1.109   1.454   4.803  1.0826 -0.2190 -1.2978
  157SAPE  H17Y17519   1.262   1.541   4.808  1.4878  0.5358  1.3140
  157SAPE  C31817520   1.095   1.629   4.926  0.2963 -0.3310  0.3695
  157SAPE  H18X17521   1.027   1.657   4.842 -0.6363 -1.9699  0.5312
  157SAPE  H18Y17522   1.154   1.714   4.966  0.9171  1.0585 -3.0860
  157SAPE  H18Z17523   1.025   1.598   5.007  1.0308 -0.1405  1.0902
  158SAPE     N17524   3.617   3.150   7.059  0.6750  0.8750 -0.4616
  158SAPE   HN117525   3.545   3.095   7.111  1.5472 -0.9090 -1.0940
  158SAPE   HN217526   3.712   3.147   7.101  0.2295 -0.0691  0.5260
  158SAPE   HN317527   3.583   3.249   7.058  0.6106  0.8772  0.7372
  158SAPE   C1217528   3.622   3.090   6.921 -0.4110 -0.6629 -0.3612
  158SAPE  H12A17529   3.684   2.998   6.918  0.5625 -0.0944  0.8917
  158SAPE  H12B17530   3.660   3.169   6.853  2.9208 -0.8146  1.1306
  158SAPE   C1117531   3.481   3.041   6.875  0.1942  0.4120  0.5423
  158SAPE  H11A17532   3.492   2.988   6.778  2.1127 -0.4931  1.1916
  158SAPE  H11B17533   3.425   3.136   6.858  1.1970  0.7468 -1.1035
  158SAPE     P17534   3.260   2.955   6.995 -0.1866  0.3713 -0.2685
  158SAPE   O1317535   3.230   2.816   6.964  0.8120 -0.2154 -0.4583
  158SAPE   O1417536   3.237   3.012   7.127  0.2891  0.8739  0.1287
  158SAPE   O1217537   3.416   2.964   6.977 -0.1983 -0.1437 -0.0810
  158SAPE   O1117538   3.193   3.048   6.892 -0.2303 -0.5714  0.1377
  158SAPE    C117539   3.081   3.011   6.810 -0.0739 -0.3496  0.3399
  158SAPE    HA17540   3.035   2.913   6.835 -0.6447 -0.2954 -0.4552
  158SAPE    HB17541   3.000   3.086   6.823  0.0587 -0.2581  0.6496
  158SAPE    C217542   3.116   2.992   6.658 -0.1855 -0.4270  0.4282
  158SAPE    HS17543   3.222   2.958   6.658 -0.4814 -1.3686  0.4651
  158SAPE   O2117544   3.098   3.126   6.602  0.5210  0.1578 -0.0695
  158SAPE   C2117545   3.182   3.161   6.508  0.2078 -0.1319  0.3870
  158SAPE   O2217546   3.271   3.091   6.461  0.1601 -0.1121  0.6854
  158SAPE   C2217547   3.140   3.311   6.467 -0.2323 -0.0275  0.5446
  158SAPE   H2R17548   3.157   3.370   6.559  1.3649  1.6367 -0.7373
  158SAPE   H2S17549   3.210   3.338   6.384  0.6675  0.2689  1.3803
  158SAPE    C317550   3.044   2.880   6.583  0.6797 -0.3965  0.1312
  158SAPE    HX17551   2.937   2.909   6.580  0.8568  0.4352  1.3240
  158SAPE    HY17552   3.051   2.785   6.641 -0.2166  0.8125  2.3465
  158SAPE   O3117553   3.098   2.867   6.446 -0.6120 -0.0084 -0.6824
  158SAPE   C3117554   3.198   2.779   6.430  0.5467  0.1675  0.3292
  158SAPE   O3217555   3.228   2.691   6.510 -0.2485  0.2415 -0.4313
  158SAPE   C3217556   3.252   2.798   6.291  0.4093  0.3473 -0.8159
  158SAPE   H2X17557   3.306   2.895   6.297 -0.1627  0.6768 -0.9263
  158SAPE   H2Y17558   3.165   2.810   6.223  0.3498  1.0331 -0.6290
  158SAPE   C2317559   2.989   3.325   6.431 -0.1671  0.0679 -0.2494
  158SAPE   H3R17560   2.959   3.431   6.447 -1.0440 -0.4253  1.6574
  158SAPE   H3S17561   2.917   3.270   6.496  0.1030  0.5161  0.4504
  158SAPE   C2417562   2.960   3.286   6.283  0.2034  0.9537 -0.3717
  158SAPE   H4R17563   3.017   3.353   6.215 -0.8189  1.1704 -1.0365
  158SAPE   H4S17564   2.854   3.311   6.262 -0.2707 -0.8695 -0.3171
  158SAPE   C2517565   2.987   3.137   6.246  0.4090 -0.0173 -0.6265
  158SAPE   H5R17566   2.947   3.057   6.311 -1.1318  0.5979 -0.7731
  158SAPE   C2617567   3.060   3.098   6.141 -0.1690  0.6401  0.3718
  158SAPE   H6R17568   3.072   2.989   6.129  0.8208  0.5786  1.6333
  158SAPE   C2717569   3.136   3.184   6.042  0.4865 -0.1519  1.1931
  158SAPE   H7R17570   3.210   3.241   6.102  1.2826  2.0400 -1.5990
  158SAPE   H7S17571   3.073   3.264   5.997 -1.4841 -2.0741  0.3579
  158SAPE   C2817572   3.205   3.112   5.930  0.8171  0.2913 -0.1328
  158SAPE   H8R17573   3.270   3.036   5.975  0.8611  1.2312  1.4894
  158SAPE   C2917574   3.181   3.117   5.796 -0.4114  0.3908  0.1139
  158SAPE   H9R17575   3.225   3.041   5.729 -2.0117  1.5837 -2.4426
  158SAPE  C21017576   3.075   3.207   5.733  0.0247 -0.2627  0.2324
  158SAPE  H10R17577   3.094   3.315   5.749 -1.5143  0.2476 -1.0809
  158SAPE  H10S17578   2.975   3.196   5.779 -0.1153 -0.8078 -0.1864
  158SAPE  C21117579   3.062   3.207   5.582 -0.3375  0.1219 -0.7964
  158SAPE  H11R17580   3.161   3.216   5.535 -0.7972  1.9193 -1.5112
  158SAPE  C21217581   2.947   3.212   5.513 -0.4667 -0.4616  0.5705
  158SAPE  H12R17582   2.950   3.226   5.404 -2.8837 -2.0195  0.2155
  158SAPE  C21317583   2.812   3.223   5.568  0.3267 -0.0330  0.6685
  158SAPE  H13R17584   2.815   3.209   5.678 -0.1873 -0.0931  0.6739
  158SAPE  H13S17585   2.747   3.153   5.512  0.4089  1.1853 -1.0372
  158SAPE  C21417586   2.753   3.364   5.554 -0.1970 -0.0825  0.0869
  158SAPE  H14R17587   2.816   3.442   5.601 -1.0254  0.7253 -0.1127
  158SAPE  C21517588   2.649   3.402   5.475  0.6383  0.4095  0.3548
  158SAPE  H15R17589   2.619   3.508   5.473 -1.0778  0.0123  2.3554
  158SAPE  C21617590   2.562   3.313   5.383 -0.3659 -0.4340 -0.0796
  158SAPE  H16R17591   2.630   3.228   5.360 -2.9770 -2.5185 -0.4683
  158SAPE  H16S17592   2.545   3.367   5.288  0.7793 -1.3701 -0.8406
  158SAPE  C21717593   2.434   3.244   5.428  0.4388  0.5374 -0.2183
  158SAPE  H17R17594   2.412   3.148   5.376  1.7777  0.3632 -0.4872
  158SAPE  H17S17595   2.350   3.311   5.397 -1.7565 -1.5282  0.8959
  158SAPE  C21817596   2.409   3.227   5.575  0.4839 -0.8316 -0.0734
  158SAPE  H18R17597   2.302   3.202   5.593  0.1338  0.6862  0.1708
  158SAPE  H18S17598   2.412   3.329   5.621  0.7271  0.1381 -2.1492
  158SAPE  C21917599   2.489   3.125   5.656  0.3693 -0.0477  0.2771
  158SAPE  H19R17600   2.584   3.175   5.686 -0.2237  0.8540  0.6888
  158SAPE  H19S17601   2.517   3.037   5.594 -2.4094  0.7670 -2.3692
  158SAPE  C22017602   2.430   3.073   5.790  0.3521  0.3032  0.0460
  158SAPE  H20R17603   2.406   3.152   5.863  1.1626  0.2207  0.4201
  158SAPE  H20S17604   2.492   2.989   5.830  1.4093  0.7175 -0.6928
  158SAPE  H20T17605   2.332   3.021   5.785  1.4058 -1.8580  0.5185
  158SAPE   C3317606   3.358   2.702   6.232 -0.6960  0.2690 -0.0390
  158SAPE   H3X17607   3.312   2.603   6.213  1.7271 -0.6906 -1.5492
  158SAPE   H3Y17608   3.432   2.680   6.312 -0.8963 -0.5379 -0.0594
  158SAPE   C3417609   3.433   2.751   6.111  0.2026  0.4258 -0.3028
  158SAPE   H4X17610   3.530   2.697   6.108  0.6521  1.2406 -0.8655
  158SAPE   H4Y17611   3.460   2.856   6.135 -1.5052  0.8885 -0.2847
  158SAPE   C3517612   3.359   2.742   5.975  0.3869 -0.2204 -0.0895
  158SAPE   H5X17613   3.261   2.793   5.977  0.6346  0.2501  0.9030
  158SAPE   H5Y17614   3.333   2.634   5.965  0.0321 -0.0908 -0.6137
  158SAPE   C3617615   3.447   2.781   5.855 -0.2329 -0.5014 -0.1311
  158SAPE   H6X17616   3.537   2.716   5.852  1.2393  1.3807  0.7375
  158SAPE   H6Y17617   3.492   2.882   5.853  0.9711 -1.0217 -1.4876
  158SAPE   C3717618   3.368   2.760   5.726 -0.4642 -0.4691  0.2354
  158SAPE   H7X17619   3.273   2.817   5.731 -0.4634 -0.3724 -0.5902
  158SAPE   H7Y17620   3.335   2.654   5.716 -0.9658 -0.4987  1.8951
  158SAPE   C3817621   3.439   2.818   5.600  0.4049  0.3037  0.7217
  158SAPE   H8X17622   3.545   2.788   5.592  0.2801 -0.0733  0.4492
  158SAPE   H8Y17623   3.448   2.928   5.610  2.6910  0.1753  0.5076
  158SAPE   C3917624   3.362   2.784   5.469  0.3625  0.0301 -0.2984
  158SAPE   H9X17625   3.255   2.814   5.475  0.3330  0.3288 -1.8861
  158SAPE   H9Y17626   3.373   2.674   5.460 -2.0847 -0.2021 -1.2418
  158SAPE  C31017627   3.427   2.839   5.349 -0.0510 -0.9487 -0.0245
  158SAPE  H10X17628   3.526   2.791   5.339 -0.3512 -1.3155 -1.6423
  158SAPE  H10Y17629   3.449   2.948   5.362 -0.8023 -0.7237 -0.5448
  158SAPE  C31117630   3.359   2.829   5.219  0.2589  0.1628  0.6926
  158SAPE  H11X17631   3.374   2.916   5.152 -2.2099 -0.2564 -0.5241
  158SAPE  H11Y17632   3.250   2.837   5.242  0.6118 -1.4960  3.3540
  158SAPE  C31217633   3.377   2.699   5.137  0.0502  0.2695  0.6393
  158SAPE  H12X17634   3.288   2.639   5.166  0.2898  0.4557  1.8095
  158SAPE  H12Y17635   3.468   2.645   5.172  2.0355  2.3124 -1.0968
  158SAPE  C31317636   3.367   2.712   4.985  0.2039 -0.2804  0.6801
  158SAPE  H13X17637   3.372   2.618   4.926  0.9604 -0.2187  0.6438
  158SAPE  H13Y17638   3.446   2.784   4.957 -0.7786  1.3099  1.7776
  158SAPE  C31417639   3.238   2.779   4.938  0.2478  0.4399  0.1319
  158SAPE  H14X17640   3.225   2.872   4.997 -2.3331  0.2190  0.0098
  158SAPE  H14Y17641   3.146   2.718   4.949 -0.3458  0.8660 -2.0348
  158SAPE  C31517642   3.252   2.804   4.792  0.4730  0.2104  0.4304
  158SAPE  H15X17643   3.313   2.727   4.740 -2.3054 -0.6853 -1.7574
  158SAPE  H15Y17644   3.307   2.899   4.774  0.5814 -0.1855 -1.4630
  158SAPE  C31617645   3.116   2.820   4.724  0.2425 -0.3473  0.0254
  158SAPE  H16X17646   3.150   2.889   4.643  3.6067 -2.4022 -0.5441
  158SAPE  H16Y17647   3.044   2.869   4.792 -0.6831 -1.0564 -0.4200
  158SAPE  C31717648   3.052   2.701   4.654  0.9459  0.0984  0.4669
  158SAPE  H17X17649   3.007   2.636   4.732  0.9526 -0.1354  0.2777
  158SAPE  H17Y17650   3.129   2.650   4.592  1.8013  0.2646  1.3759
  158SAPE  C31817651   2.951   2.739   4.551  0.3111 -0.5522  0.6911
  158SAPE  H18X17652   2.897   2.651   4.510  0.6645  0.1339 -1.3646
  158SAPE  H18Y17653   2.977   2.815   4.475 -1.8534  0.9588  1.3766
  158SAPE  H18Z17654   2.874   2.796   4.608  1.9899  1.3907  1.1300
  159SAPE     N17655   0.030   1.347   2.480 -1.1235  0.6184  0.0600
  159SAPE   HN117656   0.113   1.352   2.417 -1.3900 -0.5433 -0.3955
  159SAPE   HN217657   0.032   1.262   2.539  1.4174  0.2697 -0.4076
  159SAPE   HN317658  -0.054   1.335   2.420 -1.5775 -2.4818  1.1318
  159SAPE   C1217659   0.033   1.472   2.563 -1.0719 -0.9182 -0.2466
  159SAPE  H12A17660  -0.053   1.467   2.633 -0.2843  2.7264  1.1963
  159SAPE  H12B17661   0.021   1.563   2.499 -1.0288  2.1292  3.6723
  159SAPE   C1117662   0.163   1.480   2.642  0.3234 -0.5633  0.4697
  159SAPE  H11A17663   0.180   1.390   2.704  1.8325 -0.6272  0.0127
  159SAPE  H11B17664   0.163   1.568   2.710  1.1144  0.7004 -1.0811
  159SAPE     P17665   0.412   1.443   2.587 -0.3821  0.3227  0.2102
  159SAPE   O1317666   0.397   1.295   2.614  0.2205 -0.3780 -0.9266
  159SAPE   O1417667   0.503   1.487   2.480 -0.4845 -0.2699  0.0355
  159SAPE   O1217668   0.263   1.491   2.539 -0.1759  0.3623 -0.8233
  159SAPE   O1117669   0.445   1.522   2.719 -0.2755 -0.5641  0.4897
  159SAPE    C117670   0.467   1.666   2.706  0.2040  0.3156 -0.1720
  159SAPE    HA17671   0.576   1.675   2.689  1.0530 -2.6404  2.6673
  159SAPE    HB17672   0.393   1.710   2.636 -1.1067 -2.3295 -0.5915
  159SAPE    C217673   0.419   1.725   2.842 -0.1573 -0.4787 -0.9126
  159SAPE    HS17674   0.309   1.715   2.840 -0.2631  0.6767 -2.1550
  159SAPE   O2117675   0.460   1.863   2.854 -0.4367  0.2457  0.4511
  159SAPE   C2117676   0.377   1.949   2.799 -0.1377 -0.3189 -0.4309
  159SAPE   O2217677   0.285   1.924   2.721 -0.1529  0.1433 -0.2627
  159SAPE   C2217678   0.406   2.090   2.863 -0.0892 -0.1570 -0.5813
  159SAPE   H2R17679   0.514   2.103   2.883 -0.3046  1.1719 -0.2255
  159SAPE   H2S17680   0.366   2.163   2.790  0.5534 -0.7969 -1.6109
  159SAPE    C317681   0.478   1.652   2.965  0.1718  0.9995  0.8798
  159SAPE    HX17682   0.587   1.659   2.946  0.0935  0.6215  0.2633
  159SAPE    HY17683   0.454   1.544   2.957  3.0251  0.3369  0.1426
  159SAPE   O3117684   0.440   1.705   3.094  0.3934  0.2925  0.5797
  159SAPE   C3117685   0.534   1.738   3.174 -0.0039 -0.2631 -0.3813
  159SAPE   O3217686   0.652   1.699   3.167 -0.1327 -0.4005  0.1419
  159SAPE   C3217687   0.478   1.833   3.280 -0.5063  0.3521 -0.1506
  159SAPE   H2X17688   0.376   1.796   3.304 -0.5555  0.2178 -0.5588
  159SAPE   H2Y17689   0.460   1.936   3.244  0.2550  0.8520  0.8513
  159SAPE   C2317690   0.319   2.106   2.992  0.1817 -0.3163 -0.1174
  159SAPE   H3R17691   0.354   2.028   3.063  1.6943  1.0197  0.6712
  159SAPE   H3S17692   0.211   2.091   2.969 -0.3834  1.9898  0.7923
  159SAPE   C2417693   0.342   2.248   3.058  0.4824  0.2640  0.2609
  159SAPE   H4R17694   0.272   2.246   3.144 -1.0527 -0.2014 -0.9667
  159SAPE   H4S17695   0.309   2.326   2.986 -3.9062 -1.1877  0.4288
  159SAPE   C2517696   0.481   2.269   3.113 -0.2289 -0.0463  0.1017
  159SAPE   H5R17697   0.566   2.261   3.043 -0.3667  0.8594 -0.1729
  159SAPE   C2617698   0.508   2.282   3.249  0.2306 -0.1348  1.1213
  159SAPE   H6R17699   0.612   2.306   3.278  1.1099 -2.0485 -0.1750
  159SAPE   C2717700   0.405   2.298   3.354 -0.5798  0.6704  0.2456
  159SAPE   H7R17701   0.300   2.269   3.329 -0.5508 -1.0672  1.9017
  159SAPE   H7S17702   0.385   2.407   3.356 -1.4079  0.5406 -0.2921
  159SAPE   C2817703   0.444   2.248   3.491  0.0864 -0.3618  0.0110
  159SAPE   H8R17704   0.462   2.139   3.494  2.0665 -0.1465 -1.8334
  159SAPE   C2917705   0.459   2.315   3.606 -0.2098 -0.2501  0.2018
  159SAPE   H9R17706   0.482   2.258   3.697 -0.6766 -0.5883  0.1143
  159SAPE  C21017707   0.443   2.461   3.621 -0.3087  0.3984 -0.6657
  159SAPE  H10R17708   0.384   2.468   3.715  2.0849  1.7751  0.8287
  159SAPE  H10S17709   0.391   2.509   3.535  0.0973  1.4851 -0.3223
  159SAPE  C21117710   0.582   2.520   3.636  1.0400  0.1251  0.1726
  159SAPE  H11R17711   0.646   2.517   3.546  0.0860 -0.3189 -0.5110
  159SAPE  C21217712   0.630   2.571   3.749  0.2409 -0.4162 -1.1052
  159SAPE  H12R17713   0.729   2.618   3.748 -0.7352  1.8960  1.1316
  159SAPE  C21317714   0.568   2.580   3.889 -0.3537  0.5385 -0.4738
  159SAPE  H13R17715   0.634   2.643   3.952 -1.1566  0.0284  0.9120
  159SAPE  H13S17716   0.590   2.482   3.938 -1.3549  1.0787  1.1068
  159SAPE  C21417717   0.428   2.630   3.922  0.1176 -0.3856 -0.1535
  159SAPE  H14R17718   0.395   2.698   3.842  1.3420  1.5404  0.8859
  159SAPE  C21517719   0.350   2.613   4.027  0.1207 -0.4465 -0.1904
  159SAPE  H15R17720   0.250   2.659   4.031 -0.3865 -1.6058  1.2757
  159SAPE  C21617721   0.393   2.538   4.152 -0.0378 -0.5911  0.5115
  159SAPE  H16R17722   0.447   2.445   4.122 -2.6004 -1.7211 -0.8741
  159SAPE  H16S17723   0.304   2.502   4.208 -0.6246  0.7874  0.5031
  159SAPE  C21717724   0.477   2.622   4.244 -0.6380 -0.1934  0.2431
  159SAPE  H17R17725   0.427   2.721   4.245 -1.5508 -0.6344 -0.4164
  159SAPE  H17S17726   0.583   2.622   4.210 -0.2340 -0.5652  1.4162
  159SAPE  C21817727   0.484   2.570   4.386 -0.1040 -0.3144  0.2747
  159SAPE  H18R17728   0.380   2.568   4.425  0.5021  1.7806  2.2477
  159SAPE  H18S17729   0.539   2.643   4.450 -1.7056 -0.7954  2.3071
  159SAPE  C21917730   0.543   2.430   4.395 -0.3004 -0.8733 -0.6457
  159SAPE  H19R17731   0.638   2.446   4.340  0.1083  2.1201  0.7506
  159SAPE  H19S17732   0.478   2.357   4.342  0.2866 -1.0042 -1.1944
  159SAPE  C22017733   0.569   2.396   4.545  0.0928  0.0591 -1.1397
  159SAPE  H20R17734   0.623   2.477   4.598  0.8376  0.4365 -2.4407
  159SAPE  H20S17735   0.625   2.300   4.555 -0.2399  0.0037  0.4202
  159SAPE  H20T17736   0.472   2.376   4.596  0.8244 -0.0475  0.2443
  159SAPE   C3317737   0.552   1.834   3.413  0.1071  0.1256  0.7309
  159SAPE   H3X17738   0.495   1.904   3.477 -1.5430 -1.3898  0.9839
  159SAPE   H3Y17739   0.662   1.851   3.413  0.4536 -1.1034 -3.1811
  159SAPE   C3417740   0.540   1.695   3.484  0.5856  0.5735 -0.2632
  159SAPE   H4X17741   0.595   1.622   3.420 -1.7071  0.0782 -1.7982
  159SAPE   H4Y17742   0.431   1.673   3.484  0.6510  0.2589 -0.1757
  159SAPE   C3517743   0.615   1.677   3.623  0.4801  0.0786 -0.0909
  159SAPE   H5X17744   0.707   1.741   3.627  0.0879  0.6550 -0.1251
  159SAPE   H5Y17745   0.643   1.570   3.618  1.0935  0.2710 -2.7207
  159SAPE   C3617746   0.534   1.710   3.745 -0.0898  0.4753 -0.3926
  159SAPE   H6X17747   0.444   1.646   3.740  0.3061  0.0206 -3.0904
  159SAPE   H6Y17748   0.512   1.819   3.742  0.7051  0.6606  0.0494
  159SAPE   C3717749   0.626   1.684   3.864  0.4155 -0.3813 -0.0920
  159SAPE   H7X17750   0.695   1.771   3.858 -0.9986  0.7157 -1.2479
  159SAPE   H7Y17751   0.693   1.595   3.867  0.5562 -0.2442  1.4622
  159SAPE   C3817752   0.544   1.696   4.000  0.1168 -0.4490 -0.1560
  159SAPE   H8X17753   0.448   1.645   3.979 -1.5000  1.4962  1.9728
  159SAPE   H8Y17754   0.524   1.802   4.029 -1.3287 -0.5881 -0.5808
  159SAPE   C3917755   0.619   1.632   4.121  0.0296  0.1596 -0.2751
  159SAPE   H9X17756   0.619   1.521   4.113  2.5195  0.0971  0.0125
  159SAPE   H9Y17757   0.549   1.658   4.204  0.5532 -0.7974  0.4901
  159SAPE  C31017758   0.766   1.680   4.147  0.2863 -0.2948 -0.0095
  159SAPE  H10X17759   0.765   1.787   4.175 -1.5965  0.2907 -1.9744
  159SAPE  H10Y17760   0.826   1.673   4.054  0.5379  1.9252 -0.0502
  159SAPE  C31117761   0.841   1.595   4.254  0.3247  0.1444 -0.5211
  159SAPE  H11X17762   0.950   1.617   4.251  0.7258 -1.2242  1.6102
  159SAPE  H11Y17763   0.832   1.484   4.253  2.0177 -0.0318  0.1652
  159SAPE  C31217764   0.800   1.640   4.395  0.4811 -0.6219  0.1545
  159SAPE  H12X17765   0.692   1.632   4.417  0.0977 -0.7657 -1.5869
  159SAPE  H12Y17766   0.807   1.750   4.405  1.9249 -0.7319  0.6228
  159SAPE  C31317767   0.886   1.572   4.498 -0.4066 -0.1020 -0.0284
  159SAPE  H13X17768   0.881   1.626   4.595  1.2789 -2.6073  1.5624
  159SAPE  H13Y17769   0.987   1.578   4.452 -1.7606  3.5569 -3.0773
  159SAPE  C31417770   0.852   1.426   4.530 -0.0761  0.8103 -0.7921
  159SAPE  H14X17771   0.927   1.371   4.590 -0.1070 -0.6049 -2.0069
  159SAPE  H14Y17772   0.850   1.376   4.431 -0.0599  0.3523 -0.5642
  159SAPE  C31517773   0.709   1.405   4.579  0.2657  0.5390 -0.6274
  159SAPE  H15X17774   0.635   1.461   4.518  0.2796  0.1070 -1.0586
  159SAPE  H15Y17775   0.700   1.440   4.684 -2.0703 -1.7394  0.0563
  159SAPE  C31617776   0.675   1.250   4.583  0.0598 -0.4510  0.2602
  159SAPE  H16X17777   0.767   1.197   4.616  0.9268  0.4725 -0.5987
  159SAPE  H16Y17778   0.655   1.228   4.476  2.8568  3.6925 -1.3885
  159SAPE  C31717779   0.549   1.232   4.673 -0.4418 -0.8521 -0.6977
  159SAPE  H17X17780   0.455   1.276   4.632 -1.7426 -4.1329 -1.6066
  159SAPE  H17Y17781   0.564   1.276   4.774 -2.7236  2.0674 -1.5028
  159SAPE  C31817782   0.505   1.084   4.700  0.1558 -0.8049 -0.4247
  159SAPE  H18X17783   0.427   1.045   4.631 -0.3871  1.5290 -1.2559
  159SAPE  H18Y17784   0.475   1.076   4.806 -1.8844  0.9255 -0.7996
  159SAPE  H18Z17785   0.588   1.012   4.685  0.7705 -0.0907 -0.5395
  160SAPE     N17786   3.802   0.220   1.943  0.2609  0.0962 -0.3805
  160SAPE   HN117787   3.762   0.279   1.867  0.0588 -1.6934 -1.7371
  160SAPE   HN217788   3.891   0.178   1.910  1.1110  3.2543 -2.5289
  160SAPE   HN317789   3.725   0.151   1.958 -0.6340  1.0880 -0.2631
  160SAPE   C1217790   3.821   0.311   2.060  0.2055 -0.5616 -0.0221
  160SAPE  H12A17791   3.725   0.297   2.116  0.1156 -1.4024 -0.3784
  160SAPE  H12B17792   3.821   0.418   2.029  0.4884 -0.2285  1.0647
  160SAPE   C1117793   3.941   0.277   2.148  0.4802  0.0186  0.1872
  160SAPE  H11A17794   3.956   0.342   2.237  1.3362  0.1610 -0.0547
  160SAPE  H11B17795   4.033   0.300   2.091 -0.8565  1.1859 -1.6190
  160SAPE     P17796   3.908   0.089   2.325  0.0132  0.4458 -0.2759
  160SAPE   O1317797   3.815  -0.030   2.302 -0.4558 -0.6319 -0.6261
  160SAPE   O1417798   4.034   0.060   2.391  0.0940  0.2494 -0.3971
  160SAPE   O1217799   3.944   0.139   2.182  0.1021 -0.1988  0.1469
  160SAPE   O1117800   3.835   0.219   2.398  0.4355  0.0152 -0.6664
  160SAPE    C117801   3.823   0.210   2.545  0.5505 -0.3365  0.4358
  160SAPE    HA17802   3.750   0.289   2.573  2.5830  0.8229  2.8143
  160SAPE    HB17803   3.785   0.111   2.577  2.2666 -0.4923  2.1646
  160SAPE    C217804   3.958   0.241   2.623  0.1995 -0.3237  0.3865
  160SAPE    HS17805   4.008   0.142   2.625 -1.1968 -1.0503  0.5756
  160SAPE   O2117806   3.915   0.292   2.753  0.1909  0.2684  0.2781
  160SAPE   C2117807   3.851   0.203   2.838 -0.6239 -0.1162  0.0019
  160SAPE   O2217808   3.834   0.086   2.818 -0.8344  0.9056  0.2327
  160SAPE   C2217809   3.818   0.271   2.974 -0.8802 -0.1134  0.0763
  160SAPE   H2R17810   3.742   0.351   2.960  0.5279  1.1116 -0.9222
  160SAPE   H2S17811   3.764   0.193   3.032 -0.9946  0.7433  1.1447
  160SAPE    C317812   4.066   0.342   2.567 -0.1935 -0.2457  0.7022
  160SAPE    HX17813   4.010   0.438   2.556 -0.0314 -0.4177 -2.6343
  160SAPE    HY17814   4.099   0.320   2.463  0.3583 -0.2031  0.8694
  160SAPE   O3117815   4.176   0.374   2.648 -0.0681 -0.4351  0.3643
  160SAPE   C3117816   4.255   0.267   2.669 -0.1558 -0.5007  0.0903
  160SAPE   O3217817   4.240   0.154   2.633 -0.1917 -0.7437 -0.1346
  160SAPE   C3217818   4.380   0.323   2.753  0.0042 -0.1287  0.1315
  160SAPE   H2X17819   4.354   0.428   2.779 -0.5944  0.0508 -1.0789
  160SAPE   H2Y17820   4.469   0.325   2.687  1.2641  2.0802  1.7891
  160SAPE   C2317821   3.938   0.317   3.058 -0.8505 -0.0324 -0.0808
  160SAPE   H3R17822   3.974   0.405   3.001 -0.4696  0.3204  0.6931
  160SAPE   H3S17823   4.018   0.243   3.082 -1.9862 -1.2947 -0.1260
  160SAPE   C2417824   3.895   0.393   3.192  0.2736  0.1346 -0.0015
  160SAPE   H4R17825   3.827   0.475   3.162  0.3508  0.5400  0.9177
  160SAPE   H4S17826   3.991   0.438   3.224  0.1377  1.1137 -0.8948
  160SAPE   C2517827   3.829   0.300   3.297 -0.1510  0.2995 -0.3294
  160SAPE   H5R17828   3.762   0.222   3.257  2.1199 -2.1536  0.3454
  160SAPE   C2617829   3.837   0.311   3.428  0.1349 -0.2645 -0.4550
  160SAPE   H6R17830   3.783   0.243   3.496 -0.4019  0.1060 -0.4958
  160SAPE   C2717831   3.905   0.425   3.501  0.6515 -0.5425 -0.1513
  160SAPE   H7R17832   3.906   0.507   3.426  1.4867 -1.3993 -1.1075
  160SAPE   H7S17833   4.007   0.388   3.522  0.0931 -1.9101  0.2336
  160SAPE   C2817834   3.842   0.474   3.630  0.0146  0.1997 -0.7466
  160SAPE   H8R17835   3.782   0.566   3.621 -1.4894 -0.6194  0.3283
  160SAPE   C2917836   3.858   0.415   3.751 -0.1659  0.1288  0.0563
  160SAPE   H9R17837   3.819   0.470   3.838 -1.3155 -1.5162  0.6242
  160SAPE  C21017838   3.930   0.284   3.774 -0.5776  0.3490  1.3377
  160SAPE  H10R17839   4.008   0.300   3.851  2.0060 -0.8154 -0.8907
  160SAPE  H10S17840   3.983   0.241   3.687  0.5413 -1.5634  2.9049
  160SAPE  C21117841   3.831   0.172   3.808  0.0243  0.0583  0.0073
  160SAPE  H11R17842   3.761   0.151   3.727  1.9219  0.6116 -1.8761
  160SAPE  C21217843   3.825   0.099   3.926  0.2010 -0.3811  0.0004
  160SAPE  H12R17844   3.752   0.018   3.936  0.1106 -0.2325  0.5884
  160SAPE  C21317845   3.919   0.120   4.045  0.1778 -0.2734  0.8648
  160SAPE  H13R17846   3.993   0.202   4.034 -1.1699  1.0549  1.2200
  160SAPE  H13S17847   3.988   0.037   4.067  1.6537  0.1070 -1.8694
  160SAPE  C21417848   3.841   0.153   4.176 -0.0705  0.0827  0.3195
  160SAPE  H14R17849   3.736   0.183   4.163 -0.2044  0.4339  2.0358
  160SAPE  C21517850   3.895   0.165   4.296  0.2208  0.2902 -0.8835
  160SAPE  H15R17851   3.829   0.174   4.384  1.8848 -1.8889  0.6962
  160SAPE  C21617852   4.037   0.129   4.329  0.1239 -0.5375 -0.4033
  160SAPE  H16R17853   4.085   0.227   4.351 -0.6601  0.2281 -1.9788
  160SAPE  H16S17854   4.088   0.092   4.238  1.0254  0.4568 -0.3320
  160SAPE  C21717855   4.060   0.024   4.443  0.0293 -0.2311 -0.4883
  160SAPE  H17R17856   4.170   0.005   4.442 -0.2166 -1.7133 -0.1386
  160SAPE  H17S17857   4.025  -0.070   4.398 -1.5102  0.8001 -1.5242
  160SAPE  C21817858   4.010   0.041   4.581  0.2689 -0.1212  0.1248
  160SAPE  H18R17859   3.981   0.147   4.603  0.9280 -0.4260  2.8291
  160SAPE  H18S17860   4.090   0.005   4.649  2.6947  2.1698 -1.3180
  160SAPE  C21917861   3.890  -0.050   4.601 -0.9685 -0.3853 -1.0774
  160SAPE  H19R17862   3.929  -0.150   4.628  2.0270  1.0603  0.4628
  160SAPE  H19S17863   3.834  -0.055   4.505 -0.7270 -1.7916 -1.1663
  160SAPE  C22017864   3.794   0.015   4.699  0.1312 -0.3484 -0.2769
  160SAPE  H20R17865   3.847   0.046   4.792  1.3196 -0.6925 -0.8124
  160SAPE  H20S17866   3.706  -0.043   4.732 -0.7838  0.0832 -1.8528
  160SAPE  H20T17867   3.751   0.106   4.653  0.6643 -1.3578 -3.0067
  160SAPE   C3317868   4.403   0.232   2.868  0.2997 -0.0729 -0.7902
  160SAPE   H3X17869   4.510   0.231   2.899  0.4348 -0.8037 -1.2395
  160SAPE   H3Y17870   4.360   0.131   2.849 -0.5954  0.0151  0.6650
  160SAPE   C3417871   4.344   0.274   2.998  0.1177  0.0064 -0.8090
  160SAPE   H4X17872   4.318   0.183   3.057 -3.9278  1.7324  0.4391
  160SAPE   H4Y17873   4.251   0.324   2.963  0.3053  0.6772 -0.3705
  160SAPE   C3517874   4.427   0.365   3.087  0.0743 -0.0457  0.2780
  160SAPE   H5X17875   4.479   0.445   3.031  3.3931 -1.4424  1.1755
  160SAPE   H5Y17876   4.501   0.290   3.122  3.0668  2.9924  0.9538
  160SAPE   C3617877   4.345   0.416   3.204  0.1592  0.1445  0.3546
  160SAPE   H6X17878   4.274   0.336   3.235 -1.2765  0.5589 -1.6293
  160SAPE   H6Y17879   4.286   0.499   3.160  0.9055  0.2346 -0.5162
  160SAPE   C3717880   4.418   0.451   3.333  0.1242  0.4223  1.2735
  160SAPE   H7X17881   4.489   0.534   3.309  1.2927 -0.6099  1.0649
  160SAPE   H7Y17882   4.479   0.365   3.368 -1.4404 -0.8360  0.9969
  160SAPE   C3817883   4.326   0.518   3.433  0.3345  0.8091 -0.0071
  160SAPE   H8X17884   4.241   0.448   3.448 -1.3163  2.9831  1.3946
  160SAPE   H8Y17885   4.297   0.604   3.370  1.2362  0.0499 -1.5273
  160SAPE   C3917886   4.394   0.558   3.567  0.5825  0.5175 -0.8683
  160SAPE   H9X17887   4.335   0.635   3.621  1.7097  1.1661 -0.5416
  160SAPE   H9Y17888   4.489   0.603   3.533  0.1626  0.9616 -1.4796
  160SAPE  C31017889   4.432   0.450   3.670  0.0113 -0.0556 -0.0555
  160SAPE  H10X17890   4.483   0.502   3.754 -2.0489  3.6417 -0.8500
  160SAPE  H10Y17891   4.503   0.376   3.628 -0.6644 -0.2987 -0.7772
  160SAPE  C31117892   4.316   0.368   3.733  0.1099  0.2759  0.2522
  160SAPE  H11X17893   4.263   0.318   3.649  0.1034  0.8176 -0.0739
  160SAPE  H11Y17894   4.249   0.439   3.785 -0.5131 -0.5875  0.6504
  160SAPE  C31217895   4.354   0.261   3.832 -0.0984 -0.6146 -0.4607
  160SAPE  H12X17896   4.439   0.199   3.797  0.8026 -1.7631  3.2796
  160SAPE  H12Y17897   4.270   0.195   3.862 -1.3997  0.7526 -1.0075
  160SAPE  C31317898   4.402   0.316   3.966  0.3585 -0.1425 -0.4847
  160SAPE  H13X17899   4.325   0.382   4.011  0.7049  0.0998 -0.2467
  160SAPE  H13Y17900   4.498   0.372   3.961 -0.5039  1.6323  1.3549
  160SAPE  C31417901   4.422   0.202   4.067 -0.0918  0.0486  0.5967
  160SAPE  H14X17902   4.481   0.120   4.020 -0.9121 -0.6015  0.6865
  160SAPE  H14Y17903   4.326   0.156   4.098  0.3517 -1.4718 -0.1649
  160SAPE  C31517904   4.481   0.259   4.198  0.3024 -0.6012 -0.2288
  160SAPE  H15X17905   4.410   0.338   4.233 -1.3447 -1.6318 -1.1140
  160SAPE  H15Y17906   4.585   0.298   4.187 -0.3150  0.6009 -2.8803
  160SAPE  C31617907   4.480   0.147   4.302  0.2480 -0.1107 -0.0550
  160SAPE  H16X17908   4.542   0.061   4.269 -1.3514 -0.6300 -1.8832
  160SAPE  H16Y17909   4.375   0.111   4.288  0.4008  0.2474 -2.5278
  160SAPE  C31717910   4.489   0.180   4.449 -0.0712  0.0914 -0.1274
  160SAPE  H17X17911   4.419   0.261   4.478 -2.0953 -1.7740  0.3759
  160SAPE  H17Y17912   4.593   0.208   4.477  0.5218 -2.6347  0.6383
  160SAPE  C31817913   4.473   0.060   4.540 -0.0600  0.5772 -0.4307
  160SAPE  H18X17914   4.553  -0.017   4.533  0.0031  0.7577 -2.1719
  160SAPE  H18Y17915   4.374   0.013   4.527  0.3729 -0.1401 -1.2646
  160SAPE  H18Z17916   4.485   0.078   4.649  0.9708 -0.9577 -0.2574
  161SAPE     N17917   5.360   2.495   2.564  0.1940 -0.1256 -0.4820
  161SAPE   HN117918   5.290   2.450   2.625 -0.2366  1.2070  0.0586
  161SAPE   HN217919   5.322   2.544   2.480 -0.9235  0.7774  0.5039
  161SAPE   HN317920   5.434   2.434   2.524  1.4504  0.2038  1.2023
  161SAPE   C1217921   5.426   2.590   2.656 -0.2975  0.5678 -0.1536
  161SAPE  H12A17922   5.529   2.612   2.622 -0.3757  0.6762 -0.3227
  161SAPE  H12B17923   5.436   2.526   2.746  1.1660  1.6225  0.4697
  161SAPE   C1117924   5.332   2.704   2.689 -0.1392  0.2780 -0.5430
  161SAPE  H11A17925   5.381   2.772   2.763  1.8286 -0.1525 -1.4029
  161SAPE  H11B17926   5.234   2.666   2.726  0.1539 -1.1176 -1.1444
  161SAPE     P17927   5.418   2.867   2.501 -0.0167 -0.4347  0.4117
  161SAPE   O1317928   5.540   2.886   2.585 -0.0535  0.4230 -0.3064
  161SAPE   O1417929   5.437   2.840   2.355  0.5003  0.0568 -0.4104
  161SAPE   O1217930   5.314   2.774   2.569  0.5267  0.3207 -0.4161
  161SAPE   O1117931   5.341   3.003   2.518 -0.6622 -0.2340 -0.0067
  161SAPE    C117932   5.200   3.027   2.491 -0.1684 -0.6516 -0.5052
  161SAPE    HA17933   5.187   3.082   2.396 -3.6944 -0.5007 -0.0527
  161SAPE    HB17934   5.140   2.934   2.499 -1.3249  0.2295  2.3906
  161SAPE    C217935   5.145   3.110   2.618  0.2600 -0.2996 -0.1986
  161SAPE    HS17936   5.172   3.218   2.613  1.9187 -0.4722  2.7500
  161SAPE   O2117937   5.209   3.053   2.734 -0.2499 -0.1206  0.0995
  161SAPE   C2117938   5.297   3.129   2.796 -0.3498 -0.2504 -0.1613
  161SAPE   O2217939   5.339   3.236   2.770  0.0146 -0.5303  0.6377
  161SAPE   C2217940   5.350   3.033   2.902  0.5119  0.2317  0.3230
  161SAPE   H2R17941   5.304   3.056   3.000  1.6451  0.3370  0.8523
  161SAPE   H2S17942   5.323   2.929   2.875 -0.2116  0.3404  0.6224
  161SAPE    C317943   4.991   3.107   2.626 -0.1481 -0.3544 -0.0700
  161SAPE    HX17944   4.967   3.000   2.642  1.3469 -0.6521  0.3442
  161SAPE    HY17945   4.964   3.139   2.523 -1.6897 -0.3471  0.3109
  161SAPE   O3117946   4.940   3.202   2.725 -0.5857 -0.0451 -0.0050
  161SAPE   C3117947   4.849   3.149   2.806  0.1807  0.1492 -0.0607
  161SAPE   O3217948   4.806   3.035   2.810 -0.2237 -0.4352  0.0277
  161SAPE   C3217949   4.824   3.242   2.921  0.0306  0.0134 -0.9044
  161SAPE   H2X17950   4.792   3.180   3.007  2.7870  1.0104  0.9819
  161SAPE   H2Y17951   4.753   3.321   2.891 -0.8299  0.3544  1.7931
  161SAPE   C2317952   5.506   3.030   2.910  0.0667  0.5112  0.3328
  161SAPE   H3R17953   5.534   3.052   2.805  0.6112 -0.0828  0.3509
  161SAPE   H3S17954   5.544   2.934   2.950 -0.6136 -0.5339 -1.4075
  161SAPE   C2417955   5.571   3.126   3.014  1.1909 -0.6963  0.8326
  161SAPE   H4R17956   5.675   3.089   3.029  1.3151 -0.6501  0.1093
  161SAPE   H4S17957   5.508   3.106   3.103  1.0728 -1.0513  0.6734
  161SAPE   C2517958   5.569   3.271   2.979 -0.0534 -0.3188  0.3579
  161SAPE   H5R17959   5.558   3.294   2.872  2.0925  0.7292  0.3142
  161SAPE   C2617960   5.560   3.369   3.070 -0.6142 -0.4870 -0.0104
  161SAPE   H6R17961   5.538   3.470   3.033 -0.4537 -0.5916 -0.3895
  161SAPE   C2717962   5.548   3.348   3.223 -0.6761  0.0297  0.3772
  161SAPE   H7R17963   5.646   3.365   3.272  0.8028 -0.2125 -2.3077
  161SAPE   H7S17964   5.526   3.246   3.261 -1.7476  0.5106  1.0862
  161SAPE   C2817965   5.443   3.439   3.275 -0.0091 -0.0627 -0.2727
  161SAPE   H8R17966   5.357   3.428   3.207  1.3928 -3.5705 -1.7619
  161SAPE   C2917967   5.439   3.522   3.385  0.7239  0.9213 -0.3821
  161SAPE   H9R17968   5.342   3.568   3.408 -0.8635 -2.5552  0.4548
  161SAPE  C21017969   5.551   3.553   3.484 -0.3673  0.4990  0.0137
  161SAPE  H10R17970   5.588   3.452   3.513 -0.4148  1.1516  2.5158
  161SAPE  H10S17971   5.513   3.588   3.582 -0.9189  0.2388 -0.1027
  161SAPE  C21117972   5.662   3.645   3.433  0.0296 -1.3637  0.2272
  161SAPE  H11R17973   5.687   3.631   3.327  3.5909  0.4565  0.6955
  161SAPE  C21217974   5.729   3.749   3.496 -0.0469  1.1057 -0.2392
  161SAPE  H12R17975   5.810   3.798   3.440  1.9854 -0.0799  1.5638
  161SAPE  C21317976   5.724   3.814   3.629 -0.0702  0.9039 -0.1182
  161SAPE  H13R17977   5.624   3.862   3.636 -0.5026 -0.1331  1.3847
  161SAPE  H13S17978   5.797   3.897   3.639 -0.2947  1.3394 -1.8364
  161SAPE  C21417979   5.730   3.710   3.739  0.9447  0.0625 -0.1635
  161SAPE  H14R17980   5.786   3.616   3.726  1.5022  0.5614 -1.5893
  161SAPE  C21517981   5.671   3.731   3.861  0.3344 -0.6625 -1.0022
  161SAPE  H15R17982   5.693   3.661   3.943  1.6233  0.1070 -0.6644
  161SAPE  C21617983   5.582   3.850   3.899 -0.2760  0.3367  0.1878
  161SAPE  H16R17984   5.490   3.846   3.838 -0.6627  2.3141  0.5639
  161SAPE  H16S17985   5.640   3.945   3.891  0.8643 -0.2097  1.4576
  161SAPE  C21717986   5.534   3.832   4.044  0.4933  0.0354 -0.3776
  161SAPE  H17R17987   5.473   3.742   4.064 -2.9632  2.5229  1.1651
  161SAPE  H17S17988   5.466   3.915   4.071 -1.0337 -0.4857 -2.3504
  161SAPE  C21817989   5.655   3.842   4.140 -0.1364 -0.4609  0.0900
  161SAPE  H18R17990   5.698   3.944   4.131  0.4599 -0.4546  2.4038
  161SAPE  H18S17991   5.729   3.761   4.126 -0.5942 -1.1784  1.5715
  161SAPE  C21917992   5.596   3.825   4.288 -0.3571  0.1914  0.3516
  161SAPE  H19R17993   5.549   3.725   4.302 -0.1640  0.1012  0.3652
  161SAPE  H19S17994   5.515   3.898   4.304  1.2001  2.2262 -0.5695
  161SAPE  C22017995   5.700   3.832   4.403 -0.2031  0.1339 -0.2855
  161SAPE  H20R17996   5.800   3.804   4.364  0.5347  0.8607  0.9866
  161SAPE  H20S17997   5.667   3.752   4.473 -1.4467 -0.7777 -1.8607
  161SAPE  H20T17998   5.691   3.930   4.455  1.3331 -0.7246  1.7732
  161SAPE   C3317999   4.957   3.317   2.969  0.2829  0.0347  0.1700
  161SAPE   H3X18000   4.941   3.406   3.033  0.2463 -0.0774  0.3173
  161SAPE   H3Y18001   5.011   3.351   2.878 -0.2159  0.4208  0.0122
  161SAPE   C3418002   5.050   3.222   3.045 -0.9574  1.0333 -0.1645
  161SAPE   H4X18003   5.157   3.251   3.051 -0.8988  0.7619  0.1949
  161SAPE   H4Y18004   5.074   3.135   2.981  1.5444  2.5988 -1.4883
  161SAPE   C3518005   4.992   3.166   3.175 -0.0324  0.0059 -0.1057
  161SAPE   H5X18006   4.910   3.094   3.152  1.7593 -1.3640 -2.5898
  161SAPE   H5Y18007   4.964   3.254   3.236  2.9304  0.7449  0.3153
  161SAPE   C3618008   5.105   3.082   3.250 -0.1566  0.3639 -0.0085
  161SAPE   H6X18009   5.192   3.075   3.181  0.2362  1.1777  0.3906
  161SAPE   H6Y18010   5.059   2.982   3.262  0.4162 -0.1097 -1.4993
  161SAPE   C3718011   5.146   3.144   3.380  0.4889  0.9306 -0.2204
  161SAPE   H7X18012   5.063   3.195   3.433  1.2832  1.0631  0.9585
  161SAPE   H7Y18013   5.208   3.224   3.333 -0.1637 -0.8552 -4.6231
  161SAPE   C3818014   5.214   3.049   3.479  0.5042 -0.1520  0.1945
  161SAPE   H8X18015   5.287   2.989   3.420 -0.1048  1.0583 -1.9022
  161SAPE   H8Y18016   5.142   2.975   3.519 -0.8756  1.0839  0.0794
  161SAPE   C3918017   5.268   3.127   3.602  0.3929  0.0867  0.3580
  161SAPE   H9X18018   5.274   3.049   3.680  0.7158  0.5792  0.8246
  161SAPE   H9Y18019   5.194   3.201   3.639 -2.4385 -2.6774  0.6650
  161SAPE  C31018020   5.403   3.193   3.572  0.1237 -0.4662 -0.5201
  161SAPE  H10X18021   5.392   3.247   3.476 -0.0757 -3.9865 -2.6791
  161SAPE  H10Y18022   5.483   3.118   3.552  1.1406  0.5422 -0.3347
  161SAPE  C31118023   5.444   3.286   3.687 -0.6723 -0.5526  0.0088
  161SAPE  H11X18024   5.362   3.360   3.696 -0.9663 -0.7738 -0.7514
  161SAPE  H11Y18025   5.537   3.346   3.671 -1.6001  0.4208 -2.1989
  161SAPE  C31218026   5.465   3.219   3.818 -0.2348 -0.7608  0.1078
  161SAPE  H12X18027   5.537   3.135   3.811 -0.9041 -1.2196 -2.1854
  161SAPE  H12Y18028   5.379   3.165   3.864  1.6427 -4.2913 -0.1475
  161SAPE  C31318029   5.521   3.320   3.920  0.3758  0.0492  0.0725
  161SAPE  H13X18030   5.603   3.378   3.872  0.7419 -0.5466 -0.0384
  161SAPE  H13Y18031   5.565   3.258   4.001  0.9832 -0.3816 -0.5718
  161SAPE  C31418032   5.417   3.418   3.979  0.5761 -0.2621  0.5973
  161SAPE  H14X18033   5.314   3.379   3.986  0.9254 -1.5339 -0.8565
  161SAPE  H14Y18034   5.397   3.507   3.914 -1.7081 -0.6287  0.7223
  161SAPE  C31518035   5.461   3.481   4.112 -0.7021  0.0766 -0.3241
  161SAPE  H15X18036   5.381   3.554   4.136 -1.1995 -0.3800 -0.5436
  161SAPE  H15Y18037   5.555   3.539   4.110 -0.0054 -0.7285  2.8426
  161SAPE  C31618038   5.471   3.379   4.231  0.4996 -0.1751 -0.3019
  161SAPE  H16X18039   5.565   3.321   4.219  0.2963 -0.9294  1.5140
  161SAPE  H16Y18040   5.380   3.316   4.229 -0.0242  0.2128  3.6867
  161SAPE  C31718041   5.483   3.457   4.363  0.1187 -0.1917  0.4010
  161SAPE  H17X18042   5.406   3.536   4.375  1.6148  1.0602  2.3748
  161SAPE  H17Y18043   5.581   3.509   4.364 -0.9477  1.9440  0.1246
  161SAPE  C31818044   5.474   3.368   4.485  0.3066  0.1448 -0.5975
  161SAPE  H18X18045   5.461   3.421   4.582  1.6503 -0.9707  0.2286
  161SAPE  H18Y18046   5.563   3.311   4.520 -0.6306 -0.7794  0.3517
  161SAPE  H18Z18047   5.383   3.305   4.480  1.0796 -0.9508 -1.0169
  162SAPE     N18048   4.532   4.703   2.338  1.2346  0.6557 -0.6572
  162SAPE   HN118049   4.545   4.687   2.236  1.0572  3.3128 -1.1594
  162SAPE   HN218050   4.480   4.620   2.372 -0.4647  1.1019 -2.0044
  162SAPE   HN318051   4.479   4.792   2.349 -1.6718 -0.9462 -0.6855
  162SAPE   C1218052   4.666   4.714   2.411  0.1993 -0.3919  0.0000
  162SAPE  H12A18053   4.711   4.612   2.409  1.2554  0.0591  0.3523
  162SAPE  H12B18054   4.641   4.733   2.517 -0.4824 -0.8741 -0.0588
  162SAPE   C1118055   4.759   4.818   2.344  0.5743  0.0964  0.4219
  162SAPE  H11A18056   4.786   4.764   2.251 -1.8792 -0.0090 -0.3133
  162SAPE  H11B18057   4.850   4.844   2.402  1.4964 -2.5668  0.3279
  162SAPE     P18058   4.732   5.076   2.319  0.2862  0.2690  0.3249
  162SAPE   O1318059   4.873   5.090   2.269 -0.1711 -0.5105  0.4186
  162SAPE   O1418060   4.630   5.171   2.270  0.1251 -0.2309  0.2616
  162SAPE   O1218061   4.678   4.928   2.300 -0.4836 -0.0507  0.0504
  162SAPE   O1118062   4.734   5.088   2.480  0.0633  0.9694 -0.0942
  162SAPE    C118063   4.623   5.140   2.553 -0.6170  0.1105  0.3954
  162SAPE    HA18064   4.610   5.246   2.520  0.5528  0.5206  1.1912
  162SAPE    HB18065   4.536   5.076   2.528  0.9804 -2.5143  1.1962
  162SAPE    C218066   4.645   5.137   2.705 -0.3573 -0.1736 -0.6535
  162SAPE    HS18067   4.560   5.180   2.761  0.3206  0.0424  0.2246
  162SAPE   O2118068   4.764   5.210   2.734  0.0479  0.1098  0.2019
  162SAPE   C2118069   4.747   5.329   2.793 -0.0125 -1.1822  0.1761
  162SAPE   O2218070   4.641   5.389   2.814  0.2075 -0.0164  0.2544
  162SAPE   C2218071   4.890   5.354   2.858  0.0709  0.0436  0.8389
  162SAPE   H2R18072   4.923   5.266   2.917 -0.5882 -1.3750 -0.8214
  162SAPE   H2S18073   4.959   5.378   2.774 -0.9250  0.1429  0.0262
  162SAPE    C318074   4.668   4.992   2.751  0.1194 -0.2462  0.0887
  162SAPE    HX18075   4.728   4.934   2.677  0.9641 -0.9228  1.2691
  162SAPE    HY18076   4.569   4.941   2.745  1.2488 -2.5390 -0.1896
  162SAPE   O3118077   4.721   4.989   2.887  0.1701 -0.1971  0.1797
  162SAPE   C3118078   4.829   4.911   2.914  0.5500  0.2802  0.3956
  162SAPE   O3218079   4.896   4.850   2.829  0.4370 -0.5659 -0.5024
  162SAPE   C3218080   4.858   4.922   3.060 -0.0436 -0.2534  0.2101
  162SAPE   H2X18081   4.783   4.879   3.130  2.2817 -0.4426  2.7052
  162SAPE   H2Y18082   4.861   5.032   3.070 -0.3294 -0.1173 -0.9726
  162SAPE   C2318083   4.892   5.480   2.943  0.3879 -0.5974 -0.1515
  162SAPE   H3R18084   4.826   5.558   2.898 -1.4949 -2.7362 -1.2834
  162SAPE   H3S18085   4.994   5.524   2.938 -0.3894  1.2196 -1.0913
  162SAPE   C2418086   4.869   5.467   3.093  0.2790  0.3398  0.1671
  162SAPE   H4R18087   4.759   5.454   3.097  0.2626  0.5780  0.5109
  162SAPE   H4S18088   4.884   5.570   3.133  1.6071  0.5353 -0.7545
  162SAPE   C2518089   4.956   5.366   3.170  0.3339 -0.1612  0.2064
  162SAPE   H5R18090   5.063   5.390   3.167  0.3549 -0.3182 -0.3998
  162SAPE   C2618091   4.901   5.259   3.219 -0.3489  0.3132 -0.3131
  162SAPE   H6R18092   4.967   5.189   3.272  0.4144  0.6069 -0.8537
  162SAPE   C2718093   4.754   5.234   3.233 -0.0177 -0.0279 -0.1681
  162SAPE   H7R18094   4.716   5.197   3.136  2.2947  0.5566 -1.3877
  162SAPE   H7S18095   4.694   5.324   3.257 -1.0891 -1.0124  0.9808
  162SAPE   C2818096   4.730   5.125   3.340  0.1215  0.0419  0.1403
  162SAPE   H8R18097   4.677   5.040   3.295  0.5499  1.3002 -2.9242
  162SAPE   C2918098   4.753   5.119   3.476 -0.5563 -0.7718  0.0436
  162SAPE   H9R18099   4.741   5.025   3.532  0.8355 -0.4448  0.9405
  162SAPE  C21018100   4.807   5.238   3.553 -0.3237  0.1337 -0.7633
  162SAPE  H10R18101   4.763   5.230   3.655 -0.2286 -0.2767 -0.7520
  162SAPE  H10S18102   4.766   5.332   3.511 -1.8604 -0.7267 -1.2485
  162SAPE  C21118103   4.956   5.250   3.555  0.5876  0.9960 -0.6641
  162SAPE  H11R18104   5.008   5.287   3.466  0.7850  2.7486  0.1378
  162SAPE  C21218105   5.036   5.216   3.657  0.4915 -0.8382  0.4241
  162SAPE  H12R18106   5.145   5.209   3.641  0.5680 -1.8085  1.3128
  162SAPE  C21318107   4.986   5.163   3.791 -0.1610 -1.2405  0.6523
  162SAPE  H13R18108   5.070   5.097   3.823  1.7860  0.2971 -1.0427
  162SAPE  H13S18109   4.900   5.093   3.794 -0.6750 -0.6001  2.2599
  162SAPE  C21418110   4.967   5.276   3.888 -0.0832 -0.4332 -0.7718
  162SAPE  H14R18111   4.973   5.379   3.849  1.6703  0.5860  1.8555
  162SAPE  C21518112   4.953   5.264   4.022  0.0808  0.3168  0.5166
  162SAPE  H15R18113   4.945   5.357   4.080  1.4672 -1.0270  3.0369
  162SAPE  C21618114   4.928   5.135   4.093  0.3351 -0.0164 -0.0496
  162SAPE  H16R18115   4.911   5.051   4.023 -0.2305  1.0567 -1.2321
  162SAPE  H16S18116   4.844   5.139   4.165  0.9085  1.2872  0.5979
  162SAPE  C21718117   5.053   5.085   4.175 -0.5269 -0.6991 -0.3902
  162SAPE  H17R18118   5.048   5.136   4.274 -1.6719  0.7959 -1.1947
  162SAPE  H17S18119   5.155   5.111   4.140  0.5247  0.3030  2.9573
  162SAPE  C21818120   5.050   4.933   4.188 -0.4512 -0.7115  0.0975
  162SAPE  H18R18121   5.093   4.878   4.102 -0.1832  0.5460 -0.5947
  162SAPE  H18S18122   4.945   4.897   4.201 -0.2789 -1.0640  0.5423
  162SAPE  C21918123   5.130   4.887   4.306 -0.3241 -0.3185 -0.1255
  162SAPE  H19R18124   5.085   4.920   4.402  1.8617  0.6654  0.6379
  162SAPE  H19S18125   5.235   4.924   4.311  0.1064 -1.5114  0.0678
  162SAPE  C22018126   5.151   4.735   4.309  0.4478  0.5205  0.4289
  162SAPE  H20R18127   5.218   4.694   4.232 -0.8672  0.3225 -0.6515
  162SAPE  H20S18128   5.051   4.688   4.295  0.8463 -0.2031 -0.0617
  162SAPE  H20T18129   5.188   4.695   4.406  0.9420 -2.1954 -0.7657
  162SAPE   C3318130   4.989   4.854   3.096 -0.2121  0.4463  0.1829
  162SAPE   H3X18131   5.076   4.887   3.035 -0.5541  0.2916 -0.3879
  162SAPE   H3Y18132   4.973   4.748   3.066  1.1168  0.5227 -0.8882
  162SAPE   C3418133   5.009   4.867   3.246  0.0573  0.7398 -0.4562
  162SAPE   H4X18134   4.915   4.841   3.299  0.5933 -0.2797  0.0193
  162SAPE   H4Y18135   5.037   4.971   3.273 -2.2096  1.1750  0.4008
  162SAPE   C3518136   5.116   4.773   3.304 -0.3990 -0.4214 -0.1577
  162SAPE   H5X18137   5.211   4.805   3.257  0.1459 -1.0802  0.4576
  162SAPE   H5Y18138   5.097   4.671   3.265  0.0026 -0.4283 -0.3356
  162SAPE   C3618139   5.131   4.786   3.459  1.0932 -0.1888 -1.1053
  162SAPE   H6X18140   5.038   4.767   3.517  1.4251  0.9075 -0.1638
  162SAPE   H6Y18141   5.156   4.893   3.477 -1.7048  0.0810  2.0312
  162SAPE   C3718142   5.237   4.683   3.507  0.1659  0.0118 -0.3299
  162SAPE   H7X18143   5.330   4.727   3.464  0.8280 -0.9099  0.1400
  162SAPE   H7Y18144   5.210   4.591   3.450  1.5297 -0.9381  0.5241
  162SAPE   C3818145   5.231   4.659   3.658  0.3139  0.3673 -0.2415
  162SAPE   H8X18146   5.124   4.646   3.683  0.9952 -3.6047  1.4507
  162SAPE   H8Y18147   5.267   4.746   3.716  2.1482 -1.5324  1.6894
  162SAPE   C3918148   5.310   4.532   3.687 -0.4691  0.2667  0.3056
  162SAPE   H9X18149   5.402   4.534   3.625 -1.0699  1.3316 -0.6024
  162SAPE   H9Y18150   5.259   4.445   3.641  3.0082 -0.2249 -3.0499
  162SAPE  C31018151   5.347   4.501   3.833  0.4748  0.3703  0.3118
  162SAPE  H10X18152   5.408   4.408   3.829 -1.4790 -0.9277 -1.5343
  162SAPE  H10Y18153   5.267   4.477   3.906  0.6784  0.1751  0.4748
  162SAPE  C31118154   5.434   4.597   3.908 -0.5285  0.1857 -0.3662
  162SAPE  H11X18155   5.390   4.698   3.922 -0.2163  0.0947  1.6194
  162SAPE  H11Y18156   5.527   4.606   3.847 -0.2295 -1.2301 -0.1517
  162SAPE  C31218157   5.458   4.535   4.048 -0.4740 -0.2158  0.3630
  162SAPE  H12X18158   5.479   4.425   4.049  0.6098 -0.0481 -1.0692
  162SAPE  H12Y18159   5.367   4.560   4.106 -0.1983  3.0502 -0.4096
  162SAPE  C31318160   5.582   4.580   4.122  0.1167 -0.4325  0.5150
  162SAPE  H13X18161   5.583   4.691   4.136 -1.0516  0.1643 -3.1172
  162SAPE  H13Y18162   5.661   4.575   4.044 -1.2998  1.9462 -1.2018
  162SAPE  C31418163   5.619   4.489   4.240  1.0122 -0.1111  0.2026
  162SAPE  H14X18164   5.650   4.387   4.208  1.5921 -0.6851  2.3935
  162SAPE  H14Y18165   5.530   4.481   4.305 -1.2292  1.1337 -2.5036
  162SAPE  C31518166   5.728   4.558   4.330 -0.1174  0.1074 -0.0735
  162SAPE  H15X18167   5.699   4.660   4.361 -0.9650 -0.3573  0.6923
  162SAPE  H15Y18168   5.815   4.567   4.261 -0.0323 -0.9854 -0.1395
  162SAPE  C31618169   5.760   4.469   4.458  0.1482 -0.0874  0.3505
  162SAPE  H16X18170   5.776   4.365   4.423  1.5708  0.1221  0.3145
  162SAPE  H16Y18171   5.666   4.467   4.516 -0.8588 -1.8773 -1.2386
  162SAPE  C31718172   5.876   4.520   4.542 -0.1699 -0.0627  0.0603
  162SAPE  H17X18173   5.866   4.485   4.646 -1.6897  0.6547  0.1747
  162SAPE  H17Y18174   5.888   4.630   4.549  1.4708 -0.1603 -0.5833
  162SAPE  C31818175   6.016   4.464   4.507 -0.1396  0.7005 -0.0411
  162SAPE  H18X18176   6.020   4.353   4.507  2.4971  0.7086 -1.5033
  162SAPE  H18Y18177   6.093   4.510   4.571  0.1780 -0.0521  0.1318
  162SAPE  H18Z18178   6.036   4.490   4.401  2.2865  1.1994  0.4960
  163SAPE     N18179   4.249   3.727   2.657  0.1222  0.3489 -0.0474
  163SAPE   HN118180   4.251   3.812   2.717 -0.4373 -0.8837  1.8052
  163SAPE   HN218181   4.202   3.650   2.708  0.8011  0.8486  1.3822
  163SAPE   HN318182   4.349   3.704   2.640 -0.5032 -2.1385 -0.6638
  163SAPE   C1218183   4.195   3.780   2.527  0.0624 -0.1350  0.0827
  163SAPE  H12A18184   4.212   3.702   2.449 -0.0373 -0.7494  0.6731
  163SAPE  H12B18185   4.244   3.875   2.496  0.6127 -0.6567 -0.6974
  163SAPE   C1118186   4.042   3.805   2.551  0.2686  0.1889 -0.1920
  163SAPE  H11A18187   3.997   3.719   2.605 -2.9528  2.5426  1.2127
  163SAPE  H11B18188   3.983   3.819   2.458 -1.8572  0.0199  1.0497
  163SAPE     P18189   3.899   3.926   2.739 -0.3482  0.3670  0.2870
  163SAPE   O1318190   3.912   4.056   2.810 -0.2730 -0.1161 -0.1120
  163SAPE   O1418191   3.768   3.891   2.679 -0.0054 -0.6483  0.0880
  163SAPE   O1218192   4.015   3.922   2.628  0.2921 -0.7857 -0.8015
  163SAPE   O1118193   3.944   3.819   2.838 -0.1026 -0.2659 -0.2396
  163SAPE    C118194   3.974   3.843   2.980 -0.0234 -0.2890  0.1450
  163SAPE    HA18195   4.050   3.774   3.021 -0.1446 -0.3709  0.2336
  163SAPE    HB18196   4.008   3.947   2.998  0.6768 -0.3858 -0.5896
  163SAPE    C218197   3.836   3.820   3.065 -1.3857 -0.7136  0.6236
  163SAPE    HS18198   3.767   3.900   3.032 -0.6777 -0.1809  0.4129
  163SAPE   O2118199   3.864   3.836   3.206 -0.5321 -0.5521  0.0865
  163SAPE   C2118200   3.765   3.870   3.288 -0.9039 -0.1219 -0.5170
  163SAPE   O2218201   3.645   3.871   3.255 -0.4333  0.0213 -0.4872
  163SAPE   C2218202   3.825   3.914   3.425 -0.5095 -0.2154  0.4020
  163SAPE   H2R18203   3.743   3.885   3.495 -0.2262 -0.7493  0.5201
  163SAPE   H2S18204   3.910   3.845   3.446 -0.2360  0.1911  0.6454
  163SAPE    C318205   3.766   3.682   3.037 -0.1589 -0.3557 -0.0224
  163SAPE    HX18206   3.745   3.680   2.928 -0.5089  0.4894  0.0284
  163SAPE    HY18207   3.668   3.676   3.088 -1.3697 -2.2729 -2.3578
  163SAPE   O3118208   3.854   3.568   3.054 -0.0021 -0.4272 -0.6075
  163SAPE   C3118209   3.790   3.458   3.075 -0.0880  0.0244 -0.2624
  163SAPE   O3218210   3.671   3.442   3.078  0.3489  0.3906 -0.2511
  163SAPE   C3218211   3.878   3.341   3.089 -0.6301 -0.2603  0.3212
  163SAPE   H2X18212   3.942   3.332   2.999 -0.0991  0.4499  0.6047
  163SAPE   H2Y18213   3.813   3.254   3.067 -0.0404 -0.2060 -1.7938
  163SAPE   C2318214   3.855   4.065   3.425 -0.0073  0.2841 -0.0868
  163SAPE   H3R18215   3.767   4.128   3.401  0.1717  1.1124  1.3190
  163SAPE   H3S18216   3.937   4.088   3.354 -0.3193  0.0111 -0.5433
  163SAPE   C2418217   3.901   4.113   3.567  0.5725  0.7145  0.2907
  163SAPE   H4R18218   3.840   4.061   3.645  2.3887 -1.8271  0.1417
  163SAPE   H4S18219   3.871   4.220   3.571  0.8178  0.7994 -0.1233
  163SAPE   C2518220   4.050   4.090   3.606  0.4982  1.5316  0.3742
  163SAPE   H5R18221   4.122   4.133   3.535 -1.2647  2.3373 -1.0026
  163SAPE   C2618222   4.102   3.999   3.692  0.0004  0.2032  0.5095
  163SAPE   H6R18223   4.211   3.993   3.702  0.0517  1.5954  0.9811
  163SAPE   C2718224   4.021   3.902   3.774 -0.6378  0.4448  0.0739
  163SAPE   H7R18225   4.080   3.813   3.802 -1.0032  0.2129  0.1137
  163SAPE   H7S18226   3.940   3.859   3.710  0.3925  0.7500 -1.4974
  163SAPE   C2818227   3.953   3.969   3.895 -0.5612 -1.0423 -0.3684
  163SAPE   H8R18228   3.888   4.046   3.849 -1.3302 -1.8919 -0.7471
  163SAPE   C2918229   3.946   3.928   4.022 -0.1356 -0.1964 -0.4264
  163SAPE   H9R18230   3.892   3.986   4.097  1.5671  0.8142  0.0835
  163SAPE  C21018231   3.997   3.802   4.078 -0.0308  0.6933 -0.5770
  163SAPE  H10R18232   4.102   3.826   4.106 -0.1526 -0.3104  0.7860
  163SAPE  H10S18233   3.997   3.730   3.993  1.4736  1.5568 -1.3625
  163SAPE  C21118234   3.928   3.750   4.205  0.4036 -0.3000  0.3315
  163SAPE  H11R18235   3.861   3.664   4.194  0.7446 -0.8889  2.4846
  163SAPE  C21218236   3.934   3.806   4.327 -0.4382 -0.3592  0.9984
  163SAPE  H12R18237   3.873   3.766   4.409 -1.7475  1.5442  1.0064
  163SAPE  C21318238   4.030   3.919   4.367  0.2119 -0.4040  0.0196
  163SAPE  H13R18239   4.068   3.979   4.282 -0.0359  1.5816  1.2673
  163SAPE  H13S18240   4.121   3.877   4.415  0.8057  0.9576  0.1154
  163SAPE  C21418241   3.959   4.026   4.447 -0.8195 -0.3425 -0.1831
  163SAPE  H14R18242   3.850   4.039   4.442 -0.5464  2.2130 -0.7493
  163SAPE  C21518243   4.023   4.105   4.541  0.0994 -0.5021  0.1301
  163SAPE  H15R18244   3.961   4.184   4.586 -1.7135  0.7496 -4.0509
  163SAPE  C21618245   4.173   4.095   4.575  0.1954 -0.4100  0.8167
  163SAPE  H16R18246   4.201   4.197   4.609 -1.0755  0.2685 -0.0851
  163SAPE  H16S18247   4.232   4.069   4.485  0.6503  1.5892  0.4908
  163SAPE  C21718248   4.187   3.992   4.687  0.0350 -0.4863  0.1348
  163SAPE  H17R18249   4.142   3.893   4.664  0.1087 -0.3348 -0.7326
  163SAPE  H17S18250   4.131   4.039   4.770 -2.0556  0.0031 -1.4740
  163SAPE  C21818251   4.333   3.984   4.731 -0.2286  1.0837  0.7179
  163SAPE  H18R18252   4.384   4.083   4.735 -0.7221  1.4455 -1.2035
  163SAPE  H18S18253   4.379   3.930   4.646 -1.3120  1.6145 -0.2277
  163SAPE  C21918254   4.369   3.894   4.845 -0.5191 -0.3569 -0.0473
  163SAPE  H19R18255   4.287   3.820   4.849 -1.5744  0.5689 -2.4639
  163SAPE  H19S18256   4.348   3.956   4.935 -2.8186  0.2930 -0.9719
  163SAPE  C22018257   4.519   3.849   4.846  0.0552  0.4704  0.1336
  163SAPE  H20R18258   4.558   3.824   4.745 -0.6194  0.2757 -0.0804
  163SAPE  H20S18259   4.534   3.755   4.904  0.1139  0.9897  0.9746
  163SAPE  H20T18260   4.587   3.928   4.883  0.7063 -1.1697  2.6821
  163SAPE   C3318261   3.965   3.330   3.222  0.3508 -0.3809  0.1700
  163SAPE   H3X18262   3.901   3.358   3.308 -0.3478 -3.0261  0.6189
  163SAPE   H3Y18263   4.051   3.400   3.224  0.2389 -0.2537  1.3133
  163SAPE   C3418264   4.020   3.193   3.261  0.7022  0.7379  0.3622
  163SAPE   H4X18265   4.085   3.146   3.185  0.4168  0.1496  0.4725
  163SAPE   H4Y18266   3.938   3.117   3.259  1.8369 -0.5055 -1.3669
  163SAPE   C3518267   4.085   3.175   3.394  0.4906  0.0179  0.6879
  163SAPE   H5X18268   4.012   3.213   3.469  0.2672  1.7993 -0.3596
  163SAPE   H5Y18269   4.174   3.240   3.401  0.6459 -0.2897  1.6512
  163SAPE   C3618270   4.129   3.027   3.423 -0.2605 -0.6627 -0.4979
  163SAPE   H6X18271   4.225   3.002   3.373  0.8273  1.4026  0.4117
  163SAPE   H6Y18272   4.047   2.965   3.382 -1.3987  1.3479 -1.4083
  163SAPE   C3718273   4.152   2.987   3.572  0.6512 -0.3861  1.3226
  163SAPE   H7X18274   4.169   2.881   3.602  1.1812 -0.7613 -0.1938
  163SAPE   H7Y18275   4.073   3.029   3.638  1.9159  3.4375  0.6694
  163SAPE   C3818276   4.281   3.067   3.625 -0.1022  0.1572  0.2901
  163SAPE   H8X18277   4.241   3.167   3.652 -0.2061  0.7691 -1.9253
  163SAPE   H8Y18278   4.359   3.075   3.546 -0.7001 -1.5130 -0.5101
  163SAPE   C3918279   4.336   3.005   3.753 -0.8150 -0.6771 -0.3913
  163SAPE   H9X18280   4.264   2.997   3.837  1.3283  0.2222  1.6643
  163SAPE   H9Y18281   4.412   3.071   3.801 -0.9463 -0.7825 -0.0354
  163SAPE  C31018282   4.416   2.877   3.730  0.7715  0.0526  0.4448
  163SAPE  H10X18283   4.495   2.885   3.653 -0.2481 -3.8432 -1.2566
  163SAPE  H10Y18284   4.341   2.797   3.707 -0.1812  0.8080  0.8507
  163SAPE  C31118285   4.500   2.832   3.857  0.0506  0.5496  0.7358
  163SAPE  H11X18286   4.437   2.850   3.947 -1.7629 -0.2393 -0.3125
  163SAPE  H11Y18287   4.583   2.905   3.855  0.1075  0.5118  1.5972
  163SAPE  C31218288   4.556   2.691   3.843 -0.0492  1.2154  0.1008
  163SAPE  H12X18289   4.624   2.690   3.755  0.1779  0.2404  0.2789
  163SAPE  H12Y18290   4.475   2.619   3.818  0.2753  1.4761 -1.8601
  163SAPE  C31318291   4.635   2.641   3.971 -0.0066  0.5517 -0.3448
  163SAPE  H13X18292   4.729   2.697   3.986 -0.4898  2.1697 -2.7051
  163SAPE  H13Y18293   4.662   2.536   3.946  0.4046  0.8965 -1.4354
  163SAPE  C31418294   4.552   2.648   4.103  0.6412  0.2664  0.5934
  163SAPE  H14X18295   4.462   2.592   4.068  2.1674 -1.5129 -0.7778
  163SAPE  H14Y18296   4.504   2.744   4.131 -0.6455 -0.2699  0.2901
  163SAPE  C31518297   4.624   2.575   4.224 -0.1867 -0.0987 -0.1673
  163SAPE  H15X18298   4.728   2.614   4.232  0.6321 -2.0558 -0.5666
  163SAPE  H15Y18299   4.626   2.465   4.207 -3.0185 -0.3636  0.7397
  163SAPE  C31618300   4.561   2.604   4.360  0.2368  0.3947 -0.2029
  163SAPE  H16X18301   4.458   2.565   4.378 -0.2283  2.8897  3.8033
  163SAPE  H16Y18302   4.553   2.713   4.379 -0.6738  0.3362 -0.1698
  163SAPE  C31718303   4.646   2.551   4.480 -0.6316  0.3100 -0.1324
  163SAPE  H17X18304   4.749   2.592   4.467 -0.0017 -1.3962 -0.7750
  163SAPE  H17Y18305   4.645   2.440   4.475  1.0669  0.2092  0.9912
  163SAPE  C31818306   4.596   2.599   4.612 -0.8450  0.3071 -0.7017
  163SAPE  H18X18307   4.500   2.554   4.645 -0.1034 -0.3144  0.6674
  163SAPE  H18Y18308   4.587   2.709   4.625  0.2560  0.3222  0.0434
  163SAPE  H18Z18309   4.657   2.570   4.699  2.7579  2.0496 -2.4238
  164SAPE     N18310   0.076   3.287   2.760  0.1589  0.0659  0.0055
  164SAPE   HN118311  -0.021   3.254   2.782  0.8965 -1.1929  1.5748
  164SAPE   HN218312   0.085   3.372   2.701 -0.9176 -0.4340 -0.9235
  164SAPE   HN318313   0.104   3.215   2.691 -1.9445 -0.7440 -0.0709
  164SAPE   C1218314   0.165   3.292   2.880 -0.1352  1.1010  0.1509
  164SAPE  H12A18315   0.153   3.192   2.928 -3.5407  1.8973  1.1758
  164SAPE  H12B18316   0.142   3.370   2.955 -0.4727  1.1283  0.0187
  164SAPE   C1118317   0.316   3.319   2.856 -0.0129 -0.2245  0.2781
  164SAPE  H11A18318   0.367   3.235   2.803  1.1614 -1.3146  2.9651
  164SAPE  H11B18319   0.375   3.337   2.948  1.9567  0.3673 -1.0420
  164SAPE     P18320   0.478   3.467   2.712  0.2757  0.5641 -0.1962
  164SAPE   O1318321   0.572   3.358   2.743 -0.1281  0.3588 -0.0693
  164SAPE   O1418322   0.461   3.517   2.570 -0.0130 -0.0671 -0.1460
  164SAPE   O1218323   0.332   3.432   2.768 -0.0617  0.0715 -0.1297
  164SAPE   O1118324   0.511   3.596   2.787  0.1586 -0.5241  0.1139
  164SAPE    C118325   0.531   3.580   2.931 -0.0655  0.4165  0.2650
  164SAPE    HA18326   0.438   3.606   2.986 -1.5544 -0.9385 -1.4870
  164SAPE    HB18327   0.559   3.477   2.962  2.3921  0.3687 -1.7901
  164SAPE    C218328   0.654   3.665   2.972 -0.3078 -0.5723 -0.6388
  164SAPE    HS18329   0.739   3.613   2.922 -1.0751 -3.8224  1.1963
  164SAPE   O2118330   0.683   3.652   3.115  0.2621  1.1109 -0.5738
  164SAPE   C2118331   0.806   3.681   3.161  0.2073  0.3310 -0.1732
  164SAPE   O2218332   0.894   3.739   3.100  0.0599 -0.1434  0.2538
  164SAPE   C2218333   0.822   3.620   3.306 -0.2692 -0.2542  0.5760
  164SAPE   H2R18334   0.763   3.526   3.303  1.9281 -1.6937 -1.8426
  164SAPE   H2S18335   0.931   3.600   3.315  0.4589  2.1979 -1.7177
  164SAPE    C318336   0.633   3.812   2.925 -0.3344 -0.2347 -0.1050
  164SAPE    HX18337   0.642   3.812   2.815 -1.0949  0.6118 -0.1789
  164SAPE    HY18338   0.722   3.869   2.959 -0.9668 -0.5279  2.2093
  164SAPE   O3118339   0.504   3.879   2.958 -0.1137 -0.1346 -0.5652
  164SAPE   C3118340   0.489   3.922   3.084 -0.0325  0.7228  0.4072
  164SAPE   O3218341   0.583   3.928   3.164  0.7403  0.7697 -0.0549
  164SAPE   C3218342   0.346   3.954   3.109 -0.0458 -0.1250 -0.4140
  164SAPE   H2X18343   0.286   3.880   3.052 -0.5663  1.6517 -2.3021
  164SAPE   H2Y18344   0.325   4.054   3.065  0.0313 -0.2491 -0.7377
  164SAPE   C2318345   0.784   3.718   3.418  0.4553 -0.5411  0.4408
  164SAPE   H3R18346   0.687   3.769   3.400 -0.5619 -1.0936  3.6473
  164SAPE   H3S18347   0.858   3.799   3.438  1.5600 -1.4640  0.2450
  164SAPE   C2418348   0.763   3.636   3.555 -0.0483  0.2217 -0.4504
  164SAPE   H4R18349   0.746   3.710   3.635 -0.3003 -0.0215 -0.2799
  164SAPE   H4S18350   0.860   3.583   3.568 -0.1720 -0.2176 -1.2029
  164SAPE   C2518351   0.647   3.538   3.547 -0.0601 -0.1479  0.1722
  164SAPE   H5R18352   0.604   3.529   3.446  1.7187  2.4454 -0.9227
  164SAPE   C2618353   0.596   3.461   3.645 -0.4748  0.4385  0.7697
  164SAPE   H6R18354   0.515   3.390   3.620  0.6985  0.1453 -2.8689
  164SAPE   C2718355   0.649   3.446   3.784  0.3881 -0.6726  0.2785
  164SAPE   H7R18356   0.701   3.543   3.800 -0.7499  0.0788 -0.3988
  164SAPE   H7S18357   0.719   3.363   3.804  0.2642 -0.7327  0.4637
  164SAPE   C2818358   0.543   3.435   3.890 -0.1502  0.3444 -0.1007
  164SAPE   H8R18359   0.443   3.474   3.865  0.4453  1.9407 -0.1549
  164SAPE   C2918360   0.559   3.404   4.020  0.1175  0.2752  0.6048
  164SAPE   H9R18361   0.466   3.407   4.078 -0.0574 -0.9711  0.4194
  164SAPE  C21018362   0.684   3.378   4.095 -0.4528  0.0461 -0.3827
  164SAPE  H10R18363   0.719   3.478   4.127  2.3215 -0.1048 -2.5483
  164SAPE  H10S18364   0.765   3.342   4.029  1.1726 -1.1781  2.1401
  164SAPE  C21118365   0.656   3.287   4.219  0.5306  0.1509  0.2296
  164SAPE  H11R18366   0.704   3.188   4.212 -2.3264 -1.2286 -2.5854
  164SAPE  C21218367   0.590   3.315   4.332  0.3589 -0.5934  0.3407
  164SAPE  H12R18368   0.594   3.251   4.421 -0.3382 -1.0007  0.0861
  164SAPE  C21318369   0.517   3.450   4.363  0.0353  0.3167  0.3992
  164SAPE  H13R18370   0.559   3.528   4.296  3.6098 -2.0068 -0.2885
  164SAPE  H13S18371   0.545   3.479   4.466  0.6539  1.2528 -0.0217
  164SAPE  C21418372   0.368   3.436   4.355 -0.3447 -0.6589  0.1736
  164SAPE  H14R18373   0.328   3.377   4.272  1.4501 -1.6929 -0.0066
  164SAPE  C21518374   0.278   3.489   4.439 -0.1810  0.0641 -0.2321
  164SAPE  H15R18375   0.170   3.475   4.418 -0.6393 -1.2750  2.6191
  164SAPE  C21618376   0.305   3.589   4.555 -0.3104  0.1525 -0.5835
  164SAPE  H16R18377   0.400   3.646   4.543 -2.0759  3.0999 -1.4770
  164SAPE  H16S18378   0.326   3.537   4.651 -0.9395  2.2709  0.7763
  164SAPE  C21718379   0.194   3.691   4.589  0.2492 -0.2089  0.7341
  164SAPE  H17R18380   0.099   3.641   4.619  0.8955 -0.8039  1.8548
  164SAPE  H17S18381   0.189   3.762   4.504 -1.2780  0.0631  1.0196
  164SAPE  C21818382   0.240   3.785   4.704  0.6984 -0.1337 -0.0266
  164SAPE  H18R18383   0.349   3.803   4.698  0.3435  2.2406 -0.3632
  164SAPE  H18S18384   0.218   3.727   4.797  0.2580  0.7270  0.4207
  164SAPE  C21918385   0.166   3.920   4.694 -0.5476 -0.0689 -0.6509
  164SAPE  H19R18386   0.060   3.903   4.723  0.0999 -0.3638  1.7387
  164SAPE  H19S18387   0.167   3.954   4.588 -0.0009  1.4576 -0.1709
  164SAPE  C22018388   0.230   4.031   4.789 -0.1130 -0.5841 -0.1701
  164SAPE  H20R18389   0.228   3.987   4.891  1.8012  0.5273  0.3923
  164SAPE  H20S18390   0.167   4.122   4.786 -1.5405 -1.4901  1.0875
  164SAPE  H20T18391   0.337   4.037   4.761  1.0219 -3.3752  2.9234
  164SAPE   C3318392   0.306   3.979   3.264  0.2588 -0.3587  0.2973
  164SAPE   H3X18393   0.208   4.027   3.285  1.1240  1.3051  0.7052
  164SAPE   H3Y18394   0.383   4.047   3.304 -0.5942  0.8568 -0.0824
  164SAPE   C3418395   0.311   3.853   3.361  0.5348 -0.9349  0.2031
  164SAPE   H4X18396   0.409   3.804   3.345 -0.0580 -2.9174  2.0876
  164SAPE   H4Y18397   0.234   3.779   3.329  1.2433 -1.2372 -0.8807
  164SAPE   C3518398   0.302   3.893   3.507  0.2924  0.2666 -0.2332
  164SAPE   H5X18399   0.213   3.956   3.532 -0.4488 -0.7431 -0.2603
  164SAPE   H5Y18400   0.392   3.956   3.526  1.9784 -1.4432 -2.0996
  164SAPE   C3618401   0.296   3.762   3.586 -0.1836  0.2246  0.2857
  164SAPE   H6X18402   0.374   3.691   3.550  1.1138  1.2988  0.8771
  164SAPE   H6Y18403   0.200   3.714   3.559 -0.5218  1.6001 -1.0841
  164SAPE   C3718404   0.312   3.789   3.736  0.4909 -0.3601  0.2112
  164SAPE   H7X18405   0.266   3.698   3.781  2.4064 -2.7915 -2.4065
  164SAPE   H7Y18406   0.255   3.878   3.769  0.9333 -0.2773  0.7744
  164SAPE   C3818407   0.455   3.790   3.789 -0.1146  0.3812 -0.0719
  164SAPE   H8X18408   0.516   3.867   3.737 -1.7345 -0.4617 -3.5163
  164SAPE   H8Y18409   0.487   3.685   3.775 -2.2758 -0.5500  1.3615
  164SAPE   C3918410   0.472   3.817   3.943 -0.7246 -0.0091 -0.7260
  164SAPE   H9X18411   0.428   3.725   3.987 -4.2484 -0.0569 -3.8764
  164SAPE   H9Y18412   0.419   3.908   3.978 -1.0615 -0.5566  0.2356
  164SAPE  C31018413   0.619   3.830   3.981 -0.0667  0.4249  0.3665
  164SAPE  H10X18414   0.670   3.910   3.923  0.3324 -0.0475  0.0606
  164SAPE  H10Y18415   0.654   3.737   3.933  0.5933 -0.3680  2.3078
  164SAPE  C31118416   0.658   3.832   4.133 -0.0939  0.0025 -0.1920
  164SAPE  H11X18417   0.585   3.764   4.182  1.3780 -2.0150 -0.6560
  164SAPE  H11Y18418   0.632   3.931   4.176  0.1783 -0.0362  0.0705
  164SAPE  C31218419   0.798   3.790   4.173  0.2094 -0.1812 -0.0944
  164SAPE  H12X18420   0.881   3.823   4.107  0.5793 -0.4832  0.2156
  164SAPE  H12Y18421   0.810   3.680   4.173  0.9511 -0.1057 -0.0760
  164SAPE  C31318422   0.827   3.832   4.325  1.1671  0.4179  0.7730
  164SAPE  H13X18423   0.844   3.942   4.329  0.0893  0.6017  0.4868
  164SAPE  H13Y18424   0.910   3.767   4.360  0.2736 -1.4038 -0.3571
  164SAPE  C31418425   0.706   3.795   4.424  0.1565 -0.3048  0.6222
  164SAPE  H14X18426   0.660   3.705   4.379 -0.0645  0.2695 -0.3184
  164SAPE  H14Y18427   0.630   3.875   4.435 -1.5942 -1.7638 -0.3337
  164SAPE  C31518428   0.759   3.764   4.561 -0.2971  0.7801  0.1535
  164SAPE  H15X18429   0.861   3.803   4.582  0.4385 -0.0598 -1.6211
  164SAPE  H15Y18430   0.775   3.654   4.565  1.3746  0.9430 -0.9423
  164SAPE  C31618431   0.660   3.803   4.670  0.1467  0.2759 -0.0674
  164SAPE  H16X18432   0.562   3.753   4.658 -0.1425  0.5789  0.8845
  164SAPE  H16Y18433   0.646   3.913   4.667  1.1719  0.3992 -0.9348
  164SAPE  C31718434   0.712   3.769   4.809 -0.1932 -0.0078 -0.0803
  164SAPE  H17X18435   0.797   3.834   4.836  0.7589 -1.4520  0.5089
  164SAPE  H17Y18436   0.745   3.663   4.811 -0.1311 -0.0722 -2.0236
  164SAPE  C31818437   0.604   3.793   4.913  0.1482 -0.2587 -0.4793
  164SAPE  H18X18438   0.653   3.787   5.012 -1.0658 -0.4309  0.1184
  164SAPE  H18Y18439   0.523   3.718   4.906 -1.4435  1.4816 -4.8038
  164SAPE  H18Z18440   0.567   3.897   4.896 -2.1620 -0.7167  1.3212
  165SAPE     N18441   4.162   3.000   2.804  0.1521 -0.3554 -0.3403
  165SAPE   HN118442   4.095   2.922   2.787  0.0026 -0.1429 -0.7316
  165SAPE   HN218443   4.242   2.999   2.738  3.2594  2.3804  2.9827
  165SAPE   HN318444   4.202   2.986   2.899  1.1807 -0.9370 -0.8516
  165SAPE   C1218445   4.097   3.138   2.790 -0.1259  0.7058  0.1053
  165SAPE  H12A18446   4.018   3.142   2.869 -0.8457 -0.1343 -0.5507
  165SAPE  H12B18447   4.060   3.155   2.686  0.8709  3.8413  0.1649
  165SAPE   C1118448   4.197   3.245   2.831 -0.8671 -1.1637  0.5564
  165SAPE  H11A18449   4.220   3.220   2.936 -0.3568 -1.2522  0.4310
  165SAPE  H11B18450   4.155   3.348   2.833  0.0984 -0.7309 -0.2011
  165SAPE     P18451   4.402   3.370   2.733 -0.2826 -0.2423 -0.2535
  165SAPE   O1318452   4.547   3.340   2.711  0.7487 -0.5255  0.3966
  165SAPE   O1418453   4.336   3.457   2.634 -0.4228 -0.0537  0.3295
  165SAPE   O1218454   4.313   3.236   2.743  0.3572  1.0298  0.2126
  165SAPE   O1118455   4.388   3.435   2.876 -0.7172 -0.7542 -0.8337
  165SAPE    C118456   4.490   3.519   2.932 -0.3623  0.1681 -0.2769
  165SAPE    HA18457   4.585   3.461   2.934 -1.5956 -1.9560  1.4541
  165SAPE    HB18458   4.495   3.616   2.877  0.3716 -0.3937 -1.2208
  165SAPE    C218459   4.450   3.571   3.078  0.4866  0.5244  0.0636
  165SAPE    HS18460   4.486   3.676   3.092  2.1354  0.2392 -1.5879
  165SAPE   O2118461   4.503   3.491   3.185  0.3718 -0.2870  0.7138
  165SAPE   C2118462   4.631   3.480   3.190  0.1735 -0.0316 -0.6635
  165SAPE   O2218463   4.714   3.558   3.143 -0.0174  0.2846 -1.2166
  165SAPE   C2218464   4.671   3.366   3.285 -0.2411 -0.3193  0.2730
  165SAPE   H2R18465   4.640   3.272   3.232  0.8979  1.1969 -3.4460
  165SAPE   H2S18466   4.782   3.361   3.287 -0.1583  1.3612  0.7799
  165SAPE    C318467   4.295   3.566   3.104 -0.0176 -0.0469  0.1664
  165SAPE    HX18468   4.272   3.457   3.108 -1.8836  0.0051 -4.0345
  165SAPE    HY18469   4.237   3.597   3.015 -0.1783 -2.2146 -0.5496
  165SAPE   O3118470   4.245   3.634   3.223 -0.4975  0.2339  0.1655
  165SAPE   C3118471   4.255   3.761   3.224  0.1414  0.8175  0.4812
  165SAPE   O3218472   4.260   3.832   3.124  0.5817  0.5784  0.8263
  165SAPE   C3218473   4.253   3.821   3.364  0.4977  0.2955  0.4942
  165SAPE   H2X18474   4.165   3.889   3.371 -0.2079 -0.5361 -0.1021
  165SAPE   H2Y18475   4.346   3.880   3.377  0.1619  1.0793 -0.5473
  165SAPE   C2318476   4.600   3.372   3.417 -0.3899  0.5067 -0.7789
  165SAPE   H3R18477   4.491   3.368   3.395 -0.6332  0.6639  0.3154
  165SAPE   H3S18478   4.621   3.466   3.472 -0.6549  0.3424 -0.3903
  165SAPE   C2418479   4.636   3.238   3.493 -0.0385  0.4427 -0.2473
  165SAPE   H4R18480   4.615   3.147   3.432 -0.6671  0.0901  0.4818
  165SAPE   H4S18481   4.564   3.229   3.577 -0.9517 -0.6221 -1.1111
  165SAPE   C2518482   4.777   3.259   3.545  0.2449 -0.0927 -0.1196
  165SAPE   H5R18483   4.862   3.250   3.476  0.4515  1.8611 -0.1879
  165SAPE   C2618484   4.802   3.315   3.667 -0.3547 -0.4059 -0.5808
  165SAPE   H6R18485   4.908   3.298   3.693  0.9162  2.1341 -3.4851
  165SAPE   C2718486   4.714   3.354   3.791 -0.1001  0.9357  0.5312
  165SAPE   H7R18487   4.614   3.309   3.774 -1.0445  3.2957 -0.6137
  165SAPE   H7S18488   4.701   3.464   3.790 -0.3912  0.9039 -0.8413
  165SAPE   C2818489   4.793   3.299   3.914 -0.3218  0.1539 -0.2453
  165SAPE   H8R18490   4.902   3.289   3.902 -0.5028 -2.6949 -0.2451
  165SAPE   C2918491   4.740   3.262   4.036  0.1689 -0.1240 -0.0231
  165SAPE   H9R18492   4.797   3.227   4.123 -1.1737  0.4996  1.1442
  165SAPE  C21018493   4.594   3.290   4.067  0.1244  0.1217  0.1215
  165SAPE  H10R18494   4.545   3.352   3.989 -2.3044 -1.1144  0.5808
  165SAPE  H10S18495   4.585   3.365   4.148 -1.7239  1.2474 -1.0480
  165SAPE  C21118496   4.530   3.167   4.113  0.3558  0.1281  0.1472
  165SAPE  H11R18497   4.487   3.109   4.030  0.4251 -0.6881  0.6718
  165SAPE  C21218498   4.515   3.130   4.240 -0.3483 -0.1151 -0.3438
  165SAPE  H12R18499   4.441   3.055   4.268  0.0317  0.0576  1.2377
  165SAPE  C21318500   4.580   3.198   4.358 -0.0131  0.5772  0.0991
  165SAPE  H13R18501   4.512   3.281   4.387 -3.1483 -2.1557  1.1470
  165SAPE  H13S18502   4.676   3.237   4.319 -1.2275  2.4510 -1.1503
  165SAPE  C21418503   4.595   3.111   4.479  0.3833  0.0056 -0.2960
  165SAPE  H14R18504   4.509   3.108   4.548  0.1917  1.3633 -0.4608
  165SAPE  C21518505   4.691   3.019   4.498 -0.5967  0.3698  1.6055
  165SAPE  H15R18506   4.700   2.975   4.599  0.1770  0.8483  1.7500
  165SAPE  C21618507   4.802   2.991   4.409 -0.1758  0.5049 -0.0408
  165SAPE  H16R18508   4.803   3.026   4.303  1.1956 -1.7979 -0.8734
  165SAPE  H16S18509   4.802   2.884   4.380 -1.1147  0.5927 -0.4103
  165SAPE  C21718510   4.943   3.017   4.476 -0.0143 -0.1264  0.8370
  165SAPE  H17R18511   5.018   2.956   4.422  0.8468  1.0077  0.7200
  165SAPE  H17S18512   4.941   2.996   4.585 -0.2578 -1.0516  0.6579
  165SAPE  C21818513   4.974   3.173   4.465 -0.5027 -0.1887 -0.2851
  165SAPE  H18R18514   4.907   3.228   4.534  2.1092  0.4598  1.8708
  165SAPE  H18S18515   4.962   3.216   4.363 -1.1126  3.1441  1.0795
  165SAPE  C21918516   5.127   3.197   4.488 -0.4367 -0.2414  0.4540
  165SAPE  H19R18517   5.145   3.305   4.468  3.7524 -1.2495 -2.7708
  165SAPE  H19S18518   5.190   3.160   4.405  1.5507  0.2391  1.6761
  165SAPE  C22018519   5.175   3.144   4.625  0.3636  0.2598  0.7092
  165SAPE  H20R18520   5.168   3.034   4.614 -0.6592  0.4788 -1.3171
  165SAPE  H20S18521   5.104   3.167   4.707 -0.7808 -2.1718  0.4756
  165SAPE  H20T18522   5.277   3.170   4.660  1.2153 -0.2892 -1.2114
  165SAPE   C3318523   4.228   3.724   3.485  0.8790  0.2758  0.5662
  165SAPE   H3X18524   4.147   3.652   3.458  1.4384 -0.4546  0.8147
  165SAPE   H3Y18525   4.184   3.781   3.570 -1.1242  0.1977 -0.3433
  165SAPE   C3418526   4.361   3.652   3.526  0.1997 -0.1209 -0.0144
  165SAPE   H4X18527   4.442   3.722   3.556  0.1728 -0.1629  0.1584
  165SAPE   H4Y18528   4.393   3.599   3.434  2.3674 -0.6380  0.9594
  165SAPE   C3518529   4.344   3.541   3.639 -0.3086  0.2966  0.6097
  165SAPE   H5X18530   4.445   3.499   3.659 -0.1642  0.0619 -0.5761
  165SAPE   H5Y18531   4.284   3.453   3.607  0.0901  0.4240 -0.5273
  165SAPE   C3618532   4.282   3.600   3.770 -0.2732 -0.4571 -0.2833
  165SAPE   H6X18533   4.171   3.606   3.768 -0.2060  1.4832  0.1224
  165SAPE   H6Y18534   4.325   3.696   3.804 -1.5113 -0.5756  1.7692
  165SAPE   C3718535   4.304   3.506   3.889 -0.3877 -0.9736 -0.4324
  165SAPE   H7X18536   4.406   3.518   3.933 -0.5691 -0.1652 -0.2043
  165SAPE   H7Y18537   4.284   3.398   3.873 -0.7461 -1.1507  1.0537
  165SAPE   C3818538   4.222   3.548   4.017 -0.4102  0.7575  0.3474
  165SAPE   H8X18539   4.115   3.527   3.995 -0.7145  1.3594  1.2135
  165SAPE   H8Y18540   4.248   3.654   4.038 -1.1244  1.1876 -0.8450
  165SAPE   C3918541   4.271   3.463   4.143  0.0792 -0.4158  0.4648
  165SAPE   H9X18542   4.375   3.492   4.166 -0.3592  0.3077  1.6270
  165SAPE   H9Y18543   4.269   3.356   4.112 -0.7165  0.1471 -1.6249
  165SAPE  C31018544   4.191   3.465   4.276 -0.1238 -0.8247 -0.2067
  165SAPE  H10X18545   4.085   3.465   4.241  0.4936  2.1213 -2.4095
  165SAPE  H10Y18546   4.202   3.559   4.334 -0.8060 -0.0901 -1.2228
  165SAPE  C31118547   4.215   3.341   4.360  0.2399 -0.0806  0.3025
  165SAPE  H11X18548   4.317   3.341   4.404 -0.1209 -0.2614  1.1563
  165SAPE  H11Y18549   4.208   3.256   4.289 -1.0709  1.7354 -1.8342
  165SAPE  C31218550   4.115   3.328   4.476  0.9259 -0.1450 -0.3345
  165SAPE  H12X18551   4.016   3.345   4.428  0.6489  1.2790  0.6878
  165SAPE  H12Y18552   4.138   3.405   4.553 -0.8161  2.2781 -2.0837
  165SAPE  C31318553   4.125   3.186   4.536  0.1836 -0.0820 -0.3692
  165SAPE  H13X18554   4.205   3.174   4.612  0.6132  0.0665 -0.7955
  165SAPE  H13Y18555   4.149   3.111   4.457 -1.6190 -1.3590  0.2359
  165SAPE  C31418556   3.991   3.148   4.596  0.5558 -0.6688 -0.5588
  165SAPE  H14X18557   3.934   3.096   4.516 -0.2184 -1.3770  0.4139
  165SAPE  H14Y18558   3.931   3.234   4.633  0.8980 -0.9116  0.6012
  165SAPE  C31518559   4.003   3.047   4.711  0.2464 -0.3413 -0.2239
  165SAPE  H15X18560   3.905   3.020   4.757  0.4059 -1.1578 -0.3478
  165SAPE  H15Y18561   4.058   3.101   4.790 -0.3666 -0.5273  0.3389
  165SAPE  C31618562   4.074   2.914   4.678  0.0578 -0.1598  0.5607
  165SAPE  H16X18563   4.165   2.929   4.616  1.0592 -2.5742  1.3231
  165SAPE  H16Y18564   4.008   2.845   4.620  0.7954 -1.2463  0.9817
  165SAPE  C31718565   4.117   2.846   4.810  0.0238  0.4186 -0.2732
  165SAPE  H17X18566   4.035   2.854   4.884 -0.4627  1.2140 -0.8885
  165SAPE  H17Y18567   4.196   2.914   4.850  1.7862 -0.4019 -2.2022
  165SAPE  C31818568   4.158   2.702   4.807 -1.0859  0.3211  0.5471
  165SAPE  H18X18569   4.242   2.671   4.741 -2.4125 -3.8598  0.5026
  165SAPE  H18Y18570   4.077   2.633   4.775  1.3421 -2.8202  0.7209
  165SAPE  H18Z18571   4.191   2.684   4.911  1.1981  5.4670  0.9835
  166SAPE     N18572   6.120   4.306   2.377  0.0993 -0.5448  0.1438
  166SAPE   HN118573   6.078   4.390   2.333 -1.0243 -1.0582  0.2068
  166SAPE   HN218574   6.220   4.325   2.399  0.1398 -2.7960  2.4484
  166SAPE   HN318575   6.127   4.234   2.304 -2.8288  0.5412 -1.3804
  166SAPE   C1218576   6.050   4.267   2.502 -0.1297 -0.2093 -0.5309
  166SAPE  H12A18577   6.060   4.156   2.511  0.2356 -0.1883 -0.6500
  166SAPE  H12B18578   5.949   4.311   2.517  0.1283 -0.2635  1.7202
  166SAPE   C1118579   6.144   4.316   2.614  0.6342 -0.4111  0.6199
  166SAPE  H11A18580   6.237   4.258   2.601  1.1888  0.5799  0.0334
  166SAPE  H11B18581   6.098   4.290   2.712  0.9742  2.2433  1.5685
  166SAPE     P18582   6.096   4.553   2.691  0.2548 -0.4692  0.1538
  166SAPE   O1318583   6.141   4.694   2.662 -0.5974 -0.3347  0.7260
  166SAPE   O1418584   5.955   4.526   2.666  0.2321  0.3768  0.1478
  166SAPE   O1218585   6.180   4.451   2.611 -0.3698 -0.8117 -0.0058
  166SAPE   O1118586   6.126   4.519   2.843 -0.0836  0.1138  0.2469
  166SAPE    C118587   6.265   4.490   2.874 -0.6710  0.0580 -0.6644
  166SAPE    HA18588   6.280   4.384   2.843  1.8160 -0.4489  1.8501
  166SAPE    HB18589   6.339   4.562   2.834 -2.2469  0.5912 -2.8332
  166SAPE    C218590   6.303   4.473   3.029 -0.0358  0.1304 -0.2978
  166SAPE    HS18591   6.402   4.424   3.044 -1.2254 -2.2457  0.1375
  166SAPE   O2118592   6.190   4.402   3.086  0.4580 -0.2056  0.7628
  166SAPE   C2118593   6.214   4.330   3.195  0.7321  0.0732  0.8854
  166SAPE   O2218594   6.312   4.328   3.264 -0.0779  0.0694  0.8796
  166SAPE   C2218595   6.082   4.259   3.232 -0.2169  0.2339  0.1608
  166SAPE   H2R18596   6.003   4.337   3.234  1.6360  2.5115 -3.4114
  166SAPE   H2S18597   6.071   4.187   3.148  3.9514 -0.3138 -0.0932
  166SAPE    C318598   6.312   4.614   3.101  0.0275 -0.0266  1.3693
  166SAPE    HX18599   6.212   4.652   3.072  0.5703  1.1403  0.9542
  166SAPE    HY18600   6.392   4.672   3.049 -1.1583  0.6188  0.2031
  166SAPE   O3118601   6.320   4.619   3.241 -0.5377 -0.0370  0.1706
  166SAPE   C3118602   6.439   4.574   3.283  0.1019 -0.7873  0.0399
  166SAPE   O3218603   6.530   4.544   3.212  0.3077  0.1795 -0.2109
  166SAPE   C3218604   6.445   4.582   3.433 -0.7532 -0.1523 -0.4118
  166SAPE   H2X18605   6.374   4.504   3.467 -1.6174  0.1687 -1.4440
  166SAPE   H2Y18606   6.406   4.677   3.476 -1.8192  0.3909 -2.4424
  166SAPE   C2318607   6.084   4.166   3.360 -0.0655 -0.0995  0.4896
  166SAPE   H3R18608   6.185   4.119   3.361  0.5511  1.1310 -0.5942
  166SAPE   H3S18609   6.015   4.083   3.334  0.9875 -0.3910 -1.5805
  166SAPE   C2418610   6.046   4.232   3.494  0.2634  0.9040  0.3242
  166SAPE   H4R18611   5.953   4.291   3.480  0.3610  1.2097  0.9430
  166SAPE   H4S18612   6.135   4.296   3.506 -0.4101  1.7962  0.7008
  166SAPE   C2518613   6.029   4.132   3.605  0.0251  0.1129  0.1479
  166SAPE   H5R18614   5.936   4.074   3.593  0.2995 -0.7370  1.7946
  166SAPE   C2618615   6.097   4.126   3.722 -0.5817  0.2582  0.0630
  166SAPE   H6R18616   6.077   4.040   3.788 -1.7169 -0.7591 -1.5142
  166SAPE   C2718617   6.215   4.213   3.760 -0.4821  0.3123  0.2573
  166SAPE   H7R18618   6.192   4.271   3.853 -1.1066  0.6649 -0.1079
  166SAPE   H7S18619   6.216   4.295   3.685  0.3345 -0.1954 -0.2906
  166SAPE   C2818620   6.352   4.150   3.755 -0.0079 -0.4730  0.2424
  166SAPE   H8R18621   6.386   4.133   3.651 -0.0934  2.5177 -0.3647
  166SAPE   C2918622   6.437   4.140   3.858  0.6569  0.3375  0.3374
  166SAPE   H9R18623   6.530   4.084   3.842 -0.4957 -1.1212 -1.7478
  166SAPE  C21018624   6.405   4.178   4.007 -0.5569 -0.9161  0.5273
  166SAPE  H10R18625   6.434   4.090   4.068 -1.6978  0.1511  2.7620
  166SAPE  H10S18626   6.295   4.175   4.022 -0.7906  0.7984 -0.5335
  166SAPE  C21118627   6.470   4.302   4.059 -0.3866 -0.3186 -0.1228
  166SAPE  H11R18628   6.528   4.361   3.987 -0.3793 -1.0943 -0.7825
  166SAPE  C21218629   6.438   4.356   4.175 -0.2499 -0.0762  0.4712
  166SAPE  H12R18630   6.491   4.451   4.191  1.2576 -1.1005  1.8438
  166SAPE  C21318631   6.349   4.310   4.289 -0.3991  0.1346 -0.8429
  166SAPE  H13R18632   6.380   4.211   4.326 -0.1016  0.8405  0.8895
  166SAPE  H13S18633   6.248   4.296   4.244 -0.1762 -0.6944 -1.0954
  166SAPE  C21418634   6.352   4.408   4.403 -0.7281  0.2192  0.3792
  166SAPE  H14R18635   6.339   4.512   4.370  4.5512  0.4092 -1.9291
  166SAPE  C21518636   6.397   4.383   4.529  0.5351 -0.6139  0.1786
  166SAPE  H15R18637   6.388   4.465   4.602  0.7411  1.1687 -1.6876
  166SAPE  C21618638   6.441   4.248   4.580 -0.3521  0.3589  1.2344
  166SAPE  H16R18639   6.499   4.182   4.512  0.2270 -0.3200  2.3559
  166SAPE  H16S18640   6.350   4.189   4.607 -0.2326  0.0412  0.9437
  166SAPE  C21718641   6.528   4.262   4.705 -0.1952  0.6049 -0.5197
  166SAPE  H17R18642   6.490   4.339   4.774 -1.9811 -1.2892  0.7254
  166SAPE  H17S18643   6.633   4.288   4.681  1.3292 -3.1471  1.2711
  166SAPE  C21818644   6.530   4.138   4.792 -0.1460 -0.6257  0.0652
  166SAPE  H18R18645   6.426   4.099   4.794  0.0076 -1.0848  2.4085
  166SAPE  H18S18646   6.547   4.163   4.899 -1.1311  0.3832  0.0024
  166SAPE  C21918647   6.616   4.019   4.752  0.6013 -0.1078 -0.7651
  166SAPE  H19R18648   6.722   4.052   4.756  0.9672 -1.1604 -1.4658
  166SAPE  H19S18649   6.606   3.982   4.648  0.1040 -0.6542 -0.5324
  166SAPE  C22018650   6.579   3.908   4.847 -0.3481 -0.0313  0.6397
  166SAPE  H20R18651   6.648   3.906   4.934 -1.5758  0.7479  1.6631
  166SAPE  H20S18652   6.584   3.813   4.788 -1.1894  0.9494 -1.0933
  166SAPE  H20T18653   6.476   3.923   4.884 -1.5552  1.2223 -2.7738
  166SAPE   C3318654   6.596   4.536   3.481  0.5807 -0.5131  0.5861
  166SAPE   H3X18655   6.659   4.619   3.442  1.8948 -2.3277 -1.4195
  166SAPE   H3Y18656   6.620   4.442   3.426  0.6902  0.4535 -1.0804
  166SAPE   C3418657   6.615   4.535   3.631 -0.4541 -0.2814 -0.4708
  166SAPE   H4X18658   6.724   4.533   3.650 -0.3243 -0.2087 -1.1770
  166SAPE   H4Y18659   6.568   4.438   3.660 -1.0779  0.7545  2.3596
  166SAPE   C3518660   6.559   4.652   3.716 -1.0922  0.3545  0.5280
  166SAPE   H5X18661   6.454   4.663   3.683 -0.4208 -1.0215 -2.3033
  166SAPE   H5Y18662   6.614   4.746   3.693  0.4180 -1.0052 -1.6931
  166SAPE   C3618663   6.557   4.620   3.870 -0.1056  0.1089  0.2275
  166SAPE   H6X18664   6.639   4.554   3.908  1.4159  1.6282 -0.3044
  166SAPE   H6Y18665   6.461   4.589   3.917 -0.4145  1.3950  0.4864
  166SAPE   C3718666   6.598   4.741   3.951  0.8859 -0.3719  0.5604
  166SAPE   H7X18667   6.510   4.808   3.949  2.0928  1.2887  0.9679
  166SAPE   H7Y18668   6.680   4.795   3.900  1.1606 -2.4372 -1.3432
  166SAPE   C3818669   6.635   4.720   4.100 -0.3086  0.7301 -0.4310
  166SAPE   H8X18670   6.735   4.671   4.095 -1.3915 -1.5730 -1.1689
  166SAPE   H8Y18671   6.565   4.654   4.156  1.5971  0.1060  1.3371
  166SAPE   C3918672   6.649   4.853   4.171  0.2681  0.4455  1.0182
  166SAPE   H9X18673   6.562   4.911   4.134  0.8013 -0.1621 -1.3323
  166SAPE   H9Y18674   6.736   4.909   4.131 -0.1158 -0.1847 -0.8108
  166SAPE  C31018675   6.646   4.840   4.322 -0.1838 -0.0442  0.5804
  166SAPE  H10X18676   6.711   4.759   4.362 -0.6999 -1.2622 -0.9244
  166SAPE  H10Y18677   6.542   4.810   4.346  0.0588  0.7522  2.8702
  166SAPE  C31118678   6.663   4.973   4.382  0.2427 -0.6057 -1.0815
  166SAPE  H11X18679   6.608   5.054   4.328  0.9883 -0.0595 -1.0376
  166SAPE  H11Y18680   6.769   5.006   4.389 -0.4533  1.8511 -1.2156
  166SAPE  C31218681   6.631   4.975   4.530 -0.0843  0.0449  0.3078
  166SAPE  H12X18682   6.681   4.892   4.583 -0.0005  0.9043  1.6119
  166SAPE  H12Y18683   6.521   4.979   4.549 -0.5308  0.5392 -1.9876
  166SAPE  C31318684   6.694   5.100   4.601 -0.6041  0.3814 -0.2239
  166SAPE  H13X18685   6.652   5.192   4.554  0.2040  0.0444 -1.6659
  166SAPE  H13Y18686   6.803   5.095   4.577 -0.9068  0.8322 -1.8137
  166SAPE  C31418687   6.677   5.093   4.756 -0.6661  0.5874  0.3293
  166SAPE  H14X18688   6.739   5.006   4.787 -2.1016 -1.2151 -1.5298
  166SAPE  H14Y18689   6.572   5.067   4.781 -0.9645  0.6601 -0.7925
  166SAPE  C31518690   6.725   5.211   4.838  0.6302  0.1720  0.2558
  166SAPE  H15X18691   6.670   5.304   4.811  1.1634 -0.1253 -2.0196
  166SAPE  H15Y18692   6.832   5.234   4.820  0.8814  0.5777  2.0440
  166SAPE  C31618693   6.708   5.181   4.986 -0.6383 -0.0387 -0.4731
  166SAPE  H16X18694   6.803   5.156   5.038 -0.3765  1.2045 -0.3168
  166SAPE  H16Y18695   6.634   5.100   5.002  0.3813 -0.7871  0.6380
  166SAPE  C31718696   6.663   5.305   5.062  0.5058  1.1532  0.2012
  166SAPE  H17X18697   6.567   5.347   5.027  0.6701  1.8915  0.6103
  166SAPE  H17Y18698   6.735   5.386   5.035  0.8686  1.0592  0.8581
  166SAPE  C31818699   6.668   5.294   5.212  0.1053  0.2282 -0.3404
  166SAPE  H18X18700   6.772   5.299   5.252 -0.0723  1.3426  0.0086
  166SAPE  H18Y18701   6.617   5.202   5.247 -0.9904  2.2409  4.1272
  166SAPE  H18Z18702   6.619   5.378   5.265 -1.6173 -2.0730  2.0085
  167SAPE     N18703   0.425   1.142   2.406  0.1932 -0.0342  0.4109
  167SAPE   HN118704   0.386   1.180   2.495  1.3291 -2.4143  2.0119
  167SAPE   HN218705   0.512   1.100   2.443  0.3134 -0.4754 -0.3453
  167SAPE   HN318706   0.450   1.212   2.333  1.9624  1.6829  2.5188
  167SAPE   C1218707   0.326   1.034   2.362  0.0621 -0.3647  0.4693
  167SAPE  H12A18708   0.362   1.002   2.262 -0.2277 -0.0564  0.2624
  167SAPE  H12B18709   0.225   1.076   2.341  1.1445  0.8649 -3.1730
  167SAPE   C1118710   0.326   0.921   2.469 -0.6409  0.2129 -0.6758
  167SAPE  H11A18711   0.258   0.840   2.438  0.0951 -0.2703 -1.0366
  167SAPE  H11B18712   0.296   0.966   2.566  0.6824  1.3605 -0.7561
  167SAPE     P18713   0.481   0.729   2.555 -0.0785 -0.1067 -0.2013
  167SAPE   O1318714   0.354   0.647   2.563 -0.1343  0.3218 -0.0989
  167SAPE   O1418715   0.595   0.662   2.483 -0.2317 -0.9062  0.2995
  167SAPE   O1218716   0.459   0.866   2.488 -0.2213  0.3445 -0.0711
  167SAPE   O1118717   0.518   0.760   2.706  0.5086 -0.0427 -0.2285
  167SAPE    C118718   0.622   0.854   2.733 -0.0572 -0.3374 -0.2281
  167SAPE    HA18719   0.715   0.802   2.764 -0.2680  0.2192  1.4346
  167SAPE    HB18720   0.661   0.908   2.644  0.8991  0.9215  0.9148
  167SAPE    C218721   0.573   0.952   2.847  0.7268 -0.1343 -0.3708
  167SAPE    HS18722   0.653   1.027   2.864 -1.5818  2.8067 -1.7578
  167SAPE   O2118723   0.532   0.875   2.962  0.3530 -0.2024  0.2801
  167SAPE   C2118724   0.633   0.861   3.047  0.3137  0.5762  0.4229
  167SAPE   O2218725   0.749   0.891   3.025 -0.0542 -0.0752  0.1169
  167SAPE   C2218726   0.583   0.787   3.165 -0.0387  0.5488 -0.5515
  167SAPE   H2R18727   0.475   0.811   3.173 -0.0819  0.0570  0.5370
  167SAPE   H2S18728   0.595   0.679   3.141 -0.2797  0.2753  0.5206
  167SAPE    C318729   0.453   1.048   2.812 -0.4503  0.3123  0.6093
  167SAPE    HX18730   0.364   0.983   2.798  0.0791  0.0903 -2.3189
  167SAPE    HY18731   0.491   1.091   2.717 -0.5519  0.5735  0.6853
  167SAPE   O3118732   0.440   1.145   2.912  0.4058  0.0387  0.5205
  167SAPE   C3118733   0.313   1.175   2.943 -0.2525 -0.2769  0.2617
  167SAPE   O3218734   0.213   1.127   2.897 -0.4120  0.2742  0.0129
  167SAPE   C3218735   0.316   1.300   3.038  0.1615 -0.8177  0.6824
  167SAPE   H2X18736   0.313   1.390   2.973 -0.5156 -1.7279 -0.5898
  167SAPE   H2Y18737   0.407   1.298   3.102 -1.1615 -2.0066  2.6076
  167SAPE   C2318738   0.655   0.818   3.295  0.6623 -0.5179 -0.2920
  167SAPE   H3R18739   0.659   0.927   3.313  3.0244  0.0143 -3.3474
  167SAPE   H3S18740   0.763   0.794   3.289  0.7751  0.3884 -2.6571
  167SAPE   C2418741   0.577   0.764   3.411 -0.1126  0.6198 -0.2978
  167SAPE   H4R18742   0.471   0.796   3.416 -1.2242 -2.6443 -0.5798
  167SAPE   H4S18743   0.628   0.802   3.502  0.1643  2.3294 -1.1070
  167SAPE   C2518744   0.593   0.606   3.410 -0.9222 -0.1329 -0.0655
  167SAPE   H5R18745   0.549   0.549   3.327  0.6081 -0.6202 -0.5703
  167SAPE   C2618746   0.666   0.534   3.498 -1.0247  0.7859 -0.4915
  167SAPE   H6R18747   0.659   0.425   3.491 -0.4952  0.7871 -1.0382
  167SAPE   C2718748   0.743   0.594   3.607 -0.4420  0.4271 -0.1448
  167SAPE   H7R18749   0.783   0.694   3.578 -0.6267  0.9025  1.1947
  167SAPE   H7S18750   0.830   0.531   3.635 -0.3090  0.6661 -0.0188
  167SAPE   C2818751   0.655   0.604   3.728 -0.0445 -0.8105 -0.3296
  167SAPE   H8R18752   0.565   0.666   3.719 -1.2633 -2.4609  0.1346
  167SAPE   C2918753   0.685   0.543   3.849  0.0969 -0.2967  0.1611
  167SAPE   H9R18754   0.621   0.572   3.933  0.4645  0.9912  0.0239
  167SAPE  C21018755   0.794   0.459   3.896 -0.7353  0.1965 -0.4370
  167SAPE  H10R18756   0.836   0.404   3.809 -0.5866 -0.9367  0.3190
  167SAPE  H10S18757   0.756   0.376   3.961 -0.1664 -0.2279 -0.6357
  167SAPE  C21118758   0.898   0.544   3.961  0.3412  0.3053 -0.0220
  167SAPE  H11R18759   0.931   0.634   3.906 -1.3252  1.6073  1.0082
  167SAPE  C21218760   0.948   0.524   4.085 -0.2718  0.4176 -0.0424
  167SAPE  H12R18761   1.030   0.593   4.112  1.3092 -0.8655 -1.3636
  167SAPE  C21318762   0.912   0.425   4.188  0.2625 -0.3476  0.8681
  167SAPE  H13R18763   0.807   0.390   4.182 -0.2636  1.3111 -0.5479
  167SAPE  H13S18764   0.934   0.477   4.283 -0.6979  2.2759 -0.2417
  167SAPE  C21418765   1.009   0.313   4.170 -0.3694 -0.1781  0.4221
  167SAPE  H14R18766   1.047   0.278   4.073  1.3540 -2.0751  1.6948
  167SAPE  C21518767   1.050   0.234   4.276  0.1420  0.8842  0.7233
  167SAPE  H15R18768   1.121   0.155   4.249 -0.5565  1.0143 -1.7567
  167SAPE  C21618769   1.025   0.249   4.425  0.8546 -0.1026 -0.8926
  167SAPE  H16R18770   1.004   0.145   4.459  1.6374 -0.1012 -0.3578
  167SAPE  H16S18771   0.927   0.299   4.444  1.4145  0.1090  1.9256
  167SAPE  C21718772   1.141   0.296   4.516  0.2828  0.9132  0.4829
  167SAPE  H17R18773   1.102   0.306   4.620 -0.9008 -0.7342  0.2310
  167SAPE  H17S18774   1.185   0.392   4.481 -0.6745  1.1272 -0.1882
  167SAPE  C21818775   1.261   0.194   4.512 -0.2750  0.0209 -1.1310
  167SAPE  H18R18776   1.353   0.242   4.554 -0.8501  0.9304 -0.8717
  167SAPE  H18S18777   1.283   0.166   4.407 -2.1439  0.2987 -1.6320
  167SAPE  C21918778   1.234   0.071   4.600 -0.7248  0.0883 -0.5232
  167SAPE  H19R18779   1.163  -0.001   4.553 -1.7922  0.1114  0.9868
  167SAPE  H19S18780   1.191   0.091   4.700  0.1885  1.0755 -0.3158
  167SAPE  C22018781   1.358  -0.010   4.632 -0.6420  0.0227  0.0897
  167SAPE  H20R18782   1.441   0.058   4.663 -1.0072  0.3363  0.3777
  167SAPE  H20S18783   1.392  -0.053   4.535 -1.2510  2.2771 -1.1972
  167SAPE  H20T18784   1.340  -0.086   4.712  0.9423 -1.5551 -0.9678
  167SAPE   C3318785   0.193   1.294   3.125  0.3810 -0.0945  0.0517
  167SAPE   H3X18786   0.185   1.199   3.182 -1.1662  0.7689  1.3536
  167SAPE   H3Y18787   0.099   1.298   3.065  1.7957 -2.1500 -2.5308
  167SAPE   C3418788   0.193   1.405   3.230 -0.3047 -0.4961  0.6375
  167SAPE   H4X18789   0.094   1.418   3.278 -0.7913  1.4028 -0.7841
  167SAPE   H4Y18790   0.235   1.496   3.182  2.4411 -0.5923  2.6272
  167SAPE   C3518791   0.295   1.369   3.335  0.7718  0.1490 -0.3473
  167SAPE   H5X18792   0.400   1.402   3.323  0.3864  1.9519  0.9673
  167SAPE   H5Y18793   0.299   1.258   3.349 -0.4074  0.1767  0.3421
  167SAPE   C3618794   0.250   1.426   3.468  0.8896  0.3721  0.9456
  167SAPE   H6X18795   0.143   1.403   3.488  0.3888 -0.1645 -1.8571
  167SAPE   H6Y18796   0.251   1.535   3.450  0.0848 -0.0638 -2.5175
  167SAPE   C3718797   0.345   1.388   3.585  0.2258 -0.4506 -0.4404
  167SAPE   H7X18798   0.448   1.429   3.576 -0.4183  0.9596 -1.9750
  167SAPE   H7Y18799   0.376   1.281   3.588 -0.0987 -0.5361  2.8964
  167SAPE   C3818800   0.281   1.412   3.720  0.4361 -0.2303 -0.0949
  167SAPE   H8X18801   0.178   1.370   3.730 -0.4218  1.2720 -2.0241
  167SAPE   H8Y18802   0.259   1.521   3.726  1.0575 -0.1039 -0.1169
  167SAPE   C3918803   0.371   1.377   3.847  0.1100  0.7365  0.2082
  167SAPE   H9X18804   0.321   1.385   3.946 -0.4712  0.0725 -0.0304
  167SAPE   H9Y18805   0.472   1.425   3.846 -0.2478  1.5103  0.2055
  167SAPE  C31018806   0.411   1.228   3.844  0.6030 -0.8256  0.1896
  167SAPE  H10X18807   0.477   1.218   3.755 -0.2653  1.1720 -0.7353
  167SAPE  H10Y18808   0.322   1.162   3.843 -1.8267  2.2326  0.7487
  167SAPE  C31118809   0.501   1.179   3.961 -0.3534  0.1860 -0.2847
  167SAPE  H11X18810   0.446   1.180   4.058 -1.2022 -0.3138 -0.7505
  167SAPE  H11Y18811   0.587   1.249   3.968  1.5084 -1.9515 -0.5549
  167SAPE  C31218812   0.562   1.038   3.934 -0.2893 -0.1153  0.5362
  167SAPE  H12X18813   0.606   1.022   3.833 -0.0286 -1.0887  0.7946
  167SAPE  H12Y18814   0.492   0.955   3.956  1.0240 -0.5484  3.5289
  167SAPE  C31318815   0.696   1.014   4.013 -0.1865  0.4073 -0.4710
  167SAPE  H13X18816   0.763   1.096   3.980 -0.1483 -0.0343 -1.5244
  167SAPE  H13Y18817   0.742   0.919   3.976 -1.3747  0.2924 -1.7583
  167SAPE  C31418818   0.691   1.007   4.165  0.0375 -0.1130 -0.6242
  167SAPE  H14X18819   0.613   0.933   4.192  1.4592 -1.5365 -0.2731
  167SAPE  H14Y18820   0.654   1.103   4.209 -0.7351 -1.2742  1.3717
  167SAPE  C31518821   0.831   0.957   4.221 -1.0469  0.4924 -0.1459
  167SAPE  H15X18822   0.911   1.021   4.177 -1.2492  0.2657 -0.8561
  167SAPE  H15Y18823   0.854   0.852   4.194  0.4769  0.7195  0.1694
  167SAPE  C31618824   0.834   0.988   4.372  0.6343 -0.4427  0.0838
  167SAPE  H16X18825   0.738   0.952   4.415  0.0358  1.1851  0.1634
  167SAPE  H16Y18826   0.844   1.095   4.397  1.1798 -0.3987 -0.3025
  167SAPE  C31718827   0.944   0.914   4.449  0.1339 -0.4222 -0.5028
  167SAPE  H17X18828   1.044   0.932   4.404  0.5903  0.0470  0.6589
  167SAPE  H17Y18829   0.923   0.805   4.437 -2.1351 -0.4453  2.4979
  167SAPE  C31818830   0.942   0.954   4.599 -0.0892 -0.4526 -0.4250
  167SAPE  H18X18831   0.953   1.062   4.622 -0.0045  0.1043 -2.8173
  167SAPE  H18Y18832   1.025   0.902   4.650  1.9939  0.8203 -2.3378
  167SAPE  H18Z18833   0.846   0.926   4.647  1.4827 -0.9699  2.5979
  168SAPE     N18834   3.144   4.444   2.507  0.0812  0.4960 -0.1290
  168SAPE   HN118835   3.184   4.358   2.549 -0.0492 -0.2663 -1.4976
  168SAPE   HN218836   3.215   4.462   2.433  1.8543 -1.9524  0.8229
  168SAPE   HN318837   3.143   4.514   2.584  1.4520  0.3502  0.0426
  168SAPE   C1218838   3.007   4.414   2.448 -0.1760  0.3493  0.0445
  168SAPE  H12A18839   3.024   4.366   2.349  0.3052  1.9290 -0.6555
  168SAPE  H12B18840   2.969   4.515   2.422 -1.0621  0.0774  0.2406
  168SAPE   C1118841   2.909   4.335   2.540  0.8523  0.4701 -0.8433
  168SAPE  H11A18842   2.802   4.334   2.510  0.6987  0.1896 -0.3020
  168SAPE  H11B18843   2.909   4.396   2.632  0.6794 -1.1395  0.2756
  168SAPE     P18844   2.857   4.100   2.648 -0.5734 -0.2862  0.2819
  168SAPE   O1318845   2.727   4.109   2.577 -0.5144 -0.6695  0.1892
  168SAPE   O1418846   2.919   3.968   2.653  0.9908 -0.5590 -0.2239
  168SAPE   O1218847   2.958   4.206   2.582  0.8688  1.1432  0.1560
  168SAPE   O1118848   2.844   4.152   2.799 -0.1496  0.0552  0.4023
  168SAPE    C118849   2.955   4.210   2.874  0.4440  1.5365 -0.0981
  168SAPE    HA18850   3.035   4.137   2.853 -1.0211  0.4627 -2.4713
  168SAPE    HB18851   2.991   4.308   2.835  1.3640  1.8470  1.4648
  168SAPE    C218852   2.927   4.214   3.024 -0.4042  0.3565  0.1644
  168SAPE    HS18853   2.833   4.273   3.034 -1.8244 -1.9079  1.0466
  168SAPE   O2118854   3.020   4.291   3.092 -0.6921 -0.3801 -0.5268
  168SAPE   C2118855   3.143   4.231   3.120  0.4482  0.1290  0.0069
  168SAPE   O2218856   3.184   4.134   3.055  0.3234 -0.2704 -0.0715
  168SAPE   C2218857   3.204   4.284   3.249 -0.3438 -0.1536 -0.2936
  168SAPE   H2R18858   3.210   4.395   3.236 -0.6841 -0.2175 -1.0685
  168SAPE   H2S18859   3.140   4.267   3.338  0.5059  3.6440  1.2567
  168SAPE    C318860   2.894   4.072   3.099 -0.1476  0.3864  0.1141
  168SAPE    HX18861   2.967   3.992   3.073 -0.0558  0.5326 -0.0775
  168SAPE    HY18862   2.796   4.039   3.059  0.8678 -4.7919  1.1228
  168SAPE   O3118863   2.886   4.082   3.243 -0.4618  0.1470  0.0012
  168SAPE   C3118864   2.797   4.165   3.288 -0.6047  0.3424  0.3433
  168SAPE   O3218865   2.703   4.215   3.233  0.0594  0.0598 -0.6029
  168SAPE   C3218866   2.837   4.187   3.437 -0.2738  0.2206  0.1145
  168SAPE   H2X18867   2.744   4.232   3.477 -0.5772 -0.4976  0.2195
  168SAPE   H2Y18868   2.923   4.258   3.439  1.5451 -1.7611 -1.7677
  168SAPE   C2318869   3.342   4.229   3.281  0.0458 -0.2312  0.1915
  168SAPE   H3R18870   3.409   4.244   3.194 -0.3101 -0.0958 -0.0591
  168SAPE   H3S18871   3.330   4.119   3.296 -0.7522 -0.4037 -1.5019
  168SAPE   C2418872   3.410   4.291   3.411  0.4147 -0.3019 -0.5353
  168SAPE   H4R18873   3.421   4.401   3.397  2.8961 -0.5322 -0.7379
  168SAPE   H4S18874   3.512   4.249   3.415  0.1715 -0.8222  2.5906
  168SAPE   C2518875   3.335   4.246   3.531  0.2976 -0.0360 -0.5585
  168SAPE   H5R18876   3.265   4.320   3.575  4.1111  2.1470  2.5485
  168SAPE   C2618877   3.371   4.137   3.601  0.0488 -0.1151  0.0049
  168SAPE   H6R18878   3.310   4.098   3.684  2.2382  0.7938  2.1883
  168SAPE   C2718879   3.465   4.021   3.554 -0.0061 -0.4227  0.2531
  168SAPE   H7R18880   3.566   4.067   3.543 -0.0459 -0.5247 -0.6481
  168SAPE   H7S18881   3.437   3.992   3.450 -1.5507  0.8108  0.2987
  168SAPE   C2818882   3.460   3.906   3.643  0.0864 -0.5002  0.6611
  168SAPE   H8R18883   3.408   3.815   3.608 -0.9933  0.2822  0.1931
  168SAPE   C2918884   3.514   3.897   3.771  0.1419 -0.4559  0.2119
  168SAPE   H9R18885   3.495   3.808   3.833  1.5701 -2.5353 -2.1744
  168SAPE  C21018886   3.580   4.005   3.853 -1.0325 -0.4002 -0.5098
  168SAPE  H10R18887   3.625   4.084   3.789 -2.9394  2.0497  0.9376
  168SAPE  H10S18888   3.668   3.962   3.906 -0.1793  0.2065 -1.4020
  168SAPE  C21118889   3.483   4.078   3.941  0.3612  1.1033  0.1035
  168SAPE  H11R18890   3.416   4.145   3.885  1.6907  1.1623 -1.5107
  168SAPE  C21218891   3.464   4.064   4.072  0.1079  0.2272  1.1008
  168SAPE  H12R18892   3.393   4.138   4.113 -1.8647 -1.4199  0.8202
  168SAPE  C21318893   3.538   3.971   4.173 -0.3311 -0.1409 -0.2816
  168SAPE  H13R18894   3.631   3.933   4.126 -1.1752 -1.1983 -1.1429
  168SAPE  H13S18895   3.471   3.889   4.206 -0.1064 -0.3546 -0.3522
  168SAPE  C21418896   3.577   4.064   4.291 -0.1223 -0.1757 -0.0645
  168SAPE  H14R18897   3.652   4.131   4.248  2.6351 -1.8170  1.8388
  168SAPE  C21518898   3.554   4.047   4.422 -0.8111  0.0756  0.6121
  168SAPE  H15R18899   3.590   4.120   4.495 -0.9134  0.0815  0.6566
  168SAPE  C21618900   3.479   3.923   4.478 -0.4570 -0.0778  0.2323
  168SAPE  H16R18901   3.472   3.842   4.402  0.4383  0.3926 -0.3753
  168SAPE  H16S18902   3.372   3.949   4.494 -0.7921 -0.7782 -0.7159
  168SAPE  C21718903   3.529   3.852   4.606 -0.0317 -0.4067 -0.1028
  168SAPE  H17R18904   3.439   3.810   4.656 -0.5042 -1.1447 -1.5127
  168SAPE  H17S18905   3.571   3.935   4.667 -0.6000 -0.1989  0.0155
  168SAPE  C21818906   3.633   3.742   4.594 -0.2732  0.5161  1.2707
  168SAPE  H18R18907   3.727   3.796   4.565 -0.9736  1.8343  1.3535
  168SAPE  H18S18908   3.598   3.665   4.522 -0.6539  1.1268  0.7921
  168SAPE  C21918909   3.656   3.684   4.743  0.1138  0.0426  0.5855
  168SAPE  H19R18910   3.566   3.636   4.787  1.0743  0.5186  3.2303
  168SAPE  H19S18911   3.679   3.778   4.797  1.5827  0.8914 -1.3829
  168SAPE  C22018912   3.770   3.581   4.746  0.1639  1.0790 -0.8991
  168SAPE  H20R18913   3.763   3.510   4.661 -0.9496  0.7788 -0.5786
  168SAPE  H20S18914   3.768   3.522   4.841  2.6205 -0.2026 -1.5549
  168SAPE  H20T18915   3.867   3.635   4.739  2.2313 -2.2015  0.1324
  168SAPE   C3318916   2.873   4.060   3.510  0.0750 -0.1343 -1.0010
  168SAPE   H3X18917   2.964   4.012   3.469  0.5876 -0.4137  0.4148
  168SAPE   H3Y18918   2.785   3.991   3.512 -0.8877  1.0613  0.8921
  168SAPE   C3418919   2.897   4.073   3.660 -0.4448 -0.6387  0.2546
  168SAPE   H4X18920   2.824   4.145   3.703  0.8401  0.2063  1.0785
  168SAPE   H4Y18921   2.991   4.130   3.676  0.2044 -1.5299 -0.3356
  168SAPE   C3518922   2.892   3.935   3.729 -0.2005  0.0471  0.7019
  168SAPE   H5X18923   2.949   3.850   3.687 -1.7254 -1.9761  2.4969
  168SAPE   H5Y18924   2.790   3.892   3.720  0.8270 -2.4677  0.3494
  168SAPE   C3618925   2.911   3.942   3.880 -0.8531  0.2535 -0.2302
  168SAPE   H6X18926   2.851   4.022   3.929 -1.4094  0.0532 -0.5684
  168SAPE   H6Y18927   3.011   3.985   3.900 -0.9423 -0.1692  1.2088
  168SAPE   C3718928   2.892   3.816   3.966 -0.2926  0.4438  0.2833
  168SAPE   H7X18929   2.974   3.748   3.936 -2.5830 -1.4415 -2.2700
  168SAPE   H7Y18930   2.803   3.756   3.938 -0.1116  0.7088 -0.8771
  168SAPE   C3818931   2.900   3.848   4.114  0.3935  0.2495  0.1444
  168SAPE   H8X18932   2.822   3.919   4.146 -0.1193 -1.3435  2.7406
  168SAPE   H8Y18933   3.002   3.888   4.135  0.5982 -0.6564  0.9659
  168SAPE   C3918934   2.883   3.734   4.213  0.4145 -0.3348  1.1562
  168SAPE   H9X18935   2.930   3.636   4.189  1.7856  0.6174 -0.2397
  168SAPE   H9Y18936   2.777   3.703   4.198  0.4960 -0.3446  0.6026
  168SAPE  C31018937   2.887   3.786   4.354 -0.7294 -0.7854 -0.3745
  168SAPE  H10X18938   2.871   3.692   4.412  0.2689 -1.2849 -0.8878
  168SAPE  H10Y18939   2.798   3.851   4.368  1.7928  3.5339 -2.4403
  168SAPE  C31118940   3.020   3.855   4.390 -0.0290  0.2806 -0.1929
  168SAPE  H11X18941   3.030   3.953   4.338  0.7956  1.6808  2.4346
  168SAPE  H11Y18942   3.107   3.790   4.364 -0.8447 -0.6474 -0.6581
  168SAPE  C31218943   3.033   3.903   4.538 -0.1919  0.7946 -0.5375
  168SAPE  H12X18944   2.950   3.975   4.557  1.3340  2.6556 -0.6324
  168SAPE  H12Y18945   3.135   3.945   4.549  0.1465  0.0075 -0.6507
  168SAPE  C31318946   3.013   3.783   4.640  0.7801 -0.5149  0.4780
  168SAPE  H13X18947   3.056   3.687   4.603 -0.7829 -1.6311  1.4378
  168SAPE  H13Y18948   2.904   3.759   4.636  0.5132  0.4469  1.5370
  168SAPE  C31418949   3.038   3.803   4.792 -0.2620  0.0525 -0.4068
  168SAPE  H14X18950   2.973   3.737   4.854  0.1609  0.6930  0.7500
  168SAPE  H14Y18951   3.004   3.906   4.812  0.6816  0.1630  0.7417
  168SAPE  C31518952   3.186   3.773   4.821  0.2655 -0.8878 -0.3795
  168SAPE  H15X18953   3.244   3.818   4.738 -0.8067  2.2307  0.4071
  168SAPE  H15Y18954   3.206   3.664   4.814  2.0341 -0.6020 -0.0428
  168SAPE  C31618955   3.231   3.838   4.950 -0.5264  0.2735  0.6023
  168SAPE  H16X18956   3.174   3.795   5.034 -1.1831 -0.9704 -0.4385
  168SAPE  H16Y18957   3.213   3.947   4.951  0.2205  0.4051  1.0978
  168SAPE  C31718958   3.381   3.809   4.981 -0.0908  0.0611  0.3747
  168SAPE  H17X18959   3.404   3.876   5.066  1.4894 -0.5694  0.4769
  168SAPE  H17Y18960   3.447   3.848   4.900 -0.8780  2.0108  0.6332
  168SAPE  C31818961   3.423   3.670   5.021  0.2727  0.4290 -0.3586
  168SAPE  H18X18962   3.410   3.597   4.938  0.5219 -0.5405  0.4284
  168SAPE  H18Y18963   3.351   3.628   5.094  0.8893 -2.4358 -1.2794
  168SAPE  H18Z18964   3.522   3.653   5.069 -0.3171 -0.4239  0.5966
  169SAPE     N18965   0.381   3.783   2.532  0.1104 -0.5557  1.1406
  169SAPE   HN118966   0.402   3.681   2.540 -2.5509 -1.1201  1.7562
  169SAPE   HN218967   0.311   3.806   2.459  1.0423  0.3955  0.5155
  169SAPE   HN318968   0.467   3.841   2.517  0.8539 -1.9494 -0.2825
  169SAPE   C1218969   0.327   3.843   2.661 -0.0536  0.3241  0.5190
  169SAPE  H12A18970   0.325   3.954   2.656  3.0105  0.4273 -0.0457
  169SAPE  H12B18971   0.397   3.824   2.746 -1.0340  1.8381  1.7256
  169SAPE   C1118972   0.200   3.776   2.705  0.6257 -0.2222 -0.1239
  169SAPE  H11A18973   0.146   3.837   2.781 -0.7151 -1.0618 -0.3694
  169SAPE  H11B18974   0.224   3.678   2.752  0.3324 -0.0839  0.3172
  169SAPE     P18975  -0.005   3.665   2.584 -0.0331  0.2539  0.4762
  169SAPE   O1318976  -0.100   3.704   2.474  0.0805 -0.3071 -0.2960
  169SAPE   O1418977   0.046   3.523   2.581 -0.4172  0.1047  0.4507
  169SAPE   O1218978   0.112   3.762   2.593  0.4911  0.2128 -0.5637
  169SAPE   O1118979  -0.062   3.705   2.718 -0.4923  0.6143  0.2212
  169SAPE    C118980  -0.128   3.824   2.762  0.3004 -0.7563  0.0526
  169SAPE    HA18981  -0.055   3.890   2.814  1.0917  0.8465 -2.8549
  169SAPE    HB18982  -0.167   3.877   2.672 -0.7382 -1.4939  0.0567
  169SAPE    C218983  -0.248   3.784   2.866  0.0534  0.4536  0.0556
  169SAPE    HS18984  -0.287   3.877   2.913  1.3393  0.3256  1.4406
  169SAPE   O2118985  -0.188   3.690   2.961 -0.1665  0.7723  0.2387
  169SAPE   C2118986  -0.100   3.735   3.043  0.2519  0.0261 -0.4429
  169SAPE   O2218987  -0.072   3.853   3.060 -0.3362  0.3038 -0.1485
  169SAPE   C2218988  -0.050   3.615   3.132  0.0142 -0.8231 -0.0327
  169SAPE   H2R18989  -0.088   3.643   3.232  1.4596  0.2458  0.2374
  169SAPE   H2S18990  -0.100   3.519   3.103 -0.6605 -0.6996  0.6975
  169SAPE    C318991  -0.357   3.702   2.792  0.0273  0.8033  0.6767
  169SAPE    HX18992  -0.301   3.629   2.731 -1.4687  0.5124 -0.4084
  169SAPE    HY18993  -0.392   3.771   2.712 -0.3309 -0.3410 -0.1820
  169SAPE   O3118994  -0.465   3.665   2.874  0.0540 -0.0416  0.4037
  169SAPE   C3118995  -0.460   3.538   2.913 -0.6428 -0.5419 -0.2337
  169SAPE   O3218996  -0.390   3.453   2.863 -0.3483 -0.1131 -0.3547
  169SAPE   C3218997  -0.551   3.514   3.034 -0.0183 -0.6743 -0.3936
  169SAPE   H2X18998  -0.649   3.471   3.006  0.7261 -2.0263 -0.9949
  169SAPE   H2Y18999  -0.569   3.617   3.073  0.6684  0.0161 -1.7824
  169SAPE   C2319000   0.101   3.619   3.137 -0.2358  0.3068  0.0389
  169SAPE   H3R19001   0.134   3.725   3.146  2.1673 -0.3661 -0.1406
  169SAPE   H3S19002   0.137   3.597   3.034  2.3322 -0.4988  1.0404
  169SAPE   C2419003   0.158   3.529   3.254 -0.7133  0.0783  0.8435
  169SAPE   H4R19004   0.101   3.435   3.235 -0.2543 -0.4658  2.0963
  169SAPE   H4S19005   0.144   3.563   3.359  1.6189 -0.9409  1.5431
  169SAPE   C2519006   0.306   3.517   3.235  0.3126 -0.0892 -0.3908
  169SAPE   H5R19007   0.363   3.609   3.218  2.5594 -0.8984  2.1036
  169SAPE   C2619008   0.363   3.399   3.259  0.4342 -0.1251 -0.0013
  169SAPE   H6R19009   0.472   3.388   3.253  0.5571  0.2919  1.2907
  169SAPE   C2719010   0.293   3.270   3.299  0.8500  0.0395 -0.3403
  169SAPE   H7R19011   0.308   3.188   3.225  1.6439  0.1629 -0.3238
  169SAPE   H7S19012   0.183   3.277   3.301  0.7369 -1.3682 -0.1217
  169SAPE   C2819013   0.344   3.234   3.439 -0.3843  0.4224  0.7406
  169SAPE   H8R19014   0.438   3.177   3.442 -1.0701 -0.8123 -0.0938
  169SAPE   C2919015   0.289   3.264   3.556  0.5123  0.1984  0.7609
  169SAPE   H9R19016   0.338   3.219   3.644  0.2039 -2.8761 -0.5212
  169SAPE  C21019017   0.162   3.345   3.589  1.2605 -0.3843 -0.5364
  169SAPE  H10R19018   0.103   3.358   3.495 -0.6410 -4.6815 -0.1420
  169SAPE  H10S19019   0.188   3.441   3.639  1.4759 -0.7594  0.0800
  169SAPE  C21119020   0.091   3.250   3.680 -0.0087  0.0421 -0.4645
  169SAPE  H11R19021   0.082   3.147   3.643 -1.4062  0.1814 -0.5459
  169SAPE  C21219022   0.041   3.292   3.798  0.5457 -0.3737  0.1693
  169SAPE  H12R19023  -0.011   3.221   3.865 -0.4003  0.3262  0.1953
  169SAPE  C21319024   0.042   3.428   3.859  0.4008  0.4766  0.0036
  169SAPE  H13R19025  -0.053   3.440   3.915 -0.3128  1.9229 -1.4226
  169SAPE  H13S19026   0.026   3.496   3.773 -0.1576 -1.5759 -1.5816
  169SAPE  C21419027   0.155   3.460   3.955  0.1492  0.2220 -0.2911
  169SAPE  H14R19028   0.226   3.381   3.981 -1.2104 -0.0928  3.0067
  169SAPE  C21519029   0.159   3.575   4.027  0.2498  0.6727  0.0858
  169SAPE  H15R19030   0.245   3.604   4.088  0.4330 -1.9115  1.1949
  169SAPE  C21619031   0.062   3.691   4.005 -0.1667  0.2989  0.3076
  169SAPE  H16R19032   0.049   3.710   3.896  2.0074  0.4257  0.0188
  169SAPE  H16S19033   0.101   3.789   4.038  0.5048  0.4848 -0.9956
  169SAPE  C21719034  -0.075   3.693   4.081 -0.5222  1.0667  0.0712
  169SAPE  H17R19035  -0.121   3.596   4.054  1.6606  0.3598 -1.3513
  169SAPE  H17S19036  -0.133   3.780   4.044 -2.0895 -0.5650 -1.4888
  169SAPE  C21819037  -0.062   3.702   4.242  0.5254 -0.0071 -0.0013
  169SAPE  H18R19038  -0.013   3.795   4.278 -0.8738  0.5858  0.4352
  169SAPE  H18S19039   0.010   3.621   4.269  1.1975  0.0127 -1.6264
  169SAPE  C21919040  -0.195   3.691   4.321  0.2462  0.4798  0.4929
  169SAPE  H19R19041  -0.249   3.601   4.286 -0.1162  0.7696  0.3032
  169SAPE  H19S19042  -0.250   3.780   4.284 -0.4701 -1.4244 -3.5680
  169SAPE  C22019043  -0.181   3.683   4.475  0.5552 -0.0078 -0.3078
  169SAPE  H20R19044  -0.112   3.760   4.517 -2.2033  1.3288  2.1526
  169SAPE  H20S19045  -0.153   3.580   4.506 -1.3228  0.1126  2.1005
  169SAPE  H20T19046  -0.282   3.698   4.519 -0.1416 -2.9415 -0.7049
  169SAPE   C3319047  -0.485   3.421   3.130  0.3532  0.0703 -0.5784
  169SAPE   H3X19048  -0.438   3.332   3.082  0.7215 -0.1092  0.1083
  169SAPE   H3Y19049  -0.556   3.391   3.209  1.5038  0.6489  0.7037
  169SAPE   C3419050  -0.373   3.489   3.210 -0.0712 -0.2367 -0.3768
  169SAPE   H4X19051  -0.419   3.586   3.241 -0.0122 -0.2456 -0.2624
  169SAPE   H4Y19052  -0.286   3.522   3.149  1.2186 -0.7533  1.1359
  169SAPE   C3519053  -0.328   3.411   3.337 -0.5911 -0.1356 -0.3531
  169SAPE   H5X19054  -0.230   3.361   3.326 -0.8491 -0.2903 -2.3896
  169SAPE   H5Y19055  -0.403   3.333   3.360  0.0365 -0.3535  1.0702
  169SAPE   C3619056  -0.357   3.490   3.467 -0.5378 -0.1327  0.2361
  169SAPE   H6X19057  -0.467   3.502   3.468 -0.7429 -0.8650 -3.0756
  169SAPE   H6Y19058  -0.318   3.595   3.467  0.2424 -0.4068 -0.9456
  169SAPE   C3719059  -0.308   3.426   3.599  0.2985 -0.3624 -0.0147
  169SAPE   H7X19060  -0.317   3.505   3.676 -1.1249 -0.8295  0.3364
  169SAPE   H7Y19061  -0.201   3.398   3.612  0.1173 -0.5175  1.3693
  169SAPE   C3819062  -0.406   3.314   3.637 -0.9279  0.7480 -0.0167
  169SAPE   H8X19063  -0.385   3.231   3.566 -0.1813 -0.8562  1.9831
  169SAPE   H8Y19064  -0.513   3.339   3.621 -0.9538 -0.5781 -2.3804
  169SAPE   C3919065  -0.390   3.245   3.761 -0.2488 -0.5112  0.2246
  169SAPE   H9X19066  -0.282   3.219   3.753 -0.7100 -2.9739  1.0876
  169SAPE   H9Y19067  -0.448   3.152   3.778  0.5423 -1.0025  0.3259
  169SAPE  C31019068  -0.412   3.337   3.886  0.4259 -0.0329 -0.3387
  169SAPE  H10X19069  -0.521   3.357   3.900  0.4967  2.3410 -2.3318
  169SAPE  H10Y19070  -0.361   3.434   3.868 -2.3268  1.9411  1.5931
  169SAPE  C31119071  -0.359   3.264   4.013 -0.2130 -0.4078 -0.7434
  169SAPE  H11X19072  -0.248   3.269   4.015 -0.2302  0.1577 -1.1411
  169SAPE  H11Y19073  -0.381   3.155   4.012  2.3226 -1.0330  0.7439
  169SAPE  C31219074  -0.407   3.336   4.137  0.8778 -0.1838  0.5917
  169SAPE  H12X19075  -0.500   3.392   4.111 -0.7066 -3.2877 -1.0038
  169SAPE  H12Y19076  -0.341   3.422   4.163  0.2156  0.2082  1.0207
  169SAPE  C31319077  -0.432   3.239   4.258 -0.0375  0.4123  0.1758
  169SAPE  H13X19078  -0.361   3.153   4.262 -0.3259  0.1666  0.1280
  169SAPE  H13Y19079  -0.533   3.194   4.242  0.5496 -0.6229 -0.8006
  169SAPE  C31419080  -0.433   3.295   4.403  0.2257  1.1492 -0.3503
  169SAPE  H14X19081  -0.521   3.361   4.409 -1.2366 -0.8038  0.5630
  169SAPE  H14Y19082  -0.346   3.361   4.425  0.1826  2.2192 -3.0119
  169SAPE  C31519083  -0.448   3.190   4.525  0.1281  0.4547 -0.1746
  169SAPE  H15X19084  -0.508   3.242   4.602 -0.9830 -0.6298 -0.2852
  169SAPE  H15Y19085  -0.349   3.159   4.566 -0.5511  1.1171  2.0820
  169SAPE  C31619086  -0.538   3.065   4.489 -0.8056 -0.3115  0.0238
  169SAPE  H16X19087  -0.491   3.022   4.398 -1.6465  0.9453 -1.0480
  169SAPE  H16Y19088  -0.643   3.096   4.471 -0.4769  0.1464 -1.2453
  169SAPE  C31719089  -0.529   2.970   4.605  1.4111 -0.7700 -0.1510
  169SAPE  H17X19090  -0.436   2.910   4.610  0.1044 -3.3634 -2.9357
  169SAPE  H17Y19091  -0.607   2.892   4.591  1.6666 -0.9173 -0.8186
  169SAPE  C31819092  -0.563   3.046   4.741 -0.0665  0.6708 -0.1148
  169SAPE  H18X19093  -0.475   3.108   4.768  0.7928  0.9811 -3.2427
  169SAPE  H18Y19094  -0.570   2.969   4.821  0.1589  0.6791 -0.0871
  169SAPE  H18Z19095  -0.651   3.114   4.741 -0.2791  0.4247  1.3903
  170SAPE     N19096   1.889   4.246   3.036 -0.3454  0.3657 -0.1328
  170SAPE   HN119097   1.809   4.305   3.006 -2.6253 -0.5702  3.3759
  170SAPE   HN219098   1.949   4.296   3.106 -0.1013  0.6882 -0.5693
  170SAPE   HN319099   1.949   4.217   2.957  1.6235 -0.8626  1.6905
  170SAPE   C1219100   1.836   4.117   3.083 -0.1106 -0.6606  0.2094
  170SAPE  H12A19101   1.790   4.065   2.996  0.7139 -0.6597 -0.2424
  170SAPE  H12B19102   1.750   4.139   3.150 -0.0123  2.0952 -0.4514
  170SAPE   C1119103   1.936   4.028   3.162 -0.1404  0.1195  0.0169
  170SAPE  H11A19104   1.889   3.940   3.212  0.3978 -0.7591 -0.9718
  170SAPE  H11B19105   1.967   4.080   3.255 -0.9355 -0.7210  0.7724
  170SAPE     P19106   2.169   3.906   3.158  0.5978 -0.1299 -0.1402
  170SAPE   O1319107   2.135   3.762   3.180 -0.3368  0.5017 -0.4208
  170SAPE   O1419108   2.294   3.941   3.091  0.1040 -0.1132  0.2734
  170SAPE   O1219109   2.049   3.980   3.082  0.2569 -0.0016 -1.1224
  170SAPE   O1119110   2.167   3.976   3.295 -0.2004  0.3542  0.3353
  170SAPE    C119111   2.232   4.103   3.323 -0.3021 -0.1292  0.3253
  170SAPE    HA19112   2.339   4.102   3.294  0.0308  0.6318  1.4642
  170SAPE    HB19113   2.179   4.176   3.259  1.7992 -0.6027 -2.1111
  170SAPE    C219114   2.220   4.146   3.470  0.0831 -0.0592  0.0290
  170SAPE    HS19115   2.259   4.056   3.521 -1.0778 -0.1571  0.7949
  170SAPE   O2119116   2.081   4.160   3.502  0.1938  0.4776  0.1856
  170SAPE   C2119117   2.049   4.118   3.620  0.0200  0.1608  0.2902
  170SAPE   O2219118   2.125   4.065   3.706  0.7823 -0.1325  0.2078
  170SAPE   C2219119   1.899   4.143   3.637  0.1918 -0.2496 -0.4676
  170SAPE   H2R19120   1.893   4.137   3.748 -0.4042 -0.5609 -0.5149
  170SAPE   H2S19121   1.869   4.245   3.605 -2.2700 -0.4676  0.9464
  170SAPE    C319122   2.317   4.264   3.504 -0.2782  0.1415 -0.1634
  170SAPE    HX19123   2.269   4.357   3.465  1.8049  0.9322 -0.9940
  170SAPE    HY19124   2.414   4.242   3.454 -0.8202 -2.2805 -0.2465
  170SAPE   O3119125   2.328   4.283   3.649 -0.1947 -0.2460  0.4814
  170SAPE   C3119126   2.426   4.224   3.719 -0.2886 -0.4126  0.1827
  170SAPE   O3219127   2.522   4.169   3.665 -0.7206  0.0000 -0.1486
  170SAPE   C3219128   2.427   4.263   3.869  0.1467  0.4015  0.2242
  170SAPE   H2X19129   2.333   4.227   3.916 -1.1007  3.2841  0.1335
  170SAPE   H2Y19130   2.406   4.372   3.872 -1.5364  0.0876  0.9134
  170SAPE   C2319131   1.814   4.038   3.561  0.3831  0.6981 -0.0518
  170SAPE   H3R19132   1.873   3.944   3.565 -0.7758 -0.0227  0.6597
  170SAPE   H3S19133   1.805   4.074   3.456 -0.4364  0.2018 -0.1626
  170SAPE   C2419134   1.682   4.008   3.623 -0.0395  0.1577 -0.1571
  170SAPE   H4R19135   1.706   3.956   3.718 -0.2147  1.5429  0.6719
  170SAPE   H4S19136   1.629   3.936   3.557  0.9151  0.4934 -1.3408
  170SAPE   C2519137   1.599   4.129   3.641  0.2922 -0.3650  0.0102
  170SAPE   H5R19138   1.580   4.189   3.550 -1.5288  0.1548  0.6755
  170SAPE   C2619139   1.548   4.176   3.755  0.1387 -0.8460 -1.1567
  170SAPE   H6R19140   1.498   4.274   3.759 -1.8618 -1.8155 -1.1022
  170SAPE   C2719141   1.564   4.121   3.899 -0.2403  0.0276  0.4394
  170SAPE   H7R19142   1.574   4.010   3.894 -4.6796 -0.5772  1.1045
  170SAPE   H7S19143   1.465   4.141   3.944 -0.6776  0.3706 -0.6446
  170SAPE   C2819144   1.672   4.193   3.978  0.5521  0.2202  0.0755
  170SAPE   H8R19145   1.651   4.301   3.983  0.7085  0.2966 -0.7436
  170SAPE   C2919146   1.781   4.133   4.035 -0.2537 -0.0716  0.3295
  170SAPE   H9R19147   1.857   4.188   4.093  0.2676 -1.4052  0.9330
  170SAPE  C21019148   1.799   3.982   4.042 -0.1124  0.2832 -0.3779
  170SAPE  H10R19149   1.906   3.967   4.070 -0.2198 -0.7128 -0.4626
  170SAPE  H10S19150   1.769   3.938   3.944 -0.7060  0.0479 -0.0935
  170SAPE  C21119151   1.711   3.928   4.152  0.5226  0.6262 -0.7312
  170SAPE  H11R19152   1.606   3.929   4.120  0.4496 -3.5548 -1.2095
  170SAPE  C21219153   1.742   3.881   4.274 -0.8383  0.2296 -0.5191
  170SAPE  H12R19154   1.659   3.852   4.341  1.0192  0.3530  1.9994
  170SAPE  C21319155   1.883   3.876   4.338  0.1369  0.4595 -0.6184
  170SAPE  H13R19156   1.901   3.967   4.400 -0.5967 -0.2997  0.7784
  170SAPE  H13S19157   1.949   3.863   4.250 -1.6759  0.2294 -1.9974
  170SAPE  C21419158   1.890   3.755   4.428 -0.3804  0.7237 -0.4940
  170SAPE  H14R19159   1.935   3.666   4.384 -2.3789 -0.1750 -0.8152
  170SAPE  C21519160   1.854   3.746   4.553  0.1360 -0.7313  0.0960
  170SAPE  H15R19161   1.861   3.645   4.594 -0.3635 -0.5656  0.6053
  170SAPE  C21619162   1.797   3.842   4.651  0.5660 -0.4523 -0.5862
  170SAPE  H16R19163   1.824   3.945   4.621  2.6345 -1.4071 -2.2126
  170SAPE  H16S19164   1.854   3.822   4.745  1.0701  2.8248 -0.1000
  170SAPE  C21719165   1.648   3.836   4.680  0.0204 -0.2615 -0.2489
  170SAPE  H17R19166   1.632   3.734   4.723 -0.5700  0.2854  0.9019
  170SAPE  H17S19167   1.579   3.856   4.595 -2.3219 -1.6007  1.2131
  170SAPE  C21819168   1.602   3.923   4.793  0.2461  0.1067 -0.2589
  170SAPE  H18R19169   1.507   3.887   4.837  0.0480  1.0022  0.0758
  170SAPE  H18S19170   1.568   4.025   4.765  0.7786  0.5275  0.6068
  170SAPE  C21919171   1.712   3.935   4.905 -0.3575 -0.3180 -0.4622
  170SAPE  H19R19172   1.791   3.996   4.857  0.3294 -1.4796 -0.8544
  170SAPE  H19S19173   1.747   3.832   4.927 -1.4952 -0.7032 -0.4052
  170SAPE  C22019174   1.651   3.991   5.033 -0.6899  0.9103  0.1406
  170SAPE  H20R19175   1.585   3.920   5.086  0.8062 -1.6612 -1.2497
  170SAPE  H20S19176   1.589   4.080   5.010  0.2925  1.3138 -1.0806
  170SAPE  H20T19177   1.725   4.023   5.110 -0.8866  0.6801  0.4281
  170SAPE   C3319178   2.547   4.208   3.949 -0.0370 -0.9439  0.2918
  170SAPE   H3X19179   2.647   4.235   3.909 -1.1719  0.6525 -1.6921
  170SAPE   H3Y19180   2.542   4.098   3.939  2.4134 -0.8757 -3.3929
  170SAPE   C3419181   2.545   4.254   4.096 -0.0403 -0.4039 -0.0933
  170SAPE   H4X19182   2.439   4.232   4.121 -0.5785 -0.7354 -2.3970
  170SAPE   H4Y19183   2.559   4.364   4.107 -1.1859 -0.1610 -0.8363
  170SAPE   C3519184   2.644   4.179   4.183  0.6649  0.8973 -0.0047
  170SAPE   H5X19185   2.750   4.173   4.152  0.6077 -0.2899 -0.0274
  170SAPE   H5Y19186   2.600   4.076   4.187 -0.4792  1.3347 -0.7558
  170SAPE   C3619187   2.646   4.221   4.340  0.1757  0.3361  0.2403
  170SAPE   H6X19188   2.706   4.144   4.392 -0.6191 -0.5375 -0.1008
  170SAPE   H6Y19189   2.542   4.205   4.376 -0.6022  1.1326 -1.5371
  170SAPE   C3719190   2.700   4.364   4.364 -0.0224 -0.3071  0.1872
  170SAPE   H7X19191   2.624   4.440   4.335  0.8795  0.7962  0.6376
  170SAPE   H7Y19192   2.787   4.376   4.296 -0.9132 -1.4337 -1.2135
  170SAPE   C3819193   2.741   4.401   4.514  0.2179  0.0652  0.3239
  170SAPE   H8X19194   2.810   4.320   4.547 -0.0705  0.3838  1.7947
  170SAPE   H8Y19195   2.655   4.387   4.583 -0.1277 -1.2450 -0.3517
  170SAPE   C3919196   2.808   4.533   4.538  0.5120 -0.9539 -0.0023
  170SAPE   H9X19197   2.738   4.613   4.505  1.6393 -0.6954 -1.9186
  170SAPE   H9Y19198   2.903   4.527   4.480  0.9369 -3.2618  0.8075
  170SAPE  C31019199   2.845   4.557   4.682  1.2175 -0.2671 -0.2280
  170SAPE  H10X19200   2.903   4.477   4.733  0.5614 -0.0057  0.9813
  170SAPE  H10Y19201   2.754   4.569   4.744  0.4787 -2.1781 -0.8860
  170SAPE  C31119202   2.936   4.676   4.689 -0.2709  0.4495 -0.1772
  170SAPE  H11X19203   2.904   4.763   4.628 -2.1290  0.7546  1.1262
  170SAPE  H11Y19204   3.029   4.644   4.637 -0.2142 -0.0813  0.2356
  170SAPE  C31219205   2.959   4.718   4.834  0.4701 -0.0231 -0.7839
  170SAPE  H12X19206   3.057   4.769   4.839  0.5225  0.3469 -3.7399
  170SAPE  H12Y19207   2.973   4.624   4.891  2.5905 -0.0714 -1.3233
  170SAPE  C31319208   2.840   4.803   4.886 -0.2528  0.2488 -0.4336
  170SAPE  H13X19209   2.742   4.753   4.895  0.0097 -0.0137  1.2187
  170SAPE  H13Y19210   2.821   4.886   4.815 -0.2313  2.1530  1.6532
  170SAPE  C31419211   2.867   4.861   5.025 -0.7642 -0.1215 -0.1366
  170SAPE  H14X19212   2.967   4.911   5.029  0.3090 -2.2242  3.0625
  170SAPE  H14Y19213   2.879   4.779   5.099 -0.3391  1.4349  1.6201
  170SAPE  C31519214   2.767   4.961   5.075  0.0166 -0.0667  0.3206
  170SAPE  H15X19215   2.665   4.917   5.069  1.2653 -3.6606  2.5529
  170SAPE  H15Y19216   2.764   5.049   5.007 -0.5111 -2.2007 -2.6065
  170SAPE  C31619217   2.784   5.004   5.227  0.2223 -0.1918 -0.4011
  170SAPE  H16X19218   2.773   4.905   5.276  1.1573 -0.0709  0.0666
  170SAPE  H16Y19219   2.697   5.062   5.263  1.5386  0.7705  1.3915
  170SAPE  C31719220   2.917   5.064   5.265 -0.1663  0.3109 -0.5408
  170SAPE  H17X19221   2.927   5.152   5.197  1.7275  0.8330  0.3513
  170SAPE  H17Y19222   2.998   4.999   5.226 -0.9677  0.2039 -2.1128
  170SAPE  C31819223   2.923   5.090   5.417  0.1633 -0.1285  0.3580
  170SAPE  H18X19224   3.024   5.126   5.447 -0.3740  1.8135 -0.0061
  170SAPE  H18Y19225   2.875   5.010   5.477 -0.7095 -0.0950 -0.2787
  170SAPE  H18Z19226   2.852   5.171   5.443 -2.2093 -1.8866 -0.2329
  171SAPE     N19227   2.035   2.111   2.562 -0.0478 -0.2605 -0.0687
  171SAPE   HN119228   1.961   2.169   2.518 -2.2645 -0.0172  3.5547
  171SAPE   HN219229   2.126   2.163   2.564  0.6706 -1.4363 -1.1395
  171SAPE   HN319230   2.035   2.025   2.504  1.7982 -0.2449 -0.1629
  171SAPE   C1219231   1.993   2.077   2.704 -0.2051 -0.1169 -0.6786
  171SAPE  H12A19232   2.083   2.031   2.752 -1.0904 -1.0184  0.1502
  171SAPE  H12B19233   1.917   1.997   2.696  0.3798 -0.6028 -1.4823
  171SAPE   C1119234   1.944   2.196   2.786  0.1434  0.7340 -0.0916
  171SAPE  H11A19235   2.022   2.275   2.797 -1.0344  1.9582 -0.3349
  171SAPE  H11B19236   1.923   2.162   2.889  0.8242  1.2700  0.2311
  171SAPE     P19237   1.787   2.399   2.748  0.0757 -0.4858 -0.2069
  171SAPE   O1319238   1.913   2.477   2.741  0.2275  0.3002  0.6130
  171SAPE   O1419239   1.682   2.448   2.651  0.3960 -0.6656 -0.5698
  171SAPE   O1219240   1.828   2.254   2.727  0.3309 -0.4362 -0.3690
  171SAPE   O1119241   1.737   2.401   2.894 -0.5889  0.4474  0.0012
  171SAPE    C119242   1.634   2.308   2.939 -0.8055 -0.4259  0.8361
  171SAPE    HA19243   1.539   2.325   2.884 -0.7892 -1.3880  0.4801
  171SAPE    HB19244   1.673   2.204   2.934 -0.9745 -0.4548 -3.4770
  171SAPE    C219245   1.618   2.322   3.090 -0.1481  0.5024  0.0553
  171SAPE    HS19246   1.566   2.230   3.123  0.1061 -0.1538 -1.3279
  171SAPE   O2119247   1.554   2.453   3.119 -0.6066 -0.2155  0.3904
  171SAPE   C2119248   1.484   2.442   3.231 -0.8284  0.1939  0.0897
  171SAPE   O2219249   1.456   2.341   3.290 -0.0924  0.3124 -0.6117
  171SAPE   C2219250   1.457   2.588   3.270  0.8539  1.1173 -0.4304
  171SAPE   H2R19251   1.526   2.659   3.220 -0.7021  1.2104 -2.5664
  171SAPE   H2S19252   1.350   2.611   3.250  0.0403 -0.1358  2.0112
  171SAPE    C319253   1.753   2.318   3.163 -0.4755  0.0540 -0.5994
  171SAPE    HX19254   1.797   2.419   3.152 -1.2759  0.3846 -0.8483
  171SAPE    HY19255   1.812   2.239   3.111  1.2963  1.8744 -1.4956
  171SAPE   O3119256   1.732   2.295   3.310  0.4030 -0.5899  0.1996
  171SAPE   C3119257   1.758   2.182   3.363  0.4923  0.8910  0.4939
  171SAPE   O3219258   1.784   2.077   3.306  0.3602  0.0215  0.2388
  171SAPE   C3219259   1.742   2.192   3.514 -0.5428 -0.4626 -1.0878
  171SAPE   H2X19260   1.639   2.227   3.538 -0.3077 -0.1801 -0.4894
  171SAPE   H2Y19261   1.819   2.266   3.545 -1.2820 -0.0860 -0.0973
  171SAPE   C2319262   1.468   2.611   3.426  0.3946 -0.2840 -0.6021
  171SAPE   H3R19263   1.559   2.560   3.463 -0.8617 -1.9988  0.3015
  171SAPE   H3S19264   1.375   2.573   3.475 -1.1337  0.9971 -2.3574
  171SAPE   C2419265   1.492   2.762   3.456  0.2380  0.0457 -0.2495
  171SAPE   H4R19266   1.569   2.785   3.380  1.6886 -2.1113  0.4572
  171SAPE   H4S19267   1.549   2.782   3.550 -0.5283 -0.9708  0.4589
  171SAPE   C2519268   1.372   2.845   3.436  0.8560  0.6294 -0.1496
  171SAPE   H5R19269   1.330   2.825   3.336 -0.3862  0.9624  0.2966
  171SAPE   C2619270   1.304   2.923   3.518  0.3587  0.1776  0.4692
  171SAPE   H6R19271   1.210   2.969   3.481  0.6812  0.6649  0.2447
  171SAPE   C2719272   1.345   2.956   3.658  0.7990 -0.3144 -0.2405
  171SAPE   H7R19273   1.384   2.870   3.717 -0.0425 -0.1470  0.5758
  171SAPE   H7S19274   1.249   2.980   3.709  0.0347 -0.9049 -1.3672
  171SAPE   C2819275   1.449   3.060   3.655 -0.3797 -0.3458 -0.0764
  171SAPE   H8R19276   1.431   3.136   3.577 -2.6484  1.0911  1.6739
  171SAPE   C2919277   1.555   3.064   3.746 -0.6642 -0.1085 -0.1414
  171SAPE   H9R19278   1.630   3.143   3.744  0.9029 -1.4762  1.5039
  171SAPE  C21019279   1.593   2.970   3.861 -0.1158 -0.0818 -1.1309
  171SAPE  H10R19280   1.677   3.016   3.917 -2.0728  0.7545  1.3322
  171SAPE  H10S19281   1.611   2.865   3.827 -0.8327 -0.8384  0.6935
  171SAPE  C21119282   1.486   2.944   3.958 -0.3917 -0.0326 -0.2091
  171SAPE  H11R19283   1.398   3.010   3.949  0.3681  0.9408 -0.7166
  171SAPE  C21219284   1.483   2.838   4.042  0.4279  0.0641  0.8145
  171SAPE  H12R19285   1.401   2.827   4.115  0.1613 -0.1031  0.4967
  171SAPE  C21319286   1.597   2.733   4.067 -0.1380 -0.2785  0.9456
  171SAPE  H13R19287   1.643   2.705   3.969 -0.0396 -0.8462  1.1511
  171SAPE  H13S19288   1.552   2.634   4.093 -0.0595 -0.3097  0.9630
  171SAPE  C21419289   1.714   2.774   4.154 -0.2292  0.4266 -0.2650
  171SAPE  H14R19290   1.745   2.878   4.133 -1.1540  0.6661 -0.5088
  171SAPE  C21519291   1.778   2.700   4.245  0.0769  0.7441  0.2278
  171SAPE  H15R19292   1.865   2.739   4.299  0.9160  2.9799 -2.4662
  171SAPE  C21619293   1.732   2.567   4.291  0.1773 -0.5206 -0.2207
  171SAPE  H16R19294   1.818   2.498   4.285 -0.5361 -1.4347 -0.1676
  171SAPE  H16S19295   1.649   2.516   4.237 -0.5037 -0.9106  1.1363
  171SAPE  C21719296   1.687   2.581   4.438  0.7588 -0.0870  0.2598
  171SAPE  H17R19297   1.628   2.490   4.459  1.3841 -0.3382  0.9390
  171SAPE  H17S19298   1.629   2.675   4.450  0.8247  0.0056 -0.1193
  171SAPE  C21819299   1.806   2.569   4.539  0.3607  0.1725 -0.6695
  171SAPE  H18R19300   1.877   2.654   4.546  0.8867 -0.1421 -1.8976
  171SAPE  H18S19301   1.876   2.489   4.508  1.3174 -0.2489  2.2402
  171SAPE  C21919302   1.742   2.556   4.680 -0.4252  0.0088  0.6382
  171SAPE  H19R19303   1.825   2.556   4.754  0.4259  1.2681 -0.2803
  171SAPE  H19S19304   1.691   2.457   4.674  1.3637 -1.0599  2.0098
  171SAPE  C22019305   1.639   2.664   4.725 -0.5344  0.0506  0.3011
  171SAPE  H20R19306   1.684   2.760   4.689 -0.4688 -0.4484 -0.9882
  171SAPE  H20S19307   1.622   2.668   4.835 -0.1813 -2.1773  0.4677
  171SAPE  H20T19308   1.545   2.654   4.668 -1.7190 -0.2231  2.2010
  171SAPE   C3319309   1.758   2.050   3.572  0.7466  0.2487  0.5092
  171SAPE   H3X19310   1.853   2.004   3.537  1.1175 -0.7783  2.7165
  171SAPE   H3Y19311   1.668   1.998   3.533  0.2833  0.8464  0.7660
  171SAPE   C3419312   1.771   2.036   3.727 -0.3697  0.1137  0.1454
  171SAPE   H4X19313   1.777   1.929   3.757  1.0948  0.3782  0.8538
  171SAPE   H4Y19314   1.680   2.080   3.775  0.2644  0.0211  1.4744
  171SAPE   C3519315   1.895   2.095   3.786  0.1955 -0.9255  0.0407
  171SAPE   H5X19316   1.894   2.199   3.747  0.0455 -1.6462 -1.9926
  171SAPE   H5Y19317   1.983   2.041   3.746  0.1623 -0.7235 -0.3118
  171SAPE   C3619318   1.892   2.101   3.944 -0.3964  0.4785 -0.3197
  171SAPE   H6X19319   1.977   2.163   3.978 -0.0865 -1.1175  2.0579
  171SAPE   H6Y19320   1.906   1.994   3.968 -1.1341  0.2345 -0.9089
  171SAPE   C3719321   1.764   2.144   4.017  0.4257  0.5482 -0.1057
  171SAPE   H7X19322   1.675   2.082   3.992  1.2549 -0.0460 -1.7057
  171SAPE   H7Y19323   1.737   2.248   3.990  0.2470  0.0973 -1.7973
  171SAPE   C3819324   1.796   2.130   4.169 -0.0387 -0.2059 -0.5348
  171SAPE   H8X19325   1.888   2.190   4.181 -0.7785  1.0428 -0.9410
  171SAPE   H8Y19326   1.820   2.027   4.204 -0.8634 -0.6100 -1.0952
  171SAPE   C3919327   1.687   2.184   4.265 -0.6354 -0.1197 -0.1796
  171SAPE   H9X19328   1.595   2.142   4.218  1.2585 -1.2716 -3.1290
  171SAPE   H9Y19329   1.691   2.295   4.262 -1.8013  0.0431  1.9271
  171SAPE  C31019330   1.703   2.154   4.413  0.3364 -0.1655  0.3264
  171SAPE  H10X19331   1.646   2.234   4.465  1.4543  2.1030 -1.7215
  171SAPE  H10Y19332   1.807   2.180   4.442  1.6150 -1.2108 -2.8381
  171SAPE  C31119333   1.652   2.015   4.448 -0.1195 -0.5048 -0.3474
  171SAPE  H11X19334   1.691   1.938   4.378  2.4416 -1.1215  1.6342
  171SAPE  H11Y19335   1.541   2.013   4.438 -0.2726 -0.5567  1.1729
  171SAPE  C31219336   1.680   1.986   4.589 -0.8987 -0.2010 -0.3590
  171SAPE  H12X19337   1.627   1.892   4.619  0.2731 -1.4782 -2.1218
  171SAPE  H12Y19338   1.649   2.072   4.653 -0.3853  0.1459 -0.5739
  171SAPE  C31319339   1.823   1.948   4.619 -0.7900 -0.4400 -0.1106
  171SAPE  H13X19340   1.892   1.984   4.540 -0.6430 -0.5645 -0.0412
  171SAPE  H13Y19341   1.822   1.837   4.609 -1.4830 -0.5213  0.6978
  171SAPE  C31419342   1.867   1.971   4.770  0.0294  0.0946 -0.7620
  171SAPE  H14X19343   1.952   1.900   4.780 -1.3007 -1.9283 -2.5954
  171SAPE  H14Y19344   1.784   1.948   4.840 -0.2182  2.1063 -0.3432
  171SAPE  C31519345   1.923   2.114   4.801  0.2236 -0.4637 -0.1453
  171SAPE  H15X19346   1.849   2.190   4.770  0.1882 -1.0913 -1.7053
  171SAPE  H15Y19347   2.006   2.121   4.727 -0.6823 -0.2293 -1.1532
  171SAPE  C31619348   1.957   2.143   4.945 -0.5602 -0.2440 -0.1905
  171SAPE  H16X19349   2.031   2.065   4.971  0.0956  0.2659 -0.4945
  171SAPE  H16Y19350   1.863   2.136   5.003 -0.2579 -2.9362  0.0719
  171SAPE  C31719351   2.025   2.282   4.968 -0.1499 -0.4814 -0.4994
  171SAPE  H17X19352   2.118   2.295   4.908  0.4426  2.7966  0.9188
  171SAPE  H17Y19353   2.052   2.287   5.076  0.0937  0.9798 -0.6174
  171SAPE  C31819354   1.952   2.411   4.948 -0.1775 -0.1929 -0.3740
  171SAPE  H18X19355   1.855   2.416   5.002 -0.0374  1.4723 -0.2161
  171SAPE  H18Y19356   1.936   2.416   4.838 -0.8738  2.5460 -0.2276
  171SAPE  H18Z19357   2.013   2.500   4.975 -0.5550 -0.0416 -0.0109
  172SAPE     N19358   0.552   5.889   2.079  0.1310 -0.5840 -0.6721
  172SAPE   HN119359   0.544   5.932   1.985  0.8065 -0.8966 -0.8790
  172SAPE   HN219360   0.562   5.786   2.090 -1.0998 -0.8745 -1.9970
  172SAPE   HN319361   0.460   5.913   2.121 -0.0792 -1.3192 -0.6883
  172SAPE   C1219362   0.649   5.959   2.170 -0.1904  0.4779  0.2568
  172SAPE  H12A19363   0.626   6.068   2.172 -2.7723  0.0171  3.4990
  172SAPE  H12B19364   0.756   5.943   2.148  0.0245 -1.0289  2.1822
  172SAPE   C1119365   0.624   5.915   2.312 -0.9222  0.6212 -0.7630
  172SAPE  H11A19366   0.517   5.925   2.340 -0.5659 -0.9979  1.4646
  172SAPE  H11B19367   0.685   5.976   2.382 -0.4138 -1.0419  0.3067
  172SAPE     P19368   0.796   5.728   2.402 -0.1529 -0.2625  0.3745
  172SAPE   O1319369   0.835   5.592   2.357  0.1066 -0.0736 -0.2890
  172SAPE   O1419370   0.899   5.825   2.364 -0.2151  0.2555  0.1951
  172SAPE   O1219371   0.659   5.777   2.338  0.4636 -0.2944  0.1718
  172SAPE   O1119372   0.783   5.732   2.554 -0.1088  0.1729 -0.1514
  172SAPE    C119373   0.885   5.706   2.653  0.2442 -0.2330  0.1505
  172SAPE    HA19374   0.876   5.611   2.710 -0.9474  0.2404  0.7952
  172SAPE    HB19375   0.988   5.705   2.612  0.3024 -2.3299  0.2460
  172SAPE    C219376   0.890   5.796   2.778 -0.4796 -0.2769  0.6263
  172SAPE    HS19377   0.984   5.772   2.830  0.5846 -1.2687 -1.5972
  172SAPE   O2119378   0.780   5.779   2.868 -0.0859 -0.1370  0.3650
  172SAPE   C2119379   0.771   5.678   2.944 -0.2548 -0.1314  0.2856
  172SAPE   O2219380   0.858   5.591   2.954  0.9270  0.3442 -0.4145
  172SAPE   C2219381   0.632   5.682   3.007  0.3169  0.4019 -0.0536
  172SAPE   H2R19382   0.570   5.641   2.924  1.1118 -0.8482 -0.0478
  172SAPE   H2S19383   0.630   5.612   3.092 -0.2319 -2.3325 -2.1693
  172SAPE    C319384   0.897   5.942   2.738 -0.7972  0.3383 -0.6217
  172SAPE    HX19385   0.798   5.979   2.705 -1.4278  0.8121  1.6248
  172SAPE    HY19386   0.962   5.945   2.648 -1.6755 -3.3498 -1.5394
  172SAPE   O3119387   0.950   6.015   2.850  0.3152 -0.3520 -0.1862
  172SAPE   C3119388   1.081   6.034   2.834  0.5817  0.1069 -0.3352
  172SAPE   O3219389   1.149   5.987   2.746  0.4016 -0.6930  0.4663
  172SAPE   C3219390   1.120   6.104   2.963 -0.8333 -0.6526  0.1315
  172SAPE   H2X19391   1.079   6.208   2.959 -0.3380 -0.4023  1.2653
  172SAPE   H2Y19392   1.229   6.125   2.954 -0.5174 -1.1048  2.2991
  172SAPE   C2319393   0.593   5.827   3.053 -0.2417 -0.4111 -0.2677
  172SAPE   H3R19394   0.487   5.827   3.085 -0.6318  1.5783 -1.4342
  172SAPE   H3S19395   0.584   5.887   2.961 -1.6555 -1.8272 -1.1121
  172SAPE   C2419396   0.692   5.899   3.145  0.2872 -0.2406 -0.5598
  172SAPE   H4R19397   0.653   6.003   3.157  0.4091 -0.0725 -1.5633
  172SAPE   H4S19398   0.789   5.906   3.092  1.2177  1.1989  1.2135
  172SAPE   C2519399   0.712   5.827   3.269  0.0983  0.1629  0.3646
  172SAPE   H5R19400   0.622   5.834   3.333 -0.3539  1.0717 -0.3560
  172SAPE   C2619401   0.820   5.756   3.320  0.2919 -0.3263  0.9548
  172SAPE   H6R19402   0.802   5.717   3.421 -0.1799  0.0801  1.0338
  172SAPE   C2719403   0.959   5.731   3.262  0.2702 -0.3964 -0.2186
  172SAPE   H7R19404   1.025   5.817   3.286  0.2712 -0.1398 -1.1113
  172SAPE   H7S19405   0.949   5.721   3.152  1.4676  0.5264 -0.4273
  172SAPE   C2819406   1.020   5.603   3.308 -0.2809  0.0422 -0.1248
  172SAPE   H8R19407   1.019   5.515   3.241  0.4275 -1.5081  1.8143
  172SAPE   C2919408   1.092   5.576   3.420  0.7185 -0.8671 -0.6555
  172SAPE   H9R19409   1.119   5.472   3.443 -0.4375 -0.9644  0.4048
  172SAPE  C21019410   1.122   5.675   3.531 -0.3672  0.1139 -0.0726
  172SAPE  H10R19411   1.112   5.782   3.503  2.5983  0.2169 -1.1336
  172SAPE  H10S19412   1.231   5.665   3.548 -0.3976 -2.6781 -1.0381
  172SAPE  C21119413   1.041   5.647   3.657 -1.1932  0.1191  0.8426
  172SAPE  H11R19414   0.934   5.658   3.636 -1.1324 -2.2679 -1.1520
  172SAPE  C21219415   1.086   5.633   3.784  0.5961  0.8582 -0.3915
  172SAPE  H12R19416   1.016   5.613   3.867  0.2834  0.7059 -0.6879
  172SAPE  C21319417   1.229   5.628   3.835  0.4220 -0.2044 -0.4822
  172SAPE  H13R19418   1.242   5.668   3.937  0.9678  0.3149 -0.7493
  172SAPE  H13S19419   1.287   5.699   3.772 -1.8682  1.0435 -1.3194
  172SAPE  C21419420   1.288   5.488   3.818 -0.0320  0.2825  0.2454
  172SAPE  H14R19421   1.319   5.478   3.712 -0.6943  1.2228 -0.0494
  172SAPE  C21519422   1.284   5.384   3.901  0.1898  0.3344 -0.3502
  172SAPE  H15R19423   1.337   5.291   3.873  1.3816  1.1936 -1.0579
  172SAPE  C21619424   1.224   5.387   4.042  0.2457  0.6676 -0.1149
  172SAPE  H16R19425   1.198   5.285   4.076 -2.7798  1.6437  0.8502
  172SAPE  H16S19426   1.136   5.455   4.041  1.0098  1.7859  1.9758
  172SAPE  C21719427   1.317   5.436   4.149 -0.2076  0.1775 -0.5311
  172SAPE  H17R19428   1.280   5.450   4.253  0.1713  2.6775 -0.6627
  172SAPE  H17S19429   1.363   5.532   4.118 -0.2609  0.2232 -0.4665
  172SAPE  C21819430   1.450   5.363   4.171 -0.9421 -0.6539 -0.3152
  172SAPE  H18R19431   1.503   5.423   4.248 -0.2725  0.3947 -1.5570
  172SAPE  H18S19432   1.512   5.354   4.080 -0.3115 -1.8182  0.2050
  172SAPE  C21919433   1.444   5.223   4.237  0.1456 -1.1299  1.1417
  172SAPE  H19R19434   1.405   5.161   4.153 -1.6990  0.8269  0.4640
  172SAPE  H19S19435   1.373   5.230   4.322 -0.2106 -1.6892  0.9023
  172SAPE  C22019436   1.575   5.173   4.286  0.3189  0.9021 -0.4782
  172SAPE  H20R19437   1.640   5.135   4.204  0.2112  0.3933 -0.3331
  172SAPE  H20S19438   1.567   5.084   4.352  1.9752 -0.6885 -2.2648
  172SAPE  H20T19439   1.635   5.251   4.336  2.5800 -2.0784  1.8484
  172SAPE   C3319440   1.106   6.018   3.091 -0.4071 -0.4012  0.1766
  172SAPE   H3X19441   1.159   5.923   3.071 -0.1883 -0.7133  2.0496
  172SAPE   H3Y19442   0.996   6.005   3.098 -1.2832  5.1531  1.7183
  172SAPE   C3419443   1.159   6.069   3.220  0.5431 -0.3218 -0.8639
  172SAPE   H4X19444   1.260   6.110   3.201  0.3015  0.3256 -0.7884
  172SAPE   H4Y19445   1.164   5.988   3.295  1.1068  0.0086 -0.5443
  172SAPE   C3519446   1.065   6.165   3.293 -0.1875 -0.7828 -0.4069
  172SAPE   H5X19447   0.987   6.103   3.342  1.1540 -2.9655 -0.9002
  172SAPE   H5Y19448   1.025   6.229   3.212 -0.0927  1.4131  1.2026
  172SAPE   C3619449   1.136   6.259   3.394  0.3768  0.2385  0.2886
  172SAPE   H6X19450   1.075   6.349   3.372 -0.3784 -0.7526 -1.9061
  172SAPE   H6Y19451   1.238   6.267   3.351  0.0171 -0.7304 -0.7875
  172SAPE   C3719452   1.139   6.210   3.541  0.3381  0.1336  0.0810
  172SAPE   H7X19453   1.032   6.189   3.566  0.1602 -1.0959 -1.5385
  172SAPE   H7Y19454   1.183   6.286   3.608 -0.0940 -0.2338  0.8031
  172SAPE   C3819455   1.222   6.076   3.574  0.1321  0.0876  0.7937
  172SAPE   H8X19456   1.330   6.087   3.551  0.4777 -1.6813  1.3977
  172SAPE   H8Y19457   1.192   5.999   3.499 -3.2607 -0.0446  2.1182
  172SAPE   C3919458   1.204   6.022   3.716  0.6597  0.3540  0.0305
  172SAPE   H9X19459   1.288   5.951   3.734 -1.0872 -1.3222  2.2082
  172SAPE   H9Y19460   1.114   5.957   3.716 -0.3410  1.7068  0.4891
  172SAPE  C31019461   1.195   6.133   3.823 -0.1453 -0.4455 -0.2378
  172SAPE  H10X19462   1.094   6.177   3.819  0.0484  0.2141  1.5623
  172SAPE  H10Y19463   1.268   6.214   3.800 -0.6790  0.1821  0.2653
  172SAPE  C31119464   1.239   6.075   3.957 -0.3520 -0.5023  1.1800
  172SAPE  H11X19465   1.346   6.103   3.946 -1.0469  1.7140 -0.9217
  172SAPE  H11Y19466   1.219   5.966   3.963  1.9323 -1.1102 -0.9744
  172SAPE  C31219467   1.185   6.137   4.086 -0.2926 -0.2426 -0.0816
  172SAPE  H12X19468   1.079   6.109   4.105 -0.3547  0.8275  1.2706
  172SAPE  H12Y19469   1.193   6.248   4.082  1.5338 -0.2968  1.1890
  172SAPE  C31319470   1.267   6.086   4.210  0.2869 -0.2129  0.5940
  172SAPE  H13X19471   1.367   6.133   4.218  0.8901 -1.6072  1.5879
  172SAPE  H13Y19472   1.275   5.977   4.190  2.6871  0.0162  0.0688
  172SAPE  C31419473   1.201   6.109   4.354 -0.8117  0.9308  0.8904
  172SAPE  H14X19474   1.286   6.085   4.422  1.9367 -1.1194 -2.8576
  172SAPE  H14Y19475   1.121   6.032   4.363  2.0686 -2.5119 -0.4840
  172SAPE  C31519476   1.129   6.232   4.365  0.0455 -0.1986 -0.2401
  172SAPE  H15X19477   1.039   6.226   4.301  0.0103  0.0789 -0.2189
  172SAPE  H15Y19478   1.196   6.311   4.324 -2.4982  1.8122 -0.7859
  172SAPE  C31619479   1.086   6.268   4.509  0.2545 -0.6917 -0.0075
  172SAPE  H16X19480   1.018   6.356   4.504 -1.4938 -1.9057  1.0645
  172SAPE  H16Y19481   1.175   6.306   4.564  0.2037 -0.1223 -0.3084
  172SAPE  C31719482   1.007   6.157   4.588  0.4710  0.1273  0.6797
  172SAPE  H17X19483   1.068   6.064   4.593 -0.0314 -0.2474 -0.0997
  172SAPE  H17Y19484   0.912   6.122   4.542  0.6335 -0.4047  0.7394
  172SAPE  C31819485   0.985   6.201   4.730 -0.2278  0.8396 -0.0194
  172SAPE  H18X19486   1.046   6.291   4.756  1.0150  0.3258 -1.0470
  172SAPE  H18Y19487   1.006   6.122   4.805 -1.3718  1.1955  0.7063
  172SAPE  H18Z19488   0.877   6.224   4.740 -0.5605 -0.9793  1.1026
  173SLPC     N19489   0.818   3.618   7.473 -0.0746 -0.0998  0.1095
  173SLPC   C1319490   0.929   3.531   7.417  0.4365  0.3075 -0.1553
  173SLPC  H13A19491   0.925   3.534   7.309 -1.6246 -3.1737 -0.3088
  173SLPC  H13B19492   1.026   3.556   7.458  1.9956 -2.0883 -2.1354
  173SLPC  H13C19493   0.909   3.429   7.444 -3.0356  0.1547 -2.6484
  173SLPC   C1419494   0.863   3.755   7.458 -0.4886 -0.0270 -1.0397
  173SLPC  H14A19495   0.875   3.783   7.354 -3.0939 -0.3429 -1.4937
  173SLPC  H14B19496   0.789   3.829   7.486 -0.6366 -0.1739 -1.0427
  173SLPC  H14C19497   0.952   3.767   7.518 -0.8713  2.4232 -0.8517
  173SLPC   C1519498   0.790   3.579   7.621  0.2261 -0.3356  0.4771
  173SLPC  H15A19499   0.876   3.548   7.678  0.8017 -0.2639 -0.3328
  173SLPC  H15B19500   0.759   3.670   7.671 -2.1117 -0.9682  0.3156
  173SLPC  H15C19501   0.706   3.513   7.636  0.2013 -0.5507 -0.5213
  173SLPC   C1219502   0.688   3.622   7.391 -0.1182  0.1369 -0.1481
  173SLPC  H12A19503   0.616   3.681   7.445 -1.6171 -0.0564 -1.8453
  173SLPC  H12B19504   0.656   3.519   7.379  0.4237  0.0289 -0.6857
  173SLPC   C1119505   0.693   3.673   7.249  0.1001  0.1614  0.4670
  173SLPC  H11A19506   0.708   3.783   7.249 -0.4899  0.2559  1.3603
  173SLPC  H11B19507   0.595   3.656   7.200  1.0378 -0.8665 -1.1238
  173SLPC     P19508   0.775   3.510   7.062  0.3306 -0.0026 -0.3211
  173SLPC   O1319509   0.899   3.449   7.031 -0.2055  0.0566  0.0531
  173SLPC   O1419510   0.669   3.410   7.091  0.4922  0.1121  0.2443
  173SLPC   O1219511   0.800   3.614   7.179  0.6499 -1.2897 -0.1291
  173SLPC   O1119512   0.743   3.602   6.936  0.2831 -0.1515  0.1757
  173SLPC    C119513   0.785   3.735   6.923 -0.3651  0.4379 -0.1270
  173SLPC    HA19514   0.763   3.783   7.021 -0.2646 -1.0829  0.6582
  173SLPC    HB19515   0.895   3.743   6.906 -0.3298 -0.0641 -0.1452
  173SLPC    C219516   0.705   3.808   6.813  0.3999  0.0986 -0.7379
  173SLPC    HS19517   0.601   3.810   6.852  1.0898  2.5143  1.2347
  173SLPC   O2119518   0.719   3.738   6.687  0.3771  0.1234 -0.6954
  173SLPC   C2119519   0.626   3.755   6.596  0.3194 -0.1043  0.1542
  173SLPC   O2219520   0.512   3.794   6.621  0.3244 -0.0803 -0.1019
  173SLPC   C2219521   0.672   3.723   6.451 -0.0222 -0.5751 -0.9874
  173SLPC   H2R19522   0.782   3.715   6.443  0.1005 -0.2326  0.1946
  173SLPC   H2S19523   0.646   3.616   6.438  0.2178 -0.7065 -0.3845
  173SLPC    C319524   0.760   3.954   6.808  1.0466 -0.6871  0.2537
  173SLPC    HX19525   0.865   3.955   6.772  0.6512  0.7647 -0.9850
  173SLPC    HY19526   0.775   4.003   6.907 -1.1624  0.1522  0.2220
  173SLPC   O3119527   0.683   4.036   6.714 -0.2819 -0.1292 -0.1005
  173SLPC   C3119528   0.579   4.102   6.771 -0.1703  0.3070  0.9021
  173SLPC   O3219529   0.547   4.089   6.887  0.1848 -0.3125 -0.5433
  173SLPC   C3219530   0.523   4.207   6.665  0.1782  0.1353  0.0739
  173SLPC   H2X19531   0.569   4.304   6.693 -0.6616  1.5981 -3.2274
  173SLPC   H2Y19532   0.416   4.218   6.693  0.4748  1.9909  0.6003
  173SLPC   C2319533   0.611   3.812   6.341  0.5887 -0.4793  0.0301
  173SLPC   H3R19534   0.656   3.914   6.345 -2.1878  0.7943  1.7630
  173SLPC   H3S19535   0.501   3.822   6.352  0.4783  0.1329 -1.4585
  173SLPC   C2419536   0.636   3.761   6.192  0.2348 -0.5317 -0.1178
  173SLPC   H4R19537   0.589   3.661   6.200  0.6097 -0.6008  1.6477
  173SLPC   H4S19538   0.745   3.750   6.172  0.7445  0.6088  1.6772
  173SLPC   C2519539   0.571   3.839   6.082  0.1502 -0.8694 -0.2290
  173SLPC   H5R19540   0.590   3.946   6.104  2.2985 -0.8880 -1.7619
  173SLPC   H5S19541   0.460   3.831   6.077 -0.0576  1.4275 -0.3984
  173SLPC   C2619542   0.636   3.819   5.943 -0.7093  0.2473 -0.6134
  173SLPC   H6R19543   0.741   3.790   5.964 -0.4300  1.4745 -0.2045
  173SLPC   H6S19544   0.650   3.911   5.881 -0.1031  0.5013 -0.1072
  173SLPC   C2719545   0.552   3.716   5.865  0.4594  0.4821  0.7864
  173SLPC   H7R19546   0.461   3.754   5.815  0.8317 -1.3833 -1.4990
  173SLPC   H7S19547   0.516   3.647   5.944 -2.9993  2.8493  1.4768
  173SLPC   C2819548   0.629   3.647   5.756 -0.0982  0.1963  0.5228
  173SLPC   H8R19549   0.670   3.718   5.681 -1.2078 -0.5062 -0.8201
  173SLPC   H8S19550   0.547   3.594   5.702  0.3288  0.6595 -0.6233
  173SLPC   C2919551   0.728   3.552   5.809 -0.5626  0.6760 -0.2560
  173SLPC   H9R19552   0.796   3.604   5.877 -1.8187  0.8809  0.8872
  173SLPC  C21019553   0.734   3.413   5.787 -0.2258 -0.8020 -0.6714
  173SLPC  H10R19554   0.818   3.357   5.829  2.4702  2.0449 -1.9159
  173SLPC  C21119555   0.633   3.337   5.706  0.0520 -0.0739  0.4312
  173SLPC  H11R19556   0.673   3.340   5.603  3.1009 -0.4566  1.5077
  173SLPC  H11S19557   0.533   3.385   5.697 -0.2242 -0.8847 -1.2474
  173SLPC  C21219558   0.618   3.188   5.747 -0.0156  0.0290 -0.4150
  173SLPC  H12R19559   0.519   3.145   5.766  0.8133 -2.4028 -1.1556
  173SLPC  C21319560   0.720   3.097   5.749  0.1945  0.1605  0.5900
  173SLPC  H13R19561   0.690   2.995   5.776  0.5538  0.2530  1.3443
  173SLPC  C21419562   0.864   3.110   5.701 -0.4020  0.8097  0.1679
  173SLPC  H14R19563   0.893   3.210   5.661  2.8585 -0.4169 -0.9483
  173SLPC  H14S19564   0.887   3.026   5.633  1.2969  1.3781 -0.0337
  173SLPC  C21519565   0.963   3.098   5.819 -0.8001  1.5123  0.5359
  173SLPC  H15R19566   0.946   3.173   5.899  1.9674  0.3180  2.4091
  173SLPC  H15S19567   1.065   3.103   5.775 -0.6589  2.6738  0.9670
  173SLPC  C21619568   0.953   2.967   5.893 -0.5464  0.2784  0.1030
  173SLPC  H16R19569   0.879   2.905   5.838 -1.0363  0.9652 -0.0156
  173SLPC  H16S19570   0.928   2.972   6.002  2.1015 -0.8018  0.8512
  173SLPC  C21719571   1.079   2.883   5.899  0.1107  0.2020  0.1387
  173SLPC  H17R19572   1.163   2.949   5.931 -0.4636  0.2264  1.7196
  173SLPC  H17S19573   1.105   2.847   5.798 -0.8475  1.1769 -0.4833
  173SLPC  C21819574   1.078   2.784   6.012 -0.3382  0.2615 -0.7673
  173SLPC  H18R19575   1.000   2.708   5.994  0.6797 -0.4144 -2.6274
  173SLPC  H18S19576   1.055   2.837   6.107  0.9594 -3.4509  1.8864
  173SLPC  H18T19577   1.178   2.744   6.039 -0.3516  0.8385  0.1836
  173SLPC   C3319578   0.546   4.160   6.518  0.2165  0.0993 -0.2539
  173SLPC   H3X19579   0.509   4.056   6.515  2.6417 -0.8511  0.2696
  173SLPC   H3Y19580   0.651   4.148   6.482  0.2051  2.4447 -1.2246
  173SLPC   C3419581   0.479   4.257   6.418 -0.5064  0.1476  0.2018
  173SLPC   H4X19582   0.512   4.359   6.444  0.8333  0.3988 -2.1760
  173SLPC   H4Y19583   0.370   4.236   6.425 -0.1712 -1.7541  0.4424
  173SLPC   C3519584   0.530   4.222   6.276 -0.5868  0.7583  0.3218
  173SLPC   H5X19585   0.516   4.113   6.255 -0.2501  0.7598  0.0763
  173SLPC   H5Y19586   0.637   4.248   6.266 -1.1582  3.8314  1.2946
  173SLPC   C3619587   0.454   4.281   6.153 -0.2934 -1.0329  0.0738
  173SLPC   H6X19588   0.461   4.390   6.174  1.0164 -1.5415  2.5791
  173SLPC   H6Y19589   0.345   4.257   6.156 -0.3530 -0.8276 -0.3123
  173SLPC   C3719590   0.523   4.256   6.020 -0.0684 -0.3037 -0.5562
  173SLPC   H7X19591   0.592   4.169   6.026  0.3095  0.0089 -0.3384
  173SLPC   H7Y19592   0.588   4.345   6.005 -1.9814  1.5329  1.4189
  173SLPC   C3819593   0.420   4.244   5.905 -0.4925 -0.2112 -0.4813
  173SLPC   H8X19594   0.376   4.346   5.900 -0.9440 -0.4437 -1.8447
  173SLPC   H8Y19595   0.346   4.170   5.941  0.9071 -1.6955 -0.5658
  173SLPC   C3919596   0.482   4.200   5.768  0.1939 -0.1830 -0.1592
  173SLPC   H9X19597   0.398   4.210   5.696 -0.0163  0.4864  0.1624
  173SLPC   H9Y19598   0.532   4.101   5.771  0.7582  0.0625 -1.2539
  173SLPC  C31019599   0.596   4.295   5.735 -0.2075  0.3821 -0.4352
  173SLPC  H10X19600   0.680   4.266   5.801  0.7025 -0.5334 -1.9312
  173SLPC  H10Y19601   0.569   4.399   5.763  1.3155  0.7225 -0.1743
  173SLPC  C31119602   0.640   4.295   5.589  0.1082 -0.4628 -0.1727
  173SLPC  H11X19603   0.724   4.223   5.595 -1.0418 -1.7394  1.9097
  173SLPC  H11Y19604   0.686   4.393   5.562 -0.5060 -0.3061 -0.6821
  173SLPC  C31219605   0.549   4.244   5.483  0.5483  0.1380  0.2857
  173SLPC  H12X19606   0.459   4.308   5.495  1.1435  0.9530  0.5121
  173SLPC  H12Y19607   0.520   4.137   5.489 -1.6842  0.5301 -1.7729
  173SLPC  C31319608   0.612   4.274   5.348 -0.3262 -0.6592  0.0242
  173SLPC  H13X19609   0.717   4.236   5.351  0.1380  0.6454  1.5867
  173SLPC  H13Y19610   0.615   4.384   5.335  2.0696 -0.1668  3.4072
  173SLPC  C31419611   0.532   4.231   5.216 -0.1864  0.1689 -0.6071
  173SLPC  H14X19612   0.441   4.294   5.205  1.3647  2.8743  0.8891
  173SLPC  H14Y19613   0.499   4.127   5.235 -0.2215  0.5322  1.5348
  173SLPC  C31519614   0.605   4.234   5.081 -0.6263 -0.0358  0.5450
  173SLPC  H15X19615   0.626   4.340   5.055 -2.3363 -0.0465 -1.0636
  173SLPC  H15Y19616   0.538   4.201   4.999  0.4221 -1.9597  0.4077
  173SLPC  C31619617   0.735   4.150   5.074  0.5257 -0.5864  0.0478
  173SLPC  H16X19618   0.698   4.051   5.042 -1.5970  0.6087 -1.4513
  173SLPC  H16Y19619   0.777   4.140   5.176  0.0187  0.4065  0.3709
  173SLPC  C31719620   0.836   4.195   4.977  0.1227 -0.5313 -0.4122
  173SLPC  H17X19621   0.918   4.120   4.972 -0.9868 -1.7299 -2.7748
  173SLPC  H17Y19622   0.882   4.284   5.024 -0.8007 -0.8456  1.1461
  173SLPC  C31819623   0.800   4.228   4.834 -0.4061  0.6581  0.3788
  173SLPC  H18X19624   0.726   4.310   4.832 -0.4099  0.6595  0.5878
  173SLPC  H18Y19625   0.752   4.138   4.790 -2.6438  1.0319  1.9304
  173SLPC  H18Z19626   0.900   4.246   4.789  0.1999 -2.8658  0.0198
  174SLPC     N19627   5.935   0.334   7.242 -0.2276 -0.2212  0.4806
  174SLPC   C1319628   5.951   0.366   7.386  0.6066  0.6514 -0.4350
  174SLPC  H13A19629   6.034   0.433   7.400  1.7733 -0.9643  0.8243
  174SLPC  H13B19630   5.865   0.423   7.421  2.8467  2.9158  1.8209
  174SLPC  H13C19631   5.947   0.281   7.453 -1.6072 -0.5718 -1.9551
  174SLPC   C1419632   6.064   0.293   7.187 -0.1023  0.0951 -0.3401
  174SLPC  H14A19633   6.056   0.276   7.080 -2.2411 -3.3661  0.2166
  174SLPC  H14B19634   6.138   0.367   7.213 -1.4289  1.2389  0.3222
  174SLPC  H14C19635   6.076   0.191   7.220 -1.1870  0.2500  0.5896
  174SLPC   C1519636   5.887   0.451   7.171  0.2642 -0.6397 -0.0184
  174SLPC  H15A19637   5.797   0.492   7.213  0.9230 -1.3997  2.2740
  174SLPC  H15B19638   5.957   0.533   7.171  1.4975 -1.6637  0.9488
  174SLPC  H15C19639   5.875   0.433   7.065 -0.4286  1.7064 -0.4124
  174SLPC   C1219640   5.835   0.219   7.221  0.7609  0.8893  0.3445
  174SLPC  H12A19641   5.829   0.191   7.117 -2.7633  0.8664  0.4599
  174SLPC  H12B19642   5.734   0.250   7.243 -0.8539 -4.3500  1.7896
  174SLPC   C1119643   5.863   0.083   7.299 -0.4827 -0.7102  0.2517
  174SLPC  H11A19644   5.782   0.010   7.276 -0.3019 -1.3810  1.6829
  174SLPC  H11B19645   5.849   0.113   7.405  1.2963  3.3510 -0.4669
  174SLPC     P19646   6.048  -0.090   7.209  0.2152  0.0083  0.4124
  174SLPC   O1319647   6.165  -0.040   7.128  0.0530 -0.6511  0.4190
  174SLPC   O1419648   6.058  -0.211   7.290  0.3218  0.1115 -0.2271
  174SLPC   O1219649   5.995   0.028   7.289 -0.3391  0.0469  0.1249
  174SLPC   O1119650   5.932  -0.105   7.103  0.6921  0.2352  0.3339
  174SLPC    C119651   5.956  -0.165   6.976 -1.0328 -0.4775 -0.1775
  174SLPC    HA19652   5.882  -0.142   6.897  0.0943 -1.3938 -1.5477
  174SLPC    HB19653   6.050  -0.122   6.934 -2.3567  1.6036 -1.1513
  174SLPC    C219654   5.977  -0.319   6.984 -0.3413  0.1092 -0.4648
  174SLPC    HS19655   6.066  -0.336   7.047  0.0722  1.2652 -0.6983
  174SLPC   O2119656   6.002  -0.353   6.848  0.5987 -0.3102  0.0080
  174SLPC   C2119657   6.066  -0.467   6.829  0.3801 -0.0183 -0.3613
  174SLPC   O2219658   6.096  -0.544   6.921 -0.5592  0.0844  0.4224
  174SLPC   C2219659   6.116  -0.468   6.688 -0.0658  0.9337  0.3650
  174SLPC   H2R19660   6.029  -0.432   6.629 -0.5971 -0.6777  0.1096
  174SLPC   H2S19661   6.206  -0.404   6.678  0.8251  0.0866  2.4214
  174SLPC    C319662   5.846  -0.393   7.039  0.1662 -0.6355  0.2866
  174SLPC    HX19663   5.841  -0.361   7.145  0.3255 -1.0405  0.4215
  174SLPC    HY19664   5.865  -0.503   7.035 -1.5792 -0.9289 -3.4705
  174SLPC   O3119665   5.730  -0.352   6.983 -0.0801 -0.3967  0.1842
  174SLPC   C3119666   5.698  -0.397   6.855  0.3700  0.4349  0.1274
  174SLPC   O3219667   5.744  -0.503   6.815  0.2245  0.0759  0.1088
  174SLPC   C3219668   5.588  -0.320   6.801  0.3419 -0.3446  0.2930
  174SLPC   H2X19669   5.589  -0.216   6.841  3.5017 -0.2490  0.2619
  174SLPC   H2Y19670   5.490  -0.362   6.830  1.0390 -1.4573  1.1591
  174SLPC   C2319671   6.148  -0.612   6.638 -0.0672  0.4663  0.3177
  174SLPC   H3R19672   6.057  -0.676   6.637  0.9744 -1.2039 -3.4793
  174SLPC   H3S19673   6.223  -0.665   6.699 -1.6695 -2.8233 -0.3741
  174SLPC   C2419674   6.185  -0.616   6.488 -0.1153 -0.1579 -0.4611
  174SLPC   H4R19675   6.229  -0.715   6.467  1.3434  0.8047 -2.1800
  174SLPC   H4S19676   6.268  -0.544   6.473  0.8249 -1.2940 -0.7599
  174SLPC   C2519677   6.061  -0.597   6.393 -0.5828  0.2335 -0.2558
  174SLPC   H5R19678   6.014  -0.500   6.420 -0.9932  0.1597 -0.6932
  174SLPC   H5S19679   5.983  -0.670   6.425  0.0159  0.3377  1.5539
  174SLPC   C2619680   6.103  -0.596   6.249  0.6326  0.6851 -0.4068
  174SLPC   H6R19681   6.186  -0.523   6.241  0.3113  1.2396  1.0418
  174SLPC   H6S19682   6.013  -0.549   6.202  0.1839 -1.6438 -2.0660
  174SLPC   C2719683   6.141  -0.734   6.192  0.1429  0.0717  0.5737
  174SLPC   H7R19684   6.056  -0.800   6.219 -0.0558  1.0495  2.5162
  174SLPC   H7S19685   6.224  -0.767   6.258  1.2922  0.5390 -0.5840
  174SLPC   C2819686   6.192  -0.730   6.047  0.8886  0.7028 -0.0264
  174SLPC   H8R19687   6.281  -0.664   6.046  0.6762  1.0479  1.5616
  174SLPC   H8S19688   6.117  -0.674   5.987  0.0955  1.2898  1.4628
  174SLPC   C2919689   6.241  -0.861   5.995 -0.1471 -0.9179 -0.1318
  174SLPC   H9R19690   6.267  -0.930   6.077  0.7623  1.0330  1.3036
  174SLPC  C21019691   6.244  -0.899   5.862 -0.1724 -0.1552  0.0012
  174SLPC  H10R19692   6.269  -1.002   5.834  0.0881  0.1297 -0.8381
  174SLPC  C21119693   6.219  -0.806   5.749 -0.5545 -0.2353  0.0120
  174SLPC  H11R19694   6.307  -0.829   5.684  0.2255 -0.8176  1.2262
  174SLPC  H11S19695   6.222  -0.700   5.782 -2.0862  0.2305 -1.2567
  174SLPC  C21219696   6.085  -0.838   5.687 -0.3774 -0.3471  0.0093
  174SLPC  H12R19697   5.997  -0.831   5.753 -1.9597  1.8845 -2.1563
  174SLPC  C21319698   6.064  -0.860   5.557  0.8424  0.1712 -0.1252
  174SLPC  H13R19699   5.959  -0.874   5.528  0.4748  0.4036  1.0121
  174SLPC  C21419700   6.174  -0.870   5.453  0.2039  0.3048 -0.1197
  174SLPC  H14R19701   6.262  -0.810   5.484  0.3514  0.2735 -0.4750
  174SLPC  H14S19702   6.138  -0.818   5.362  0.1563  1.8790  0.7765
  174SLPC  C21519703   6.219  -1.020   5.437  0.4504 -0.5227 -0.4865
  174SLPC  H15R19704   6.129  -1.084   5.426  0.9344 -1.7501  1.8680
  174SLPC  H15S19705   6.264  -1.062   5.530 -0.4592 -2.2185 -0.7840
  174SLPC  C21619706   6.314  -1.051   5.319 -0.0230 -0.2592 -0.1882
  174SLPC  H16R19707   6.403  -0.985   5.330  0.1831 -0.5635 -0.0325
  174SLPC  H16S19708   6.259  -1.021   5.227 -1.7118  1.1959  1.2194
  174SLPC  C21719709   6.353  -1.201   5.315 -0.2559  0.2743  0.2669
  174SLPC  H17R19710   6.256  -1.254   5.319 -2.1720  3.4821  0.2975
  174SLPC  H17S19711   6.404  -1.225   5.411 -0.4596 -2.6779 -0.2828
  174SLPC  C21819712   6.434  -1.233   5.193 -0.1614 -0.4962  0.7848
  174SLPC  H18R19713   6.531  -1.180   5.197 -1.1989  1.5316  0.2380
  174SLPC  H18S19714   6.380  -1.206   5.100 -1.6709 -1.7442  1.2538
  174SLPC  H18T19715   6.456  -1.341   5.180  2.4121 -0.3178  2.7847
  174SLPC   C3319716   5.607  -0.308   6.650  0.8150 -0.4425  0.5033
  174SLPC   H3X19717   5.542  -0.227   6.611 -0.3577 -2.5769 -2.2670
  174SLPC   H3Y19718   5.593  -0.402   6.594 -0.4372 -0.2911  0.5533
  174SLPC   C3419719   5.743  -0.269   6.595  0.0372 -0.0308 -0.1773
  174SLPC   H4X19720   5.816  -0.350   6.618  0.6031 -0.2152 -2.4152
  174SLPC   H4Y19721   5.782  -0.171   6.631  0.6352 -0.2261 -0.2740
  174SLPC   C3519722   5.740  -0.254   6.446  0.5345 -0.3592 -0.5214
  174SLPC   H5X19723   5.845  -0.232   6.416  0.5869 -1.3187 -1.0927
  174SLPC   H5Y19724   5.665  -0.176   6.419 -1.5420 -1.1254  2.5223
  174SLPC   C3619725   5.696  -0.388   6.370 -0.7115 -0.7092  0.0348
  174SLPC   H6X19726   5.594  -0.419   6.401 -0.2077 -1.9687  0.5431
  174SLPC   H6Y19727   5.766  -0.467   6.405 -2.0751 -1.9125  0.1578
  174SLPC   C3719728   5.701  -0.382   6.219  0.0052  0.1161  0.0344
  174SLPC   H7X19729   5.793  -0.322   6.208  1.0267 -1.2608  0.7488
  174SLPC   H7Y19730   5.613  -0.320   6.190 -1.5475 -2.1457 -0.3567
  174SLPC   C3819731   5.716  -0.522   6.159  0.0170 -0.2682 -0.9104
  174SLPC   H8X19732   5.622  -0.577   6.178 -1.3278  2.3892  0.5780
  174SLPC   H8Y19733   5.789  -0.574   6.225  0.2529  3.1379  1.7812
  174SLPC   C3919734   5.748  -0.520   6.009 -0.1807  0.2520  0.9820
  174SLPC   H9X19735   5.855  -0.493   5.998  0.0843 -1.0065  0.1975
  174SLPC   H9Y19736   5.682  -0.450   5.954 -1.8298 -1.4217  0.7128
  174SLPC  C31019737   5.743  -0.649   5.933 -0.2970  0.1612  0.2193
  174SLPC  H10X19738   5.643  -0.696   5.943  0.9498 -2.4303  1.3251
  174SLPC  H10Y19739   5.808  -0.725   5.981 -1.4820 -0.3555  1.0685
  174SLPC  C31119740   5.784  -0.638   5.787  0.4217 -0.7897 -0.4356
  174SLPC  H11X19741   5.784  -0.732   5.728 -1.0501 -0.0218 -1.7250
  174SLPC  H11Y19742   5.888  -0.598   5.782 -0.8150  3.1065  0.9303
  174SLPC  C31219743   5.705  -0.542   5.685  0.8497 -0.0120 -0.1922
  174SLPC  H12X19744   5.732  -0.441   5.722  1.3860 -0.0742 -0.3938
  174SLPC  H12Y19745   5.598  -0.568   5.698  0.8097 -0.1480 -0.7660
  174SLPC  C31319746   5.751  -0.571   5.539  0.4957 -1.0269 -0.2432
  174SLPC  H13X19747   5.855  -0.610   5.534  1.1252  0.5783 -0.4704
  174SLPC  H13Y19748   5.754  -0.474   5.484  2.2869 -0.8694  0.0671
  174SLPC  C31419749   5.646  -0.662   5.480 -0.6449  0.1496  0.5118
  174SLPC  H14X19750   5.545  -0.617   5.491 -0.2682  0.8227  1.3228
  174SLPC  H14Y19751   5.641  -0.758   5.536  0.3872  0.4362  1.1139
  174SLPC  C31519752   5.670  -0.697   5.332 -0.7113  0.7905 -0.1733
  174SLPC  H15X19753   5.761  -0.760   5.332 -0.5633  0.9952 -0.7649
  174SLPC  H15Y19754   5.697  -0.602   5.281  1.5822  0.5401  0.4604
  174SLPC  C31619755   5.550  -0.765   5.254  0.0380 -0.0994  0.1167
  174SLPC  H16X19756   5.582  -0.796   5.152 -4.2873 -4.2913 -0.3013
  174SLPC  H16Y19757   5.469  -0.691   5.236 -1.7881 -1.3232  2.6770
  174SLPC  C31719758   5.488  -0.881   5.325  0.1253  0.6253  0.3014
  174SLPC  H17X19759   5.433  -0.853   5.417 -0.0964  0.5794  0.1845
  174SLPC  H17Y19760   5.575  -0.941   5.361  0.8086  1.3994 -0.0351
  174SLPC  C31819761   5.408  -0.980   5.237 -0.3751  0.4555  0.1538
  174SLPC  H18X19762   5.475  -1.006   5.153  1.4034 -2.3111  2.2380
  174SLPC  H18Y19763   5.317  -0.928   5.200  1.9421  3.1422 -2.1876
  174SLPC  H18Z19764   5.375  -1.070   5.295  0.8710 -0.6955 -0.8587
  175SLPC     N19765   5.781   2.338   7.274 -1.0038 -0.0462 -0.6250
  175SLPC   C1319766   5.746   2.314   7.414 -0.2780  0.3642 -0.2719
  175SLPC  H13A19767   5.771   2.394   7.483 -0.8532  0.4866 -0.1996
  175SLPC  H13B19768   5.640   2.295   7.420  0.0379 -1.0942  2.9037
  175SLPC  H13C19769   5.805   2.235   7.458  1.0219  1.3410 -0.1971
  175SLPC   C1419770   5.775   2.205   7.209  0.2356 -0.1327 -0.6911
  175SLPC  H14A19771   5.849   2.139   7.252 -1.0965 -0.1565  1.7877
  175SLPC  H14B19772   5.685   2.153   7.240  0.4467  0.5401  1.1655
  175SLPC  H14C19773   5.768   2.215   7.102  0.3278 -1.4236 -0.8271
  175SLPC   C1519774   5.922   2.394   7.283 -0.9458 -0.7443 -0.1378
  175SLPC  H15A19775   5.956   2.406   7.181 -0.9659  0.4962 -0.0172
  175SLPC  H15B19776   5.919   2.491   7.329 -0.5058 -1.6028  1.7772
  175SLPC  H15C19777   5.992   2.340   7.344 -1.5487 -1.2181  0.1462
  175SLPC   C1219778   5.686   2.426   7.204 -0.3216  0.2330  0.2937
  175SLPC  H12A19779   5.690   2.524   7.250 -3.5509  0.5978  0.0550
  175SLPC  H12B19780   5.585   2.390   7.215 -0.8394  1.6589  0.5321
  175SLPC   C1119781   5.709   2.450   7.050 -0.2042 -0.1949 -0.0791
  175SLPC  H11A19782   5.625   2.515   7.018  0.5764  1.2431  0.6954
  175SLPC  H11B19783   5.686   2.353   7.001  0.8317 -0.2417 -0.4825
  175SLPC     P19784   5.848   2.658   7.044  0.2319  0.0242 -0.7363
  175SLPC   O1319785   5.748   2.692   7.150  0.3506 -0.4606 -0.4183
  175SLPC   O1419786   5.990   2.685   7.083 -0.2374 -0.1133  0.6343
  175SLPC   O1219787   5.832   2.499   7.004 -0.1846 -0.0617 -0.6808
  175SLPC   O1119788   5.807   2.736   6.910 -0.2760  0.4050  0.1423
  175SLPC    C119789   5.670   2.770   6.898 -0.8855 -0.1161 -0.3219
  175SLPC    HA19790   5.600   2.685   6.882  0.4759 -1.1658 -0.8021
  175SLPC    HB19791   5.633   2.827   6.986 -1.3296  2.0238 -1.8223
  175SLPC    C219792   5.649   2.862   6.776 -0.1037 -0.2537  0.4835
  175SLPC    HS19793   5.540   2.878   6.763  0.1132 -0.4627 -1.8957
  175SLPC   O2119794   5.697   2.821   6.654  0.0390  0.1119 -0.8039
  175SLPC   C2119795   5.620   2.738   6.591 -0.0053 -0.5184 -0.7634
  175SLPC   O2219796   5.514   2.694   6.633  0.0200 -0.3866 -0.6573
  175SLPC   C2219797   5.670   2.730   6.447  0.1665  0.2313  0.3875
  175SLPC   H2R19798   5.700   2.831   6.412 -0.2865 -0.3085 -1.7130
  175SLPC   H2S19799   5.753   2.655   6.445 -0.2935 -0.4092 -4.1185
  175SLPC    C319800   5.706   3.001   6.808  0.0432 -0.4519  0.8743
  175SLPC    HX19801   5.814   2.979   6.822  0.5448  2.0750  1.3639
  175SLPC    HY19802   5.665   3.036   6.906 -0.6122 -0.6064  0.6632
  175SLPC   O3119803   5.684   3.098   6.703  0.2315 -0.4787 -0.2137
  175SLPC   C3119804   5.752   3.212   6.737 -0.1273 -0.1680  0.5639
  175SLPC   O3219805   5.820   3.225   6.834 -0.1821 -0.0825  0.6951
  175SLPC   C3219806   5.733   3.309   6.624  0.2136  0.0798  0.4810
  175SLPC   H2X19807   5.717   3.254   6.529 -1.6565  0.3349  0.6087
  175SLPC   H2Y19808   5.829   3.361   6.602  0.2873 -0.3998 -0.3643
  175SLPC   C2319809   5.562   2.679   6.354 -0.6437  0.6982 -0.0104
  175SLPC   H3R19810   5.485   2.758   6.339 -0.8674  0.8093  1.5563
  175SLPC   H3S19811   5.511   2.588   6.394  1.4679 -1.0836 -1.1469
  175SLPC   C2419812   5.626   2.646   6.218  0.0370 -0.1312 -0.3253
  175SLPC   H4R19813   5.699   2.563   6.222  0.1659 -0.2342 -2.9552
  175SLPC   H4S19814   5.675   2.737   6.179 -0.5003 -0.0012 -0.7055
  175SLPC   C2519815   5.515   2.602   6.127  0.2200  0.4083  0.2563
  175SLPC   H5R19816   5.439   2.683   6.117  1.0957  1.7789  3.3000
  175SLPC   H5S19817   5.465   2.519   6.182 -0.0779  0.6010  0.2814
  175SLPC   C2619818   5.564   2.562   5.987  0.8811  0.1064 -1.0073
  175SLPC   H6R19819   5.655   2.625   5.973 -0.1851  1.6187 -1.3898
  175SLPC   H6S19820   5.488   2.603   5.917  0.0460 -1.1845 -0.8761
  175SLPC   C2719821   5.577   2.410   5.967 -0.8862  0.0144 -0.0085
  175SLPC   H7R19822   5.492   2.361   6.019  0.3970 -0.9651  1.2553
  175SLPC   H7S19823   5.659   2.380   6.036 -0.3236  1.3782 -0.0580
  175SLPC   C2819824   5.586   2.355   5.822 -0.0005 -0.7267 -0.4934
  175SLPC   H8R19825   5.603   2.246   5.829  1.0835 -0.5167  0.3716
  175SLPC   H8S19826   5.676   2.408   5.782 -0.5771  0.1424 -0.6705
  175SLPC   C2919827   5.456   2.383   5.747  0.4775 -0.3739 -0.1262
  175SLPC   H9R19828   5.361   2.386   5.803  0.2605  0.7080 -0.5169
  175SLPC  C21019829   5.445   2.412   5.618  0.3698 -0.3567  0.4497
  175SLPC  H10R19830   5.346   2.436   5.578  1.0031 -0.3586 -1.1911
  175SLPC  C21119831   5.562   2.392   5.522  0.3963  0.0841  0.0058
  175SLPC  H11R19832   5.519   2.369   5.423  0.8566  0.3485 -0.2568
  175SLPC  H11S19833   5.633   2.316   5.561 -1.8428 -2.7212 -1.1102
  175SLPC  C21219834   5.637   2.527   5.518  0.6047  0.7953 -0.3223
  175SLPC  H12R19835   5.680   2.561   5.614 -0.5335  2.3674 -0.3412
  175SLPC  C21319836   5.662   2.595   5.407  0.8223  0.2076 -0.2022
  175SLPC  H13R19837   5.733   2.679   5.408  0.8259  0.2066 -0.3317
  175SLPC  C21419838   5.611   2.567   5.268 -0.0893 -0.3506  0.2838
  175SLPC  H14R19839   5.629   2.462   5.237  0.1101 -0.1944 -0.1364
  175SLPC  H14S19840   5.673   2.622   5.194 -1.2902  1.0578  0.3052
  175SLPC  C21519841   5.461   2.604   5.238  0.5257  0.1186 -0.2870
  175SLPC  H15R19842   5.448   2.707   5.276 -1.9827 -0.6418  1.1262
  175SLPC  H15S19843   5.396   2.540   5.302  1.6854 -1.6347 -0.7805
  175SLPC  C21619844   5.423   2.592   5.091  0.2546 -0.2716  0.1479
  175SLPC  H16R19845   5.456   2.492   5.057 -0.2544 -0.3770 -0.0410
  175SLPC  H16S19846   5.478   2.662   5.024  0.1030 -2.6199 -2.5699
  175SLPC  C21719847   5.272   2.605   5.081  0.2417 -0.0346  0.2699
  175SLPC  H17R19848   5.225   2.516   5.128  0.6611 -1.4416 -1.8104
  175SLPC  H17S19849   5.248   2.593   4.973 -1.8167  0.8036  0.5945
  175SLPC  C21819850   5.203   2.732   5.142  0.0320 -0.0960  0.2747
  175SLPC  H18R19851   5.244   2.753   5.243 -2.9169 -1.2805  1.8161
  175SLPC  H18S19852   5.093   2.733   5.153  0.0901  3.1528  1.6095
  175SLPC  H18T19853   5.228   2.823   5.082 -0.3782 -1.2376 -1.7066
  175SLPC   C3319854   5.620   3.413   6.646 -0.7942 -1.0328 -0.2378
  175SLPC   H3X19855   5.642   3.466   6.742 -0.1037 -0.0490 -0.9264
  175SLPC   H3Y19856   5.524   3.361   6.662 -1.5863  0.3778 -0.1867
  175SLPC   C3419857   5.612   3.502   6.523  0.0969 -0.1833 -0.2631
  175SLPC   H4X19858   5.710   3.549   6.499  0.7926 -0.1624  2.2867
  175SLPC   H4Y19859   5.540   3.582   6.551 -1.8661 -1.4238 -1.5194
  175SLPC   C3519860   5.566   3.423   6.399  0.2223 -0.5988 -0.0009
  175SLPC   H5X19861   5.465   3.377   6.413 -0.3412 -0.0824 -2.0650
  175SLPC   H5Y19862   5.641   3.343   6.389  1.4171 -0.1609  3.7624
  175SLPC   C3619863   5.579   3.494   6.265 -0.6757 -0.3600 -0.8979
  175SLPC   H6X19864   5.685   3.526   6.267 -0.0938 -2.1763  0.5992
  175SLPC   H6Y19865   5.511   3.582   6.268  0.4583  0.5332 -0.8562
  175SLPC   C3719866   5.556   3.411   6.135  0.7643  0.0065 -0.3281
  175SLPC   H7X19867   5.447   3.390   6.147  0.4251 -0.3378 -3.3537
  175SLPC   H7Y19868   5.606   3.312   6.141  0.9646  0.0908 -0.5950
  175SLPC   C3819869   5.595   3.493   6.005 -0.0775 -0.0170 -0.4505
  175SLPC   H8X19870   5.706   3.502   6.002 -0.2526  4.3437 -1.3804
  175SLPC   H8Y19871   5.553   3.595   6.023 -4.1673 -1.4973 -0.5343
  175SLPC   C3919872   5.550   3.433   5.878  0.8550  0.2914  0.5924
  175SLPC   H9X19873   5.445   3.469   5.877  1.1477  1.1512 -0.3101
  175SLPC   H9Y19874   5.563   3.322   5.872 -0.9466  0.0173  0.9956
  175SLPC  C31019875   5.624   3.504   5.759 -0.0393 -0.2033 -0.0080
  175SLPC  H10X19876   5.734   3.490   5.772  0.1182  1.6722  1.0568
  175SLPC  H10Y19877   5.596   3.611   5.763  0.8711  0.1188 -1.5664
  175SLPC  C31119878   5.585   3.455   5.620  0.8646  0.3557 -0.0986
  175SLPC  H11X19879   5.474   3.452   5.614  0.9657 -0.7984 -2.4817
  175SLPC  H11Y19880   5.620   3.350   5.610  0.4424  0.0450  1.4144
  175SLPC  C31219881   5.646   3.529   5.500  0.0539 -0.4484  0.5887
  175SLPC  H12X19882   5.740   3.570   5.541  1.3153 -3.8040  1.3719
  175SLPC  H12Y19883   5.581   3.608   5.457 -2.2884 -2.2385  0.6302
  175SLPC  C31319884   5.676   3.434   5.380 -0.6109 -0.1441  0.3044
  175SLPC  H13X19885   5.597   3.367   5.341  1.2863 -1.9702 -0.5999
  175SLPC  H13Y19886   5.755   3.365   5.416 -0.0388 -0.6622 -1.8018
  175SLPC  C31419887   5.729   3.508   5.256 -0.0608  0.0938 -0.4585
  175SLPC  H14X19888   5.825   3.561   5.274 -0.2797 -0.4661  3.1350
  175SLPC  H14Y19889   5.656   3.587   5.230 -1.1400 -1.4788 -2.5514
  175SLPC  C31519890   5.727   3.425   5.126  0.5920 -0.4021  0.5705
  175SLPC  H15X19891   5.624   3.389   5.109  0.6623 -0.5298  0.4152
  175SLPC  H15Y19892   5.794   3.338   5.146 -0.9630 -1.7229  0.2434
  175SLPC  C31619893   5.776   3.501   5.003  0.0334 -0.4631  0.3328
  175SLPC  H16X19894   5.886   3.506   4.997  0.0253 -1.5151 -1.6632
  175SLPC  H16Y19895   5.734   3.603   5.015  2.1668  0.6218 -0.9286
  175SLPC  C31719896   5.720   3.445   4.866 -0.1885  0.0325  0.3414
  175SLPC  H17X19897   5.610   3.436   4.881 -0.9018  4.6293 -0.5984
  175SLPC  H17Y19898   5.780   3.357   4.834 -1.3481 -1.3295  1.7912
  175SLPC  C31819899   5.738   3.550   4.758 -0.3817  0.4016 -0.1317
  175SLPC  H18X19900   5.843   3.587   4.756  0.5111 -1.8269  1.2855
  175SLPC  H18Y19901   5.675   3.639   4.773  1.1507  1.3722  0.8884
  175SLPC  H18Z19902   5.712   3.518   4.655 -0.0677 -0.1181 -0.0566
  176SLPC     N19903   0.581   6.055   7.418  0.3346  0.0105 -0.0790
  176SLPC   C1319904   0.520   6.001   7.548  0.5395  0.0877 -0.1098
  176SLPC  H13A19905   0.414   5.982   7.539  0.5434  0.4259 -1.0142
  176SLPC  H13B19906   0.580   5.914   7.571  0.5187 -0.4008 -1.7861
  176SLPC  H13C19907   0.530   6.076   7.625  1.3606 -2.0085  1.9584
  176SLPC   C1419908   0.712   6.110   7.449 -0.0856 -0.4691  0.5007
  176SLPC  H14A19909   0.703   6.163   7.543  0.0004 -0.3649  0.4510
  176SLPC  H14B19910   0.784   6.032   7.469  0.1007 -0.5975 -0.5760
  176SLPC  H14C19911   0.771   6.167   7.378  0.5860 -2.1871 -0.3693
  176SLPC   C1519912   0.503   6.171   7.381 -0.5667 -0.3298  0.3029
  176SLPC  H15A19913   0.563   6.236   7.319  0.7459 -0.7568  1.0912
  176SLPC  H15B19914   0.415   6.131   7.331 -0.0655 -2.8946  1.2963
  176SLPC  H15C19915   0.476   6.236   7.463  2.2172  2.1555 -0.5837
  176SLPC   C1219916   0.584   5.952   7.311  0.9256 -0.0834  0.2500
  176SLPC  H12A19917   0.493   5.893   7.310 -0.2946  1.7299 -0.7438
  176SLPC  H12B19918   0.660   5.881   7.341 -0.8357 -1.8270  0.8021
  176SLPC   C1119919   0.607   5.990   7.167  0.2024  0.0286 -0.1829
  176SLPC  H11A19920   0.548   6.080   7.140  0.8648 -0.0157 -1.8861
  176SLPC  H11B19921   0.578   5.903   7.104 -0.1293  0.7233 -1.0005
  176SLPC     P19922   0.849   5.909   7.133 -0.2583 -0.3354  0.0990
  176SLPC   O1319923   0.986   5.954   7.132  0.0980 -0.5658 -0.0608
  176SLPC   O1419924   0.817   5.818   7.239  0.0483 -0.5223 -0.0318
  176SLPC   O1219925   0.748   6.029   7.150  0.1569  0.2441  0.0661
  176SLPC   O1119926   0.806   5.843   6.994  0.3677 -0.1465 -0.3981
  176SLPC    C119927   0.792   5.943   6.883  0.8270  0.2171 -0.8947
  176SLPC    HA19928   0.689   5.923   6.844  0.4119  3.1214 -1.5583
  176SLPC    HB19929   0.797   6.048   6.918 -0.2653 -0.6121  2.0141
  176SLPC    C219930   0.883   5.917   6.766  0.2749  0.4338  0.0624
  176SLPC    HS19931   0.827   5.950   6.675 -2.5954 -2.2987  0.6641
  176SLPC   O2119932   0.919   5.774   6.758  0.7173 -0.4385 -0.1211
  176SLPC   C2119933   0.820   5.696   6.711  0.5012  0.1588  0.2219
  176SLPC   O2219934   0.704   5.734   6.693 -0.5960  0.5917  0.2373
  176SLPC   C2219935   0.872   5.555   6.688  0.1767 -0.1036  0.2132
  176SLPC   H2R19936   0.978   5.561   6.720  0.3040  0.7151 -0.3316
  176SLPC   H2S19937   0.817   5.481   6.749  0.5406 -0.3121  0.2915
  176SLPC    C319938   1.019   5.996   6.770 -0.1507  0.1157  0.9846
  176SLPC    HX19939   1.092   5.952   6.840  0.8305 -0.1722 -0.1845
  176SLPC    HY19940   0.995   6.099   6.804 -0.5247  1.2483 -2.3602
  176SLPC   O3119941   1.074   6.019   6.638 -0.5545 -0.0663  0.2969
  176SLPC   C3119942   1.146   5.915   6.586 -0.1508  0.2413 -0.3042
  176SLPC   O3219943   1.184   5.818   6.641 -0.4209  0.0963 -0.3570
  176SLPC   C3219944   1.161   5.948   6.437 -0.2551 -0.0657 -0.7917
  176SLPC   H2X19945   1.211   5.863   6.388 -0.9215 -0.2942 -1.0898
  176SLPC   H2Y19946   1.235   6.032   6.434  1.4701 -1.4586  0.7322
  176SLPC   C2319947   0.871   5.509   6.535  0.1824 -0.5242 -0.0869
  176SLPC   H3R19948   0.765   5.515   6.501 -0.6437 -0.9005  2.1969
  176SLPC   H3S19949   0.900   5.402   6.530 -0.1067 -0.6125  0.0581
  176SLPC   C2419950   0.977   5.590   6.450  0.2370  0.2002 -0.0093
  176SLPC   H4R19951   1.076   5.593   6.501 -0.2521 -0.8632  1.0757
  176SLPC   H4S19952   0.944   5.694   6.429  1.1476  0.8484  1.5638
  176SLPC   C2519953   1.009   5.511   6.318  0.1793 -0.4348 -0.1148
  176SLPC   H5R19954   1.073   5.421   6.331  1.2191 -0.4224 -3.8922
  176SLPC   H5S19955   1.067   5.574   6.247 -0.1322 -1.8206 -1.6601
  176SLPC   C2619956   0.886   5.458   6.244 -0.1277 -0.4285  0.2507
  176SLPC   H6R19957   0.810   5.539   6.256  1.3553  0.8259  1.6458
  176SLPC   H6S19958   0.855   5.365   6.296 -0.6290 -0.5400 -0.2386
  176SLPC   C2719959   0.912   5.413   6.099  0.5569  0.1543 -0.1411
  176SLPC   H7R19960   0.994   5.340   6.109  1.1746  0.6104 -1.5883
  176SLPC   H7S19961   0.940   5.499   6.034 -2.7924  2.2215  0.8443
  176SLPC   C2819962   0.804   5.331   6.028 -0.4420  0.2236  0.0194
  176SLPC   H8R19963   0.749   5.274   6.106  0.6174 -0.5594  0.2100
  176SLPC   H8S19964   0.845   5.269   5.945  0.0905  2.2176 -1.2832
  176SLPC   C2919965   0.692   5.416   5.965 -0.6025  1.1061  0.1922
  176SLPC   H9R19966   0.628   5.473   6.034 -0.0330  0.1902  1.5425
  176SLPC  C21019967   0.664   5.433   5.833  0.5671  0.4017  0.1318
  176SLPC  H10R19968   0.576   5.493   5.805 -1.4318 -1.6449  1.6236
  176SLPC  C21119969   0.738   5.360   5.726 -0.3497 -0.8827  0.0982
  176SLPC  H11R19970   0.743   5.250   5.742  0.8591 -0.8425  0.1368
  176SLPC  H11S19971   0.840   5.403   5.716 -1.9769  3.3617 -0.2643
  176SLPC  C21219972   0.664   5.377   5.594  0.6041  0.6559  0.2597
  176SLPC  H12R19973   0.572   5.317   5.587  0.2416  1.2682 -0.2707
  176SLPC  C21319974   0.710   5.429   5.474  0.2046  0.1613 -0.7115
  176SLPC  H13R19975   0.640   5.419   5.390  0.4149  1.3184 -1.0497
  176SLPC  C21419976   0.838   5.521   5.459 -0.2541  1.0045  0.4963
  176SLPC  H14R19977   0.869   5.555   5.559 -2.5242  3.7979  0.3688
  176SLPC  H14S19978   0.810   5.617   5.411  0.0526  2.0291  2.3090
  176SLPC  C21519979   0.953   5.467   5.370  0.2378  0.0534 -0.2514
  176SLPC  H15R19980   0.982   5.363   5.398 -0.8212 -0.7201 -1.8936
  176SLPC  H15S19981   1.045   5.524   5.395  0.0762 -0.5602  1.9464
  176SLPC  C21619982   0.917   5.459   5.225 -0.1138  0.0382  0.7868
  176SLPC  H16R19983   0.892   5.560   5.186 -1.1565 -0.6911 -0.5161
  176SLPC  H16S19984   0.819   5.408   5.212 -0.1188  0.1441  0.3987
  176SLPC  C21719985   1.012   5.394   5.124  0.1334  0.0282 -0.1129
  176SLPC  H17R19986   1.013   5.289   5.160 -3.7674 -0.8145 -1.9476
  176SLPC  H17S19987   1.115   5.434   5.132  1.6354 -3.3108 -0.7784
  176SLPC  C21819988   0.969   5.384   4.975  0.1245 -0.2217 -0.0112
  176SLPC  H18R19989   0.959   5.490   4.943  4.1966  0.3865  0.2196
  176SLPC  H18S19990   0.873   5.327   4.978 -0.1732  0.2959  0.7005
  176SLPC  H18T19991   1.059   5.338   4.929 -1.5526 -2.6811 -1.0222
  176SLPC   C3319992   1.026   5.974   6.373 -0.8441  0.8356  0.2988
  176SLPC   H3X19993   0.990   6.071   6.414 -0.7833  2.1146 -2.4329
  176SLPC   H3Y19994   0.953   5.894   6.395 -0.3879  0.2705 -0.1904
  176SLPC   C3419995   1.045   6.003   6.224  0.2554  0.0695 -0.0006
  176SLPC   H4X19996   1.145   6.049   6.220  0.7194 -1.0191 -2.1552
  176SLPC   H4Y19997   0.974   6.075   6.178  1.4439  0.4718 -1.2509
  176SLPC   C3519998   1.057   5.885   6.121  0.0010  0.8959  0.1022
  176SLPC   H5X19999   0.963   5.825   6.113  0.3498  0.4032 -0.3090
  176SLPC   H5Y20000   1.133   5.811   6.155 -0.8784 -0.0679  0.0234
  176SLPC   C3620001   1.077   5.929   5.975 -0.4960 -0.4776  0.2859
  176SLPC   H6X20002   1.020   6.024   5.971  2.5980  1.4759 -1.6072
  176SLPC   H6Y20003   1.041   5.851   5.904  0.5537 -0.0772 -0.7353
  176SLPC   C3720004   1.226   5.948   5.944  0.4238  0.0236  0.0449
  176SLPC   H7X20005   1.278   5.852   5.967 -2.0120 -1.6632 -1.0418
  176SLPC   H7Y20006   1.255   6.031   6.012  0.6773  1.0569 -1.2839
  176SLPC   C3820007   1.249   5.980   5.802 -0.0469 -0.3803  0.9412
  176SLPC   H8X20008   1.340   6.042   5.791 -1.4038  1.5139 -0.3083
  176SLPC   H8Y20009   1.167   6.047   5.769 -0.2243 -0.3444  1.4419
  176SLPC   C3920010   1.258   5.858   5.716 -0.3675 -0.7388 -0.0164
  176SLPC   H9X20011   1.165   5.796   5.721 -1.0415  0.2134 -0.4663
  176SLPC   H9Y20012   1.344   5.793   5.743  0.3439 -0.0117 -0.4754
  176SLPC  C31020013   1.282   5.883   5.569 -0.2629 -0.0526  0.7738
  176SLPC  H10X20014   1.360   5.961   5.554  1.2643 -1.3010  1.8461
  176SLPC  H10Y20015   1.189   5.919   5.521  1.1958  3.4783  0.2837
  176SLPC  C31120016   1.328   5.764   5.487 -0.5302 -0.5722 -0.4444
  176SLPC  H11X20017   1.249   5.686   5.496 -0.5031 -0.3608  2.2343
  176SLPC  H11Y20018   1.420   5.722   5.534  0.0009  1.3682  0.3328
  176SLPC  C31220019   1.348   5.793   5.342  0.7083  0.3154  0.5992
  176SLPC  H12X20020   1.366   5.903   5.337 -3.0814  1.0196 -1.7276
  176SLPC  H12Y20021   1.251   5.775   5.291  0.2102  2.0316  0.8712
  176SLPC  C31320022   1.467   5.715   5.291 -0.1542  0.3376  0.1405
  176SLPC  H13X20023   1.459   5.604   5.286 -0.0486  0.3886 -2.7022
  176SLPC  H13Y20024   1.550   5.743   5.360  0.8147  1.5933 -1.4536
  176SLPC  C31420025   1.516   5.760   5.152 -0.3325  0.1817 -0.7017
  176SLPC  H14X20026   1.494   5.868   5.138  0.1715 -0.0328 -4.1249
  176SLPC  H14Y20027   1.464   5.707   5.069 -1.6612  0.4116 -0.0339
  176SLPC  C31520028   1.665   5.731   5.127  1.2833 -0.9119 -0.5974
  176SLPC  H15X20029   1.727   5.808   5.179  1.4685 -2.1085  1.0248
  176SLPC  H15Y20030   1.682   5.740   5.018 -0.5085  2.2139 -0.7532
  176SLPC  C31620031   1.733   5.599   5.166  0.2892 -0.0738 -0.4279
  176SLPC  H16X20032   1.688   5.531   5.091  2.9123  0.8129 -2.9832
  176SLPC  H16Y20033   1.715   5.571   5.272  0.8025  0.7869 -0.1030
  176SLPC  C31720034   1.884   5.601   5.136  0.0790  0.4996  0.3755
  176SLPC  H17X20035   1.910   5.639   5.035  1.0753 -1.7290 -0.2749
  176SLPC  H17Y20036   1.922   5.497   5.147  0.7320  0.7497  0.5138
  176SLPC  C31820037   1.955   5.696   5.234 -0.8049  0.0259 -0.3562
  176SLPC  H18X20038   1.962   5.645   5.332  1.1134 -1.4257 -1.1852
  176SLPC  H18Y20039   1.913   5.797   5.256 -0.9928  0.0722 -0.8986
  176SLPC  H18Z20040   2.057   5.710   5.193  0.2802 -0.2026  2.1234
  177SLPC     N20041   3.054   1.353   7.420  0.9660 -0.3842  0.7596
  177SLPC   C1320042   3.052   1.488   7.366 -0.5771  0.5418  0.1573
  177SLPC  H13A20043   3.015   1.562   7.436 -0.7375  1.2992 -0.6918
  177SLPC  H13B20044   3.145   1.514   7.319 -1.1918 -3.8628 -4.3773
  177SLPC  H13C20045   2.981   1.510   7.287  0.2846  0.6152 -0.6193
  177SLPC   C1420046   2.917   1.313   7.465 -0.4363  0.6632  0.0135
  177SLPC  H14A20047   2.886   1.382   7.543  2.7518 -1.0378  3.0710
  177SLPC  H14B20048   2.840   1.307   7.389  0.6393  1.5611 -1.1812
  177SLPC  H14C20049   2.921   1.218   7.515 -1.9269  0.8538  0.5712
  177SLPC   C1520050   3.147   1.353   7.535 -0.6087 -0.0869  0.3935
  177SLPC  H15A20051   3.124   1.427   7.610 -0.9651 -0.9381  1.1417
  177SLPC  H15B20052   3.141   1.263   7.594 -0.5052 -0.7246 -0.5410
  177SLPC  H15C20053   3.250   1.368   7.508 -0.7013  0.0519  0.1088
  177SLPC   C1220054   3.107   1.253   7.319 -0.3116 -0.0201  0.0466
  177SLPC  H12A20055   3.122   1.153   7.357  0.0577 -0.5113 -1.3487
  177SLPC  H12B20056   3.207   1.292   7.300 -0.0034 -0.8246 -0.0116
  177SLPC   C1120057   3.029   1.235   7.186  0.0037  0.3419 -0.0560
  177SLPC  H11A20058   3.074   1.157   7.122 -0.3428  0.3682 -0.3319
  177SLPC  H11B20059   3.032   1.327   7.124 -1.8073 -1.9674 -3.9071
  177SLPC     P20060   2.778   1.243   7.110  0.2467 -0.0348 -0.3636
  177SLPC   O1320061   2.646   1.182   7.134 -0.5570 -0.1187 -0.7453
  177SLPC   O1420062   2.781   1.387   7.113  0.3423 -0.0234 -0.0645
  177SLPC   O1220063   2.894   1.200   7.207 -0.4151 -0.1331  0.3042
  177SLPC   O1120064   2.826   1.200   6.966  0.4502  0.2278  0.0288
  177SLPC    C120065   2.861   1.064   6.937 -0.0102  0.9533  0.7680
  177SLPC    HA20066   2.967   1.044   6.961  0.4870  1.9573 -0.4913
  177SLPC    HB20067   2.792   0.991   6.986  0.8555  1.0910  2.2436
  177SLPC    C220068   2.858   1.027   6.784 -0.0358 -0.3817 -0.5801
  177SLPC    HS20069   2.882   0.918   6.779 -0.2759 -0.4637 -0.0254
  177SLPC   O2120070   2.959   1.106   6.720 -0.0912 -0.2261  0.4477
  177SLPC   C2120071   2.980   1.075   6.593  0.7202 -0.4687  0.0692
  177SLPC   O2220072   2.958   0.963   6.546  0.6353 -0.1875  0.3783
  177SLPC   C2220073   3.032   1.194   6.512  0.6273  0.0598 -0.1120
  177SLPC   H2R20074   2.969   1.282   6.538 -0.0984 -0.6352  0.5245
  177SLPC   H2S20075   3.136   1.224   6.538 -0.4854  3.1834  1.1993
  177SLPC    C320076   2.718   1.056   6.730 -0.6225 -0.1645 -0.5835
  177SLPC    HX20077   2.719   1.166   6.719  1.6997 -0.0059  0.6594
  177SLPC    HY20078   2.637   1.019   6.796 -1.1848  0.7394 -0.7521
  177SLPC   O3120079   2.700   1.003   6.595 -0.4456  0.1587 -0.1949
  177SLPC   C3120080   2.674   0.871   6.592  0.7200 -0.3748 -0.8040
  177SLPC   O3220081   2.672   0.805   6.694 -0.8379  0.1541 -0.5730
  177SLPC   C3220082   2.669   0.822   6.444  0.5418  0.4208 -0.3525
  177SLPC   H2X20083   2.573   0.766   6.435  1.0939 -0.5288 -0.4506
  177SLPC   H2Y20084   2.748   0.745   6.435 -1.4352 -1.7871  0.2623
  177SLPC   C2320085   3.011   1.163   6.366  0.0883 -0.0780  1.3098
  177SLPC   H3R20086   2.908   1.135   6.337  0.4013 -1.6570  1.5923
  177SLPC   H3S20087   3.073   1.077   6.331  0.4556  1.3467 -1.8196
  177SLPC   C2420088   3.048   1.281   6.275  0.4222  0.2300  0.1082
  177SLPC   H4R20089   3.153   1.304   6.303  0.9542  0.6110 -2.0635
  177SLPC   H4S20090   2.986   1.364   6.316 -0.9843  0.3022 -2.0133
  177SLPC   C2520091   3.039   1.240   6.127 -0.2361 -0.4545  0.1514
  177SLPC   H5R20092   2.952   1.173   6.110 -0.4803 -0.3025  0.7855
  177SLPC   H5S20093   3.119   1.167   6.101 -0.3152 -1.5065  2.5346
  177SLPC   C2620094   3.028   1.358   6.032  0.0285 -0.5530  0.1144
  177SLPC   H6R20095   3.113   1.429   6.042  1.2901 -2.1114  0.9249
  177SLPC   H6S20096   2.939   1.421   6.054 -0.3533 -1.0026 -0.1149
  177SLPC   C2720097   3.036   1.308   5.885 -0.0933 -0.3305 -0.0830
  177SLPC   H7R20098   2.942   1.253   5.864 -1.0057  1.5336 -1.0834
  177SLPC   H7S20099   3.110   1.225   5.887  1.1232  0.7244  1.4333
  177SLPC   C2820100   3.059   1.421   5.785 -0.0633 -1.3996 -0.2002
  177SLPC   H8R20101   3.148   1.479   5.817 -1.9570  2.3426 -1.1235
  177SLPC   H8S20102   2.978   1.496   5.797  1.3469 -0.0429  1.5028
  177SLPC   C2920103   3.083   1.377   5.640  0.2176 -0.2100 -1.0330
  177SLPC   H9R20104   3.164   1.304   5.629 -1.9657 -2.6234 -2.0728
  177SLPC  C21020105   3.005   1.400   5.532 -0.5038  0.1600 -0.1226
  177SLPC  H10R20106   3.023   1.347   5.437 -0.9656  1.4505 -0.9465
  177SLPC  C21120107   2.896   1.492   5.535 -0.0280 -0.3474 -0.2893
  177SLPC  H11R20108   2.894   1.559   5.624 -1.8372  0.6313 -1.0208
  177SLPC  H11S20109   2.801   1.434   5.532  0.1190 -0.5486 -1.5972
  177SLPC  C21220110   2.910   1.610   5.434  0.3323 -0.1580  0.9559
  177SLPC  H12R20111   2.970   1.691   5.477  1.5639 -1.0942  1.0405
  177SLPC  C21320112   2.856   1.620   5.312  0.0569 -0.1058  0.3123
  177SLPC  H13R20113   2.885   1.707   5.252  1.5822  0.5733  1.9318
  177SLPC  C21420114   2.777   1.512   5.240  0.1578  0.2294  0.4939
  177SLPC  H14R20115   2.779   1.426   5.310  2.2638  0.3682  0.6781
  177SLPC  H14S20116   2.827   1.481   5.146 -0.8796 -0.2095  0.0696
  177SLPC  C21520117   2.632   1.541   5.188 -0.8453  0.2468 -0.4498
  177SLPC  H15R20118   2.577   1.598   5.266 -0.0548  0.5110 -0.0723
  177SLPC  H15S20119   2.586   1.439   5.187  0.2428 -0.2502 -1.1271
  177SLPC  C21620120   2.611   1.611   5.057  0.6719 -0.5275  0.3079
  177SLPC  H16R20121   2.641   1.545   4.973 -0.1684 -1.1835  0.5199
  177SLPC  H16S20122   2.651   1.715   5.051 -0.3667 -0.1620 -0.6871
  177SLPC  C21720123   2.462   1.607   5.033  1.1814  0.4767  0.6730
  177SLPC  H17R20124   2.402   1.644   5.119  0.7664 -0.1731  0.6702
  177SLPC  H17S20125   2.430   1.503   5.011  1.5660  0.6542 -0.8119
  177SLPC  C21820126   2.424   1.684   4.905  0.5512  0.2029  0.1017
  177SLPC  H18R20127   2.313   1.695   4.899  0.4504 -1.3981 -1.8574
  177SLPC  H18S20128   2.465   1.624   4.822 -0.5946  1.4759 -1.4630
  177SLPC  H18T20129   2.472   1.784   4.898  1.5988 -0.3412 -0.6917
  177SLPC   C3320130   2.694   0.935   6.343  0.5588  0.0351 -0.3496
  177SLPC   H3X20131   2.800   0.964   6.359 -0.2641  1.7753  2.8018
  177SLPC   H3Y20132   2.628   1.020   6.369  0.3031 -0.7281  1.7016
  177SLPC   C3420133   2.676   0.883   6.206 -0.3430 -0.3173 -0.0734
  177SLPC   H4X20134   2.574   0.838   6.199 -0.0252 -0.9896 -0.4415
  177SLPC   H4Y20135   2.752   0.806   6.181  0.7891 -0.3842  3.0874
  177SLPC   C3520136   2.672   1.008   6.116 -1.3669 -0.3157  0.2674
  177SLPC   H5X20137   2.775   1.046   6.098 -1.3272 -0.8199 -0.6213
  177SLPC   H5Y20138   2.607   1.090   6.155  0.8911  0.8790  1.7148
  177SLPC   C3620139   2.614   0.965   5.984  0.3487 -0.4926 -0.2129
  177SLPC   H6X20140   2.504   0.951   5.991  0.2607 -1.0173 -2.0728
  177SLPC   H6Y20141   2.659   0.871   5.946 -0.4514 -0.7604 -0.5354
  177SLPC   C3720142   2.626   1.069   5.870  0.0161  0.0201  0.4222
  177SLPC   H7X20143   2.723   1.122   5.870 -1.4596  2.9845 -0.7101
  177SLPC   H7Y20144   2.549   1.150   5.868  0.4148  0.4365 -2.9270
  177SLPC   C3820145   2.616   1.006   5.731 -0.2410  0.2842 -0.1444
  177SLPC   H8X20146   2.530   0.935   5.726 -0.3089  0.3423  0.1465
  177SLPC   H8Y20147   2.699   0.933   5.722 -0.6859 -0.3492  0.6421
  177SLPC   C3920148   2.623   1.107   5.619 -0.6063  0.1130  0.3062
  177SLPC   H9X20149   2.724   1.152   5.608  0.1128 -0.8417  2.4499
  177SLPC   H9Y20150   2.545   1.180   5.648 -1.7318 -0.3070 -1.4725
  177SLPC  C31020151   2.592   1.052   5.474  0.2845  0.7010  0.4780
  177SLPC  H10X20152   2.495   1.001   5.491  2.1797 -2.6648  2.0478
  177SLPC  H10Y20153   2.672   0.977   5.460 -0.0616  0.5155 -0.6024
  177SLPC  C31120154   2.595   1.149   5.360  0.4033 -0.0783  0.7093
  177SLPC  H11X20155   2.700   1.181   5.342  0.3597  0.2592  1.0411
  177SLPC  H11Y20156   2.517   1.224   5.386  1.4142  1.6167 -0.8980
  177SLPC  C31220157   2.545   1.085   5.223 -0.0565 -0.4782 -0.7646
  177SLPC  H12X20158   2.454   1.024   5.239 -0.2004 -0.0709  0.0002
  177SLPC  H12Y20159   2.630   1.024   5.186  0.1744 -0.5162 -0.1808
  177SLPC  C31320160   2.513   1.189   5.114 -0.7787  1.3668 -0.7670
  177SLPC  H13X20161   2.607   1.235   5.078 -1.0207  1.9313 -0.6726
  177SLPC  H13Y20162   2.441   1.258   5.163 -0.0029  2.0019 -0.4914
  177SLPC  C31420163   2.441   1.130   4.991 -0.0025 -0.0743  0.0329
  177SLPC  H14X20164   2.340   1.096   5.024  0.6287 -1.3336  0.7191
  177SLPC  H14Y20165   2.494   1.037   4.965  0.1480 -0.1971  0.7448
  177SLPC  C31520166   2.447   1.239   4.879 -0.3737  1.0481 -0.4392
  177SLPC  H15X20167   2.539   1.300   4.890 -0.5654  1.0519  1.6080
  177SLPC  H15Y20168   2.371   1.308   4.923  1.8012  2.5861  1.1512
  177SLPC  C31620169   2.420   1.183   4.740  0.8869  0.4349 -0.2457
  177SLPC  H16X20170   2.311   1.194   4.723  0.9836  0.9709 -0.5328
  177SLPC  H16Y20171   2.445   1.074   4.740  0.5248  0.3150  2.0379
  177SLPC  C31720172   2.504   1.259   4.637 -0.2959 -0.9684  0.2663
  177SLPC  H17X20173   2.613   1.260   4.660 -0.3769  1.9512  0.9555
  177SLPC  H17Y20174   2.475   1.366   4.644  1.1371 -0.6057  0.9734
  177SLPC  C31820175   2.480   1.232   4.484  0.4258 -0.1757  0.0261
  177SLPC  H18X20176   2.383   1.180   4.470  1.2576 -1.6948 -0.2811
  177SLPC  H18Y20177   2.551   1.156   4.447 -1.7318 -2.4920  0.4174
  177SLPC  H18Z20178   2.496   1.318   4.415 -1.7342  0.8435  0.7113
  178SLPC     N20179   4.460   4.795   7.327 -0.1895 -0.3284  0.4556
  178SLPC   C1320180   4.573   4.848   7.414  0.5783  0.3461 -0.4407
  178SLPC  H13A20181   4.559   4.955   7.418 -1.7334  0.0628  1.9022
  178SLPC  H13B20182   4.565   4.802   7.511  1.6056 -2.2241 -1.4727
  178SLPC  H13C20183   4.673   4.828   7.378  0.9135 -0.9180  1.1177
  178SLPC   C1420184   4.326   4.816   7.388 -0.2386 -0.4984 -0.1401
  178SLPC  H14A20185   4.301   4.920   7.401 -0.6359 -0.5439 -0.5191
  178SLPC  H14B20186   4.251   4.773   7.323 -0.7313  0.0474  0.0563
  178SLPC  H14C20187   4.316   4.769   7.485 -1.0749 -1.6751 -0.7743
  178SLPC   C1520188   4.498   4.648   7.306  0.0573 -0.2224  0.1164
  178SLPC  H15A20189   4.540   4.607   7.396  0.6098  2.7909  1.3577
  178SLPC  H15B20190   4.417   4.586   7.271  0.5595  0.0027 -1.5497
  178SLPC  H15C20191   4.568   4.632   7.225  0.6146 -0.2813  0.6037
  178SLPC   C1220192   4.446   4.863   7.190 -0.2361  0.2389  0.0615
  178SLPC  H12A20193   4.375   4.808   7.131  1.2640  0.0391 -1.6290
  178SLPC  H12B20194   4.541   4.869   7.139  0.0610 -0.3087  0.5304
  178SLPC   C1120195   4.402   5.007   7.187 -0.0080 -0.5145 -0.4291
  178SLPC  H11A20196   4.414   5.046   7.083 -2.4464  2.4377  0.2500
  178SLPC  H11B20197   4.465   5.081   7.241  1.5275  0.3610 -3.1743
  178SLPC     P20198   4.145   4.979   7.128 -0.6421 -0.0980  0.4663
  178SLPC   O1320199   4.139   4.829   7.125 -0.1655 -0.3532 -0.5516
  178SLPC   O1420200   4.026   5.047   7.180  0.3325  0.6213 -0.2653
  178SLPC   O1220201   4.263   5.036   7.222 -0.2791 -0.0274  0.5384
  178SLPC   O1120202   4.183   5.034   6.989 -0.8360 -0.3989 -0.5407
  178SLPC    C120203   4.188   4.953   6.875 -0.6191  0.4133 -0.0450
  178SLPC    HA20204   4.293   4.963   6.840 -0.7544  1.1435 -0.2587
  178SLPC    HB20205   4.170   4.845   6.896  0.1188  0.7166  2.5585
  178SLPC    C220206   4.100   5.003   6.761  0.8655 -0.2412 -0.1573
  178SLPC    HS20207   4.101   5.114   6.757 -0.9583 -0.2105 -0.4969
  178SLPC   O2120208   3.965   4.972   6.791  0.5463  0.4624 -0.0861
  178SLPC   C2120209   3.877   5.045   6.722  0.3773  0.3338  0.0856
  178SLPC   O2220210   3.901   5.137   6.640  0.4444  0.1267  0.1347
  178SLPC   C2220211   3.732   5.015   6.759  0.6489  0.4741 -0.4242
  178SLPC   H2R20212   3.739   4.943   6.843  1.0193 -0.9431 -1.6157
  178SLPC   H2S20213   3.669   5.101   6.790 -0.2351  0.2528 -1.5197
  178SLPC    C320214   4.138   4.929   6.631 -0.0099 -0.5563 -0.0444
  178SLPC    HX20215   4.075   4.964   6.546 -0.8494  0.6213  1.0192
  178SLPC    HY20216   4.118   4.820   6.635 -1.6719 -0.3124 -0.6048
  178SLPC   O3120217   4.273   4.930   6.604 -0.4031  0.5348 -0.1840
  178SLPC   C3120218   4.331   5.030   6.558 -0.7597 -0.2005 -0.1952
  178SLPC   O3220219   4.284   5.141   6.541  0.2618  0.3771  0.4630
  178SLPC   C3220220   4.478   4.996   6.527  0.6873 -0.0993 -0.7848
  178SLPC   H2X20221   4.474   4.924   6.442 -0.9849  0.8168 -1.5371
  178SLPC   H2Y20222   4.527   4.943   6.611 -1.6196  1.0016  1.3845
  178SLPC   C2320223   3.662   4.942   6.636 -0.0738 -0.7327 -0.5922
  178SLPC   H3R20224   3.678   5.000   6.543 -2.8648 -0.7543 -1.1729
  178SLPC   H3S20225   3.555   4.943   6.668  0.0393 -0.7325 -0.2071
  178SLPC   C2420226   3.708   4.797   6.613 -0.5347  0.0154  0.5264
  178SLPC   H4R20227   3.654   4.731   6.684  0.9343  0.3637  2.0430
  178SLPC   H4S20228   3.818   4.787   6.623 -0.3569 -0.5185 -1.4080
  178SLPC   C2520229   3.671   4.725   6.481  0.1174  0.2637 -0.6450
  178SLPC   H5R20230   3.560   4.736   6.474  0.0215  1.7025  1.8080
  178SLPC   H5S20231   3.697   4.619   6.502  0.3364  0.3399 -0.5259
  178SLPC   C2620232   3.730   4.768   6.352 -0.2913  0.1407  0.5513
  178SLPC   H6R20233   3.686   4.865   6.320 -2.7258 -1.3525 -0.9757
  178SLPC   H6S20234   3.708   4.688   6.278 -0.4288  0.5869  0.1077
  178SLPC   C2720235   3.881   4.793   6.355 -0.6238 -0.0454  0.6712
  178SLPC   H7R20236   3.945   4.703   6.359  1.5667  1.3882 -0.3015
  178SLPC   H7S20237   3.905   4.856   6.443 -2.0770 -0.2078  1.2125
  178SLPC   C2820238   3.937   4.867   6.232 -0.4962 -0.8454 -0.6427
  178SLPC   H8R20239   3.915   4.800   6.146  0.7026 -0.5507 -1.2031
  178SLPC   H8S20240   4.048   4.864   6.240 -0.6694 -2.1268  3.5727
  178SLPC   C2920241   3.887   5.000   6.207  0.7613 -0.6106 -0.3103
  178SLPC   H9R20242   3.794   5.002   6.150  1.4671 -0.1758 -1.4752
  178SLPC  C21020243   3.938   5.115   6.235  0.1446 -0.7118 -0.1657
  178SLPC  H10R20244   3.874   5.203   6.218 -0.2489 -1.0398 -0.3743
  178SLPC  C21120245   4.074   5.154   6.299 -0.5442  0.5662 -0.4189
  178SLPC  H11R20246   4.115   5.066   6.354  1.5933  2.3595  1.0848
  178SLPC  H11S20247   4.061   5.227   6.381 -0.3662  1.5812 -1.2719
  178SLPC  C21220248   4.170   5.189   6.193  0.2143  0.0864 -0.2757
  178SLPC  H12R20249   4.171   5.133   6.099  0.4803 -0.2434 -0.0777
  178SLPC  C21320250   4.252   5.296   6.202 -0.0784  0.8841  0.0948
  178SLPC  H13R20251   4.316   5.321   6.116  1.4372  0.2959  1.0070
  178SLPC  C21420252   4.277   5.394   6.318  0.0859 -0.4058 -0.3723
  178SLPC  H14R20253   4.362   5.458   6.288  1.1672 -0.5849  2.0678
  178SLPC  H14S20254   4.298   5.343   6.414 -0.3761  0.1487  0.0321
  178SLPC  C21520255   4.160   5.492   6.341 -0.1620  0.2968  0.0395
  178SLPC  H15R20256   4.194   5.575   6.407  1.9783 -0.8826  0.5202
  178SLPC  H15S20257   4.082   5.435   6.395  1.5073 -2.0994  0.0521
  178SLPC  C21620258   4.096   5.560   6.218  0.0586 -0.0713  0.1278
  178SLPC  H16R20259   4.043   5.485   6.155 -0.1253  1.6909 -1.9002
  178SLPC  H16S20260   4.174   5.612   6.158  0.2433 -1.1752 -0.6191
  178SLPC  C21720261   3.988   5.654   6.262  0.0254 -0.0212  0.3825
  178SLPC  H17R20262   4.031   5.742   6.316 -0.0934  0.7574 -0.7467
  178SLPC  H17S20263   3.926   5.598   6.334 -0.2446  0.2761  0.3808
  178SLPC  C21820264   3.908   5.721   6.149 -0.4776 -0.8316 -0.1161
  178SLPC  H18R20265   3.977   5.771   6.077 -0.2027 -0.6797  0.2485
  178SLPC  H18S20266   3.847   5.804   6.188  3.4908  1.7234  1.3300
  178SLPC  H18T20267   3.857   5.647   6.084 -0.6706 -0.6205 -0.2072
  178SLPC   C3320268   4.576   5.119   6.494  0.2912 -0.5212  0.0961
  178SLPC   H3X20269   4.631   5.135   6.590  2.1632  0.0875 -1.0140
  178SLPC   H3Y20270   4.513   5.206   6.466  3.8878  2.5617  0.6934
  178SLPC   C3420271   4.671   5.082   6.379  0.0413  0.3775 -0.4577
  178SLPC   H4X20272   4.724   4.991   6.413  0.7906  1.4475  1.4327
  178SLPC   H4Y20273   4.741   5.169   6.381  1.7100 -0.8925  1.7727
  178SLPC   C3520274   4.604   5.068   6.244  0.6711 -0.4646 -0.3395
  178SLPC   H5X20275   4.562   5.167   6.214 -0.4100 -0.8473 -0.1224
  178SLPC   H5Y20276   4.518   4.998   6.249  0.2296  0.1236  0.6356
  178SLPC   C3620277   4.708   5.036   6.134 -0.6510  0.4476 -0.5037
  178SLPC   H6X20278   4.776   4.958   6.173 -1.2850 -0.3332 -0.9121
  178SLPC   H6Y20279   4.764   5.128   6.106 -0.0642  0.1958 -0.1718
  178SLPC   C3720280   4.662   4.989   6.001  0.7197  0.7864 -0.5214
  178SLPC   H7X20281   4.598   4.899   6.014  1.4180  0.1589 -1.3509
  178SLPC   H7Y20282   4.740   4.961   5.927 -0.7236 -0.8902 -1.4494
  178SLPC   C3820283   4.577   5.106   5.936  0.6615 -0.6571  0.2909
  178SLPC   H8X20284   4.642   5.196   5.927  0.6635 -0.5752  1.0257
  178SLPC   H8Y20285   4.486   5.132   5.995  0.5520 -1.7665  0.6384
  178SLPC   C3920286   4.519   5.061   5.799 -0.4030 -0.9443 -0.3110
  178SLPC   H9X20287   4.597   5.038   5.723  0.2086 -2.4368  0.7385
  178SLPC   H9Y20288   4.456   5.149   5.770  0.0524 -0.3380  0.5020
  178SLPC  C31020289   4.420   4.938   5.809  0.0746 -0.4654 -0.1074
  178SLPC  H10X20290   4.365   4.946   5.905 -0.3925  1.6184 -0.5080
  178SLPC  H10Y20291   4.489   4.852   5.822  2.4661  1.5911  1.6482
  178SLPC  C31120292   4.325   4.923   5.685  0.1923  0.0553 -0.3287
  178SLPC  H11X20293   4.269   4.832   5.716 -0.0960 -0.2505 -1.6933
  178SLPC  H11Y20294   4.377   4.908   5.588 -0.3275 -0.9588 -0.4652
  178SLPC  C31220295   4.225   5.042   5.667 -0.4945 -0.3858 -0.2984
  178SLPC  H12X20296   4.189   5.034   5.562 -0.9397  0.4534 -0.2178
  178SLPC  H12Y20297   4.278   5.140   5.666 -1.1697 -0.0137 -1.3583
  178SLPC  C31320298   4.118   5.050   5.781  0.7307  0.6070 -0.5044
  178SLPC  H13X20299   4.170   5.067   5.878  3.0539  0.1540 -1.6007
  178SLPC  H13Y20300   4.050   4.963   5.796 -0.6161  1.5563 -0.8580
  178SLPC  C31420301   4.018   5.162   5.757 -0.2597  0.2352 -0.2849
  178SLPC  H14X20302   3.951   5.165   5.845  0.4108  2.8513  0.2338
  178SLPC  H14Y20303   3.962   5.133   5.666 -0.1419  0.0081 -0.2874
  178SLPC  C31520304   4.073   5.305   5.742  0.3615  1.2053 -0.5892
  178SLPC  H15X20305   4.132   5.303   5.648  2.3679 -0.7888  0.6049
  178SLPC  H15Y20306   4.134   5.321   5.833  1.1643 -0.6434 -0.7514
  178SLPC  C31620307   3.964   5.414   5.734 -0.2169  0.7003  0.3024
  178SLPC  H16X20308   3.905   5.414   5.828 -0.4183  1.3981  0.1846
  178SLPC  H16Y20309   3.900   5.377   5.650 -0.4728  1.1281  0.3048
  178SLPC  C31720310   4.016   5.553   5.705  0.2389  0.5960  0.4585
  178SLPC  H17X20311   3.924   5.611   5.683  0.7801  0.4425 -2.7809
  178SLPC  H17Y20312   4.082   5.541   5.616 -1.4696  0.0246 -0.7831
  178SLPC  C31820313   4.095   5.623   5.811 -0.3182 -0.0210 -0.8903
  178SLPC  H18X20314   4.200   5.589   5.797  0.3500  0.4102  2.2818
  178SLPC  H18Y20315   4.068   5.596   5.915 -0.0931  1.4142 -0.4372
  178SLPC  H18Z20316   4.090   5.734   5.805  0.5995  0.1330  0.7057
  179SLPC     N20317   3.441   0.764   2.470  0.2612 -0.7701  0.5352
  179SLPC   C1320318   3.541   0.873   2.435  0.6232  0.0971  0.0296
  179SLPC  H13A20319   3.565   0.939   2.517  0.2347  1.1138 -0.6580
  179SLPC  H13B20320   3.634   0.823   2.412 -0.2511 -1.5135 -0.1637
  179SLPC  H13C20321   3.509   0.935   2.353 -1.5067 -0.3837  0.4221
  179SLPC   C1420322   3.508   0.680   2.573 -0.0160 -0.3841  0.5751
  179SLPC  H14A20323   3.523   0.738   2.663  0.2345 -0.2487  0.4486
  179SLPC  H14B20324   3.447   0.599   2.608 -2.5835  1.6325  1.0335
  179SLPC  H14C20325   3.607   0.644   2.546  1.1233  0.6390  3.1155
  179SLPC   C1520326   3.422   0.668   2.354  0.3629 -0.9310  0.2292
  179SLPC  H15A20327   3.372   0.579   2.391 -0.2219 -1.3142 -1.3836
  179SLPC  H15B20328   3.365   0.706   2.271  0.3298 -3.3541 -0.9482
  179SLPC  H15C20329   3.520   0.634   2.325  0.2046 -1.3616  0.1897
  179SLPC   C1220330   3.311   0.828   2.508  0.0196 -0.3425  0.3375
  179SLPC  H12A20331   3.288   0.895   2.427  0.9622 -0.4847 -0.0611
  179SLPC  H12B20332   3.327   0.884   2.599 -1.5978  1.0063 -0.1517
  179SLPC   C1120333   3.187   0.738   2.546  0.1500  0.1533 -0.1191
  179SLPC  H11A20334   3.100   0.802   2.572 -1.6624 -0.7564 -3.4318
  179SLPC  H11B20335   3.214   0.677   2.635  0.7016  0.4037 -0.1095
  179SLPC     P20336   3.122   0.498   2.449  0.0176  0.1937 -0.2088
  179SLPC   O1320337   2.997   0.465   2.375  0.0423  0.1026  0.2264
  179SLPC   O1420338   3.241   0.418   2.397  0.3763 -0.2624  0.2860
  179SLPC   O1220339   3.152   0.651   2.437  0.3317  0.1174  0.1753
  179SLPC   O1120340   3.096   0.469   2.596  0.1349  0.8370  0.8177
  179SLPC    C120341   2.975   0.430   2.650  0.5916 -0.0540  0.5240
  179SLPC    HA20342   2.900   0.511   2.638  0.9803  0.4475  1.3727
  179SLPC    HB20343   2.939   0.335   2.604 -0.4321  0.8376 -0.5649
  179SLPC    C220344   2.998   0.407   2.806  0.0097 -0.2677 -0.5409
  179SLPC    HS20345   2.900   0.385   2.855 -0.5747  0.0736 -1.5388
  179SLPC   O2120346   3.062   0.521   2.872 -0.0800 -0.6537  0.3823
  179SLPC   C2120347   2.972   0.610   2.891 -0.7216  0.1143 -0.0979
  179SLPC   O2220348   2.858   0.606   2.848  0.2166  0.2776 -0.0305
  179SLPC   C2220349   3.029   0.721   2.978  0.1064  0.8474 -0.3011
  179SLPC   H2R20350   3.122   0.680   3.024 -0.1327 -0.6412 -1.0918
  179SLPC   H2S20351   3.048   0.809   2.913 -0.1231 -0.5148 -2.3049
  179SLPC    C320352   3.080   0.277   2.825 -0.4531 -1.4165 -0.1351
  179SLPC    HX20353   3.171   0.279   2.760 -0.7229 -0.7813 -0.5036
  179SLPC    HY20354   3.027   0.186   2.788  0.1553 -1.3678 -1.1762
  179SLPC   O3120355   3.116   0.260   2.962  0.1833  0.3204 -0.4209
  179SLPC   C3120356   3.027   0.195   3.038 -0.6451 -0.0036 -0.3844
  179SLPC   O3220357   2.918   0.158   3.001 -0.2269 -0.0112  0.2258
  179SLPC   C3220358   3.081   0.181   3.180 -1.0811  0.1347 -0.2139
  179SLPC   H2X20359   3.085   0.288   3.210 -0.4790  0.0718 -0.0563
  179SLPC   H2Y20360   3.177   0.125   3.174 -1.8176 -1.1472 -0.3338
  179SLPC   C2320361   2.942   0.783   3.093  0.0948 -0.0267  0.5160
  179SLPC   H3R20362   2.914   0.699   3.161  4.1386 -0.9956  1.2307
  179SLPC   H3S20363   2.851   0.820   3.039  0.7122 -0.3835 -0.8225
  179SLPC   C2420364   3.011   0.892   3.170  0.6829 -0.3658 -0.1956
  179SLPC   H4R20365   3.029   0.969   3.092 -2.3886  1.0152  0.3235
  179SLPC   H4S20366   3.108   0.844   3.196  1.9125  1.8822 -0.3720
  179SLPC   C2520367   2.931   0.954   3.288  0.3097  0.2046 -0.1700
  179SLPC   H5R20368   2.902   0.875   3.361  2.9998 -1.4323 -0.7222
  179SLPC   H5S20369   2.837   1.007   3.263 -0.2032  0.9413  2.9560
  179SLPC   C2620370   3.024   1.047   3.373 -0.7977  0.1872 -0.4090
  179SLPC   H6R20371   3.083   1.098   3.293 -1.2707 -0.3698 -1.1290
  179SLPC   H6S20372   3.099   0.985   3.427 -0.3953  1.6076  0.7367
  179SLPC   C2720373   2.953   1.148   3.462  0.1474  0.0478 -0.2860
  179SLPC   H7R20374   2.875   1.104   3.528  1.1263 -1.3522 -0.0089
  179SLPC   H7S20375   2.914   1.227   3.395 -0.1321 -1.8402 -2.4666
  179SLPC   C2820376   3.056   1.206   3.551 -0.9037  0.2708 -0.6324
  179SLPC   H8R20377   3.155   1.207   3.499  1.0198  0.3890  2.7754
  179SLPC   H8S20378   3.070   1.113   3.611  1.8182  0.1806 -1.2787
  179SLPC   C2920379   3.014   1.333   3.621  0.7887  0.0862 -0.2342
  179SLPC   H9R20380   3.014   1.422   3.557 -0.1076  0.6498  0.5380
  179SLPC  C21020381   2.983   1.343   3.750 -0.0174  0.4090  0.7007
  179SLPC  H10R20382   2.946   1.436   3.796  1.5655  0.5971  1.6921
  179SLPC  C21120383   2.971   1.225   3.840 -0.4870  0.4069 -0.4778
  179SLPC  H11R20384   2.909   1.144   3.796 -2.4066 -0.2936  3.1685
  179SLPC  H11S20385   2.927   1.261   3.936  0.6177 -0.0320  0.2148
  179SLPC  C21220386   3.107   1.164   3.871 -0.0218 -0.8128  0.4195
  179SLPC  H12R20387   3.184   1.195   3.799 -0.0489 -0.8048  0.3939
  179SLPC  C21320388   3.140   1.076   3.962  1.0725  0.4328 -0.7095
  179SLPC  H13R20389   3.239   1.031   3.956  1.8717  1.8730  0.8247
  179SLPC  C21420390   3.036   1.018   4.066 -0.1114 -0.8724  0.1996
  179SLPC  H14R20391   3.028   0.910   4.041  0.1302 -1.6009  3.0085
  179SLPC  H14S20392   2.938   1.069   4.048  0.5519  0.7572  0.9763
  179SLPC  C21520393   3.065   1.036   4.216 -0.4860  0.1782 -0.1842
  179SLPC  H15R20394   3.160   0.986   4.243 -0.6426  0.4733  0.9486
  179SLPC  H15S20395   2.993   0.979   4.278  0.9504 -0.4342  0.9760
  179SLPC  C21620396   3.078   1.178   4.280  0.2895 -0.1291 -0.4095
  179SLPC  H16R20397   3.158   1.232   4.225 -0.0292  2.6667  1.6805
  179SLPC  H16S20398   3.115   1.177   4.384 -0.6001 -1.1253 -0.0892
  179SLPC  C21720399   2.947   1.262   4.273 -0.1398 -0.1526  0.5655
  179SLPC  H17R20400   2.935   1.307   4.172  0.8600 -1.8660 -0.3654
  179SLPC  H17S20401   2.958   1.336   4.355 -2.0850  1.2078 -0.3281
  179SLPC  C21820402   2.819   1.190   4.329  0.2539 -0.1392 -0.5991
  179SLPC  H18R20403   2.783   1.106   4.266 -3.0100  0.7988 -0.1666
  179SLPC  H18S20404   2.734   1.261   4.324  0.3330 -0.0888 -1.4299
  179SLPC  H18T20405   2.826   1.158   4.435  0.4613 -2.9125 -1.3736
  179SLPC   C3320406   2.981   0.114   3.271  0.1230 -0.0290 -0.4077
  179SLPC   H3X20407   2.968   0.007   3.245  1.2872 -0.5278  0.9082
  179SLPC   H3Y20408   2.880   0.158   3.260 -0.8402 -1.8579  0.6562
  179SLPC   C3420409   3.019   0.113   3.420  0.6540  0.1475 -0.0759
  179SLPC   H4X20410   3.073   0.204   3.456  3.0001 -0.7743 -1.0801
  179SLPC   H4Y20411   3.086   0.026   3.438 -1.4937 -1.4348  0.6788
  179SLPC   C3520412   2.896   0.092   3.515 -0.0711 -0.5510  0.0863
  179SLPC   H5X20413   2.819   0.168   3.493 -0.2336 -0.7932 -0.1964
  179SLPC   H5Y20414   2.841   0.005   3.472  1.4701 -1.0748 -0.9588
  179SLPC   C3620415   2.934   0.078   3.667 -0.3273  0.6599 -0.0279
  179SLPC   H6X20416   2.937   0.180   3.709  3.8075  1.3275 -1.4136
  179SLPC   H6Y20417   3.038   0.037   3.662  0.8247  3.4130 -0.5055
  179SLPC   C3720418   2.842  -0.008   3.752  0.1150  0.0550  0.3171
  179SLPC   H7X20419   2.832  -0.110   3.711 -1.3925 -0.0811  0.9613
  179SLPC   H7Y20420   2.746   0.048   3.759  0.3553  0.3758  1.3077
  179SLPC   C3820421   2.902  -0.036   3.893 -0.1016 -0.6945 -0.3362
  179SLPC   H8X20422   3.010  -0.053   3.875 -0.0576  0.9064 -1.8719
  179SLPC   H8Y20423   2.854  -0.125   3.938 -2.5992  1.9112  2.6017
  179SLPC   C3920424   2.877   0.078   3.993  0.2505 -0.6145 -0.1764
  179SLPC   H9X20425   2.770   0.062   4.020  0.4427 -0.9039  0.4457
  179SLPC   H9Y20426   2.896   0.181   3.956 -2.3851 -0.2278 -0.6988
  179SLPC  C31020427   2.960   0.061   4.120  0.0003 -0.1881 -0.0966
  179SLPC  H10X20428   2.963   0.156   4.179  1.6037 -0.5347  0.4164
  179SLPC  H10Y20429   3.065   0.040   4.090  1.1025  1.2679  2.3688
  179SLPC  C31120430   2.911  -0.052   4.200  0.0947  0.6128 -0.4040
  179SLPC  H11X20431   2.984  -0.075   4.280 -1.9120  2.0590  2.0076
  179SLPC  H11Y20432   2.904  -0.136   4.127 -0.8926  0.7226 -0.4499
  179SLPC  C31220433   2.779  -0.011   4.272  0.4368 -0.0277 -0.3393
  179SLPC  H12X20434   2.730  -0.100   4.317  0.6486 -0.0713 -0.1930
  179SLPC  H12Y20435   2.714   0.035   4.195  1.0986 -1.6461 -1.9342
  179SLPC  C31320436   2.805   0.081   4.392  0.5038 -0.0128 -1.1205
  179SLPC  H13X20437   2.848   0.173   4.347 -1.0493  0.3169 -2.0201
  179SLPC  H13Y20438   2.880   0.026   4.453 -1.6075  1.3646  3.0379
  179SLPC  C31420439   2.682   0.099   4.487  0.0455 -0.0947  0.3527
  179SLPC  H14X20440   2.664   0.006   4.546  0.0610  1.0997  2.2892
  179SLPC  H14Y20441   2.590   0.114   4.426 -2.2986 -2.7626  2.8887
  179SLPC  C31520442   2.681   0.219   4.582 -0.7041  0.5421 -0.1205
  179SLPC  H15X20443   2.685   0.314   4.525  2.5601  1.2118  0.9837
  179SLPC  H15Y20444   2.776   0.214   4.640 -2.1192 -0.7347  2.2589
  179SLPC  C31620445   2.572   0.221   4.682 -0.2649 -0.0950  0.6450
  179SLPC  H16X20446   2.551   0.118   4.719 -3.7885 -0.7006 -2.4712
  179SLPC  H16Y20447   2.477   0.246   4.631  1.3247 -0.9049 -3.0253
  179SLPC  C31720448   2.583   0.319   4.799  0.6711  0.3523  0.5106
  179SLPC  H17X20449   2.609   0.419   4.758  1.8999 -0.3972 -0.6066
  179SLPC  H17Y20450   2.668   0.285   4.862  1.0274  1.6859  0.7770
  179SLPC  C31820451   2.454   0.335   4.876  0.0196 -0.0678  0.2493
  179SLPC  H18X20452   2.373   0.372   4.809  0.7640  0.4987 -0.3480
  179SLPC  H18Y20453   2.470   0.419   4.947  0.5063  0.1081 -0.0661
  179SLPC  H18Z20454   2.420   0.252   4.941 -2.0481 -0.6907 -1.5027
  180SLPC     N20455   0.852   6.482   2.354 -0.0034 -0.6830 -0.2219
  180SLPC   C1320456   0.803   6.363   2.275  0.4580  0.0996 -0.1925
  180SLPC  H13A20457   0.883   6.300   2.239 -1.3919 -1.7037 -1.3340
  180SLPC  H13B20458   0.748   6.300   2.344 -0.2151 -0.5168 -1.2737
  180SLPC  H13C20459   0.729   6.381   2.199  0.3110 -0.0764 -0.0925
  180SLPC   C1420460   0.916   6.586   2.259  0.1876  0.1533  0.0399
  180SLPC  H14A20461   0.846   6.659   2.223 -0.5576 -1.4982 -2.0673
  180SLPC  H14B20462   0.982   6.651   2.315 -2.0848  2.3896  0.2828
  180SLPC  H14C20463   0.978   6.544   2.182 -1.6822 -0.4507 -1.2118
  180SLPC   C1520464   0.969   6.430   2.430 -0.0801  0.5401 -0.0430
  180SLPC  H15A20465   1.049   6.391   2.368 -1.2769  0.8047 -1.8382
  180SLPC  H15B20466   1.007   6.506   2.496 -0.4944  0.3679  0.3966
  180SLPC  H15C20467   0.939   6.346   2.491  1.8754 -1.4095 -1.6105
  180SLPC   C1220468   0.744   6.552   2.440 -0.8063 -0.8162 -0.3774
  180SLPC  H12A20469   0.666   6.584   2.373 -0.7080 -1.6030 -0.8813
  180SLPC  H12B20470   0.788   6.644   2.475 -0.4256 -0.6103 -1.3433
  180SLPC   C1120471   0.680   6.479   2.560 -0.7902  0.3229 -0.4033
  180SLPC  H11A20472   0.603   6.543   2.606 -0.9173 -0.2332  0.1721
  180SLPC  H11B20473   0.761   6.471   2.636 -0.0510  1.0746 -1.0923
  180SLPC     P20474   0.652   6.230   2.609  0.1710  0.3064 -0.4557
  180SLPC   O1320475   0.576   6.106   2.564  0.1007 -0.9063  0.7600
  180SLPC   O1420476   0.797   6.208   2.612  0.0925  1.0259 -0.0080
  180SLPC   O1220477   0.627   6.356   2.519 -0.1482 -0.1738  0.1667
  180SLPC   O1120478   0.610   6.266   2.762  0.6737 -0.0642  0.4649
  180SLPC    C120479   0.473   6.280   2.804  0.1901 -0.5367 -0.0598
  180SLPC    HA20480   0.415   6.344   2.734 -2.5409 -3.0517 -0.3218
  180SLPC    HB20481   0.427   6.179   2.798  1.0716 -0.9369 -0.2894
  180SLPC    C220482   0.473   6.335   2.949 -0.0921  0.8316 -0.0452
  180SLPC    HS20483   0.368   6.335   2.986  0.9037  0.9580  2.9961
  180SLPC   O2120484   0.547   6.465   2.962  0.1084  0.7299  0.2956
  180SLPC   C2120485   0.478   6.565   2.909  0.6279 -0.7045  0.2525
  180SLPC   O2220486   0.366   6.572   2.862 -0.5387  0.0078 -0.6485
  180SLPC   C2220487   0.574   6.686   2.902 -0.4259  0.3054  0.3838
  180SLPC   H2R20488   0.657   6.656   2.835  0.4388  1.6202  0.8477
  180SLPC   H2S20489   0.514   6.775   2.875 -0.5839  0.7615  2.1183
  180SLPC    C320490   0.521   6.232   3.052  0.5144  0.7180  0.6295
  180SLPC    HX20491   0.628   6.214   3.028 -0.1323 -0.7858 -1.5625
  180SLPC    HY20492   0.474   6.133   3.031  0.3856  1.2230 -1.7248
  180SLPC   O3120493   0.490   6.269   3.187 -0.4247 -0.2414 -0.1828
  180SLPC   C3120494   0.591   6.319   3.267  0.2434 -0.1723 -0.5938
  180SLPC   O3220495   0.703   6.343   3.228  0.2446  0.1343  0.0853
  180SLPC   C3220496   0.544   6.337   3.417  0.3503 -1.0287  0.0742
  180SLPC   H2X20497   0.449   6.285   3.439 -0.4204  1.5386  3.6318
  180SLPC   H2Y20498   0.524   6.446   3.416  0.7639 -0.9319 -1.8096
  180SLPC   C2320499   0.638   6.707   3.039 -0.6714  0.0561 -0.1419
  180SLPC   H3R20500   0.699   6.798   3.023  1.4375 -1.3808 -0.6876
  180SLPC   H3S20501   0.718   6.632   3.057 -0.6839  0.0729 -0.0148
  180SLPC   C2420502   0.553   6.724   3.165 -0.4983 -0.3219 -0.5240
  180SLPC   H4R20503   0.491   6.633   3.181 -1.3335  0.3617  0.2444
  180SLPC   H4S20504   0.490   6.811   3.136  0.3892  0.2703 -0.7243
  180SLPC   C2520505   0.644   6.745   3.287  0.1626 -0.6216  0.7585
  180SLPC   H5R20506   0.728   6.814   3.265 -1.0663  1.5706  2.5382
  180SLPC   H5S20507   0.691   6.650   3.322  0.8849 -0.3434  0.5661
  180SLPC   C2620508   0.558   6.804   3.402  0.5923 -0.2691 -0.2605
  180SLPC   H6R20509   0.484   6.726   3.430 -1.0891  1.2107 -0.4498
  180SLPC   H6S20510   0.501   6.896   3.376  0.8323 -0.4187 -1.3711
  180SLPC   C2720511   0.650   6.846   3.523 -0.2189  0.1521 -0.0408
  180SLPC   H7R20512   0.603   6.925   3.586 -0.1373  1.1323 -1.1729
  180SLPC   H7S20513   0.738   6.894   3.475  0.9517 -1.6699  0.1881
  180SLPC   C2820514   0.696   6.732   3.614 -0.3067  0.3088  0.2781
  180SLPC   H8R20515   0.741   6.656   3.547  0.3052 -2.0385  3.1329
  180SLPC   H8S20516   0.604   6.693   3.662 -0.3105 -0.3049 -0.2269
  180SLPC   C2920517   0.797   6.772   3.719 -0.0857 -0.1455 -0.0081
  180SLPC   H9R20518   0.900   6.772   3.678 -0.3163 -2.6388 -0.7755
  180SLPC  C21020519   0.768   6.799   3.850  0.6332 -0.1632  0.2296
  180SLPC  H10R20520   0.848   6.806   3.925 -1.6468 -1.8273  3.0590
  180SLPC  C21120521   0.641   6.784   3.926  0.0215 -0.5400  0.8370
  180SLPC  H11R20522   0.657   6.726   4.019 -2.0524 -2.2715  0.1993
  180SLPC  H11S20523   0.567   6.724   3.868  0.8698  0.9176 -1.9609
  180SLPC  C21220524   0.574   6.921   3.954 -0.2431  0.6331  0.6565
  180SLPC  H12R20525   0.526   6.975   3.871  0.6259  2.1192  1.0833
  180SLPC  C21320526   0.586   6.985   4.072 -0.0008  0.2141 -0.8789
  180SLPC  H13R20527   0.566   7.094   4.073 -0.6794  0.1044 -1.5888
  180SLPC  C21420528   0.673   6.944   4.192  0.5575 -0.0570  0.0564
  180SLPC  H14R20529   0.767   7.003   4.192  1.5181 -1.5495 -1.2114
  180SLPC  H14S20530   0.714   6.842   4.180 -1.5333 -1.0794  1.0374
  180SLPC  C21520531   0.618   6.944   4.335 -0.5742 -0.4748  0.6688
  180SLPC  H15R20532   0.704   6.901   4.392  0.3603 -0.3901 -0.6430
  180SLPC  H15S20533   0.531   6.874   4.341  0.8868 -2.3282  1.4196
  180SLPC  C21620534   0.584   7.080   4.386  0.0578 -0.3545 -1.1716
  180SLPC  H16R20535   0.521   7.140   4.317  0.3324  0.0492 -1.0778
  180SLPC  H16S20536   0.674   7.144   4.400 -0.1438 -0.2624 -0.2139
  180SLPC  C21720537   0.517   7.065   4.521  0.7709  0.0338 -0.0685
  180SLPC  H17R20538   0.414   7.024   4.517  1.1345 -0.8877 -0.1788
  180SLPC  H17S20539   0.504   7.170   4.556 -0.9775  0.4339 -1.7422
  180SLPC  C21820540   0.589   6.979   4.627 -0.3035  0.9370 -0.3237
  180SLPC  H18R20541   0.693   7.016   4.634  0.4622 -0.8907 -1.3278
  180SLPC  H18S20542   0.599   6.874   4.592 -0.4171  0.4925  0.9327
  180SLPC  H18T20543   0.536   6.974   4.724  0.9027  2.2428  0.4344
  180SLPC   C3320544   0.651   6.290   3.516  0.6879 -1.1110 -0.7530
  180SLPC   H3X20545   0.617   6.322   3.617 -1.2847 -3.0802 -0.6950
  180SLPC   H3Y20546   0.737   6.353   3.485  0.2060 -0.9602 -1.8287
  180SLPC   C3420547   0.687   6.145   3.512  0.0209 -0.0281 -0.5458
  180SLPC   H4X20548   0.791   6.140   3.552  0.4267  1.5957 -1.3000
  180SLPC   H4Y20549   0.690   6.115   3.406 -1.2474 -1.6804 -0.1521
  180SLPC   C3520550   0.576   6.064   3.569  0.0105  0.1012  0.2013
  180SLPC   H5X20551   0.499   6.039   3.493 -0.4059 -0.7933  0.9065
  180SLPC   H5Y20552   0.523   6.123   3.646 -1.1332 -1.0881  0.3601
  180SLPC   C3620553   0.631   5.930   3.621  0.2243  0.8193 -0.1583
  180SLPC   H6X20554   0.712   5.883   3.562  1.4762  0.5137  1.7166
  180SLPC   H6Y20555   0.538   5.868   3.613  1.6683 -1.2303 -2.3683
  180SLPC   C3720556   0.684   5.933   3.765 -0.3574  0.0349 -0.2681
  180SLPC   H7X20557   0.618   6.007   3.814 -1.2541  1.6737 -3.5915
  180SLPC   H7Y20558   0.783   5.983   3.773 -1.0123  1.2921  0.2576
  180SLPC   C3820559   0.705   5.796   3.824 -0.6791  0.7362 -0.6138
  180SLPC   H8X20560   0.796   5.748   3.782 -0.9596  0.2597 -0.6825
  180SLPC   H8Y20561   0.610   5.741   3.807  0.3367 -2.6625  3.0726
  180SLPC   C3920562   0.743   5.795   3.974  0.5742 -0.4577 -0.4288
  180SLPC   H9X20563   0.789   5.696   3.995  2.2889  1.1992  5.6733
  180SLPC   H9Y20564   0.659   5.802   4.046  0.3194  0.2334 -0.7835
  180SLPC  C31020565   0.853   5.890   4.024 -0.2837 -0.2222  0.1882
  180SLPC  H10X20566   0.798   5.986   4.010 -0.8519 -0.6873 -0.9089
  180SLPC  H10Y20567   0.940   5.875   3.955 -0.1282  1.5817 -0.0604
  180SLPC  C31120568   0.891   5.874   4.170  0.1913 -0.2922  0.2112
  180SLPC  H11X20569   0.797   5.884   4.229  0.3304  0.1536  0.3599
  180SLPC  H11Y20570   0.958   5.959   4.196 -1.5327  1.6381 -1.2980
  180SLPC  C31220571   0.957   5.739   4.206  0.3819  0.5053 -0.5075
  180SLPC  H12X20572   1.041   5.726   4.135 -0.2761  1.1828 -1.4291
  180SLPC  H12Y20573   0.881   5.658   4.199  0.9329 -0.1041  0.3314
  180SLPC  C31320574   1.020   5.734   4.346  0.7424  0.2014  0.2931
  180SLPC  H13X20575   1.114   5.792   4.352  1.2897 -0.6282 -0.1847
  180SLPC  H13Y20576   1.054   5.630   4.366  0.8162 -0.2366 -1.8501
  180SLPC  C31420577   0.920   5.784   4.458 -0.0749  0.8917  0.6972
  180SLPC  H14X20578   0.822   5.734   4.444  1.1182 -1.7144  1.1278
  180SLPC  H14Y20579   0.906   5.889   4.425  0.5037  0.0318 -2.5495
  180SLPC  C31520580   0.975   5.763   4.595  0.2487  0.3762 -0.5178
  180SLPC  H15X20581   1.075   5.809   4.608  1.0865 -1.7796  1.3265
  180SLPC  H15Y20582   1.003   5.658   4.618 -0.2382  0.5529  0.9819
  180SLPC  C31620583   0.876   5.815   4.705  0.4745 -0.4025 -0.0239
  180SLPC  H16X20584   0.779   5.764   4.688 -1.9384  3.4818  0.8764
  180SLPC  H16Y20585   0.861   5.925   4.699  0.3996 -0.1972  2.7516
  180SLPC  C31720586   0.920   5.779   4.847 -0.3012 -0.8109  0.9704
  180SLPC  H17X20587   0.967   5.869   4.891 -0.4069 -0.4640  0.3818
  180SLPC  H17Y20588   0.995   5.698   4.833 -0.7932 -0.9644 -1.1413
  180SLPC  C31820589   0.808   5.727   4.942  0.5116 -0.0371  0.3757
  180SLPC  H18X20590   0.719   5.792   4.955  0.8164  0.4816 -0.0692
  180SLPC  H18Y20591   0.861   5.710   5.037  1.0975  0.7195  0.1916
  180SLPC  H18Z20592   0.775   5.632   4.896 -2.7562  1.8299 -1.5622
  181SLPC     N20593   0.255   5.721   2.523  0.0917 -0.8521 -0.2968
  181SLPC   C1320594   0.126   5.650   2.477 -0.1417 -0.2275  0.1091
  181SLPC  H13A20595   0.127   5.546   2.506  0.0218 -0.3396 -0.2780
  181SLPC  H13B20596   0.037   5.695   2.517 -0.3161  0.4815 -1.0242
  181SLPC  H13C20597   0.108   5.642   2.370 -1.1303 -2.4572  0.3895
  181SLPC   C1420598   0.248   5.866   2.490  0.3508 -0.1517 -0.7839
  181SLPC  H14A20599   0.332   5.926   2.521  0.9480 -1.1861 -0.3131
  181SLPC  H14B20600   0.239   5.880   2.384  2.0576  1.1977 -0.8017
  181SLPC  H14C20601   0.155   5.897   2.534  0.5044 -0.6840 -0.0441
  181SLPC   C1520602   0.366   5.661   2.445 -0.1232 -0.3790 -0.2291
  181SLPC  H15A20603   0.342   5.660   2.340  2.8416 -0.1084 -1.0006
  181SLPC  H15B20604   0.463   5.702   2.471  0.2114 -1.1900 -0.1383
  181SLPC  H15C20605   0.379   5.557   2.473  0.8628 -0.4533 -0.9201
  181SLPC   C1220606   0.281   5.698   2.677 -0.3281 -0.1413  0.2976
  181SLPC  H12A20607   0.383   5.733   2.689 -0.1916 -0.2449 -0.4883
  181SLPC  H12B20608   0.297   5.593   2.696  0.6980 -0.0059  0.2315
  181SLPC   C1120609   0.197   5.765   2.782  0.0314 -0.3518  0.0848
  181SLPC  H11A20610   0.191   5.873   2.758 -1.9169 -0.4343  0.0005
  181SLPC  H11B20611   0.247   5.765   2.882 -2.3225 -1.8281  1.3749
  181SLPC     P20612   0.030   5.575   2.856 -0.0774  0.0542  0.0877
  181SLPC   O1320613  -0.058   5.487   2.772  0.2089  0.5868  0.7443
  181SLPC   O1420614   0.169   5.522   2.892  0.2518 -0.1311  0.2702
  181SLPC   O1220615   0.066   5.714   2.792 -0.4954  0.0837  0.2601
  181SLPC   O1120616  -0.045   5.604   2.988  0.0479  0.2782 -0.1371
  181SLPC    C120617  -0.078   5.723   3.052  0.3686 -0.6242 -0.4704
  181SLPC    HA20618  -0.123   5.789   2.975 -0.1541  0.0128  0.3709
  181SLPC    HB20619  -0.158   5.706   3.126 -0.2315  1.4130 -0.5930
  181SLPC    C220620   0.032   5.800   3.119 -0.2360  0.0519 -0.5584
  181SLPC    HS20621   0.115   5.806   3.045  0.8373  1.9670  0.7242
  181SLPC   O2120622   0.073   5.722   3.233 -0.3323 -0.0439 -0.7244
  181SLPC   C2120623   0.190   5.759   3.292  0.3076  0.1103 -0.2926
  181SLPC   O2220624   0.279   5.829   3.241 -0.2011  0.3067  0.1074
  181SLPC   C2220625   0.207   5.701   3.430 -0.5747  0.7813 -0.5948
  181SLPC   H2R20626   0.115   5.651   3.466  0.0816  0.2116  0.3470
  181SLPC   H2S20627   0.297   5.636   3.429  0.3915  1.9897  1.2270
  181SLPC    C320628  -0.018   5.942   3.144  0.0024  0.2042  0.0060
  181SLPC    HX20629  -0.125   5.923   3.167 -0.0649  2.2143  1.6008
  181SLPC    HY20630  -0.024   6.004   3.052 -0.9160 -2.0322 -1.5269
  181SLPC   O3120631   0.047   5.998   3.255 -0.2716 -0.2982 -0.2989
  181SLPC   C3120632   0.142   6.082   3.216 -0.4479  0.1134  0.1346
  181SLPC   O3220633   0.167   6.121   3.102  0.0975  0.2592 -0.2640
  181SLPC   C3220634   0.216   6.143   3.336 -0.1330  0.2984  0.4781
  181SLPC   H2X20635   0.273   6.234   3.307  2.7689 -1.2612  0.8652
  181SLPC   H2Y20636   0.297   6.071   3.359 -1.0710 -1.0504 -0.3303
  181SLPC   C2320637   0.221   5.808   3.540  0.1345 -0.2777 -0.7123
  181SLPC   H3R20638   0.123   5.860   3.548 -0.9356 -2.3924  0.7447
  181SLPC   H3S20639   0.306   5.876   3.517  1.4076 -1.6422 -0.1272
  181SLPC   C2420640   0.243   5.739   3.680  0.3782 -0.1394 -0.7970
  181SLPC   H4R20641   0.330   5.670   3.672 -0.0561 -1.1023  1.7782
  181SLPC   H4S20642   0.151   5.680   3.702  0.4645 -0.9982 -2.5719
  181SLPC   C2520643   0.257   5.839   3.797 -0.5508  0.3923  0.0431
  181SLPC   H5R20644   0.170   5.907   3.792 -1.3511 -0.5708  0.4988
  181SLPC   H5S20645   0.339   5.908   3.766 -0.5961 -0.3546 -1.8975
  181SLPC   C2620646   0.274   5.780   3.938  0.0959  0.6043 -0.2771
  181SLPC   H6R20647   0.372   5.726   3.934 -0.7729 -0.9348 -2.3334
  181SLPC   H6S20648   0.192   5.708   3.956 -0.2268  1.2263  0.8422
  181SLPC   C2720649   0.285   5.882   4.052 -0.4845 -0.4133 -0.1052
  181SLPC   H7R20650   0.186   5.931   4.050 -0.0930  0.4278  0.4616
  181SLPC   H7S20651   0.370   5.953   4.040 -1.0402  0.4333  0.7966
  181SLPC   C2820652   0.288   5.811   4.185 -0.0232  0.4178 -0.1300
  181SLPC   H8R20653   0.387   5.762   4.174  0.6126  1.5334  0.4263
  181SLPC   H8S20654   0.204   5.739   4.191  0.9418 -0.8293 -1.0247
  181SLPC   C2920655   0.283   5.909   4.303  0.0859  0.2565 -0.0586
  181SLPC   H9R20656   0.179   5.919   4.337  0.5449 -1.6279  2.1530
  181SLPC  C21020657   0.383   5.983   4.357  0.5178  0.3147 -0.6049
  181SLPC  H10R20658   0.349   6.052   4.436  1.6678  3.3557 -2.5763
  181SLPC  C21120659   0.534   5.975   4.332  0.5079  0.0044  0.0578
  181SLPC  H11R20660   0.557   5.999   4.226  1.1478  3.7484  0.8838
  181SLPC  H11S20661   0.574   5.872   4.341  2.6181  0.7122 -0.5466
  181SLPC  C21220662   0.610   6.068   4.422 -0.6769 -0.3952  0.0568
  181SLPC  H12R20663   0.606   6.040   4.528 -4.2985 -1.3650 -0.1956
  181SLPC  C21320664   0.683   6.171   4.380 -0.2696  0.4307 -0.8457
  181SLPC  H13R20665   0.721   6.238   4.458 -1.5916  1.0242 -0.6869
  181SLPC  C21420666   0.698   6.207   4.236  0.2726 -0.4541 -0.3267
  181SLPC  H14R20667   0.621   6.166   4.167  0.8058 -1.1730 -0.5088
  181SLPC  H14S20668   0.791   6.168   4.190 -0.0885 -0.9206 -0.6705
  181SLPC  C21520669   0.682   6.358   4.209 -0.7304  1.1434 -0.1394
  181SLPC  H15R20670   0.761   6.401   4.274  1.2132 -1.0916 -0.8715
  181SLPC  H15S20671   0.584   6.401   4.240 -1.2041 -1.7373  2.9360
  181SLPC  C21620672   0.699   6.380   4.061  0.3616  0.0754  0.5403
  181SLPC  H16R20673   0.655   6.475   4.023  0.1893 -1.2018 -2.7335
  181SLPC  H16S20674   0.657   6.292   4.008 -2.0991  1.3005  0.3179
  181SLPC  C21720675   0.850   6.391   4.028 -0.1324 -0.1134  0.5592
  181SLPC  H17R20676   0.920   6.328   4.086 -2.1175  0.0105  3.3017
  181SLPC  H17S20677   0.886   6.492   4.057  0.2303 -0.3623  0.9670
  181SLPC  C21820678   0.883   6.364   3.882 -0.6309 -0.6588  0.1818
  181SLPC  H18R20679   0.992   6.379   3.862 -0.2046 -0.8570  2.2137
  181SLPC  H18S20680   0.830   6.436   3.817 -0.4516 -2.1746 -1.7482
  181SLPC  H18T20681   0.846   6.264   3.850  1.3316 -0.6573 -2.5171
  181SLPC   C3320682   0.127   6.168   3.459 -0.0884  0.7930  0.4576
  181SLPC   H3X20683   0.056   6.087   3.484  2.0042 -1.5786 -0.8038
  181SLPC   H3Y20684   0.057   6.252   3.439 -0.1371  0.3806 -1.3215
  181SLPC   C3420685   0.220   6.214   3.577  0.1053  0.3511 -0.6396
  181SLPC   H4X20686   0.272   6.309   3.553 -3.0672  1.6800 -2.9005
  181SLPC   H4Y20687   0.289   6.127   3.587  0.5676  0.7147 -0.6290
  181SLPC   C3520688   0.149   6.232   3.713 -0.3710  0.4281 -0.5577
  181SLPC   H5X20689   0.095   6.137   3.735  2.5017 -1.1221  0.3869
  181SLPC   H5Y20690   0.069   6.308   3.708 -1.2551 -0.4458 -0.0447
  181SLPC   C3620691   0.250   6.259   3.821  0.7604  0.7617 -0.0522
  181SLPC   H6X20692   0.323   6.339   3.794  0.9673  1.8725  3.3574
  181SLPC   H6Y20693   0.314   6.169   3.837  2.7429  2.0442 -0.3309
  181SLPC   C3720694   0.173   6.284   3.950  0.3345 -0.2991 -0.5003
  181SLPC   H7X20695   0.117   6.189   3.963 -0.4032  0.2076  0.0743
  181SLPC   H7Y20696   0.097   6.364   3.938 -1.6414 -1.9011  0.6181
  181SLPC   C3820697   0.269   6.312   4.070 -0.1172  0.6238 -0.2713
  181SLPC   H8X20698   0.354   6.372   4.031  0.6315  0.0721  0.4825
  181SLPC   H8Y20699   0.299   6.211   4.105 -3.5690 -0.7102 -0.7277
  181SLPC   C3920700   0.189   6.401   4.168 -0.2653  0.3028  0.0123
  181SLPC   H9X20701   0.108   6.342   4.217  0.7644 -2.1713 -1.0786
  181SLPC   H9Y20702   0.138   6.481   4.111 -1.8205 -1.0744 -0.6126
  181SLPC  C31020703   0.289   6.470   4.266  0.4197 -0.4932 -0.3120
  181SLPC  H10X20704   0.351   6.542   4.209 -0.5274 -0.5336 -1.4082
  181SLPC  H10Y20705   0.359   6.392   4.304  1.2905  0.6429  0.4954
  181SLPC  C31120706   0.210   6.541   4.378 -0.5046  0.0788  0.0277
  181SLPC  H11X20707   0.154   6.459   4.429 -0.2616 -0.8499 -1.1433
  181SLPC  H11Y20708   0.136   6.603   4.324 -0.7571 -0.5095 -0.3120
  181SLPC  C31220709   0.297   6.623   4.477 -0.3537 -0.4067  0.4484
  181SLPC  H12X20710   0.331   6.708   4.414  0.8158 -0.3222  1.1576
  181SLPC  H12Y20711   0.378   6.567   4.529  0.1914 -0.2328 -0.1972
  181SLPC  C31320712   0.215   6.686   4.584  0.6121 -0.1760  0.2014
  181SLPC  H13X20713   0.166   6.599   4.633 -0.1546 -0.0576 -0.3291
  181SLPC  H13Y20714   0.142   6.751   4.532  1.2897 -0.0152 -0.5678
  181SLPC  C31420715   0.290   6.771   4.679 -0.1908  0.0398 -0.6648
  181SLPC  H14X20716   0.302   6.874   4.640 -0.4256  0.7247  0.9718
  181SLPC  H14Y20717   0.393   6.731   4.677 -0.1521  0.1513 -0.9289
  181SLPC  C31520718   0.222   6.771   4.812  0.6403 -0.3042 -0.8559
  181SLPC  H15X20719   0.215   6.662   4.834  2.8865 -0.9296 -2.8162
  181SLPC  H15Y20720   0.116   6.802   4.797  1.0844  0.9102 -1.6476
  181SLPC  C31620721   0.298   6.862   4.906  0.6330  0.4654  0.3541
  181SLPC  H16X20722   0.295   6.963   4.860  0.8113 -0.3834 -1.6170
  181SLPC  H16Y20723   0.404   6.828   4.906  0.6855  0.5779  1.4322
  181SLPC  C31720724   0.228   6.861   5.036  0.1640  0.4188 -0.5260
  181SLPC  H17X20725   0.180   6.762   5.053 -2.0239  0.8162 -3.4377
  181SLPC  H17Y20726   0.132   6.916   5.023  0.0971 -0.1588 -2.9786
  181SLPC  C31820727   0.310   6.905   5.157 -0.2559 -0.1890 -0.3391
  181SLPC  H18X20728   0.254   6.887   5.251  0.1145 -0.8276 -0.2313
  181SLPC  H18Y20729   0.351   7.008   5.166 -0.2641 -0.2662  0.6655
  181SLPC  H18Z20730   0.397   6.839   5.176  1.1183  1.4572 -0.6414
  182SLPC     N20731   5.308   5.645   2.576 -0.0293 -0.7418 -0.8366
  182SLPC   C1320732   5.390   5.761   2.586  0.0226 -0.5994  0.2000
  182SLPC  H13A20733   5.495   5.736   2.581  0.0712 -0.3313 -0.1111
  182SLPC  H13B20734   5.372   5.833   2.508 -1.7494 -1.2049  0.0241
  182SLPC  H13C20735   5.385   5.814   2.680  0.6358  0.0570 -0.1258
  182SLPC   C1420736   5.310   5.594   2.443 -0.7245 -0.0417  0.8176
  182SLPC  H14A20737   5.400   5.537   2.425  0.5397  1.9107  0.7548
  182SLPC  H14B20738   5.225   5.529   2.424  0.1064 -1.3720  1.5060
  182SLPC  H14C20739   5.299   5.680   2.379 -1.1548  0.0937  1.0741
  182SLPC   C1520740   5.159   5.687   2.609 -0.3579 -0.0257 -0.2936
  182SLPC  H15A20741   5.090   5.605   2.598 -0.0273 -0.0680 -2.4278
  182SLPC  H15B20742   5.146   5.752   2.694 -1.2355  1.5726 -1.5811
  182SLPC  H15C20743   5.122   5.763   2.541  0.5073 -1.6621 -2.7256
  182SLPC   C1220744   5.355   5.548   2.682 -0.1526  0.3304  0.8981
  182SLPC  H12A20745   5.275   5.476   2.686  1.2199 -1.3054  0.1367
  182SLPC  H12B20746   5.355   5.591   2.781 -2.8277  0.5263  0.8828
  182SLPC   C1120747   5.493   5.478   2.666  0.5374 -0.0250 -0.3947
  182SLPC  H11A20748   5.503   5.429   2.567  0.9391  0.6584 -0.6998
  182SLPC  H11B20749   5.504   5.390   2.733  0.7648 -0.7729 -1.3925
  182SLPC     P20750   5.657   5.602   2.826  0.1341  0.5262 -0.2452
  182SLPC   O1320751   5.745   5.487   2.855  0.3091 -0.4343  0.9197
  182SLPC   O1420752   5.726   5.734   2.818 -0.6533  0.0403 -0.2533
  182SLPC   O1220753   5.594   5.568   2.692  0.1926 -0.0852  0.1688
  182SLPC   O1120754   5.540   5.598   2.931 -0.6119 -0.7718  0.0983
  182SLPC    C120755   5.467   5.724   2.959 -0.2686  0.2222  0.0659
  182SLPC    HA20756   5.444   5.784   2.868 -0.9398  0.0583  0.1222
  182SLPC    HB20757   5.380   5.687   3.017 -0.0618 -0.6794 -0.1704
  182SLPC    C220758   5.524   5.831   3.058 -0.1268  0.0618  0.7842
  182SLPC    HS20759   5.628   5.851   3.024 -0.4905 -1.1010 -1.1511
  182SLPC   O2120760   5.525   5.770   3.184 -0.2637 -0.1226  0.0264
  182SLPC   C2120761   5.575   5.846   3.285  0.3005  0.5699 -0.1619
  182SLPC   O2220762   5.631   5.949   3.274 -0.7987 -0.5105  0.1717
  182SLPC   C2220763   5.540   5.771   3.416  1.3290 -0.1722 -0.6062
  182SLPC   H2R20764   5.430   5.755   3.422  1.6293 -2.9862 -1.0412
  182SLPC   H2S20765   5.586   5.670   3.409 -0.4246 -1.1838  1.3845
  182SLPC    C320766   5.433   5.959   3.069  0.1017 -0.4916 -0.2113
  182SLPC    HX20767   5.430   6.009   2.970 -2.3280 -1.0390 -0.4773
  182SLPC    HY20768   5.476   6.036   3.137  2.1098 -1.1729 -0.6221
  182SLPC   O3120769   5.292   5.929   3.103 -0.3036  0.1756 -0.5911
  182SLPC   C3120770   5.248   5.975   3.217 -0.2937  0.3248  0.1848
  182SLPC   O3220771   5.316   6.017   3.309  0.1923 -0.4389  0.0878
  182SLPC   C3220772   5.100   5.946   3.240  0.0485  0.3181  0.7619
  182SLPC   H2X20773   5.063   5.889   3.152 -2.2877  0.2422  1.7208
  182SLPC   H2Y20774   5.041   6.041   3.239 -0.4662  0.0020 -0.8312
  182SLPC   C2320775   5.603   5.857   3.524  0.4489 -0.3872 -0.4440
  182SLPC   H3R20776   5.565   5.961   3.514  0.0564 -0.4834  0.0041
  182SLPC   H3S20777   5.714   5.851   3.517  0.5248  0.1455  0.1607
  182SLPC   C2420778   5.568   5.809   3.663  0.2828 -0.2873 -0.7987
  182SLPC   H4R20779   5.609   5.706   3.679  0.1752 -0.4908 -1.7765
  182SLPC   H4S20780   5.457   5.804   3.671  0.4446 -2.7968  1.2615
  182SLPC   C2520781   5.604   5.901   3.783  0.2569  0.6028  0.2490
  182SLPC   H5R20782   5.556   6.000   3.768 -2.9086 -0.6148  1.5368
  182SLPC   H5S20783   5.715   5.908   3.777  0.2061  0.3481 -1.7062
  182SLPC   C2620784   5.555   5.852   3.926  0.3466 -0.3700 -0.0501
  182SLPC   H6R20785   5.596   5.750   3.945  0.9798  0.3952  3.2534
  182SLPC   H6S20786   5.444   5.850   3.932  0.3650 -0.3396  0.3173
  182SLPC   C2720787   5.599   5.948   4.035 -0.1589  0.5614 -0.2537
  182SLPC   H7R20788   5.543   5.936   4.130  1.4249  4.9176  1.4933
  182SLPC   H7S20789   5.567   6.052   4.013 -1.1680  0.1148 -0.9569
  182SLPC   C2820790   5.748   5.936   4.059 -0.5971  0.4308  0.1285
  182SLPC   H8R20791   5.793   5.969   3.963  0.7096 -1.1637  0.1527
  182SLPC   H8S20792   5.788   5.836   4.087 -1.2916  0.8151  2.7660
  182SLPC   C2920793   5.783   6.029   4.166  0.1629 -0.0053 -0.3423
  182SLPC   H9R20794   5.820   6.126   4.132  0.5375  0.7746  2.1001
  182SLPC  C21020795   5.786   6.003   4.302 -0.7207 -0.2870  0.3500
  182SLPC  H10R20796   5.819   6.087   4.365 -0.9641  0.1142 -0.0492
  182SLPC  C21120797   5.749   5.877   4.372  1.1156 -1.0767  0.2188
  182SLPC  H11R20798   5.740   5.794   4.300 -0.6519  1.7170 -3.0525
  182SLPC  H11S20799   5.652   5.892   4.424 -0.0555  2.8748 -2.6763
  182SLPC  C21220800   5.853   5.837   4.468 -0.8479 -0.3776 -0.0824
  182SLPC  H12R20801   5.918   5.753   4.438  0.5661  1.0168 -1.0957
  182SLPC  C21320802   5.871   5.890   4.595  0.3501 -0.5724  0.9290
  182SLPC  H13R20803   5.952   5.853   4.660  0.3768 -0.3751  1.0080
  182SLPC  C21420804   5.785   5.983   4.678  0.0234 -0.0781 -0.4187
  182SLPC  H14R20805   5.679   5.953   4.661  0.0652 -1.0542  0.8542
  182SLPC  H14S20806   5.791   6.093   4.660 -1.6306  0.1362  0.0852
  182SLPC  C21520807   5.813   5.958   4.824  0.7606  0.1934  0.1216
  182SLPC  H15R20808   5.917   5.995   4.840 -0.0529  2.6772  0.1193
  182SLPC  H15S20809   5.821   5.848   4.837  4.9412  0.1909 -0.9404
  182SLPC  C21620810   5.728   6.030   4.929 -0.4747  0.2128  0.4482
  182SLPC  H16R20811   5.779   6.010   5.025  1.9252 -1.3132 -1.0519
  182SLPC  H16S20812   5.631   5.976   4.923 -0.0996 -0.4962  0.7231
  182SLPC  C21720813   5.706   6.184   4.914  0.3972 -0.2346  0.4404
  182SLPC  H17R20814   5.640   6.220   4.996  0.3628 -0.6985  0.6213
  182SLPC  H17S20815   5.652   6.197   4.818  1.3282 -0.7371 -0.1567
  182SLPC  C21820816   5.839   6.261   4.915  0.5247  0.4094  0.5773
  182SLPC  H18R20817   5.904   6.207   4.843  0.8225 -1.5099  2.1800
  182SLPC  H18S20818   5.888   6.259   5.015 -1.6204 -0.6652  1.6699
  182SLPC  H18T20819   5.826   6.366   4.881 -1.4721 -0.1744 -0.6386
  182SLPC   C3320820   5.083   5.871   3.376 -0.0653  0.6440 -0.2920
  182SLPC   H3X20821   4.973   5.873   3.384 -0.1445  2.0135 -1.3413
  182SLPC   H3Y20822   5.139   5.917   3.461  1.9731  0.1546 -1.3017
  182SLPC   C3420823   5.106   5.720   3.382 -0.0848 -0.1485 -0.0754
  182SLPC   H4X20824   5.217   5.718   3.370 -0.0858  1.5895 -0.7252
  182SLPC   H4Y20825   5.051   5.668   3.301 -0.3470  1.0831 -0.7075
  182SLPC   C3520826   5.066   5.655   3.512 -0.2988  0.5085  0.3225
  182SLPC   H5X20827   5.054   5.545   3.500 -0.2675  0.4386  0.9193
  182SLPC   H5Y20828   4.969   5.700   3.542  0.5963  2.8620 -0.1136
  182SLPC   C3620829   5.173   5.682   3.613  0.1495 -0.5860  0.1077
  182SLPC   H6X20830   5.176   5.788   3.647 -1.9269 -0.7291  0.8491
  182SLPC   H6Y20831   5.273   5.661   3.569 -0.6019 -1.0863 -1.4164
  182SLPC   C3720832   5.164   5.589   3.733 -0.1091 -0.7438 -0.2634
  182SLPC   H7X20833   5.172   5.484   3.696 -0.4522 -0.6612 -0.5799
  182SLPC   H7Y20834   5.059   5.602   3.767 -1.1775 -1.1123 -3.1447
  182SLPC   C3820835   5.259   5.607   3.850  0.2811  0.5063 -0.3900
  182SLPC   H8X20836   5.257   5.716   3.873 -1.0823  0.4409 -0.1105
  182SLPC   H8Y20837   5.363   5.576   3.826 -0.1493  0.5679 -2.5094
  182SLPC   C3920838   5.221   5.534   3.984 -1.1187 -0.1227 -0.2183
  182SLPC   H9X20839   5.179   5.434   3.960  0.8217 -0.9557 -0.2567
  182SLPC   H9Y20840   5.149   5.598   4.040 -0.4049  1.0753 -0.6394
  182SLPC  C31020841   5.337   5.503   4.069  0.1061  0.1572  0.0435
  182SLPC  H10X20842   5.389   5.594   4.106  0.6523 -0.9172  2.0962
  182SLPC  H10Y20843   5.409   5.452   4.001 -0.1297  0.7481 -0.6707
  182SLPC  C31120844   5.305   5.413   4.188  0.3286  0.2551 -0.5599
  182SLPC  H11X20845   5.398   5.385   4.243 -1.2234 -1.7832  1.2094
  182SLPC  H11Y20846   5.264   5.320   4.145 -1.9442 -0.1061  2.0832
  182SLPC  C31220847   5.224   5.481   4.292  0.4434  0.0545  0.1189
  182SLPC  H12X20848   5.133   5.513   4.236  0.4565 -0.2070 -0.0564
  182SLPC  H12Y20849   5.287   5.559   4.340 -0.9318  0.8788  0.6380
  182SLPC  C31320850   5.191   5.384   4.412 -0.4605  0.5011  0.2678
  182SLPC  H13X20851   5.134   5.300   4.369 -0.3458  0.4498  0.2155
  182SLPC  H13Y20852   5.118   5.434   4.479  1.2756  2.0434  1.1104
  182SLPC  C31420853   5.320   5.321   4.481 -0.0618  0.4436 -0.6779
  182SLPC  H14X20854   5.371   5.410   4.523  1.4465 -0.2326 -1.0244
  182SLPC  H14Y20855   5.386   5.272   4.407  1.6675  1.9667 -0.2029
  182SLPC  C31520856   5.288   5.220   4.585 -0.2323 -0.1095 -0.1080
  182SLPC  H15X20857   5.377   5.214   4.652 -0.4499 -0.8004  0.1307
  182SLPC  H15Y20858   5.264   5.117   4.551  1.3490 -1.4372  2.4669
  182SLPC  C31620859   5.176   5.265   4.689 -0.0180  1.1088  0.7266
  182SLPC  H16X20860   5.173   5.187   4.768  0.4127  2.3568  2.0080
  182SLPC  H16Y20861   5.075   5.266   4.642  0.4869 -0.6089 -0.4946
  182SLPC  C31720862   5.221   5.384   4.776  0.2480 -0.5503  0.1780
  182SLPC  H17X20863   5.197   5.476   4.720 -0.0735 -1.7276 -1.7107
  182SLPC  H17Y20864   5.332   5.382   4.779  0.2894  0.0181 -0.7789
  182SLPC  C31820865   5.152   5.386   4.912 -0.4073 -0.0245 -0.0756
  182SLPC  H18X20866   5.155   5.484   4.965 -2.3727 -1.3619  2.7552
  182SLPC  H18Y20867   5.219   5.326   4.976  0.3709  0.2577 -0.6026
  182SLPC  H18Z20868   5.052   5.337   4.918 -0.2456 -0.3894 -0.3603
  183SLPC     N20869   6.743   2.413   2.294 -0.6012  0.4443 -0.1713
  183SLPC   C1320870   6.646   2.524   2.328  0.0193  0.0409  0.8705
  183SLPC  H13A20871   6.699   2.601   2.382  1.6399 -0.3251 -0.1241
  183SLPC  H13B20872   6.584   2.558   2.247  0.5358  0.0442  0.4674
  183SLPC  H13C20873   6.587   2.475   2.403  1.4897 -2.6431  0.4092
  183SLPC   C1420874   6.845   2.456   2.195 -0.4274  0.3073 -0.7758
  183SLPC  H14A20875   6.914   2.533   2.229 -0.7135  1.8392 -3.3762
  183SLPC  H14B20876   6.914   2.377   2.169  0.0871  0.9243 -1.3409
  183SLPC  H14C20877   6.800   2.494   2.104 -0.9812 -1.0997 -1.1007
  183SLPC   C1520878   6.667   2.297   2.230 -0.3621 -0.1669  0.0196
  183SLPC  H15A20879   6.724   2.230   2.167 -1.6755 -1.0983 -0.2101
  183SLPC  H15B20880   6.607   2.242   2.301  2.3272 -1.3461  1.5291
  183SLPC  H15C20881   6.594   2.326   2.156  0.8282  0.3263 -0.9937
  183SLPC   C1220882   6.824   2.377   2.425  0.2956 -0.9317  0.8659
  183SLPC  H12A20883   6.854   2.474   2.462 -1.9731  0.7082 -1.2840
  183SLPC  H12B20884   6.915   2.326   2.400  1.4455  2.2476 -2.2205
  183SLPC   C1120885   6.749   2.303   2.528 -0.4566 -0.3144 -0.3083
  183SLPC  H11A20886   6.822   2.275   2.607  0.2199 -2.8573 -1.7180
  183SLPC  H11B20887   6.716   2.206   2.485  3.0880 -3.3004  2.9969
  183SLPC     P20888   6.628   2.460   2.709 -0.0600  0.0359 -0.1837
  183SLPC   O1320889   6.743   2.558   2.720 -0.3112 -0.3166 -0.8677
  183SLPC   O1420890   6.490   2.504   2.711  0.4298  0.3317 -0.1199
  183SLPC   O1220891   6.642   2.377   2.575  0.0643 -0.0518 -0.2472
  183SLPC   O1120892   6.650   2.354   2.822 -0.3951  0.0826  0.3046
  183SLPC    C120893   6.561   2.264   2.870  0.9691  0.2591 -0.1027
  183SLPC    HA20894   6.463   2.261   2.817  0.6341 -0.9786  0.5655
  183SLPC    HB20895   6.608   2.164   2.866 -1.8595 -1.3581  2.9713
  183SLPC    C220896   6.515   2.291   3.022 -0.0254 -0.1981  0.1942
  183SLPC    HS20897   6.511   2.402   3.020  3.7617  0.0605  0.3959
  183SLPC   O2120898   6.607   2.233   3.109 -0.3481 -0.3974 -0.2965
  183SLPC   C2120899   6.651   2.313   3.205  0.1106  0.9086 -0.1894
  183SLPC   O2220900   6.608   2.420   3.229  0.4109 -0.4058  0.0950
  183SLPC   C2220901   6.758   2.243   3.276 -0.9287  0.0173  0.4280
  183SLPC   H2R20902   6.763   2.133   3.260 -0.2701  0.1124 -0.0849
  183SLPC   H2S20903   6.853   2.279   3.230 -1.3429  1.1776  0.4596
  183SLPC    C320904   6.373   2.234   3.044  0.2207 -0.1197  0.3272
  183SLPC    HX20905   6.383   2.125   3.057 -1.2757 -0.4731 -1.1082
  183SLPC    HY20906   6.303   2.253   2.960 -0.6677  0.4108  1.1634
  183SLPC   O3120907   6.331   2.291   3.169 -0.0431 -0.5976  0.0361
  183SLPC   C3120908   6.253   2.404   3.158  0.9300 -0.5732  0.5336
  183SLPC   O3220909   6.220   2.457   3.052 -0.1331 -0.2664 -0.1993
  183SLPC   C3220910   6.233   2.468   3.291  0.0174 -1.1884 -0.0479
  183SLPC   H2X20911   6.172   2.559   3.273  0.8962  0.1794  3.1774
  183SLPC   H2Y20912   6.328   2.513   3.326  0.6932  1.2965 -4.3222
  183SLPC   C2320913   6.769   2.270   3.427  0.6114 -0.7222 -0.4755
  183SLPC   H3R20914   6.807   2.181   3.481  0.7175 -0.9034 -0.8412
  183SLPC   H3S20915   6.677   2.310   3.474  0.9948  0.9024 -1.0150
  183SLPC   C2420916   6.870   2.380   3.465 -0.1911 -0.2820 -0.2463
  183SLPC   H4R20917   6.838   2.455   3.390 -1.5426 -0.8232 -0.2399
  183SLPC   H4S20918   6.973   2.356   3.431  0.5108  3.3805 -1.1268
  183SLPC   C2520919   6.868   2.424   3.608  0.6891 -0.8227  0.2507
  183SLPC   H5R20920   6.779   2.491   3.611  2.1961  1.2423  0.7211
  183SLPC   H5S20921   6.955   2.489   3.629 -0.7236  1.2681 -0.1073
  183SLPC   C2620922   6.861   2.317   3.717  0.0525 -0.7065  0.0835
  183SLPC   H6R20923   6.960   2.265   3.715  1.4065  1.7037 -2.3200
  183SLPC   H6S20924   6.772   2.253   3.702 -1.4434  1.1693  0.6798
  183SLPC   C2720925   6.852   2.380   3.856 -0.0605 -0.1133 -0.4504
  183SLPC   H7R20926   6.743   2.392   3.875  0.4231  1.1240  2.0185
  183SLPC   H7S20927   6.899   2.480   3.849 -0.1348 -0.1472 -1.5207
  183SLPC   C2820928   6.916   2.291   3.966  0.4638  0.1945 -0.9534
  183SLPC   H8R20929   6.919   2.350   4.060  0.4111 -1.0416 -0.1504
  183SLPC   H8S20930   7.018   2.259   3.937  1.0505 -0.0351  1.1657
  183SLPC   C2920931   6.846   2.162   3.986  0.6534 -0.1201  0.2231
  183SLPC   H9R20932   6.849   2.080   3.912  1.2808 -0.5700  0.7358
  183SLPC  C21020933   6.769   2.134   4.090  0.7125 -0.1466  0.1603
  183SLPC  H10R20934   6.724   2.034   4.092 -1.5211  0.6434 -3.1018
  183SLPC  C21120935   6.744   2.217   4.220 -0.6062  0.2815  0.5067
  183SLPC  H11R20936   6.634   2.220   4.236 -0.5461  1.0959  0.7872
  183SLPC  H11S20937   6.752   2.326   4.201 -0.4206 -0.1757 -2.5784
  183SLPC  C21220938   6.830   2.172   4.339 -0.0988 -0.2660 -0.4526
  183SLPC  H12R20939   6.863   2.067   4.342  1.6478  0.1143 -3.0989
  183SLPC  C21320940   6.850   2.250   4.447  0.6595  0.0602  0.3230
  183SLPC  H13R20941   6.894   2.198   4.534  1.5786 -0.7197 -0.5814
  183SLPC  C21420942   6.797   2.386   4.484 -0.3097 -0.3699 -0.1048
  183SLPC  H14R20943   6.734   2.371   4.575  0.0075 -4.5973 -0.3815
  183SLPC  H14S20944   6.739   2.437   4.404 -1.3986 -1.7203 -0.2271
  183SLPC  C21520945   6.917   2.475   4.531  0.3807  0.3464  0.0829
  183SLPC  H15R20946   6.968   2.495   4.434 -1.7655  1.6227 -0.8707
  183SLPC  H15S20947   6.991   2.421   4.593 -1.7896 -0.8693  1.7456
  183SLPC  C21620948   6.889   2.617   4.589 -0.1122 -0.1911  0.2770
  183SLPC  H16R20949   6.977   2.677   4.618 -0.5919  0.4181  0.5002
  183SLPC  H16S20950   6.821   2.615   4.676  0.4176 -1.1106  0.6765
  183SLPC  C21720951   6.809   2.704   4.485 -0.4817  1.0912 -0.0038
  183SLPC  H17R20952   6.720   2.647   4.450 -0.7971  1.7730 -0.3307
  183SLPC  H17S20953   6.871   2.717   4.394  0.2527 -0.6902  0.2059
  183SLPC  C21820954   6.757   2.837   4.540  1.2491 -0.0804  0.1957
  183SLPC  H18R20955   6.703   2.832   4.637 -0.0087  0.2913 -0.4603
  183SLPC  H18S20956   6.686   2.870   4.461  1.5672 -2.8056 -1.3651
  183SLPC  H18T20957   6.832   2.919   4.548  1.9502 -0.6205 -0.7093
  183SLPC   C3320958   6.164   2.382   3.400 -0.6126  0.6513  0.4978
  183SLPC   H3X20959   6.068   2.345   3.359  0.8863 -2.2270 -0.6871
  183SLPC   H3Y20960   6.144   2.452   3.484 -2.9449 -0.6981  1.1222
  183SLPC   C3420961   6.251   2.268   3.460  0.3973 -0.6093  0.4399
  183SLPC   H4X20962   6.275   2.289   3.567 -0.8645 -0.6692  0.7551
  183SLPC   H4Y20963   6.342   2.254   3.398  0.1745  1.1458 -0.3742
  183SLPC   C3520964   6.162   2.139   3.459 -0.2422 -0.1200 -0.1379
  183SLPC   H5X20965   6.059   2.164   3.492  0.8921  2.5780  1.8255
  183SLPC   H5Y20966   6.203   2.069   3.536 -1.2071  2.4170  2.9300
  183SLPC   C3620967   6.168   2.063   3.322 -0.4693  0.6560 -0.3426
  183SLPC   H6X20968   6.270   2.036   3.287 -0.4905  0.3649 -0.1832
  183SLPC   H6Y20969   6.131   2.145   3.256  1.6527  3.2983  1.5530
  183SLPC   C3720970   6.082   1.934   3.330 -0.1025 -0.3880 -0.1388
  183SLPC   H7X20971   6.096   1.865   3.416 -0.7025 -0.2493  0.0745
  183SLPC   H7Y20972   6.089   1.872   3.238 -0.0034 -1.2048  0.4156
  183SLPC   C3820973   5.940   1.976   3.333 -0.2110 -0.5153 -0.6435
  183SLPC   H8X20974   5.936   2.046   3.247  0.4433  2.2206  1.4047
  183SLPC   H8Y20975   5.918   2.032   3.427  3.6674 -2.9565  2.0492
  183SLPC   C3920976   5.844   1.857   3.314  0.8039  0.1579  0.3811
  183SLPC   H9X20977   5.887   1.802   3.227  0.5397  1.0098 -0.2941
  183SLPC   H9Y20978   5.746   1.893   3.276  1.5273  0.0274 -1.7648
  183SLPC  C31020979   5.808   1.783   3.438  0.6458  0.0792 -0.7469
  183SLPC  H10X20980   5.766   1.861   3.506  1.9398  1.3920 -1.4226
  183SLPC  H10Y20981   5.898   1.747   3.493 -0.7491 -3.2391 -0.3933
  183SLPC  C31120982   5.721   1.655   3.422  0.4314  0.0788  0.0115
  183SLPC  H11X20983   5.769   1.589   3.347 -1.2188 -0.1305 -0.9021
  183SLPC  H11Y20984   5.620   1.683   3.386 -0.3878 -1.6548  0.8654
  183SLPC  C31220985   5.696   1.578   3.553  0.1173 -0.3463 -0.3306
  183SLPC  H12X20986   5.793   1.577   3.606 -0.5097  3.3357  1.2133
  183SLPC  H12Y20987   5.653   1.477   3.538 -0.5070 -0.2352  0.6330
  183SLPC  C31320988   5.613   1.659   3.656 -0.3317 -0.4105  0.5777
  183SLPC  H13X20989   5.507   1.650   3.626 -0.0500 -0.1055 -0.5736
  183SLPC  H13Y20990   5.633   1.768   3.660 -0.4803 -0.3932  0.8571
  183SLPC  C31420991   5.629   1.621   3.805  1.0216 -0.4554 -0.2033
  183SLPC  H14X20992   5.736   1.631   3.833  0.7671 -0.8595  0.9451
  183SLPC  H14Y20993   5.582   1.521   3.814  0.4569 -0.1668  0.0568
  183SLPC  C31520994   5.532   1.711   3.893  0.1701 -0.5470  0.0531
  183SLPC  H15X20995   5.429   1.687   3.860 -0.7307  3.6856 -0.8037
  183SLPC  H15Y20996   5.563   1.818   3.888 -0.3643 -0.3956 -0.1377
  183SLPC  C31620997   5.531   1.680   4.045  0.1601  0.1828 -0.9904
  183SLPC  H16X20998   5.476   1.757   4.104 -0.2436 -1.6130  1.0897
  183SLPC  H16Y20999   5.635   1.682   4.085 -1.0571  0.4252  2.5430
  183SLPC  C31721000   5.456   1.547   4.074  0.1167 -0.8521  0.3099
  183SLPC  H17X21001   5.530   1.466   4.054  1.1352  0.4446 -1.3975
  183SLPC  H17Y21002   5.373   1.542   4.000  0.7658 -0.6640 -0.4474
  183SLPC  C31821003   5.415   1.539   4.217 -0.4176 -0.4222 -0.0612
  183SLPC  H18X21004   5.347   1.619   4.254 -0.3201  0.0077 -0.7956
  183SLPC  H18Y21005   5.510   1.533   4.273 -0.5441 -2.1334  0.0167
  183SLPC  H18Z21006   5.369   1.440   4.240  1.4998 -1.4030 -0.2286
  184SLPC     N21007   5.634   0.874   2.427  0.8527 -0.0316  0.1759
  184SLPC   C1321008   5.696   0.824   2.553  0.3348 -0.1574 -0.3839
  184SLPC  H13A21009   5.799   0.847   2.576  0.0244  2.4133 -1.2376
  184SLPC  H13B21010   5.635   0.863   2.633  1.5987  2.0577 -0.4100
  184SLPC  H13C21011   5.694   0.716   2.559 -0.3043 -0.2074 -1.2501
  184SLPC   C1421012   5.499   0.805   2.416  0.4775  0.2483 -0.4784
  184SLPC  H14A21013   5.434   0.836   2.496  0.2589  1.1673 -0.9978
  184SLPC  H14B21014   5.450   0.839   2.326 -0.1424  0.3892 -0.0893
  184SLPC  H14C21015   5.506   0.697   2.410 -2.9365 -0.0397 -1.0563
  184SLPC   C1521016   5.712   0.842   2.306 -0.7675 -0.0753 -0.0161
  184SLPC  H15A21017   5.752   0.742   2.310  1.6828  0.8619  0.5704
  184SLPC  H15B21018   5.658   0.846   2.213 -1.2022 -1.2266  0.1794
  184SLPC  H15C21019   5.793   0.911   2.289 -1.2414  0.1846 -1.3193
  184SLPC   C1221020   5.600   1.024   2.426  0.1629  0.2797  0.0195
  184SLPC  H12A21021   5.541   1.048   2.513 -0.4823 -1.9127  0.2287
  184SLPC  H12B21022   5.551   1.043   2.332  1.0574 -0.6683 -0.6619
  184SLPC   C1121023   5.712   1.136   2.438 -0.3251 -0.4482  0.4549
  184SLPC  H11A21024   5.759   1.107   2.535  1.6432  0.5884 -0.1202
  184SLPC  H11B21025   5.662   1.234   2.432  1.9396  0.6777 -3.0594
  184SLPC     P21026   5.946   1.197   2.318  0.1152 -0.2158  0.0326
  184SLPC   O1321027   5.990   1.168   2.174  0.7851  0.0089  0.1760
  184SLPC   O1421028   5.947   1.340   2.358  0.7325  0.5264 -0.0362
  184SLPC   O1221029   5.808   1.119   2.339 -0.3404  0.4842 -0.8030
  184SLPC   O1121030   6.056   1.138   2.409  0.4570  0.3489 -0.4171
  184SLPC    C121031   6.059   1.001   2.460  0.4245 -0.9924 -0.4600
  184SLPC    HA21032   5.967   0.944   2.438  1.6045 -2.5027 -1.6681
  184SLPC    HB21033   6.134   0.948   2.398  0.0695  0.8798 -2.6476
  184SLPC    C221034   6.084   0.990   2.613  0.0880 -0.1551  0.5343
  184SLPC    HS21035   6.106   0.883   2.632 -0.4208  0.0825  2.6308
  184SLPC   O2121036   5.967   1.026   2.682 -0.1020 -0.0060 -0.0954
  184SLPC   C2121037   5.944   0.956   2.789 -0.4734  0.1928 -0.2400
  184SLPC   O2221038   5.997   0.846   2.813  0.0924 -0.5203 -0.0742
  184SLPC   C2221039   5.853   1.044   2.879 -0.0162  0.3709 -0.0340
  184SLPC   H2R21040   5.926   1.107   2.935 -0.4987 -2.1527  3.8496
  184SLPC   H2S21041   5.783   1.098   2.811 -1.5363 -0.9626  0.3952
  184SLPC    C321042   6.218   1.069   2.646 -0.1766 -0.1257 -0.8815
  184SLPC    HX21043   6.203   1.178   2.631 -1.1288  0.0486  0.9649
  184SLPC    HY21044   6.300   1.036   2.579 -0.8484 -1.0849 -1.2565
  184SLPC   O3121045   6.262   1.047   2.780  0.3058  0.1158 -0.6947
  184SLPC   C3121046   6.312   0.928   2.811 -0.5112 -0.1862  0.4929
  184SLPC   O3221047   6.298   0.826   2.747 -0.1245 -0.0616  0.3551
  184SLPC   C3221048   6.405   0.937   2.925 -0.1962 -1.2769 -0.5360
  184SLPC   H2X21049   6.499   0.977   2.882  0.8882 -3.8585 -0.7947
  184SLPC   H2Y21050   6.433   0.833   2.952  2.4118 -0.2461  1.0981
  184SLPC   C2321051   5.777   0.966   2.988 -0.8217 -0.1708  0.2707
  184SLPC   H3R21052   5.861   0.916   3.040  0.4830  0.3807 -1.2530
  184SLPC   H3S21053   5.712   0.891   2.938  1.1858 -0.0315 -2.7727
  184SLPC   C2421054   5.701   1.065   3.083 -0.7447  0.2795 -0.0338
  184SLPC   H4R21055   5.621   1.111   3.021 -2.9086 -0.7023  1.8571
  184SLPC   H4S21056   5.767   1.145   3.123 -0.6140  0.5764 -0.8264
  184SLPC   C2521057   5.634   0.997   3.204 -1.0416 -0.7843  0.3453
  184SLPC   H5R21058   5.699   0.934   3.269 -0.7970 -1.7299 -0.7772
  184SLPC   H5S21059   5.554   0.934   3.159  0.6116 -1.9190 -1.1755
  184SLPC   C2621060   5.570   1.107   3.290  0.1944  0.5001 -0.6399
  184SLPC   H6R21061   5.492   1.078   3.363  1.5044  2.3608  1.6228
  184SLPC   H6S21062   5.508   1.161   3.215  0.5577 -0.1525 -1.4321
  184SLPC   C2721063   5.662   1.200   3.374  0.2014 -0.2703  0.5501
  184SLPC   H7R21064   5.615   1.287   3.425 -0.7316  0.9837 -2.2707
  184SLPC   H7S21065   5.736   1.243   3.303 -2.0737  0.0250 -1.7707
  184SLPC   C2821066   5.745   1.129   3.497  0.2126  0.0846  0.6713
  184SLPC   H8R21067   5.816   1.205   3.534  1.3230 -0.2977 -0.5970
  184SLPC   H8S21068   5.812   1.055   3.449  2.0360  0.4656  2.5063
  184SLPC   C2921069   5.648   1.073   3.597  0.2286  0.1583  0.1829
  184SLPC   H9R21070   5.561   1.027   3.548 -1.4060  2.1438  1.0644
  184SLPC  C21021071   5.666   1.085   3.729  0.9850  0.1797 -0.1395
  184SLPC  H10R21072   5.593   1.030   3.790  0.6632  1.5290  0.7371
  184SLPC  C21121073   5.779   1.145   3.806  0.1969  0.4610  0.5398
  184SLPC  H11R21074   5.868   1.149   3.740 -0.7158  0.2768 -0.7409
  184SLPC  H11S21075   5.802   1.077   3.890  0.1446  0.2812  0.4090
  184SLPC  C21221076   5.751   1.290   3.849 -0.4748 -0.7635  0.3055
  184SLPC  H12R21077   5.755   1.355   3.761 -0.4991 -0.7343  0.3256
  184SLPC  C21321078   5.725   1.331   3.967  0.2503 -0.3345  0.4097
  184SLPC  H13R21079   5.702   1.439   3.974 -1.8290 -0.6789 -0.2256
  184SLPC  C21421080   5.715   1.263   4.105  0.6387  0.1260  0.2209
  184SLPC  H14R21081   5.783   1.174   4.112  1.5288  0.8350  0.9110
  184SLPC  H14S21082   5.614   1.252   4.149  0.0329 -1.1945 -1.4038
  184SLPC  C21521083   5.804   1.354   4.196 -0.0757  0.2703  0.2984
  184SLPC  H15R21084   5.817   1.311   4.297  2.2752  1.9172  0.7896
  184SLPC  H15S21085   5.749   1.449   4.215  0.0795  0.7154 -1.3030
  184SLPC  C21621086   5.942   1.396   4.152 -0.1652 -0.2400  0.0946
  184SLPC  H16R21087   5.987   1.454   4.236  0.4253 -1.0515  0.3502
  184SLPC  H16S21088   5.936   1.467   4.067 -1.0182 -0.7130 -0.2471
  184SLPC  C21721089   6.050   1.290   4.127 -0.5336  0.4441 -0.3846
  184SLPC  H17R21090   6.142   1.344   4.096 -0.3072  1.5755  2.0218
  184SLPC  H17S21091   6.018   1.222   4.045  1.7548 -2.5978  1.0548
  184SLPC  C21821092   6.087   1.200   4.243  0.1706  0.4824  0.4356
  184SLPC  H18R21093   6.025   1.108   4.245  1.7607 -0.6603 -0.1544
  184SLPC  H18S21094   6.084   1.247   4.343  2.6022  0.8986  0.3850
  184SLPC  H18T21095   6.182   1.143   4.233 -0.3613 -0.3289 -0.1458
  184SLPC   C3321096   6.344   0.994   3.056  0.6422 -0.1633 -0.1918
  184SLPC   H3X21097   6.262   0.926   3.085  0.3111 -0.1233 -0.9978
  184SLPC   H3Y21098   6.304   1.095   3.031 -0.4940 -0.6198 -0.2730
  184SLPC   C3421099   6.448   1.001   3.170  0.0486 -0.6352  0.1444
  184SLPC   H4X21100   6.536   1.067   3.160 -0.6950  0.5017  0.9135
  184SLPC   H4Y21101   6.482   0.896   3.187 -0.3456 -0.5836  1.3600
  184SLPC   C3521102   6.376   1.052   3.306 -0.6905  0.2858  0.1562
  184SLPC   H5X21103   6.289   0.984   3.312  0.0190 -0.6785 -0.2283
  184SLPC   H5Y21104   6.329   1.153   3.303 -0.8893  0.1935  0.1663
  184SLPC   C3621105   6.459   1.031   3.435  0.2458 -0.0540 -0.1546
  184SLPC   H6X21106   6.555   1.085   3.422  0.4696 -0.5052 -0.4066
  184SLPC   H6Y21107   6.476   0.928   3.471  1.1159  0.4145  0.8071
  184SLPC   C3721108   6.392   1.084   3.560 -0.3603 -0.1632  0.2864
  184SLPC   H7X21109   6.295   1.031   3.570 -0.9870  0.7890 -0.4770
  184SLPC   H7Y21110   6.364   1.188   3.531 -0.2749 -0.4465 -0.8706
  184SLPC   C3821111   6.490   1.077   3.681  0.0572  0.1614 -0.1250
  184SLPC   H8X21112   6.578   1.141   3.656 -1.1145  1.8859 -0.0032
  184SLPC   H8Y21113   6.519   0.971   3.693 -0.7429 -0.1126 -0.5024
  184SLPC   C3921114   6.421   1.122   3.810  0.1968 -1.0923 -0.3201
  184SLPC   H9X21115   6.345   1.044   3.831 -1.0618 -0.2571 -1.5768
  184SLPC   H9Y21116   6.373   1.217   3.778  4.4534  0.6907 -2.1696
  184SLPC  C31021117   6.513   1.130   3.938 -0.1137  0.4578 -0.4598
  184SLPC  H10X21118   6.603   1.191   3.913  1.0052 -0.7027  0.5644
  184SLPC  H10Y21119   6.551   1.029   3.961 -0.9694  0.3220  0.4100
  184SLPC  C31121120   6.443   1.180   4.066  0.0123  0.2565 -0.2962
  184SLPC  H11X21121   6.352   1.117   4.081 -0.0992  0.1242 -1.4374
  184SLPC  H11Y21122   6.414   1.286   4.056  4.1846  1.5111 -1.2193
  184SLPC  C31221123   6.527   1.166   4.192 -0.5882 -0.8383  0.0572
  184SLPC  H12X21124   6.622   1.222   4.179 -1.5106  1.4655  2.4451
  184SLPC  H12Y21125   6.548   1.059   4.215 -0.2899 -0.1372  3.7212
  184SLPC  C31321126   6.458   1.224   4.318 -0.2524 -0.5742  0.1840
  184SLPC  H13X21127   6.374   1.163   4.358 -0.4927  0.2420  0.9763
  184SLPC  H13Y21128   6.417   1.325   4.298  1.6109  0.8306  2.7723
  184SLPC  C31421129   6.552   1.238   4.443 -0.3834  0.0120  0.6923
  184SLPC  H14X21130   6.647   1.290   4.415 -0.3989 -1.4342 -2.3536
  184SLPC  H14Y21131   6.574   1.140   4.489 -1.0667 -0.2512  0.4531
  184SLPC  C31521132   6.483   1.321   4.551  0.2956  0.1486  0.1518
  184SLPC  H15X21133   6.387   1.272   4.575 -0.3387  1.5481  0.5728
  184SLPC  H15Y21134   6.462   1.423   4.511 -1.6205  0.9143  2.8028
  184SLPC  C31621135   6.568   1.340   4.679 -0.4456 -0.7868  0.1844
  184SLPC  H16X21136   6.602   1.237   4.704 -1.2793 -0.4966  2.7712
  184SLPC  H16Y21137   6.508   1.379   4.763  1.0710  0.2898  0.8223
  184SLPC  C31721138   6.693   1.431   4.672 -0.3096  0.3896  0.6246
  184SLPC  H17X21139   6.753   1.420   4.578  0.1910  0.6102  0.9119
  184SLPC  H17Y21140   6.763   1.390   4.748 -1.1950 -2.2004  0.1248
  184SLPC  C31821141   6.644   1.574   4.677  0.1382  0.1120  0.0040
  184SLPC  H18X21142   6.733   1.640   4.670 -0.4906  0.9374 -0.4759
  184SLPC  H18Y21143   6.591   1.600   4.771 -0.7335  2.1368 -0.9794
  184SLPC  H18Z21144   6.588   1.593   4.582 -2.0921 -1.2880  0.9563
  185POPC     N21145   2.004   5.188   6.932 -0.3902 -0.2923  0.3233
  185POPC   C1221146   2.043   5.083   6.823  0.7008 -0.5531 -0.1922
  185POPC  H12A21147   2.067   4.986   6.863  0.9682 -0.3433  0.1623
  185POPC  H12B21148   2.135   5.124   6.782  0.8358  0.0657  0.6891
  185POPC   C1321149   1.996   5.324   6.862  0.0959 -0.0472  0.3594
  185POPC  H13A21150   2.077   5.341   6.792 -0.3464 -0.0938 -0.1708
  185POPC  H13B21151   1.906   5.331   6.803 -0.0732  2.5016  0.8071
  185POPC  H13C21152   2.000   5.406   6.932  0.3255  1.0323 -0.8619
  185POPC   C1421153   1.876   5.153   7.000 -0.8162 -0.4999 -0.2773
  185POPC  H14A21154   1.872   5.053   7.039 -1.5736 -0.9608 -1.4682
  185POPC  H14B21155   1.854   5.215   7.085 -1.8150 -2.9302  1.3477
  185POPC  H14C21156   1.792   5.154   6.932 -1.2923 -0.8461  0.3030
  185POPC   C1521157   2.111   5.195   7.033  0.1462 -0.4331 -0.4331
  185POPC  H15A21158   2.207   5.220   6.989  0.9763 -1.6913  0.6025
  185POPC  H15B21159   2.108   5.115   7.104 -3.7641  0.4201  0.6232
  185POPC  H15C21160   2.080   5.281   7.090 -1.0562 -0.2623 -1.2915
  185POPC   C1121161   1.940   5.055   6.714  0.3921 -0.2113 -0.7826
  185POPC  H11A21162   2.001   4.996   6.642 -0.3241 -1.8581 -0.0820
  185POPC  H11B21163   1.912   5.152   6.668 -0.1884 -0.2934 -0.6143
  185POPC     P21164   1.817   4.841   6.797 -0.3201 -0.5633 -0.2594
  185POPC   O1321165   1.688   4.813   6.855 -0.3171 -0.1642 -0.2983
  185POPC   O1421166   1.942   4.808   6.872  0.6625 -0.1569  0.6257
  185POPC   O1221167   1.818   4.990   6.766 -0.3308  0.2518  0.0186
  185POPC   O1121168   1.822   4.777   6.656  0.3395 -0.5310  0.0661
  185POPC    C121169   1.750   4.816   6.542 -0.3724  0.8331 -0.0036
  185POPC    HA21170   1.777   4.921   6.518  0.0846  1.1526  1.7374
  185POPC    HB21171   1.644   4.799   6.570 -0.4913 -2.0658 -1.7999
  185POPC    C221172   1.778   4.720   6.421 -1.0688  0.1560 -0.6028
  185POPC    HS21173   1.719   4.627   6.433 -1.4180  0.6383  2.1063
  185POPC   O2121174   1.921   4.685   6.398 -0.0264  0.1731 -0.1454
  185POPC   C2121175   1.949   4.556   6.408  0.4805  0.3044  0.3312
  185POPC   O2221176   1.870   4.470   6.457  0.5126 -0.9231  0.3936
  185POPC   C2221177   2.098   4.522   6.363 -0.1824  0.7487  0.1875
  185POPC   H2R21178   2.140   4.443   6.429  3.3570  2.6738  0.5016
  185POPC   H2S21179   2.156   4.607   6.404 -1.0269  0.8889  1.1250
  185POPC    C321180   1.723   4.790   6.292 -0.1651 -0.0155 -0.1441
  185POPC    HX21181   1.800   4.868   6.274 -0.0622 -0.3903 -1.4350
  185POPC    HY21182   1.625   4.839   6.310  0.6388  0.7801  2.5404
  185POPC   O3121183   1.725   4.704   6.180 -0.3221  0.4306  0.4910
  185POPC   C3121184   1.645   4.602   6.182 -0.5191  0.4080 -0.1775
  185POPC   O3221185   1.563   4.578   6.263  0.2757  0.0176 -1.3175
  185POPC   C3221186   1.694   4.507   6.079  0.0166  0.3053  0.4207
  185POPC   H2X21187   1.637   4.412   6.090 -0.2005  0.4294  0.3936
  185POPC   H2Y21188   1.798   4.474   6.096 -0.5177 -0.9762  1.3978
  185POPC   C2321189   2.110   4.496   6.213 -0.3527  0.8027 -0.1057
  185POPC   H3R21190   2.048   4.404   6.197  1.2457 -0.7017  1.8296
  185POPC   H3S21191   2.217   4.472   6.196 -0.6431  0.1205 -1.0636
  185POPC   C2421192   2.074   4.616   6.124  0.4121  0.4095 -0.5455
  185POPC   H4R21193   2.146   4.699   6.137  2.6569 -1.2866 -1.3830
  185POPC   H4S21194   1.975   4.660   6.146 -0.7078 -1.9448 -0.5081
  185POPC   C2521195   2.077   4.575   5.975 -0.2759 -0.5465  0.6444
  185POPC   H5R21196   2.000   4.496   5.959  0.2338 -0.6931 -1.5205
  185POPC   H5S21197   2.178   4.539   5.944  0.6254  2.3408 -0.1092
  185POPC   C2621198   2.068   4.697   5.879  0.0054  0.0644  0.3342
  185POPC   H6R21199   2.151   4.767   5.902  1.1851 -0.5121 -1.8921
  185POPC   H6S21200   1.965   4.734   5.899 -0.5046 -2.0689  2.1161
  185POPC   C2721201   2.083   4.662   5.728  0.6578  0.0972  0.2136
  185POPC   H7R21202   1.992   4.604   5.703 -0.8444  1.7232  1.6176
  185POPC   H7S21203   2.171   4.597   5.708 -0.1483 -0.5407 -1.5420
  185POPC   C2821204   2.080   4.783   5.633 -0.2046 -0.2073 -0.1011
  185POPC   H8R21205   2.185   4.817   5.621 -0.2795  0.2989  0.5765
  185POPC   H8S21206   2.037   4.870   5.687  1.6951  0.6384  0.1545
  185POPC   C2921207   2.013   4.761   5.506 -0.1117 -0.1133  0.0198
  185POPC   H9121208   1.917   4.814   5.492 -2.1348 -2.8235  2.4578
  185POPC  C21021209   2.067   4.703   5.398 -0.0922 -0.1819 -1.0459
  185POPC  H10121210   2.003   4.698   5.309  0.4618  4.5521 -1.9964
  185POPC  C21121211   2.199   4.626   5.392 -0.2526  0.1299  0.0856
  185POPC  H11R21212   2.210   4.565   5.484  0.4815 -2.3613 -1.5750
  185POPC  H11S21213   2.290   4.690   5.395  1.1344 -1.7240 -0.7503
  185POPC  C21221214   2.212   4.535   5.277 -0.8211 -0.1240  0.6803
  185POPC  H12R21215   2.125   4.466   5.274 -0.6218 -0.3963  0.9918
  185POPC  H12S21216   2.308   4.479   5.288  0.6415  1.9346 -0.8776
  185POPC  C21321217   2.210   4.599   5.136  0.1111 -0.2158  0.0326
  185POPC  H13R21218   2.306   4.651   5.113 -0.0183 -0.9816 -2.5570
  185POPC  H13S21219   2.133   4.679   5.128  1.4945  1.4735  2.2973
  185POPC  C21421220   2.213   4.501   5.018 -0.4763 -0.1819  0.0500
  185POPC  H14R21221   2.110   4.460   5.016 -0.8741  0.7438  0.7704
  185POPC  H14S21222   2.289   4.421   5.032 -1.2332 -0.5204  2.7717
  185POPC  C21521223   2.247   4.562   4.882  0.0213  0.5696 -0.2426
  185POPC  H15R21224   2.260   4.475   4.814 -2.4072  0.0319 -0.1108
  185POPC  H15S21225   2.346   4.613   4.886  1.8571 -2.3569 -3.3883
  185POPC  C21621226   2.139   4.662   4.831  0.0852  0.0915 -0.1878
  185POPC  H16R21227   2.111   4.727   4.917  0.4840  0.6853 -0.5054
  185POPC  H16S21228   2.044   4.609   4.809 -0.2324  0.3298  0.5920
  185POPC  C21721229   2.193   4.744   4.715 -0.5205 -0.1543  0.1508
  185POPC  H17R21230   2.230   4.670   4.641 -1.1334 -0.5522  0.2416
  185POPC  H17S21231   2.290   4.792   4.739  0.1923 -1.4502 -0.0130
  185POPC  C21821232   2.091   4.841   4.651  0.7521 -0.4513  0.1150
  185POPC  H18R21233   2.011   4.781   4.603  0.5075 -1.5938  1.8226
  185POPC  H18S21234   2.141   4.905   4.576 -0.0582  1.5239  1.1872
  185POPC  H18T21235   2.057   4.922   4.719 -0.8833 -0.9870 -0.0317
  185POPC   C3321236   1.666   4.540   5.934 -0.0614 -0.8409 -0.3905
  185POPC   H3X21237   1.716   4.635   5.906 -2.1165  0.9325  1.5657
  185POPC   H3Y21238   1.561   4.568   5.914  0.4954  1.4957 -0.2888
  185POPC   C3421239   1.717   4.441   5.825 -0.5066 -0.5025 -0.0031
  185POPC   H4X21240   1.667   4.344   5.845 -0.6694  0.0967  3.0203
  185POPC   H4Y21241   1.823   4.411   5.838 -0.7144 -1.7632 -1.0092
  185POPC   C3521242   1.701   4.483   5.682 -0.2918 -0.2691  0.0327
  185POPC   H5X21243   1.761   4.576   5.670 -1.2198  0.0875 -2.4431
  185POPC   H5Y21244   1.598   4.518   5.663 -0.6228 -0.8275  0.7484
  185POPC   C3621245   1.749   4.383   5.580  1.3619  0.3040 -0.8341
  185POPC   H6X21246   1.683   4.293   5.586  2.8987 -0.7952  0.5374
  185POPC   H6Y21247   1.849   4.343   5.606  0.6793  0.6173  2.7164
  185POPC   C3721248   1.744   4.451   5.439 -0.7474  1.1580  0.4384
  185POPC   H7X21249   1.799   4.548   5.450 -0.0746  0.8218  0.0902
  185POPC   H7Y21250   1.637   4.463   5.414 -0.6234  3.9330  0.8160
  185POPC   C3821251   1.814   4.372   5.333 -0.0530 -0.1080 -0.3507
  185POPC   H8X21252   1.775   4.269   5.320  1.3679 -0.5442 -1.4703
  185POPC   H8Y21253   1.919   4.365   5.368 -0.6200  1.8507  2.0733
  185POPC   C3921254   1.811   4.448   5.192  0.5133  0.1922  0.6514
  185POPC   H9X21255   1.885   4.406   5.121 -1.6224 -1.2063 -0.8816
  185POPC   H9Y21256   1.846   4.551   5.217  3.5932 -0.7846  0.7212
  185POPC  C31021257   1.670   4.446   5.126 -0.1864  0.7525 -0.1314
  185POPC  H10X21258   1.599   4.495   5.195  0.7467 -0.4173  1.7289
  185POPC  H10Y21259   1.636   4.342   5.107  1.0294 -0.1519  2.2150
  185POPC  C31121260   1.665   4.523   4.993  0.5115  0.1693 -1.0632
  185POPC  H11X21261   1.726   4.615   5.004 -0.5125  0.6457  1.1527
  185POPC  H11Y21262   1.559   4.555   4.983  0.4434  0.7539  1.0622
  185POPC  C31221263   1.697   4.434   4.878  0.1629  1.3321 -0.0445
  185POPC  H12X21264   1.613   4.362   4.868  1.3146 -0.1682  0.6010
  185POPC  H12Y21265   1.789   4.374   4.900  0.7218  1.0767 -2.7261
  185POPC  C31321266   1.728   4.509   4.746  0.9997  0.2751 -0.0970
  185POPC  H13X21267   1.803   4.580   4.786  2.6172 -1.0584 -0.6599
  185POPC  H13Y21268   1.638   4.564   4.709  0.7727 -0.9210 -1.4329
  185POPC  C31421269   1.785   4.418   4.645 -0.4404  0.4137  0.8005
  185POPC  H14X21270   1.888   4.393   4.680 -0.1308 -0.3298 -0.5819
  185POPC  H14Y21271   1.795   4.475   4.550 -0.8475  1.1869  1.2114
  185POPC  C31521272   1.711   4.292   4.632  0.6281 -0.6748  0.7757
  185POPC  H15X21273   1.611   4.332   4.605  1.0178 -0.0054  0.3128
  185POPC  H15Y21274   1.694   4.223   4.718 -0.9304 -2.4317 -0.8439
  185POPC  C31621275   1.758   4.229   4.501 -0.1489  0.4007 -0.7916
  185POPC  H16X21276   1.800   4.310   4.437 -0.9780  1.9567  0.5554
  185POPC  H16Y21277   1.683   4.169   4.445  2.0291 -1.4095 -1.9495
  185POPC  H16Z21278   1.845   4.162   4.519  0.4912  1.3910 -0.1277
  186POPC     N21279   4.250   3.371   7.245 -0.2478 -0.3937  0.2077
  186POPC   C1221280   4.199   3.249   7.182  0.8864 -0.0266  0.1648
  186POPC  H12A21281   4.109   3.209   7.225  0.8268 -0.1751 -0.0970
  186POPC  H12B21282   4.265   3.167   7.208  1.5724 -0.3986 -2.4940
  186POPC   C1321283   4.162   3.491   7.213  0.1996 -0.3472  0.1594
  186POPC  H13A21284   4.123   3.487   7.113  0.6227 -1.0832  0.0204
  186POPC  H13B21285   4.073   3.488   7.273  1.7288  1.2642  2.7477
  186POPC  H13C21286   4.212   3.587   7.220  0.5451 -0.5602  0.7545
  186POPC   C1421287   4.267   3.349   7.393 -0.3417  0.2861  0.1771
  186POPC  H14A21288   4.301   3.441   7.438 -1.4643  1.0155 -0.4374
  186POPC  H14B21289   4.174   3.315   7.436  0.6050 -2.5990  0.1986
  186POPC  H14C21290   4.341   3.271   7.410  0.1017  0.8658  1.0213
  186POPC   C1521291   4.389   3.395   7.189  0.0553  0.6089  0.4603
  186POPC  H15A21292   4.386   3.394   7.081 -0.3342 -0.1585  0.4683
  186POPC  H15B21293   4.446   3.309   7.221 -1.2293  0.1609  1.6398
  186POPC  H15C21294   4.441   3.484   7.222 -0.7573  1.8374 -1.4105
  186POPC   C1121295   4.182   3.234   7.028 -0.7573  0.0041  0.8344
  186POPC  H11A21296   4.150   3.130   7.007  0.4886 -0.2106 -0.1567
  186POPC  H11B21297   4.287   3.238   6.992 -1.2840  1.3312 -0.7269
  186POPC     P21298   3.937   3.300   6.981  0.1388  0.3819 -0.2974
  186POPC   O1321299   3.872   3.431   6.973 -0.0126 -0.1294 -0.0538
  186POPC   O1421300   3.924   3.230   7.110  0.5061 -0.3611 -0.5111
  186POPC   O1221301   4.093   3.326   6.966  0.0290  0.2880  0.4289
  186POPC   O1121302   3.897   3.213   6.862  0.0601  0.6667  0.1775
  186POPC    C121303   3.965   3.221   6.734 -1.0415  0.0484  0.3551
  186POPC    HA21304   3.949   3.128   6.675  2.7645  0.3500 -1.4608
  186POPC    HB21305   4.075   3.213   6.744 -0.8967  0.8087 -0.5264
  186POPC    C221306   3.908   3.345   6.656  0.4080  0.4367 -0.0590
  186POPC    HS21307   3.944   3.433   6.714  2.5072 -0.8792  0.7621
  186POPC   O2121308   3.762   3.325   6.647  0.3662  0.4116 -0.3158
  186POPC   C2121309   3.690   3.432   6.626  0.3978 -0.2766 -1.2379
  186POPC   O2221310   3.727   3.546   6.609 -0.3530 -0.3576  0.3515
  186POPC   C2221311   3.541   3.401   6.634 -0.2845 -0.1223 -0.5914
  186POPC   H2R21312   3.514   3.421   6.740  2.7971 -0.6439  0.3958
  186POPC   H2S21313   3.529   3.296   6.599 -2.8574  0.4849 -1.7915
  186POPC    C321314   3.965   3.360   6.514  0.8055  0.2087 -0.2555
  186POPC    HX21315   3.904   3.442   6.472  0.0997  0.2278  0.7442
  186POPC    HY21316   3.949   3.272   6.448 -0.7174  0.2983 -0.0475
  186POPC   O3121317   4.106   3.400   6.535  0.3038 -0.4700 -0.3578
  186POPC   C3121318   4.147   3.460   6.415  0.8738  0.0142 -0.3525
  186POPC   O3221319   4.080   3.463   6.311 -0.2335  0.0920 -1.1180
  186POPC   C3221320   4.281   3.522   6.442 -0.7713 -0.0139 -0.6667
  186POPC   H2X21321   4.357   3.447   6.474 -1.8863 -0.0120  2.2348
  186POPC   H2Y21322   4.266   3.582   6.535  0.0334 -0.9317  0.0695
  186POPC   C2321323   3.465   3.495   6.545 -0.0251 -0.0063 -0.0818
  186POPC   H3R21324   3.481   3.604   6.560 -0.6042  0.0049  0.4789
  186POPC   H3S21325   3.355   3.483   6.555 -0.2867  2.0925 -0.0141
  186POPC   C2421326   3.491   3.465   6.400  0.5024 -0.3280  0.1504
  186POPC   H4R21327   3.471   3.359   6.374  0.5076 -0.1154 -0.7687
  186POPC   H4S21328   3.590   3.497   6.362 -0.1886 -2.3012 -3.8709
  186POPC   C2521329   3.386   3.552   6.304 -0.6843  0.2230  0.2307
  186POPC   H5R21330   3.368   3.652   6.347 -1.9664  0.5456 -0.9934
  186POPC   H5S21331   3.290   3.496   6.301  0.4880 -1.8868 -1.0102
  186POPC   C2621332   3.442   3.558   6.160  0.5753  0.1554 -0.3994
  186POPC   H6R21333   3.455   3.461   6.107 -0.5559  0.2587 -0.9087
  186POPC   H6S21334   3.547   3.594   6.164  1.4211 -2.2075  0.8289
  186POPC   C2721335   3.367   3.665   6.073  1.0553  0.2115 -0.1688
  186POPC   H7R21336   3.439   3.723   6.012  2.6083 -0.0023  1.3721
  186POPC   H7S21337   3.326   3.747   6.136  0.9832 -0.1069  0.2009
  186POPC   C2821338   3.250   3.610   5.982 -0.2216 -0.0528  0.2874
  186POPC   H8R21339   3.208   3.694   5.922  1.3115  1.8659  1.7553
  186POPC   H8S21340   3.173   3.552   6.038 -0.6989  0.9637  0.7126
  186POPC   C2921341   3.292   3.508   5.878 -0.5562 -0.1758 -0.4583
  186POPC   H9121342   3.305   3.405   5.915 -0.4825  0.6510  1.9801
  186POPC  C21021343   3.288   3.523   5.744  0.3345  0.2801  0.3932
  186POPC  H10121344   3.307   3.441   5.673 -1.3850  0.9639 -0.9021
  186POPC  C21121345   3.256   3.646   5.669  0.0657 -0.0105 -0.2591
  186POPC  H11R21346   3.352   3.702   5.662  0.1427 -0.2563 -1.4129
  186POPC  H11S21347   3.167   3.697   5.712 -0.3787 -1.0878  0.1446
  186POPC  C21221348   3.212   3.613   5.524  0.0456  0.3566 -0.0229
  186POPC  H12R21349   3.123   3.547   5.530 -1.0114  1.7236 -0.0265
  186POPC  H12S21350   3.297   3.559   5.478  1.1992 -0.5264  2.8885
  186POPC  C21321351   3.190   3.740   5.438  0.0633  0.2276 -0.1769
  186POPC  H13R21352   3.279   3.804   5.420 -0.1413  0.5919  0.0853
  186POPC  H13S21353   3.112   3.806   5.482 -0.3116 -0.4110  0.1259
  186POPC  C21421354   3.136   3.707   5.302  0.3166  0.2559  0.3890
  186POPC  H14R21355   3.225   3.670   5.247  1.1328 -0.6061  2.2257
  186POPC  H14S21356   3.110   3.803   5.251 -1.3716 -1.7955 -2.9432
  186POPC  C21521357   3.018   3.606   5.283 -0.0868  0.0430  0.3265
  186POPC  H15R21358   2.922   3.644   5.323 -0.1755  1.0035 -0.7716
  186POPC  H15S21359   3.044   3.519   5.348  0.4267  0.1318  0.2497
  186POPC  C21621360   2.998   3.558   5.144 -0.0667  0.0464 -0.2021
  186POPC  H16R21361   3.087   3.502   5.109  0.8632  0.9096  0.7518
  186POPC  H16S21362   2.976   3.631   5.064  1.1831 -3.5388 -4.1798
  186POPC  C21721363   2.875   3.464   5.133 -0.3816 -0.0579  0.6126
  186POPC  H17R21364   2.792   3.535   5.154 -0.7639 -0.5048  0.6201
  186POPC  H17S21365   2.871   3.378   5.204  0.3086 -1.5010 -1.0212
  186POPC  C21821366   2.845   3.410   4.994 -0.3810 -0.7211  0.5054
  186POPC  H18R21367   2.766   3.333   4.978  0.7494 -1.2127 -4.1259
  186POPC  H18S21368   2.943   3.372   4.957  0.1725  0.1349  1.0716
  186POPC  H18T21369   2.829   3.490   4.919 -1.0139 -1.7340 -0.4877
  186POPC   C3321370   4.318   3.628   6.330 -0.1991  0.3286 -0.0067
  186POPC   H3X21371   4.382   3.699   6.387 -1.8278 -0.1155  2.5845
  186POPC   H3Y21372   4.230   3.674   6.279 -1.0690 -0.3800  0.8123
  186POPC   C3421373   4.405   3.559   6.221  0.0971 -0.1140 -1.0235
  186POPC   H4X21374   4.340   3.479   6.180 -2.5195  0.8819  0.9472
  186POPC   H4Y21375   4.495   3.512   6.268 -1.0656 -0.7054  0.7084
  186POPC   C3521376   4.439   3.650   6.096  0.3168 -0.0459 -0.4897
  186POPC   H5X21377   4.537   3.695   6.122 -0.8422  1.6844  1.0608
  186POPC   H5Y21378   4.368   3.734   6.109  0.4726 -0.1892  1.5563
  186POPC   C3621379   4.451   3.573   5.968  0.2058  0.0798 -0.0509
  186POPC   H6X21380   4.346   3.539   5.949  0.0694  0.1471  0.5816
  186POPC   H6Y21381   4.512   3.480   5.966 -0.4288 -0.3501  0.0967
  186POPC   C3721382   4.490   3.647   5.842 -0.0076 -0.3574  0.0023
  186POPC   H7X21383   4.591   3.689   5.864 -1.0007  1.5091  1.2459
  186POPC   H7Y21384   4.420   3.723   5.802 -1.1749 -2.4035 -2.0721
  186POPC   C3821385   4.513   3.548   5.719 -0.0742 -0.3424 -0.2499
  186POPC   H8X21386   4.444   3.462   5.720  0.1023 -0.5156 -1.6104
  186POPC   H8Y21387   4.618   3.513   5.731 -0.1741 -0.7666 -0.6222
  186POPC   C3921388   4.494   3.618   5.589 -0.2879  0.0822 -0.4588
  186POPC   H9X21389   4.567   3.701   5.579 -2.0327  2.2504  2.9922
  186POPC   H9Y21390   4.392   3.660   5.579  0.3804  1.3305 -2.8041
  186POPC  C31021391   4.512   3.527   5.460  0.1647 -0.0745 -0.5929
  186POPC  H10X21392   4.459   3.430   5.472  0.9288 -0.4311  0.0592
  186POPC  H10Y21393   4.618   3.498   5.445  0.1702 -0.1949 -0.3290
  186POPC  C31121394   4.451   3.608   5.343  0.9858  0.4557  0.4309
  186POPC  H11X21395   4.527   3.685   5.318 -1.7664  2.5001 -2.2298
  186POPC  H11Y21396   4.353   3.657   5.357 -0.1541 -1.9176  1.4030
  186POPC  C31221397   4.432   3.509   5.223  0.1216  0.5291 -0.1649
  186POPC  H12X21398   4.358   3.436   5.260  0.3342  0.4032  0.0130
  186POPC  H12Y21399   4.526   3.459   5.191  1.6887  1.3465  2.8171
  186POPC  C31321400   4.368   3.576   5.101 -0.2455 -0.3393 -0.6212
  186POPC  H13X21401   4.418   3.673   5.079  1.8544 -1.6188 -1.7232
  186POPC  H13Y21402   4.259   3.593   5.118 -0.5543 -2.2886 -0.3885
  186POPC  C31421403   4.374   3.496   4.977  0.1377  0.5398 -0.1327
  186POPC  H14X21404   4.477   3.487   4.939  0.6874  0.7460  1.2541
  186POPC  H14Y21405   4.318   3.551   4.898  0.6756  0.2734 -0.7012
  186POPC  C31521406   4.305   3.358   4.989 -0.6240  0.5561 -0.0088
  186POPC  H15X21407   4.197   3.367   5.014 -0.6359 -3.2192  2.0862
  186POPC  H15Y21408   4.354   3.300   5.070 -0.2096  1.4490  0.3996
  186POPC  C31621409   4.309   3.282   4.857 -0.5709  0.5986 -0.0829
  186POPC  H16X21410   4.412   3.253   4.827 -0.9553 -1.8454  0.7467
  186POPC  H16Y21411   4.269   3.348   4.777  0.0213 -1.5373 -2.2804
  186POPC  H16Z21412   4.244   3.193   4.871 -1.5760  1.5659  1.6922
  187POPC     N21413   4.853   3.546   2.533 -0.0366 -0.7133 -0.3458
  187POPC   C1221414   4.750   3.575   2.649 -0.4105  0.2827  0.2031
  187POPC  H12A21415   4.716   3.487   2.701 -1.9420  1.1358  0.7129
  187POPC  H12B21416   4.662   3.623   2.610 -0.4776 -1.5138 -2.0413
  187POPC   C1321417   4.970   3.456   2.575  0.0370  0.2068  0.3178
  187POPC  H13A21418   5.026   3.489   2.661  1.6012 -1.1748 -0.1417
  187POPC  H13B21419   4.934   3.360   2.608 -0.1849 -0.3515 -1.4885
  187POPC  H13C21420   5.039   3.456   2.493 -1.8489  2.9833 -1.4724
  187POPC   C1421421   4.777   3.480   2.418 -0.1459  0.7166  0.4052
  187POPC  H14A21422   4.746   3.385   2.459  0.7013  0.4452  0.4454
  187POPC  H14B21423   4.697   3.540   2.378 -1.5571 -1.2045  0.1923
  187POPC  H14C21424   4.840   3.455   2.333 -2.2463  0.3808 -1.1421
  187POPC   C1521425   4.903   3.678   2.488 -0.0519 -0.4854  0.4680
  187POPC  H15A21426   4.838   3.760   2.516 -0.4194 -1.0418  1.2808
  187POPC  H15B21427   4.909   3.668   2.380 -3.3266 -3.4996  0.3936
  187POPC  H15C21428   4.998   3.703   2.533 -1.1811  2.6782  1.3648
  187POPC   C1121429   4.797   3.675   2.758 -0.0649 -0.3469  0.1984
  187POPC  H11A21430   4.908   3.667   2.763  0.0545  0.6124 -0.5385
  187POPC  H11B21431   4.758   3.659   2.860  0.0330  0.7666  0.4297
  187POPC     P21432   4.612   3.865   2.703  0.0068  0.6549  0.2582
  187POPC   O1321433   4.520   3.762   2.649  0.2015  0.4928 -0.1176
  187POPC   O1421434   4.624   3.990   2.633  0.0159  0.3675  0.1177
  187POPC   O1221435   4.759   3.804   2.705  0.2999  0.8240 -0.2673
  187POPC   O1121436   4.566   3.887   2.851  0.0847 -0.2677 -0.0243
  187POPC    C121437   4.658   3.910   2.960  0.3742 -0.0003 -0.3899
  187POPC    HA21438   4.765   3.892   2.936  0.2347 -0.3343 -0.7795
  187POPC    HB21439   4.631   3.844   3.046 -0.7273 -0.9616 -1.4504
  187POPC    C221440   4.638   4.055   3.006  0.4801  0.0325 -0.0205
  187POPC    HS21441   4.698   4.056   3.100  1.8266 -0.4189 -0.8410
  187POPC   O2121442   4.496   4.087   3.032  0.0454  0.2842 -0.5199
  187POPC   C2121443   4.457   4.122   3.159  0.4590 -0.3797  0.9272
  187POPC   O2221444   4.535   4.119   3.254  0.7000 -0.0751 -0.2921
  187POPC   C2221445   4.312   4.166   3.159 -0.1548  0.4250  0.2469
  187POPC   H2R21446   4.254   4.082   3.116 -1.2559  0.4972  1.5499
  187POPC   H2S21447   4.308   4.250   3.086  1.3558 -0.4360 -0.8900
  187POPC    C321448   4.690   4.150   2.900  0.0607 -0.7747  0.3539
  187POPC    HX21449   4.619   4.173   2.818  2.7297  0.8877 -1.6571
  187POPC    HY21450   4.787   4.107   2.866  0.2356  2.2044 -3.5380
  187POPC   O3121451   4.726   4.269   2.966  0.2154 -0.3944 -0.2430
  187POPC   C3121452   4.644   4.383   2.944 -0.1010  0.5118  0.3695
  187POPC   O3221453   4.547   4.373   2.873 -0.3311 -0.4455 -0.0464
  187POPC   C3221454   4.712   4.501   3.012 -0.1191 -0.3949 -0.3027
  187POPC   H2X21455   4.706   4.596   2.954  1.7448 -0.8759 -1.3724
  187POPC   H2Y21456   4.814   4.476   3.048  1.7270  4.4072 -1.4340
  187POPC   C2321457   4.264   4.209   3.296 -0.9375  0.6462  0.1625
  187POPC   H3R21458   4.278   4.124   3.367 -1.1465 -1.7148 -2.4436
  187POPC   H3S21459   4.154   4.219   3.283 -1.1693 -1.4767  0.1957
  187POPC   C2421460   4.326   4.340   3.343 -0.5643  0.2823 -0.8811
  187POPC   H4R21461   4.295   4.411   3.263  0.7354  0.5576 -1.1713
  187POPC   H4S21462   4.436   4.358   3.335 -0.6824  0.5933 -1.9197
  187POPC   C2521463   4.286   4.392   3.483  0.1744  0.2767  0.2691
  187POPC   H5R21464   4.175   4.392   3.490 -0.2159 -2.2009 -3.3037
  187POPC   H5S21465   4.329   4.493   3.498 -1.4143  0.8750  1.0910
  187POPC   C2621466   4.340   4.311   3.605 -0.3697  0.4326 -0.0624
  187POPC   H6R21467   4.296   4.209   3.603 -0.0414  0.2826 -1.9533
  187POPC   H6S21468   4.328   4.366   3.701 -0.1416 -0.9520  0.7899
  187POPC   C2721469   4.495   4.289   3.591 -1.0390  0.4137 -0.3053
  187POPC   H7R21470   4.535   4.392   3.589 -1.3879  0.5668  0.5966
  187POPC   H7S21471   4.527   4.250   3.492  0.4774  0.5782  0.1014
  187POPC   C2821472   4.558   4.229   3.710 -0.5584  0.4875  0.1536
  187POPC   H8R21473   4.529   4.280   3.804  1.8789  1.7498  0.2955
  187POPC   H8S21474   4.669   4.239   3.707 -0.5671  0.6301  0.3125
  187POPC   C2921475   4.535   4.080   3.711 -0.0872  0.5436  0.2552
  187POPC   H9121476   4.571   4.026   3.622 -0.0371 -0.3719  0.8263
  187POPC  C21021477   4.484   4.002   3.811 -0.2922 -0.5411 -0.0012
  187POPC  H10121478   4.494   3.893   3.802  0.9183 -0.3773 -0.9456
  187POPC  C21121479   4.428   4.039   3.950  0.7047 -0.2557 -0.5422
  187POPC  H11R21480   4.321   4.050   3.924  1.1088  0.7885 -1.8632
  187POPC  H11S21481   4.467   4.133   3.996  1.7020 -1.0578  0.3095
  187POPC  C21221482   4.459   3.936   4.055  1.2245 -0.2227 -0.0765
  187POPC  H12R21483   4.567   3.939   4.082  1.1275 -0.2197  0.3124
  187POPC  H12S21484   4.434   3.834   4.018 -1.6391  0.4071 -0.0820
  187POPC  C21321485   4.389   3.959   4.191  0.0856 -0.3126  0.4716
  187POPC  H13R21486   4.283   3.974   4.160  0.5006  0.0815 -0.8120
  187POPC  H13S21487   4.430   4.049   4.242  1.5418 -0.4386 -0.4225
  187POPC  C21421488   4.392   3.842   4.289 -0.7009 -0.2313  0.0939
  187POPC  H14R21489   4.334   3.750   4.265  1.5236 -2.1025  1.4208
  187POPC  H14S21490   4.354   3.886   4.383  0.2993 -1.4937  1.1320
  187POPC  C21521491   4.536   3.802   4.322 -0.4685  0.4291 -0.4649
  187POPC  H15R21492   4.588   3.890   4.366  1.5822  0.0896 -2.0365
  187POPC  H15S21493   4.595   3.765   4.235  2.2287 -5.1347  3.1644
  187POPC  C21621494   4.536   3.687   4.426 -0.3522  0.3829 -0.0997
  187POPC  H16R21495   4.504   3.588   4.385 -2.6225 -0.1449  2.5976
  187POPC  H16S21496   4.474   3.710   4.516  0.3526  0.3717  0.3948
  187POPC  C21721497   4.684   3.663   4.477  0.4309  0.0663 -0.1790
  187POPC  H17R21498   4.723   3.756   4.524  1.5315 -1.8745  3.1346
  187POPC  H17S21499   4.741   3.637   4.386 -0.1234  1.0270 -0.8272
  187POPC  C21821500   4.696   3.556   4.587  0.3637  0.9275 -0.3075
  187POPC  H18R21501   4.637   3.466   4.561  1.4995 -0.0650  0.4255
  187POPC  H18S21502   4.664   3.595   4.686  0.1622 -2.7123  1.1896
  187POPC  H18T21503   4.797   3.512   4.600  0.6920  1.9540  0.7815
  187POPC   C3321504   4.625   4.529   3.142  0.7554 -0.3783 -0.1624
  187POPC   H3X21505   4.625   4.440   3.210 -0.9947  0.5404  1.1351
  187POPC   H3Y21506   4.525   4.563   3.109  0.1400 -0.8420  1.1355
  187POPC   C3421507   4.668   4.646   3.233  0.7518 -0.4716  0.3158
  187POPC   H4X21508   4.633   4.745   3.196  3.3413 -0.5639 -2.8991
  187POPC   H4Y21509   4.778   4.663   3.234  0.5891  0.9352  2.9330
  187POPC   C3521510   4.631   4.643   3.381  1.0949 -0.3186 -0.2041
  187POPC   H5X21511   4.619   4.540   3.419 -1.9729  0.3767  0.9838
  187POPC   H5Y21512   4.525   4.675   3.387  0.8855 -1.0125 -0.1478
  187POPC   C3621513   4.706   4.732   3.475 -0.5030  0.0084 -0.2444
  187POPC   H6X21514   4.660   4.833   3.474 -2.1848 -0.6569  1.6718
  187POPC   H6Y21515   4.809   4.741   3.435 -0.7353 -0.6622 -1.0439
  187POPC   C3721516   4.694   4.670   3.616 -0.2051 -0.7024 -0.5963
  187POPC   H7X21517   4.757   4.728   3.688 -0.7355  1.3922 -1.7382
  187POPC   H7Y21518   4.722   4.563   3.615 -0.5941 -0.8045 -0.6988
  187POPC   C3821519   4.546   4.667   3.670 -0.5102  0.0215  0.0831
  187POPC   H8X21520   4.484   4.611   3.598  0.2307 -0.1303 -0.4478
  187POPC   H8Y21521   4.525   4.775   3.687  0.7245  0.3276 -0.2677
  187POPC   C3921522   4.527   4.606   3.811  0.3130  0.3716 -0.1557
  187POPC   H9X21523   4.568   4.502   3.811  2.0875  1.0329 -1.0383
  187POPC   H9Y21524   4.418   4.601   3.831 -0.0661  3.7637 -0.8589
  187POPC  C31021525   4.603   4.664   3.930 -1.3069  0.0872  0.1046
  187POPC  H10X21526   4.709   4.674   3.898 -1.0854 -0.0371  0.7783
  187POPC  H10Y21527   4.597   4.599   4.020 -1.1406  2.0144  1.5812
  187POPC  C31121528   4.555   4.805   3.965  0.1848  0.5021 -0.1501
  187POPC  H11X21529   4.445   4.817   3.975  0.4926  2.7964  1.2548
  187POPC  H11Y21530   4.580   4.866   3.875 -3.3250 -1.5689 -2.8280
  187POPC  C31221531   4.616   4.852   4.099 -0.1600 -0.2593  0.6305
  187POPC  H12X21532   4.608   4.963   4.104  0.0337 -0.0573 -2.1757
  187POPC  H12Y21533   4.724   4.826   4.107  0.1788  0.1168 -1.8786
  187POPC  C31321534   4.551   4.792   4.221 -0.9210 -0.0069  0.2147
  187POPC  H13X21535   4.536   4.682   4.215  0.2311 -0.0901 -1.8022
  187POPC  H13Y21536   4.450   4.835   4.240 -0.3979  0.5659  1.9403
  187POPC  C31421537   4.625   4.855   4.343  0.0270  0.4367 -0.5302
  187POPC  H14X21538   4.646   4.963   4.327  0.2544  0.7339  1.5526
  187POPC  H14Y21539   4.722   4.802   4.345 -0.6667 -0.8808 -0.4534
  187POPC  C31521540   4.555   4.842   4.479 -0.8060  0.2418  0.5496
  187POPC  H15X21541   4.623   4.851   4.566  0.4791 -4.6499  0.3512
  187POPC  H15Y21542   4.524   4.735   4.485  1.7698 -0.5613  1.0353
  187POPC  C31621543   4.431   4.918   4.480 -0.0759  0.2024  0.4612
  187POPC  H16X21544   4.355   4.899   4.401 -0.2395  3.0921 -0.1727
  187POPC  H16Y21545   4.449   5.027   4.475  0.5063  0.1932  1.9533
  187POPC  H16Z21546   4.376   4.895   4.574  2.5319 -1.9959  1.5746
  188POPC     N21547   5.930   3.105   2.543  0.6551  0.5559 -0.1080
  188POPC   C1221548   5.940   3.147   2.688 -0.8300 -0.2813 -0.5678
  188POPC  H12A21549   6.044   3.168   2.708 -0.5485 -2.5317  0.6832
  188POPC  H12B21550   5.913   3.062   2.748  0.0142 -0.1292  0.0459
  188POPC   C1321551   6.001   3.206   2.456  0.3677  0.2032 -0.3693
  188POPC  H13A21552   5.948   3.299   2.463  2.0395  1.5725 -3.7160
  188POPC  H13B21553   6.105   3.214   2.486  1.3068  0.6171 -3.4406
  188POPC  H13C21554   6.003   3.179   2.352 -2.5853 -1.1376 -0.1700
  188POPC   C1421555   5.997   2.976   2.531 -0.4975 -0.8236 -0.1740
  188POPC  H14A21556   6.014   2.945   2.429  0.5854  0.9662 -0.5901
  188POPC  H14B21557   6.098   2.971   2.569 -0.3170  2.5825  0.1560
  188POPC  H14C21558   5.940   2.899   2.580 -1.0949 -0.7931 -0.7976
  188POPC   C1521559   5.780   3.095   2.505 -0.5634  0.0556 -0.0296
  188POPC  H15A21560   5.739   3.195   2.508 -1.6804 -0.4127  1.1179
  188POPC  H15B21561   5.733   3.027   2.574  2.1087  0.0333  1.9129
  188POPC  H15C21562   5.779   3.050   2.407 -1.1731 -2.3149  1.0117
  188POPC   C1121563   5.872   3.272   2.743  0.3911  1.1503 -0.4176
  188POPC  H11A21564   5.878   3.281   2.853 -0.5163  3.8544 -0.4923
  188POPC  H11B21565   5.763   3.275   2.721  0.1815  1.2148  0.6037
  188POPC     P21566   6.053   3.453   2.713 -0.0029  0.0731  0.1528
  188POPC   O1321567   6.084   3.558   2.613 -0.1148  0.3251 -0.1819
  188POPC   O1421568   6.157   3.348   2.717  0.3457 -0.7104  0.5024
  188POPC   O1221569   5.917   3.389   2.671 -0.0426  0.5640  0.0194
  188POPC   O1121570   6.022   3.519   2.854 -0.0512 -0.3135  0.8493
  188POPC    C121571   6.015   3.653   2.883  0.3264  1.1127  0.5116
  188POPC    HA21572   5.987   3.719   2.799 -3.2657 -1.5969 -0.6326
  188POPC    HB21573   6.106   3.687   2.938  0.0678  0.3525  1.4437
  188POPC    C221574   5.902   3.676   2.987  0.2871  0.2228  0.2684
  188POPC    HS21575   5.896   3.787   2.994  0.1644  0.2074  0.4247
  188POPC   O2121576   5.943   3.610   3.110 -0.0108  0.0185 -0.3495
  188POPC   C2121577   6.031   3.687   3.186 -0.0492 -0.0406 -0.0231
  188POPC   O2221578   6.070   3.797   3.153  0.2432 -0.3510 -0.1326
  188POPC   C2221579   6.062   3.607   3.318  0.6022  0.5171  0.2209
  188POPC   H2R21580   6.106   3.510   3.288 -1.0876  0.3031 -1.7784
  188POPC   H2S21581   5.961   3.596   3.364  1.5198 -1.8810  1.8442
  188POPC    C321582   5.767   3.628   2.925  0.3575 -0.1058 -0.3986
  188POPC    HX21583   5.765   3.517   2.922  0.3961 -0.2492  2.3993
  188POPC    HY21584   5.767   3.665   2.820 -0.1803  0.3350 -0.2447
  188POPC   O3121585   5.650   3.679   2.999 -0.1108  0.6342  0.4705
  188POPC   C3121586   5.627   3.807   2.969  0.6064 -0.4316 -0.5331
  188POPC   O3221587   5.704   3.878   2.905 -0.1249 -0.1222 -0.3334
  188POPC   C3221588   5.498   3.850   3.029 -0.7428 -0.2032  0.4026
  188POPC   H2X21589   5.422   3.772   3.008  0.2428 -1.0401 -0.1659
  188POPC   H2Y21590   5.474   3.950   2.987 -0.3063 -0.2706 -0.0159
  188POPC   C2321591   6.145   3.694   3.413 -0.0255 -0.1649  0.6275
  188POPC   H3R21592   6.081   3.784   3.429  0.6439  0.4356  0.0123
  188POPC   H3S21593   6.242   3.733   3.375 -0.2411 -0.5148 -0.2929
  188POPC   C2421594   6.164   3.643   3.555 -1.0416  0.2169 -0.0877
  188POPC   H4R21595   6.218   3.547   3.552 -0.8508  0.2339  1.5981
  188POPC   H4S21596   6.060   3.640   3.596 -1.5049  1.5027 -1.0812
  188POPC   C2521597   6.266   3.727   3.634 -0.0419  0.0600 -0.1835
  188POPC   H5R21598   6.238   3.835   3.631  1.7579  0.5580 -0.5999
  188POPC   H5S21599   6.366   3.717   3.586  0.0247  2.7191 -0.7478
  188POPC   C2621600   6.272   3.688   3.781  0.5960  0.4238  0.7231
  188POPC   H6R21601   6.319   3.588   3.793 -1.9314 -1.4389 -2.8445
  188POPC   H6S21602   6.173   3.661   3.825  0.8462 -0.8689  0.5372
  188POPC   C2721603   6.345   3.793   3.865  0.3124 -0.3499 -0.0555
  188POPC   H7R21604   6.290   3.889   3.876 -1.1720 -1.1657 -0.1294
  188POPC   H7S21605   6.446   3.807   3.821  1.6689 -3.6154  1.6650
  188POPC   C2821606   6.350   3.752   4.019 -0.8077 -0.5794 -0.0930
  188POPC   H8R21607   6.418   3.831   4.057  1.4083 -0.8722 -3.0942
  188POPC   H8S21608   6.416   3.663   4.030 -0.1602 -0.2124 -0.9030
  188POPC   C2921609   6.218   3.757   4.093 -0.6865  0.0151  0.4842
  188POPC   H9121610   6.130   3.741   4.029  0.3266  2.4258 -1.7167
  188POPC  C21021611   6.195   3.801   4.217  0.5582 -0.1602  0.5249
  188POPC  H10121612   6.093   3.785   4.257 -1.3869  0.2323 -3.7290
  188POPC  C21121613   6.305   3.844   4.310  0.0993  0.0037  0.5202
  188POPC  H11R21614   6.301   3.954   4.323  0.0498 -0.0382  0.8617
  188POPC  H11S21615   6.407   3.818   4.275  0.3849  0.4429  1.0075
  188POPC  C21221616   6.278   3.780   4.448 -0.5885 -0.4644 -0.4262
  188POPC  H12R21617   6.367   3.758   4.510 -2.1442 -2.4581  1.2835
  188POPC  H12S21618   6.232   3.678   4.445  0.0314 -0.7866  0.4741
  188POPC  C21321619   6.186   3.861   4.540  0.1501  0.6186 -0.5251
  188POPC  H13R21620   6.096   3.893   4.484 -0.8980 -1.7897 -0.3377
  188POPC  H13S21621   6.240   3.951   4.577 -1.2472  1.8353 -1.3424
  188POPC  C21421622   6.128   3.787   4.665  0.1959  0.1578 -0.3105
  188POPC  H14R21623   6.208   3.727   4.711 -0.8362  0.2662  1.7069
  188POPC  H14S21624   6.048   3.720   4.627 -1.1774  2.2894 -1.4110
  188POPC  C21521625   6.077   3.876   4.772  1.1212 -0.3287 -0.1000
  188POPC  H15R21626   6.169   3.914   4.822  1.1765  0.5237 -0.8113
  188POPC  H15S21627   6.027   3.823   4.855  1.6553  1.9241  1.7873
  188POPC  C21621628   5.985   3.984   4.723  0.3777  0.1964 -0.5889
  188POPC  H16R21629   5.917   3.937   4.648 -1.1322  1.3399  0.0179
  188POPC  H16S21630   6.054   4.060   4.679  0.8341 -0.5003 -1.1168
  188POPC  C21721631   5.898   4.046   4.833 -0.0093 -0.4338  0.1804
  188POPC  H17R21632   5.961   4.079   4.918  1.9222  2.5902 -2.2139
  188POPC  H17S21633   5.822   3.976   4.874 -0.0314 -1.2253 -1.1404
  188POPC  C21821634   5.816   4.168   4.780 -0.2448  0.4067 -0.1372
  188POPC  H18R21635   5.734   4.191   4.851  0.1987 -1.2876  0.9921
  188POPC  H18S21636   5.786   4.139   4.677 -2.6878  0.8764  0.3805
  188POPC  H18T21637   5.887   4.252   4.768  1.6712 -1.3703 -2.4318
  188POPC   C3321638   5.518   3.864   3.181 -0.7617  0.6394  0.4470
  188POPC   H3X21639   5.617   3.911   3.198 -0.5786  0.4120  0.0140
  188POPC   H3Y21640   5.517   3.757   3.210  0.1009  0.9487  1.6965
  188POPC   C3421641   5.411   3.935   3.261 -0.0708 -0.1028  0.0876
  188POPC   H4X21642   5.312   3.886   3.253 -1.8492  2.7356  2.5454
  188POPC   H4Y21643   5.407   4.036   3.213  0.0098 -0.2395 -0.2075
  188POPC   C3521644   5.445   3.951   3.413 -0.2624  0.1033 -0.0678
  188POPC   H5X21645   5.548   3.990   3.406 -0.1855  0.2015  1.3345
  188POPC   H5Y21646   5.450   3.846   3.448 -1.2392 -0.3419 -1.1959
  188POPC   C3621647   5.344   4.028   3.494 -0.4605 -0.1408 -0.0411
  188POPC   H6X21648   5.241   3.990   3.474 -1.0449  1.1365  0.3714
  188POPC   H6Y21649   5.362   4.135   3.470  0.0045 -0.6575 -2.1452
  188POPC   C3721650   5.372   4.007   3.644 -0.0423  0.1894 -0.2132
  188POPC   H7X21651   5.481   4.027   3.652  0.0802  0.7433 -2.7044
  188POPC   H7Y21652   5.362   3.900   3.673 -0.3649  0.8984  2.6315
  188POPC   C3821653   5.277   4.080   3.740 -0.2809 -0.6230 -0.6671
  188POPC   H8X21654   5.180   4.028   3.726 -0.2250 -0.9104 -0.0421
  188POPC   H8Y21655   5.271   4.188   3.713 -3.5793 -0.1809  1.2206
  188POPC   C3921656   5.322   4.079   3.890  0.0367 -0.5641 -0.2749
  188POPC   H9X21657   5.424   4.123   3.893 -0.2808  0.1403  1.7712
  188POPC   H9Y21658   5.321   3.972   3.921 -1.1084 -1.3744 -2.8337
  188POPC  C31021659   5.247   4.155   3.993 -0.3510 -0.3524 -0.0822
  188POPC  H10X21660   5.148   4.106   4.006 -0.7491  0.6418  0.7182
  188POPC  H10Y21661   5.227   4.253   3.946  0.7735  0.3604  0.8727
  188POPC  C31121662   5.314   4.171   4.135  0.0341  0.1899  0.2135
  188POPC  H11X21663   5.423   4.189   4.132  0.2151 -0.1180  2.7725
  188POPC  H11Y21664   5.294   4.072   4.182  1.4207 -0.4182 -0.4310
  188POPC  C31221665   5.247   4.267   4.228  0.1976  1.0674 -0.8986
  188POPC  H12X21666   5.143   4.229   4.242  1.0647 -0.5030  2.1863
  188POPC  H12Y21667   5.244   4.368   4.182 -0.4367  0.5410 -2.0524
  188POPC  C31321668   5.319   4.267   4.369  0.1323  0.2352 -0.4716
  188POPC  H13X21669   5.422   4.307   4.374  0.6086 -1.0708  0.6841
  188POPC  H13Y21670   5.328   4.163   4.408  0.6649  0.0729 -1.0104
  188POPC  C31421671   5.233   4.338   4.477  0.3117 -0.1441 -0.2908
  188POPC  H14X21672   5.129   4.301   4.470 -0.3228  1.5567 -0.4316
  188POPC  H14Y21673   5.225   4.446   4.453 -0.1627 -0.6063 -2.4170
  188POPC  C31521674   5.280   4.318   4.624  0.4915  0.3780  0.0243
  188POPC  H15X21675   5.288   4.208   4.629 -1.4793  0.0026 -2.5598
  188POPC  H15Y21676   5.200   4.351   4.694 -0.8308  1.2791 -1.8106
  188POPC  C31621677   5.407   4.393   4.667  0.1951  0.8374  1.1331
  188POPC  H16X21678   5.496   4.358   4.610 -0.2547 -1.4813  1.7719
  188POPC  H16Y21679   5.437   4.374   4.772  1.8482  0.7145  0.6844
  188POPC  H16Z21680   5.390   4.502   4.649 -1.9809  0.2080 -1.2255
  189SAPI   C1221681   2.636   6.148   6.604  0.1620  0.7003 -0.6367
  189SAPI    H221682   2.642   6.147   6.493 -0.7841 -2.4008 -0.7345
  189SAPI    O221683   2.743   6.065   6.642  0.3894 -0.4902  0.0496
  189SAPI   HO221684   2.711   5.975   6.632 -1.1578  0.1895 -1.8786
  189SAPI   C1321685   2.648   6.287   6.659 -0.0405 -0.2730 -0.0350
  189SAPI    H321686   2.551   6.337   6.639  0.6551  0.9888 -0.2900
  189SAPI    O321687   2.744   6.360   6.590  0.2194 -0.7085 -0.3648
  189SAPI   HO321688   2.830   6.336   6.625  0.4092 -0.5218 -0.6935
  189SAPI   C1421689   2.659   6.281   6.813  0.0804  0.7976  0.2837
  189SAPI    H421690   2.753   6.228   6.837  0.8705  1.3196 -1.4634
  189SAPI    O421691   2.680   6.412   6.865 -0.0386 -0.6373  0.0994
  189SAPI   HO421692   2.765   6.402   6.908  0.3916  1.9787  0.0191
  189SAPI   C1521693   2.541   6.210   6.877 -0.1017  0.5859 -0.7315
  189SAPI    H521694   2.465   6.292   6.872  0.6954  1.4952  1.1098
  189SAPI    O521695   2.548   6.183   7.017  0.3793 -0.0021  0.6018
  189SAPI   HO521696   2.626   6.129   7.031  0.4699  0.5036  2.1895
  189SAPI   C1621697   2.481   6.094   6.797 -0.0864 -0.0346  0.1783
  189SAPI    H621698   2.544   6.013   6.839 -0.0093  0.2958  0.7014
  189SAPI    O621699   2.345   6.079   6.836 -0.3814 -0.2155 -0.0167
  189SAPI   HO621700   2.298   6.160   6.818 -0.8441 -0.0032  1.9101
  189SAPI   C1121701   2.501   6.087   6.642  1.1406  0.1724 -0.6337
  189SAPI    H121702   2.420   6.145   6.594  2.7917  2.8465 -0.3752
  189SAPI     P21703   2.370   5.868   6.522  0.3614  0.1515 -0.1709
  189SAPI   O1321704   2.297   5.951   6.423 -0.5234 -0.2713 -0.5880
  189SAPI   O1421705   2.290   5.812   6.637  0.1740 -0.6058  0.0933
  189SAPI   O1221706   2.498   5.955   6.587 -0.0437  0.1303 -0.5383
  189SAPI   O1121707   2.443   5.754   6.449  0.6497 -0.3391 -0.3970
  189SAPI    C121708   2.573   5.755   6.385  0.0406  0.0888  0.2875
  189SAPI    HA21709   2.631   5.847   6.409 -2.6137  2.2502 -1.0351
  189SAPI    HB21710   2.635   5.667   6.413 -1.2806 -1.2408 -0.7674
  189SAPI    C221711   2.578   5.737   6.232 -0.0674  0.2329  0.3766
  189SAPI    HS21712   2.684   5.727   6.201  0.1456 -1.0622  1.4287
  189SAPI   O2121713   2.506   5.846   6.171 -0.2757  0.0235  0.0910
  189SAPI   C2121714   2.570   5.960   6.164  0.0076 -0.7373  0.0178
  189SAPI   O2221715   2.690   5.982   6.184  0.2473 -0.6293 -0.2014
  189SAPI   C2221716   2.475   6.068   6.106 -0.1166 -0.3855 -0.4495
  189SAPI   H2R21717   2.375   6.021   6.113  0.1551 -0.6886  2.2003
  189SAPI   H2S21718   2.482   6.157   6.172 -2.1759 -0.6455  0.1883
  189SAPI    C321719   2.519   5.594   6.191  0.3967 -0.5083 -0.0464
  189SAPI    HX21720   2.413   5.597   6.222  0.3079 -2.2627 -0.0743
  189SAPI    HY21721   2.560   5.510   6.251 -3.0921 -2.6763 -0.4179
  189SAPI   O3121722   2.514   5.552   6.051  0.5221  0.0115  0.0233
  189SAPI   C3121723   2.625   5.520   6.001 -0.0232  0.4979 -0.2912
  189SAPI   O3221724   2.729   5.513   6.064 -0.0707 -0.2961  0.1620
  189SAPI   C3221725   2.609   5.490   5.855  0.4281  0.2572 -0.5773
  189SAPI   H2X21726   2.640   5.568   5.782  1.8319  0.1321 -0.1502
  189SAPI   H2Y21727   2.501   5.472   5.840  0.4555  0.8743 -1.5805
  189SAPI   C2321728   2.512   6.108   5.964  0.1810  0.1183  0.1401
  189SAPI   H3R21729   2.486   6.023   5.897  0.8743 -0.3182  0.4129
  189SAPI   H3S21730   2.623   6.117   5.957  0.2883 -0.4339  0.9708
  189SAPI   C2421731   2.450   6.234   5.911 -0.2164 -0.4134  0.0832
  189SAPI   H4R21732   2.477   6.314   5.983  1.7484 -1.4716  0.6125
  189SAPI   H4S21733   2.339   6.227   5.906 -0.3249  0.9092  0.2006
  189SAPI   C2521734   2.500   6.274   5.771 -0.2423 -0.1630  0.0195
  189SAPI   H5R21735   2.570   6.358   5.779  0.9223 -0.9769 -1.1659
  189SAPI   C2621736   2.468   6.227   5.651  0.2364 -0.5697 -0.2160
  189SAPI   H6R21737   2.503   6.283   5.563  1.3563  0.6918  0.9819
  189SAPI   C2721738   2.367   6.116   5.631  0.4128 -0.3547  0.4847
  189SAPI   H7R21739   2.265   6.153   5.608  0.2497  1.2815  3.3743
  189SAPI   H7S21740   2.345   6.058   5.723 -1.3500  1.3780  1.2141
  189SAPI   C2821741   2.419   6.026   5.520  0.5719 -0.0252 -0.4771
  189SAPI   H8R21742   2.462   5.931   5.554  2.5702  1.3213  0.9585
  189SAPI   C2921743   2.394   6.050   5.387  0.0806 -0.2194  0.1386
  189SAPI   H9R21744   2.432   5.977   5.314 -1.0584  1.2825 -2.0424
  189SAPI  C21021745   2.319   6.165   5.325 -0.0642 -0.2496 -0.0813
  189SAPI  H10R21746   2.395   6.236   5.285 -0.4751  0.9309  1.1160
  189SAPI  H10S21747   2.250   6.228   5.385 -1.2110 -0.1423 -1.4627
  189SAPI  C21121748   2.217   6.111   5.220 -0.0298  0.4717  0.4165
  189SAPI  H11R21749   2.121   6.078   5.262 -0.7235  0.2986 -1.2689
  189SAPI  C21221750   2.241   6.095   5.091 -0.5528 -0.2284 -0.1298
  189SAPI  H12R21751   2.173   6.043   5.023  0.4652  1.0965 -2.2827
  189SAPI  C21321752   2.376   6.130   5.026  0.1510  0.5878 -0.5219
  189SAPI  H13R21753   2.412   6.045   4.965 -2.9187 -0.1786 -1.4056
  189SAPI  H13S21754   2.458   6.159   5.096 -0.7704  0.7396  0.5333
  189SAPI  C21421755   2.359   6.256   4.951 -1.2178 -0.1798 -0.4681
  189SAPI  H14R21756   2.350   6.345   5.015 -0.9289  0.5754 -1.4519
  189SAPI  C21521757   2.404   6.282   4.823  0.1073 -0.3048  0.5891
  189SAPI  H15R21758   2.384   6.381   4.779 -0.6567 -0.5225  0.4179
  189SAPI  C21621759   2.467   6.189   4.718 -0.0348  0.0409 -0.4225
  189SAPI  H16R21760   2.420   6.089   4.721 -2.9016  1.3085 -0.1968
  189SAPI  H16S21761   2.576   6.173   4.734 -0.0393  0.2935 -0.1215
  189SAPI  C21721762   2.471   6.233   4.573  0.1985  0.1406  0.1383
  189SAPI  H17R21763   2.530   6.147   4.534 -0.1544 -0.6088  1.1965
  189SAPI  H17S21764   2.529   6.327   4.582  1.2535 -0.2361 -1.9475
  189SAPI  C21821765   2.330   6.249   4.507  0.1068 -0.5982 -0.5326
  189SAPI  H18R21766   2.263   6.166   4.540  0.4572 -0.8166 -0.3675
  189SAPI  H18S21767   2.349   6.238   4.398  0.3778 -0.7486 -0.4709
  189SAPI  C21921768   2.266   6.381   4.527  1.0931  0.2248  0.1488
  189SAPI  H19R21769   2.336   6.465   4.511  1.0365  0.8690  2.7676
  189SAPI  H19S21770   2.222   6.389   4.629  0.9282 -1.1097  0.1986
  189SAPI  C22021771   2.165   6.422   4.423  0.0876 -0.3237  1.1895
  189SAPI  H20R21772   2.134   6.528   4.416  0.1367 -0.4195 -1.2603
  189SAPI  H20S21773   2.075   6.359   4.442 -0.0882  0.0903  1.7650
  189SAPI  H20T21774   2.220   6.402   4.329 -1.6456  2.9898 -0.7070
  189SAPI   C3321775   2.682   5.363   5.819 -0.4939  0.6238 -0.2219
  189SAPI   H3X21776   2.643   5.281   5.883  1.3046  0.7167  1.0465
  189SAPI   H3Y21777   2.793   5.369   5.814 -0.1647 -3.6549 -1.6142
  189SAPI   C3421778   2.642   5.331   5.674 -0.4986  0.2026  0.3459
  189SAPI   H4X21779   2.715   5.263   5.625  1.1512  1.6963  0.6318
  189SAPI   H4Y21780   2.635   5.417   5.605 -0.7325 -0.7117 -0.7922
  189SAPI   C3521781   2.502   5.256   5.673  0.0070  0.2120 -0.5257
  189SAPI   H5X21782   2.431   5.332   5.713  1.6518  2.0353 -0.8899
  189SAPI   H5Y21783   2.518   5.167   5.737 -0.7227  0.1593 -0.4107
  189SAPI   C3621784   2.451   5.220   5.533  0.0713  0.3486  0.2319
  189SAPI   H6X21785   2.534   5.185   5.469 -1.0643 -0.8688 -0.6213
  189SAPI   H6Y21786   2.413   5.313   5.486  0.3161 -0.0315 -0.7409
  189SAPI   C3721787   2.354   5.100   5.526  0.3293 -0.2909  0.7396
  189SAPI   H7X21788   2.280   5.107   5.609  0.5877 -0.3902  0.9765
  189SAPI   H7Y21789   2.421   5.012   5.537 -0.1180 -1.2261 -2.7380
  189SAPI   C3821790   2.278   5.084   5.395 -0.6146  0.1258  0.3128
  189SAPI   H8X21791   2.236   5.186   5.381 -0.9437 -0.0414  0.0870
  189SAPI   H8Y21792   2.200   5.007   5.409 -0.9917 -0.1706 -2.6973
  189SAPI   C3921793   2.360   5.039   5.271  0.1742  0.8531 -0.1175
  189SAPI   H9X21794   2.388   4.932   5.262  0.6456  0.9185  0.5251
  189SAPI   H9Y21795   2.449   5.103   5.251  1.6645 -0.6864  1.2861
  189SAPI  C31021796   2.262   5.062   5.154  0.0229  0.4892 -0.3473
  189SAPI  H10X21797   2.260   5.172   5.145 -0.3922  0.4410 -0.9506
  189SAPI  H10Y21798   2.161   5.028   5.185 -0.5074  0.8480 -1.6045
  189SAPI  C31121799   2.307   5.007   5.015  0.5749 -0.2183 -0.2395
  189SAPI  H11X21800   2.224   5.018   4.943  1.0788  1.4000 -0.6093
  189SAPI  H11Y21801   2.332   4.899   5.020  1.6099  0.0447  0.8896
  189SAPI  C31221802   2.426   5.089   4.957 -0.0544  0.1016  0.0261
  189SAPI  H12X21803   2.514   5.071   5.023  0.9162 -0.5794 -1.4019
  189SAPI  H12Y21804   2.418   5.200   4.962  1.5790  0.2006  1.5464
  189SAPI  C31321805   2.463   5.045   4.821 -0.1117  0.7232  0.1488
  189SAPI  H13X21806   2.473   4.934   4.814 -2.2653  0.5099 -0.1820
  189SAPI  H13Y21807   2.565   5.080   4.796  0.9858 -0.9417  2.0383
  189SAPI  C31421808   2.375   5.085   4.704  0.3769 -0.0523 -0.1972
  189SAPI  H14X21809   2.265   5.072   4.721  0.1731 -2.9216 -2.7904
  189SAPI  H14Y21810   2.401   5.039   4.606 -0.4671  3.4528 -2.2351
  189SAPI  C31521811   2.410   5.228   4.665 -0.4975  0.3548 -0.4323
  189SAPI  H15X21812   2.520   5.233   4.649 -0.3454 -1.3734 -0.1442
  189SAPI  H15Y21813   2.389   5.301   4.745 -2.0995 -0.7428  0.2067
  189SAPI  C31621814   2.341   5.267   4.534 -0.0357 -0.1587  0.2087
  189SAPI  H16X21815   2.238   5.225   4.537  1.0055 -2.9288  0.2122
  189SAPI  H16Y21816   2.393   5.213   4.452 -0.0891 -0.5941  0.4580
  189SAPI  C31721817   2.351   5.415   4.500 -0.3331 -0.8292  0.2595
  189SAPI  H17X21818   2.269   5.471   4.549 -0.2978  0.5268 -1.1355
  189SAPI  H17Y21819   2.323   5.408   4.392  1.1279 -3.3238 -0.0399
  189SAPI  C31821820   2.480   5.495   4.529 -0.4066  0.0471  0.6386
  189SAPI  H18X21821   2.570   5.463   4.471 -0.3840  4.2431 -2.1020
  189SAPI  H18Y21822   2.508   5.478   4.635  0.4730 -0.2379  0.3761
  189SAPI  H18Z21823   2.471   5.603   4.503 -0.2224 -0.6666 -3.0192
  190SAPI   C1221824   3.635   6.653   7.101  0.6602  0.2737 -0.5977
  190SAPI    H221825   3.563   6.720   7.152  0.3300 -1.1021  0.8077
  190SAPI    O221826   3.730   6.620   7.199 -0.1154  0.6148 -0.2761
  190SAPI   HO221827   3.700   6.649   7.286  2.5720  0.8304  0.6569
  190SAPI   C1321828   3.552   6.528   7.060 -0.1147  1.1349 -0.2906
  190SAPI    H321829   3.476   6.571   6.991 -0.7841  1.4896  0.6471
  190SAPI    O321830   3.483   6.469   7.173  0.1257  0.3133 -0.2121
  190SAPI   HO321831   3.454   6.532   7.239  1.5166 -0.1757  0.9100
  190SAPI   C1421832   3.652   6.428   6.986  0.3937 -0.2613 -0.6425
  190SAPI    H421833   3.693   6.370   7.071 -2.2976 -0.4737  0.6194
  190SAPI    O421834   3.584   6.339   6.905 -0.1572 -0.5227 -0.2901
  190SAPI   HO421835   3.547   6.375   6.824  0.7514  0.2152 -0.3962
  190SAPI   C1521836   3.773   6.489   6.919  0.3153 -0.0560  0.3218
  190SAPI    H521837   3.762   6.461   6.812  1.8262  1.8442 -0.3804
  190SAPI    O521838   3.896   6.430   6.957 -0.1303  0.3119  1.0134
  190SAPI   HO521839   3.934   6.494   7.018  1.6597  1.1998 -0.8754
  190SAPI   C1621840   3.791   6.646   6.913  0.1202  0.0257  0.8005
  190SAPI    H621841   3.890   6.667   6.960  0.9139 -0.6264 -0.5075
  190SAPI    O621842   3.819   6.688   6.776 -0.8610 -0.2000  0.4003
  190SAPI   HO621843   3.853   6.777   6.774  1.9812 -1.2011 -0.3824
  190SAPI   C1121844   3.686   6.725   6.983  0.1569 -0.7041  0.4819
  190SAPI    H121845   3.595   6.737   6.919 -0.4577 -2.6910  0.9039
  190SAPI     P21846   3.757   6.982   6.924  0.0124 -0.2637  0.2763
  190SAPI   O1321847   3.790   7.103   7.008  0.7394  0.6771  0.4060
  190SAPI   O1421848   3.636   6.995   6.841 -0.4037  0.3058 -0.8745
  190SAPI   O1221849   3.733   6.858   7.019 -0.6082  0.5314  0.2183
  190SAPI   O1121850   3.876   6.934   6.830 -0.1066 -0.3963  0.3043
  190SAPI    C121851   4.011   6.921   6.882  0.5068 -0.1034 -0.3213
  190SAPI    HA21852   4.012   6.965   6.984  1.7604  2.8776 -1.4929
  190SAPI    HB21853   4.026   6.812   6.893 -1.3405 -0.3906 -0.3181
  190SAPI    C221854   4.121   6.996   6.792  0.4304  0.3200  0.0169
  190SAPI    HS21855   4.088   7.100   6.774 -1.5870 -0.4532 -1.1643
  190SAPI   O2121856   4.136   6.923   6.666  0.3714  0.6913  0.1670
  190SAPI   C2121857   4.044   6.960   6.573 -0.7052  0.4854  0.2319
  190SAPI   O2221858   3.968   7.051   6.584  0.1642  0.5297 -0.6005
  190SAPI   C2221859   4.061   6.883   6.441 -0.3402  0.2587  0.4029
  190SAPI   H2R21860   4.165   6.895   6.405 -0.0140  1.6728  1.7116
  190SAPI   H2S21861   4.031   6.777   6.454 -1.7188  0.5118 -0.4686
  190SAPI    C321862   4.254   6.991   6.877  0.0080  0.0785  0.8915
  190SAPI    HX21863   4.245   6.893   6.929 -2.9297 -1.9670 -2.9991
  190SAPI    HY21864   4.259   7.066   6.959 -2.6049  0.2798  0.9356
  190SAPI   O3121865   4.377   7.001   6.799 -0.3477  0.1100  0.2054
  190SAPI   C3121866   4.395   7.115   6.751 -0.3194  0.2521  0.5522
  190SAPI   O3221867   4.331   7.216   6.771 -0.1044 -0.1997 -0.4378
  190SAPI   C3221868   4.499   7.110   6.638  0.6863 -0.1172 -0.4764
  190SAPI   H2X21869   4.578   7.038   6.667 -0.8894 -1.3316  0.9815
  190SAPI   H2Y21870   4.537   7.213   6.621 -0.1045  0.3028  0.2330
  190SAPI   C2321871   3.965   6.932   6.340 -0.4234 -0.0400 -0.3549
  190SAPI   H3R21872   3.861   6.933   6.377  0.1016  1.5688  1.2379
  190SAPI   H3S21873   3.956   6.848   6.268 -1.2879 -2.1383  2.0044
  190SAPI   C2421874   4.008   7.062   6.252 -0.1768 -0.2814 -0.7293
  190SAPI   H4R21875   4.119   7.059   6.239  0.0016  1.1649  0.2404
  190SAPI   H4S21876   3.985   7.147   6.319  1.1179 -1.3912  1.2328
  190SAPI   C2521877   3.932   7.070   6.129  0.2546 -0.7790 -0.2332
  190SAPI   H5R21878   3.836   7.123   6.138  0.3377 -0.7183  0.3142
  190SAPI   C2621879   3.966   7.041   6.000  0.3602  0.2600  0.2273
  190SAPI   H6R21880   3.894   7.055   5.918  0.1907 -1.1256  0.1162
  190SAPI   C2721881   4.090   6.971   5.959 -0.0912 -0.4852 -0.3693
  190SAPI   H7R21882   4.154   6.937   6.043  0.6670 -0.0577 -0.7611
  190SAPI   H7S21883   4.145   7.054   5.910  1.5045 -1.8709 -1.0267
  190SAPI   C2821884   4.079   6.865   5.856 -0.1163  0.1298  0.6868
  190SAPI   H8R21885   4.108   6.763   5.883  1.8456 -0.2010 -2.1916
  190SAPI   C2921886   4.059   6.882   5.721  0.1735 -0.4566 -0.8316
  190SAPI   H9R21887   4.039   6.789   5.665  4.4222 -1.2796 -1.3157
  190SAPI  C21021888   4.042   7.006   5.648 -0.1539 -0.4546 -0.1144
  190SAPI  H10R21889   4.146   7.044   5.652  0.4086 -1.7091 -1.6223
  190SAPI  H10S21890   3.973   7.080   5.695  0.9374 -0.3821  1.4320
  190SAPI  C21121891   4.004   6.966   5.510 -0.8144 -0.5623  0.0749
  190SAPI  H11R21892   3.916   6.900   5.507 -0.1411 -1.5236  1.0312
  190SAPI  C21221893   4.070   7.007   5.393  0.9306 -0.2176 -0.1154
  190SAPI  H12R21894   4.026   6.969   5.299 -1.1361 -1.0449  1.1182
  190SAPI  C21321895   4.203   7.078   5.374 -0.1448  0.5847 -0.2863
  190SAPI  H13R21896   4.208   7.156   5.453  0.4421  0.9698 -0.7002
  190SAPI  H13S21897   4.217   7.137   5.281 -0.7367 -0.0850 -0.8201
  190SAPI  C21421898   4.310   6.974   5.386 -0.3975  0.0590  0.2587
  190SAPI  H14R21899   4.326   6.938   5.488 -0.0793  0.8580  0.4992
  190SAPI  C21521900   4.398   6.942   5.287  0.5138  0.1570 -0.5723
  190SAPI  H15R21901   4.480   6.874   5.318  1.9145  1.2227 -1.7915
  190SAPI  C21621902   4.412   7.005   5.149 -0.3373  0.3438 -0.5082
  190SAPI  H16R21903   4.493   7.081   5.153 -1.6989  1.7987  2.9748
  190SAPI  H16S21904   4.318   7.045   5.107 -0.7416 -0.3677 -0.2969
  190SAPI  C21721905   4.440   6.887   5.051  0.4500  0.3081 -0.2882
  190SAPI  H17R21906   4.522   6.832   5.101 -0.3391  1.9849  3.1175
  190SAPI  H17S21907   4.488   6.925   4.958  2.9811 -1.5083  0.1871
  190SAPI  C21821908   4.311   6.813   5.023  1.1105  0.2096  0.4855
  190SAPI  H18R21909   4.246   6.885   4.970  2.1825  0.2353 -0.8607
  190SAPI  H18S21910   4.267   6.790   5.122 -0.1986  1.9446  0.3568
  190SAPI  C21921911   4.346   6.692   4.932  0.8208 -0.7591  0.3727
  190SAPI  H19R21912   4.357   6.606   5.002 -1.6155 -0.2196  1.5027
  190SAPI  H19S21913   4.439   6.711   4.875  0.1194 -2.9868 -1.6861
  190SAPI  C22021914   4.231   6.661   4.847  0.0643  0.4941  1.0376
  190SAPI  H20R21915   4.205   6.750   4.785  0.3562  0.1171  0.3724
  190SAPI  H20S21916   4.145   6.646   4.916  1.0000  0.9262  2.3352
  190SAPI  H20T21917   4.243   6.570   4.786  0.1910  2.3004 -1.8079
  190SAPI   C3321918   4.435   7.059   6.511  0.5985  0.0756  1.0442
  190SAPI   H3X21919   4.359   7.133   6.476  0.0231 -0.9970 -0.0392
  190SAPI   H3Y21920   4.387   6.961   6.532 -0.9068  0.1773 -1.4197
  190SAPI   C3421921   4.542   7.029   6.399 -0.0176 -0.5866  0.0093
  190SAPI   H4X21922   4.626   6.972   6.445  0.5387 -1.2214 -1.6961
  190SAPI   H4Y21923   4.576   7.127   6.359 -1.4725 -0.6273 -1.4030
  190SAPI   C3521924   4.498   6.953   6.281 -0.1989  0.4579  0.7292
  190SAPI   H5X21925   4.392   6.922   6.287 -0.8866  2.6157  0.5750
  190SAPI   H5Y21926   4.559   6.861   6.271 -1.7485 -0.4122 -1.5694
  190SAPI   C3621927   4.517   7.029   6.150  0.2219 -0.5635 -0.0890
  190SAPI   H6X21928   4.627   7.043   6.155  0.4332 -2.2494  0.9795
  190SAPI   H6Y21929   4.473   7.130   6.161 -2.3152 -1.5253 -0.7939
  190SAPI   C3721930   4.474   6.961   6.023 -0.2640  0.4961 -0.7492
  190SAPI   H7X21931   4.364   6.949   6.031 -0.0776 -1.6808 -0.8324
  190SAPI   H7Y21932   4.528   6.864   6.024 -0.4053  0.3841 -2.4187
  190SAPI   C3821933   4.498   7.045   5.894  0.0847  0.3670  0.3123
  190SAPI   H8X21934   4.606   7.071   5.891 -0.2686  1.9635  0.3767
  190SAPI   H8Y21935   4.433   7.135   5.891 -0.2015  0.1344 -0.7177
  190SAPI   C3921936   4.459   6.976   5.766 -0.9796 -0.1412 -0.3544
  190SAPI   H9X21937   4.454   7.051   5.684  1.6648  0.3261 -0.1892
  190SAPI   H9Y21938   4.360   6.930   5.785 -1.0649 -0.1800 -0.8782
  190SAPI  C31021939   4.564   6.875   5.726 -0.5032  0.1721  0.1847
  190SAPI  H10X21940   4.525   6.798   5.656 -1.8521 -2.5458  3.5807
  190SAPI  H10Y21941   4.596   6.818   5.817 -1.3694  0.5454  0.7379
  190SAPI  C31121942   4.672   6.938   5.637  0.2225  0.0817  0.1732
  190SAPI  H11X21943   4.737   7.004   5.698 -0.3637 -1.8758  3.1204
  190SAPI  H11Y21944   4.626   6.995   5.554  0.5878  1.6870  1.0224
  190SAPI  C31221945   4.770   6.846   5.566 -0.3087  0.2278 -0.8819
  190SAPI  H12X21946   4.721   6.772   5.499 -2.8529  1.3318 -0.3549
  190SAPI  H12Y21947   4.816   6.783   5.646  0.3706  3.6556  1.7029
  190SAPI  C31321948   4.872   6.916   5.489  0.5485  0.1121  0.1373
  190SAPI  H13X21949   4.971   6.868   5.478  0.9858  0.8632  0.7102
  190SAPI  H13Y21950   4.886   7.013   5.542 -0.7186 -0.0893  0.8767
  190SAPI  C31421951   4.839   6.958   5.349  0.4446 -0.8734 -0.0838
  190SAPI  H14X21952   4.743   7.015   5.350  2.0069  1.9384  0.2401
  190SAPI  H14Y21953   4.814   6.880   5.274  0.5296 -0.2725 -0.7495
  190SAPI  C31521954   4.950   7.045   5.287  0.4431 -0.1490  0.1062
  190SAPI  H15X21955   5.045   6.988   5.290  0.7658  0.3850  0.2488
  190SAPI  H15Y21956   4.961   7.142   5.340  0.1025  1.3584 -2.4316
  190SAPI  C31621957   4.917   7.076   5.138  0.2559  0.5239  0.3885
  190SAPI  H16X21958   4.937   6.979   5.089  0.1885  1.4314 -1.5257
  190SAPI  H16Y21959   4.987   7.155   5.102  1.1290 -0.1535  0.5806
  190SAPI  C31721960   4.770   7.117   5.108  0.6989  0.4795  0.3087
  190SAPI  H17X21961   4.740   7.200   5.177 -2.8084 -0.1227 -0.3042
  190SAPI  H17Y21962   4.704   7.031   5.129  0.9670 -0.6667 -3.0732
  190SAPI  C31821963   4.756   7.160   4.964 -0.0548 -0.1935 -0.6620
  190SAPI  H18X21964   4.806   7.099   4.886 -2.4868 -0.4403 -2.1205
  190SAPI  H18Y21965   4.795   7.265   4.967 -1.3538  0.3113  2.1510
  190SAPI  H18Z21966   4.647   7.166   4.941 -0.2250 -3.0423 -0.8506
  191SAPI   C1221967   4.031   2.781   2.483 -0.2236 -0.1164  0.3197
  191SAPI    H221968   4.116   2.710   2.495 -0.4191 -0.1468  1.7969
  191SAPI    O221969   4.085   2.910   2.474 -0.2773 -0.0157  0.0285
  191SAPI   HO221970   4.173   2.909   2.512 -0.1029 -1.4002 -0.3387
  191SAPI   C1321971   3.954   2.755   2.347 -0.1972 -0.2736  0.0966
  191SAPI    H321972   3.911   2.653   2.352  0.5064 -0.5772  0.1887
  191SAPI    O321973   4.053   2.755   2.246  0.1981 -0.1283  0.1860
  191SAPI   HO321974   4.103   2.837   2.251 -0.5765  0.2815  2.1356
  191SAPI   C1421975   3.847   2.861   2.332  0.1496 -0.9049 -0.2948
  191SAPI    H421976   3.899   2.958   2.312  1.3617 -0.9691  2.1419
  191SAPI    O421977   3.762   2.845   2.224 -0.4402  0.5651 -0.4277
  191SAPI   HO421978   3.745   2.751   2.235 -0.5166  0.6859  0.6466
  191SAPI   C1521979   3.764   2.893   2.456  0.8117 -0.1177  0.4787
  191SAPI    H521980   3.665   2.843   2.450  1.9566 -2.7442  1.7948
  191SAPI    O521981   3.722   3.036   2.454  0.5994  0.5596  0.3947
  191SAPI   HO521982   3.634   3.033   2.493  0.4522 -0.7247  0.0085
  191SAPI   C1621983   3.826   2.855   2.596 -0.0820  0.2023 -0.7002
  191SAPI    H621984   3.855   2.955   2.636 -1.5418  0.1206  0.6953
  191SAPI    O621985   3.722   2.812   2.685  0.0149 -0.4051  0.9625
  191SAPI   HO621986   3.724   2.854   2.771 -1.1624 -1.3878  1.5000
  191SAPI   C1121987   3.945   2.755   2.603  0.6344  0.1503  0.1207
  191SAPI    H121988   3.897   2.656   2.590 -0.2049  0.7583 -1.7852
  191SAPI     P21989   4.091   2.645   2.791  0.1634  0.1699  0.1683
  191SAPI   O1321990   4.227   2.693   2.825 -0.0197  0.0277 -0.3189
  191SAPI   O1421991   4.083   2.527   2.697  0.9403 -0.3996 -0.2574
  191SAPI   O1221992   4.008   2.769   2.729 -0.1865 -0.5585  0.3010
  191SAPI   O1121993   4.007   2.598   2.919  0.1662  0.4211 -0.3849
  191SAPI    C121994   3.864   2.579   2.915 -0.9609 -0.4428  0.4852
  191SAPI    HA21995   3.817   2.672   2.952 -1.6407 -0.2237 -0.8503
  191SAPI    HB21996   3.829   2.559   2.811  0.2084  0.9739 -0.2094
  191SAPI    C221997   3.833   2.457   3.003 -0.1155  0.0673 -0.2840
  191SAPI    HS21998   3.735   2.409   2.978  0.0499 -1.4780  1.7862
  191SAPI   O2121999   3.829   2.499   3.142  0.2261  0.2142 -0.0345
  191SAPI   C2122000   3.717   2.560   3.177 -0.0667  0.0193 -0.4688
  191SAPI   O2222001   3.620   2.575   3.107 -0.6666  0.0122 -0.7076
  191SAPI   C2222002   3.720   2.579   3.328 -0.4780 -0.4236  0.1020
  191SAPI   H2R22003   3.806   2.520   3.368 -0.0165 -1.0660 -1.7435
  191SAPI   H2S22004   3.749   2.686   3.340 -0.7725 -0.1397 -1.5001
  191SAPI    C322005   3.934   2.336   2.994  0.2826 -0.1025 -0.0993
  191SAPI    HX22006   4.035   2.369   3.026  1.4408 -0.9077 -2.6368
  191SAPI    HY22007   3.949   2.307   2.888 -1.8367 -2.2696  0.1079
  191SAPI   O3122008   3.900   2.226   3.085 -1.1752  0.1108  0.3626
  191SAPI   C3122009   3.834   2.124   3.036  0.0232  0.2762 -0.6209
  191SAPI   O3222010   3.802   2.110   2.921 -0.6489 -0.5285  0.8646
  191SAPI   C3222011   3.793   2.023   3.147 -0.3351  0.1617  0.5520
  191SAPI   H2X22012   3.878   1.998   3.214  0.8900  0.5421 -0.8371
  191SAPI   H2Y22013   3.767   1.930   3.093  4.3340 -0.0039 -1.8333
  191SAPI   C2322014   3.587   2.572   3.401  0.4164 -1.4433  0.8033
  191SAPI   H3R22015   3.506   2.609   3.336  0.7152  1.5641  1.9792
  191SAPI   H3S22016   3.582   2.647   3.483  0.8039  0.5374 -0.9298
  191SAPI   C2422017   3.546   2.441   3.457 -0.5306 -1.1277  0.4586
  191SAPI   H4R22018   3.464   2.459   3.530  0.4156 -2.3399  1.8660
  191SAPI   H4S22019   3.627   2.400   3.520  0.2745 -0.7103 -0.2792
  191SAPI   C2522020   3.495   2.347   3.348  0.9291 -0.0332  0.3428
  191SAPI   H5R22021   3.563   2.328   3.264  1.7557  0.9590  0.7769
  191SAPI   C2622022   3.372   2.283   3.338  0.1251 -0.3383 -0.0897
  191SAPI   H6R22023   3.355   2.221   3.249 -2.9688  0.2628 -0.0191
  191SAPI   C2722024   3.254   2.289   3.425 -0.1287 -0.5540 -0.0554
  191SAPI   H7R22025   3.158   2.305   3.371 -1.0967  1.1200  2.0298
  191SAPI   H7S22026   3.268   2.375   3.494 -0.4409  1.4785 -2.3604
  191SAPI   C2822027   3.244   2.150   3.492 -0.4612  0.1125 -0.2584
  191SAPI   H8R22028   3.249   2.058   3.431  0.2518 -0.1237  0.1533
  191SAPI   C2922029   3.239   2.131   3.625 -0.3534  0.8265 -0.0207
  191SAPI   H9R22030   3.224   2.028   3.661  2.4995  0.4411  0.2412
  191SAPI  C21022031   3.244   2.245   3.733  0.1510 -0.6078 -0.0655
  191SAPI  H10R22032   3.287   2.338   3.689 -1.1387 -0.1291 -0.3373
  191SAPI  H10S22033   3.308   2.207   3.816  0.4597 -0.6041 -0.2978
  191SAPI  C21122034   3.106   2.271   3.793 -0.2462  0.2807  0.6849
  191SAPI  H11R22035   3.027   2.310   3.727  0.0354 -0.6276 -0.2208
  191SAPI  C21222036   3.058   2.226   3.909 -0.0733  0.0545 -0.0486
  191SAPI  H12R22037   2.955   2.256   3.935  0.6182  2.0184  0.6493
  191SAPI  C21322038   3.132   2.172   4.031 -0.4886 -0.6314 -0.0556
  191SAPI  H13R22039   3.162   2.263   4.088  0.9471 -0.0387 -1.6363
  191SAPI  H13S22040   3.231   2.132   4.002  1.0275  3.2358 -0.8760
  191SAPI  C21422041   3.063   2.065   4.118  0.2633 -0.4644  0.1029
  191SAPI  H14R22042   2.986   2.003   4.070 -0.1161  0.5781 -0.6795
  191SAPI  C21522043   3.089   2.045   4.246  0.4831 -0.2232 -0.2665
  191SAPI  H15R22044   3.030   1.976   4.308  2.5765  0.9366  3.3185
  191SAPI  C21622045   3.192   2.115   4.329 -0.1343 -0.2584  0.1865
  191SAPI  H16R22046   3.271   2.154   4.262 -0.3159 -0.9228 -0.4235
  191SAPI  H16S22047   3.242   2.042   4.396  2.0979  2.2617  1.4685
  191SAPI  C21722048   3.128   2.236   4.396 -0.2659  0.4469  0.4029
  191SAPI  H17R22049   3.062   2.203   4.479  0.1718 -1.5974 -0.0154
  191SAPI  H17S22050   3.065   2.294   4.325 -0.1039  0.5977  0.3827
  191SAPI  C21822051   3.226   2.342   4.454  0.0228 -0.8266  0.0149
  191SAPI  H18R22052   3.163   2.391   4.531 -0.6539 -2.0881  0.2992
  191SAPI  H18S22053   3.256   2.414   4.375  0.5192 -1.2446 -0.1824
  191SAPI  C21922054   3.351   2.280   4.514  1.2804  0.1314  0.2627
  191SAPI  H19R22055   3.416   2.265   4.425 -0.9856  2.1953 -1.8849
  191SAPI  H19S22056   3.308   2.197   4.574 -2.1271  0.2533 -1.7171
  191SAPI  C22022057   3.425   2.385   4.600 -0.1502 -0.0491  0.4785
  191SAPI  H20R22058   3.368   2.414   4.691 -1.3865 -0.4163 -0.1559
  191SAPI  H20S22059   3.445   2.474   4.537 -0.9244 -0.3824 -0.2542
  191SAPI  H20T22060   3.522   2.334   4.620 -1.2431 -1.9796  1.1772
  191SAPI   C3322061   3.675   2.079   3.238 -1.1228  0.5817  0.5899
  191SAPI   H3X22062   3.581   2.108   3.187 -1.1889 -0.4846  0.0557
  191SAPI   H3Y22063   3.715   2.164   3.297  1.0203  1.1922 -1.5543
  191SAPI   C3422064   3.609   1.970   3.333 -0.0064  0.0379 -0.1110
  191SAPI   H4X22065   3.631   1.872   3.287 -0.0563 -0.4286  0.8362
  191SAPI   H4Y22066   3.499   1.980   3.326  0.1422  0.8590 -1.6473
  191SAPI   C3522067   3.656   1.986   3.483 -0.5570 -0.4035  0.2322
  191SAPI   H5X22068   3.642   2.093   3.507  2.4762  0.5848 -1.9314
  191SAPI   H5Y22069   3.763   1.959   3.493 -0.8081 -0.8420  2.3303
  191SAPI   C3622070   3.568   1.900   3.594 -0.3298  0.6478  0.1969
  191SAPI   H6X22071   3.586   1.796   3.559 -5.6767 -0.3967 -0.2987
  191SAPI   H6Y22072   3.461   1.926   3.586 -0.3893  0.3254 -0.0754
  191SAPI   C3722073   3.616   1.915   3.735 -0.6206  0.2698 -0.0731
  191SAPI   H7X22074   3.726   1.909   3.750 -0.5817 -0.0535 -0.4698
  191SAPI   H7Y22075   3.560   1.846   3.801 -3.8096  1.0458 -1.7487
  191SAPI   C3822076   3.592   2.052   3.791  0.3306 -0.0029  0.1131
  191SAPI   H8X22077   3.484   2.078   3.785  0.6484  1.5016  0.3428
  191SAPI   H8Y22078   3.659   2.126   3.742 -0.8424  0.4511 -0.8551
  191SAPI   C3922079   3.625   2.056   3.941  0.6615  0.0001 -0.7288
  191SAPI   H9X22080   3.734   2.044   3.957  0.4626 -0.5714  0.2748
  191SAPI   H9Y22081   3.587   1.961   3.984 -0.0398  1.2685  1.6190
  191SAPI  C31022082   3.562   2.175   4.030  0.6948  1.1545  0.3647
  191SAPI  H10X22083   3.454   2.164   4.050  0.8229 -1.3963  0.0296
  191SAPI  H10Y22084   3.587   2.265   3.970  1.2130  0.0586 -1.1384
  191SAPI  C31122085   3.645   2.161   4.161  0.3198 -0.0397  0.4518
  191SAPI  H11X22086   3.626   2.248   4.227  0.0455 -1.2766  2.0881
  191SAPI  H11Y22087   3.750   2.164   4.126 -0.2459  1.2886 -1.2512
  191SAPI  C31222088   3.633   2.037   4.245 -0.1115  0.2701  0.3766
  191SAPI  H12X22089   3.655   1.942   4.192 -0.5584  1.5006 -2.1822
  191SAPI  H12Y22090   3.533   2.034   4.294  0.5129 -0.5279  1.6543
  191SAPI  C31322091   3.746   2.034   4.360  0.2369 -0.8077  0.6282
  191SAPI  H13X22092   3.761   2.128   4.417 -1.8179 -0.9890  1.5548
  191SAPI  H13Y22093   3.840   2.005   4.308  0.5631 -0.1066  0.8138
  191SAPI  C31422094   3.721   1.936   4.478  0.0918  0.8670 -0.0769
  191SAPI  H14X22095   3.809   1.944   4.545 -0.6503  0.1858  1.0285
  191SAPI  H14Y22096   3.729   1.831   4.446  0.6481  0.7973  0.2775
  191SAPI  C31522097   3.593   1.951   4.554 -0.5292 -0.9805 -0.5108
  191SAPI  H15X22098   3.506   1.971   4.488  0.9676  1.6253 -1.8756
  191SAPI  H15Y22099   3.601   2.034   4.628 -1.2231 -0.1611 -1.3323
  191SAPI  C31622100   3.569   1.836   4.643 -0.9535  0.1214  0.7969
  191SAPI  H16X22101   3.659   1.797   4.695  0.8000  0.6294 -1.6775
  191SAPI  H16Y22102   3.549   1.748   4.579 -0.9750  1.5001 -1.1630
  191SAPI  C31722103   3.459   1.856   4.749  1.2299  0.1573  0.3602
  191SAPI  H17X22104   3.501   1.922   4.828  1.1559 -0.2365  0.7358
  191SAPI  H17Y22105   3.436   1.765   4.810  0.4703  0.8185  1.0836
  191SAPI  C31822106   3.326   1.915   4.691  0.1022  0.8450 -0.1979
  191SAPI  H18X22107   3.345   2.023   4.674  0.9377  0.5183 -1.5165
  191SAPI  H18Y22108   3.247   1.901   4.768  0.8937 -2.3093  0.1655
  191SAPI  H18Z22109   3.287   1.854   4.607  1.1361  0.1780 -0.2206
  192SAPI   C1222110   6.463   6.515   2.161 -0.4246  0.4111 -0.1010
  192SAPI    H222111   6.569   6.491   2.185 -1.1314 -2.1731  0.7865
  192SAPI    O222112   6.451   6.599   2.051 -0.6745  0.0653  0.5201
  192SAPI   HO222113   6.466   6.689   2.082 -0.1568  0.1951 -0.0869
  192SAPI   C1322114   6.391   6.386   2.125  0.1528  0.1294 -0.6365
  192SAPI    H322115   6.378   6.328   2.219 -3.2224  1.3025 -0.2504
  192SAPI    O322116   6.462   6.309   2.023 -0.1777 -0.0342 -0.4834
  192SAPI   HO322117   6.455   6.216   2.048 -0.8452 -0.2872 -1.5610
  192SAPI   C1422118   6.252   6.427   2.087  0.5721 -0.1506  0.2068
  192SAPI    H422119   6.252   6.485   1.993 -0.2555 -1.5644 -0.7036
  192SAPI    O422120   6.184   6.306   2.054 -0.2304 -0.6092 -0.2659
  192SAPI   HO422121   6.239   6.254   1.995 -1.8162 -0.5464 -1.8694
  192SAPI   C1522122   6.182   6.508   2.193  0.8488  0.1667  0.1176
  192SAPI    H522123   6.157   6.428   2.267 -1.5349 -0.6699 -1.4987
  192SAPI    O522124   6.057   6.558   2.140  0.3704  0.7139 -0.3198
  192SAPI   HO522125   6.057   6.654   2.143 -1.4072  0.7705 -0.7604
  192SAPI   C1622126   6.263   6.612   2.269 -0.0380  0.4025  0.5347
  192SAPI    H622127   6.256   6.700   2.201  0.1155  0.0320  0.0349
  192SAPI    O622128   6.204   6.640   2.385  0.6849 -0.0202 -0.5509
  192SAPI   HO622129   6.242   6.580   2.449 -1.6906 -1.7560 -0.5991
  192SAPI   C1122130   6.410   6.578   2.287  0.7421 -0.6711  0.1296
  192SAPI    H122131   6.420   6.496   2.361  4.0189  0.4677  1.0865
  192SAPI     P22132   6.572   6.701   2.473  0.5316  0.4444 -0.1230
  192SAPI   O1322133   6.683   6.802   2.468 -0.5971 -0.4056 -0.2656
  192SAPI   O1422134   6.616   6.571   2.525  0.4993 -0.0826  0.1595
  192SAPI   O1222135   6.486   6.692   2.329  0.5668  1.0359 -0.3202
  192SAPI   O1122136   6.461   6.749   2.574  0.0815  0.3717  0.4426
  192SAPI    C122137   6.419   6.884   2.576  0.3034  0.3357 -0.2979
  192SAPI    HA22138   6.502   6.951   2.546 -0.7158  1.3767 -0.8516
  192SAPI    HB22139   6.333   6.892   2.507  1.3719  1.2166 -1.5657
  192SAPI    C222140   6.369   6.934   2.720  0.2183  0.7962 -0.3355
  192SAPI    HS22141   6.365   7.045   2.714 -0.7975  0.7598 -0.4340
  192SAPI   O2122142   6.462   6.889   2.826  0.0436 -0.1083  0.4594
  192SAPI   C2122143   6.575   6.957   2.821  0.1430  0.2484 -0.3423
  192SAPI   O2222144   6.590   7.058   2.756 -0.4954 -0.1853  0.3053
  192SAPI   C2222145   6.679   6.901   2.912 -1.3638  0.5764  0.6075
  192SAPI   H2R22146   6.627   6.838   2.988 -0.9125  0.6723  0.9986
  192SAPI   H2S22147   6.754   6.843   2.854  1.4237  3.3257  1.1737
  192SAPI    C322148   6.221   6.876   2.738 -0.2766 -0.0107 -0.8252
  192SAPI    HX22149   6.228   6.768   2.712 -3.8012 -0.5510 -0.0167
  192SAPI    HY22150   6.159   6.930   2.663 -2.4514  0.5243  1.2657
  192SAPI   O3122151   6.166   6.898   2.867  0.1268 -0.1684 -0.4843
  192SAPI   C3122152   6.204   6.805   2.957  0.2116 -0.2608 -0.1466
  192SAPI   O3222153   6.287   6.722   2.945 -0.1582  0.1353  0.3649
  192SAPI   C3222154   6.136   6.829   3.090 -0.1375 -0.4698  0.0388
  192SAPI   H2X22155   6.059   6.749   3.095 -0.3119 -0.3309 -0.3797
  192SAPI   H2Y22156   6.077   6.924   3.083 -2.1138 -1.6287  0.2233
  192SAPI   C2322157   6.764   7.023   2.972 -0.5846 -0.1897 -0.0521
  192SAPI   H3R22158   6.811   7.078   2.888 -0.5285 -1.6679 -1.0266
  192SAPI   H3S22159   6.844   6.977   3.033 -2.1387 -1.2642  1.2439
  192SAPI   C2422160   6.692   7.115   3.070  0.5322  0.0371  0.4591
  192SAPI   H4R22161   6.606   7.169   3.025 -2.1392 -1.8441  2.9169
  192SAPI   H4S22162   6.759   7.200   3.094  1.0283  0.6727 -2.7346
  192SAPI   C2522163   6.640   7.044   3.193 -0.6204  0.3283  0.2264
  192SAPI   H5R22164   6.559   6.975   3.168  2.1394 -2.1147 -2.9754
  192SAPI   C2622165   6.682   7.067   3.316 -0.5806  0.4903 -0.0151
  192SAPI   H6R22166   6.638   7.013   3.400 -1.7597  0.2079 -0.7941
  192SAPI   C2722167   6.794   7.164   3.356  0.4514  0.2329 -0.6319
  192SAPI   H7R22168   6.748   7.265   3.352  1.2664  0.7741  1.9297
  192SAPI   H7S22169   6.880   7.165   3.285  1.2972  1.1872  0.3693
  192SAPI   C2822170   6.846   7.138   3.493 -0.0594  1.0091 -0.9020
  192SAPI   H8R22171   6.938   7.079   3.503 -1.1622 -0.4774  1.2765
  192SAPI   C2922172   6.783   7.192   3.602 -0.5273  0.0402  0.4782
  192SAPI   H9R22173   6.835   7.165   3.695 -0.3244  0.4098  0.4732
  192SAPI  C21022174   6.666   7.282   3.618 -0.0886  0.4028  0.4604
  192SAPI  H10R22175   6.612   7.287   3.521 -1.5103  0.3412  1.2214
  192SAPI  H10S22176   6.696   7.383   3.654  2.1252 -0.4872  1.2668
  192SAPI  C21122177   6.568   7.219   3.717  0.2554  0.2059 -0.5420
  192SAPI  H11R22178   6.505   7.141   3.672 -1.5977  1.1735  0.2574
  192SAPI  C21222179   6.555   7.248   3.846 -0.6938 -0.6700  0.2565
  192SAPI  H12R22180   6.488   7.187   3.908 -0.7320 -2.4549 -1.4549
  192SAPI  C21322181   6.627   7.365   3.916 -0.2232  0.4144  0.5712
  192SAPI  H13R22182   6.557   7.435   3.967  1.2544  1.5199  1.1354
  192SAPI  H13S22183   6.670   7.436   3.843  0.5102  0.5911  1.1719
  192SAPI  C21422184   6.723   7.316   4.023  0.4477 -0.2299  0.4555
  192SAPI  H14R22185   6.820   7.295   3.976  0.9471  0.4809  1.1631
  192SAPI  C21522186   6.702   7.302   4.158  0.9035 -0.8035  0.1347
  192SAPI  H15R22187   6.786   7.267   4.221  2.0612  1.6919  0.0953
  192SAPI  C21622188   6.575   7.327   4.227  0.1115 -0.7065  0.8730
  192SAPI  H16R22189   6.565   7.262   4.316 -1.9744  0.4855  1.5816
  192SAPI  H16S22190   6.492   7.312   4.156  1.2336 -2.4298 -0.1418
  192SAPI  C21722191   6.566   7.480   4.276 -0.0864 -0.3696 -0.2630
  192SAPI  H17R22192   6.465   7.483   4.322  0.1700 -2.1538  0.5239
  192SAPI  H17S22193   6.571   7.552   4.192 -0.8028  2.0132  1.6102
  192SAPI  C21822194   6.683   7.524   4.366  0.5207  0.3012  0.4180
  192SAPI  H18R22195   6.752   7.573   4.293  0.5871  1.5461  1.2788
  192SAPI  H18S22196   6.742   7.440   4.409  1.9934  1.2297  0.3155
  192SAPI  C21922197   6.651   7.652   4.446  0.3053  0.1950 -0.4477
  192SAPI  H19R22198   6.577   7.633   4.526  1.8880  2.7123  1.7968
  192SAPI  H19S22199   6.602   7.732   4.387 -0.5598 -0.8689 -1.2167
  192SAPI  C22022200   6.771   7.711   4.519 -0.2087 -0.7785  0.4130
  192SAPI  H20R22201   6.736   7.770   4.607  0.5808  0.4918 -0.0941
  192SAPI  H20S22202   6.843   7.769   4.458  1.9586 -2.3291  1.3543
  192SAPI  H20T22203   6.831   7.623   4.552  0.4337  0.3124  2.3464
  192SAPI   C3322204   6.232   6.809   3.208  0.2654  0.0087  0.1491
  192SAPI   H3X22205   6.321   6.873   3.191  1.1960 -0.2176  3.5036
  192SAPI   H3Y22206   6.258   6.701   3.213 -0.7058 -0.2973 -0.8775
  192SAPI   C3422207   6.168   6.854   3.342  0.0225  0.1405  0.2716
  192SAPI   H4X22208   6.061   6.823   3.341  0.1998 -0.4761 -1.1441
  192SAPI   H4Y22209   6.168   6.965   3.336 -0.6731  0.1457  0.2611
  192SAPI   C3522210   6.254   6.797   3.449 -0.1017  0.2355 -0.2498
  192SAPI   H5X22211   6.362   6.818   3.430  0.1245  0.5661  1.2761
  192SAPI   H5Y22212   6.241   6.687   3.451 -0.6645  0.3102  0.4993
  192SAPI   C3622213   6.214   6.846   3.592 -0.6689 -0.5444  0.0899
  192SAPI   H6X22214   6.103   6.844   3.604 -0.8870 -0.1528 -1.5130
  192SAPI   H6Y22215   6.252   6.948   3.613  2.1821 -1.0414 -2.0607
  192SAPI   C3722216   6.282   6.758   3.697 -0.8017  0.4534 -0.2125
  192SAPI   H7X22217   6.392   6.767   3.682  0.4872 -2.8858  4.7922
  192SAPI   H7Y22218   6.263   6.649   3.687  1.6437  0.0105 -0.6718
  192SAPI   C3822219   6.239   6.785   3.843  0.1875  0.2359  0.1301
  192SAPI   H8X22220   6.266   6.702   3.911 -0.4114  0.7351  0.9878
  192SAPI   H8Y22221   6.129   6.795   3.840  0.1404 -0.1990  0.3725
  192SAPI   C3922222   6.285   6.926   3.892 -0.1364 -0.2946 -0.2117
  192SAPI   H9X22223   6.202   6.962   3.955 -0.7346 -3.6393  1.1618
  192SAPI   H9Y22224   6.299   7.003   3.814 -0.8881  0.4076  0.3332
  192SAPI  C31022225   6.395   6.932   4.001  0.1882  0.2427  0.2874
  192SAPI  H10X22226   6.438   7.034   4.002  1.1955 -0.1633  0.1609
  192SAPI  H10Y22227   6.477   6.865   3.965  0.3457  0.8241 -0.4769
  192SAPI  C31122228   6.345   6.893   4.140 -0.0678  0.1426 -0.1877
  192SAPI  H11X22229   6.301   6.791   4.141  1.6501 -0.6593 -1.5873
  192SAPI  H11Y22230   6.259   6.955   4.173  0.2973  0.1605  0.7623
  192SAPI  C31222231   6.457   6.901   4.245  0.6180 -0.1100  0.2842
  192SAPI  H12X22232   6.494   7.005   4.250 -1.3904  0.6023  1.3203
  192SAPI  H12Y22233   6.543   6.837   4.216  2.2699  1.7826  0.7835
  192SAPI  C31322234   6.399   6.856   4.380 -0.5562 -0.3117  0.6088
  192SAPI  H13X22235   6.368   6.750   4.384 -1.5845 -0.0217  0.4864
  192SAPI  H13Y22236   6.315   6.925   4.404 -0.0686 -0.1772  2.0312
  192SAPI  C31422237   6.508   6.867   4.493 -0.3282  0.4024  1.3450
  192SAPI  H14X22238   6.560   6.965   4.495  1.3800 -0.3789 -0.7861
  192SAPI  H14Y22239   6.582   6.786   4.475 -1.7595 -0.4573 -1.3402
  192SAPI  C31522240   6.454   6.840   4.633  0.6776 -0.4947  0.0519
  192SAPI  H15X22241   6.545   6.821   4.695  1.0303 -0.5039 -0.4613
  192SAPI  H15Y22242   6.387   6.752   4.639 -2.2134  1.5095 -0.5312
  192SAPI  C31622243   6.379   6.962   4.685 -0.1453  0.0036 -0.8083
  192SAPI  H16X22244   6.278   6.951   4.640  0.6578 -1.5858 -2.3381
  192SAPI  H16Y22245   6.430   7.054   4.650 -0.2831  0.5433  0.3703
  192SAPI  C31722246   6.384   6.968   4.848 -0.1690 -0.5600 -0.2038
  192SAPI  H17X22247   6.345   7.069   4.875  0.5485  0.4270 -2.5887
  192SAPI  H17Y22248   6.492   6.967   4.874 -0.0534  1.7785 -0.3340
  192SAPI  C31822249   6.306   6.855   4.918  0.0552  0.2136 -0.8585
  192SAPI  H18X22250   6.361   6.760   4.898 -0.9091 -0.3188 -1.0876
  192SAPI  H18Y22251   6.198   6.846   4.891 -0.1205 -0.4233  0.0235
  192SAPI  H18Z22252   6.298   6.876   5.026  1.2147 -0.8776 -0.5396
  193SOD    SOD22253   3.545   2.018   0.615  0.6474 -0.2997 -0.0072
  194SOD    SOD22254   3.049   6.109   2.118  0.0203  0.1278 -0.1171
  195SOD    SOD22255   0.501   4.783   8.465  0.2037  0.0302  0.2005
  196SOD    SOD22256   4.540   0.360   1.464 -0.3854 -0.0120  0.0411
  197SOD    SOD22257   0.257   5.878   6.743  0.1784  0.1914  0.0111
  198SOD    SOD22258   1.333   2.754   8.588 -0.3181  0.0485 -0.3127
  199SOD    SOD22259   6.068   3.306   8.197  0.4610 -0.2542 -0.2316
  200SOD    SOD22260   5.234   1.644   7.932  0.0074 -0.0415  0.3037
  201SOD    SOD22261   1.641   5.485   0.555 -0.1318 -0.3094 -0.0143
  202SOD    SOD22262   6.316   4.862   2.665 -0.5985  0.4433  0.1829
  203SOD    SOD22263   1.207   6.042   2.485  0.1526  0.0504 -0.3806
  204SOD    SOD22264   1.926   0.667   1.087 -0.0802 -0.2382  0.0982
  205SOD    SOD22265   3.230   3.975   7.656  0.3690  0.4219 -0.4354
  206SOD    SOD22266   4.699   4.337   1.190 -0.0128 -0.4159  0.1289
  207SOD    SOD22267   5.363   4.769   7.247  0.1757  0.0312  0.7292
  208SOD    SOD22268   2.157   3.134   0.149  0.1180 -0.1721  0.1446
  209SOD    SOD22269   2.736   4.628   2.203 -0.0807 -0.2129 -0.2210
  210SOD    SOD22270   5.391   6.788   2.658  0.5293  0.0462  0.1771
  211SOD    SOD22271   4.284   0.575   0.569 -0.3544 -0.1045  0.0867
  212SOD    SOD22272   4.671   0.334   2.060 -0.3806  0.2184 -0.5423
  213SOD    SOD22273   6.435   2.885   2.485  0.5767  0.2949  0.3147
  214SOD    SOD22274   5.795   5.496   2.331 -0.3184 -0.1691  0.0930
  215SOD    SOD22275   0.649   2.010   6.843  0.2178  0.1319  0.1436
  216SOD    SOD22276   4.752   2.644   1.233 -0.6464 -0.0090 -0.5023
  217SOD    SOD22277   1.745   0.569   1.603 -0.4383 -0.4773 -0.0917
  218SOD    SOD22278   1.618   0.506   2.867  0.5341 -0.2089 -0.3190
  219SOD    SOD22279   1.833   3.048   2.633 -0.0016  0.5317 -0.1223
  220SOD    SOD22280   3.246   1.778   2.444  0.1320 -0.0204  0.2184
  221SOD    SOD22281   3.881   3.884   6.783  0.2559 -0.0567  0.2695
  222SOD    SOD22282   0.202   3.267   7.164 -0.4645  0.1736  0.0304
  223SOD    SOD22283   2.899   6.648   7.883  0.5029  0.5721 -0.5494
  224SOD    SOD22284   1.226   5.553   8.453 -0.2393  0.0820 -0.1285
  225SOD    SOD22285   4.093   0.599   1.747  0.1537  0.4076  0.4774
  226SOD    SOD22286   1.883   2.960   1.981  0.0958  0.3706 -0.4398
  227SOD    SOD22287   4.171   1.458   2.078 -0.3465  0.0301 -0.0279
  228SOD    SOD22288   1.415   6.417   7.168  0.1540  0.4235 -0.2687
  229SOD    SOD22289   6.519   1.709   8.435  0.2896 -0.2401  0.6404
  230SOD    SOD22290   5.448   1.945   0.663 -0.5173 -0.0956 -0.0002
  231SOD    SOD22291   5.585   3.000   0.590 -0.6496 -0.5699  0.2435
  232SOD    SOD22292   2.146   4.484   8.058  0.1715  0.2125  0.8110
  233SOD    SOD22293   0.905   1.767   2.070 -0.5138  0.0985  0.0344
  234CLA    CLA22294   4.552   2.552   0.769  0.1146 -0.3651  0.3671
  235CLA    CLA22295   0.061   6.437   0.047 -0.0351 -0.1817  0.2464
  236CLA    CLA22296   1.095   6.198   0.969  0.0467  0.2572 -0.3341
  237CLA    CLA22297   3.104   5.861   2.016 -0.3880  0.0702  0.1626
  238CLA    CLA22298   0.405   4.255   7.519 -0.1687 -0.1329  0.0850
  239CLA    CLA22299   6.725   1.659   1.330  0.1603 -0.3949 -0.5282
  240CLA    CLA22300   4.576   2.563   1.652 -0.1406  0.4176 -0.3979
  241CLA    CLA22301   6.134   5.327   0.413  0.4168 -0.0309 -0.3012
  242CLA    CLA22302   3.340   1.648   1.038  0.2900 -0.0329 -0.2592
  243CLA    CLA22303   1.731   4.475   8.342 -0.2408 -0.4062 -0.0271
  244CLA    CLA22304   2.179   1.804   8.570  0.6241  0.1163 -0.0166
  245CLA    CLA22305   5.281   1.788   7.387 -0.1714  0.1994 -0.2008
  246CLA    CLA22306   1.082   6.558   1.895  0.3920  0.4796 -0.0089
  247CLA    CLA22307   2.032   1.234   1.658  0.2258  0.1380  0.0730
  248CLA    CLA22308   4.557   6.251   8.602 -0.1782  0.2037 -0.3411
  249CLA    CLA22309   3.408   4.302   2.054 -0.4026 -0.3208  0.0780
  250CLA    CLA22310   4.707   3.872   0.923 -0.3082  0.2518 -0.0079
  251TIP3   OH222311   3.128   5.057   2.223  0.0851  0.5756 -0.0858
  251TIP3    H122312   3.129   5.115   2.299  1.4994  1.3592 -0.6678
  251TIP3    H222313   3.081   5.106   2.156 -1.4560 -0.2490  0.3288
  252TIP3   OH222314   3.367   1.136   0.377 -0.2356 -0.4220  0.3688
  252TIP3    H122315   3.347   1.145   0.284 -0.8774 -0.1234  0.5329
  252TIP3    H222316   3.283   1.120   0.419 -0.0769  0.3285  1.0018
  253TIP3   OH222317   0.174   0.868   2.151  0.0700 -0.3289 -0.4193
  253TIP3    H122318   0.147   0.960   2.148  0.3085 -0.2726 -1.0150
  253TIP3    H222319   0.095   0.820   2.125 -0.0697 -0.2997 -0.0579
  254TIP3   OH222320   1.268   5.070   0.911 -0.2511 -0.0912  0.8691
  254TIP3    H122321   1.314   5.134   0.966  0.3855  0.4189 -0.2335
  254TIP3    H222322   1.214   5.123   0.853  0.7315 -0.5005 -0.4632
  255TIP3   OH222323   5.492   1.223   0.222  0.4918  0.1897  0.3907
  255TIP3    H122324   5.544   1.218   0.302  1.6733  2.5556 -0.1413
  255TIP3    H222325   5.556   1.216   0.151 -0.5217 -1.7432 -0.4115
  256TIP3   OH222326   4.816   6.819   2.178 -0.8076 -0.3572  0.3263
  256TIP3    H122327   4.795   6.848   2.266  0.3263  1.6197 -0.0081
  256TIP3    H222328   4.902   6.856   2.160  0.0654 -2.7332 -0.7466
  257TIP3   OH222329   6.324   6.200   2.488  0.2877 -0.2609 -0.0759
  257TIP3    H122330   6.403   6.240   2.524 -1.2648  1.6054  1.5055
  257TIP3    H222331   6.331   6.107   2.511  1.4513  0.0936  1.1206
  258TIP3   OH222332   2.355   1.984   0.678 -0.0918  0.1074 -0.2134
  258TIP3    H122333   2.413   1.975   0.603 -0.2838  1.2924 -0.5323
  258TIP3    H222334   2.404   1.949   0.752  1.4385  1.9327 -0.2893
  259TIP3   OH222335   5.409   1.772   0.853  0.0314  0.1032 -0.1593
  259TIP3    H122336   5.391   1.810   0.939  0.8298 -0.3326  0.2026
  259TIP3    H222337   5.499   1.740   0.858 -0.4689 -1.4837 -0.5889
  260TIP3   OH222338   4.808   1.874   7.259 -0.5516 -0.4920  0.1559
  260TIP3    H122339   4.858   1.940   7.211 -0.2619  0.1360  1.2700
  260TIP3    H222340   4.875   1.819   7.300 -0.7931 -1.3592 -0.5806
  261TIP3   OH222341   4.097   2.187   0.029 -0.0736 -0.2942  0.1282
  261TIP3    H122342   4.148   2.160  -0.047 -1.6198  0.4588 -1.2416
  261TIP3    H222343   4.062   2.273   0.005 -2.3562 -0.9867  0.7690
  262TIP3   OH222344   0.467   0.833   0.475 -0.5346 -0.1209 -0.4874
  262TIP3    H122345   0.390   0.824   0.420  0.6860  0.4758 -2.3980
  262TIP3    H222346   0.493   0.925   0.467  0.1245 -0.2087  0.4511
  263TIP3   OH222347   3.526   0.391   8.635  0.4024 -0.5145  0.1972
  263TIP3    H122348   3.474   0.469   8.621 -0.6777 -1.3283 -0.4661
  263TIP3    H222349   3.474   0.337   8.694  1.2732 -0.6256  0.8987
  264TIP3   OH222350   2.913   2.591   7.830 -0.6000 -0.3746 -0.2521
  264TIP3    H122351   2.933   2.600   7.737 -0.0718  1.9422  0.0445
  264TIP3    H222352   2.875   2.503   7.837  0.1644 -0.9626 -2.4839
  265TIP3   OH222353   1.119   5.428   0.676  0.0665 -0.2195  0.2344
  265TIP3    H122354   1.101   5.517   0.709 -1.5055 -1.0334  1.7436
  265TIP3    H222355   1.200   5.403   0.718  0.1514  0.2388  0.3554
  266TIP3   OH222356   2.371   1.572   8.453 -0.0455 -0.2306  0.6418
  266TIP3    H122357   2.402   1.629   8.383  0.4450 -1.5671 -0.2657
  266TIP3    H222358   2.316   1.629   8.507 -0.7228  0.7702 -1.0065
  267TIP3   OH222359   2.786   6.350   7.202  0.2795  0.1521 -0.3554
  267TIP3    H122360   2.733   6.429   7.212  0.1557  0.1274 -0.7768
  267TIP3    H222361   2.839   6.366   7.124  0.9578  0.2089  0.1067
  268TIP3   OH222362   0.782   2.393   7.816 -0.2611 -0.8909  0.3267
  268TIP3    H122363   0.815   2.478   7.788  1.8491 -2.1535 -1.4599
  268TIP3    H222364   0.720   2.367   7.748 -0.1865 -1.1590  0.3564
  269TIP3   OH222365   1.771   5.431   1.025 -0.9889 -0.0681 -0.1989
  269TIP3    H122366   1.741   5.415   1.115  0.1374  0.6046  0.3117
  269TIP3    H222367   1.692   5.455   0.977 -1.1684  2.7613  1.3543
  270TIP3   OH222368   4.388   6.455   0.642  0.4150  0.2621  0.3586
  270TIP3    H122369   4.305   6.498   0.621 -0.9160 -0.4024  3.6631
  270TIP3    H222370   4.381   6.368   0.603 -1.2316 -0.3622  1.9124
  271TIP3   OH222371   2.652   0.808   0.679 -0.7453  0.1907  0.0832
  271TIP3    H122372   2.737   0.824   0.721 -0.0545 -0.6140 -0.9777
  271TIP3    H222373   2.630   0.718   0.703 -0.2352 -0.3619 -1.4201
  272TIP3   OH222374   3.074   0.308   1.486  0.4539 -0.3199 -0.4046
  272TIP3    H122375   2.986   0.335   1.513 -0.1051 -1.6568 -0.8458
  272TIP3    H222376   3.062   0.270   1.399  1.4066 -0.9088 -0.2908
  273TIP3   OH222377   2.831   6.524   0.383 -0.0510 -0.1463  0.2385
  273TIP3    H122378   2.810   6.543   0.475  0.3302 -0.2272  0.3446
  273TIP3    H222379   2.810   6.432   0.372 -3.3410  0.5597 -0.6784
  274TIP3   OH222380   3.617   5.529   1.831 -0.0656  0.6937  0.1792
  274TIP3    H122381   3.645   5.457   1.888 -0.1355  0.5247 -0.0029
  274TIP3    H222382   3.615   5.605   1.889  0.1276  0.5742  0.3445
  275TIP3   OH222383   1.866   5.267   1.266  0.4010  0.0974  0.1601
  275TIP3    H122384   1.876   5.254   1.361 -3.2526  1.1205  0.8206
  275TIP3    H222385   1.940   5.324   1.243  1.4632 -0.2617  2.3321
  276TIP3   OH222386   4.475   3.401   0.690 -0.1248  0.2228 -0.6637
  276TIP3    H122387   4.451   3.455   0.764 -0.1861  0.9892 -1.2318
  276TIP3    H222388   4.571   3.402   0.689 -0.1261  0.9749 -1.1268
  277TIP3   OH222389   6.347   6.850   8.467 -0.0609  0.8736 -0.1225
  277TIP3    H122390   6.396   6.770   8.444 -0.4170  0.7662 -0.5215
  277TIP3    H222391   6.274   6.818   8.520 -0.5393  0.8604 -0.7756
  278TIP3   OH222392   0.223   3.652   7.250 -0.2889  0.1901 -0.0018
  278TIP3    H122393   0.178   3.594   7.188 -0.7668  0.0552  0.4588
  278TIP3    H222394   0.152   3.693   7.299  0.0865  0.0084  0.7091
  279TIP3   OH222395   3.234   4.829   1.683 -0.1451  0.3599  0.2809
  279TIP3    H122396   3.305   4.781   1.726 -0.5972 -0.8401 -0.2708
  279TIP3    H222397   3.269   4.917   1.671  1.0584 -0.0678  0.4850
  280TIP3   OH222398   6.058   1.742   0.669 -0.2843 -0.2794 -0.2960
  280TIP3    H122399   6.116   1.680   0.625 -2.0191 -1.9528 -0.3424
  280TIP3    H222400   5.970   1.714   0.646 -1.2315  0.2461  2.2819
  281TIP3   OH222401   6.039   6.706   0.452 -0.1506  0.4350 -0.2374
  281TIP3    H122402   6.054   6.775   0.388  1.7100  1.6580  1.3907
  281TIP3    H222403   6.019   6.753   0.533  1.2893 -0.8779  0.9460
  282TIP3   OH222404   6.826   1.268   1.919 -0.6040 -0.2952  0.1185
  282TIP3    H122405   6.768   1.237   1.849  0.5031 -0.5646 -0.6987
  282TIP3    H222406   6.897   1.313   1.874 -0.4713  0.5567  1.1404
  283TIP3   OH222407   0.287   0.985   7.010  0.5391  0.4638 -0.2746
  283TIP3    H122408   0.298   0.894   6.984 -0.7762  0.6592 -1.6986
  283TIP3    H222409   0.218   1.018   6.952  0.0534  2.0049  1.0941
  284TIP3   OH222410   3.199   4.620   7.851  0.1527  0.5398  0.5325
  284TIP3    H122411   3.150   4.658   7.924  1.4725  0.5709  1.4497
  284TIP3    H222412   3.285   4.662   7.855  0.0046  1.1418 -1.5673
  285TIP3   OH222413   5.212   5.858   2.260 -0.1081  0.2958  0.4155
  285TIP3    H122414   5.121   5.886   2.266  0.1960  1.5770 -0.4220
  285TIP3    H222415   5.259   5.915   2.321 -0.0338 -1.2683  1.8615
  286TIP3   OH222416   4.416   5.638   0.116  0.0326  0.2239 -0.0210
  286TIP3    H122417   4.413   5.731   0.135  0.5002  0.0865  0.7793
  286TIP3    H222418   4.325   5.613   0.102 -0.1454  0.6993  0.2690
  287TIP3   OH222419   0.465   1.376   2.228 -0.9201  0.2560  0.6573
  287TIP3    H122420   0.461   1.423   2.311  1.6254  0.4418  0.7560
  287TIP3    H222421   0.453   1.443   2.161  0.6530  0.7492  0.8392
  288TIP3   OH222422   6.267   1.870   6.448  0.2295  0.0938  0.7000
  288TIP3    H122423   6.265   1.828   6.535  0.2842 -1.0758  0.1528
  288TIP3    H222424   6.175   1.870   6.420  0.2400  0.2797  0.6654
  289TIP3   OH222425   6.383   1.867   8.326 -0.8533  0.2210 -0.1060
  289TIP3    H122426   6.387   1.916   8.244  1.0142  1.3709  0.6110
  289TIP3    H222427   6.310   1.907   8.374 -1.9477 -0.4517 -1.1666
  290TIP3   OH222428   4.099   2.224   0.732  0.8287  0.6261 -0.2758
  290TIP3    H122429   4.073   2.309   0.695  0.7472  0.4652 -0.5938
  290TIP3    H222430   4.188   2.237   0.763  0.8813  0.7797 -0.4886
  291TIP3   OH222431   4.819   5.903   8.091 -0.5122  0.3640  0.4235
  291TIP3    H122432   4.885   5.904   8.160  0.1622  0.2527 -0.2060
  291TIP3    H222433   4.827   5.989   8.049  1.7700 -0.8498 -1.9668
  292TIP3   OH222434   3.107   1.954   0.743 -0.5859  0.4844 -0.6757
  292TIP3    H122435   3.102   1.939   0.838 -1.1213  1.8872 -0.4599
  292TIP3    H222436   3.183   1.903   0.715 -1.0415 -0.8112  0.3213
  293TIP3   OH222437   4.905   4.936   1.062 -0.6263 -0.6445 -0.1025
  293TIP3    H122438   4.923   4.939   1.156  0.9091  1.7582 -0.4060
  293TIP3    H222439   4.984   4.971   1.021 -2.3495  1.1860 -2.1135
  294TIP3   OH222440   4.590   4.863   8.039 -0.0744  0.3043  0.1495
  294TIP3    H122441   4.641   4.908   8.108 -0.1151  0.9527 -0.2290
  294TIP3    H222442   4.500   4.890   8.055  0.0130  1.0845 -0.6151
  295TIP3   OH222443   5.607   5.329   0.368 -1.0423 -0.3407 -0.0607
  295TIP3    H122444   5.565   5.318   0.283  1.4908  1.0977 -1.6377
  295TIP3    H222445   5.548   5.387   0.417 -1.3547  0.9319 -1.8467
  296TIP3   OH222446   6.436   2.930   1.787 -0.3785  1.0075  0.0392
  296TIP3    H122447   6.503   2.874   1.824 -0.9247  0.1286 -0.2531
  296TIP3    H222448   6.484   3.002   1.746  0.5500 -0.5655 -1.8326
  297TIP3   OH222449   2.294   5.881   7.352  0.4443 -0.2071 -0.1990
  297TIP3    H122450   2.350   5.804   7.360 -0.1053 -0.6256 -0.3018
  297TIP3    H222451   2.287   5.895   7.257  1.4448  0.6439 -0.1545
  298TIP3   OH222452   3.512   0.219   2.319  0.9745  0.4191  0.3330
  298TIP3    H122453   3.501   0.126   2.339  1.3918  0.3556  0.2813
  298TIP3    H222454   3.497   0.264   2.402  0.5757  0.3191  0.3136
  299TIP3   OH222455   1.988   4.353   1.943  0.6694 -0.4134 -0.2140
  299TIP3    H122456   1.938   4.364   1.862  0.8335  2.1237 -0.0471
  299TIP3    H222457   2.021   4.441   1.963  3.0320 -1.4952  1.0940
  300TIP3   OH222458   1.603   2.706   2.701  0.2067 -0.1513 -0.7585
  300TIP3    H122459   1.600   2.612   2.683  1.0881  0.0538 -2.1613
  300TIP3    H222460   1.634   2.713   2.791 -0.5354 -1.2115 -0.4140
  301TIP3   OH222461   5.564   4.550   8.236  0.1854  0.2002  0.8538
  301TIP3    H122462   5.596   4.500   8.312 -0.1581 -0.3821  0.6264
  301TIP3    H222463   5.469   4.550   8.246 -0.2653 -3.4068 -1.6405
  302TIP3   OH222464   5.551   6.501   1.761 -0.1888 -0.5353 -0.0634
  302TIP3    H122465   5.459   6.520   1.778  0.3689  1.0431  1.5734
  302TIP3    H222466   5.566   6.531   1.672 -1.2460 -0.7657 -0.3328
  303TIP3   OH222467   3.655   2.594   2.285 -0.3067 -0.8618  0.4724
  303TIP3    H122468   3.606   2.520   2.249 -2.6662  1.3043 -1.1315
  303TIP3    H222469   3.640   2.588   2.380 -1.4984 -1.7523  0.2489
  304TIP3   OH222470   1.772   4.687   8.628 -0.4911  0.0935 -0.3667
  304TIP3    H122471   1.770   4.669   8.534 -0.1161 -1.2435 -0.1379
  304TIP3    H222472   1.748   4.604   8.669  0.0105  0.4794  0.7461
  305TIP3   OH222473   3.611   4.796   2.275  0.3211 -0.4633  0.0507
  305TIP3    H122474   3.567   4.842   2.204 -0.3543 -1.2888 -0.0929
  305TIP3    H222475   3.611   4.858   2.348  1.6482  0.6529 -0.8461
  306TIP3   OH222476   3.888   1.108   1.948 -0.6350 -0.7158 -0.2738
  306TIP3    H122477   3.934   1.040   1.997  1.9787  1.2717  0.2885
  306TIP3    H222478   3.921   1.099   1.858  1.3539  0.9459  0.2041
  307TIP3   OH222479   0.547   0.724   8.120 -0.2768 -0.2582 -0.2414
  307TIP3    H122480   0.525   0.637   8.151  1.1893 -1.0330 -1.2749
  307TIP3    H222481   0.571   0.712   8.028 -5.2616  2.0469 -2.2314
  308TIP3   OH222482   3.103   2.698   1.433 -0.3162 -0.2473 -0.2665
  308TIP3    H122483   3.138   2.726   1.348  3.1574 -2.0465  0.4341
  308TIP3    H222484   3.029   2.641   1.410 -2.5395  2.9509 -1.8364
  309TIP3   OH222485   0.030   1.854   1.485 -0.0537  0.3806 -0.2171
  309TIP3    H122486  -0.039   1.798   1.449 -0.5375 -0.2550  1.5736
  309TIP3    H222487   0.066   1.804   1.558  0.6559  1.7163  0.3924
  310TIP3   OH222488   5.946   2.160   7.609  0.0046 -0.1569  0.9956
  310TIP3    H122489   5.879   2.107   7.567  1.0636 -0.5935 -0.2096
  310TIP3    H222490   5.901   2.202   7.682 -1.6372 -0.2318  0.0760
  311TIP3   OH222491   3.490   3.774   0.859 -0.5148  0.3094 -0.4554
  311TIP3    H122492   3.458   3.778   0.769 -0.7750  2.2165 -0.3070
  311TIP3    H222493   3.544   3.852   0.870 -2.2271  1.3295  1.6368
  312TIP3   OH222494   2.973   6.326   1.179  0.7447  0.2090  0.4726
  312TIP3    H122495   2.964   6.410   1.223  1.0952 -0.6242  2.2420
  312TIP3    H222496   3.059   6.294   1.207 -0.6783 -2.1664  2.5268
  313TIP3   OH222497   1.253   2.763   0.151 -0.3184 -0.0448 -0.3459
  313TIP3    H122498   1.160   2.769   0.131 -0.4947 -0.2508  0.3823
  313TIP3    H222499   1.258   2.774   0.246  0.2270 -1.7214 -0.1502
  314TIP3   OH222500   0.366   5.665   1.565 -0.3099 -0.2669  0.0384
  314TIP3    H122501   0.380   5.731   1.498  0.8797 -0.9522 -0.4210
  314TIP3    H222502   0.410   5.587   1.532 -2.4671 -1.6050  0.1186
  315TIP3   OH222503   0.480   5.618   2.111  0.1467 -0.3669 -0.6606
  315TIP3    H122504   0.549   5.554   2.128 -0.1089 -0.1760  1.3080
  315TIP3    H222505   0.452   5.599   2.022 -0.3868 -3.4840  0.0435
  316TIP3   OH222506   2.857   6.115   1.964 -0.3357  0.7996  0.1837
  316TIP3    H122507   2.782   6.165   1.930 -2.0038  0.0602  2.5063
  316TIP3    H222508   2.828   6.024   1.960  1.4653  0.2404 -1.1304
  317TIP3   OH222509   0.665   1.102   0.808 -0.2791 -0.1362  0.0609
  317TIP3    H122510   0.669   1.006   0.811 -0.8459 -0.1563  2.1236
  317TIP3    H222511   0.688   1.129   0.897 -0.3949  1.6419 -0.4188
  318TIP3   OH222512   4.926   2.870   7.419  0.2580 -0.4660 -0.2248
  318TIP3    H122513   5.018   2.892   7.437 -0.1673  0.6065  0.8084
  318TIP3    H222514   4.925   2.775   7.410  1.0749 -0.8550  2.6379
  319TIP3   OH222515   5.205   2.519   7.659  0.3507 -0.3624  0.1741
  319TIP3    H122516   5.210   2.553   7.569 -0.2562 -0.4942  0.0863
  319TIP3    H222517   5.293   2.531   7.694  0.5161 -0.0349 -0.3408
  320TIP3   OH222518   4.183   0.756   0.681  0.3244  0.4358  0.1917
  320TIP3    H122519   4.202   0.849   0.690 -0.8906  0.7624 -0.3759
  320TIP3    H222520   4.090   0.752   0.661  0.7543 -0.7418 -2.0042
  321TIP3   OH222521   1.022   1.262   1.776 -0.0025 -0.1240 -0.4015
  321TIP3    H122522   0.999   1.181   1.821  0.6091 -1.4041 -2.2276
  321TIP3    H222523   0.938   1.299   1.750 -0.2785 -0.4438  0.0121
  322TIP3   OH222524   4.938   4.638   1.460  0.2782  0.6376  0.4386
  322TIP3    H122525   5.008   4.640   1.525 -1.0397 -3.2571  2.2656
  322TIP3    H222526   4.968   4.576   1.394 -0.2479  1.1673 -0.3130
  323TIP3   OH222527   1.438   4.024   0.843  0.0260 -0.6588  0.1246
  323TIP3    H122528   1.362   4.010   0.900  1.1130 -1.8718  1.3480
  323TIP3    H222529   1.503   4.066   0.900  0.5313 -0.2690 -0.7184
  324TIP3   OH222530   1.179   4.650   7.582  0.2290  0.3554 -0.1205
  324TIP3    H122531   1.263   4.667   7.625  0.6435 -0.0948 -0.7444
  324TIP3    H222532   1.202   4.601   7.503 -0.7824 -1.4922  0.6821
  325TIP3   OH222533   5.351   1.784   7.760  0.6588 -0.0454 -0.8020
  325TIP3    H122534   5.302   1.752   7.684  0.5358 -0.2719 -0.6311
  325TIP3    H222535   5.370   1.876   7.740 -1.3603  0.5778 -0.1334
  326TIP3   OH222536   5.240   3.477   2.806  0.0672 -0.3759 -0.2152
  326TIP3    H122537   5.306   3.533   2.764  0.4601  0.0816  0.9626
  326TIP3    H222538   5.282   3.391   2.813  1.5704  0.4442  2.6471
  327TIP3   OH222539   3.615   2.615   8.501 -0.1180  0.4541  0.0042
  327TIP3    H122540   3.522   2.636   8.491 -0.2696 -0.3056 -0.2511
  327TIP3    H222541   3.642   2.584   8.415  0.3679  0.6340  0.0908
  328TIP3   OH222542   6.593   1.420   6.901  0.6605 -0.2159 -0.1545
  328TIP3    H122543   6.667   1.451   6.848 -0.8604  0.8788 -1.7470
  328TIP3    H222544   6.519   1.418   6.840 -1.2747  1.4118  1.9743
  329TIP3   OH222545   4.586   0.915   0.081  0.4545  0.0866  0.2917
  329TIP3    H122546   4.605   0.862   0.159 -0.9526  0.7661  1.1225
  329TIP3    H222547   4.670   0.956   0.060  0.6692  0.6223  2.0149
  330TIP3   OH222548   5.824   3.704   1.375  0.8601 -0.7102  0.5956
  330TIP3    H122549   5.745   3.656   1.402 -0.5849  1.4943  0.5489
  330TIP3    H222550   5.862   3.734   1.457 -0.3731  1.2036  0.5175
  331TIP3   OH222551   2.750   0.908   7.470  0.4515 -0.2378  0.4236
  331TIP3    H122552   2.806   0.949   7.536  0.6847  1.0216 -0.5163
  331TIP3    H222553   2.785   0.939   7.387  0.4381 -2.1361 -0.3324
  332TIP3   OH222554   5.682   3.721   1.042 -0.5664  0.3731  0.9068
  332TIP3    H122555   5.644   3.761   0.964  1.3128  0.2752 -0.1029
  332TIP3    H222556   5.734   3.648   1.009 -0.4627 -0.2497  2.3451
  333TIP3   OH222557   1.502   1.805   0.790 -0.3025 -0.1541 -0.1820
  333TIP3    H122558   1.423   1.760   0.760  0.4190 -0.2110 -2.0764
  333TIP3    H222559   1.497   1.891   0.750 -0.2306  0.4626  1.0899
  334TIP3   OH222560   2.320   4.342   0.708 -0.4805  0.0638  0.4452
  334TIP3    H122561   2.224   4.343   0.698 -0.8346  0.4535  3.0574
  334TIP3    H222562   2.337   4.263   0.760  0.2759  1.3776  2.2876
  335TIP3   OH222563   5.303   6.145   1.696  0.2676 -0.4328 -0.3760
  335TIP3    H122564   5.397   6.145   1.678  0.1843  0.8017 -0.8499
  335TIP3    H222565   5.278   6.053   1.689  1.3010 -0.6815 -0.9609
  336TIP3   OH222566   1.909   3.526   0.330 -0.2596  0.0386 -0.2009
  336TIP3    H122567   1.984   3.521   0.390  0.4330  0.6203 -0.9961
  336TIP3    H222568   1.840   3.568   0.380  0.2339  0.2945  0.2696
  337TIP3   OH222569   0.213   6.791   2.974  0.4601  0.1528  0.0894
  337TIP3    H122570   0.228   6.814   2.883  0.3901 -0.1201  0.0092
  337TIP3    H222571   0.252   6.863   3.024 -1.1466  1.2476 -0.1822
  338TIP3   OH222572   4.132   2.507   1.861  0.4050  0.2947 -0.2731
  338TIP3    H122573   4.189   2.582   1.881 -1.2315  1.7560 -0.7672
  338TIP3    H222574   4.188   2.446   1.812  2.3913  0.1201  2.0610
  339TIP3   OH222575   3.334   5.319   2.676  0.2056 -0.7310  0.1150
  339TIP3    H122576   3.284   5.238   2.677  0.3514 -0.8683 -1.5057
  339TIP3    H222577   3.410   5.301   2.621 -1.1664  1.2251 -2.7263
  340TIP3   OH222578   1.656   5.810   1.531 -0.1575  0.3006  0.1579
  340TIP3    H122579   1.660   5.718   1.558 -0.4614 -0.5709 -2.4989
  340TIP3    H222580   1.566   5.837   1.553 -1.2178 -1.1439 -2.0612
  341TIP3   OH222581   4.646   0.147   1.410 -0.4322 -0.7731  1.0761
  341TIP3    H122582   4.724   0.091   1.418 -1.6190 -2.2951  3.0408
  341TIP3    H222583   4.592   0.105   1.344  0.1520  0.0214  0.0582
  342TIP3   OH222584   0.898   4.088   0.990  0.0719 -0.1505  0.0991
  342TIP3    H122585   0.917   4.140   1.068 -0.8431  0.7947 -0.2769
  342TIP3    H222586   0.906   3.997   1.019  0.5901  0.1919  1.0676
  343TIP3   OH222587   4.433   1.916   8.309 -0.0948  0.3758  0.0296
  343TIP3    H122588   4.482   1.919   8.392  0.7630  0.0061 -0.4460
  343TIP3    H222589   4.479   1.850   8.257 -2.2164 -1.3543  0.2397
  344TIP3   OH222590   0.391   0.856   7.359  0.1448 -0.1922  0.0963
  344TIP3    H122591   0.458   0.854   7.291  0.4644 -2.4108  0.4058
  344TIP3    H222592   0.327   0.790   7.333 -0.1094 -0.5745  1.5677
  345TIP3   OH222593   2.729   1.258   7.946  0.0022 -0.7374 -0.2019
  345TIP3    H122594   2.752   1.198   8.018 -2.7535  0.1017  1.5113
  345TIP3    H222595   2.687   1.332   7.989  1.2454  1.4378 -2.4757
  346TIP3   OH222596   5.768   2.839   1.950 -0.4218 -0.0158  0.5253
  346TIP3    H122597   5.709   2.886   1.892 -2.2132 -1.4407  1.1142
  346TIP3    H222598   5.789   2.902   2.020 -1.3543  0.4773  0.3729
  347TIP3   OH222599   2.283   4.739   0.737  0.4729 -0.1766  0.2931
  347TIP3    H122600   2.242   4.720   0.653  0.4452 -1.2737  0.5352
  347TIP3    H222601   2.368   4.695   0.733  1.3303  1.3965  0.1078
  348TIP3   OH222602   0.635   0.284   0.116  0.6094 -0.5941 -0.1949
  348TIP3    H122603   0.687   0.248   0.044  0.1582 -2.4350  0.3356
  348TIP3    H222604   0.692   0.277   0.193 -0.1307 -2.1019  0.2821
  349TIP3   OH222605   3.386   2.467   0.713 -0.6446  0.0222 -0.0556
  349TIP3    H122606   3.445   2.433   0.645 -2.1907 -0.6675 -1.1006
  349TIP3    H222607   3.415   2.557   0.727  1.0127 -0.4631 -0.1172
  350TIP3   OH222608   5.011   1.516   6.835 -0.8543  0.0951 -0.3436
  350TIP3    H122609   4.990   1.546   6.924 -2.0920 -1.0527 -0.2216
  350TIP3    H222610   5.103   1.540   6.823 -0.2015 -1.0084  1.8052
  351TIP3   OH222611   4.175   5.640   7.044 -0.0195 -0.1364  0.1597
  351TIP3    H122612   4.264   5.649   7.077 -0.5063  0.9737  1.2539
  351TIP3    H222613   4.130   5.587   7.111 -0.5556  0.5725  0.3682
  352TIP3   OH222614   3.224   2.993   1.992  0.1281 -0.4247  0.4120
  352TIP3    H122615   3.272   3.062   1.945 -3.4387  0.7042 -2.0153
  352TIP3    H222616   3.264   2.912   1.963  0.5472  0.4379 -1.6395
  353TIP3   OH222617   3.636   3.490   2.578  0.4932 -0.3401 -0.4752
  353TIP3    H122618   3.565   3.553   2.568  1.6602  0.9254 -1.1437
  353TIP3    H222619   3.707   3.525   2.524  0.7038 -3.0098 -2.1070
  354TIP3   OH222620   2.770   4.854   2.762  0.3499 -0.1582  0.4353
  354TIP3    H122621   2.698   4.807   2.721 -1.2649  0.5466  2.3002
  354TIP3    H222622   2.773   4.820   2.852  2.0705  0.1590  0.5305
  355TIP3   OH222623   4.980   3.767   0.787  0.6347  0.0140  0.0577
  355TIP3    H122624   4.929   3.804   0.859  1.8109  1.6743  0.0918
  355TIP3    H222625   4.955   3.820   0.711  3.3528  1.9232  0.3692
  356TIP3   OH222626   2.655   0.442   1.265 -0.3209 -0.3551 -0.2884
  356TIP3    H122627   2.705   0.473   1.189 -0.9405 -0.3682 -0.7083
  356TIP3    H222628   2.718   0.444   1.338  0.7280 -1.7994 -1.0895
  357TIP3   OH222629   2.096   0.650   8.619  0.3319  0.2050  0.4518
  357TIP3    H122630   2.052   0.595   8.554  3.5680 -0.8010 -1.0900
  357TIP3    H222631   2.088   0.739   8.584 -1.8729  0.3475  1.1440
  358TIP3   OH222632   6.789   4.064   0.927  0.1485 -0.2638  0.3338
  358TIP3    H122633   6.844   4.064   1.006  1.3368 -0.7009 -0.4651
  358TIP3    H222634   6.767   4.156   0.912  1.3264  0.0107  0.2366
  359TIP3   OH222635   1.583   1.588   1.574  0.3071  0.3405 -0.4433
  359TIP3    H122636   1.543   1.648   1.511 -1.9033 -0.3913  0.1871
  359TIP3    H222637   1.547   1.502   1.552 -1.7414  0.2526  2.6225
  360TIP3   OH222638   1.343   4.636   7.992 -0.4703  0.1248  0.1914
  360TIP3    H122639   1.422   4.623   7.939  0.3527  0.4787  1.2926
  360TIP3    H222640   1.373   4.684   8.069 -2.0523  1.7697 -0.1338
  361TIP3   OH222641   3.219   5.143   0.568  0.3897 -0.0927  0.2416
  361TIP3    H122642   3.281   5.071   0.587 -0.0996 -0.3214  1.0256
  361TIP3    H222643   3.275   5.218   0.548  0.9155 -0.5350  0.0286
  362TIP3   OH222644   2.849   0.795   0.258 -0.0903  0.1114 -0.6625
  362TIP3    H122645   2.776   0.791   0.320  1.8391  1.4696  1.9194
  362TIP3    H222646   2.898   0.715   0.274  0.8173  0.8143  0.1453
  363TIP3   OH222647   1.410   1.333   8.228 -0.4700 -0.0435  0.3732
  363TIP3    H122648   1.376   1.358   8.142 -0.9997 -0.0458  0.5839
  363TIP3    H222649   1.485   1.277   8.208 -1.3749 -1.1289 -0.1022
  364TIP3   OH222650   5.816   2.431   0.080 -0.6745  0.6168 -0.4419
  364TIP3    H122651   5.891   2.406   0.027  1.3733 -0.4117  2.6901
  364TIP3    H222652   5.815   2.527   0.078  0.6387  0.6362 -0.6672
  365TIP3   OH222653   4.266   4.857   8.397  0.0166 -0.0532 -0.3368
  365TIP3    H122654   4.349   4.896   8.369  0.5111 -0.9535 -0.1862
  365TIP3    H222655   4.234   4.811   8.320  0.1746 -0.5401 -0.1210
  366TIP3   OH222656   1.638   5.652   8.258  0.0190  0.4053  0.0550
  366TIP3    H122657   1.557   5.670   8.212 -0.7485 -0.4980  1.0044
  366TIP3    H222658   1.623   5.568   8.302  1.3923  0.3147  0.3998
  367TIP3   OH222659   5.322   4.314   8.139 -1.4860 -0.0513  0.0835
  367TIP3    H122660   5.325   4.406   8.113 -1.4004  0.2573  1.1342
  367TIP3    H222661   5.339   4.265   8.058  0.3275  0.8871 -0.1451
  368TIP3   OH222662   6.517   6.438   0.758 -0.0744  0.2620 -0.0978
  368TIP3    H122663   6.519   6.467   0.667  0.4045  0.0482 -0.1567
  368TIP3    H222664   6.464   6.503   0.803 -0.8537  0.0251 -0.6512
  369TIP3   OH222665   0.135   2.793   0.105 -0.1131  0.4302  0.4319
  369TIP3    H122666   0.042   2.781   0.085 -0.1278 -0.5885  1.0236
  369TIP3    H222667   0.170   2.842   0.031 -1.1330  0.8873  0.2325
  370TIP3   OH222668   3.731   3.740   6.415 -0.1643  0.3140 -0.2026
  370TIP3    H122669   3.713   3.664   6.470  0.0397  0.1457 -0.3674
  370TIP3    H222670   3.774   3.704   6.338  1.3168  0.7481  0.3837
  371TIP3   OH222671   6.588   3.780   7.194  0.5108 -0.0724 -0.4893
  371TIP3    H122672   6.663   3.840   7.192  0.6961 -0.2855 -2.9275
  371TIP3    H222673   6.627   3.694   7.178 -0.1549 -0.3524 -0.6111
  372TIP3   OH222674   4.297   2.735   1.650  0.3785  0.3262 -0.2050
  372TIP3    H122675   4.370   2.680   1.681  1.0996  0.2284 -1.9939
  372TIP3    H222676   4.339   2.812   1.613 -0.5474  1.1147  0.3347
  373TIP3   OH222677   4.804   6.639   8.583  0.8309  0.3783  0.3455
  373TIP3    H122678   4.789   6.694   8.506 -0.6382  0.8954  0.9678
  373TIP3    H222679   4.836   6.556   8.547 -3.2669 -0.7892 -1.2647
  374TIP3   OH222680   1.853   4.048   2.720 -0.2052 -0.1975 -0.4641
  374TIP3    H122681   1.919   4.112   2.747 -0.3750  0.1802 -0.9399
  374TIP3    H222682   1.770   4.083   2.753 -0.1385 -0.8496  0.4472
  375TIP3   OH222683   5.006   4.277   7.403 -0.6472 -0.2348 -0.2959
  375TIP3    H122684   4.930   4.335   7.409  0.4490  1.2953 -0.5504
  375TIP3    H222685   5.080   4.332   7.429  0.7470 -0.8158 -2.6852
  376TIP3   OH222686   5.872   5.981   7.340 -0.1036 -0.0696 -0.0756
  376TIP3    H122687   5.928   5.963   7.265 -0.6875  1.4659 -0.9277
  376TIP3    H222688   5.931   6.015   7.407  0.4022 -1.3314  0.1482
  377TIP3   OH222689   2.871   1.238   2.108 -0.8309  0.3411  0.3529
  377TIP3    H122690   2.929   1.296   2.059 -1.3156  0.1186 -0.5085
  377TIP3    H222691   2.914   1.227   2.193 -0.4423  1.4778  0.3171
  378TIP3   OH222692   2.627   4.118   2.323 -0.3567  0.2062  0.1093
  378TIP3    H122693   2.692   4.067   2.275 -0.3531  0.4473 -0.1433
  378TIP3    H222694   2.667   4.135   2.408  1.4114  3.3208 -1.1892
  379TIP3   OH222695   3.866   4.848   8.154  0.2168  0.4429 -0.6358
  379TIP3    H122696   3.825   4.912   8.213  1.1813  0.5164 -0.0258
  379TIP3    H222697   3.806   4.844   8.079  0.4741  2.5988 -1.0349
  380TIP3   OH222698   4.772   5.503   2.406  0.0827  0.3938 -0.3784
  380TIP3    H122699   4.855   5.467   2.435 -0.2011 -0.0154 -0.0688
  380TIP3    H222700   4.794   5.591   2.374  0.7720 -0.0368 -1.1257
  381TIP3   OH222701   0.639   6.422   1.137 -0.0181 -0.0314 -0.4421
  381TIP3    H122702   0.646   6.351   1.201 -1.2145  0.2936  0.0933
  381TIP3    H222703   0.562   6.472   1.166  1.4543  2.1684 -0.1091
  382TIP3   OH222704   4.030   1.468   7.625 -0.2186  0.0336 -0.0031
  382TIP3    H122705   4.074   1.481   7.542 -2.0054 -1.5005 -1.2776
  382TIP3    H222706   4.093   1.497   7.691  2.9019 -2.4747 -1.6066
  383TIP3   OH222707   1.089   4.915   2.291  0.0533  0.4557 -0.0126
  383TIP3    H122708   1.102   4.963   2.372 -2.6871  0.3862  0.5671
  383TIP3    H222709   1.156   4.949   2.232  2.6363 -0.0415  2.4321
  384TIP3   OH222710   1.137   1.340   0.400 -0.9102  0.2085  0.2720
  384TIP3    H122711   1.116   1.397   0.325 -0.8611 -1.5263 -1.1208
  384TIP3    H222712   1.182   1.398   0.461  2.2040  1.0823 -2.5095
  385TIP3   OH222713   4.753   5.622   6.937 -0.0399  0.3812  0.5322
  385TIP3    H122714   4.678   5.655   6.889  0.9210 -0.2032 -1.4634
  385TIP3    H222715   4.822   5.615   6.872  1.3362 -0.4552  2.0157
  386TIP3   OH222716   6.418   1.175   1.456 -0.0476 -0.3637  0.5876
  386TIP3    H122717   6.442   1.124   1.533 -2.2912 -1.4821  0.6375
  386TIP3    H222718   6.440   1.265   1.478  0.0186 -0.7578  2.2408
  387TIP3   OH222719   0.259   3.332   0.320 -0.7457  0.4674  0.2064
  387TIP3    H122720   0.344   3.303   0.354 -1.4875 -1.4695  0.5433
  387TIP3    H222721   0.278   3.415   0.275  1.2792  0.1685  0.4128
  388TIP3   OH222722   4.588   2.863   0.745  0.0369 -0.1437  0.5097
  388TIP3    H122723   4.497   2.888   0.761  0.2750  1.3709 -0.2384
  388TIP3    H222724   4.587   2.768   0.740 -1.1499 -0.2826  2.5156
  389TIP3   OH222725   3.145   3.229   0.486 -0.2231  0.4674  0.0185
  389TIP3    H122726   3.057   3.239   0.522  0.3451 -0.9975  2.0171
  389TIP3    H222727   3.199   3.286   0.541  0.3934 -0.3964  0.3284
  390TIP3   OH222728   5.407   2.243   2.898  0.5797  0.0017 -0.3888
  390TIP3    H122729   5.343   2.285   2.840 -0.6871 -0.2359  0.7730
  390TIP3    H222730   5.354   2.208   2.970  1.9888 -0.5972  0.3931
  391TIP3   OH222731   6.825   4.379   7.975 -0.2320 -0.2782  0.2488
  391TIP3    H122732   6.890   4.403   8.041  0.4051 -1.3442  0.0399
  391TIP3    H222733   6.744   4.367   8.024  0.5776 -2.6613  1.1634
  392TIP3   OH222734   4.387   5.918   2.065 -0.2064 -0.6670 -0.1844
  392TIP3    H122735   4.389   5.856   2.138 -0.3261 -0.0454  0.3529
  392TIP3    H222736   4.367   6.002   2.106  1.3087 -0.0208 -0.7253
  393TIP3   OH222737   3.021   5.746   7.402 -0.1487 -0.5242  0.0331
  393TIP3    H122738   3.039   5.828   7.448  0.1098 -0.5621 -0.0018
  393TIP3    H222739   3.043   5.765   7.311 -0.5956 -0.4694 -0.0699
  394TIP3   OH222740   2.712   1.877   1.321  0.3742  0.1198 -1.0483
  394TIP3    H122741   2.625   1.908   1.346  1.3217  1.8981  0.2046
  394TIP3    H222742   2.707   1.867   1.225 -0.8581  1.3485 -1.1373
  395TIP3   OH222743   5.943   4.586   3.020  0.1929 -0.0096 -0.5370
  395TIP3    H122744   6.022   4.560   2.972  0.2353 -0.5668 -0.1755
  395TIP3    H222745   5.871   4.565   2.962  0.0870 -2.7624  0.4455
  396TIP3   OH222746   5.940   1.533   1.913  0.4800  0.8910 -0.2153
  396TIP3    H122747   5.866   1.585   1.881  0.7520  1.1105 -0.4955
  396TIP3    H222748   5.928   1.529   2.008  0.4594  1.4771 -0.1881
  397TIP3   OH222749   1.386   6.633   7.936  0.6877  0.1567 -0.4626
  397TIP3    H122750   1.390   6.581   8.016  2.1452  1.4053  0.3481
  397TIP3    H222751   1.344   6.715   7.964 -1.5693 -0.5140 -1.7057
  398TIP3   OH222752   3.732   0.588   1.570 -0.3188 -0.0488  0.6181
  398TIP3    H122753   3.697   0.503   1.542  0.7125 -0.1377 -0.5217
  398TIP3    H222754   3.689   0.651   1.513  0.6836 -0.0736 -0.1968
  399TIP3   OH222755   3.658   4.853   1.336 -0.5871 -0.6544  0.9491
  399TIP3    H122756   3.565   4.876   1.330 -0.6335 -0.9994  0.2107
  399TIP3    H222757   3.696   4.921   1.391 -1.4410 -0.9927  1.9829
  400TIP3   OH222758   2.357   1.516   7.171 -0.2167  0.2789 -0.5158
  400TIP3    H122759   2.274   1.468   7.175 -0.2716  0.3519 -0.7139
  400TIP3    H222760   2.406   1.487   7.247 -0.5440  0.4518 -0.2356
  401TIP3   OH222761   1.396   5.817   1.650 -0.0606 -0.2145 -0.4101
  401TIP3    H122762   1.330   5.758   1.687  0.1837 -0.2557 -0.0250
  401TIP3    H222763   1.346   5.881   1.599 -0.3285 -0.7238 -0.7864
  402TIP3   OH222764   3.025   6.360   2.084  0.5791  0.4209 -0.8850
  402TIP3    H122765   3.069   6.373   2.000  0.8806  1.4138 -0.5870
  402TIP3    H222766   3.044   6.439   2.134  0.3523 -0.1251  0.1041
  403TIP3   OH222767   6.194   0.642   0.630 -0.2361  0.1491  0.5383
  403TIP3    H122768   6.237   0.655   0.714  2.5603 -1.0790 -0.5635
  403TIP3    H222769   6.265   0.623   0.569 -1.9535  2.4341 -2.4852
  404TIP3   OH222770   2.155   3.560   8.594  0.5201  0.0683  0.5028
  404TIP3    H122771   2.193   3.604   8.517 -0.7542  0.6034  0.1415
  404TIP3    H222772   2.221   3.569   8.662  2.0582 -1.1658 -0.7384
  405TIP3   OH222773   4.922   4.237   2.075 -0.5637 -0.1981  0.7140
  405TIP3    H122774   4.963   4.235   2.161 -0.6914 -3.0487  0.8194
  405TIP3    H222775   4.844   4.183   2.085 -2.4786  2.1618 -0.4082
  406TIP3   OH222776   6.005   3.477   0.354 -0.0006  0.0062 -0.4796
  406TIP3    H122777   6.045   3.563   0.361  1.2021 -0.5742  0.1207
  406TIP3    H222778   6.025   3.449   0.264  0.6353 -0.1264 -0.3014
  407TIP3   OH222779   2.622   4.158   7.668  0.4571 -0.0672 -0.0564
  407TIP3    H122780   2.527   4.146   7.661  0.2106  2.0053 -0.9477
  407TIP3    H222781   2.644   4.127   7.756 -1.1623  0.0982  0.4270
  408TIP3   OH222782   4.569   2.729   7.094 -0.6090 -0.4836 -0.1705
  408TIP3    H122783   4.631   2.800   7.078  2.3362 -2.9181 -0.4862
  408TIP3    H222784   4.586   2.702   7.184 -2.4502 -0.1801  0.3110
  409TIP3   OH222785   6.021   0.662   7.568  0.3169  0.0733 -0.0442
  409TIP3    H122786   5.962   0.734   7.589 -2.0485 -1.2321 -1.6790
  409TIP3    H222787   6.050   0.679   7.479 -0.4711 -1.0442 -0.5488
  410TIP3   OH222788   0.526   4.428   1.001 -0.2104 -0.4997 -0.1225
  410TIP3    H122789   0.441   4.398   0.972  0.1998 -1.7517 -0.0653
  410TIP3    H222790   0.569   4.462   0.922  0.2658 -2.3650 -0.7016
  411TIP3   OH222791   1.646   3.346   7.822 -0.3287  0.0078  0.2475
  411TIP3    H122792   1.635   3.294   7.742 -0.2517 -0.5747  0.6095
  411TIP3    H222793   1.572   3.321   7.877 -0.2587  0.2390  0.4461
  412TIP3   OH222794   5.138   6.743   1.506  0.0928 -0.1735  0.0022
  412TIP3    H122795   5.130   6.812   1.571 -2.1531  1.4672 -1.8575
  412TIP3    H222796   5.053   6.742   1.461  1.1411 -1.9683 -2.1542
  413TIP3   OH222797   4.747   4.422   8.360  0.1765  0.1985 -0.5880
  413TIP3    H122798   4.791   4.471   8.290 -0.3676  0.9604 -0.4143
  413TIP3    H222799   4.790   4.337   8.361  1.1399  0.6710 -0.9082
  414TIP3   OH222800   5.313   2.605   0.177  0.1907 -0.3615  0.0180
  414TIP3    H122801   5.392   2.558   0.205 -0.1824 -1.1223 -0.1709
  414TIP3    H222802   5.257   2.606   0.254 -0.2536 -1.2147 -0.2750
  415TIP3   OH222803   1.366   5.796   1.076 -0.2193  0.4073 -0.3397
  415TIP3    H122804   1.437   5.783   1.139  1.2220 -0.8240 -2.1091
  415TIP3    H222805   1.349   5.709   1.040 -2.8062  0.6483  0.1636
  416TIP3   OH222806   1.597   6.715   1.834  0.0931  0.4034  0.2903
  416TIP3    H122807   1.690   6.734   1.827  0.0721  0.1235 -0.8761
  416TIP3    H222808   1.577   6.662   1.757 -1.0766  0.6490  0.4009
  417TIP3   OH222809   1.357   1.933   8.524 -0.2943  0.3817 -0.3346
  417TIP3    H122810   1.366   2.023   8.556  0.5277  0.8249 -1.7729
  417TIP3    H222811   1.295   1.939   8.452  0.2975 -0.0838 -0.8940
  418TIP3   OH222812   2.036   5.090   7.769  0.6298 -0.8566 -0.1527
  418TIP3    H122813   2.113   5.140   7.742  2.4909 -2.9137  1.0582
  418TIP3    H222814   2.036   5.012   7.714 -1.1408 -0.5016 -0.7302
  419TIP3   OH222815   0.157   5.905   7.957 -0.2288 -0.1586  0.4547
  419TIP3    H122816   0.193   5.962   7.889 -1.9496 -1.3350 -1.5520
  419TIP3    H222817   0.109   5.965   8.014  0.7671  0.7904  0.3443
  420TIP3   OH222818   6.771   5.216   1.171  0.3568  0.6905  0.8020
  420TIP3    H122819   6.746   5.151   1.237  2.6730 -1.5661 -0.3933
  420TIP3    H222820   6.708   5.203   1.100  0.5890 -0.0364  0.7173
  421TIP3   OH222821   5.883   5.655   2.195 -0.4985 -0.0819  0.1123
  421TIP3    H122822   5.832   5.671   2.116 -0.8735 -0.3633  0.2954
  421TIP3    H222823   5.974   5.663   2.167 -0.5239 -2.2928 -0.8547
  422TIP3   OH222824   0.798   1.923   0.039 -0.2203  0.3703 -0.1004
  422TIP3    H122825   0.877   1.869   0.047 -0.2574  0.3098 -0.1371
  422TIP3    H222826   0.809   1.971  -0.043  0.1339  0.9470  0.2766
  423TIP3   OH222827   1.772   0.835   2.376  0.2858 -0.1647 -0.2554
  423TIP3    H122828   1.795   0.821   2.468 -0.3390 -1.9035 -0.3304
  423TIP3    H222829   1.736   0.752   2.348 -2.9748  1.3608 -1.0847
  424TIP3   OH222830   2.155   3.093   8.207 -0.5843  0.2023  0.8709
  424TIP3    H122831   2.066   3.081   8.174 -0.6873  0.0237  1.2146
  424TIP3    H222832   2.202   3.135   8.134 -0.5731 -1.0242  0.1335
  425TIP3   OH222833   5.149   4.317   1.909  0.5825 -0.2355 -0.2277
  425TIP3    H122834   5.102   4.355   1.835  1.5630 -0.1377 -0.8224
  425TIP3    H222835   5.081   4.295   1.973 -0.1593  1.1051 -0.5070
  426TIP3   OH222836   3.625   3.458   7.627  0.3680 -0.2658  0.7123
  426TIP3    H122837   3.604   3.546   7.594 -0.4543 -0.5582  0.4252
  426TIP3    H222838   3.659   3.473   7.715  0.5683  0.3679  0.5352
  427TIP3   OH222839   5.407   4.830   1.344  0.0618 -0.1783 -0.6601
  427TIP3    H122840   5.496   4.805   1.319  0.0835 -0.9073  0.0964
  427TIP3    H222841   5.414   4.852   1.437 -0.2791  1.1480 -0.9359
  428TIP3   OH222842   5.815   3.985   8.503 -0.6746  0.2861 -0.1427
  428TIP3    H122843   5.840   3.980   8.595 -0.9551 -2.0369 -0.1175
  428TIP3    H222844   5.863   4.060   8.468  1.6809 -0.4523  1.2607
  429TIP3   OH222845   3.992   5.129   7.427 -0.2029  0.1198 -0.6359
  429TIP3    H122846   4.007   5.108   7.334 -0.9432 -0.1771 -0.6998
  429TIP3    H222847   4.008   5.046   7.472  1.9686  0.6775 -0.2523
  430TIP3   OH222848   1.196   5.976   0.048  0.2581 -0.0418  0.0534
  430TIP3    H122849   1.112   5.933   0.062  0.3123 -0.2112 -0.1385
  430TIP3    H222850   1.256   5.935   0.110  0.1581  0.1972  0.3073
  431TIP3   OH222851   3.207   3.345   6.899  0.2719  0.3052 -0.2897
  431TIP3    H122852   3.135   3.398   6.864 -0.3238 -0.4521 -0.2277
  431TIP3    H222853   3.178   3.255   6.888  0.5887  0.0167  1.0559
  432TIP3   OH222854   3.122   5.262   2.032  0.4084  0.3876 -0.0426
  432TIP3    H122855   3.099   5.313   1.954 -0.0176 -1.8024 -1.4548
  432TIP3    H222856   3.081   5.308   2.105 -0.3826  1.7450 -1.3006
  433TIP3   OH222857   5.390   6.259   8.253 -0.0578 -0.0853 -0.0974
  433TIP3    H122858   5.484   6.271   8.245  0.1661 -1.4426  0.3360
  433TIP3    H222859   5.359   6.248   8.163 -0.0462  1.8318 -0.3783
  434TIP3   OH222860   2.622   0.239   1.908 -0.1781 -0.3805  0.1997
  434TIP3    H122861   2.646   0.320   1.954  0.6981 -0.6352  0.1995
  434TIP3    H222862   2.612   0.266   1.817  0.1614 -0.2802  0.1914
  435TIP3   OH222863   4.566   3.144   0.860  0.1616 -0.3654 -0.0557
  435TIP3    H122864   4.635   3.207   0.839 -0.2489 -0.0056 -0.3387
  435TIP3    H222865   4.597   3.062   0.822  0.8997 -0.4458  0.6878
  436TIP3   OH222866   2.188   1.973   6.842  0.4484  0.1590  0.5517
  436TIP3    H122867   2.136   1.894   6.855 -0.9561  1.1838  1.4790
  436TIP3    H222868   2.123   2.042   6.826  1.6806  0.9321 -1.5374
  437TIP3   OH222869   0.086   6.390   7.832  0.4308 -0.0204  0.1063
  437TIP3    H122870   0.032   6.464   7.858  2.4679  0.9039  2.0605
  437TIP3    H222871   0.135   6.368   7.911  0.8508 -2.6419 -0.7908
  438TIP3   OH222872   0.679   6.649   0.058  0.3030  0.1162 -0.4516
  438TIP3    H122873   0.656   6.585  -0.009  0.6797 -1.5290  0.9280
  438TIP3    H222874   0.722   6.720   0.010  0.2238 -0.8284 -1.9755
  439TIP3   OH222875   6.717   0.889   0.402 -0.3028  0.7462  0.0448
  439TIP3    H122876   6.757   0.803   0.391  0.0607  0.4951  2.7190
  439TIP3    H222877   6.680   0.910   0.316  0.7373 -1.4747 -1.0110
  440TIP3   OH222878   3.067   2.608   6.898  0.2022 -0.2871  0.7386
  440TIP3    H122879   3.143   2.664   6.911  0.5095 -0.3334 -0.6579
  440TIP3    H222880   3.103   2.522   6.873 -0.2832 -0.7671  1.6379
  441TIP3   OH222881   5.792   5.498   1.639 -0.2627  0.5282 -0.4940
  441TIP3    H122882   5.725   5.433   1.661  1.6536 -1.7339 -0.9273
  441TIP3    H222883   5.767   5.576   1.689 -0.7570 -1.6445  2.9962
  442TIP3   OH222884   1.355   2.904   7.460 -0.0389 -0.3136  0.2719
  442TIP3    H122885   1.333   2.942   7.374 -2.3342 -0.5772  0.6952
  442TIP3    H222886   1.338   2.974   7.522 -0.6761 -0.8535  0.7172
  443TIP3   OH222887   0.545   1.856   0.125 -0.1659 -0.0463  1.2606
  443TIP3    H122888   0.625   1.884   0.081 -1.4984 -0.9782 -2.0536
  443TIP3    H222889   0.480   1.924   0.104 -0.5331  0.1940  3.0399
  444TIP3   OH222890   3.949   1.973   1.382  0.3891  0.0655  0.2298
  444TIP3    H122891   3.857   1.971   1.355  0.1699 -1.6310  1.0080
  444TIP3    H222892   3.947   1.989   1.476  0.9013 -0.0465  0.2633
  445TIP3   OH222893   4.785   6.304   0.695 -0.8890  0.1570 -0.0309
  445TIP3    H122894   4.729   6.226   0.698  0.0111 -0.4932  1.0595
  445TIP3    H222895   4.865   6.273   0.653 -0.2347  0.2618  1.0901
  446TIP3   OH222896   6.849   3.027   1.332  0.2291 -0.4285  0.4916
  446TIP3    H122897   6.831   2.952   1.277 -1.0236  0.9113 -1.0148
  446TIP3    H222898   6.766   3.074   1.338  0.3299 -0.3988  3.4381
  447TIP3   OH222899   0.996   4.206   0.226  0.0169 -0.0878 -0.9362
  447TIP3    H122900   1.069   4.218   0.165 -0.1032  0.2837 -1.0103
  447TIP3    H222901   1.025   4.136   0.285  2.2790  2.8226  1.7500
  448TIP3   OH222902   3.701   5.552   8.465  0.3281 -0.1210 -0.0106
  448TIP3    H122903   3.758   5.623   8.436 -0.1840  0.0192 -0.7053
  448TIP3    H222904   3.712   5.550   8.560  3.1933 -1.5534 -0.2594
  449TIP3   OH222905   3.940   1.495   8.489  0.0083  0.0495 -0.8837
  449TIP3    H122906   3.959   1.443   8.568  0.4461 -0.5611 -1.3809
  449TIP3    H222907   3.871   1.447   8.445  1.4674 -0.9826 -2.1392
  450TIP3   OH222908   0.783   3.320   1.573  0.0214  0.2643 -0.1365
  450TIP3    H122909   0.721   3.384   1.609 -0.3363 -1.1757  1.9720
  450TIP3    H222910   0.867   3.342   1.615  0.0628 -0.1764  0.0152
  451TIP3   OH222911   5.221   5.948   2.788 -0.1254  0.4129  0.1370
  451TIP3    H122912   5.259   6.012   2.848  0.0815 -0.1379  0.6133
  451TIP3    H222913   5.172   6.000   2.725 -0.4698  1.0021  0.8685
  452TIP3   OH222914   6.606   3.911   0.470 -0.5278 -0.3191  0.1666
  452TIP3    H122915   6.637   3.906   0.561  0.3752  0.7686 -0.0473
  452TIP3    H222916   6.681   3.948   0.422 -0.4439 -2.2648 -1.3072
  453TIP3   OH222917   0.245   6.580   0.440  0.3855  0.0624 -0.5161
  453TIP3    H122918   0.280   6.582   0.529 -1.3810  1.0890  0.2031
  453TIP3    H222919   0.236   6.673   0.417  1.6083 -0.1744 -2.1254
  454TIP3   OH222920   1.990   4.699   2.766 -0.4654  0.9034  0.0131
  454TIP3    H122921   2.024   4.610   2.754 -1.0631  0.6725 -0.0390
  454TIP3    H222922   1.903   4.696   2.726 -1.3982  0.8923  1.9249
  455TIP3   OH222923   3.655   1.424   7.170  0.1892  0.0785 -0.3074
  455TIP3    H122924   3.644   1.361   7.241 -0.5601  0.0762 -0.4098
  455TIP3    H222925   3.702   1.376   7.102 -1.5217 -0.8389 -0.9214
  456TIP3   OH222926   1.355   0.178   1.840  0.8444  0.2837  0.7719
  456TIP3    H122927   1.304   0.115   1.891 -0.8057  0.8143 -0.1276
  456TIP3    H222928   1.314   0.262   1.860  1.0372  0.6613 -0.3834
  457TIP3   OH222929   0.714   3.736   0.086 -0.2193 -0.1636  0.2890
  457TIP3    H122930   0.776   3.803   0.113 -0.9984  0.1682  1.3169
  457TIP3    H222931   0.766   3.656   0.079  0.4740  0.2756  0.3072
  458TIP3   OH222932   3.969   3.583   2.007  0.0445  0.4053  0.3145
  458TIP3    H122933   3.954   3.625   2.092  0.0185 -0.3220  0.6784
  458TIP3    H222934   4.064   3.572   2.003  0.1195  1.0996 -0.0861
  459TIP3   OH222935   3.694   1.320   1.940  0.2499  0.5373 -0.4016
  459TIP3    H122936   3.768   1.350   1.888  0.8897 -0.2479  0.0345
  459TIP3    H222937   3.731   1.255   2.000  0.0410  2.8940  2.5782
  460TIP3   OH222938   5.683   3.823   2.641 -0.3087  0.1482 -0.1317
  460TIP3    H122939   5.618   3.789   2.703 -0.7076  0.9006 -0.1327
  460TIP3    H222940   5.689   3.916   2.660 -0.3033  0.3556 -1.1116
  461TIP3   OH222941   5.175   2.693   1.344  0.7397 -0.1819  0.2526
  461TIP3    H122942   5.173   2.736   1.429 -0.3849  0.4276 -0.0612
  461TIP3    H222943   5.160   2.764   1.281  1.3275 -0.6606 -0.4336
  462TIP3   OH222944   1.235   4.919   0.574  0.0085 -0.2116 -0.3809
  462TIP3    H122945   1.189   4.872   0.504  2.3726 -0.9228 -1.5776
  462TIP3    H222946   1.166   4.967   0.620 -1.7720 -0.3987 -2.6524
  463TIP3   OH222947   5.896   1.636   0.175  0.2897 -0.1899  0.4105
  463TIP3    H122948   5.930   1.561   0.223 -2.1080 -1.6257 -0.0054
  463TIP3    H222949   5.825   1.670   0.230 -1.5396 -0.9714 -1.3415
  464TIP3   OH222950   6.152   5.159   1.489  0.0023 -0.0689 -0.2819
  464TIP3    H122951   6.070   5.198   1.519  0.2064 -1.1540  1.9236
  464TIP3    H222952   6.162   5.080   1.542  1.9235 -0.5753 -1.2817
  465TIP3   OH222953   5.569   1.820   7.485 -0.1856  0.4868 -0.1856
  465TIP3    H122954   5.487   1.804   7.437 -1.1484  2.5295  0.6481
  465TIP3    H222955   5.541   1.863   7.566  1.6212 -0.1933  0.8614
  466TIP3   OH222956   6.725   6.114   7.159 -0.5613 -0.1997 -0.0926
  466TIP3    H122957   6.752   6.120   7.067 -1.1102 -0.2583 -0.2608
  466TIP3    H222958   6.803   6.140   7.209 -0.7553  1.5176 -0.6123
  467TIP3   OH222959   2.271   3.358   3.316  0.8634 -0.5931  0.0742
  467TIP3    H122960   2.361   3.390   3.314 -0.0546  2.4800 -3.2100
  467TIP3    H222961   2.218   3.437   3.329 -1.4288 -1.8872 -0.8378
  468TIP3   OH222962   3.718   4.994   7.620  0.4487  0.3892  0.0769
  468TIP3    H122963   3.624   4.979   7.632  0.4287  0.5172  0.0772
  468TIP3    H222964   3.726   5.023   7.530  0.3691  1.3771  0.3781
  469TIP3   OH222965   6.088   3.474   0.757  0.1138 -0.2070 -0.2204
  469TIP3    H122966   6.111   3.489   0.849  0.3969 -3.2213  0.2849
  469TIP3    H222967   6.171   3.454   0.714 -0.4094 -2.7277 -0.2121
  470TIP3   OH222968   5.453   6.643   0.109 -0.1776  0.1801  0.4024
  470TIP3    H122969   5.383   6.637   0.174  1.8077 -1.2230  2.5866
  470TIP3    H222970   5.474   6.736   0.104 -0.6661  0.3652  1.4813
  471TIP3   OH222971   5.790   0.185   1.564 -0.5618  0.6807 -0.1789
  471TIP3    H122972   5.837   0.132   1.629 -1.5390  0.7465  0.6096
  471TIP3    H222973   5.718   0.128   1.536 -1.5484  1.5238  0.5831
  472TIP3   OH222974   4.891   6.622   7.329 -0.3733 -0.1226 -0.0604
  472TIP3    H122975   4.919   6.695   7.274 -0.4996  0.1158  0.1878
  472TIP3    H222976   4.972   6.584   7.362 -0.2744 -0.5698 -0.7905
  473TIP3   OH222977   5.403   0.772   0.997  0.0941  0.5319 -0.4822
  473TIP3    H122978   5.371   0.682   0.999  0.2723  0.4388 -1.3265
  473TIP3    H222979   5.324   0.826   0.997 -0.2879  0.2807 -4.4319
  474TIP3   OH222980   0.227   5.978   1.865  0.2619  0.7278  0.1024
  474TIP3    H122981   0.152   5.941   1.819  1.2848  0.9267 -1.8142
  474TIP3    H222982   0.290   5.906   1.871  0.8758  1.2034 -0.5058
  475TIP3   OH222983   2.211   1.565   2.048 -0.3843  0.0106  0.1960
  475TIP3    H122984   2.233   1.590   2.137 -0.3265 -0.9926  0.4651
  475TIP3    H222985   2.116   1.575   2.043 -0.3087  0.7547  0.1482
  476TIP3   OH222986   2.292   1.696   8.149  0.4295  0.1271 -0.3244
  476TIP3    H122987   2.219   1.727   8.203  2.8848  0.6705  3.0494
  476TIP3    H222988   2.292   1.753   8.072 -1.7951  1.0534  0.2883
  477TIP3   OH222989   2.659   6.288   0.939 -0.3803  0.0343  0.1722
  477TIP3    H122990   2.744   6.313   0.903  0.1341 -0.2839  1.1301
  477TIP3    H222991   2.678   6.262   1.029 -1.5449  0.2439  0.4898
  478TIP3   OH222992   1.824   3.773   2.001  0.1818 -0.2944 -0.5833
  478TIP3    H122993   1.732   3.753   1.983  0.6645 -3.7964  0.2847
  478TIP3    H222994   1.863   3.784   1.914 -0.8631  0.5039 -0.9792
  479TIP3   OH222995   2.312   3.666   8.081 -0.5032  0.3242  0.2137
  479TIP3    H122996   2.344   3.751   8.053  0.8222  0.5673  2.3009
  479TIP3    H222997   2.358   3.603   8.025 -1.6625  0.9239 -1.4897
  480TIP3   OH222998   4.781   5.392   7.804 -0.1596 -0.2291  0.1533
  480TIP3    H122999   4.805   5.446   7.729  0.7991  1.9420  1.9197
  480TIP3    H223000   4.722   5.448   7.856 -1.9517 -2.1914  0.3804
  481TIP3   OH223001   2.159   3.314   7.884  0.0489  0.1367  0.3765
  481TIP3    H123002   2.070   3.318   7.920 -1.0870  0.8870 -2.2544
  481TIP3    H223003   2.167   3.394   7.832  2.1157 -0.1695  0.1400
  482TIP3   OH223004   3.269   2.695   0.943 -0.3448  0.4197 -0.0574
  482TIP3    H123005   3.365   2.696   0.935 -0.3322 -2.2425 -1.6090
  482TIP3    H223006   3.238   2.717   0.855 -1.1995  1.1463  0.4051
  483TIP3   OH223007   6.124   3.461   0.072 -0.1494  0.0919 -0.2539
  483TIP3    H123008   6.050   3.454   0.012 -0.4767 -0.8075  0.2461
  483TIP3    H223009   6.199   3.478   0.015 -0.1057 -2.7457 -1.1855
  484TIP3   OH223010   5.084   6.386   8.088  0.5235  0.4440  0.9619
  484TIP3    H123011   5.119   6.297   8.096  1.9866  0.9836  0.8688
  484TIP3    H223012   5.061   6.394   7.995  1.1419  0.4168  0.8004
  485TIP3   OH223013   5.117   0.312   7.390 -0.0198  0.2226  0.2339
  485TIP3    H123014   5.035   0.264   7.392  0.0918  0.0301  0.1708
  485TIP3    H223015   5.156   0.295   7.476 -0.1285  0.4597  0.3321
  486TIP3   OH223016   4.739   5.964   1.699 -0.8291  0.0993  0.1477
  486TIP3    H123017   4.674   6.018   1.743  0.6496  2.2249 -0.1277
  486TIP3    H223018   4.784   5.917   1.769 -1.2434  0.2495  0.5161
  487TIP3   OH223019   2.578   4.003   0.948 -0.3587 -0.2841  0.4071
  487TIP3    H123020   2.581   4.063   1.022  0.4669 -0.5385  0.5916
  487TIP3    H223021   2.628   3.927   0.977 -2.3094 -1.5548  0.5870
  488TIP3   OH223022   3.896   1.024   2.289 -0.2003  0.2049  0.1931
  488TIP3    H123023   3.948   1.005   2.211  0.0693  0.2558  0.3604
  488TIP3    H223024   3.805   1.025   2.258 -0.0156  1.5129 -0.3949
  489TIP3   OH223025   5.707   3.367   7.630  0.3723 -0.7539 -0.5296
  489TIP3    H123026   5.713   3.343   7.537 -0.7693  0.6047 -0.9816
  489TIP3    H223027   5.616   3.349   7.654  0.1808  0.5898 -0.1767
  490TIP3   OH223028   0.342   1.613   8.115 -0.0642 -0.0267  0.6563
  490TIP3    H123029   0.295   1.532   8.135 -0.8135  0.2449  0.0663
  490TIP3    H223030   0.420   1.584   8.067 -0.6723 -0.3763 -0.1614
  491TIP3   OH223031   1.634   2.923   1.230 -0.1495  0.3491 -0.6649
  491TIP3    H123032   1.657   2.998   1.175 -1.0408  0.8973 -0.3075
  491TIP3    H223033   1.682   2.938   1.311 -0.4600  0.6284 -0.5300
  492TIP3   OH223034   0.332   1.861   8.188 -0.6756 -0.1261 -0.1193
  492TIP3    H123035   0.334   1.766   8.190  0.2267 -0.1114  0.2030
  492TIP3    H223036   0.419   1.888   8.217 -0.6744  0.7869 -0.9035
  493TIP3   OH223037   0.007   0.901   6.409 -0.1220  0.8465 -0.2818
  493TIP3    H123038  -0.018   0.992   6.394 -0.6954  0.7385 -0.0266
  493TIP3    H223039   0.017   0.894   6.504 -0.3119  0.5897 -0.2792
  494TIP3   OH223040   1.485   4.450   1.683 -0.0856  0.4823 -0.1925
  494TIP3    H123041   1.530   4.405   1.755 -0.1844 -0.8559 -0.9369
  494TIP3    H223042   1.424   4.510   1.727  1.7009  1.6720  0.8366
  495TIP3   OH223043   2.512   5.216   8.027  0.2670  0.0577  0.3109
  495TIP3    H123044   2.524   5.310   8.013  0.5799  0.3001  1.9979
  495TIP3    H223045   2.547   5.200   8.115  1.1471 -1.8151 -0.3083
  496TIP3   OH223046   5.815   5.430   0.074  0.1295 -0.0798 -0.3290
  496TIP3    H123047   5.848   5.485   0.145 -1.9746 -1.0858  1.5543
  496TIP3    H223048   5.812   5.342   0.112  1.0599 -1.1085 -2.4580
  497TIP3   OH223049   2.465   6.855   0.653  0.0293  0.2050 -0.9219
  497TIP3    H123050   2.410   6.836   0.577  1.0647 -3.1296 -1.0022
  497TIP3    H223051   2.552   6.826   0.628  0.6365  0.0760  1.1473
  498TIP3   OH223052   4.557   3.719   7.268 -0.3958  0.0513 -0.3585
  498TIP3    H123053   4.583   3.713   7.360 -1.6153 -1.1598 -0.0689
  498TIP3    H223054   4.465   3.743   7.271  0.0325  1.9310 -1.3277
  499TIP3   OH223055   4.923   6.477   1.445  0.2129 -0.4906  0.1286
  499TIP3    H123056   4.960   6.466   1.358  1.3135  0.5976  0.4210
  499TIP3    H223057   4.869   6.399   1.459 -0.4291 -0.4369 -1.7169
  500TIP3   OH223058   6.110   4.145   7.923  0.5280 -0.2125  0.1284
  500TIP3    H123059   6.127   4.175   8.012 -2.0516  0.0642  0.5996
  500TIP3    H223060   6.097   4.225   7.873 -1.0037 -0.3926  0.1987
  501TIP3   OH223061   3.898   0.903   1.426 -0.2912 -0.1468 -0.3475
  501TIP3    H123062   3.869   0.881   1.338 -2.6472 -0.6534  0.4847
  501TIP3    H223063   3.822   0.944   1.467  0.7123 -0.0078  1.4951
  502TIP3   OH223064   6.848   2.239   8.188 -0.1923 -0.1486  0.4049
  502TIP3    H123065   6.870   2.314   8.133 -0.1120 -1.8823 -2.0687
  502TIP3    H223066   6.921   2.231   8.249 -0.7515  2.4267  1.5856
  503TIP3   OH223067   2.351   1.872   1.385  0.4526 -0.7761  0.2152
  503TIP3    H123068   2.379   1.957   1.418 -2.2832  0.5795 -0.6292
  503TIP3    H223069   2.286   1.841   1.448  0.1090 -1.3688 -0.4060
  504TIP3   OH223070   3.916   3.893   6.565  0.4943  0.1405 -0.6130
  504TIP3    H123071   3.837   3.882   6.512  0.3853  0.4917 -0.5251
  504TIP3    H223072   3.982   3.840   6.520  0.4344  0.5279 -1.1660
  505TIP3   OH223073   0.938   6.184   7.830 -0.7700  0.4680  0.3138
  505TIP3    H123074   0.974   6.105   7.790 -1.0649  0.1954  0.5835
  505TIP3    H223075   0.957   6.253   7.766  1.2986  0.5712  0.9862
  506TIP3   OH223076   5.481   3.790   1.572  0.6915 -0.0754  0.3635
  506TIP3    H123077   5.561   3.820   1.528 -0.8235  1.2268 -1.7012
  506TIP3    H223078   5.462   3.705   1.533 -0.9112  1.2826 -2.1171
  507TIP3   OH223079   5.895   3.138   0.308 -0.4480 -0.5120  0.4135
  507TIP3    H123080   5.803   3.154   0.328 -0.2020  0.6786  0.6688
  507TIP3    H223081   5.943   3.180   0.380  0.3371  0.5571 -0.7009
  508TIP3   OH223082   2.893   5.655   8.597  0.7669  0.6073  0.2099
  508TIP3    H123083   2.839   5.586   8.636 -0.1687  1.6882  0.8958
  508TIP3    H223084   2.834   5.730   8.589  1.5163  1.0564 -1.3755
  509TIP3   OH223085   0.708   1.769   1.393  0.1002 -0.1173  0.2003
  509TIP3    H123086   0.624   1.739   1.427 -0.5619 -0.3675 -1.5367
  509TIP3    H223087   0.744   1.692   1.348  0.9464  0.1770  0.3661
  510TIP3   OH223088   6.084   5.582   8.645  0.1877  0.1940 -0.0553
  510TIP3    H123089   6.092   5.576   8.740 -1.1534 -0.4265  0.0415
  510TIP3    H223090   6.117   5.497   8.613 -1.6334 -0.6045  0.0553
  511TIP3   OH223091   3.286   1.623   2.607  0.3985  0.0533  0.0580
  511TIP3    H123092   3.349   1.565   2.648  2.1633  1.8456  0.0437
  511TIP3    H223093   3.202   1.579   2.618  1.3563 -1.4593  1.9341
  512TIP3   OH223094   2.738   6.760   1.175 -0.2697 -0.1166 -0.1783
  512TIP3    H123095   2.772   6.840   1.135  0.0054 -0.6931 -1.1263
  512TIP3    H223096   2.692   6.790   1.253 -1.6855  1.1790 -1.4371
  513TIP3   OH223097   1.356   3.334   0.830 -0.4255 -0.1906 -0.1076
  513TIP3    H123098   1.287   3.385   0.788 -0.8886 -0.2761  0.5177
  513TIP3    H223099   1.310   3.259   0.869  0.1852 -0.8643 -0.6589
  514TIP3   OH223100   0.239   3.429   2.013  0.3414  0.9683  0.3375
  514TIP3    H123101   0.257   3.523   2.009 -1.0458  1.2604  0.4185
  514TIP3    H223102   0.151   3.423   2.052  1.4201 -0.4632  2.7936
  515TIP3   OH223103   3.817   0.186   7.559 -0.1732  0.0318 -0.7933
  515TIP3    H123104   3.892   0.218   7.507  0.3255 -0.4508 -0.3890
  515TIP3    H223105   3.822   0.236   7.641 -0.6625  0.4342 -1.0042
  516TIP3   OH223106   1.372   1.476   0.142 -0.3505 -0.0898  0.2132
  516TIP3    H123107   1.425   1.416   0.090 -2.2517 -1.5941 -0.1035
  516TIP3    H223108   1.323   1.526   0.077 -0.4347  0.2256  0.5158
  517TIP3   OH223109   5.182   1.163   0.378  0.4159  0.1538  0.6052
  517TIP3    H123110   5.196   1.094   0.314  1.6715  0.5820  0.3948
  517TIP3    H223111   5.159   1.116   0.459 -0.2558 -0.4215  0.0975
  518TIP3   OH223112   5.237   4.351   0.531  0.3352 -0.4525  0.0957
  518TIP3    H123113   5.321   4.379   0.567  0.3075 -0.3518  0.0813
  518TIP3    H223114   5.180   4.342   0.607 -0.0545  0.8662 -0.0040
  519TIP3   OH223115   3.512   2.175   1.037  0.0894  0.2939 -0.1797
  519TIP3    H123116   3.585   2.124   1.072  0.0409  0.8867  0.7991
  519TIP3    H223117   3.551   2.258   1.010  0.4091 -0.6282 -2.9395
  520TIP3   OH223118   4.304   6.134   2.235 -0.2393  0.2044  0.1509
  520TIP3    H123119   4.395   6.140   2.264 -0.3484  2.3731  0.2091
  520TIP3    H223120   4.254   6.185   2.299 -1.3495 -0.0663 -0.4605
  521TIP3   OH223121   0.673   3.102   0.982  0.5297  0.0568  0.1358
  521TIP3    H123122   0.732   3.051   0.928  0.8357 -1.2335  1.6130
  521TIP3    H223123   0.731   3.159   1.033  0.2239  1.5295 -1.0990
  522TIP3   OH223124   6.651   0.017   1.593 -0.0806 -0.4020  0.5976
  522TIP3    H123125   6.613   0.066   1.666  1.9661  1.4818  0.5153
  522TIP3    H223126   6.741   0.050   1.587  0.6666 -2.5366 -1.0054
  523TIP3   OH223127   1.277   0.137   1.514  0.0594 -0.4912  0.5454
  523TIP3    H123128   1.275   0.133   1.610 -1.8686 -1.5762  0.5140
  523TIP3    H223129   1.261   0.046   1.486  1.8762 -0.4525 -0.8485
  524TIP3   OH223130   3.779   5.808   1.771 -0.2727  0.7858  0.6613
  524TIP3    H123131   3.796   5.729   1.824 -0.4050  0.8418  0.7878
  524TIP3    H223132   3.866   5.844   1.754  0.2156 -1.5506 -2.8075
  525TIP3   OH223133   4.053   1.390   7.895 -0.4429 -0.2755  0.0992
  525TIP3    H123134   3.968   1.404   7.854 -0.3785 -0.9163 -0.2587
  525TIP3    H223135   4.033   1.348   7.979 -0.6141  1.5393  1.0237
  526TIP3   OH223136   6.255   6.333   7.127  0.3929  0.6641 -0.0197
  526TIP3    H123137   6.219   6.323   7.039 -0.7258 -1.0027  0.5754
  526TIP3    H223138   6.260   6.244   7.162  0.3779  1.3084  1.7684
  527TIP3   OH223139   3.714   1.389   8.393 -0.3990 -0.3942  0.1278
  527TIP3    H123140   3.711   1.353   8.304 -1.1485 -0.5705  0.2267
  527TIP3    H223141   3.624   1.412   8.413 -0.3277 -0.8994  1.0766
  528TIP3   OH223142   5.552   4.774   7.402 -0.2355 -0.2911  0.2950
  528TIP3    H123143   5.561   4.764   7.497  1.4607 -1.0341  0.1002
  528TIP3    H223144   5.634   4.816   7.375 -0.9392  0.4401 -0.7826
  529TIP3   OH223145   5.236   3.945   1.593  0.0444 -0.3952 -0.3447
  529TIP3    H123146   5.313   3.888   1.594  1.2226  1.0486  2.2234
  529TIP3    H223147   5.179   3.908   1.660  0.4965  0.9258  0.8232
  530TIP3   OH223148   1.219   5.118   8.527 -0.2734 -0.1783 -0.5425
  530TIP3    H123149   1.236   5.026   8.545  0.3786  0.0997  0.3485
  530TIP3    H223150   1.141   5.139   8.578  0.4356  0.1136  0.4662
  531TIP3   OH223151   6.114   2.932   7.062  0.4652 -0.3107  0.9006
  531TIP3    H123152   6.193   2.912   7.012  0.8482  1.4162  0.7800
  531TIP3    H223153   6.058   2.855   7.048  2.5755 -2.1846  2.0433
  532TIP3   OH223154   5.602   2.227   1.626  0.1220 -0.0787  0.6937
  532TIP3    H123155   5.584   2.248   1.535 -2.2723 -0.4921  1.0131
  532TIP3    H223156   5.628   2.311   1.665  1.6396  0.0116 -0.4120
  533TIP3   OH223157   6.216   0.447   8.247  0.6755 -0.9458 -0.1124
  533TIP3    H123158   6.256   0.505   8.182 -0.3641 -0.0706 -0.0096
  533TIP3    H223159   6.280   0.441   8.317  0.3522  1.0695  0.4219
  534TIP3   OH223160   0.651   2.767   0.104  0.4122  0.4629  0.2616
  534TIP3    H123161   0.566   2.807   0.122 -0.7015 -1.2082 -1.0013
  534TIP3    H223162   0.660   2.770   0.009  0.7068 -1.4173  0.2043
  535TIP3   OH223163   5.485   3.396   7.808  0.4000 -0.9040  0.2987
  535TIP3    H123164   5.537   3.337   7.862  0.3282 -1.2954 -0.0629
  535TIP3    H223165   5.402   3.404   7.855  0.0844 -1.7891 -0.1009
  536TIP3   OH223166   5.200   2.092   7.854 -0.7476 -0.4563 -0.0890
  536TIP3    H123167   5.134   2.066   7.791 -0.3758  1.4992 -1.3872
  536TIP3    H223168   5.169   2.176   7.889  0.0730 -0.4802  0.7720
  537TIP3   OH223169   3.181   3.781   0.182 -0.1534  0.3716  0.3243
  537TIP3    H123170   3.107   3.727   0.152  0.9155 -0.6500 -0.6049
  537TIP3    H223171   3.164   3.867   0.144 -1.0281  0.2382  0.3859
  538TIP3   OH223172   2.271   0.013   0.832  0.4480 -0.5945 -0.0327
  538TIP3    H123173   2.330  -0.021   0.765  0.1593 -0.6214 -0.2758
  538TIP3    H223174   2.271  -0.055   0.900  0.9989 -0.4159  0.1570
  539TIP3   OH223175   4.893   5.333   1.215  0.4290 -0.2876 -0.1823
  539TIP3    H123176   4.849   5.304   1.135  1.0267 -1.6042 -0.0588
  539TIP3    H223177   4.848   5.286   1.285  2.2729 -2.0269 -0.0908
  540TIP3   OH223178   0.485   5.888   6.686  0.2253 -0.1249 -0.4855
  540TIP3    H123179   0.558   5.828   6.700  1.6092  1.3326 -1.0670
  540TIP3    H223180   0.510   5.968   6.733 -1.3338  0.1883 -0.1197
  541TIP3   OH223181   0.514   1.499   7.921 -0.7550  0.1998 -0.0258
  541TIP3    H123182   0.576   1.568   7.895  0.1231 -0.2063  0.9512
  541TIP3    H223183   0.549   1.419   7.881 -1.5358  0.2173 -0.7900
  542TIP3   OH223184   6.040   2.575   2.036  0.3001 -0.1737 -0.4645
  542TIP3    H123185   5.998   2.491   2.050 -0.8821  0.0650 -2.2500
  542TIP3    H223186   6.134   2.555   2.040  0.0631 -1.1151  1.3971
  543TIP3   OH223187   2.742   4.432   1.575 -1.1254 -0.3658  0.2894
  543TIP3    H123188   2.725   4.479   1.494 -2.4005 -0.5449  0.4356
  543TIP3    H223189   2.836   4.415   1.573 -1.0223  0.2170 -0.8232
  544TIP3   OH223190   4.450   0.297   0.225  0.0206 -0.5502  0.4799
  544TIP3    H123191   4.364   0.277   0.187  0.6733 -0.7859 -0.9272
  544TIP3    H223192   4.507   0.311   0.150  1.3133 -0.7666  1.3851
  545TIP3   OH223193   5.110   0.362   8.271 -0.2031  0.1743 -1.0029
  545TIP3    H123194   5.054   0.289   8.245 -0.5837 -0.1598  0.6415
  545TIP3    H223195   5.187   0.320   8.311 -0.7847  0.6438  0.6816
  546TIP3   OH223196   5.138   6.485   7.358 -0.5330 -0.3632 -0.2375
  546TIP3    H123197   5.171   6.541   7.429 -2.0693 -0.4660  0.5960
  546TIP3    H223198   5.106   6.407   7.403  0.1858 -1.2709 -1.2453
  547TIP3   OH223199   1.678   6.478   1.295  0.2269 -0.2184 -0.6190
  547TIP3    H123200   1.732   6.407   1.328 -1.0674 -0.7015  0.5444
  547TIP3    H223201   1.589   6.446   1.303 -0.2780  0.7815 -1.9596
  548TIP3   OH223202   1.416   1.297   1.976  0.1442 -0.1938  0.5569
  548TIP3    H123203   1.492   1.241   1.991  1.5415  1.8492  1.3989
  548TIP3    H223204   1.399   1.289   1.882  2.8834  1.0642 -0.1319
  549TIP3   OH223205   3.748   4.116   1.041 -0.0936 -0.1355  0.5658
  549TIP3    H123206   3.825   4.160   1.075  0.6113  1.7418 -2.9148
  549TIP3    H223207   3.677   4.143   1.099  1.0654  2.2204  0.9972
  550TIP3   OH223208   5.624   4.014   1.491 -0.2759  0.1040 -0.1129
  550TIP3    H123209   5.614   4.069   1.568 -0.3671  0.8157 -0.6144
  550TIP3    H223210   5.707   4.041   1.452 -1.9996  2.6601 -2.4413
  551TIP3   OH223211   6.535   3.241   1.917  0.2147  0.4290  0.1053
  551TIP3    H123212   6.516   3.187   1.994 -2.4014 -0.8481 -1.3361
  551TIP3    H223213   6.626   3.220   1.895  1.0471  0.8352  2.7602
  552TIP3   OH223214   6.318   4.142   0.830 -0.3124 -0.2661  0.3230
  552TIP3    H123215   6.376   4.119   0.758  0.1062  1.6392  0.0039
  552TIP3    H223216   6.319   4.237   0.833  0.6385 -0.2476  3.6143
  553TIP3   OH223217   0.820   5.036   8.508 -0.3947  0.6266 -0.3681
  553TIP3    H123218   0.847   4.947   8.532 -1.0316  0.3815 -0.5461
  553TIP3    H223219   0.885   5.092   8.550 -0.5917  0.1244  0.6438
  554TIP3   OH223220   3.824   5.977   2.031  0.6972 -0.6456  0.5584
  554TIP3    H123221   3.802   5.941   1.945  1.6125 -0.2026  0.1321
  554TIP3    H223222   3.757   6.043   2.048 -0.3094 -1.6992  0.8273
  555TIP3   OH223223   4.289   3.052   1.752 -0.6928  0.5567 -0.1566
  555TIP3    H123224   4.321   3.089   1.834 -1.9228  0.6413  0.2943
  555TIP3    H223225   4.318   3.115   1.685  0.0438  0.6456  0.2399
  556TIP3   OH223226   4.431   0.796   6.753  0.0578 -0.8739 -0.0371
  556TIP3    H123227   4.493   0.793   6.680 -1.4759 -0.4041 -1.4171
  556TIP3    H223228   4.456   0.875   6.802  0.5342 -0.6983 -0.5539
  557TIP3   OH223229   0.645   2.081   0.875 -0.5098  0.4310 -0.2613
  557TIP3    H123230   0.734   2.098   0.844 -1.0202  0.5440 -1.7427
  557TIP3    H223231   0.591   2.083   0.795 -1.6833 -0.6882  0.4739
  558TIP3   OH223232   3.115   1.555   0.057 -0.0490  1.0201  0.1281
  558TIP3    H123233   3.036   1.508   0.031  0.9508 -0.0729 -1.0408
  558TIP3    H223234   3.156   1.581  -0.025  0.9568  1.3278  0.7054
  559TIP3   OH223235   0.074   5.689   7.795 -0.4462 -0.1133 -0.3692
  559TIP3    H123236  -0.006   5.652   7.831 -1.1272  1.9112  0.3613
  559TIP3    H223237   0.104   5.750   7.862  2.0416 -1.1942 -0.3903
  560TIP3   OH223238   5.966   5.225   8.360 -0.1763  0.3242  0.7420
  560TIP3    H123239   6.048   5.221   8.411 -0.8540 -0.7603  1.7990
  560TIP3    H223240   5.903   5.266   8.419 -0.5542  0.6463  0.1276
  561TIP3   OH223241   4.898   5.073   7.632 -0.5828 -0.3324 -0.3954
  561TIP3    H123242   4.880   5.166   7.620 -2.2895 -0.8435 -2.6761
  561TIP3    H223243   4.855   5.051   7.715  0.8255  1.0791  0.7663
  562TIP3   OH223244   6.159   6.265   1.354  0.1736  0.0164  0.5812
  562TIP3    H123245   6.139   6.175   1.382  0.5419 -0.4344 -0.5368
  562TIP3    H223246   6.251   6.262   1.327  0.0819  0.6306  0.1734
  563TIP3   OH223247   6.231   2.278   1.344 -0.1625 -0.1134  0.1308
  563TIP3    H123248   6.280   2.205   1.307  0.7205  0.5578 -0.0474
  563TIP3    H223249   6.291   2.319   1.407 -0.2382  1.1034 -0.5537
  564TIP3   OH223250   3.224   1.282   8.014 -0.1888  0.4756  0.2032
  564TIP3    H123251   3.287   1.319   8.076  0.7514 -1.4950  0.5073
  564TIP3    H223252   3.275   1.267   7.934 -0.4470 -0.3969  0.1902
  565TIP3   OH223253   0.274   0.631   0.086  0.3452 -0.4718  0.2807
  565TIP3    H123254   0.193   0.634   0.034  0.3894 -1.3911  0.1459
  565TIP3    H223255   0.324   0.558   0.048  1.4338  0.3475  0.0892
  566TIP3   OH223256   2.451   6.064   7.487 -0.1707  0.0512  0.1865
  566TIP3    H123257   2.394   5.998   7.447 -0.1615  1.1584 -1.8207
  566TIP3    H223258   2.531   6.061   7.435  0.1438  1.0465  0.5940
  567TIP3   OH223259   3.038   1.402   1.929  0.1260  0.0957 -0.0769
  567TIP3    H123260   3.104   1.391   1.861  1.9435 -0.0299  1.6131
  567TIP3    H223261   3.056   1.488   1.967  0.6449 -0.7180  1.6708
  568TIP3   OH223262   2.334   6.854   0.397  0.4795  0.2784 -0.1732
  568TIP3    H123263   2.340   6.947   0.418  0.4955 -0.4399  3.7494
  568TIP3    H223264   2.245   6.843   0.364 -0.7359  1.2792  2.4748
  569TIP3   OH223265   2.772   1.376   1.739  0.1077 -0.2773  0.1189
  569TIP3    H123266   2.756   1.358   1.832 -0.7857  2.6597  0.6138
  569TIP3    H223267   2.689   1.410   1.706  0.9643  0.5934 -1.2552
  570TIP3   OH223268   3.577   6.185   2.615 -0.7403  0.0424  0.6753
  570TIP3    H123269   3.573   6.091   2.634  1.0910 -0.7382 -2.2417
  570TIP3    H223270   3.663   6.212   2.645 -0.2090  0.1288 -0.8346
  571TIP3   OH223271   3.699   3.202   0.106 -0.1665 -0.7749  0.0577
  571TIP3    H123272   3.788   3.235   0.094 -0.4970 -0.4954 -1.8409
  571TIP3    H223273   3.710   3.109   0.123  0.5722 -0.3936  2.0206
  572TIP3   OH223274   6.068   6.284   0.693  0.5147  0.4315 -0.4186
  572TIP3    H123275   6.070   6.246   0.605  0.0702 -1.1675  0.2170
  572TIP3    H223276   6.131   6.233   0.743  1.1755  1.6927  0.0701
  573TIP3   OH223277   2.906   2.059   1.972  0.3576 -0.0056 -0.0543
  573TIP3    H123278   2.887   2.153   1.974  0.9256  0.1033  1.5761
  573TIP3    H223279   2.908   2.037   1.879 -2.7387  0.9664 -0.4448
  574TIP3   OH223280   4.559   5.072   1.317  0.4699 -0.3147  0.1304
  574TIP3    H123281   4.566   5.079   1.222  0.5288  1.0331  0.2244
  574TIP3    H223282   4.644   5.101   1.350  0.1234  0.1428  0.6298
  575TIP3   OH223283   0.246   4.742   7.113  0.2486  0.3383  0.1067
  575TIP3    H123284   0.244   4.647   7.121 -0.7012  0.3231 -0.2095
  575TIP3    H223285   0.243   4.774   7.203 -1.8536  0.0767  0.1696
  576TIP3   OH223286   5.560   0.250   7.394  0.0409 -1.1459 -0.3846
  576TIP3    H123287   5.600   0.219   7.475 -0.0546 -1.0227 -0.2916
  576TIP3    H223288   5.565   0.345   7.398 -0.3123 -1.1288 -0.3479
  577TIP3   OH223289   0.638   0.564   0.905  0.6319  0.0716  0.1597
  577TIP3    H123290   0.632   0.633   0.839  1.5290  0.5422  0.5568
  577TIP3    H223291   0.554   0.567   0.951  0.1754  0.0394 -0.6549
  578TIP3   OH223292   1.178   4.820   0.908  0.5071  0.3556 -0.2857
  578TIP3    H123293   1.227   4.902   0.907  0.6552  0.2748  0.1261
  578TIP3    H223294   1.092   4.844   0.872  1.4717  0.0635 -2.9645
  579TIP3   OH223295   3.549   3.418   7.000  0.3953 -0.5138  0.2473
  579TIP3    H123296   3.461   3.440   6.970  0.1939 -0.8980  0.5449
  579TIP3    H223297   3.568   3.484   7.067 -0.1547 -1.1303  1.0406
  580TIP3   OH223298   1.147   2.738   8.442  0.0462 -0.6559  0.1643
  580TIP3    H123299   1.116   2.802   8.378  1.9885 -2.6023 -3.0041
  580TIP3    H223300   1.077   2.673   8.446 -0.0952 -0.5167 -0.0205
  581TIP3   OH223301   2.731   0.776   1.412  0.0418 -0.4663  0.1907
  581TIP3    H123302   2.688   0.862   1.414 -0.3417 -0.6495 -0.0196
  581TIP3    H223303   2.697   0.731   1.490 -0.1044 -0.5922  0.0537
  582TIP3   OH223304   0.879   4.551   2.917 -0.1121  0.5995  0.5835
  582TIP3    H123305   0.815   4.557   2.846 -2.0833 -0.3419  2.1709
  582TIP3    H223306   0.934   4.629   2.907 -0.9267  0.9618 -1.3921
  583TIP3   OH223307   2.950   2.447   0.651 -0.3895  0.3149 -0.1536
  583TIP3    H123308   2.866   2.465   0.609 -0.6635  2.8488  1.3076
  583TIP3    H223309   2.938   2.362   0.693 -0.9792 -1.0384 -2.8359
  584TIP3   OH223310   2.891   6.404   8.564 -0.3213  0.0618 -0.1386
  584TIP3    H123311   2.821   6.426   8.626 -0.7171 -1.8358  0.1493
  584TIP3    H223312   2.866   6.318   8.530  1.0748  0.0649 -1.2268
  585TIP3   OH223313   0.957   4.891   2.695  0.2491  0.7544  0.1430
  585TIP3    H123314   0.873   4.878   2.651  1.0120 -0.9635 -0.9125
  585TIP3    H223315   1.007   4.945   2.633  0.4102  0.5946  0.1357
  586TIP3   OH223316   2.991   5.646   8.331  0.1795 -0.0402  0.1067
  586TIP3    H123317   2.985   5.734   8.296 -2.1973  0.0929  0.6582
  586TIP3    H223318   2.958   5.653   8.421  0.1430 -1.4448  0.2378
  587TIP3   OH223319   1.052   2.878   7.494  0.1769 -0.0231  0.1838
  587TIP3    H123320   1.040   2.869   7.399 -0.4052 -0.5225  0.2981
  587TIP3    H223321   1.136   2.923   7.503  0.6613 -0.7454 -0.5524
  588TIP3   OH223322   1.950   3.382   1.213  0.1002  0.5609 -0.7151
  588TIP3    H123323   1.975   3.290   1.208  0.4377  0.6913 -1.4932
  588TIP3    H223324   1.983   3.412   1.298 -0.5311 -0.1817 -0.1968
  589TIP3   OH223325   2.155   0.117   7.389  0.2100  0.2333 -0.1127
  589TIP3    H123326   2.068   0.156   7.383 -0.7671 -1.7410  0.6443
  589TIP3    H223327   2.212   0.190   7.415 -1.4142  1.2976  0.5738
  590TIP3   OH223328   0.441   3.057   7.828  0.5977 -0.3161 -0.5628
  590TIP3    H123329   0.386   2.979   7.830  2.1922 -1.5346 -1.6736
  590TIP3    H223330   0.487   3.053   7.744  0.1076  2.3099 -1.0582
  591TIP3   OH223331   5.209   5.474   8.372  0.8125  0.7797 -0.0559
  591TIP3    H123332   5.200   5.423   8.453  1.2786  1.4551  0.4363
  591TIP3    H223333   5.131   5.529   8.370  0.8430  0.8234 -0.0248
  592TIP3   OH223334   3.474   0.382   2.534  0.0501  0.4702  0.1224
  592TIP3    H123335   3.380   0.395   2.523 -0.0516  0.7385  1.1617
  592TIP3    H223336   3.487   0.384   2.629  1.3357  2.0465 -0.0539
  593TIP3   OH223337   5.716   0.282   7.640  0.1184 -0.0357 -0.8472
  593TIP3    H123338   5.747   0.370   7.659 -0.9506  0.1560  0.0489
  593TIP3    H223339   5.790   0.225   7.664  1.0832  0.6389 -2.1297
  594TIP3   OH223340   4.285   1.884   1.723 -0.3404 -0.1371  0.3260
  594TIP3    H123341   4.242   1.850   1.645 -0.3590  1.8529 -0.5970
  594TIP3    H223342   4.379   1.880   1.703 -0.1931 -1.6674  1.1341
  595TIP3   OH223343   4.334   6.587   7.695  0.2718  0.3678 -0.0380
  595TIP3    H123344   4.302   6.524   7.760  1.3310  1.5256  1.6807
  595TIP3    H223345   4.276   6.663   7.704  0.3061  0.4628 -0.5941
  596TIP3   OH223346   0.530   1.198   1.832  0.6021  0.2367  0.1116
  596TIP3    H123347   0.563   1.251   1.905  0.1001 -0.3720  0.8082
  596TIP3    H223348   0.441   1.174   1.859  1.3451 -2.2594  0.5828
  597TIP3   OH223349   1.517   0.701   0.875  0.1572  0.0755 -0.3409
  597TIP3    H123350   1.562   0.785   0.865 -0.0168  0.0245 -1.8621
  597TIP3    H223351   1.456   0.698   0.801 -0.8324 -0.7946  0.4701
  598TIP3   OH223352   5.656   4.449   7.345 -0.3581 -0.2580  0.1175
  598TIP3    H123353   5.658   4.443   7.441  1.8164 -0.5691  0.1088
  598TIP3    H223354   5.693   4.365   7.316  0.5252  0.4771 -0.9348
  599TIP3   OH223355   3.283   4.562   8.175  0.1923 -0.4449 -0.1471
  599TIP3    H123356   3.271   4.656   8.178  0.8502 -0.3115 -1.1013
  599TIP3    H223357   3.296   4.536   8.266 -0.4451  0.3122  0.1637
  600TIP3   OH223358   3.716   0.064   0.206 -0.8046  0.5949 -0.5626
  600TIP3    H123359   3.696   0.039   0.116 -0.5848  0.1330 -0.4877
  600TIP3    H223360   3.726   0.159   0.203 -1.5172  0.6676 -0.8824
  601TIP3   OH223361   3.650   1.776   7.020  0.0296 -0.3472 -0.6662
  601TIP3    H123362   3.609   1.753   6.937  2.6274 -0.9194 -1.8877
  601TIP3    H223363   3.629   1.703   7.079 -1.9633  0.1399 -0.6961
  602TIP3   OH223364   2.166   1.470   3.048  0.0240  0.1475  0.2918
  602TIP3    H123365   2.186   1.561   3.024  0.9370  0.5087  2.2602
  602TIP3    H223366   2.071   1.463   3.041 -0.0293  1.1588 -0.1533
  603TIP3   OH223367   3.639   2.646   0.322 -0.4492 -0.0644  0.1854
  603TIP3    H123368   3.549   2.623   0.301 -0.6666 -0.6916  1.7234
  603TIP3    H223369   3.680   2.662   0.237 -1.8647 -0.2814 -0.5585
  604TIP3   OH223370   3.586   6.718   1.779 -0.0843 -0.2269  0.2022
  604TIP3    H123371   3.603   6.718   1.873 -0.2749  0.7431  0.2531
  604TIP3    H223372   3.592   6.811   1.754  0.0464 -0.4817 -0.7526
  605TIP3   OH223373   3.331   2.550   7.530  0.0987 -0.2306  0.1047
  605TIP3    H123374   3.343   2.459   7.503 -2.3253 -1.0748  1.5551
  605TIP3    H223375   3.283   2.591   7.458  1.2133 -0.0409 -0.5594
  606TIP3   OH223376   3.708   0.561   1.855  0.0072 -0.1765  0.0397
  606TIP3    H123377   3.690   0.584   1.764 -2.4039 -1.3312  0.1587
  606TIP3    H223378   3.622   0.542   1.893  1.2624 -4.1384  1.3335
  607TIP3   OH223379   5.210   4.343   1.215 -0.5503  0.5130 -0.0786
  607TIP3    H123380   5.265   4.290   1.273 -0.7169  2.1712  1.6882
  607TIP3    H223381   5.272   4.385   1.156 -0.0800  0.9091  0.6821
  608TIP3   OH223382   1.576   4.476   1.976  0.2040  0.2847  0.9346
  608TIP3    H123383   1.501   4.530   2.003 -0.1070  0.3253  0.0210
  608TIP3    H223384   1.544   4.386   1.982 -0.5387  0.3541 -1.1435
  609TIP3   OH223385   4.629   1.215   2.385  0.4050 -0.6809 -0.2538
  609TIP3    H123386   4.599   1.283   2.444 -0.0812 -1.3579  0.2939
  609TIP3    H223387   4.549   1.184   2.341  0.5591 -1.1869 -0.1858
  610TIP3   OH223388   2.656   1.173   1.060 -0.3968  0.1736 -0.5591
  610TIP3    H123389   2.608   1.247   1.099 -0.1220  0.9796 -1.6929
  610TIP3    H223390   2.588   1.112   1.033 -0.6587  0.2283 -0.0371
  611TIP3   OH223391   3.222   1.569   0.410  0.2869  0.6759 -0.3682
  611TIP3    H123392   3.276   1.518   0.351 -1.4008 -0.3582 -1.0992
  611TIP3    H223393   3.200   1.648   0.361 -0.3657  0.2366 -0.7978
  612TIP3   OH223394   1.986   4.097   0.683  0.1129  0.1709  0.5885
  612TIP3    H123395   2.060   4.037   0.681 -0.8825 -1.1035  0.0878
  612TIP3    H223396   1.919   4.053   0.629 -0.2822  2.2330 -0.7178
  613TIP3   OH223397   2.715   2.322   2.631  0.3552  0.1687  0.1765
  613TIP3    H123398   2.751   2.410   2.625  0.2273  0.2912  1.0885
  613TIP3    H223399   2.634   2.332   2.680 -0.7844 -0.1529 -1.5836
  614TIP3   OH223400   5.800   0.703   8.581 -0.1621 -0.4842  0.3308
  614TIP3    H123401   5.820   0.642   8.652 -1.0581 -0.1725  0.8783
  614TIP3    H223402   5.831   0.788   8.614 -3.8428  0.3915  2.0447
  615TIP3   OH223403   4.017   4.974   0.634  0.0117  0.4833 -0.5105
  615TIP3    H123404   3.951   4.985   0.703 -0.3884 -0.6938 -0.6940
  615TIP3    H223405   4.095   5.019   0.668 -0.2765  0.1971  0.5597
  616TIP3   OH223406   1.952   3.230   2.732  0.0100  0.1387 -0.6235
  616TIP3    H123407   1.908   3.276   2.803 -0.7371  0.3903 -1.2399
  616TIP3    H223408   2.041   3.265   2.732  0.9315 -1.8432  1.9756
  617TIP3   OH223409   3.815   3.511   0.906  0.0032 -0.0901 -0.5062
  617TIP3    H123410   3.757   3.461   0.964  0.6015  0.5351  0.6802
  617TIP3    H223411   3.894   3.457   0.901  0.2693  0.2481 -0.0416
  618TIP3   OH223412   5.226   6.779   7.306 -0.2189 -0.5785 -0.0938
  618TIP3    H123413   5.312   6.820   7.306  0.5236 -2.0701 -0.3162
  618TIP3    H223414   5.224   6.725   7.228 -1.4747 -0.3708 -0.2354
  619TIP3   OH223415   4.709   0.258   2.274 -0.6592  0.0260  0.0964
  619TIP3    H123416   4.721   0.177   2.324  1.7371 -0.4735 -1.1421
  619TIP3    H223417   4.766   0.322   2.317  0.4198 -0.0578 -1.1425
  620TIP3   OH223418   1.103   2.424   2.460 -0.2017  0.0608 -0.4577
  620TIP3    H123419   1.146   2.498   2.417  0.8101 -1.5884 -2.4619
  620TIP3    H223420   1.149   2.414   2.543  0.1749  1.1828 -0.5124
  621TIP3   OH223421   1.674   3.649   8.441  0.2126  0.0104 -0.6933
  621TIP3    H123422   1.620   3.726   8.453 -2.2627 -1.5243 -1.3181
  621TIP3    H223423   1.741   3.655   8.510 -1.4538  1.4156  0.8912
  622TIP3   OH223424   1.705   4.990   1.456  0.0453 -0.4869 -0.4227
  622TIP3    H123425   1.733   4.950   1.374  1.4395 -2.0516  0.7630
  622TIP3    H223426   1.638   4.931   1.490 -1.2998  0.7046 -0.8836
  623TIP3   OH223427   6.484   1.684   7.702 -0.1773  0.2669 -0.0832
  623TIP3    H123428   6.400   1.655   7.739  0.0327  2.0978  2.0818
  623TIP3    H223429   6.466   1.773   7.670  1.1176  1.1207  1.4078
  624TIP3   OH223430   1.805   6.097   0.057  0.4758 -0.2487 -0.4959
  624TIP3    H123431   1.864   6.165   0.024  0.9340  0.3989  1.5225
  624TIP3    H223432   1.720   6.142   0.065  0.9201  0.3613  1.4517
  625TIP3   OH223433   2.785   5.554   1.600  0.0908  0.3303  0.1909
  625TIP3    H123434   2.858   5.597   1.644  1.7402 -0.3165 -1.7497
  625TIP3    H223435   2.781   5.595   1.514 -0.5287 -1.0132 -0.4566
  626TIP3   OH223436   6.574   2.905   7.351 -0.0488  0.3372  0.0561
  626TIP3    H123437   6.615   2.946   7.275 -0.3993 -1.5913 -1.2509
  626TIP3    H223438   6.647   2.877   7.407  0.2689  0.3935 -0.3314
  627TIP3   OH223439   4.649   1.137   0.535  0.1487 -0.5636 -0.2378
  627TIP3    H123440   4.607   1.187   0.605  0.5503  0.3919 -0.6670
  627TIP3    H223441   4.610   1.171   0.455  2.1248  0.7902 -0.7008
  628TIP3   OH223442   5.661   6.141   1.016 -0.2385 -0.3901 -0.2290
  628TIP3    H123443   5.589   6.109   0.961 -0.2474 -2.7425  1.0283
  628TIP3    H223444   5.740   6.113   0.969 -0.1150  1.1161 -0.9867
  629TIP3   OH223445   0.539   2.187   8.606  0.1512 -0.5627 -0.4217
  629TIP3    H123446   0.456   2.152   8.638 -0.8192  0.4821 -1.7200
  629TIP3    H223447   0.549   2.149   8.519  1.1319 -0.7971 -0.2208
  630TIP3   OH223448   1.847   5.956   0.459 -0.3790  0.1002 -0.2094
  630TIP3    H123449   1.809   5.974   0.545 -1.7906  1.6110 -1.0810
  630TIP3    H223450   1.880   6.041   0.430  1.3060 -0.6617 -0.6355
  631TIP3   OH223451   5.171   4.710   7.119  0.2559 -0.1410 -0.4853
  631TIP3    H123452   5.145   4.730   7.029 -1.0656 -0.3008 -0.1552
  631TIP3    H223453   5.093   4.672   7.159  1.1282 -1.0380  0.4366
  632TIP3   OH223454   4.490   4.568   0.789  0.0148  0.0250 -0.2352
  632TIP3    H123455   4.582   4.561   0.813  0.0484  0.5903 -0.1734
  632TIP3    H223456   4.488   4.638   0.723 -0.3542 -0.0609 -0.3189
  633TIP3   OH223457   5.670   1.119   0.404  0.1105 -0.2318  0.5931
  633TIP3    H123458   5.653   1.045   0.345 -0.1326  0.7773 -0.6462
  633TIP3    H223459   5.621   1.098   0.483 -0.6099 -1.0245 -0.0340
  634TIP3   OH223460   4.242   1.646   7.793 -0.0078 -0.2307 -0.0433
  634TIP3    H123461   4.234   1.599   7.876 -2.0704 -0.2629 -0.2018
  634TIP3    H223462   4.206   1.732   7.811 -0.2813 -0.1681 -0.8458
  635TIP3   OH223463   1.550   4.781   1.551  0.7899 -0.2768  0.2582
  635TIP3    H123464   1.605   4.791   1.629 -0.0215 -0.5422  0.8712
  635TIP3    H223465   1.462   4.766   1.585  0.2110  0.7721 -0.7112
  636TIP3   OH223466   3.077   0.572   1.968 -0.0524 -0.3189  0.1026
  636TIP3    H123467   3.142   0.531   2.026 -0.3902  1.0554  1.5235
  636TIP3    H223468   3.123   0.646   1.930 -0.7018  0.5412  0.9584
  637TIP3   OH223469   5.112   1.143   7.965  0.4042 -0.3024  0.0850
  637TIP3    H123470   5.153   1.132   7.879 -0.3963 -2.5229 -0.0792
  637TIP3    H223471   5.031   1.191   7.946 -0.3912 -1.8538 -0.6473
  638TIP3   OH223472   1.874   2.126   8.658  0.6465 -0.0839 -0.0811
  638TIP3    H123473   1.798   2.096   8.707 -0.0140 -0.2263 -1.1537
  638TIP3    H223474   1.847   2.121   8.566  2.4604 -1.6098 -0.5991
  639TIP3   OH223475   4.083   2.108   8.064  0.1673  0.7632 -0.1500
  639TIP3    H123476   4.060   2.139   8.151 -2.4719  0.3587 -0.6103
  639TIP3    H223477   4.126   2.183   8.022  0.0976  1.4575  0.9785
  640TIP3   OH223478   2.906   4.544   2.982 -0.0353  0.1735 -0.0592
  640TIP3    H123479   2.984   4.535   3.037 -0.4344  2.2620  0.9537
  640TIP3    H223480   2.844   4.592   3.036 -1.3560  0.1549 -1.4926
  641TIP3   OH223481   5.628   3.870   0.373  0.0751 -0.6794 -0.2338
  641TIP3    H123482   5.590   3.911   0.295  0.7916 -0.8842 -0.7040
  641TIP3    H223483   5.669   3.790   0.340 -2.5952 -2.6402  0.8841
  642TIP3   OH223484   5.439   2.651   8.055  0.8408 -0.6289  0.5597
  642TIP3    H123485   5.392   2.642   7.973 -2.1075 -0.3707  2.1042
  642TIP3    H223486   5.501   2.722   8.040 -1.6335  1.4254 -0.6513
  643TIP3   OH223487   3.931   2.426   0.009  0.0019  0.7296 -0.3355
  643TIP3    H123488   3.855   2.405   0.063  1.1328 -1.0687  0.6554
  643TIP3    H223489   3.957   2.514   0.037 -1.6905  1.3978 -0.7314
  644TIP3   OH223490   1.817   3.267   8.435 -0.1877  0.0751  0.4093
  644TIP3    H123491   1.902   3.313   8.429 -1.9966  3.8140  0.3859
  644TIP3    H223492   1.787   3.286   8.524 -1.1686 -0.9373  0.3048
  645TIP3   OH223493   0.928   1.512   7.896  0.1548 -0.4907  0.1344
  645TIP3    H123494   0.975   1.534   7.815 -0.5723 -0.4280 -0.2801
  645TIP3    H223495   0.938   1.589   7.952  0.1808 -0.3063 -0.1211
  646TIP3   OH223496   4.710   5.646   1.890  0.6547 -0.3727 -0.1371
  646TIP3    H123497   4.652   5.721   1.875 -0.5022 -1.3890 -0.9549
  646TIP3    H223498   4.757   5.668   1.970  0.3906  1.2506 -0.4020
  647TIP3   OH223499   6.276   2.433   6.769 -0.5575 -0.3246  0.8827
  647TIP3    H123500   6.339   2.407   6.836 -0.8982 -0.3876  1.1854
  647TIP3    H223501   6.191   2.409   6.806 -0.7966  0.2228  0.7017
  648TIP3   OH223502   5.234   5.895   1.070 -0.4304  0.2952  0.1553
  648TIP3    H123503   5.298   5.867   1.005  0.7573 -0.1596  1.4776
  648TIP3    H223504   5.166   5.827   1.067 -0.0905 -0.0354 -0.1879
  649TIP3   OH223505   0.701   1.242   1.253 -0.2195 -0.0162 -0.2033
  649TIP3    H123506   0.741   1.254   1.166 -0.7662 -2.4353 -0.8615
  649TIP3    H223507   0.775   1.235   1.313  0.1806  3.6870 -0.0328
  650TIP3   OH223508   2.247   0.984   8.201 -0.0688 -0.3876 -0.3754
  650TIP3    H123509   2.160   0.954   8.174 -0.2140 -0.0944 -0.2431
  650TIP3    H223510   2.298   0.986   8.120 -0.2065 -0.4966 -0.4645
  651TIP3   OH223511   0.457   4.401   2.382  0.1263 -0.2525  0.0801
  651TIP3    H123512   0.501   4.355   2.453 -0.1741 -1.1068 -0.2824
  651TIP3    H223513   0.454   4.492   2.411  1.5177 -0.2959  0.4086
  652TIP3   OH223514   0.640   4.676   0.332 -0.1095 -0.1386  0.2834
  652TIP3    H123515   0.604   4.759   0.301  1.0460  0.4693  0.5034
  652TIP3    H223516   0.591   4.609   0.284 -2.4010  0.5668  1.5184
  653TIP3   OH223517   3.325   5.547   7.012  0.2132 -0.0196 -0.0414
  653TIP3    H123518   3.306   5.599   6.934  0.4962  0.6559  0.3277
  653TIP3    H223519   3.413   5.513   6.997  0.7237  1.0315  0.4559
  654TIP3   OH223520   0.493   5.730   0.477 -0.1840  0.2193 -0.4798
  654TIP3    H123521   0.451   5.673   0.542 -0.5064  0.1069 -0.7860
  654TIP3    H223522   0.434   5.729   0.402  0.6967 -0.5170 -1.1974
  655TIP3   OH223523   4.094   4.068   0.234 -0.2000 -0.2699  0.1124
  655TIP3    H123524   4.185   4.093   0.251  0.0629 -1.0787 -0.0550
  655TIP3    H223525   4.085   4.069   0.139 -0.3162 -0.3465  0.1214
  656TIP3   OH223526   1.828   1.327   7.193  0.3118 -0.0015 -0.0898
  656TIP3    H123527   1.760   1.262   7.211  1.1845 -0.6227  1.1329
  656TIP3    H223528   1.910   1.279   7.201  0.9382  0.9434 -0.5857
  657TIP3   OH223529   5.655   0.395   0.768  0.0022 -0.1680  0.2943
  657TIP3    H123530   5.720   0.378   0.836  1.2868  1.2967 -0.4924
  657TIP3    H223531   5.619   0.309   0.746 -0.3716 -0.7007  2.6926
  658TIP3   OH223532   1.991   6.813   2.291 -0.6358  0.3344  0.2722
  658TIP3    H123533   2.049   6.868   2.343 -1.1509  0.6838  0.4876
  658TIP3    H223534   1.959   6.747   2.353 -0.6962  0.3219  0.2284
  659TIP3   OH223535   6.323   2.284   8.060 -0.0156  0.0791 -0.1018
  659TIP3    H123536   6.364   2.370   8.054  0.4485 -0.0575  0.8746
  659TIP3    H223537   6.231   2.300   8.037  0.3198  0.5922 -1.1604
  660TIP3   OH223538   0.008   1.141   8.174  0.0783 -0.2473 -0.0300
  660TIP3    H123539  -0.079   1.146   8.134 -0.2664  1.7575  0.8773
  660TIP3    H223540   0.068   1.164   8.103 -0.3192  0.5997 -0.1064
  661TIP3   OH223541   3.569   4.527   8.016  0.3722  0.4582 -0.0153
  661TIP3    H123542   3.532   4.475   7.945  0.9358 -0.6287  0.4726
  661TIP3    H223543   3.493   4.570   8.056 -1.0255 -4.2053  3.0387
  662TIP3   OH223544   2.015   3.866   0.234 -0.2408 -0.6431 -0.1345
  662TIP3    H123545   1.922   3.864   0.256 -0.2783  1.0908  0.0275
  662TIP3    H223546   2.021   3.926   0.160  0.6906 -1.1528 -0.4846
  663TIP3   OH223547   1.384   2.488   6.513 -0.6653 -0.1148 -0.0153
  663TIP3    H123548   1.398   2.568   6.563 -0.0164 -0.4365  0.3321
  663TIP3    H223549   1.345   2.517   6.431 -1.4838  0.4391  0.5694
  664TIP3   OH223550   0.123   5.358   1.107 -0.8285  0.3601 -0.5021
  664TIP3    H123551   0.184   5.384   1.176 -1.2567  1.2749 -0.4455
  664TIP3    H223552   0.066   5.293   1.149  1.6678 -2.5568 -1.2796
  665TIP3   OH223553   1.970   0.227   6.759  0.1719  0.6378 -0.3078
  665TIP3    H123554   2.018   0.281   6.822 -0.7591  2.6283 -1.2045
  665TIP3    H223555   1.891   0.201   6.805  1.5721 -1.9437  0.8809
  666TIP3   OH223556   4.083   6.782   8.338  0.0701  0.3219 -0.2912
  666TIP3    H123557   3.990   6.801   8.353  0.2185  1.6636 -0.9527
  666TIP3    H223558   4.127   6.816   8.416 -0.0446 -1.0236  0.3906
  667TIP3   OH223559   3.696   5.897   0.037  0.0964  0.5714 -0.1865
  667TIP3    H123560   3.683   5.973   0.094  1.9960 -1.0540  2.6489
  667TIP3    H223561   3.755   5.929  -0.031 -2.2990  2.5992 -1.4996
  668TIP3   OH223562   2.964   2.001   1.402  0.3043  0.0433 -0.2837
  668TIP3    H123563   2.889   1.961   1.359  0.4119 -1.1087  0.5518
  668TIP3    H223564   2.965   2.091   1.371 -0.9369 -0.1531 -0.9303
  669TIP3   OH223565   0.268   3.039   0.489  0.1047 -0.1725  0.1089
  669TIP3    H123566   0.209   3.085   0.548  1.5053  1.1923  0.5010
  669TIP3    H223567   0.213   3.015   0.414 -0.9436  1.0293  0.4633
  670TIP3   OH223568   4.347   3.144   7.897  0.5254  0.6897  0.4224
  670TIP3    H123569   4.319   3.225   7.853 -0.7507 -0.8522 -1.7805
  670TIP3    H223570   4.425   3.170   7.947  1.0604  2.9583 -1.4025
  671TIP3   OH223571   6.502   6.006   7.282  0.3237  0.0185 -0.5090
  671TIP3    H123572   6.431   6.055   7.241  1.0367  1.1576 -0.4475
  671TIP3    H223573   6.582   6.043   7.243  0.9449 -0.0534  0.6489
  672TIP3   OH223574   6.578   6.412   8.172 -0.3489  1.0713  0.2621
  672TIP3    H123575   6.572   6.360   8.092 -0.0846 -1.5199  1.8165
  672TIP3    H223576   6.515   6.371   8.232  1.1133  1.4156  2.1285
  673TIP3   OH223577   5.417   0.330   0.479 -0.0523  0.2021 -0.2503
  673TIP3    H123578   5.361   0.407   0.493 -0.1351  0.3146 -1.1525
  673TIP3    H223579   5.411   0.281   0.561 -3.3967 -1.0273 -1.0419
  674TIP3   OH223580   3.144   6.470   0.790 -0.1285  0.1225 -0.2216
  674TIP3    H123581   3.234   6.464   0.820  0.5147  0.3278 -1.9649
  674TIP3    H223582   3.138   6.555   0.747 -1.7463  0.9895  1.5860
  675TIP3   OH223583   0.547   2.188   1.696  0.2493 -0.3949  0.1686
  675TIP3    H123584   0.537   2.180   1.601  0.9816  0.5215  0.0134
  675TIP3    H223585   0.457   2.197   1.728 -0.1225 -2.0291 -0.2893
  676TIP3   OH223586   0.910   1.993   8.446  0.3748 -0.3925 -0.7304
  676TIP3    H123587   0.909   2.075   8.494 -0.9815 -0.3136 -0.8620
  676TIP3    H223588   0.953   2.015   8.363 -0.2625  0.2671 -0.8945
  677TIP3   OH223589   6.480   6.322   7.651 -0.0039  0.6667  0.1632
  677TIP3    H123590   6.392   6.334   7.614 -0.1091  0.2702  0.2813
  677TIP3    H223591   6.515   6.246   7.603  0.1843  0.6830  0.2778
  678TIP3   OH223592   6.007   1.117   1.237 -0.6594 -0.2264 -0.1470
  678TIP3    H123593   6.087   1.105   1.185  1.4901  0.2201  2.7710
  678TIP3    H223594   5.953   1.042   1.216  1.3701 -1.5820 -0.8800
  679TIP3   OH223595   6.407   6.566   7.743  0.1859 -0.6271 -0.2442
  679TIP3    H123596   6.423   6.491   7.687 -1.2524 -1.1768  0.0309
  679TIP3    H223597   6.352   6.532   7.814 -0.9413  0.7758 -0.4014
  680TIP3   OH223598   0.689   5.234   0.223  0.3164 -0.1147  0.5697
  680TIP3    H123599   0.604   5.272   0.243 -1.0667 -2.1654 -1.0534
  680TIP3    H223600   0.704   5.255   0.131  1.1602 -0.5469  0.5985
  681TIP3   OH223601   3.716   5.609   0.060 -0.0537 -0.7298 -0.1125
  681TIP3    H123602   3.703   5.582   0.151 -0.7058 -0.7829 -0.2158
  681TIP3    H223603   3.709   5.704   0.062 -0.8909 -0.7811 -0.2260
  682TIP3   OH223604   4.067   4.648   7.397 -0.6066  0.0845 -0.0561
  682TIP3    H123605   4.010   4.703   7.344 -0.9650 -2.4643 -2.5442
  682TIP3    H223606   4.045   4.558   7.372  3.2029 -1.1244  0.1630
  683TIP3   OH223607   5.910   1.081   0.556  0.6571 -0.1451 -0.0011
  683TIP3    H123608   5.830   1.102   0.507  1.1108  0.1031 -0.6539
  683TIP3    H223609   5.926   0.989   0.538  0.2306 -0.3323  0.5593
  684TIP3   OH223610   5.575   1.486   8.124 -0.5066 -0.1461 -0.7863
  684TIP3    H123611   5.562   1.391   8.119 -1.2363 -0.0549 -0.7322
  684TIP3    H223612   5.589   1.504   8.217  0.7800 -0.3304 -0.9230
  685TIP3   OH223613   5.432   5.858   7.839  0.1561 -0.1212  0.4340
  685TIP3    H123614   5.366   5.813   7.788 -1.7320  1.3441  1.4502
  685TIP3    H223615   5.424   5.822   7.927 -0.3671  1.0834  0.9085
  686TIP3   OH223616   4.572   0.448   7.447  0.5046  0.6206  0.2699
  686TIP3    H123617   4.522   0.399   7.381  0.1908  0.3616  0.6972
  686TIP3    H223618   4.615   0.517   7.397 -1.7175  2.0081  0.1296
  687TIP3   OH223619   4.818   0.958   1.919  0.3053 -0.5713  0.5339
  687TIP3    H123620   4.746   0.997   1.969  0.7291  1.8800 -0.5762
  687TIP3    H223621   4.804   0.864   1.925 -1.5613 -0.2555  2.3940
  688TIP3   OH223622   2.144   6.001   0.174  0.3662 -0.4823  0.3302
  688TIP3    H123623   2.136   5.947   0.253  1.5249 -0.3114  0.5851
  688TIP3    H223624   2.097   6.082   0.195 -1.0359 -1.2077  0.0937
  689TIP3   OH223625   2.099   3.433   1.488 -0.6691 -0.1067 -0.4413
  689TIP3    H123626   2.153   3.360   1.519  0.8773  2.1933  2.8253
  689TIP3    H223627   2.162   3.502   1.466 -2.1558  1.3045 -0.4891
  690TIP3   OH223628   0.812   1.740   1.669  0.1126  0.1482  0.0187
  690TIP3    H123629   0.819   1.799   1.594  1.2230 -1.5856 -1.3234
  690TIP3    H223630   0.838   1.655   1.635  1.0857 -0.6300  2.4934
  691TIP3   OH223631   2.794   2.990   2.437  0.4414 -0.4085  0.3101
  691TIP3    H123632   2.755   3.065   2.482 -1.2627  0.2837 -2.1161
  691TIP3    H223633   2.882   2.983   2.474  0.2203  2.0334  1.4880
  692TIP3   OH223634   2.280   6.676   1.006  0.2024 -0.2164 -0.2935
  692TIP3    H123635   2.293   6.730   1.084  0.1484  2.1884 -1.8645
  692TIP3    H223636   2.366   6.638   0.989  0.0038 -1.5574  1.4223
  693TIP3   OH223637   6.404   4.817   0.871  0.3964  0.1743  0.5095
  693TIP3    H123638   6.489   4.780   0.896 -0.3448 -0.6625  1.9540
  693TIP3    H223639   6.390   4.888   0.933 -0.4126 -0.3712  0.9654
  694TIP3   OH223640   5.380   0.236   2.964  0.3640  0.7085 -0.8707
  694TIP3    H123641   5.294   0.270   2.990 -0.5734 -1.0185 -1.5474
  694TIP3    H223642   5.424   0.311   2.924  0.2542  2.3514  1.8229
  695TIP3   OH223643   3.905   1.499   0.552  0.8192 -0.0965 -0.4050
  695TIP3    H123644   3.880   1.446   0.477 -0.6119  0.4749 -0.3612
  695TIP3    H223645   3.845   1.472   0.621  0.6786  0.9338 -0.1143
  696TIP3   OH223646   2.707   3.828   2.001 -0.2668 -0.6967  0.0936
  696TIP3    H123647   2.697   3.787   2.086  1.4148 -1.6074 -0.1029
  696TIP3    H223648   2.798   3.858   1.999 -0.5950  0.3371 -0.9489
  697TIP3   OH223649   2.212   6.198   6.352  0.6569  0.3823  0.1174
  697TIP3    H123650   2.296   6.243   6.350  1.0052 -0.1348  1.6510
  697TIP3    H223651   2.232   6.110   6.382 -0.2954 -0.1257 -0.6825
  698TIP3   OH223652   5.357   2.394   8.467 -0.1822  0.8889  0.1049
  698TIP3    H123653   5.437   2.376   8.516  0.8628  2.5834 -0.8756
  698TIP3    H223654   5.358   2.333   8.394  0.9167  1.7513 -0.6241
  699TIP3   OH223655   2.092   5.328   0.633  0.5747 -0.0353  0.3054
  699TIP3    H123656   2.053   5.343   0.719  2.3828  1.4199  0.9511
  699TIP3    H223657   2.166   5.269   0.651  2.0117  1.6224  0.1036
  700TIP3   OH223658   0.462   4.560   7.390  1.0026 -0.0814  0.2640
  700TIP3    H123659   0.421   4.482   7.354  1.3586 -0.3687  0.4823
  700TIP3    H223660   0.454   4.551   7.485  1.6355 -0.1726  0.3083
  701TIP3   OH223661   5.986   1.270   1.805 -0.1411 -0.2797  0.4739
  701TIP3    H123662   5.989   1.355   1.851  0.9306 -0.0068 -0.0660
  701TIP3    H223663   5.906   1.229   1.837  0.8269 -0.3673  3.0775
  702TIP3   OH223664   1.848   0.485   2.836 -0.1577 -0.2910  0.1819
  702TIP3    H123665   1.904   0.422   2.881 -0.6866 -0.6579  0.3363
  702TIP3    H223666   1.909   0.539   2.786  0.3334 -0.6844  0.3406
  703TIP3   OH223667   5.171   0.431   1.745 -0.1345  0.4993  0.0522
  703TIP3    H123668   5.206   0.502   1.799 -1.4751  0.9441  0.3890
  703TIP3    H223669   5.133   0.476   1.669  0.8156 -0.0380 -0.7601
  704TIP3   OH223670   2.162   0.371   1.255  0.1506  0.7529 -0.3779
  704TIP3    H123671   2.255   0.364   1.280 -0.1027  0.7034  0.6192
  704TIP3    H223672   2.125   0.285   1.274 -0.1039  0.7722 -0.7727
  705TIP3   OH223673   1.824   3.169   7.654  0.4687 -0.1458  0.6214
  705TIP3    H123674   1.811   3.146   7.562  0.6461  1.1503  0.2449
  705TIP3    H223675   1.889   3.239   7.652 -1.0847  1.4113  1.5288
  706TIP3   OH223676   0.694   6.022   8.126 -0.2407 -0.4900  0.4153
  706TIP3    H123677   0.622   6.050   8.184  0.1632 -1.7121  1.5554
  706TIP3    H223678   0.773   6.042   8.176  0.2585  0.9235 -0.8643
  707TIP3   OH223679   3.752   3.564   7.850 -0.2621  0.2104 -0.0069
  707TIP3    H123680   3.787   3.629   7.789 -1.2917  1.1234  0.3344
  707TIP3    H223681   3.715   3.616   7.921 -1.7406 -0.7086 -0.0505
  708TIP3   OH223682   3.347   0.929   7.144  0.1056 -0.4057  0.0365
  708TIP3    H123683   3.288   0.886   7.206  0.2968 -0.9147 -0.1292
  708TIP3    H223684   3.349   0.870   7.069  1.6161 -0.9098  0.4469
  709TIP3   OH223685   6.842   4.675   7.422 -0.0706 -0.2304  0.1173
  709TIP3    H123686   6.836   4.620   7.344 -2.3990 -1.6123  1.1603
  709TIP3    H223687   6.910   4.635   7.475  0.1299 -0.4784 -0.3256
  710TIP3   OH223688   1.322   0.147   1.227 -0.7375  0.1645  0.2337
  710TIP3    H123689   1.314   0.128   1.321 -1.3721  1.0200  0.3597
  710TIP3    H223690   1.411   0.182   1.217 -0.8967  0.6720  0.6175
  711TIP3   OH223691   4.645   5.199   1.656  0.2561  0.4962 -0.0504
  711TIP3    H123692   4.550   5.207   1.660  0.1284 -0.9896  0.6172
  711TIP3    H223693   4.676   5.238   1.738  0.2388  1.1064 -0.3314
  712TIP3   OH223694   1.538   1.179   7.816  0.3424  0.8512 -0.0829
  712TIP3    H123695   1.631   1.156   7.815  0.0524 -0.4211 -0.8981
  712TIP3    H223696   1.518   1.201   7.724 -0.7069 -1.3836 -0.4435
  713TIP3   OH223697   1.879   5.328   8.358 -0.0168  0.8468 -0.2164
  713TIP3    H123698   1.827   5.257   8.320  0.2317  0.5884 -0.0748
  713TIP3    H223699   1.815   5.397   8.378 -0.1711  0.9282 -0.9594
  714TIP3   OH223700   5.701   6.258   1.318  0.6568 -0.6476 -0.5323
  714TIP3    H123701   5.761   6.319   1.362  0.8748 -0.7108 -0.7398
  714TIP3    H223702   5.727   6.261   1.226  0.6131 -0.9951 -0.5557
  715TIP3   OH223703   4.744   5.312   8.290 -0.0575  0.1840  0.1395
  715TIP3    H123704   4.683   5.250   8.251 -0.5361  0.0711  1.0472
  715TIP3    H223705   4.780   5.266   8.366  1.7839 -0.0632 -0.8053
  716TIP3   OH223706   2.206   1.296   1.972 -0.1757 -0.2856  0.1366
  716TIP3    H123707   2.224   1.307   1.878  0.3693  0.3701  0.3156
  716TIP3    H223708   2.225   1.381   2.011  1.9497 -1.1720  1.2007
  717TIP3   OH223709   2.337   4.133   7.714 -0.5129 -0.3104 -0.0653
  717TIP3    H123710   2.274   4.204   7.721 -0.4701 -0.4070  1.5472
  717TIP3    H223711   2.284   4.056   7.694 -1.1383 -0.6659  2.6386
  718TIP3   OH223712   5.210   2.058   7.476 -0.3521  0.3388 -0.8708
  718TIP3    H123713   5.151   2.041   7.550  0.6967  1.0823  0.1708
  718TIP3    H223714   5.240   1.971   7.449 -1.6588 -0.0296 -1.2281
  719TIP3   OH223715   3.406   5.200   1.976  0.1381  0.1407 -0.0515
  719TIP3    H123716   3.318   5.220   1.944 -0.0415 -0.2079  0.2179
  719TIP3    H223717   3.426   5.269   2.039 -0.5451 -0.5931  1.0003
  720TIP3   OH223718   1.229   3.955   8.474  0.5482 -0.1827 -0.2833
  720TIP3    H123719   1.169   3.962   8.548  0.5844 -1.4304 -0.1069
  720TIP3    H223720   1.171   3.952   8.397  0.5529  2.2424 -0.4346
  721TIP3   OH223721   3.865   1.261   7.594  0.2164 -0.1687 -0.7536
  721TIP3    H123722   3.919   1.340   7.604 -1.6650  0.9236  2.6308
  721TIP3    H223723   3.927   1.193   7.570  2.3348  1.8512 -1.4507
  722TIP3   OH223724   5.192   3.279   0.034 -0.3342 -0.1139  0.3858
  722TIP3    H123725   5.105   3.314   0.013 -0.3428  0.3905  1.2206
  722TIP3    H223726   5.198   3.283   0.129  0.3515 -0.7761  0.3842
  723TIP3   OH223727   0.258   5.444   8.524  0.2348 -0.4371 -0.3464
  723TIP3    H123728   0.297   5.357   8.514  0.8079 -0.2018 -0.1907
  723TIP3    H223729   0.191   5.448   8.456  1.5654 -0.2513 -1.6967
  724TIP3   OH223730   0.667   4.159   8.399 -0.2536 -0.1193  0.1652
  724TIP3    H123731   0.602   4.172   8.468  0.3978  0.7426  0.6337
  724TIP3    H223732   0.751   4.166   8.444  0.1949  0.9152 -0.7797
  725TIP3   OH223733   1.317   2.617   2.457 -0.3623 -0.8808  0.1772
  725TIP3    H123734   1.395   2.584   2.412 -0.5724 -2.0117  0.5957
  725TIP3    H223735   1.347   2.641   2.544 -0.5316 -1.6294  0.4487
  726TIP3   OH223736   2.832   1.309   0.657  0.1422  0.0574  0.1368
  726TIP3    H123737   2.863   1.356   0.579  1.1390 -0.2419  0.3390
  726TIP3    H223738   2.779   1.237   0.622 -0.0188  0.3525 -0.2363
  727TIP3   OH223739   0.214   5.053   1.136  0.8187  0.0567 -0.3655
  727TIP3    H123740   0.190   5.115   1.068  0.8771  0.4096 -0.0697
  727TIP3    H223741   0.233   5.108   1.213 -1.0143 -0.4118  0.4818
  728TIP3   OH223742   4.744   2.432   1.986  0.6436 -0.3826 -0.4441
  728TIP3    H123743   4.695   2.501   1.942  3.0300 -0.4409 -3.6045
  728TIP3    H223744   4.706   2.350   1.954 -0.8319 -0.5924  1.6691
  729TIP3   OH223745   5.272   2.647   8.552 -0.2047  0.6228 -0.2648
  729TIP3    H123746   5.303   2.586   8.484 -0.4962  1.3332 -1.0531
  729TIP3    H223747   5.306   2.611   8.634  2.2836  1.0673 -1.0264
  730TIP3   OH223748   5.191   3.904   0.607 -0.5722 -0.1883 -0.2066
  730TIP3    H123749   5.229   3.974   0.554 -0.7183  0.5129  0.5971
  730TIP3    H223750   5.114   3.944   0.648 -0.2860 -0.6304  0.7784
  731TIP3   OH223751   4.825   0.338   8.431 -0.0207 -0.3604 -0.5326
  731TIP3    H123752   4.901   0.395   8.420 -0.9028  0.6366 -1.7748
  731TIP3    H223753   4.847   0.282   8.506  2.4889 -1.0418 -1.6792
  732TIP3   OH223754   0.093   1.570   2.131  0.1197  0.0426 -0.1934
  732TIP3    H123755  -0.002   1.584   2.135  0.0013 -0.9830  1.7238
  732TIP3    H223756   0.131   1.658   2.142 -0.5688  0.5333 -1.4859
  733TIP3   OH223757   2.002   1.981   8.002  0.3380 -0.0984 -0.3981
  733TIP3    H123758   1.919   1.980   7.953  0.3906  0.6977 -0.5209
  733TIP3    H223759   2.060   2.036   7.949  1.3429 -1.6278 -0.9391
  734TIP3   OH223760   4.760   0.469   1.462 -0.8928 -0.5634  0.2545
  734TIP3    H123761   4.831   0.410   1.436 -0.0154  0.5183  0.1407
  734TIP3    H223762   4.804   0.544   1.503 -2.0773 -0.8387  2.1626
  735TIP3   OH223763   3.771   1.755   2.814 -0.4631 -0.4304 -0.1026
  735TIP3    H123764   3.680   1.747   2.842 -1.0906  0.1950 -1.7933
  735TIP3    H223765   3.772   1.833   2.759  1.1730 -0.2624  0.1038
  736TIP3   OH223766   2.148   1.124   2.926 -0.7316 -0.2220 -0.2508
  736TIP3    H123767   2.155   1.043   2.975 -2.1304 -0.1455  0.0907
  736TIP3    H223768   2.066   1.116   2.877 -1.2407  1.2546  0.3116
  737TIP3   OH223769   0.634   6.838   7.293 -0.1030  0.0038  0.2626
  737TIP3    H123770   0.595   6.883   7.368 -2.7275 -1.9792  0.2528
  737TIP3    H223771   0.662   6.753   7.328 -0.0971 -0.4106 -0.7262
  738TIP3   OH223772   6.822   5.223   1.757  0.2907  0.3401 -0.0755
  738TIP3    H123773   6.766   5.277   1.703 -2.0010 -0.3232  1.4840
  738TIP3    H223774   6.762   5.178   1.817  2.2100 -2.5650 -0.1100
  739TIP3   OH223775   1.117   1.608   1.736 -0.0898  0.0021 -0.2885
  739TIP3    H123776   1.069   1.572   1.661 -1.3934  0.3457  0.3452
  739TIP3    H223777   1.076   1.566   1.812  0.8168  0.1053  0.2686
  740TIP3   OH223778   6.583   6.273   7.932 -0.5911 -0.2128  0.4777
  740TIP3    H123779   6.640   6.197   7.920 -1.9270 -1.1398 -0.2638
  740TIP3    H223780   6.578   6.313   7.845  1.2586  1.6437  1.1342
  741TIP3   OH223781   4.898   0.880   0.112  0.1166 -0.3597 -0.8114
  741TIP3    H123782   4.970   0.834   0.155 -0.6902 -0.8439  0.0642
  741TIP3    H223783   4.880   0.955   0.169  0.1207 -0.0720 -1.1863
  742TIP3   OH223784   4.516   1.186   0.917 -0.0158 -0.6758  0.2528
  742TIP3    H123785   4.550   1.174   1.005 -0.2938  0.4700  0.5335
  742TIP3    H223786   4.504   1.097   0.883 -2.1799 -1.2541  2.2563
  743TIP3   OH223787   2.439   4.475   1.441 -0.0413  0.1560  0.5615
  743TIP3    H123788   2.514   4.534   1.442  0.0629  0.1175  3.2681
  743TIP3    H223789   2.364   4.533   1.430  0.2417  0.4506  0.1421
  744TIP3   OH223790   4.317   2.130   1.448 -0.4020  0.3271 -0.3523
  744TIP3    H123791   4.348   2.202   1.503 -1.8247  0.0025  0.9271
  744TIP3    H223792   4.263   2.173   1.382  1.4426  0.7345 -1.6794
  745TIP3   OH223793   4.099   4.015   2.321  0.6601  0.0347  0.2024
  745TIP3    H123794   4.183   4.053   2.294  1.4181 -2.1036 -0.7053
  745TIP3    H223795   4.071   4.069   2.395  1.6656  2.2097 -0.8887
  746TIP3   OH223796   5.529   2.810   0.722  0.3340 -0.0701 -0.2651
  746TIP3    H123797   5.476   2.742   0.682  0.5126  0.0585 -0.7227
  746TIP3    H223798   5.613   2.767   0.742  0.3341 -0.0695 -0.2649
  747TIP3   OH223799   2.564   4.300   1.958  0.5221  0.2376 -0.0395
  747TIP3    H123800   2.492   4.243   1.987  0.9031  0.8548  2.2949
  747TIP3    H223801   2.541   4.321   1.867 -0.1770 -2.7162 -0.6758
  748TIP3   OH223802   3.195   2.398   8.289 -0.2221  0.3376  0.3351
  748TIP3    H123803   3.286   2.387   8.319 -0.4767 -0.0484  1.0184
  748TIP3    H223804   3.187   2.491   8.269  0.7698  0.1048 -1.2720
  749TIP3   OH223805   3.428   1.459   1.962 -0.1248 -0.1126 -0.4811
  749TIP3    H123806   3.396   1.471   2.052 -2.5558 -2.3660 -0.8999
  749TIP3    H223807   3.522   1.443   1.972 -0.3073 -0.2200  1.6527
  750TIP3   OH223808   2.860   5.329   0.045 -0.0586 -0.6161 -0.3248
  750TIP3    H123809   2.840   5.247   0.089 -0.4355 -0.6534 -0.5578
  750TIP3    H223810   2.865   5.394   0.115 -1.0016 -0.6085 -0.2502
  751TIP3   OH223811   6.813   6.770   8.341  0.1145 -0.1186 -0.0719
  751TIP3    H123812   6.813   6.694   8.283 -1.5766  0.4691 -0.8973
  751TIP3    H223813   6.768   6.740   8.421  0.1928 -0.2184 -0.0655
  752TIP3   OH223814   4.798   0.585   0.901 -0.1903  0.0079  0.1481
  752TIP3    H123815   4.778   0.615   0.813  0.5201  1.3844  0.4311
  752TIP3    H223816   4.883   0.542   0.893  1.1165  2.3480  0.5465
  753TIP3   OH223817   4.833   6.300   2.093  0.2076  0.6894  0.1258
  753TIP3    H123818   4.877   6.260   2.018  1.3844  1.0840  0.5696
  753TIP3    H223819   4.830   6.393   2.073  1.2031  0.9057  0.8520
  754TIP3   OH223820   6.613   0.087   7.868 -0.2358  0.5319 -0.0731
  754TIP3    H123821   6.580   0.010   7.823  2.9216 -1.9768  1.5447
  754TIP3    H223822   6.706   0.092   7.844  0.5222  1.6242  2.6818
  755TIP3   OH223823   0.254   4.702   1.500 -0.1986  0.1068 -0.1867
  755TIP3    H123824   0.328   4.762   1.489 -0.8626  1.0682  0.4003
  755TIP3    H223825   0.178   4.750   1.466 -0.6550 -0.6343 -0.2466
  756TIP3   OH223826   1.134   1.848   1.913  0.6347 -0.1425  0.6525
  756TIP3    H123827   1.194   1.810   1.849 -1.3086 -1.6344 -0.4294
  756TIP3    H223828   1.130   1.783   1.984 -0.2832 -0.4686  0.3197
  757TIP3   OH223829   1.072   3.324   7.259  0.6079 -0.1674  0.7082
  757TIP3    H123830   1.093   3.256   7.195  4.5266  0.5591  1.0135
  757TIP3    H223831   1.061   3.403   7.207  0.2590 -0.2169  0.7004
  758TIP3   OH223832   5.247   6.219   1.282  0.1686 -0.5551  0.1473
  758TIP3    H123833   5.240   6.128   1.256 -1.1474 -0.7746  1.1431
  758TIP3    H223834   5.293   6.262   1.210  0.8219 -1.9895 -0.3221
  759TIP3   OH223835   3.302   3.872   1.498 -0.4799  0.0464 -0.2993
  759TIP3    H123836   3.215   3.882   1.536  0.0377 -1.3725  1.4104
  759TIP3    H223837   3.340   3.959   1.499 -1.5011  0.5022 -0.1366
  760TIP3   OH223838   3.421   6.566   7.715  0.4315 -0.8158  0.3356
  760TIP3    H123839   3.394   6.488   7.763  0.0006  0.0630  1.6104
  760TIP3    H223840   3.458   6.534   7.633 -2.4223 -2.2214 -0.5243
  761TIP3   OH223841   2.756   1.104   1.646  0.4302  0.2170 -0.5415
  761TIP3    H123842   2.785   1.186   1.686  0.5804 -0.7034  1.3422
  761TIP3    H223843   2.836   1.057   1.625  0.3758 -0.5053  0.7457
  762TIP3   OH223844   6.196   0.082   0.910  0.1328 -0.1084 -0.1042
  762TIP3    H123845   6.262   0.062   0.844 -1.0830 -3.7171 -0.4445
  762TIP3    H223846   6.239   0.067   0.994 -0.0230 -1.8997 -0.3133
  763TIP3   OH223847   4.015   1.368   0.837  0.2070  0.6506 -0.1272
  763TIP3    H123848   4.046   1.298   0.894 -0.1342  0.3090 -0.3488
  763TIP3    H223849   3.972   1.430   0.895 -0.1036  0.3240 -0.0063
  764TIP3   OH223850   4.524   6.867   1.204 -0.3299  0.1811  0.2910
  764TIP3    H123851   4.548   6.775   1.216 -1.5515 -0.7304 -3.2865
  764TIP3    H223852   4.429   6.870   1.219 -0.7076  0.3055 -1.8167
  765TIP3   OH223853   1.738   5.544   1.589  0.2223 -0.0012  0.2044
  765TIP3    H123854   1.771   5.533   1.500 -1.5727 -1.0641 -0.3819
  765TIP3    H223855   1.791   5.485   1.642  2.5238  1.9251  0.2524
  766TIP3   OH223856   4.686   4.602   1.557  0.4725  0.5732 -0.0426
  766TIP3    H123857   4.665   4.613   1.650  2.3166 -0.7766  0.5959
  766TIP3    H223858   4.773   4.641   1.547  0.9154 -0.5694 -0.8692
  767TIP3   OH223859   6.618   6.126   7.504  1.2864 -0.2966 -0.1268
  767TIP3    H123860   6.566   6.078   7.568  2.3483 -0.2972  0.7648
  767TIP3    H223861   6.581   6.102   7.419  0.1714 -0.6776  0.4557
  768TIP3   OH223862   5.866   5.823   8.037  0.2660  0.5945  0.5179
  768TIP3    H123863   5.913   5.901   8.065 -0.5801  0.8317  1.3286
  768TIP3    H223864   5.856   5.771   8.116  0.4580 -0.1586  0.0666
  769TIP3   OH223865   3.570   3.644   0.338 -0.2220  0.1447  0.1418
  769TIP3    H123866   3.650   3.682   0.302 -0.0691 -0.0782  0.2442
  769TIP3    H223867   3.548   3.573   0.278  0.5104 -0.7843  0.9441
  770TIP3   OH223868   1.440   4.033   8.130 -0.1554 -0.2788  0.3268
  770TIP3    H123869   1.362   4.016   8.079  1.1659  0.2968 -2.0252
  770TIP3    H223870   1.505   3.970   8.098  1.2824  1.3348 -0.1017
  771TIP3   OH223871   0.496   3.162   6.643 -0.3163  0.5654 -0.0040
  771TIP3    H123872   0.455   3.102   6.706  0.9644  0.6285  0.9425
  771TIP3    H223873   0.569   3.201   6.692  1.4543 -0.2188 -1.8318
  772TIP3   OH223874   0.336   1.965   2.446 -0.4221 -0.7888  0.0491
  772TIP3    H123875   0.295   2.051   2.438  2.3577  0.5551 -1.3658
  772TIP3    H223876   0.327   1.943   2.539 -1.2315  1.0268  0.4504
  773TIP3   OH223877   2.072   4.927   8.267  0.1243  0.7296 -0.2609
  773TIP3    H123878   2.109   4.896   8.349 -2.3204  0.5584  0.8628
  773TIP3    H223879   2.148   4.944   8.211  1.8977  1.3637  2.1813
  774TIP3   OH223880   2.056   2.511   8.145  0.5236 -0.2732 -0.3908
  774TIP3    H123881   2.124   2.489   8.209  0.1428 -1.4471 -0.3699
  774TIP3    H223882   2.104   2.523   8.063  0.7229 -1.5062 -0.4643
  775TIP3   OH223883   5.451   2.621   7.770 -0.1546  0.7588 -0.3831
  775TIP3    H123884   5.517   2.619   7.701 -0.1450  0.7909 -0.3749
  775TIP3    H223885   5.435   2.714   7.786  1.0147  0.7987  0.7685
  776TIP3   OH223886   0.412   2.629   7.793  0.2050 -0.2054 -0.2213
  776TIP3    H123887   0.478   2.699   7.798  1.3344 -1.2517  0.0441
  776TIP3    H223888   0.421   2.594   7.705 -0.2594 -0.1234 -0.3049
  777TIP3   OH223889   4.294   1.169   7.650 -0.2940  0.2900 -0.0143
  777TIP3    H123890   4.218   1.149   7.704 -0.9448  1.8438 -0.3096
  777TIP3    H223891   4.322   1.084   7.616 -0.7289 -0.5444  1.5860
  778TIP3   OH223892   5.637   0.892   0.222 -0.1957  0.4175  0.0520
  778TIP3    H123893   5.594   0.834   0.285 -0.3191  1.5312  1.0202
  778TIP3    H223894   5.702   0.836   0.179 -0.5547 -0.5281  0.6918
  779TIP3   OH223895   4.152   4.478   2.594 -0.1561  0.1175 -0.0765
  779TIP3    H123896   4.167   4.564   2.553 -0.2905  0.0568 -0.2496
  779TIP3    H223897   4.240   4.442   2.606 -0.1437 -0.1287 -0.8697
  780TIP3   OH223898   5.660   1.033   7.777 -0.1467  0.4751  0.3125
  780TIP3    H123899   5.734   1.046   7.719 -0.5522 -2.2094 -0.9253
  780TIP3    H223900   5.606   0.966   7.735 -0.9186 -0.9976  3.3243
  781TIP3   OH223901   3.009   4.797   7.459  0.6050  0.0540  0.0076
  781TIP3    H123902   3.034   4.719   7.409  0.4538  0.1150 -0.1652
  781TIP3    H223903   3.025   4.870   7.399 -0.6634  0.0437 -0.3833
  782TIP3   OH223904   0.446   3.820   1.073  0.0570  0.1002  0.1522
  782TIP3    H123905   0.458   3.740   1.023  0.5373 -1.2372  2.2660
  782TIP3    H223906   0.351   3.836   1.071 -0.2402 -1.3960  0.9370
  783TIP3   OH223907   3.618   5.824   2.891 -0.1034  0.2212  0.8581
  783TIP3    H123908   3.706   5.792   2.868 -0.7907  0.0017 -1.8562
  783TIP3    H223909   3.578   5.752   2.939  0.0613 -1.0916 -0.8874
  784TIP3   OH223910   1.129   5.242   7.914 -0.1115 -0.4738 -0.3028
  784TIP3    H123911   1.145   5.298   7.990 -2.1835  0.3902 -0.4117
  784TIP3    H223912   1.205   5.255   7.858  0.8617 -0.1370  1.0521
  785TIP3   OH223913   6.191   2.289   8.347  0.0527  0.2966  0.4494
  785TIP3    H123914   6.113   2.333   8.314  0.6432  0.8843 -0.1980
  785TIP3    H223915   6.226   2.241   8.271 -1.5677 -2.8582  1.5340
  786TIP3   OH223916   3.827   1.668   7.920 -0.0814 -0.3975  0.0324
  786TIP3    H123917   3.738   1.699   7.941 -0.2283 -0.7052 -0.1345
  786TIP3    H223918   3.816   1.574   7.904  0.6313 -0.8909  2.1784
  787TIP3   OH223919   3.252   2.835   1.620 -0.3512 -0.3852 -0.0429
  787TIP3    H123920   3.213   2.778   1.554  1.1186  1.7889 -3.0073
  787TIP3    H223921   3.344   2.839   1.596 -0.4089  3.3546 -0.2153
  788TIP3   OH223922   3.005   2.961   2.601 -0.0463  0.5306  0.2768
  788TIP3    H123923   2.966   2.906   2.668 -0.0717 -0.6000 -0.6383
  788TIP3    H223924   3.099   2.961   2.620  0.2007 -1.3262 -0.7286
  789TIP3   OH223925   6.305   3.041   2.382  0.4961 -0.4204  0.2458
  789TIP3    H123926   6.349   3.111   2.429  0.6655 -0.3664  0.0126
  789TIP3    H223927   6.256   3.086   2.312  0.7065 -0.5417  0.0171
  790TIP3   OH223928   3.779   6.691   1.570  0.0817 -0.2808  0.1004
  790TIP3    H123929   3.698   6.656   1.606 -0.0882 -0.9192 -0.8796
  790TIP3    H223930   3.785   6.654   1.482  0.9192  0.5653 -0.2196
  791TIP3   OH223931   3.451   2.070   7.899  0.5602  0.3177  0.1396
  791TIP3    H123932   3.411   2.157   7.888  0.4933  0.1046 -1.6422
  791TIP3    H223933   3.545   2.087   7.898  0.5588  0.3333 -0.8198
  792TIP3   OH223934   6.016   2.546   7.591 -0.4118 -0.1142  0.0084
  792TIP3    H123935   5.994   2.639   7.586  1.9045  0.4663 -1.1003
  792TIP3    H223936   6.065   2.529   7.511 -1.3051 -2.4844 -0.1157
  793TIP3   OH223937   3.331   5.967   8.354  0.5276  0.2274  0.1036
  793TIP3    H123938   3.295   5.992   8.269 -0.2234 -1.6094 -0.1689
  793TIP3    H223939   3.276   6.012   8.418 -0.0823  0.1633 -0.3652
  794TIP3   OH223940   1.522   6.666   2.090  0.1280  0.2199  0.4312
  794TIP3    H123941   1.605   6.674   2.136  0.2824 -1.6153  0.5158
  794TIP3    H223942   1.546   6.668   1.997  0.1455  0.7195  0.4427
  795TIP3   OH223943   6.851   0.157   8.431  0.4913 -0.0843  0.5200
  795TIP3    H123944   6.934   0.168   8.478  0.7972  0.3024 -0.0881
  795TIP3    H223945   6.833   0.064   8.436 -0.2183  0.1294  2.6063
  796TIP3   OH223946   5.983   6.436   1.885 -0.5390 -0.4208  0.4114
  796TIP3    H123947   6.029   6.364   1.842 -1.7139 -1.4154  0.7665
  796TIP3    H223948   6.031   6.450   1.966  0.7814  0.4500 -0.4755
  797TIP3   OH223949   4.565   5.914   7.243 -0.4794  0.4133 -0.2648
  797TIP3    H123950   4.496   5.950   7.188 -0.7552  1.0665  0.4935
  797TIP3    H223951   4.646   5.951   7.209 -0.4733 -0.4034 -1.1973
  798TIP3   OH223952   0.627   1.885   8.203  0.0845  0.1383 -0.1959
  798TIP3    H123953   0.687   1.811   8.208  2.6594  2.0389 -0.9978
  798TIP3    H223954   0.605   1.892   8.110  1.4769  1.5341 -0.4522
  799TIP3   OH223955   4.296   4.093   8.463 -0.2435  0.5511 -0.1673
  799TIP3    H123956   4.391   4.095   8.466 -0.2120 -0.7631  0.1328
  799TIP3    H223957   4.268   4.130   8.548  0.0745 -1.6879  0.9850
  800TIP3   OH223958   1.162   1.294   7.574 -0.5536  0.3266 -0.4439
  800TIP3    H123959   1.217   1.371   7.563  0.7868 -0.1443  2.2363
  800TIP3    H223960   1.074   1.328   7.590 -0.3922  1.1881 -1.2895
  801TIP3   OH223961   0.188   4.547   0.341  0.4391 -0.0727  0.4182
  801TIP3    H123962   0.131   4.579   0.411  0.6228 -0.4457  0.7442
  801TIP3    H223963   0.142   4.472   0.305  0.0740  0.4608 -0.2539
  802TIP3   OH223964   4.208   0.458   1.091 -0.0973 -0.3594  0.4812
  802TIP3    H123965   4.245   0.386   1.040  0.7148  0.6489 -0.3897
  802TIP3    H223966   4.281   0.517   1.107 -0.8597  0.5587  0.6880
  803TIP3   OH223967   5.764   3.533   2.005 -0.2456  0.0159  0.3135
  803TIP3    H123968   5.689   3.513   1.949 -0.8920  0.5365  0.9669
  803TIP3    H223969   5.744   3.619   2.042  0.8528  0.3218  0.2209
  804TIP3   OH223970   4.023   4.657   0.680  0.1919 -0.1034  0.2296
  804TIP3    H123971   3.987   4.591   0.740  0.0285  0.3012  0.5780
  804TIP3    H223972   3.947   4.696   0.638  0.2520  0.2934  0.4819
  805TIP3   OH223973   3.078   4.608   0.012 -0.0870 -0.5270  1.0062
  805TIP3    H123974   3.088   4.681   0.072  1.1594  2.0562 -2.1006
  805TIP3    H223975   2.997   4.627  -0.036  0.5257 -0.8775 -0.2096
  806TIP3   OH223976   3.805   4.785   0.522  0.5204  0.5496  0.3126
  806TIP3    H123977   3.776   4.778   0.431  0.1903 -0.7148  0.5056
  806TIP3    H223978   3.877   4.848   0.520  0.6219  0.4053 -0.8456
  807TIP3   OH223979   4.788   5.947   1.332  0.7146 -0.0378  0.5745
  807TIP3    H123980   4.865   5.949   1.389  0.7634 -1.9590  0.6205
  807TIP3    H223981   4.722   5.900   1.382  0.5475 -1.1952 -0.6715
  808TIP3   OH223982   2.122   4.387   8.525  0.1106 -0.5717  0.6098
  808TIP3    H123983   2.030   4.362   8.534  0.3158 -1.8202 -0.4125
  808TIP3    H223984   2.150   4.346   8.444  1.4208  0.2985  0.5923
  809TIP3   OH223985   4.005   6.161   0.503  0.5073  0.0835  0.4211
  809TIP3    H123986   3.997   6.134   0.411  3.8774  1.1925 -0.3627
  809TIP3    H223987   3.978   6.084   0.553 -0.1454 -1.0257 -1.5008
  810TIP3   OH223988   1.701   1.935   1.104  0.6260 -0.8547 -0.5045
  810TIP3    H123989   1.725   1.994   1.033 -0.2174  2.4584  1.7510
  810TIP3    H223990   1.607   1.946   1.115  0.7383 -1.2112  1.1351
  811TIP3   OH223991   0.553   3.197   8.450 -0.2469 -0.3010 -0.0679
  811TIP3    H123992   0.547   3.292   8.445  2.6277  0.0019  0.4524
  811TIP3    H223993   0.463   3.167   8.439 -1.3152  2.4684  0.1929
  812TIP3   OH223994   1.745   3.037   0.528  0.6497  0.0410  0.0116
  812TIP3    H123995   1.796   3.096   0.585  0.4920 -0.8881  1.1500
  812TIP3    H223996   1.732   2.958   0.581 -0.7585 -0.2929 -0.7921
  813TIP3   OH223997   5.438   0.618   0.124 -0.0708  0.0321 -0.1834
  813TIP3    H123998   5.528   0.587   0.121  0.3529  1.1240  0.6751
  813TIP3    H223999   5.389   0.545   0.162  0.5143 -0.4341 -0.3128
  814TIP3   OH224000   0.622   0.274   7.267 -0.6039  0.4246 -0.0511
  814TIP3    H124001   0.568   0.213   7.318  0.7454 -1.3690 -0.6980
  814TIP3    H224002   0.707   0.273   7.311  0.2777 -0.3838 -1.7170
  815TIP3   OH224003   1.430   2.352   1.198 -0.1206 -0.1390  0.4898
  815TIP3    H124004   1.381   2.433   1.209  0.6872  0.3420  0.6245
  815TIP3    H224005   1.521   2.380   1.185 -0.2138 -0.8574 -2.5225
  816TIP3   OH224006   0.654   4.822   8.298  0.4732 -0.5865  0.1197
  816TIP3    H124007   0.675   4.783   8.213  1.1240 -1.5547  0.7124
  816TIP3    H224008   0.673   4.915   8.286  0.2408 -0.6495 -0.8920
  817TIP3   OH224009   2.796   0.218   1.396  0.5351 -0.0380  0.1789
  817TIP3    H124010   2.791   0.130   1.432  1.4965  0.4015  1.4148
  817TIP3    H224011   2.788   0.205   1.301  0.5178 -1.4269  0.3526
  818TIP3   OH224012   6.198   3.812   1.024  0.3727 -0.7439 -0.4354
  818TIP3    H124013   6.153   3.887   0.984  0.4482  0.1376  1.0611
  818TIP3    H224014   6.137   3.781   1.091  0.9061 -1.1901 -0.1506
  819TIP3   OH224015   5.126   1.960   2.300 -0.7875 -0.8010 -0.1290
  819TIP3    H124016   5.070   2.025   2.257 -0.4762  1.5932  2.7360
  819TIP3    H224017   5.065   1.899   2.341 -1.4520  1.2734  2.2191
  820TIP3   OH224018   4.367   3.045   7.293  0.1568 -0.6245 -0.1086
  820TIP3    H124019   4.363   3.024   7.387  1.4177  0.5538  0.2264
  820TIP3    H224020   4.448   3.094   7.282 -0.2928 -0.1748 -1.7176
  821TIP3   OH224021   5.048   6.864   7.507  0.2780 -0.2620  0.2947
  821TIP3    H124022   5.082   6.841   7.420 -0.1375 -0.6880  0.2342
  821TIP3    H224023   5.103   6.935   7.537 -0.3247  0.7194 -0.8396
  822TIP3   OH224024   4.662   6.057   0.707  0.6699 -0.2222 -0.7262
  822TIP3    H124025   4.702   5.970   0.700  0.0142 -0.7752  1.6994
  822TIP3    H224026   4.584   6.044   0.760 -0.1946  1.6385 -1.4626
  823TIP3   OH224027   3.223   4.185   7.529 -0.2528 -0.0424 -0.2944
  823TIP3    H124028   3.199   4.194   7.437  1.3461  1.2752 -0.6169
  823TIP3    H224029   3.245   4.273   7.557 -1.5585 -0.2662  1.6343
  824TIP3   OH224030   2.973   5.003   1.365  0.0201  0.3289  0.2762
  824TIP3    H124031   2.957   4.973   1.454 -0.7508 -1.4811 -0.4423
  824TIP3    H224032   3.028   4.935   1.326  0.6933  1.2997 -0.5185
  825TIP3   OH224033   6.747   5.634   0.385 -0.1885  0.1697 -0.0951
  825TIP3    H124034   6.762   5.643   0.479  0.2235  0.2778 -0.1657
  825TIP3    H224035   6.799   5.704   0.346  0.1435 -0.2603 -0.4380
  826TIP3   OH224036   2.098   6.169   7.034 -0.3397  0.6155 -0.1575
  826TIP3    H124037   2.126   6.240   6.977 -0.9622 -0.9756 -2.6141
  826TIP3    H224038   2.154   6.095   7.009  0.3140  0.1891  2.3299
  827TIP3   OH224039   0.483   4.132   8.590 -0.2276  0.4988 -0.2511
  827TIP3    H124040   0.556   4.170   8.638 -0.8382  0.6950  0.5451
  827TIP3    H224041   0.474   4.043   8.625 -0.6230  0.6160 -0.0437
  828TIP3   OH224042   5.394   6.373   2.599  0.0055  0.2288 -0.1328
  828TIP3    H124043   5.307   6.347   2.628 -0.6732  0.1597 -2.0955
  828TIP3    H224044   5.439   6.291   2.580 -0.1656  0.3064 -0.9047
  829TIP3   OH224045   6.142   1.298   7.235  0.3480  0.3620 -0.3454
  829TIP3    H124046   6.049   1.303   7.216 -0.1552  2.9478  2.0357
  829TIP3    H224047   6.185   1.320   7.153 -1.1435 -0.2741 -1.3307
  830TIP3   OH224048   0.034   2.024   2.191 -0.0396  0.2082  0.4812
  830TIP3    H124049   0.049   2.085   2.119 -0.5936 -1.0448 -0.7423
  830TIP3    H224050  -0.057   2.039   2.216 -0.7431 -1.2538 -1.0031
  831TIP3   OH224051   4.801   4.462   0.193 -0.4716  0.1210  0.0352
  831TIP3    H124052   4.755   4.379   0.205  0.5965 -0.7289 -1.4414
  831TIP3    H224053   4.827   4.488   0.281 -2.6247 -0.0097  0.7669
  832TIP3   OH224054   6.227   5.879   1.914 -0.4563 -0.2055  0.2471
  832TIP3    H124055   6.191   5.792   1.926  1.1085 -1.2120 -1.7416
  832TIP3    H224056   6.164   5.924   1.857 -0.6653 -0.4705  0.2668
  833TIP3   OH224057   5.160   0.996   1.401 -0.0642  0.5469  0.1350
  833TIP3    H124058   5.241   1.001   1.451  1.8925  0.4089 -2.7771
  833TIP3    H224059   5.160   0.908   1.363  0.7092  1.8215 -3.2073
  834TIP3   OH224060   6.487   6.338   0.028  0.1195  0.7405 -0.0280
  834TIP3    H124061   6.413   6.361  -0.028  0.9279  1.0973 -0.9762
  834TIP3    H224062   6.564   6.343  -0.029  0.7829 -0.5740  0.6855
  835TIP3   OH224063   5.463   3.927   7.932  0.9797  0.3059 -0.3805
  835TIP3    H124064   5.522   3.903   8.003  1.4865  1.5091 -0.3663
  835TIP3    H224065   5.436   4.016   7.952 -2.1675 -0.6958  0.4776
  836TIP3   OH224066   5.240   1.856   1.504 -0.5827  0.0312  0.3353
  836TIP3    H124067   5.276   1.767   1.508 -0.2715  0.1216 -0.3385
  836TIP3    H224068   5.291   1.899   1.436 -1.2035  0.5123  0.1675
  837TIP3   OH224069   6.636   0.419   0.925 -0.0946  0.0126  0.3445
  837TIP3    H124070   6.563   0.465   0.966 -0.3790 -0.8797  0.8809
  837TIP3    H224071   6.709   0.431   0.986  0.1892  0.8299 -0.1482
  838TIP3   OH224072   4.192   5.092   0.258 -0.3007 -0.1907 -0.1152
  838TIP3    H124073   4.250   5.065   0.187  0.8409 -0.4254  0.8719
  838TIP3    H224074   4.232   5.056   0.337 -0.8264  1.1386  0.8029
  839TIP3   OH224075   5.534   6.306   2.273 -0.0620 -0.4299 -0.0109
  839TIP3    H124076   5.551   6.243   2.343  1.3455 -1.2617 -1.0622
  839TIP3    H224077   5.596   6.377   2.289  0.6512 -0.8802 -0.6975
  840TIP3   OH224078   0.445   6.650   7.801 -0.1455 -0.4023 -0.2569
  840TIP3    H124079   0.475   6.733   7.838 -0.4128 -1.2402  1.9816
  840TIP3    H224080   0.479   6.650   7.712  2.9173  0.5805  0.7853
  841TIP3   OH224081   3.450   3.503   1.148 -0.1314  0.2740  0.4101
  841TIP3    H124082   3.395   3.525   1.073  0.4580  1.6219  0.3410
  841TIP3    H224083   3.411   3.423   1.184 -2.7427  1.6650  0.9519
  842TIP3   OH224084   3.995   5.380   6.831  0.6083 -0.0045  0.1891
  842TIP3    H124085   3.932   5.448   6.853 -0.7779 -0.3956 -2.2317
  842TIP3    H224086   3.947   5.298   6.844  1.0935 -0.3665 -0.2655
  843TIP3   OH224087   4.028   1.828   7.842 -0.1995 -0.3298 -0.1241
  843TIP3    H124088   3.949   1.777   7.859 -2.0250  2.7111  1.3507
  843TIP3    H224089   4.012   1.870   7.758  0.4613 -0.6868 -0.4390
  844TIP3   OH224090   4.487   1.775   1.984 -0.1892  0.1275 -0.6579
  844TIP3    H124091   4.569   1.823   1.999  0.8925 -2.3047  2.3997
  844TIP3    H224092   4.498   1.736   1.897  1.6510  0.3718 -0.5794
  845TIP3   OH224093   6.430   2.237   2.423 -0.1365 -0.5271 -1.1268
  845TIP3    H124094   6.407   2.144   2.424  1.4767 -0.9503 -0.8298
  845TIP3    H224095   6.486   2.249   2.499  0.8370  0.3699 -1.9548
  846TIP3   OH224096   1.741   5.748   1.087  0.4000  0.1704 -0.2656
  846TIP3    H124097   1.771   5.839   1.085 -0.3038  0.4167  0.3486
  846TIP3    H224098   1.697   5.736   1.003 -0.8435  0.8579  0.2733
  847TIP3   OH224099   0.237   4.458   1.135  0.4114 -0.2932  0.7395
  847TIP3    H124100   0.194   4.477   1.052  1.5330 -1.3664 -0.1313
  847TIP3    H224101   0.192   4.513   1.199  0.0391  1.1469 -0.6985
  848TIP3   OH224102   5.283   0.219   8.031  0.0130  0.5182  0.0444
  848TIP3    H124103   5.198   0.260   8.013  0.5884  0.9509 -1.8278
  848TIP3    H224104   5.286   0.144   7.972  0.4622 -0.1774  0.9353
  849TIP3   OH224105   1.254   5.449   8.661  0.3061 -0.2937 -0.5504
  849TIP3    H124106   1.312   5.385   8.703  1.2028  2.7037  3.3237
  849TIP3    H224107   1.166   5.415   8.677  0.7853 -1.2734  0.1362
  850TIP3   OH224108   4.103   1.465   2.304 -0.3793  0.2505 -0.1428
  850TIP3    H124109   4.087   1.449   2.397 -0.9295 -0.7991 -0.3941
  850TIP3    H224110   4.081   1.557   2.291 -0.3829  0.3870  0.7412
  851TIP3   OH224111   2.377   6.498   0.039 -0.1490  0.4768 -0.0882
  851TIP3    H124112   2.302   6.518   0.096 -0.0330  1.8469 -0.3788
  851TIP3    H224113   2.448   6.552   0.073  0.6700 -0.6528  0.0499
  852TIP3   OH224114   1.199   5.321   7.508 -0.5418 -0.1375 -0.4428
  852TIP3    H124115   1.174   5.229   7.516 -1.0023  0.1327  1.8945
  852TIP3    H224116   1.269   5.322   7.443 -0.2126 -2.1827 -0.1633
  853TIP3   OH224117   2.153   0.526   0.814 -0.3214  0.0593 -0.4132
  853TIP3    H124118   2.155   0.621   0.823  1.9113  0.1184 -0.8849
  853TIP3    H224119   2.138   0.494   0.903 -1.0096  0.8485 -0.2357
  854TIP3   OH224120   5.488   0.500   1.380  0.1409 -0.2303 -0.6461
  854TIP3    H124121   5.560   0.464   1.329  1.9119  0.1449  1.4516
  854TIP3    H224122   5.455   0.426   1.432  0.3155  0.0115 -0.1813
  855TIP3   OH224123   3.283   3.065   7.893 -0.5380  0.0631  0.4776
  855TIP3    H124124   3.330   3.146   7.872 -1.4938  0.7336  0.8626
  855TIP3    H224125   3.307   3.005   7.823 -1.2307  1.2592 -0.8310
  856TIP3   OH224126   6.352   5.069   1.300 -0.0077 -0.1311  0.2683
  856TIP3    H124127   6.411   5.004   1.340  0.3763  0.3221  0.4463
  856TIP3    H224128   6.294   5.096   1.372  0.8628  0.8892  0.6106
  857TIP3   OH224129   3.271   0.774   1.932  0.5051  0.4031 -0.2159
  857TIP3    H124130   3.295   0.815   2.015 -1.0649  1.7227 -0.3566
  857TIP3    H224131   3.234   0.845   1.880  0.6101 -0.5864 -1.7105
  858TIP3   OH224132   4.167   3.293   8.426  0.2151 -0.2203  0.0269
  858TIP3    H124133   4.106   3.366   8.422 -0.1240 -0.5000  0.0860
  858TIP3    H224134   4.133   3.228   8.364 -0.8774 -1.3733  1.7491
  859TIP3   OH224135   2.781   3.085   8.098  0.3211  0.3585  0.4604
  859TIP3    H124136   2.812   3.098   8.188  0.0519  1.9885  0.3566
  859TIP3    H224137   2.856   3.106   8.043  0.6652 -1.2277  0.2943
  860TIP3   OH224138   1.706   3.308   0.009 -0.1956 -0.1102 -0.5705
  860TIP3    H124139   1.652   3.385   0.028  1.5550  0.6212  1.9753
  860TIP3    H224140   1.720   3.267   0.094  1.6572 -1.3333 -1.4034
  861TIP3   OH224141   2.087   2.026   1.562  1.0486  0.1947 -0.0753
  861TIP3    H124142   2.045   2.051   1.480 -1.5305 -0.4447  0.9590
  861TIP3    H224143   2.086   1.930   1.561 -0.2365  0.1533  1.2179
  862TIP3   OH224144   5.376   1.147   1.883 -0.0213  0.0119 -0.3266
  862TIP3    H124145   5.423   1.067   1.859  0.5440 -0.1535  1.2469
  862TIP3    H224146   5.426   1.183   1.956 -0.2367  1.8449 -1.0321
  863TIP3   OH224147   0.368   0.597   1.688  0.1006 -0.0544 -0.1495
  863TIP3    H124148   0.341   0.546   1.765 -0.3090 -1.8296 -1.4084
  863TIP3    H224149   0.293   0.595   1.630  0.2233  1.7229 -0.4133
  864TIP3   OH224150   2.051   6.338   1.924  0.4167 -0.1318 -0.2164
  864TIP3    H124151   2.046   6.380   2.010 -3.0462  0.7549 -0.6719
  864TIP3    H224152   2.026   6.407   1.862  2.1122 -0.9398 -1.9064
  865TIP3   OH224153   6.600   0.242   7.025 -0.1437  0.2925 -0.3778
  865TIP3    H124154   6.656   0.318   7.010  0.7271  0.0282  1.2718
  865TIP3    H224155   6.529   0.275   7.080  1.1968 -0.3776  1.8857
  866TIP3   OH224156   3.383   3.277   1.267 -0.4399  0.0701 -0.5641
  866TIP3    H124157   3.351   3.266   1.356  0.3428  0.2979 -0.2525
  866TIP3    H224158   3.430   3.196   1.248 -1.8702 -0.6407 -1.3360
  867TIP3   OH224159   4.163   6.649   2.131  0.4267 -0.4048 -0.2315
  867TIP3    H124160   4.120   6.601   2.203  1.6191  0.2357  0.9588
  867TIP3    H224161   4.233   6.591   2.103  0.8637 -0.0487  0.1143
  868TIP3   OH224162   3.811   2.474   7.647 -0.8798 -0.3038 -0.0690
  868TIP3    H124163   3.902   2.504   7.647 -0.3574 -1.7899 -1.2293
  868TIP3    H224164   3.760   2.553   7.667  0.6261  0.6334  0.2399
  869TIP3   OH224165   3.206   0.822   0.013  0.2603 -0.1312 -0.4190
  869TIP3    H124166   3.175   0.853   0.099  1.8609 -1.0248  0.5329
  869TIP3    H224167   3.140   0.854  -0.049 -1.0654  0.3522  1.1586
  870TIP3   OH224168   3.580   3.947   7.686 -0.1953 -0.0730 -0.8214
  870TIP3    H124169   3.666   3.918   7.716  0.1504 -0.2143 -1.9317
  870TIP3    H224170   3.576   4.039   7.713  1.7663  1.0269 -3.7006
  871TIP3   OH224171   2.743   0.223   7.969  0.3257 -0.2741 -0.3049
  871TIP3    H124172   2.676   0.282   7.932  0.7168 -0.9923 -2.2551
  871TIP3    H224173   2.720   0.136   7.936 -0.1607 -1.2709  2.4232
  872TIP3   OH224174   1.640   2.972   7.682  0.4072  0.1494 -0.6931
  872TIP3    H124175   1.688   3.036   7.629  0.8303 -0.2249 -0.7650
  872TIP3    H224176   1.618   2.902   7.621  0.4406 -0.0392 -0.4883
  873TIP3   OH224177   4.994   6.702   0.906  0.2394 -0.1937 -0.0274
  873TIP3    H124178   4.960   6.699   0.817 -1.2383 -0.2261  0.5035
  873TIP3    H224179   5.077   6.655   0.902  1.4106  1.8357 -1.8612
  874TIP3   OH224180   6.758   5.914   2.776  0.3370  0.3693  0.1873
  874TIP3    H124181   6.813   5.836   2.778 -0.2434 -0.0542  0.1151
  874TIP3    H224182   6.690   5.893   2.712  0.7559  1.3435 -0.5934
  875TIP3   OH224183   3.400   0.687   8.105  0.1649 -0.8145  0.1190
  875TIP3    H124184   3.430   0.669   8.016 -2.8539 -1.7404 -0.8594
  875TIP3    H224185   3.380   0.781   8.105 -3.1060 -1.3448 -1.4893
  876TIP3   OH224186   2.640   0.505   2.028  0.3408 -0.0274  0.9990
  876TIP3    H124187   2.687   0.475   2.106 -0.2452 -0.7295  1.0816
  876TIP3    H224188   2.603   0.590   2.053 -1.1386 -0.9467  2.0046
  877TIP3   OH224189   2.691   0.035   0.877 -0.0122 -0.3062  0.0337
  877TIP3    H124190   2.754  -0.016   0.826  0.5947  0.1695  0.2988
  877TIP3    H224191   2.606  -0.007   0.860  0.4413 -1.2525  0.0592
  878TIP3   OH224192   6.527   4.036   1.923 -0.3336 -0.5016  0.0912
  878TIP3    H124193   6.477   4.025   2.003 -0.1370 -0.4721  0.2186
  878TIP3    H224194   6.579   3.956   1.915 -0.3808 -0.5213 -0.0272
  879TIP3   OH224195   2.042   5.429   0.230  0.1994  0.7743  0.1436
  879TIP3    H124196   2.050   5.493   0.300 -0.9641 -0.0710  1.0832
  879TIP3    H224197   2.125   5.381   0.232 -1.1941 -1.9457  3.7498
  880TIP3   OH224198   2.338   3.717   2.374  0.0142  0.5234 -0.0069
  880TIP3    H124199   2.323   3.655   2.302  0.6257 -0.5693  0.7719
  880TIP3    H224200   2.391   3.667   2.437  1.3482  2.1555  0.2243
  881TIP3   OH224201   4.394   0.757   8.636  0.5472  0.1329  0.3927
  881TIP3    H124202   4.426   0.669   8.652 -0.6332 -0.3204  0.3155
  881TIP3    H224203   4.448   0.812   8.694  2.0633 -0.4690 -0.3945
  882TIP3   OH224204   6.268   6.348   1.092  0.4475  0.6754  0.2648
  882TIP3    H124205   6.338   6.298   1.133 -0.2405  0.2780  0.9756
  882TIP3    H224206   6.188   6.300   1.113 -0.2296  2.0482  0.9693
  883TIP3   OH224207   1.242   6.308   7.297  0.1844  0.3009  0.4706
  883TIP3    H124208   1.170   6.246   7.293 -1.5066  2.1855  0.3701
  883TIP3    H224209   1.243   6.338   7.388 -0.5631  1.8318  0.0007
  884TIP3   OH224210   5.639   0.015   0.977  0.7441 -0.3681  0.1539
  884TIP3    H124211   5.699  -0.060   0.981  0.9828 -0.1871  0.0184
  884TIP3    H224212   5.599   0.009   0.891  1.9435  0.5516 -0.4888
  885TIP3   OH224213   3.862   6.331   0.225 -0.2246 -0.7647 -0.3764
  885TIP3    H124214   3.836   6.360   0.138  1.7549 -0.3328 -0.8759
  885TIP3    H224215   3.917   6.254   0.209 -0.5301 -1.1873  0.5507
  886TIP3   OH224216   2.814   0.486   1.734 -0.2001  0.0545  0.5035
  886TIP3    H124217   2.782   0.576   1.724  0.2883  0.1854  0.0541
  886TIP3    H224218   2.847   0.482   1.824 -1.2206 -0.0076  0.8911
  887TIP3   OH224219   1.671   1.454   1.812 -0.2030 -0.4592  0.7167
  887TIP3    H124220   1.586   1.449   1.855 -1.0969 -0.0468 -0.8935
  887TIP3    H224221   1.655   1.509   1.735  1.5150 -0.4074  0.3674
  888TIP3   OH224222   4.521   1.125   2.673 -0.1249  0.3480  0.4632
  888TIP3    H124223   4.527   1.050   2.732 -0.6854  1.7054  2.3100
  888TIP3    H224224   4.612   1.143   2.648  0.2919  0.6692  2.1250
  889TIP3   OH224225   5.783   1.146   8.328  0.2434  0.2505 -0.0249
  889TIP3    H124226   5.835   1.197   8.265  0.2953  0.3254  0.0777
  889TIP3    H224227   5.822   1.167   8.413 -0.5826  1.0891  0.1680
  890TIP3   OH224228   3.772   3.728   1.819  0.5859 -0.0567  0.5003
  890TIP3    H124229   3.850   3.735   1.874  0.4966  1.0047  0.5224
  890TIP3    H224230   3.803   3.687   1.738  1.3966  1.2318  0.1292
  891TIP3   OH224231   0.064   1.846   1.196 -0.4785 -0.0248 -0.5832
  891TIP3    H124232   0.094   1.881   1.281 -0.2906 -0.9237 -0.2728
  891TIP3    H224233  -0.014   1.796   1.218 -1.6144  1.3838 -1.2363
  892TIP3   OH224234   1.926   4.454   7.905 -0.3630  0.7961  0.5448
  892TIP3    H124235   1.936   4.381   7.844  0.2845  0.8193  0.6206
  892TIP3    H224236   1.853   4.427   7.962 -0.7157  0.6073  0.0143
  893TIP3   OH224237   5.767   4.632   7.166 -0.0663 -0.1152  0.1694
  893TIP3    H124238   5.694   4.578   7.195  0.3372 -2.4710 -2.6356
  893TIP3    H224239   5.845   4.582   7.191  0.3352 -0.6024 -1.8134
  894TIP3   OH224240   1.812   3.200   2.048 -0.0680 -0.0700 -0.3506
  894TIP3    H124241   1.822   3.293   2.064  1.4012 -0.3426  0.4880
  894TIP3    H224242   1.792   3.162   2.133  1.0933 -0.7178 -0.3440
  895TIP3   OH224243   2.283   4.768   2.723 -0.1758 -0.0675  0.5163
  895TIP3    H124244   2.191   4.768   2.750 -0.1647 -2.3159  0.7403
  895TIP3    H224245   2.297   4.855   2.686 -2.4291  0.2673  0.3039
  896TIP3   OH224246   1.500   4.600   0.498  0.0800 -0.0037  0.2704
  896TIP3    H124247   1.534   4.541   0.431 -0.4622  0.3327 -0.3189
  896TIP3    H224248   1.561   4.591   0.571  0.4065 -0.7464 -0.0813
  897TIP3   OH224249   4.864   3.283   1.981 -0.2033  0.3010 -0.0846
  897TIP3    H124250   4.910   3.264   2.063 -0.9726 -1.5620 -0.0381
  897TIP3    H224251   4.870   3.202   1.930 -2.6357  0.2752 -0.4443
  898TIP3   OH224252   3.527   3.418   0.151 -0.4155  0.3974 -0.1949
  898TIP3    H124253   3.575   3.335   0.160 -1.5019 -0.2802 -0.4053
  898TIP3    H224254   3.571   3.463   0.079  1.0896  0.6818  0.8362
  899TIP3   OH224255   2.787   5.877   1.540  0.5164  0.3043 -0.3083
  899TIP3    H124256   2.856   5.943   1.544  1.7530 -0.9849  0.2386
  899TIP3    H224257   2.757   5.868   1.631 -0.7907  1.2355 -0.6097
  900TIP3   OH224258   4.162   3.878   7.936  0.2393 -0.2021 -0.5406
  900TIP3    H124259   4.231   3.829   7.892  0.6509 -0.8618  0.8069
  900TIP3    H224260   4.120   3.815   7.994 -2.0366 -0.0315 -1.8422
  901TIP3   OH224261   0.094   1.139   0.053 -0.5638 -0.6156  0.3024
  901TIP3    H124262   0.134   1.095  -0.022  1.7597  0.1699  0.9756
  901TIP3    H224263   0.133   1.096   0.129 -2.6180 -1.1764  1.1121
  902TIP3   OH224264   2.952   6.281   1.546 -0.2071 -0.2125  0.2306
  902TIP3    H124265   2.959   6.202   1.599 -1.1237 -0.3846  0.1090
  902TIP3    H224266   3.038   6.323   1.554 -0.0899 -0.6188  1.2407
  903TIP3   OH224267   0.325   2.438   1.591  0.4100  0.3500 -0.0139
  903TIP3    H124268   0.274   2.379   1.536  2.1425 -0.6126 -0.6665
  903TIP3    H224269   0.338   2.515   1.537  0.5891  0.1398 -0.2728
  904TIP3   OH224270   1.322   2.224   8.433  0.1612 -0.2570  0.0571
  904TIP3    H124271   1.314   2.162   8.361 -0.3526  0.3047 -0.3770
  904TIP3    H224272   1.417   2.233   8.447  0.2904  0.1378 -0.9969
  905TIP3   OH224273   1.879   0.932   0.419 -0.4888 -0.4917 -0.4819
  905TIP3    H124274   1.933   0.889   0.486  0.5658 -0.2367 -1.1494
  905TIP3    H224275   1.876   0.869   0.347  1.8027  0.8192 -1.8318
  906TIP3   OH224276   1.334   1.359   0.780  1.3523  0.2364 -0.1345
  906TIP3    H124277   1.374   1.281   0.741  1.3518  0.0106  0.3215
  906TIP3    H224278   1.408   1.407   0.818  1.2929  0.2243 -0.0039
  907TIP3   OH224279   3.115   0.167   7.286 -0.2743 -0.1774 -0.3449
  907TIP3    H124280   3.094   0.162   7.192  1.1576  1.4305 -0.8085
  907TIP3    H224281   3.194   0.114   7.296  1.2372  1.8746 -0.6780
  908TIP3   OH224282   2.441   5.650   1.930 -0.1011 -0.0587  0.3317
  908TIP3    H124283   2.502   5.608   1.990  0.2079 -0.6771 -0.3918
  908TIP3    H224284   2.412   5.729   1.975  0.9841  0.0717  0.8114
  909TIP3   OH224285   1.340   2.737   2.707 -0.3540  0.1899 -0.0143
  909TIP3    H124286   1.430   2.765   2.725 -0.4818  0.1297  0.7356
  909TIP3    H224287   1.285   2.805   2.746 -0.6419 -0.3530  0.5448
  910TIP3   OH224288   4.704   2.863   1.294 -0.7799 -0.1446  0.4930
  910TIP3    H124289   4.757   2.886   1.369 -0.5240 -0.5616  0.4449
  910TIP3    H224290   4.677   2.946   1.256  0.7400  0.0961 -0.1243
  911TIP3   OH224291   3.280   0.937   8.376 -0.0973 -0.1142 -0.0441
  911TIP3    H124292   3.336   0.865   8.348 -0.1606 -1.2298  2.4651
  911TIP3    H224293   3.340   1.004   8.408 -0.0632  0.8045 -1.8947
  912TIP3   OH224294   6.397   5.924   8.573 -0.0698  0.1311  0.6967
  912TIP3    H124295   6.343   5.883   8.640  0.1840  2.8279  2.7179
  912TIP3    H224296   6.484   5.932   8.614  0.0017  2.1553  0.2568
  913TIP3   OH224297   5.972   3.734   1.145 -0.0096  0.1963  0.8013
  913TIP3    H124298   5.938   3.720   1.233  1.2418 -1.3108  1.0827
  913TIP3    H224299   5.924   3.672   1.090 -0.2096  0.5635  0.5535
  914TIP3   OH224300   3.503   4.382   0.997  0.4756 -0.0849 -0.4129
  914TIP3    H124301   3.478   4.297   0.962  0.3930 -0.2409  0.0239
  914TIP3    H224302   3.540   4.429   0.921 -1.1749  0.1940 -1.0979
  915TIP3   OH224303   0.023   0.267   7.930 -0.5142 -0.2389  0.3270
  915TIP3    H124304  -0.030   0.223   7.995 -2.4527  0.7899 -0.4788
  915TIP3    H224305   0.088   0.202   7.904 -0.9448 -1.3226  1.8208
  916TIP3   OH224306   0.419   3.232   1.566 -0.5131 -0.2454 -0.1664
  916TIP3    H124307   0.399   3.240   1.659  1.4372 -0.7090  0.3334
  916TIP3    H224308   0.413   3.138   1.548  0.7222 -0.3583 -0.0847
  917TIP3   OH224309   3.500   1.861   1.801 -0.5720  0.4779 -0.5435
  917TIP3    H124310   3.464   1.796   1.741 -0.1950  0.4120 -0.7016
  917TIP3    H224311   3.541   1.926   1.745 -2.6217  1.8973 -0.4815
  918TIP3   OH224312   2.032   3.070   6.699  0.4246 -0.6803 -0.6388
  918TIP3    H124313   1.985   3.152   6.684  2.5060  0.4313 -1.5467
  918TIP3    H224314   2.016   3.050   6.791  2.1999  2.4125  0.5173
  919TIP3   OH224315   1.424   3.983   1.998  0.6745  0.1912 -0.3938
  919TIP3    H124316   1.474   3.935   1.933  0.4734  0.9432 -1.1222
  919TIP3    H224317   1.349   4.017   1.950 -1.3309 -2.0256  0.9221
  920TIP3   OH224318   1.814   0.692   7.345  0.2675 -0.1023 -0.4641
  920TIP3    H124319   1.758   0.650   7.280  0.4228 -0.1279 -0.5820
  920TIP3    H224320   1.783   0.783   7.347  1.2957  0.3134 -1.7503
  921TIP3   OH224321   6.484   2.486   7.824  0.0674  0.3307 -0.1533
  921TIP3    H124322   6.508   2.504   7.733 -0.6326 -1.4585 -0.7460
  921TIP3    H224323   6.523   2.400   7.843 -1.3790 -0.2164  0.5735
  922TIP3   OH224324   1.141   0.151   0.009 -0.2677 -0.4925 -0.0659
  922TIP3    H124325   1.125   0.239  -0.025  0.0481  0.4924  2.1616
  922TIP3    H224326   1.227   0.128  -0.025 -0.5277 -0.1286 -1.0097
  923TIP3   OH224327   2.417   5.647   7.430  0.3031 -0.3698  0.4593
  923TIP3    H124328   2.490   5.638   7.491  0.2628  0.1196  0.5789
  923TIP3    H224329   2.359   5.574   7.452  1.6838 -2.0308 -0.9564
  924TIP3   OH224330   1.264   4.437   0.501 -0.1336  0.1964  0.7543
  924TIP3    H124331   1.339   4.490   0.530  0.5121  0.6172 -1.5008
  924TIP3    H224332   1.191   4.468   0.554  0.4416  2.6631  0.2346
  925TIP3   OH224333   5.224   0.586   2.468 -0.1902 -0.0187  0.1257
  925TIP3    H124334   5.265   0.523   2.410  1.6357  1.0378  0.1689
  925TIP3    H224335   5.182   0.649   2.409 -0.2778 -0.1880  0.0091
  926TIP3   OH224336   5.204   2.459   0.430 -0.1490 -0.7835  0.3277
  926TIP3    H124337   5.198   2.376   0.478  1.1898 -0.5025  1.0183
  926TIP3    H224338   5.208   2.526   0.498  2.9944 -0.4481 -0.0499
  927TIP3   OH224339   4.593   1.946   7.444  0.1531 -0.0177  0.7306
  927TIP3    H124340   4.567   1.861   7.480 -0.5508  0.3375  1.0984
  927TIP3    H224341   4.675   1.929   7.399 -1.1842 -1.4225 -1.3429
  928TIP3   OH224342   0.178   1.361   1.398 -0.1954  0.0549 -0.3112
  928TIP3    H124343   0.252   1.335   1.453  0.5270  1.5085 -0.5372
  928TIP3    H224344   0.195   1.453   1.378 -2.6604  0.7783  0.5662
  929TIP3   OH224345   4.442   2.327   2.020 -0.6243 -0.3017  0.1352
  929TIP3    H124346   4.390   2.370   2.087 -0.0232  0.4554  0.1214
  929TIP3    H224347   4.405   2.238   2.014  0.8275 -1.2409  3.2069
  930TIP3   OH224348   2.626   1.576   2.893 -1.0050 -0.2563  0.5159
  930TIP3    H124349   2.562   1.623   2.838 -1.3745  0.2812  1.3838
  930TIP3    H224350   2.711   1.608   2.863 -1.1104 -1.0000 -0.6743
  931TIP3   OH224351   3.592   5.501   0.949  0.5319  0.5473  0.5343
  931TIP3    H124352   3.555   5.419   0.984  0.8814  0.3273  0.3869
  931TIP3    H224353   3.611   5.482   0.857 -0.8317  1.2706  0.0644
  932TIP3   OH224354   0.813   5.356   1.532  0.2645  0.0587  0.0564
  932TIP3    H124355   0.866   5.298   1.477 -2.5935 -1.4072 -1.3216
  932TIP3    H224356   0.830   5.443   1.497  2.4707 -0.1858  0.3342
  933TIP3   OH224357   0.195   1.179   8.401  0.0110  0.7625 -0.2421
  933TIP3    H124358   0.264   1.184   8.466 -0.6348  0.2942  0.4916
  933TIP3    H224359   0.203   1.092   8.362 -0.7896  0.3118  0.5658
  934TIP3   OH224360   4.785   0.682   1.962 -0.1346 -0.6059  0.4632
  934TIP3    H124361   4.691   0.676   1.980 -0.1538  0.6498  0.9046
  934TIP3    H224362   4.825   0.625   2.027 -0.6198 -1.8732 -0.3066
  935TIP3   OH224363   4.938   0.858   8.501 -0.0971  0.5484  0.0219
  935TIP3    H124364   4.881   0.782   8.488 -2.2742  2.0861 -0.0615
  935TIP3    H224365   4.937   0.873   8.595  0.7588  0.1935  0.0956
  936TIP3   OH224366   0.969   2.198   1.360 -0.0475 -0.1305  0.2864
  936TIP3    H124367   0.974   2.288   1.391  0.4430 -0.7407  2.0791
  936TIP3    H224368   0.921   2.204   1.277  0.0077  1.7652  0.3507
  937TIP3   OH224369   3.452   0.252   2.046  0.2714 -0.0619  0.5224
  937TIP3    H124370   3.409   0.170   2.023  1.0476 -0.9300  2.0656
  937TIP3    H224371   3.476   0.242   2.138  1.0898  1.5868  0.5161
  938TIP3   OH224372   6.741   5.004   7.828 -0.3881  0.5233  0.3316
  938TIP3    H124373   6.776   4.919   7.855 -1.4373 -0.4696 -1.2539
  938TIP3    H224374   6.679   5.027   7.897 -1.4023 -0.8919 -0.0469
  939TIP3   OH224375   5.971   3.983   1.005  0.0717 -0.3630 -0.4100
  939TIP3    H124376   5.935   3.928   1.074  0.5272  0.9873  0.9684
  939TIP3    H224377   5.904   3.982   0.936 -0.5208 -1.5210  0.1566
  940TIP3   OH224378   1.127   3.358   0.109  0.7731 -0.1437 -0.1503
  940TIP3    H124379   1.042   3.400   0.118  1.2326  0.9460 -0.6810
  940TIP3    H224380   1.110   3.265   0.123 -1.1013 -0.4278 -3.4027
  941TIP3   OH224381   2.959   4.043   0.251  0.3263  0.3930 -0.0077
  941TIP3    H124382   2.953   4.011   0.341 -0.5726  0.6440  0.0301
  941TIP3    H224383   3.006   3.973   0.204  1.8110  0.7596  0.8664
  942TIP3   OH224384   4.078   3.720   0.163  0.5284 -0.1769 -0.2109
  942TIP3    H124385   4.067   3.810   0.131 -1.5233 -0.2148  0.2302
  942TIP3    H224386   4.164   3.720   0.205  0.1854  1.8895  0.6498
  943TIP3   OH224387   5.557   6.261   0.456 -0.1046  0.1293 -0.2984
  943TIP3    H124388   5.546   6.213   0.374 -1.9670 -1.4435  0.8025
  943TIP3    H224389   5.592   6.346   0.429  0.2058 -0.6689 -2.6222
  944TIP3   OH224390   2.470   6.316   0.229  0.3821  0.2929  0.4316
  944TIP3    H124391   2.466   6.411   0.240  0.1397  0.4096 -0.5197
  944TIP3    H224392   2.491   6.304   0.136 -2.8589 -0.5797 -0.3359
  945TIP3   OH224393   2.327   5.715   0.221  0.3886  0.0209  0.2476
  945TIP3    H124394   2.327   5.667   0.304 -0.1400  0.8461  0.7456
  945TIP3    H224395   2.264   5.668   0.166 -0.3811  0.3175  0.8491
  946TIP3   OH224396   1.248   4.746   2.650 -0.5212  0.1311  0.0424
  946TIP3    H124397   1.328   4.794   2.629  0.5208 -0.7560  1.7517
  946TIP3    H224398   1.218   4.710   2.566  1.4816 -0.4211 -0.4724
  947TIP3   OH224399   2.541   3.631   1.201 -0.3515 -0.3080 -0.5109
  947TIP3    H124400   2.579   3.556   1.247  3.7022  1.6849 -0.1696
  947TIP3    H224401   2.572   3.707   1.250 -0.6943  1.7346 -3.2403
  948TIP3   OH224402   5.763   4.386   1.934 -0.0290  0.2189 -0.1583
  948TIP3    H124403   5.767   4.318   2.001  1.0139  0.4777  0.0601
  948TIP3    H224404   5.853   4.397   1.905 -0.4693  0.0431 -1.6930
  949TIP3   OH224405   2.747   1.078   0.529 -0.1558  0.0831  0.4357
  949TIP3    H124406   2.673   1.043   0.480  0.9420 -0.6123 -0.7720
  949TIP3    H224407   2.756   1.020   0.604 -1.6358  0.9574  1.3576
  950TIP3   OH224408   5.656   2.960   0.120  0.0958  0.3402 -0.2489
  950TIP3    H124409   5.574   2.917   0.096 -0.3366  0.7241  0.5015
  950TIP3    H224410   5.629   3.037   0.170  0.9214  0.1996  0.4388
  951TIP3   OH224411   2.592   5.679   8.372  0.0921  0.5237  0.0371
  951TIP3    H124412   2.663   5.632   8.416  0.0336  0.9960  0.6442
  951TIP3    H224413   2.529   5.611   8.349 -0.2493  0.3701  1.3954
  952TIP3   OH224414   2.576   3.885   3.039  0.0332  0.3435  0.1910
  952TIP3    H124415   2.483   3.900   3.057 -1.1104 -3.0077 -2.0170
  952TIP3    H224416   2.611   3.848   3.120 -1.2246 -0.7037  0.2740
  953TIP3   OH224417   1.978   3.708   7.485  0.4383  0.5102 -0.2173
  953TIP3    H124418   2.029   3.635   7.450  0.8975  0.3231  0.8247
  953TIP3    H224419   1.907   3.720   7.422 -0.1221 -1.3521  0.0117
  954TIP3   OH224420   0.735   2.469   1.216 -0.2661  0.0163 -0.1758
  954TIP3    H124421   0.769   2.390   1.173 -3.3344 -2.3640  1.3687
  954TIP3    H224422   0.664   2.499   1.160 -0.2050  0.6723  0.0875
  955TIP3   OH224423   0.717   3.681   2.557  0.4013  0.5519  0.3248
  955TIP3    H124424   0.650   3.645   2.615  2.7071 -0.4220  2.6484
  955TIP3    H224425   0.690   3.771   2.541 -1.7248  0.0131  0.6595
  956TIP3   OH224426   4.491   0.437   1.260  0.6754 -0.0994 -0.4283
  956TIP3    H124427   4.483   0.521   1.217  0.5062  0.2828  0.3369
  956TIP3    H224428   4.520   0.377   1.191  1.1152  0.6486 -0.8982
  957TIP3   OH224429   5.083   3.551   8.283 -0.5648 -0.1011 -0.1208
  957TIP3    H124430   5.148   3.539   8.213 -0.1914 -1.1344  0.3958
  957TIP3    H224431   5.012   3.599   8.240  0.8002  1.6902 -0.5368
  958TIP3   OH224432   6.108   2.386   7.795  0.6169  0.3999  0.4841
  958TIP3    H124433   6.053   2.411   7.721 -0.6257 -0.9694  0.9100
  958TIP3    H224434   6.171   2.324   7.758 -1.4161 -2.0856  0.8854
  959TIP3   OH224435   0.719   1.647   2.166 -0.0906 -0.3055  0.1498
  959TIP3    H124436   0.679   1.690   2.242 -0.5096 -0.8325  0.2328
  959TIP3    H224437   0.761   1.569   2.203  2.0746  0.8360  0.2621
  960TIP3   OH224438   0.055   4.290   2.466 -0.3179 -0.3529  0.4072
  960TIP3    H124439   0.061   4.200   2.499  1.6027 -0.8726 -1.1482
  960TIP3    H224440   0.093   4.343   2.536 -0.5899 -0.8681  0.9581
  961TIP3   OH224441   1.162   6.453   0.173  0.2915  0.7002 -0.1522
  961TIP3    H124442   1.227   6.499   0.120  0.1199  0.6656 -0.3954
  961TIP3    H224443   1.092   6.517   0.186 -0.1112  0.3975 -0.7914
  962TIP3   OH224444   4.163   3.950   1.951 -0.3520 -0.3201  0.5589
  962TIP3    H124445   4.115   3.897   2.015 -0.9549  0.5841  0.8869
  962TIP3    H224446   4.221   4.005   2.004 -1.0617  0.6414  0.3724
  963TIP3   OH224447   5.422   1.320   1.620 -0.0578 -0.0610 -0.3380
  963TIP3    H124448   5.379   1.258   1.679 -0.3090 -1.0227 -1.5010
  963TIP3    H224449   5.515   1.315   1.644  0.0950 -1.7274 -1.1145
  964TIP3   OH224450   5.669   1.394   7.358  0.0764 -0.3244  0.5570
  964TIP3    H124451   5.685   1.488   7.362 -0.3801 -0.2560  0.8870
  964TIP3    H224452   5.735   1.360   7.297 -0.9988  0.4799 -1.1330
  965TIP3   OH224453   2.933   1.340   8.578 -0.1841 -0.0382 -0.2522
  965TIP3    H124454   2.961   1.251   8.599  0.4768 -0.2022 -1.7478
  965TIP3    H224455   2.837   1.335   8.576 -0.2243 -0.3340  1.2059
  966TIP3   OH224456   1.262   3.327   7.822 -0.7295 -0.6151 -0.4419
  966TIP3    H124457   1.290   3.269   7.893 -0.0764 -1.3595 -1.2856
  966TIP3    H224458   1.245   3.268   7.748  0.5949  0.3082 -1.5231
  967TIP3   OH224459   5.309   6.201   2.888 -0.4811  0.2644 -0.1511
  967TIP3    H124460   5.255   6.277   2.865 -0.1366  0.4963 -0.2053
  967TIP3    H224461   5.399   6.232   2.878 -0.3298  0.0699  0.5312
  968TIP3   OH224462   1.396   4.116   1.669  0.0521 -0.0532  0.2070
  968TIP3    H124463   1.390   4.158   1.583 -0.0522  0.7051  0.5784
  968TIP3    H224464   1.356   4.030   1.656 -1.1583  0.5436 -0.1842
  969TIP3   OH224465   4.144   6.240   1.302  0.2154  0.3696 -0.0003
  969TIP3    H124466   4.188   6.254   1.218  0.7780 -0.0027  0.2239
  969TIP3    H224467   4.080   6.171   1.284  1.2821 -0.7092  0.1747
  970TIP3   OH224468   3.445   3.895   0.174 -0.2033 -0.5550  0.1510
  970TIP3    H124469   3.491   3.816   0.202  0.1359 -0.2294  0.5277
  970TIP3    H224470   3.352   3.875   0.189 -0.1631 -1.0863 -0.2877
  971TIP3   OH224471   6.369   3.071   8.373 -0.4742 -0.5735 -0.8509
  971TIP3    H124472   6.316   2.991   8.369 -0.0602 -0.8312 -1.2945
  971TIP3    H224473   6.333   3.120   8.447 -0.9538 -1.0140 -0.7872
  972TIP3   OH224474   6.437   2.187   1.563 -0.5767  0.0543 -0.5013
  972TIP3    H124475   6.462   2.131   1.490 -1.0527  0.2996 -0.8540
  972TIP3    H224476   6.435   2.128   1.638 -2.4572 -0.7137 -1.1201
  973TIP3   OH224477   0.637   2.948   1.323 -0.7313 -0.4855 -0.0562
  973TIP3    H124478   0.640   2.863   1.366  0.7855  0.8363  2.7484
  973TIP3    H224479   0.580   3.001   1.379 -0.0158  0.8945 -0.5809
  974TIP3   OH224480   6.084   3.814   7.749 -0.2555  0.4654  0.3194
  974TIP3    H124481   6.077   3.906   7.724 -0.2256  0.3191 -0.2320
  974TIP3    H224482   6.041   3.766   7.678  0.5957 -0.0065  0.1091
  975TIP3   OH224483   5.086   1.662   0.087  0.9168  0.1524 -0.0290
  975TIP3    H124484   5.118   1.575   0.066  1.5528  0.5597 -0.8041
  975TIP3    H224485   5.033   1.650   0.165 -0.0883 -1.1447 -0.8646
  976TIP3   OH224486   1.731   0.956   1.803  0.0172  0.2631  0.5592
  976TIP3    H124487   1.727   1.025   1.738  1.1601  0.2106  0.4153
  976TIP3    H224488   1.815   0.913   1.788 -0.9189 -1.5399  0.2690
  977TIP3   OH224489   2.098   4.565   0.932 -0.0123  0.1642 -0.5577
  977TIP3    H124490   2.172   4.560   0.872  1.2078  0.7195  0.8591
  977TIP3    H224491   2.058   4.650   0.914  0.3983  0.3648 -0.5192
  978TIP3   OH224492   1.687   1.014   2.724  0.0312 -0.1103  0.3264
  978TIP3    H124493   1.613   1.057   2.682 -0.2849  0.5857  1.5536
  978TIP3    H224494   1.721   0.955   2.657  0.3636  1.8754 -1.3499
  979TIP3   OH224495   1.288   1.057   8.149  0.2764 -0.1294  0.3074
  979TIP3    H124496   1.265   1.150   8.150 -0.4630 -0.2871 -0.6252
  979TIP3    H224497   1.210   1.014   8.186  0.4946 -0.4024  0.4487
  980TIP3   OH224498   3.973   0.397   1.709  0.1111 -0.1605 -0.0099
  980TIP3    H124499   4.023   0.318   1.731 -0.3507 -0.4105  0.1521
  980TIP3    H224500   3.922   0.372   1.633  1.4485  0.5976 -1.2036
  981TIP3   OH224501   2.407   4.380   1.746  0.9939  0.2515 -0.0595
  981TIP3    H124502   2.458   4.403   1.668 -1.5745 -0.8937 -2.2256
  981TIP3    H224503   2.316   4.383   1.717 -0.0628 -0.7513  2.7942
  982TIP3   OH224504   4.531   3.068   0.115 -0.0762 -0.0724 -0.7152
  982TIP3    H124505   4.437   3.053   0.111  0.1290 -1.2707 -2.0918
  982TIP3    H224506   4.570   2.980   0.108  1.1454  0.2983  0.8235
  983TIP3   OH224507   4.519   6.803   8.483  0.1933  0.1000  0.1339
  983TIP3    H124508   4.468   6.721   8.483 -2.1955  1.4339  2.0470
  983TIP3    H224509   4.512   6.836   8.393 -4.2308  1.1408  0.6242
  984TIP3   OH224510   1.940   5.035   1.644  0.6039  0.3576  0.3825
  984TIP3    H124511   1.873   5.026   1.576  1.2579  0.9615 -0.3595
  984TIP3    H224512   1.906   4.984   1.718  0.1947 -0.8946 -0.6288
  985TIP3   OH224513   0.056   4.616   0.566  0.0366  0.6409 -0.2192
  985TIP3    H124514   0.069   4.649   0.655  0.3680 -0.0474 -0.0025
  985TIP3    H224515  -0.037   4.597   0.560  0.4033 -1.8868  0.9281
  986TIP3   OH224516   4.435   4.514   7.776 -0.4439  0.3320 -0.0656
  986TIP3    H124517   4.461   4.605   7.791  0.3601  0.0934  0.0405
  986TIP3    H224518   4.445   4.471   7.861 -0.5968  0.0891 -0.1683
  987TIP3   OH224519   2.321   2.326   1.993 -0.1619 -0.5951  0.2855
  987TIP3    H124520   2.300   2.269   1.919 -0.6606 -0.2611  0.1582
  987TIP3    H224521   2.332   2.413   1.953 -0.7588 -0.3507  0.6327
  988TIP3   OH224522   3.984   4.724   2.715  0.1956  0.1872 -0.2533
  988TIP3    H124523   4.038   4.790   2.671 -1.7455  0.7159 -1.9887
  988TIP3    H224524   3.894   4.752   2.699 -0.6546 -1.6892  0.9047
  989TIP3   OH224525   5.057   2.722   0.576 -0.4375  0.6757 -0.1616
  989TIP3    H124526   5.093   2.739   0.663 -1.2846  2.8368 -0.1678
  989TIP3    H224527   4.975   2.676   0.592 -0.0590  0.0925  0.1143
  990TIP3   OH224528   0.821   6.053   0.262 -0.2390  0.2636  0.6872
  990TIP3    H124529   0.759   6.024   0.329 -2.4070  3.4759  0.3111
  990TIP3    H224530   0.880   6.112   0.308  0.3646 -0.1034  0.3875
  991TIP3   OH224531   1.422   3.303   2.645 -0.5268  0.4106  0.1522
  991TIP3    H124532   1.424   3.222   2.696  0.2163 -1.1015 -2.1322
  991TIP3    H224533   1.432   3.275   2.554 -0.7762  3.0478 -0.7881
  992TIP3   OH224534   1.713   1.588   2.171 -0.3544 -0.3096  0.2062
  992TIP3    H124535   1.718   1.571   2.077 -1.6029  0.7109 -0.0824
  992TIP3    H224536   1.636   1.538   2.200 -1.1756  0.9424  0.2686
  993TIP3   OH224537   3.004   5.409   1.842  0.5233 -0.1795 -0.1970
  993TIP3    H124538   2.989   5.388   1.750 -1.7543 -0.2211  0.1262
  993TIP3    H224539   2.925   5.455   1.869 -0.2527 -2.7361  2.4766
  994TIP3   OH224540   1.948   3.335   6.642 -0.6252 -0.2605  0.6728
  994TIP3    H124541   1.975   3.427   6.652  0.3619 -0.1908 -1.9006
  994TIP3    H224542   1.873   3.339   6.582  0.3920 -1.2167 -0.6977
  995TIP3   OH224543   0.347   4.673   2.762  0.4747  0.3513 -0.1397
  995TIP3    H124544   0.375   4.749   2.813 -1.0096  0.9939 -0.2393
  995TIP3    H224545   0.303   4.617   2.825 -0.3342  0.6042 -0.4591
  996TIP3   OH224546   3.504   5.995   0.605 -0.1495 -0.2318  0.4759
  996TIP3    H124547   3.452   6.070   0.576  1.0512  0.3623 -0.2300
  996TIP3    H224548   3.491   5.929   0.537  0.8044  0.2999 -0.2532
  997TIP3   OH224549   3.862   2.173   0.886  0.2640  0.4734 -0.6834
  997TIP3    H124550   3.873   2.080   0.907  1.3879  0.9806  1.2153
  997TIP3    H224551   3.929   2.191   0.820 -0.5687 -0.2257 -1.7649
  998TIP3   OH224552   3.298   6.060   8.112 -0.5415 -0.7918  0.1114
  998TIP3    H124553   3.309   6.007   8.033  0.0188 -0.7624  0.1618
  998TIP3    H224554   3.344   6.142   8.093  0.2413 -1.0738  0.7334
  999TIP3   OH224555   5.068   5.862   0.179 -1.0338 -0.0749 -0.0832
  999TIP3    H124556   5.141   5.821   0.226 -0.0895 -0.5928 -1.9106
  999TIP3    H224557   5.082   5.956   0.190  1.0936 -0.0898 -2.0050
 1000TIP3   OH224558   3.042   4.835   2.730 -0.2553  0.7060  0.4018
 1000TIP3    H124559   3.076   4.748   2.752  1.5582  0.6783 -2.0529
 1000TIP3    H224560   2.947   4.826   2.734 -0.1050 -1.3420  0.3992
 1001TIP3   OH224561   3.277   5.284   7.754 -0.2686 -0.3120 -0.1130
 1001TIP3    H124562   3.278   5.294   7.659 -0.9563 -0.6674 -0.1579
 1001TIP3    H224563   3.281   5.374   7.788 -2.3246 -0.0415 -0.4912
 1002TIP3   OH224564   6.081   3.778   0.707 -0.5119 -0.5882  0.5151
 1002TIP3    H124565   6.001   3.813   0.669  0.2171  0.9103  0.2797
 1002TIP3    H224566   6.061   3.686   0.725 -1.7880 -0.6171 -0.8817
 1003TIP3   OH224567   3.919   4.758   6.979 -0.3630  0.0806  0.0843
 1003TIP3    H124568   3.988   4.735   7.041 -0.6181 -0.9758 -0.0147
 1003TIP3    H224569   3.952   4.838   6.936  0.4366  0.0352  0.5914
 1004TIP3   OH224570   6.373   0.763   0.799 -0.1774  0.3968  0.1968
 1004TIP3    H124571   6.371   0.858   0.788 -1.5411  0.3817  0.1965
 1004TIP3    H224572   6.464   0.740   0.782 -0.2668  1.4214 -2.2155
 1005TIP3   OH224573   0.242   1.784   7.911  0.1489 -0.0822 -0.0969
 1005TIP3    H124574   0.279   1.744   7.990 -0.6417  2.4571  1.6943
 1005TIP3    H224575   0.155   1.813   7.937  0.4230  2.1460 -1.3966
 1006TIP3   OH224576   6.356   3.801   0.428  0.2357 -0.0877 -0.0673
 1006TIP3    H124577   6.449   3.820   0.438  0.0362  0.9860 -0.1145
 1006TIP3    H224578   6.324   3.790   0.518 -0.2177  2.8608  0.2418
 1007TIP3   OH224579   1.824   1.112   7.787  0.3055 -0.6276 -0.2329
 1007TIP3    H124580   1.846   1.066   7.707 -0.9841 -1.2502 -0.2634
 1007TIP3    H224581   1.904   1.110   7.840  1.3350  0.2615 -1.6965
 1008TIP3   OH224582   3.429   5.236   1.233  0.0418  0.2477  0.8068
 1008TIP3    H124583   3.429   5.148   1.271 -2.3848  0.5931  1.7947
 1008TIP3    H224584   3.522   5.260   1.229  0.6628 -1.5468  2.4419
 1009TIP3   OH224585   6.104   2.854   1.920 -0.0876  0.0828 -0.4295
 1009TIP3    H124586   6.043   2.785   1.948 -0.1273  0.0247 -0.6599
 1009TIP3    H224587   6.048   2.918   1.875 -0.4332  1.3751  1.6861
 1010TIP3   OH224588   1.272   2.019   8.262  0.1557 -0.2515  0.0428
 1010TIP3    H124589   1.333   2.015   8.188  0.5412  0.7103  0.2958
 1010TIP3    H224590   1.229   1.933   8.262  0.6482 -0.5132 -0.8679
 1011TIP3   OH224591   3.004   1.996   0.358  0.3282  0.2659  0.5442
 1011TIP3    H124592   3.050   1.985   0.442 -1.5647 -1.0699  1.5048
 1011TIP3    H224593   3.069   2.033   0.299  1.8882  0.7582  2.4660
 1012TIP3   OH224594   2.891   1.406   0.401  0.4907 -0.4178 -0.1746
 1012TIP3    H124595   2.906   1.500   0.404  0.7656 -0.3593 -2.1159
 1012TIP3    H224596   2.821   1.395   0.336 -0.7196 -1.4487  1.2396
 1013TIP3   OH224597   6.098   5.424   1.302  0.5676  0.3280 -0.5781
 1013TIP3    H124598   6.064   5.335   1.311  1.9910 -0.1954  0.0089
 1013TIP3    H224599   6.021   5.481   1.307 -0.2123 -0.7834  0.5759
 1014TIP3   OH224600   2.964   5.908   8.282  0.5113  0.9414 -0.0894
 1014TIP3    H124601   2.950   5.970   8.210  0.1305  0.6754 -0.2504
 1014TIP3    H224602   2.993   5.962   8.355  0.1444  1.3201 -0.2143
 1015TIP3   OH224603   3.702   4.992   0.325  0.3206 -0.0473  0.4291
 1015TIP3    H124604   3.619   4.960   0.289  0.3589  0.1146  0.1948
 1015TIP3    H224605   3.762   4.989   0.251  0.7265 -0.8988  0.7777
 1016TIP3   OH224606   0.585   4.005   7.637 -0.5513 -0.1701  0.2074
 1016TIP3    H124607   0.524   4.073   7.608 -1.1362  0.4664  2.6941
 1016TIP3    H224608   0.550   3.924   7.599 -0.4132  0.7142 -1.9602
 1017TIP3   OH224609   2.203   4.488   6.992  0.0366  0.8770  0.0793
 1017TIP3    H124610   2.130   4.467   6.934  1.8517  0.1812 -2.1113
 1017TIP3    H224611   2.191   4.580   7.013 -1.8466  0.6026  0.4043
 1018TIP3   OH224612   0.595   4.640   1.456 -0.4542  0.0962 -0.6730
 1018TIP3    H124613   0.534   4.710   1.431 -0.6051  0.7278  1.2754
 1018TIP3    H224614   0.649   4.679   1.525 -0.3342 -1.5981  0.2444
 1019TIP3   OH224615   1.444   3.496   1.037  0.2693 -0.1916 -0.2586
 1019TIP3    H124616   1.388   3.486   1.114  0.8318 -2.3816 -0.0780
 1019TIP3    H224617   1.402   3.442   0.970 -0.3196  1.8355 -1.6266
 1020TIP3   OH224618   0.931   5.872   0.075  0.1161  0.2610 -0.4578
 1020TIP3    H124619   0.904   5.937   0.140  0.1188 -0.0438 -0.1550
 1020TIP3    H224620   0.872   5.886   0.001  0.2602  0.7606 -0.4834
 1021TIP3   OH224621   2.580   5.476   2.094  0.2205 -0.2389  0.4447
 1021TIP3    H124622   2.533   5.453   2.174  0.0580 -2.3049 -0.1850
 1021TIP3    H224623   2.631   5.398   2.073 -0.7591 -0.2770 -2.1635
 1022TIP3   OH224624   4.483   5.022   0.885  0.4555  0.1015  0.6539
 1022TIP3    H124625   4.500   4.940   0.932 -0.6918 -0.9235 -0.6303
 1022TIP3    H224626   4.543   5.018   0.809  1.0617  0.9115  1.0818
 1023TIP3   OH224627   3.390   4.514   7.546  0.1070  0.1083 -0.5048
 1023TIP3    H124628   3.335   4.581   7.506 -0.2051  0.7390  0.9188
 1023TIP3    H224629   3.450   4.488   7.477  0.7510  2.4203 -0.9077
 1024TIP3   OH224630   4.850   2.225   7.382 -0.2720 -0.1576 -0.0323
 1024TIP3    H124631   4.840   2.160   7.313 -0.2605  0.0068 -0.1919
 1024TIP3    H224632   4.936   2.263   7.367 -0.1728 -0.2818  0.2143
 1025TIP3   OH224633   0.193   4.068   8.223 -0.0377 -0.1043 -0.0613
 1025TIP3    H124634   0.240   4.088   8.141 -1.9834 -0.9562 -1.4500
 1025TIP3    H224635   0.242   3.996   8.262  1.2057  0.6456 -0.1803
 1026TIP3   OH224636   4.792   6.172   6.994 -0.4308 -0.0924 -0.2525
 1026TIP3    H124637   4.876   6.140   6.962 -0.3212  1.4245 -1.5781
 1026TIP3    H224638   4.728   6.142   6.930 -1.1097 -2.0261  1.2131
 1027TIP3   OH224639   1.765   0.045   7.429 -0.4443 -0.0021 -0.3056
 1027TIP3    H124640   1.767  -0.045   7.396  0.6935 -0.4329  0.8402
 1027TIP3    H224641   1.673   0.060   7.451 -0.7207 -0.7263 -0.9164
 1028TIP3   OH224642   0.601   4.852   0.826  0.7857 -0.1571 -0.6853
 1028TIP3    H124643   0.617   4.759   0.810 -2.5636 -0.9763  0.1166
 1028TIP3    H224644   0.618   4.894   0.741 -0.4921 -1.9394 -1.8884
 1029TIP3   OH224645   6.593   2.453   0.437  0.7782 -0.1987 -0.1453
 1029TIP3    H124646   6.550   2.368   0.446 -0.2613  0.2828 -0.3441
 1029TIP3    H224647   6.658   2.440   0.369  0.9414 -0.9514  0.1488
 1030TIP3   OH224648   5.149   3.176   1.846 -0.7211  0.1479  0.3888
 1030TIP3    H124649   5.176   3.087   1.868 -1.3239 -0.4050 -0.9530
 1030TIP3    H224650   5.053   3.174   1.851 -0.7417  0.7046  0.2891
 1031TIP3   OH224651   3.831   5.150   7.034  0.6991  0.2508 -0.3202
 1031TIP3    H124652   3.833   5.246   7.038  2.6334  0.2928 -1.2468
 1031TIP3    H224653   3.887   5.121   7.106 -0.1009 -0.2296  0.1332
 1032TIP3   OH224654   3.326   0.809   1.506  0.7323 -0.1045  0.3479
 1032TIP3    H124655   3.274   0.742   1.550 -1.2732  0.8761 -0.4116
 1032TIP3    H224656   3.328   0.882   1.567  0.6422  0.1168  0.0849
 1033TIP3   OH224657   6.183   0.273   1.710 -0.5428  0.7532 -0.5237
 1033TIP3    H124658   6.121   0.274   1.637  0.0157  2.4480 -1.0216
 1033TIP3    H224659   6.261   0.317   1.675 -0.0777  1.1260  0.9364
 1034TIP3   OH224660   3.886   1.181   1.202  0.1366 -0.3133  0.0438
 1034TIP3    H124661   3.916   1.250   1.142  0.1332 -0.5452 -0.2269
 1034TIP3    H224662   3.958   1.118   1.203 -0.0953 -0.5823 -0.1464
 1035TIP3   OH224663   2.385   3.863   7.896 -0.9961 -0.0659 -0.0988
 1035TIP3    H124664   2.445   3.844   7.824 -1.4818 -0.4447 -0.4125
 1035TIP3    H224665   2.390   3.958   7.908  0.1689 -0.1695  0.3394
 1036TIP3   OH224666   4.286   3.904   2.869 -0.2324 -0.2183 -0.4536
 1036TIP3    H124667   4.246   3.864   2.947 -0.5099 -0.1232 -0.5463
 1036TIP3    H224668   4.379   3.904   2.888 -0.3095 -0.0680 -0.0592
 1037TIP3   OH224669   2.158   1.538   7.720 -0.3208  0.2492 -0.2530
 1037TIP3    H124670   2.179   1.514   7.629  0.7677  0.3847 -0.0461
 1037TIP3    H224671   2.225   1.494   7.772 -0.4200  0.8923  0.4185
 1038TIP3   OH224672   3.754   5.284   8.450 -0.4297  0.5341 -0.1222
 1038TIP3    H124673   3.844   5.307   8.430 -0.4287  0.1808 -0.5461
 1038TIP3    H224674   3.707   5.367   8.452 -0.6657  0.5590 -2.7922
 1039TIP3   OH224675   1.126   0.586   2.448 -0.3357 -0.1019  0.6088
 1039TIP3    H124676   1.132   0.503   2.495  0.6191  0.3899  1.4100
 1039TIP3    H224677   1.217   0.614   2.438 -0.6626  2.0514  2.6379
 1040TIP3   OH224678   3.095   6.328   0.506  0.5924 -0.1002  0.2074
 1040TIP3    H124679   3.014   6.295   0.466  0.8606  0.0095 -0.4420
 1040TIP3    H224680   3.067   6.368   0.588 -0.0934  0.4456 -0.2861
 1041TIP3   OH224681   1.492   1.028   8.357 -0.4686  0.1743 -0.3530
 1041TIP3    H124682   1.462   1.082   8.284 -0.8371  2.4966  1.3748
 1041TIP3    H224683   1.587   1.034   8.354 -0.4518 -0.2957 -0.9992
 1042TIP3   OH224684   1.933   2.829   7.443 -0.0151  0.5429 -0.6633
 1042TIP3    H124685   1.870   2.772   7.488  1.2043 -0.4446 -0.1456
 1042TIP3    H224686   1.883   2.908   7.422 -1.0443  0.3935  1.0466
 1043TIP3   OH224687   3.733   2.963   0.232 -0.5122  0.2475 -0.1227
 1043TIP3    H124688   3.792   2.971   0.307 -0.0617 -3.4796  0.1252
 1043TIP3    H224689   3.646   2.960   0.270 -0.3959 -0.1484  0.1173
 1044TIP3   OH224690   2.174   2.631   0.890 -0.7102 -0.9152 -0.1334
 1044TIP3    H124691   2.090   2.641   0.935 -0.6400  1.5563 -0.4184
 1044TIP3    H224692   2.239   2.656   0.955 -0.4009 -0.2399 -0.6897
 1045TIP3   OH224693   2.692   6.780   7.906  0.1611  0.2153 -0.5706
 1045TIP3    H124694   2.618   6.724   7.930  0.5281 -0.0339  0.0168
 1045TIP3    H224695   2.661   6.830   7.831 -0.6557  0.2181 -0.2500
 1046TIP3   OH224696   2.151   1.925   0.495  0.2104  0.0012 -0.3378
 1046TIP3    H124697   2.136   2.019   0.506  0.9065  0.3216 -1.8609
 1046TIP3    H224698   2.222   1.905   0.557 -1.1073  0.0794  1.2682
 1047TIP3   OH224699   1.892   1.067   8.168 -0.0622 -0.0705  0.2803
 1047TIP3    H124700   1.932   1.139   8.218 -0.3377 -1.0398  1.9774
 1047TIP3    H224701   1.923   1.080   8.079 -0.3891  2.3610  0.4467
 1048TIP3   OH224702   5.692   3.211   0.514 -0.0286 -0.9182 -0.1716
 1048TIP3    H124703   5.758   3.278   0.529  0.0551  0.1835 -4.1913
 1048TIP3    H224704   5.608   3.257   0.526  0.0307 -0.0929 -2.4510
 1049TIP3   OH224705   2.455   5.260   3.109  0.6113 -0.1350 -0.4877
 1049TIP3    H124706   2.501   5.342   3.095  0.4560  0.3419  1.5007
 1049TIP3    H224707   2.477   5.206   3.032  1.3724  1.4366 -1.4152
 1050TIP3   OH224708   3.486   2.566   2.873 -0.0103 -0.4330  0.3487
 1050TIP3    H124709   3.457   2.654   2.851 -1.9329 -0.4978  2.2502
 1050TIP3    H224710   3.512   2.572   2.965 -1.7195 -2.1449  1.0082
 1051TIP3   OH224711   0.164   5.403   1.669  0.5645 -0.3060 -0.2799
 1051TIP3    H124712   0.184   5.318   1.631  1.4930  0.7865 -2.4180
 1051TIP3    H224713   0.123   5.453   1.598  2.2798  1.8073  0.0867
 1052TIP3   OH224714   0.429   3.330   1.167 -0.1612  0.5129 -0.3734
 1052TIP3    H124715   0.479   3.315   1.246 -0.3659  0.8243 -0.1836
 1052TIP3    H224716   0.382   3.412   1.183 -0.3018  0.5113 -0.7630
 1053TIP3   OH224717   1.513   1.935   7.000  0.0482  0.2004  0.4290
 1053TIP3    H124718   1.477   1.858   6.956 -0.8550  0.5333  0.5710
 1053TIP3    H224719   1.607   1.920   7.001 -0.1505 -1.0876  0.7999
 1054TIP3   OH224720   3.587   6.548   0.556  0.2096  0.0141 -0.5618
 1054TIP3    H124721   3.624   6.604   0.487  0.8190 -0.9351 -1.0249
 1054TIP3    H224722   3.594   6.600   0.635 -0.0515  0.9377 -1.1227
 1055TIP3   OH224723   2.253   4.735   8.425 -0.2578 -0.0575 -0.1915
 1055TIP3    H124724   2.306   4.703   8.498  0.4462  0.1698 -0.5843
 1055TIP3    H224725   2.244   4.660   8.367  0.4293  0.1410 -0.5669
 1056TIP3   OH224726   3.629   6.709   0.819  0.2022  0.4178 -0.0750
 1056TIP3    H124727   3.570   6.656   0.873  0.9262  0.2057  0.5217
 1056TIP3    H224728   3.638   6.791   0.867  2.6164 -0.5829  1.3351
 1057TIP3   OH224729   0.273   2.596   7.488 -0.4014  0.5104 -0.3958
 1057TIP3    H124730   0.241   2.679   7.455  0.7121  0.6808 -1.0976
 1057TIP3    H224731   0.343   2.571   7.427  0.9732  0.2939  1.1942
 1058TIP3   OH224732   2.480   3.831   3.321 -0.4926  0.0971 -0.2139
 1058TIP3    H124733   2.412   3.817   3.255 -0.1362 -0.3523 -0.4906
 1058TIP3    H224734   2.432   3.847   3.402 -0.9768 -2.8131  0.1700
 1059TIP3   OH224735   5.210   5.277   0.633 -0.5158  0.1372  0.0921
 1059TIP3    H124736   5.173   5.355   0.591 -2.7388 -0.1758  1.3353
 1059TIP3    H224737   5.209   5.211   0.564  0.4034  0.8809 -0.6744
 1060TIP3   OH224738   5.164   1.259   8.464  0.0811  0.3061  0.0798
 1060TIP3    H124739   5.230   1.275   8.395 -0.0712 -1.0130 -0.4037
 1060TIP3    H224740   5.216   1.241   8.542  0.3323 -0.8738 -0.3331
 1061TIP3   OH224741   0.240   5.067   8.509  0.0042 -0.0102 -0.7373
 1061TIP3    H124742   0.287   5.099   8.585 -0.6915 -0.7741  0.0316
 1061TIP3    H224743   0.308   5.040   8.448  0.8267 -4.8927  1.8680
 1062TIP3   OH224744   3.716   0.201   1.693 -0.4519  0.2986  0.0607
 1062TIP3    H124745   3.769   0.170   1.620 -0.6422  1.4380 -0.5799
 1062TIP3    H224746   3.627   0.203   1.659 -0.3197  2.5357 -0.2951
 1063TIP3   OH224747   1.160   4.684   0.059  0.4335  0.1634  0.1624
 1063TIP3    H124748   1.147   4.596   0.094  0.6325  0.2282  0.3992
 1063TIP3    H224749   1.241   4.714   0.099  1.8360 -0.5649 -1.9621
 1064TIP3   OH224750   1.149   1.633   0.503  0.2414 -0.0638  0.2984
 1064TIP3    H124751   1.059   1.649   0.531  0.3382  1.6948 -0.2577
 1064TIP3    H224752   1.145   1.640   0.407  0.9705 -0.0266  0.2693
 1065TIP3   OH224753   5.242   5.625   1.093 -0.4642 -0.0452  0.0638
 1065TIP3    H124754   5.237   5.595   1.002  1.1905  0.0183 -0.0796
 1065TIP3    H224755   5.206   5.553   1.144 -1.2503 -0.1514 -0.6169
 1066TIP3   OH224756   2.744   3.161   1.274  0.3726  0.0000  0.3261
 1066TIP3    H124757   2.809   3.142   1.207  0.2350  0.2922  0.1108
 1066TIP3    H224758   2.668   3.109   1.250 -0.1083  1.0189 -0.4261
 1067TIP3   OH224759   3.688   6.276   6.574 -0.9310 -0.8536 -0.3091
 1067TIP3    H124760   3.773   6.315   6.554 -0.9387 -0.5659  0.2146
 1067TIP3    H224761   3.632   6.350   6.598 -0.9735 -1.1700  0.5892
 1068TIP3   OH224762   0.741   5.516   7.934 -0.1311 -0.6990  0.0359
 1068TIP3    H124763   0.794   5.573   7.878  2.2638 -1.6090  1.2075
 1068TIP3    H224764   0.662   5.567   7.952 -1.2824 -0.5079 -4.3501
 1069TIP3   OH224765   2.706   0.482   0.998  0.6940 -0.2949 -0.6894
 1069TIP3    H124766   2.679   0.426   0.925 -1.7638  0.9994 -0.8720
 1069TIP3    H224767   2.764   0.546   0.957 -0.4059  0.2257 -1.4954
 1070TIP3   OH224768   2.383   0.494   1.921  0.3237 -0.1992  0.3016
 1070TIP3    H124769   2.343   0.428   1.977  0.5075 -1.6417 -1.1790
 1070TIP3    H224770   2.476   0.495   1.946 -0.1438  1.6033  2.2566
 1071TIP3   OH224771   4.340   0.093   7.869 -0.2729 -0.0194 -0.2388
 1071TIP3    H124772   4.423   0.052   7.843 -0.1831 -0.3029  0.4744
 1071TIP3    H224773   4.275   0.049   7.814  0.0076 -0.0190 -0.5808
 1072TIP3   OH224774   4.556   4.269   8.473  0.1930  0.8402  0.4548
 1072TIP3    H124775   4.540   4.305   8.560 -0.1354  0.9626  0.3462
 1072TIP3    H224776   4.629   4.320   8.438  0.1148  1.0056  0.5320
 1073TIP3   OH224777   1.904   6.293   1.209 -0.7026 -0.2836 -0.1442
 1073TIP3    H124778   1.961   6.354   1.162 -0.3547 -0.4960 -0.0002
 1073TIP3    H224779   1.842   6.263   1.143  1.3162 -2.5258 -1.1802
 1074TIP3   OH224780   2.909   0.164   7.487  0.1233 -0.1544  0.1880
 1074TIP3    H124781   2.950   0.206   7.563 -0.4369  0.5415  0.1185
 1074TIP3    H224782   2.982   0.140   7.430  0.5225 -0.3348  0.7738
 1075TIP3   OH224783   1.665   2.090   2.246  0.2853  0.0371 -0.2015
 1075TIP3    H124784   1.632   2.044   2.168 -2.4942  1.2405  0.1485
 1075TIP3    H224785   1.730   2.030   2.283 -0.5958 -1.9898 -1.7207
 1076TIP3   OH224786   1.803   6.413   0.349  0.1748  0.4530  0.3223
 1076TIP3    H124787   1.708   6.420   0.349  0.0467 -0.9799  0.0083
 1076TIP3    H224788   1.829   6.431   0.258  0.1552  0.3512  0.2963
 1077TIP3   OH224789   2.820   3.676   7.032  0.4204 -0.1809 -0.4244
 1077TIP3    H124790   2.886   3.716   7.088 -1.0368 -0.3234  1.4748
 1077TIP3    H224791   2.849   3.585   7.023  0.8656 -0.0617 -0.2257
 1078TIP3   OH224792   4.788   5.621   7.599 -0.7164 -0.1464  0.7473
 1078TIP3    H124793   4.761   5.675   7.674  0.0491 -1.0899  1.7257
 1078TIP3    H224794   4.780   5.680   7.524  1.3345  1.7752  1.9223
 1079TIP3   OH224795   4.877   5.217   8.539  0.3306 -0.4424  0.1802
 1079TIP3    H124796   4.941   5.189   8.604  1.5840  0.8052 -0.4512
 1079TIP3    H224797   4.877   5.313   8.547 -0.7362 -0.3789 -0.5162
 1080TIP3   OH224798   6.858   6.045   2.587  0.1300 -0.4579 -0.2565
 1080TIP3    H124799   6.793   6.090   2.533 -0.1692  0.6213  0.9716
 1080TIP3    H224800   6.807   6.004   2.657  0.6879 -0.3609  0.2109
 1081TIP3   OH224801   2.494   3.620   0.937  0.4775  0.1844  0.6184
 1081TIP3    H124802   2.498   3.645   1.030  0.1695 -0.2391  0.7502
 1081TIP3    H224803   2.585   3.624   0.907  0.6069  0.1165  0.9936
 1082TIP3   OH224804   3.376   1.850   0.460 -0.5802 -0.3123  0.5976
 1082TIP3    H124805   3.460   1.805   0.458 -0.7917 -0.6987 -0.9652
 1082TIP3    H224806   3.324   1.802   0.524 -0.3669 -1.5231 -0.1026
 1083TIP3   OH224807   3.251   0.877   7.604  0.1548 -0.2293  0.2500
 1083TIP3    H124808   3.200   0.798   7.619 -0.5691  0.0150 -0.8309
 1083TIP3    H224809   3.211   0.918   7.527  1.5610  0.3290 -0.2177
 1084TIP3   OH224810   4.349   4.693   1.629  0.1016 -0.8191  0.0294
 1084TIP3    H124811   4.396   4.752   1.570 -0.1176 -1.0550 -0.3903
 1084TIP3    H224812   4.257   4.703   1.605 -0.2502  0.7060  1.8014
 1085TIP3   OH224813   4.665   6.289   7.636  0.4198 -0.6206 -0.4697
 1085TIP3    H124814   4.623   6.213   7.675 -0.4956 -0.2038 -0.6017
 1085TIP3    H224815   4.637   6.288   7.544  0.1521  0.0269 -0.4034
 1086TIP3   OH224816   2.240   2.158   1.732  0.2303 -0.1105 -0.0737
 1086TIP3    H124817   2.189   2.102   1.675 -0.1124 -0.6507  0.7393
 1086TIP3    H224818   2.328   2.120   1.732  0.5202  0.5201 -1.0675
 1087TIP3   OH224819   1.964   4.614   8.158  0.3266  0.3890 -0.0275
 1087TIP3    H124820   1.966   4.709   8.174  0.8273  0.5362 -0.9380
 1087TIP3    H224821   1.875   4.588   8.182  0.7771  0.7141  2.2430
 1088TIP3   OH224822   4.920   1.594   8.494  0.0399 -0.4552 -0.5776
 1088TIP3    H124823   4.893   1.624   8.407 -1.0523 -0.5635 -0.2918
 1088TIP3    H224824   5.002   1.640   8.510 -0.7827  1.1671 -0.8236
 1089TIP3   OH224825   2.058   1.249   7.429  0.2928 -0.1667  0.2752
 1089TIP3    H124826   2.025   1.169   7.388 -1.1423  0.3212  0.4507
 1089TIP3    H224827   2.139   1.221   7.473  0.9616 -1.0549 -1.4073
 1090TIP3   OH224828   2.673   4.591   1.356  0.3857 -0.6862 -0.2321
 1090TIP3    H124829   2.709   4.680   1.365  0.0756 -0.5916  0.0920
 1090TIP3    H224830   2.696   4.565   1.267  2.7136 -1.2525  0.4543
 1091TIP3   OH224831   2.296   3.249   1.535  0.2731  0.0411  0.5587
 1091TIP3    H124832   2.362   3.261   1.603  0.2902 -0.5054  0.6445
 1091TIP3    H224833   2.317   3.164   1.496  1.2336  1.0616 -1.2074
 1092TIP3   OH224834   1.674   6.404   6.793  0.4620  0.3774 -0.3409
 1092TIP3    H124835   1.712   6.329   6.839  1.3198  0.4458 -0.8981
 1092TIP3    H224836   1.729   6.413   6.715 -0.3223  0.8979 -0.8425
 1093TIP3   OH224837   4.814   1.298   6.774  0.5855  0.2450 -0.5724
 1093TIP3    H124838   4.881   1.367   6.775 -0.6435  1.5027  1.1015
 1093TIP3    H224839   4.837   1.242   6.848  1.4182 -1.0192 -1.7618
 1094TIP3   OH224840   1.138   0.780   7.544 -0.0090  0.3536 -0.3373
 1094TIP3    H124841   1.058   0.775   7.596 -0.5195  0.8236 -1.0627
 1094TIP3    H224842   1.206   0.802   7.607 -0.9705  3.1878 -0.1599
 1095TIP3   OH224843   5.674   4.799   6.911  1.0455  0.2980 -0.3685
 1095TIP3    H124844   5.749   4.760   6.955  0.6746  1.4653  1.3949
 1095TIP3    H224845   5.706   4.882   6.876  0.9681  0.0354 -1.0987
 1096TIP3   OH224846   4.552   2.321   0.035  0.1646  0.6911  0.0985
 1096TIP3    H124847   4.462   2.350   0.018 -1.0650 -2.6444  0.1755
 1096TIP3    H224848   4.567   2.343   0.127 -0.6391  1.0908  0.1456
 1097TIP3   OH224849   5.508   0.288   0.024  0.1948  0.5310  0.2793
 1097TIP3    H124850   5.464   0.314   0.105  0.2621  0.8194  0.2245
 1097TIP3    H224851   5.438   0.281  -0.040  0.3486  2.2026 -0.1191
 1098TIP3   OH224852   3.707   2.968   8.404 -0.0194 -0.4686  0.2966
 1098TIP3    H124853   3.751   2.947   8.486 -0.2251 -2.2040 -0.0022
 1098TIP3    H224854   3.742   2.905   8.341 -1.5684 -0.7071 -0.3740
 1099TIP3   OH224855   1.226   6.109   8.436 -0.4087  0.3481  0.2451
 1099TIP3    H124856   1.173   6.188   8.421 -0.2074  0.4864  0.2677
 1099TIP3    H224857   1.203   6.081   8.524 -0.0365  0.7187  0.4614
 1100TIP3   OH224858   0.633   1.897   7.042 -0.1267 -0.0497  0.0438
 1100TIP3    H124859   0.681   1.815   7.043 -1.0062 -0.5953 -0.8668
 1100TIP3    H224860   0.544   1.874   7.067 -0.0709  0.8720  1.2180
 1101TIP3   OH224861   4.203   3.433   8.161 -0.0864 -0.4442  0.2541
 1101TIP3    H124862   4.153   3.355   8.187 -0.0758 -0.4219  0.3427
 1101TIP3    H224863   4.291   3.400   8.145  0.1752 -0.2944  1.2743
 1102TIP3   OH224864   5.009   2.441   2.086  0.0260 -0.2298  0.5056
 1102TIP3    H124865   4.915   2.435   2.070 -0.0856  1.7634  0.1250
 1102TIP3    H224866   5.021   2.403   2.173 -1.4428  1.1482  1.3625
 1103TIP3   OH224867   2.447   0.762   2.388  0.3412  0.3027  0.2665
 1103TIP3    H124868   2.465   0.834   2.448  2.4042 -0.7351  0.9970
 1103TIP3    H224869   2.435   0.686   2.444 -0.8516 -0.1151 -0.5260
 1104TIP3   OH224870   5.289   4.603   8.225  0.0707  0.4974  0.0808
 1104TIP3    H124871   5.306   4.695   8.202  0.7724  0.6305  1.0841
 1104TIP3    H224872   5.233   4.608   8.303 -0.7598  0.0545 -0.4660
 1105TIP3   OH224873   6.327   1.030   0.771 -0.6768 -0.2876 -0.0661
 1105TIP3    H124874   6.245   1.077   0.787 -0.3726 -0.5473  2.6332
 1105TIP3    H224875   6.376   1.088   0.713 -1.2258  1.7482  1.3798
 1106TIP3   OH224876   4.555   0.486   0.920  0.1080 -0.1338 -0.1351
 1106TIP3    H124877   4.521   0.540   0.991 -0.4950 -1.0533  0.2932
 1106TIP3    H224878   4.649   0.505   0.919 -0.0204  0.5916  0.2809
 1107TIP3   OH224879   5.573   3.824   1.279  0.2569 -0.0847 -0.0760
 1107TIP3    H124880   5.636   3.793   1.214  0.5091 -2.0539  1.0427
 1107TIP3    H224881   5.620   3.892   1.327  1.7804 -1.8324  1.0342
 1108TIP3   OH224882   1.548   5.616   8.611  0.2170 -0.2222  0.7380
 1108TIP3    H124883   1.457   5.643   8.599  0.6113  0.1965 -2.2401
 1108TIP3    H224884   1.597   5.698   8.610  0.8111 -0.5662 -0.5090
 1109TIP3   OH224885   6.138   1.514   1.099 -0.2178  0.3322  0.2242
 1109TIP3    H124886   6.107   1.540   1.013 -2.1605 -1.6821  0.2003
 1109TIP3    H224887   6.150   1.596   1.147 -0.6477  1.4243 -1.4595
 1110TIP3   OH224888   5.517   1.539   1.923 -0.4373 -0.1701  0.3770
 1110TIP3    H124889   5.574   1.478   1.970 -1.0662 -0.3857  0.8751
 1110TIP3    H224890   5.575   1.582   1.859 -0.0970 -1.6741 -0.3624
 1111TIP3   OH224891   2.832   3.374   7.862  0.2216  0.3260 -0.8011
 1111TIP3    H124892   2.804   3.293   7.820  0.7588 -1.1123  1.4597
 1111TIP3    H224893   2.920   3.389   7.828  1.0739 -1.4029  0.4850
 1112TIP3   OH224894   5.660   3.193   1.591 -0.3748 -0.4197 -0.0638
 1112TIP3    H124895   5.594   3.173   1.524  0.8923  1.0659 -1.8551
 1112TIP3    H224896   5.742   3.197   1.543  0.8238 -0.6790  1.8593
 1113TIP3   OH224897   2.568   6.191   0.525  0.5667  0.1045 -0.4863
 1113TIP3    H124898   2.522   6.193   0.441  0.7412 -0.4125 -0.5967
 1113TIP3    H224899   2.535   6.267   0.572  1.8916  1.5237 -1.7617
 1114TIP3   OH224900   4.715   3.386   7.623  0.5490 -0.6981  0.3813
 1114TIP3    H124901   4.670   3.305   7.649  0.2802 -0.9869 -0.9081
 1114TIP3    H224902   4.807   3.371   7.647  0.2214 -0.6504  1.7801
 1115TIP3   OH224903   5.510   3.706   7.035 -0.1181  0.2332 -0.3197
 1115TIP3    H124904   5.532   3.656   7.113 -0.3630  1.0277  0.2745
 1115TIP3    H224905   5.592   3.712   6.986 -0.0821 -0.7118 -0.3850
 1116TIP3   OH224906   5.644   4.928   1.542  0.1520  0.5175  0.0751
 1116TIP3    H124907   5.679   4.943   1.630  1.4219 -0.1742 -0.2859
 1116TIP3    H224908   5.550   4.943   1.551  0.1108 -0.4899  1.7707
 1117TIP3   OH224909   3.375   6.112   2.412  0.5231 -0.1101  0.0548
 1117TIP3    H124910   3.447   6.172   2.430  0.6564 -0.8638  2.3155
 1117TIP3    H224911   3.345   6.083   2.498 -1.7156 -0.7558 -0.8578
 1118TIP3   OH224912   6.333   0.893   8.525 -0.3627 -0.6876 -0.3136
 1118TIP3    H124913   6.397   0.902   8.454  0.6639 -1.4399  0.4742
 1118TIP3    H224914   6.266   0.835   8.490 -1.1553  0.8702 -1.4917
 1119TIP3   OH224915   3.738   2.532   1.225 -0.0217 -0.0933  0.6930
 1119TIP3    H124916   3.719   2.525   1.131  1.0459 -0.0538  0.4514
 1119TIP3    H224917   3.730   2.442   1.258 -0.9510 -0.0152  0.6810
 1120TIP3   OH224918   4.518   4.985   1.850 -0.0652 -0.1203 -0.2303
 1120TIP3    H124919   4.569   5.007   1.772 -0.4543 -0.8618 -0.7066
 1120TIP3    H224920   4.582   4.947   1.910 -0.2130 -2.2423 -1.3113
 1121TIP3   OH224921   1.990   6.636   7.505  0.8035  0.3081  0.0758
 1121TIP3    H124922   2.007   6.682   7.587  0.0661  0.2605  0.2692
 1121TIP3    H224923   2.034   6.552   7.514  0.2546  0.0756  0.6650
 1122TIP3   OH224924   6.868   6.783   2.244 -0.5055  0.1505  0.4353
 1122TIP3    H124925   6.911   6.868   2.251 -0.7789  0.2033  1.7762
 1122TIP3    H224926   6.792   6.790   2.302 -2.0841 -0.0945 -1.5228
 1123TIP3   OH224927   4.745   2.938   7.632  0.4051  0.3451  0.0646
 1123TIP3    H124928   4.758   2.864   7.691 -1.1124 -0.8245 -0.9867
 1123TIP3    H224929   4.808   2.923   7.561 -0.8324 -0.7944 -0.8643
 1124TIP3   OH224930   5.375   4.395   0.998  0.5992 -0.3183 -0.2887
 1124TIP3    H124931   5.396   4.343   0.921  0.0488 -0.3209 -0.4450
 1124TIP3    H224932   5.445   4.459   1.004  0.2435  0.1893 -1.2600
 1125TIP3   OH224933   4.128   0.687   8.230 -0.6994 -0.0141  0.2172
 1125TIP3    H124934   4.084   0.742   8.164  0.8180  0.4215 -0.4896
 1125TIP3    H224935   4.154   0.749   8.299  1.5676  0.3575 -0.8716
 1126TIP3   OH224936   4.256   3.416   1.282 -0.2327 -0.3576 -0.7653
 1126TIP3    H124937   4.259   3.395   1.375 -0.8509  0.7057 -0.4774
 1126TIP3    H224938   4.317   3.490   1.272 -1.8415  1.0350 -0.7352
 1127TIP3   OH224939   6.673   4.139   2.223 -0.1722 -0.3697 -0.1434
 1127TIP3    H124940   6.642   4.064   2.274  1.8563 -0.6149  0.8219
 1127TIP3    H224941   6.768   4.134   2.227  0.0335  1.2077 -1.6624
 1128TIP3   OH224942   5.031   4.757   0.819  0.6724  0.1603 -0.6920
 1128TIP3    H124943   5.114   4.782   0.779  0.5590  2.0208  0.1207
 1128TIP3    H224944   4.975   4.834   0.807 -1.2474 -1.3246 -1.9354
 1129TIP3   OH224945   2.353   1.385   1.021  0.5492  0.2500 -0.5211
 1129TIP3    H124946   2.294   1.401   1.095 -0.9953  0.1627 -1.6684
 1129TIP3    H224947   2.422   1.451   1.030  0.1794  0.4918  0.7669
 1130TIP3   OH224948   4.247   4.321   7.852 -0.5443 -0.4752  0.0343
 1130TIP3    H124949   4.313   4.367   7.905  0.3966  0.9738 -2.2402
 1130TIP3    H224950   4.264   4.350   7.763 -2.9863 -1.6880 -0.9089
 1131TIP3   OH224951   4.168   1.597   1.643  0.0134  0.0537 -0.1292
 1131TIP3    H124952   4.114   1.545   1.583 -0.1314 -1.1592  0.9951
 1131TIP3    H224953   4.246   1.619   1.593 -0.8817  0.6252 -1.3321
 1132TIP3   OH224954   4.018   2.609   1.210 -0.3038 -0.4727  0.1613
 1132TIP3    H124955   3.939   2.556   1.223 -0.6186  0.1279  0.7822
 1132TIP3    H224956   3.990   2.699   1.229  0.5952 -0.2874  0.6849
 1133TIP3   OH224957   4.367   2.440   1.106  0.3707 -1.0746 -0.0111
 1133TIP3    H124958   4.449   2.451   1.153 -0.4866  0.2394  1.2844
 1133TIP3    H224959   4.391   2.443   1.014  1.5163  1.9419  0.3001
 1134TIP3   OH224960   3.558   4.987   8.050  0.2529 -0.0406 -0.1086
 1134TIP3    H124961   3.576   5.045   7.976  0.3473 -1.0322 -0.8688
 1134TIP3    H224962   3.610   5.025   8.122  2.2344 -0.5161 -1.2085
 1135TIP3   OH224963   1.009   3.989   8.640 -0.6379 -0.2531  0.1852
 1135TIP3    H124964   0.993   3.900   8.607 -0.0498 -0.8048  1.3206
 1135TIP3    H224965   0.939   4.004   8.703 -0.6939  0.0683  0.0461
 1136TIP3   OH224966   5.883   6.156   1.600 -0.5358 -0.1785 -0.1786
 1136TIP3    H124967   5.794   6.186   1.619 -0.3634 -0.0075  0.4025
 1136TIP3    H224968   5.922   6.226   1.549 -0.3993  0.2310  0.4723
 1137TIP3   OH224969   0.862   4.091   7.131  0.9230  0.5383  0.3469
 1137TIP3    H124970   0.902   4.094   7.044  0.7401  1.7584  0.2832
 1137TIP3    H224971   0.931   4.056   7.188  1.5395  1.0553 -0.0541
 1138TIP3   OH224972   0.217   4.481   2.594  0.2916  0.6183 -0.1609
 1138TIP3    H124973   0.268   4.504   2.672  0.1995  0.7166 -0.1299
 1138TIP3    H224974   0.226   4.557   2.537  0.1275  0.6611 -0.1297
 1139TIP3   OH224975   2.366   5.083   2.688  0.3173  0.4083  0.6533
 1139TIP3    H124976   2.296   5.130   2.643  0.3274  1.6346  1.8554
 1139TIP3    H224977   2.410   5.033   2.619 -0.4716  1.2046 -0.4574
 1140TIP3   OH224978   5.472   3.589   2.684 -0.2641 -0.0465  0.3024
 1140TIP3    H124979   5.549   3.538   2.661  0.4173  0.6438  1.0043
 1140TIP3    H224980   5.430   3.609   2.600 -1.0723 -2.5118  0.0488
 1141TIP3   OH224981   3.400   2.021   0.785 -0.0134  0.7776 -0.2214
 1141TIP3    H124982   3.452   2.022   0.865 -0.3623  0.4171  0.0107
 1141TIP3    H224983   3.347   2.100   0.790  1.3622  1.8007 -1.0341
 1142TIP3   OH224984   0.165   0.990   0.608  0.1351  0.2118  0.1117
 1142TIP3    H124985   0.146   0.898   0.627 -0.2717 -0.2704 -2.3031
 1142TIP3    H224986   0.079   1.031   0.603  0.3312  0.8917  1.6905
 1143TIP3   OH224987   6.774   1.359   1.342 -0.4786  0.2642  0.3886
 1143TIP3    H124988   6.749   1.450   1.355  1.6276  0.9339  0.1584
 1143TIP3    H224989   6.870   1.359   1.351 -0.2609 -1.6408 -1.2401
 1144TIP3   OH224990   0.531   6.369   2.049 -0.2536  0.3249 -0.3060
 1144TIP3    H124991   0.588   6.394   1.976 -0.6482  1.1864 -0.3325
 1144TIP3    H224992   0.446   6.351   2.009 -0.7384  1.7538  0.0295
 1145TIP3   OH224993   4.294   3.823   8.608  0.0752  0.4378  0.0399
 1145TIP3    H124994   4.308   3.731   8.630 -0.1312  0.5905  0.8526
 1145TIP3    H224995   4.372   3.848   8.558  0.7457  0.1607  0.9157
 1146TIP3   OH224996   0.483   5.106   1.259 -0.1584  0.0480 -0.7793
 1146TIP3    H124997   0.562   5.153   1.288 -1.2618  1.7767 -0.4281
 1146TIP3    H224998   0.501   5.082   1.168  0.1995  1.8107 -1.2089
 1147TIP3   OH224999   6.445   3.440   7.535  0.2289 -0.3182 -0.3903
 1147TIP3    H125000   6.392   3.516   7.509  1.1695  0.1951 -0.8710
 1147TIP3    H225001   6.394   3.364   7.508 -1.1225  0.1048  0.8589
 1148TIP3   OH225002   1.926   2.750   8.230 -0.4377 -0.4408 -0.3279
 1148TIP3    H125003   1.947   2.807   8.155 -0.0710  0.8414  0.7053
 1148TIP3    H225004   1.939   2.661   8.197 -1.7040  0.0161 -2.2146
 1149TIP3   OH225005   3.905   3.214   7.420 -0.6666 -0.0191  0.3694
 1149TIP3    H125006   3.928   3.136   7.370 -0.6032 -0.2869  0.8140
 1149TIP3    H225007   3.815   3.233   7.395 -0.4981  0.0953 -0.1648
 1150TIP3   OH225008   5.458   0.743   2.887 -0.0384 -0.3453  0.4522
 1150TIP3    H125009   5.368   0.730   2.858 -0.2556  0.7578  0.5815
 1150TIP3    H225010   5.478   0.834   2.863  0.8136 -0.3678  1.0265
 1151TIP3   OH225011   5.589   1.906   1.307 -0.7208 -0.2202  0.1108
 1151TIP3    H125012   5.496   1.906   1.283 -0.7407 -0.5113  0.1847
 1151TIP3    H225013   5.621   1.991   1.279 -1.0477 -0.0570  0.2261
 1152TIP3   OH225014   6.792   2.380   0.255 -0.2185  0.3764 -0.0882
 1152TIP3    H125015   6.777   2.365   0.162  3.6612 -3.4112 -0.4122
 1152TIP3    H225016   6.874   2.430   0.258 -1.0584  1.7755  1.3957
 1153TIP3   OH225017   3.807   3.834   7.766  0.1309 -0.1899  0.1892
 1153TIP3    H125018   3.837   3.915   7.807 -1.9161  1.2449 -0.9716
 1153TIP3    H225019   3.877   3.812   7.705  1.2203  0.0585  1.3067
 1154TIP3   OH225020   6.438   6.859   2.092  0.2646  0.0719  0.0060
 1154TIP3    H125021   6.358   6.897   2.130  0.0938 -0.8487  0.5907
 1154TIP3    H225022   6.506   6.876   2.156  0.7783  1.6916 -0.9083
 1155TIP3   OH225023   5.554   0.984   8.032 -0.4401 -0.3929  0.5105
 1155TIP3    H125024   5.602   1.010   7.953  1.3232 -0.1166  1.6134
 1155TIP3    H225025   5.507   0.905   8.006 -1.1094  0.5018 -1.2139
 1156TIP3   OH225026   3.303   0.253   0.695 -0.4140  0.5284  0.0344
 1156TIP3    H125027   3.213   0.276   0.673  0.2395  1.6739 -1.6573
 1156TIP3    H225028   3.354   0.279   0.618  1.3000 -0.5672  0.7402
 1157TIP3   OH225029   0.998   0.703   1.219  0.1524  0.5296 -0.4935
 1157TIP3    H125030   0.943   0.626   1.229 -0.3687  0.7446 -1.5579
 1157TIP3    H225031   1.026   0.701   1.128  1.3874  0.7844 -0.1358
 1158TIP3   OH225032   1.706   5.447   2.131 -0.4839  0.3785  0.2193
 1158TIP3    H125033   1.670   5.488   2.210  2.2287  0.4463  1.5308
 1158TIP3    H225034   1.713   5.354   2.153 -0.3332  0.2866 -0.2130
 1159TIP3   OH225035   3.435   1.108   8.548  0.2548 -0.2171  0.4804
 1159TIP3    H125036   3.449   1.037   8.610  1.5316 -0.7479 -0.3742
 1159TIP3    H225037   3.512   1.105   8.491 -0.7523  0.4044 -0.9620
 1160TIP3   OH225038   4.404   3.015   1.360 -0.0364 -0.4391  0.4030
 1160TIP3    H125039   4.442   3.018   1.273 -0.4360 -1.0992  0.1929
 1160TIP3    H225040   4.432   2.931   1.396 -0.3027 -0.4056  0.6999
 1161TIP3   OH225041   2.421   6.713   7.213  0.6404 -0.7409 -0.4583
 1161TIP3    H125042   2.436   6.786   7.274 -1.6656  0.4776 -1.2449
 1161TIP3    H225043   2.353   6.661   7.256  0.9797 -1.4204 -0.7458
 1162TIP3   OH225044   4.945   4.530   8.174  0.3031  0.2644  0.1310
 1162TIP3    H125045   4.946   4.623   8.150  0.2229  0.4968  0.9898
 1162TIP3    H225046   4.912   4.485   8.096 -1.7267  1.1693  0.4219
 1163TIP3   OH225047   4.263   1.909   7.957  0.2033 -0.5109 -0.2074
 1163TIP3    H125048   4.241   1.984   8.013  1.1710 -0.3842  0.0253
 1163TIP3    H225049   4.180   1.885   7.915 -0.3084  0.1028  0.4236
 1164TIP3   OH225050   3.009   4.069   1.257 -0.1731 -0.0012 -0.5775
 1164TIP3    H125051   3.093   4.086   1.214  0.6546  0.8207  1.2547
 1164TIP3    H225052   2.968   4.155   1.263  0.8666  0.4246  2.3957
 1165TIP3   OH225053   6.220   4.392   0.215 -0.1134  0.2596 -0.3844
 1165TIP3    H125054   6.156   4.460   0.192  0.3023 -0.0451 -2.6368
 1165TIP3    H225055   6.166   4.316   0.237 -0.5945  1.2810  2.3885
 1166TIP3   OH225056   5.070   2.189   0.526 -0.3546  0.3352  0.2853
 1166TIP3    H125057   4.986   2.211   0.565 -1.0031 -2.1680  0.4971
 1166TIP3    H225058   5.051   2.174   0.434 -0.3391 -0.9791  0.4737
 1167TIP3   OH225059   4.818   2.816   0.385  0.3188 -0.4608 -0.5242
 1167TIP3    H125060   4.748   2.756   0.363  0.0431 -0.2022 -0.3706
 1167TIP3    H225061   4.895   2.761   0.398 -0.2292 -0.9255  0.9072
 1168TIP3   OH225062   6.318   5.931   2.256 -0.8565 -0.4045 -0.2979
 1168TIP3    H125063   6.263   5.855   2.241 -4.0542  1.8061 -0.7591
 1168TIP3    H225064   6.333   5.932   2.350  0.6661 -2.4115 -0.4569
 1169TIP3   OH225065   5.617   3.514   7.213 -0.5067  0.1651 -0.2468
 1169TIP3    H125066   5.644   3.427   7.183  0.1287  0.0354  0.6682
 1169TIP3    H225067   5.670   3.530   7.291 -1.3867  0.9222  0.2137
 1170TIP3   OH225068   4.075   3.873   6.336  0.0009 -0.4030  0.1472
 1170TIP3    H125069   4.043   3.956   6.301  1.0877 -0.9003 -2.2373
 1170TIP3    H225070   4.044   3.807   6.275  0.3460 -1.6112  1.2194
 1171TIP3   OH225071   0.304   4.779   7.387 -0.6744  0.3454 -0.2662
 1171TIP3    H125072   0.351   4.851   7.428  0.7761 -0.5754 -0.2677
 1171TIP3    H225073   0.370   4.711   7.373 -2.0885 -1.1949  0.1809
 1172TIP3   OH225074   0.177   6.407   1.734 -0.2412  0.0624  0.4380
 1172TIP3    H125075   0.156   6.343   1.666 -0.2073 -0.3210  0.7850
 1172TIP3    H225076   0.107   6.472   1.729 -0.3188 -0.0450  0.1365
 1173TIP3   OH225077   3.668   1.998   7.199  0.3272  0.1686  0.0519
 1173TIP3    H125078   3.714   1.946   7.133  1.1510  0.6587  0.2229
 1173TIP3    H225079   3.614   2.059   7.150 -1.5599 -1.5877 -0.1626
 1174TIP3   OH225080   5.814   2.273   0.562 -0.4327  0.3768  0.1799
 1174TIP3    H125081   5.827   2.257   0.468  0.0394  1.6236  0.0105
 1174TIP3    H225082   5.890   2.233   0.604  0.5768  1.8334 -0.2022
 1175TIP3   OH225083   6.339   4.075   1.722 -0.0022 -0.2760  0.4768
 1175TIP3    H125084   6.259   4.048   1.767  0.7844 -1.4803  1.1982
 1175TIP3    H225085   6.405   4.082   1.792  0.7461 -0.2016 -0.2203
 1176TIP3   OH225086   4.125   2.812   8.296 -0.0860  0.2241 -0.7820
 1176TIP3    H125087   4.109   2.876   8.227  0.6647 -0.0770 -1.2431
 1176TIP3    H225088   4.107   2.727   8.256  1.3512 -0.0275 -0.9371
 1177TIP3   OH225089   1.209   3.573   8.074 -0.1866  0.3818 -0.2546
 1177TIP3    H125090   1.302   3.553   8.076 -0.1078  0.5310 -1.7742
 1177TIP3    H225091   1.190   3.596   7.983 -1.1666  3.0487  0.5192
 1178TIP3   OH225092   2.117   0.118   1.336  0.8687  0.1063  0.1112
 1178TIP3    H125093   2.174   0.080   1.403  1.0892  0.9523  0.4279
 1178TIP3    H225094   2.138   0.071   1.256  1.6943  0.0913  0.3250
 1179TIP3   OH225095   1.870   0.876   1.153 -0.0703 -0.1547 -0.5053
 1179TIP3    H125096   1.921   0.957   1.163  0.1928 -0.2935 -0.7176
 1179TIP3    H225097   1.783   0.899   1.185  0.1758  0.0286  0.0484
 1180TIP3   OH225098   1.987   1.809   2.127  0.2140 -0.5908 -0.1937
 1180TIP3    H125099   1.990   1.790   2.034 -0.2965  2.5533 -0.9796
 1180TIP3    H225100   2.075   1.839   2.149 -0.2012  0.7899 -0.2720
 1181TIP3   OH225101   4.775   0.393   3.081 -0.0338 -0.2882 -0.1058
 1181TIP3    H125102   4.766   0.301   3.057  0.4681 -0.0375 -1.3197
 1181TIP3    H225103   4.822   0.433   3.008 -0.0184  0.8868  0.5143
 1182TIP3   OH225104   0.260   0.563   7.671  0.5262 -0.3575  0.0409
 1182TIP3    H125105   0.331   0.533   7.615  1.4727 -1.9627  1.9922
 1182TIP3    H225106   0.197   0.490   7.672 -0.2323  0.2756 -0.1302
 1183TIP3   OH225107   4.103   2.014   2.823  0.0139  0.0927  0.0878
 1183TIP3    H125108   4.197   2.032   2.820 -0.3606  2.9937  2.1727
 1183TIP3    H225109   4.063   2.085   2.774 -1.1927 -0.2701  0.5069
 1184TIP3   OH225110   0.343   1.467   8.625  0.4749  0.3974  0.2371
 1184TIP3    H125111   0.355   1.387   8.574  1.1274 -0.5921  1.8503
 1184TIP3    H225112   0.426   1.515   8.616  0.1465  0.8332 -0.5875
 1185TIP3   OH225113   6.100   3.124   0.614  0.4843  0.1761 -0.0454
 1185TIP3    H125114   6.028   3.186   0.606  2.1919  2.0972 -1.6986
 1185TIP3    H225115   6.074   3.050   0.559  0.0696  1.2078 -1.2987
 1186TIP3   OH225116   3.078   6.705   8.239 -0.2734  0.1523  0.2877
 1186TIP3    H125117   2.997   6.659   8.264 -0.8684  1.3340  0.6264
 1186TIP3    H225118   3.067   6.793   8.276  0.4776  0.8152 -1.0184
 1187TIP3   OH225119   6.549   5.550   0.216  0.1245 -0.6769  0.5418
 1187TIP3    H125120   6.471   5.570   0.268 -0.2574 -0.0172 -0.2700
 1187TIP3    H225121   6.621   5.593   0.262 -0.4025  1.0377 -0.1490
 1188TIP3   OH225122   3.128   1.873   1.005 -0.5933 -0.4090  0.1721
 1188TIP3    H125123   3.156   1.950   1.054 -0.6774  0.6590 -1.3671
 1188TIP3    H225124   3.198   1.809   1.018 -0.1205  0.2239  0.8109
 1189TIP3   OH225125   3.534   3.717   7.529 -0.5313  0.3090  0.2737
 1189TIP3    H125126   3.565   3.773   7.600 -1.4789  0.5163  0.5406
 1189TIP3    H225127   3.606   3.716   7.466 -0.8303  2.6108 -0.1931
 1190TIP3   OH225128   6.601   3.284   8.393  0.2888  0.0635 -0.4852
 1190TIP3    H125129   6.574   3.362   8.345  3.4067  1.5422 -0.1419
 1190TIP3    H225130   6.548   3.285   8.473 -0.0345  1.6075 -0.6936
 1191TIP3   OH225131   4.501   2.457   8.003 -0.3122 -0.3159 -0.1044
 1191TIP3    H125132   4.512   2.422   7.914  1.1666  1.6730 -0.7668
 1191TIP3    H225133   4.436   2.527   7.993 -0.5341 -0.4283  0.5085
 1192TIP3   OH225134   1.810   4.902   0.647  0.5120  0.2366  0.1043
 1192TIP3    H125135   1.807   4.983   0.698  0.0129  0.0074  0.4431
 1192TIP3    H225136   1.720   4.870   0.646  0.4227  0.4754 -1.3241
 1193TIP3   OH225137   3.857   0.880   1.164 -0.2926  0.3606 -0.2005
 1193TIP3    H125138   3.790   0.826   1.122  0.5838 -0.4554 -0.5701
 1193TIP3    H225139   3.916   0.905   1.093 -0.6299  1.7564 -0.0283
 1194TIP3   OH225140   0.800   0.883   0.993  0.0269 -0.8431  0.4816
 1194TIP3    H125141   0.893   0.859   0.984  0.7770  2.3577 -1.7210
 1194TIP3    H225142   0.754   0.822   0.935  1.0090 -1.1120 -0.0378
 1195TIP3   OH225143   0.812   0.391   1.937 -0.4855  0.3212  0.7313
 1195TIP3    H125144   0.737   0.435   1.897 -0.6252 -0.7894 -0.2759
 1195TIP3    H225145   0.786   0.300   1.944  0.5818  0.0067  0.8251
 1196TIP3   OH225146   6.573   2.429   1.485  0.0781 -0.2813  0.4111
 1196TIP3    H125147   6.634   2.372   1.438 -0.1063 -0.2776  0.1632
 1196TIP3    H225148   6.524   2.370   1.542  0.5102 -0.2437  0.8211
 1197TIP3   OH225149   0.428   4.483   6.952 -0.9669  0.0594  0.0817
 1197TIP3    H125150   0.505   4.447   6.996 -1.8578 -0.8171  0.9900
 1197TIP3    H225151   0.372   4.514   7.024 -0.3969  3.0779 -0.6330
 1198TIP3   OH225152   6.319   2.106   0.287  0.0800  0.3832 -0.2343
 1198TIP3    H125153   6.277   2.026   0.257 -3.7413  2.0972 -0.0193
 1198TIP3    H225154   6.333   2.158   0.208 -1.9323  1.3412 -0.0395
 1199TIP3   OH225155   6.798   6.633   1.766 -0.5480  0.0420  0.0598
 1199TIP3    H125156   6.710   6.596   1.775  0.4521 -2.6015 -0.2884
 1199TIP3    H225157   6.836   6.626   1.854 -0.4102  0.4503  0.0349
 1200TIP3   OH225158   2.639   4.988   0.744  0.1114 -0.2378 -0.2359
 1200TIP3    H125159   2.688   5.002   0.825  0.6887 -2.4903 -0.1052
 1200TIP3    H225160   2.549   5.009   0.765 -0.0257 -2.2609  1.5328
 1201TIP3   OH225161   2.396   5.405   1.797 -0.4712 -0.3928  0.3943
 1201TIP3    H125162   2.374   5.427   1.707  0.3499  0.7541  0.4577
 1201TIP3    H225163   2.424   5.487   1.836 -0.7395 -0.8907  1.6825
 1202TIP3   OH225164   0.668   6.175   0.631  0.1896  0.2835 -0.1207
 1202TIP3    H125165   0.585   6.223   0.635  0.5135  1.0590 -1.9882
 1202TIP3    H225166   0.706   6.186   0.718 -0.7150  1.6607  0.1237
 1203TIP3   OH225167   5.306   4.171   7.488  0.7776  1.1516 -0.1649
 1203TIP3    H125168   5.249   4.109   7.532 -0.4351  2.2728 -0.0984
 1203TIP3    H225169   5.266   4.184   7.402  1.9518  0.5836 -0.8192
 1204TIP3   OH225170   2.569   3.142   7.583 -0.3392 -0.2741  0.2903
 1204TIP3    H125171   2.608   3.119   7.499  1.0868  1.1869  0.5131
 1204TIP3    H225172   2.494   3.082   7.592  0.0734 -1.1217 -1.5339
 1205TIP3   OH225173   6.415   0.936   1.696  0.3235  0.2588 -0.0402
 1205TIP3    H125174   6.399   0.869   1.629 -0.3863  0.8394 -0.4670
 1205TIP3    H225175   6.410   0.889   1.779 -0.2606 -0.2031 -0.3315
 1206TIP3   OH225176   4.713   0.407   7.672 -0.0697 -0.5976 -0.3237
 1206TIP3    H125177   4.652   0.442   7.607 -0.7267  0.1732  0.6911
 1206TIP3    H225178   4.796   0.453   7.654 -0.6831  0.8611  0.4210
 1207TIP3   OH225179   3.471   5.797   1.075  0.2560 -0.2559  0.1621
 1207TIP3    H125180   3.520   5.772   0.997 -0.1657 -1.9318  0.3895
 1207TIP3    H225181   3.536   5.791   1.146  0.6200  1.1919 -0.0204
 1208TIP3   OH225182   3.312   4.693   1.971 -0.3475  0.3098 -0.1085
 1208TIP3    H125183   3.322   4.701   2.066 -0.3714  0.4651 -0.1194
 1208TIP3    H225184   3.263   4.612   1.959  0.5575 -0.2610 -0.0317
 1209TIP3   OH225185   4.746   5.028   8.231 -0.0026  0.1057  0.0698
 1209TIP3    H125186   4.736   4.953   8.288  0.6909  0.2178  0.3476
 1209TIP3    H225187   4.841   5.042   8.225  0.0192 -0.5831 -1.9861
 1210TIP3   OH225188   4.361   6.132   6.607  0.0602 -0.2768  0.5567
 1210TIP3    H125189   4.281   6.154   6.655 -1.2035 -0.3291 -1.4021
 1210TIP3    H225190   4.391   6.215   6.571  0.6767 -0.3239  0.9517
 1211TIP3   OH225191   2.702   0.386   7.115 -0.6688 -0.1269  0.6995
 1211TIP3    H125192   2.714   0.295   7.140  1.6074  0.3737  1.6509
 1211TIP3    H225193   2.757   0.397   7.037 -2.2756  0.0472 -0.4560
 1212TIP3   OH225194   3.927   4.450   0.821 -0.0367 -0.0174  0.0846
 1212TIP3    H125195   3.974   4.466   0.902  0.9453 -0.7002 -0.3209
 1212TIP3    H225196   3.950   4.360   0.797 -0.9434 -0.1059 -0.5377
 1213TIP3   OH225197   4.472   1.745   8.113  0.1242  0.0711  0.6936
 1213TIP3    H125198   4.383   1.779   8.110  0.6948  1.6145  0.2520
 1213TIP3    H225199   4.466   1.658   8.073 -1.3412 -0.2723  1.5866
 1214TIP3   OH225200   6.207   4.311   8.579  0.5788 -0.5320  0.7121
 1214TIP3    H125201   6.267   4.356   8.519  0.9005 -0.8053  0.8281
 1214TIP3    H225202   6.244   4.329   8.666  0.6072 -0.8722  0.7693
 1215TIP3   OH225203   1.522   3.775   0.393 -0.4656 -0.0525 -0.4864
 1215TIP3    H125204   1.566   3.823   0.462  0.6599 -0.4524 -0.9127
 1215TIP3    H225205   1.557   3.686   0.398 -1.3859 -0.4455 -0.6971
 1216TIP3   OH225206   3.854   4.081   7.516  0.3951 -0.0905  0.3064
 1216TIP3    H125207   3.853   4.168   7.555  0.4395 -0.1586  0.4602
 1216TIP3    H225208   3.761   4.058   7.506  0.3836 -0.0210  0.2531
 1217TIP3   OH225209   1.556   5.720   1.280  0.7993  0.7815  0.2410
 1217TIP3    H125210   1.629   5.716   1.218  1.3478 -0.0723  0.9103
 1217TIP3    H225211   1.591   5.765   1.356  0.8823 -0.2696  0.8539
 1218TIP3   OH225212   3.691   0.987   0.642 -1.1285 -0.3132 -0.5400
 1218TIP3    H125213   3.710   1.037   0.721 -1.2409 -0.1423 -0.6180
 1218TIP3    H225214   3.666   1.054   0.577  0.9043 -0.2447 -1.3124
 1219TIP3   OH225215   6.308   1.258   8.335  0.5347 -0.1810  0.2477
 1219TIP3    H125216   6.394   1.285   8.366  0.8671 -1.0104  0.0652
 1219TIP3    H225217   6.324   1.180   8.283 -0.0309  0.9441 -1.7350
 1220TIP3   OH225218   2.176   2.503   2.606  0.0187 -0.0839 -0.5625
 1220TIP3    H125219   2.216   2.419   2.629  0.4785  0.4217  0.5416
 1220TIP3    H225220   2.091   2.502   2.649  0.6192  0.5956  0.7061
 1221TIP3   OH225221   5.025   3.212   0.848 -0.7192 -0.5064  0.2387
 1221TIP3    H125222   5.072   3.129   0.842  1.7008  0.8513 -1.1659
 1221TIP3    H225223   5.036   3.253   0.762 -3.7476  0.3743  0.1338
 1222TIP3   OH225224   2.593   4.561   2.044 -0.5353  0.0620  0.3593
 1222TIP3    H125225   2.589   4.611   1.963  1.2767  1.3626  1.0164
 1222TIP3    H225226   2.576   4.470   2.017  0.6850  0.3684 -1.5831
 1223TIP3   OH225227   6.856   1.857   7.971  0.0792 -0.5116 -0.3099
 1223TIP3    H125228   6.848   1.853   7.875 -3.1915 -2.1670 -0.1033
 1223TIP3    H225229   6.786   1.800   8.003 -0.3753  1.7225  3.1294
 1224TIP3   OH225230   1.083   1.097   7.726  0.3345 -0.5615 -0.3977
 1224TIP3    H125231   1.121   1.155   7.659  1.1544 -0.2089  0.3544
 1224TIP3    H225232   1.054   1.156   7.795 -2.1067 -0.7669 -1.1424
 1225TIP3   OH225233   2.249   5.157   1.958  0.6293  0.3037  0.4688
 1225TIP3    H125234   2.284   5.227   1.902  0.2844 -0.1139 -0.2871
 1225TIP3    H225235   2.155   5.161   1.944  0.5799 -0.0791  0.7078
 1226TIP3   OH225236   6.215   3.657   8.327  0.3853 -0.0335  0.2300
 1226TIP3    H125237   6.143   3.707   8.366  0.6082  0.3575  0.1507
 1226TIP3    H225238   6.268   3.628   8.401 -0.3020 -1.0323  0.3451
 1227TIP3   OH225239   5.449   3.397   0.596 -0.6051  0.5959  0.4857
 1227TIP3    H125240   5.387   3.444   0.541 -1.1813 -0.3325  0.3142
 1227TIP3    H225241   5.475   3.460   0.663 -0.0290  1.6938 -0.7272
 1228TIP3   OH225242   3.031   1.087   8.645 -0.7209 -0.2094  0.2907
 1228TIP3    H125243   3.019   1.010   8.590 -0.3817  0.0530 -0.1484
 1228TIP3    H225244   2.974   1.070   8.721 -0.0805 -1.2362  0.5668
 1229TIP3   OH225245   3.572   5.300   8.135 -0.3990 -0.1614 -0.1402
 1229TIP3    H125246   3.484   5.325   8.105 -0.6801 -1.4884 -0.5007
 1229TIP3    H225247   3.623   5.381   8.131 -1.4802  0.5288 -0.3865
 1230TIP3   OH225248   0.561   2.567   1.022 -0.5040 -0.1426 -0.3618
 1230TIP3    H125249   0.521   2.651   1.002  0.0333  0.1811 -0.0926
 1230TIP3    H225250   0.515   2.504   0.967  0.4386  0.6042 -2.0630
 1231TIP3   OH225251   0.808   4.024   0.160 -0.5155 -1.0035  0.4686
 1231TIP3    H125252   0.876   4.020   0.227 -1.1005 -0.9079  1.0778
 1231TIP3    H225253   0.758   4.103   0.181 -0.4458 -0.7371 -0.3378
 1232TIP3   OH225254   4.718   5.008   7.833 -0.1002 -0.0372 -0.0355
 1232TIP3    H125255   4.655   5.077   7.812 -0.5840 -0.5711 -0.3694
 1232TIP3    H225256   4.665   4.939   7.873  0.4979  0.1122  1.0383
 1233TIP3   OH225257   4.107   1.101   2.836  0.3964 -0.0341 -0.0234
 1233TIP3    H125258   4.073   1.189   2.823 -0.2978 -0.5919 -2.7454
 1233TIP3    H225259   4.189   1.113   2.883 -0.4050  1.8965  1.0132
 1234TIP3   OH225260   3.724   1.738   1.958  0.6554  0.5340  0.5212
 1234TIP3    H125261   3.642   1.766   1.917  0.7363  0.5391  0.3647
 1234TIP3    H225262   3.787   1.732   1.886  0.1887 -1.8135  0.2137
 1235TIP3   OH225263   2.272   6.011   1.020  0.2770 -0.3353 -0.1493
 1235TIP3    H125264   2.269   5.969   0.934  0.9607  0.9385 -0.8248
 1235TIP3    H225265   2.288   6.104   1.001 -0.8831  0.1981  1.2999
 1236TIP3   OH225266   0.927   0.931   2.084  0.3302  0.0073  0.2587
 1236TIP3    H125267   0.906   0.976   2.002 -0.4939  2.9151  1.9397
 1236TIP3    H225268   0.862   0.861   2.090  0.8744 -0.7693 -1.8580
 1237TIP3   OH225269   4.108   4.238   0.475 -0.5262 -0.0451  0.4289
 1237TIP3    H125270   4.091   4.162   0.420 -0.6856 -1.1342  1.9119
 1237TIP3    H225271   4.167   4.205   0.543 -0.3587  1.2382  0.9267
 1238TIP3   OH225272   6.623   2.120   8.329 -0.1199  0.1607  0.3697
 1238TIP3    H125273   6.569   2.095   8.253 -1.2363  0.6927  0.9681
 1238TIP3    H225274   6.696   2.168   8.291 -0.1508 -0.4041 -0.4454
 1239TIP3   OH225275   3.138   4.483   7.373 -0.1115  0.4031  0.2736
 1239TIP3    H125276   3.201   4.428   7.326  0.9927  2.3975 -0.7412
 1239TIP3    H225277   3.121   4.556   7.314  1.2710  3.0281  2.8414
 1240TIP3   OH225278   3.713   2.270   1.342 -0.0234 -0.3714  0.4475
 1240TIP3    H125279   3.676   2.257   1.429  0.5522 -0.2370  0.7122
 1240TIP3    H225280   3.705   2.185   1.299  1.0201 -0.8258  1.1383
 1241TIP3   OH225281   1.381   0.032   2.139  0.3877 -0.4399 -0.5315
 1241TIP3    H125282   1.444  -0.038   2.158 -0.3439 -0.6817  1.2303
 1241TIP3    H225283   1.375   0.033   2.044  1.7396 -1.5806 -0.6751
 1242TIP3   OH225284   4.380   3.235   1.576 -0.3451 -0.3671 -0.1994
 1242TIP3    H125285   4.380   3.179   1.498 -2.1244  1.5136 -1.6544
 1242TIP3    H225286   4.472   3.260   1.587  0.2471 -2.2628 -0.4377
 1243TIP3   OH225287   1.915   0.186   0.908 -0.5163 -0.3723  0.6154
 1243TIP3    H125288   1.873   0.106   0.874  0.9816 -0.3163 -1.5355
 1243TIP3    H225289   1.897   0.252   0.842  0.0758  0.5287  1.3384
 1244TIP3   OH225290   3.170   2.329   7.229 -0.1412 -0.0061  0.0258
 1244TIP3    H125291   3.184   2.420   7.202 -1.2757  0.6965  1.6245
 1244TIP3    H225292   3.237   2.314   7.296 -0.6247  0.0161  0.5181
 1245TIP3   OH225293   5.137   4.474   7.545  0.2149 -0.2139 -0.7942
 1245TIP3    H125294   5.175   4.415   7.610  0.1799 -1.4010 -1.8132
 1245TIP3    H225295   5.208   4.536   7.524  1.0622 -1.3773 -1.4514
 1246TIP3   OH225296   3.660   1.059   8.369 -0.1189  0.4921 -0.1844
 1246TIP3    H125297   3.738   1.114   8.360  0.3042 -0.2286 -1.2331
 1246TIP3    H225298   3.696   0.970   8.376 -0.8379 -0.0966 -2.8092
 1247TIP3   OH225299   3.821   2.292   1.940  0.1889  0.1315 -0.1046
 1247TIP3    H125300   3.793   2.310   2.030  1.2871  0.7228  0.1341
 1247TIP3    H225301   3.865   2.373   1.912 -0.5165  0.1133 -1.3314
 1248TIP3   OH225302   4.023   3.483   1.131  0.1694 -0.0594 -0.1032
 1248TIP3    H125303   3.967   3.508   1.204  0.3092 -0.3095  0.0918
 1248TIP3    H225304   4.093   3.431   1.172 -1.4848 -3.0163 -0.7944
 1249TIP3   OH225305   1.765   0.266   0.239 -0.1195 -0.0652  0.6145
 1249TIP3    H125306   1.793   0.358   0.243 -1.8016  0.4884  0.4484
 1249TIP3    H225307   1.691   0.266   0.178 -0.3472 -1.4840  0.8618
 1250TIP3   OH225308   4.541   4.028   1.557  0.3907  0.3422  0.2677
 1250TIP3    H125309   4.613   4.047   1.496  1.4076  1.1301  1.6436
 1250TIP3    H225310   4.517   4.113   1.592 -0.8515  0.0076  0.2528
 1251TIP3   OH225311   1.948   1.466   2.272  0.3531 -0.3724  0.0577
 1251TIP3    H125312   1.866   1.506   2.244 -0.0978 -1.7198 -0.6411
 1251TIP3    H225313   1.936   1.448   2.365  0.3822  0.6406  0.2682
 1252TIP3   OH225314   1.390   1.204   2.731  0.7495 -0.7905  0.4518
 1252TIP3    H125315   1.312   1.237   2.686  0.3986 -0.3397  1.3688
 1252TIP3    H225316   1.460   1.264   2.704  0.4239 -0.1889  0.9234
 1253TIP3   OH225317   5.556   0.132   1.904 -0.3742 -1.1235  0.5164
 1253TIP3    H125318   5.571   0.202   1.840 -0.2457 -0.1843  1.5295
 1253TIP3    H225319   5.587   0.053   1.862  2.6186 -0.0658  0.5424
 1254TIP3   OH225320   3.289   3.600   7.667 -0.5333 -0.0913  0.2578
 1254TIP3    H125321   3.368   3.622   7.618 -0.7395  1.0524  0.4209
 1254TIP3    H225322   3.221   3.590   7.600 -1.0181  2.3382  0.3150
 1255TIP3   OH225323   2.658   1.602   7.147  0.1563 -0.2461  0.1394
 1255TIP3    H125324   2.598   1.610   7.073 -1.0600 -0.6706  1.0319
 1255TIP3    H225325   2.710   1.525   7.128 -0.1129 -0.3231 -0.2952
 1256TIP3   OH225326   4.653   2.843   8.487 -0.0126 -0.3315 -0.0202
 1256TIP3    H125327   4.702   2.924   8.472 -0.3826  0.3177  1.9921
 1256TIP3    H225328   4.671   2.821   8.578 -0.7496 -1.9681 -0.2401
 1257TIP3   OH225329   1.682   6.375   2.765  0.5010 -0.6819  0.2333
 1257TIP3    H125330   1.628   6.370   2.844  2.2596  1.1132  1.6934
 1257TIP3    H225331   1.658   6.459   2.726  1.9315  0.0084  0.7532
 1258TIP3   OH225332   4.306   2.157   7.675  0.5054  0.3255  0.1119
 1258TIP3    H125333   4.315   2.196   7.588  0.4060  0.5033  0.1800
 1258TIP3    H225334   4.336   2.067   7.665  1.8879  0.7424  0.2212
 1259TIP3   OH225335   6.132   1.783   1.259  0.5219 -0.9070  0.2278
 1259TIP3    H125336   6.037   1.778   1.264  0.5626 -2.9418  0.0757
 1259TIP3    H225337   6.156   1.858   1.313 -1.2175  0.3044 -0.6373
 1260TIP3   OH225338   5.600   0.270   2.224 -0.2588  0.1483  0.0626
 1260TIP3    H125339   5.603   0.175   2.231  1.0193  0.1511 -0.1451
 1260TIP3    H225340   5.677   0.292   2.172 -1.6393  1.1518 -1.6820
 1261TIP3   OH225341   1.256   3.048   0.377 -0.1223  0.2328 -0.1101
 1261TIP3    H125342   1.334   3.074   0.428  1.1565 -2.5681 -0.4754
 1261TIP3    H225343   1.291   3.002   0.301 -2.0910 -2.5376  0.5080
 1262TIP3   OH225344   4.597   3.147   7.704 -0.2607 -0.2352 -0.8964
 1262TIP3    H125345   4.637   3.067   7.670 -1.0327 -0.7085 -0.7197
 1262TIP3    H225346   4.577   3.127   7.796 -0.1893  0.2668 -0.7655
 1263TIP3   OH225347   5.426   1.482   7.087 -0.6130 -0.1560  0.7351
 1263TIP3    H125348   5.384   1.410   7.134 -0.3129  0.0253  1.2844
 1263TIP3    H225349   5.511   1.493   7.130 -0.2930 -0.0480  0.0904
 1264TIP3   OH225350   0.331   5.109   0.648 -0.1762 -0.0126 -0.0199
 1264TIP3    H125351   0.315   5.015   0.641  0.1829 -0.1902  1.2323
 1264TIP3    H225352   0.248   5.149   0.623  0.0071 -0.5925 -1.7094
 1265TIP3   OH225353   5.115   6.121   1.937  0.1278 -0.2052  0.0530
 1265TIP3    H125354   5.150   6.151   2.021 -2.5348  2.1020  0.4498
 1265TIP3    H225355   5.179   6.151   1.873  1.6212 -0.9939  1.0899
 1266TIP3   OH225356   6.682   1.308   2.318  0.0012 -0.3250  0.8049
 1266TIP3    H125357   6.609   1.253   2.290  1.4015 -1.5351 -0.7539
 1266TIP3    H225358   6.647   1.397   2.320 -1.0728 -0.6022 -1.7951
 1267TIP3   OH225359   5.425   1.235   7.230  0.5876  0.3717 -0.5192
 1267TIP3    H125360   5.448   1.143   7.213  0.2577 -0.5566  3.1155
 1267TIP3    H225361   5.489   1.263   7.296 -0.4570  2.1492 -0.2117
 1268TIP3   OH225362   6.428   1.319   2.450 -0.4350  0.3736 -0.2704
 1268TIP3    H125363   6.343   1.355   2.477  0.0233  0.3593  1.2926
 1268TIP3    H225364   6.490   1.356   2.512  0.4761 -0.8552 -0.4185
 1269TIP3   OH225365   1.290   2.262   2.152 -0.3443 -0.1886  0.6732
 1269TIP3    H125366   1.311   2.214   2.072  1.0559 -0.5147  1.2049
 1269TIP3    H225367   1.240   2.337   2.122 -0.2867 -0.5766 -0.4536
 1270TIP3   OH225368   6.124   4.741   1.737 -0.1085  0.1152 -0.5092
 1270TIP3    H125369   6.140   4.791   1.816 -0.4541  1.2018 -1.0978
 1270TIP3    H225370   6.083   4.660   1.767 -1.4737  1.0874  0.3402
 1271TIP3   OH225371   4.468   5.254   0.310 -0.2871 -0.0107 -0.0185
 1271TIP3    H125372   4.376   5.228   0.321 -0.0592 -0.0502  2.0804
 1271TIP3    H225373   4.514   5.213   0.383  1.1488  1.3030 -0.1363
 1272TIP3   OH225374   2.082   4.352   1.355 -0.0799 -0.2848 -0.3553
 1272TIP3    H125375   2.063   4.267   1.314 -0.5409 -0.8652  1.0145
 1272TIP3    H225376   1.995   4.390   1.369  0.1233  0.3731 -0.8539
 1273TIP3   OH225377   3.658   2.098   0.122  0.1748 -0.6697 -0.8318
 1273TIP3    H125378   3.569   2.108   0.090  0.0105  1.1865  0.0436
 1273TIP3    H225379   3.699   2.184   0.107  0.9920 -0.6584  1.0753
 1274TIP3   OH225380   0.059   0.224   1.169  0.3395 -0.7226  0.0398
 1274TIP3    H125381   0.052   0.149   1.227 -3.6334  1.4184  2.7870
 1274TIP3    H225382   0.012   0.198   1.090  0.0968 -1.5364  0.4410
 1275TIP3   OH225383   5.172   0.960   6.963  0.4520  0.2053  0.1224
 1275TIP3    H125384   5.173   0.898   6.889  1.0417 -0.6336  0.8123
 1275TIP3    H225385   5.261   0.956   6.998  0.9666  2.5968 -0.7148
 1276TIP3   OH225386   5.065   0.481   1.438 -0.2571  0.3850 -0.8319
 1276TIP3    H125387   5.128   0.434   1.383  0.3171  0.2191 -0.0601
 1276TIP3    H225388   5.091   0.573   1.431  2.2982  0.0633  2.0799
 1277TIP3   OH225389   3.324   5.413   8.090  0.7705  0.5755  0.5030
 1277TIP3    H125390   3.296   5.500   8.063  0.2727  0.9946  2.1933
 1277TIP3    H225391   3.312   5.413   8.185  1.9034 -0.9337  0.6840
 1278TIP3   OH225392   0.559   3.906   0.529  0.0506  0.5070 -0.1752
 1278TIP3    H125393   0.615   3.981   0.550 -0.3468  1.1233 -1.2254
 1278TIP3    H225394   0.525   3.926   0.442  0.6381 -1.3228 -0.8773
 1279TIP3   OH225395   6.213   5.098   0.598 -0.2019  0.0193  0.3395
 1279TIP3    H125396   6.134   5.044   0.603 -0.0255 -0.2927 -0.1905
 1279TIP3    H225397   6.186   5.174   0.547 -0.2808  0.1334  0.5497
 1280TIP3   OH225398   6.506   6.597   2.797 -1.0350 -0.4121 -0.7645
 1280TIP3    H125399   6.467   6.677   2.832 -0.1424 -0.1868 -0.2667
 1280TIP3    H225400   6.508   6.611   2.702 -0.4428  0.3708 -0.6461
 1281TIP3   OH225401   4.574   2.709   7.399 -0.1267  0.3813  0.3141
 1281TIP3    H125402   4.569   2.794   7.442 -0.6181 -0.0213  1.0764
 1281TIP3    H225403   4.485   2.692   7.369  0.2243  0.6781 -0.9273
 1282TIP3   OH225404   2.619   6.709   7.566 -0.3238 -0.8572  0.4600
 1282TIP3    H125405   2.706   6.705   7.526 -0.2481 -2.7739  0.7561
 1282TIP3    H225406   2.609   6.625   7.610 -1.5793  0.0637  2.0353
 1283TIP3   OH225407   3.775   0.791   8.369 -0.2029  0.2814 -0.4412
 1283TIP3    H125408   3.829   0.736   8.426  0.2682  2.3883  1.2382
 1283TIP3    H225409   3.834   0.817   8.298  0.2856  0.5582  0.0566
 1284TIP3   OH225410   6.807   3.217   8.134  0.5484  0.1489  0.3891
 1284TIP3    H125411   6.782   3.220   8.042 -2.8698  2.4134  1.2058
 1284TIP3    H225412   6.864   3.293   8.145  0.7793  0.0057  0.2003
 1285TIP3   OH225413   5.114   4.658   0.532  0.1395  0.2782  0.7165
 1285TIP3    H125414   5.138   4.612   0.612 -0.9616 -0.8725  0.4272
 1285TIP3    H225415   5.018   4.654   0.530  0.1123  0.9984 -0.2426
 1286TIP3   OH225416   0.323   4.722   8.608  0.2427  0.1035  0.1049
 1286TIP3    H125417   0.320   4.764   8.694  0.6228 -2.3064  1.4201
 1286TIP3    H225418   0.269   4.644   8.618  0.6672 -0.4792 -1.7163
 1287TIP3   OH225419   1.768   4.434   0.069 -0.0111  0.2374  0.0045
 1287TIP3    H125420   1.792   4.397  -0.015  0.7801 -0.7259  0.6330
 1287TIP3    H225421   1.827   4.392   0.132 -2.4551 -1.2962  1.4501
 1288TIP3   OH225422   5.962   5.529   2.531 -0.0963  0.1820  0.7137
 1288TIP3    H125423   5.937   5.621   2.537 -0.2340  0.1430  0.7480
 1288TIP3    H225424   6.015   5.513   2.609  1.2242  0.6275 -0.0591
 1289TIP3   OH225425   3.525   5.844   7.036  0.2587  0.5788  0.0945
 1289TIP3    H125426   3.511   5.808   6.948 -0.8911  1.2194 -0.0069
 1289TIP3    H225427   3.567   5.928   7.022 -3.4051  2.5551 -0.1811
 1290TIP3   OH225428   5.793   1.628   7.969  0.1564  0.2165 -0.5993
 1290TIP3    H125429   5.725   1.569   8.002  1.3103  0.0517  1.6269
 1290TIP3    H225430   5.743   1.697   7.924 -1.3641 -0.8480 -0.6519
 1291TIP3   OH225431   2.725   3.901   1.704  0.2804  0.1045 -0.6250
 1291TIP3    H125432   2.649   3.857   1.667  0.4219 -0.0160 -0.7737
 1291TIP3    H225433   2.710   3.899   1.799  0.3532 -0.3966 -0.6178
 1292TIP3   OH225434   2.173   0.569   2.236  0.2061  0.9664  0.3907
 1292TIP3    H125435   2.223   0.498   2.198  0.5257  1.5560 -0.3180
 1292TIP3    H225436   2.213   0.649   2.201 -3.1013  1.5078 -2.7716
 1293TIP3   OH225437   5.957   5.731   7.750  0.8230 -0.0746  0.3744
 1293TIP3    H125438   5.962   5.636   7.762 -0.0034 -0.1149  0.4517
 1293TIP3    H225439   5.867   5.753   7.773  0.5736  0.5181 -1.0664
 1294TIP3   OH225440   5.755   1.959   1.018  0.0349 -0.3890 -0.6407
 1294TIP3    H125441   5.799   1.992   0.940 -1.1225  0.9640 -0.7685
 1294TIP3    H225442   5.759   2.032   1.080  0.6776 -1.3399  0.4821
 1295TIP3   OH225443   3.682   0.527   0.380 -0.0338 -0.0970  0.0572
 1295TIP3    H125444   3.742   0.597   0.355 -0.3619  0.1616 -0.0067
 1295TIP3    H225445   3.609   0.571   0.423 -0.2416 -0.3974  0.0204
 1296TIP3   OH225446   0.435   6.525   8.284 -0.0304 -0.3739  0.2192
 1296TIP3    H125447   0.400   6.603   8.326 -0.1003 -0.2900  0.0068
 1296TIP3    H225448   0.374   6.455   8.306 -1.1982  0.0734 -1.4154
 1297TIP3   OH225449   0.712   1.217   6.945 -0.2160  0.7126  0.1525
 1297TIP3    H125450   0.631   1.268   6.945 -0.1439  0.8730 -1.2446
 1297TIP3    H225451   0.781   1.281   6.927 -0.1547  0.1283 -1.9344
 1298TIP3   OH225452   4.920   1.737   2.788  0.1824  0.5429 -0.3369
 1298TIP3    H125453   4.914   1.747   2.883  0.8432 -0.9631 -0.1011
 1298TIP3    H225454   4.910   1.826   2.754 -0.5888  1.0439  1.1019
 1299TIP3   OH225455   6.777   5.935   8.253  0.2576  0.0928  0.2506
 1299TIP3    H125456   6.754   5.973   8.338 -0.7922  1.1889 -0.4961
 1299TIP3    H225457   6.698   5.889   8.225  0.6285 -0.3419 -0.1019
 1300TIP3   OH225458   1.308   6.731   8.374  0.2923 -0.2724 -0.1168
 1300TIP3    H125459   1.369   6.804   8.385 -1.0673  1.2069 -1.7629
 1300TIP3    H225460   1.276   6.740   8.284 -1.5826 -1.5715  0.3714
 1301TIP3   OH225461   2.812   5.665   1.345  0.4244  0.6976  0.0037
 1301TIP3    H125462   2.822   5.750   1.389  2.2935  0.4547  0.1334
 1301TIP3    H225463   2.902   5.634   1.333 -0.1525 -0.4264 -1.6984
 1302TIP3   OH225464   5.692   0.083   6.845  0.0834  0.5196 -0.1612
 1302TIP3    H125465   5.656   0.116   6.763  0.2638  3.9096  0.9461
 1302TIP3    H225466   5.767   0.140   6.863 -0.5167  0.5439  2.7638
 1303TIP3   OH225467   2.327   4.885   6.969  0.2072  0.1024  1.2604
 1303TIP3    H125468   2.420   4.873   6.990 -0.0317 -2.5679  1.1536
 1303TIP3    H225469   2.327   4.933   6.887  1.6920 -2.3524 -0.3115
 1304TIP3   OH225470   2.276   1.496   0.165 -0.2764 -0.1828  0.5617
 1304TIP3    H125471   2.224   1.536   0.095  2.8401  0.1980 -1.7205
 1304TIP3    H225472   2.294   1.567   0.226  2.2596  1.2045 -1.6448
 1305TIP3   OH225473   4.020   2.845   7.854  0.0905 -0.0995 -0.2583
 1305TIP3    H125474   4.017   2.750   7.855  1.0376 -0.1763  2.4334
 1305TIP3    H225475   4.041   2.867   7.763 -0.7552 -2.3905 -1.0764
 1306TIP3   OH225476   4.148   5.457   7.862 -0.5504 -0.6523  0.2111
 1306TIP3    H125477   4.129   5.383   7.804 -0.3199 -0.0111 -0.7069
 1306TIP3    H225478   4.236   5.486   7.836 -1.4126  1.1969 -0.8476
 1307TIP3   OH225479   6.833   1.794   6.886  0.6102 -0.5318 -0.2647
 1307TIP3    H125480   6.752   1.827   6.848  0.5864 -0.9028 -0.5451
 1307TIP3    H225481   6.902   1.851   6.852  0.1851  1.6993  2.3132
 1308TIP3   OH225482   6.775   5.564   1.115  0.1298  0.1034 -0.0005
 1308TIP3    H125483   6.842   5.498   1.095 -1.0181 -0.1647 -3.7381
 1308TIP3    H225484   6.709   5.552   1.046 -1.3104  3.5831  0.6116
 1309TIP3   OH225485   4.123   1.103   8.646 -0.1134  0.0763 -0.4747
 1309TIP3    H125486   4.037   1.130   8.680  0.8688  1.9195  0.7444
 1309TIP3    H225487   4.126   1.009   8.660 -2.4660 -0.2927 -1.8565
 1310TIP3   OH225488   5.706   2.747   2.240  0.3472  0.0116 -0.1710
 1310TIP3    H125489   5.750   2.783   2.163 -0.0829 -0.2021 -0.5236
 1310TIP3    H225490   5.627   2.799   2.250 -1.0846 -1.7582 -1.6210
 1311TIP3   OH225491   0.302   5.804   7.327 -0.1115  0.5107 -0.1102
 1311TIP3    H125492   0.295   5.723   7.276 -0.0186  0.9656 -0.8582
 1311TIP3    H225493   0.296   5.775   7.419 -1.4549 -0.1965 -0.3973
 1312TIP3   OH225494   4.875   3.172   8.533  0.0204  0.1106  0.8612
 1312TIP3    H125495   4.920   3.249   8.500 -0.5758 -0.2642 -0.9165
 1312TIP3    H225496   4.881   3.180   8.629  1.8421  1.2205  0.7049
 1313TIP3   OH225497   2.332   3.398   0.522  0.3427 -0.3753 -0.0435
 1313TIP3    H125498   2.324   3.370   0.613 -0.6672 -0.8010 -0.2568
 1313TIP3    H225499   2.373   3.324   0.477  2.5131  0.4979  0.3782
 1314TIP3   OH225500   6.092   5.491   2.772 -1.0758 -0.2312  0.1794
 1314TIP3    H125501   6.062   5.567   2.823 -2.1824  0.0343 -0.8132
 1314TIP3    H225502   6.087   5.418   2.833 -2.7249  0.0132  0.3923
 1315TIP3   OH225503   2.694   5.928   1.240 -0.2532  0.2039 -0.2457
 1315TIP3    H125504   2.678   5.898   1.330 -0.6946  1.4756  0.1156
 1315TIP3    H225505   2.789   5.943   1.237 -0.3612  1.0506  0.3054
 1316TIP3   OH225506   2.470   3.296   1.728  0.2531  0.1684  0.1262
 1316TIP3    H125507   2.432   3.364   1.782  0.2461 -1.0781  1.7622
 1316TIP3    H225508   2.555   3.331   1.701  0.8535  0.3251  2.0694
 1317TIP3   OH225509   2.508   2.130   0.103  0.4174 -0.2792 -0.3842
 1317TIP3    H125510   2.441   2.062   0.103  0.4740 -0.3380 -0.6387
 1317TIP3    H225511   2.586   2.087   0.137 -0.2884  0.4323  2.3271
 1318TIP3   OH225512   2.166   0.369   1.612 -0.5378  0.4442 -0.6060
 1318TIP3    H125513   2.188   0.300   1.550  2.2403  0.7425 -0.0972
 1318TIP3    H225514   2.179   0.330   1.698 -0.6748  1.0890 -0.2865
 1319TIP3   OH225515   4.898   3.069   7.844  0.3981 -0.1900  0.0394
 1319TIP3    H125516   4.803   3.055   7.838  0.2319 -0.3046  2.3031
 1319TIP3    H225517   4.914   3.092   7.935  2.8080 -2.0934  0.2019
 1320TIP3   OH225518   4.942   2.790   8.092  0.0642 -0.6038  0.1588
 1320TIP3    H125519   4.865   2.772   8.145 -0.4393  0.6849 -0.0892
 1320TIP3    H225520   5.015   2.785   8.153 -0.4802  0.5495  0.9449
 1321TIP3   OH225521   4.431   5.625   1.061 -0.4361  0.5651 -0.0520
 1321TIP3    H125522   4.513   5.669   1.038 -1.1364  1.0895 -1.7110
 1321TIP3    H225523   4.458   5.543   1.101  0.9195  0.6187 -0.7950
 1322TIP3   OH225524   0.032   3.907   1.978  0.1538  0.4657  0.8375
 1322TIP3    H125525  -0.003   3.956   2.053 -0.6540  0.1058  0.6974
 1322TIP3    H225526  -0.041   3.853   1.948  0.8844 -0.4354  0.6561
 1323TIP3   OH225527   3.204   5.304   1.434 -0.3244 -0.4996 -0.6606
 1323TIP3    H125528   3.235   5.330   1.521  0.0284 -0.6932 -0.7263
 1323TIP3    H225529   3.264   5.346   1.373 -0.6820 -0.2178 -0.8188
 1324TIP3   OH225530   1.052   6.430   7.949 -0.1381  0.0109 -0.3792
 1324TIP3    H125531   1.081   6.344   7.919 -0.9288 -0.9157  1.4047
 1324TIP3    H225532   0.960   6.418   7.973 -0.4302  1.5108 -0.6334
 1325TIP3   OH225533   0.566   5.190   1.583  0.0144 -0.1158  0.1296
 1325TIP3    H125534   0.574   5.095   1.588  0.0478 -0.0708  1.2248
 1325TIP3    H225535   0.649   5.220   1.545 -0.0386 -0.5194 -0.3195
 1326TIP3   OH225536   4.430   5.701   0.457  0.6131  0.2949 -0.1514
 1326TIP3    H125537   4.454   5.786   0.494  1.8891 -0.7623  1.6444
 1326TIP3    H225538   4.511   5.649   0.463  0.0969 -0.8121 -1.9903
 1327TIP3   OH225539   1.404   3.247   7.459 -0.3408 -0.5249  0.3813
 1327TIP3    H125540   1.366   3.194   7.389 -1.8685  0.3934  0.4543
 1327TIP3    H225541   1.498   3.245   7.444 -0.6723  0.8941 -2.6457
 1328TIP3   OH225542   3.930   6.189   8.104  0.2656 -0.2603  0.0535
 1328TIP3    H125543   4.011   6.139   8.113  0.1197 -1.1595 -2.5360
 1328TIP3    H225544   3.919   6.199   8.009 -2.1199  0.7286  0.3581
 1329TIP3   OH225545   0.779   4.589   2.168  0.3438 -0.8112 -0.3605
 1329TIP3    H125546   0.828   4.667   2.193  0.2340 -1.1246  0.8748
 1329TIP3    H225547   0.821   4.518   2.216 -0.7022 -1.2275 -0.0414
 1330TIP3   OH225548   4.618   3.791   0.634  0.2342  0.6925 -0.8105
 1330TIP3    H125549   4.524   3.786   0.619  0.4150  1.2060 -2.3298
 1330TIP3    H225550   4.627   3.818   0.726 -1.0892  0.7950 -0.6940
 1331TIP3   OH225551   4.623   4.569   8.069 -0.3368  0.1191 -0.1780
 1331TIP3    H125552   4.593   4.657   8.092 -1.2439 -0.6267  1.6861
 1331TIP3    H225553   4.702   4.584   8.016  0.8028  2.0702  1.8712
 1332TIP3   OH225554   4.007   0.367   0.243 -0.1112  0.0948  0.5487
 1332TIP3    H125555   3.914   0.342   0.249 -0.2264  0.4501  0.3035
 1332TIP3    H225556   4.008   0.436   0.176  0.4239 -0.3521  0.0983
 1333TIP3   OH225557   5.374   3.311   1.763 -0.1721 -1.0044 -0.0204
 1333TIP3    H125558   5.364   3.333   1.670  2.4414 -1.7682 -0.5424
 1333TIP3    H225559   5.288   3.275   1.788 -1.4817  0.7834 -1.6304
 1334TIP3   OH225560   0.030   3.006   0.360  0.1126 -0.3546 -0.2121
 1334TIP3    H125561  -0.036   2.938   0.377  0.2810 -0.4218  0.1831
 1334TIP3    H225562   0.037   3.009   0.265  0.5661 -1.3517 -0.2268
 1335TIP3   OH225563   3.493   4.735   7.689 -0.0738  0.2024 -0.0236
 1335TIP3    H125564   3.568   4.731   7.631  0.0696  1.2703  0.0781
 1335TIP3    H225565   3.417   4.720   7.632  0.0068  1.9567 -0.6463
 1336TIP3   OH225566   4.336   3.698   0.280 -0.4389  0.0419  0.4976
 1336TIP3    H125567   4.397   3.745   0.224 -0.1290 -0.5038  0.3630
 1336TIP3    H225568   4.381   3.693   0.365 -0.0985 -0.7140  0.2895
 1337TIP3   OH225569   2.675   1.090   1.324  0.1145  0.3862 -0.0616
 1337TIP3    H125570   2.670   1.114   1.417  0.3212 -0.3471  0.1427
 1337TIP3    H225571   2.584   1.093   1.293 -0.0331  0.0118  0.3255
 1338TIP3   OH225572   3.209   3.813   7.836 -0.2126  0.2222 -0.0544
 1338TIP3    H125573   3.229   3.732   7.788 -0.5449 -0.4792  0.9679
 1338TIP3    H225574   3.273   3.815   7.908 -1.1307  0.1073  0.7840
 1339TIP3   OH225575   2.870   2.206   8.271 -0.0570  0.3545  0.1896
 1339TIP3    H125576   2.815   2.150   8.217  3.0861 -2.1372 -0.7035
 1339TIP3    H225577   2.823   2.210   8.355 -2.6104  0.2579 -1.1165
 1340TIP3   OH225578   5.917   0.893   0.065 -0.2897 -0.3070 -0.2198
 1340TIP3    H125579   5.934   0.981   0.031 -0.6086 -0.4959 -0.8867
 1340TIP3    H225580   5.992   0.874   0.121  0.1649  0.0819 -0.6846
 1341TIP3   OH225581   5.033   2.201   0.210  0.3553 -0.3359 -0.4410
 1341TIP3    H125582   4.990   2.122   0.179  0.8668 -0.9254  0.3251
 1341TIP3    H225583   5.083   2.232   0.135 -0.6090 -0.1935 -1.0358
 1342TIP3   OH225584   5.179   4.735   1.196  0.1747 -0.1492 -0.2829
 1342TIP3    H125585   5.269   4.741   1.229  0.6553  0.5925 -1.6608
 1342TIP3    H225586   5.133   4.807   1.239  0.1204 -0.7581  0.7185
 1343TIP3   OH225587   0.652   5.101   8.212  0.5909  0.0948 -0.3573
 1343TIP3    H125588   0.558   5.097   8.228  0.5628  0.0484 -0.5339
 1343TIP3    H225589   0.660   5.128   8.121  0.7600  1.2955 -0.0056
 1344TIP3   OH225590   5.757   1.378   1.546 -0.8072  0.1797  0.1679
 1344TIP3    H125591   5.766   1.284   1.563 -0.8687  0.1143 -0.1429
 1344TIP3    H225592   5.752   1.384   1.450 -0.7993  0.5001  0.1874
 1345TIP3   OH225593   0.051   5.656   7.518 -0.1176 -0.2912  0.0005
 1345TIP3    H125594   0.077   5.668   7.610  0.7350  0.7050 -0.3587
 1345TIP3    H225595  -0.014   5.724   7.503 -1.1372 -1.2099  0.1902
 1346TIP3   OH225596   0.077   5.853   2.198 -0.1112 -0.6839 -0.2758
 1346TIP3    H125597   0.087   5.758   2.192 -0.2392 -0.8640  1.7269
 1346TIP3    H225598  -0.006   5.866   2.244  1.5688  0.2241  2.8361
 1347TIP3   OH225599   5.864   4.076   0.476 -0.2706  0.5555  0.1098
 1347TIP3    H125600   5.831   3.990   0.451 -0.6186  1.2077 -1.8778
 1347TIP3    H225601   5.957   4.061   0.492 -0.2646 -0.1663 -0.4891
 1348TIP3   OH225602   2.020   0.160   7.689  0.0894  0.0713 -0.3551
 1348TIP3    H125603   1.963   0.142   7.765  0.8880  0.3860  0.3337
 1348TIP3    H225604   2.051   0.074   7.662 -1.9128 -0.2948 -1.7383
 1349TIP3   OH225605   0.849   2.953   1.772  0.0421 -0.4232  0.1054
 1349TIP3    H125606   0.851   2.994   1.686  0.8050  0.9277  0.7138
 1349TIP3    H225607   0.756   2.948   1.795 -0.0858  2.4458  0.6069
 1350TIP3   OH225608   2.926   2.461   8.212 -0.0268 -0.1801 -0.1522
 1350TIP3    H125609   2.889   2.406   8.282 -1.0792  0.9685  0.2262
 1350TIP3    H225610   3.021   2.454   8.224 -0.1281 -1.7854 -0.0269
 1351TIP3   OH225611   3.787   1.608   7.611 -0.1591  0.0417  0.2690
 1351TIP3    H125612   3.862   1.552   7.628 -0.6494 -0.7711 -0.1774
 1351TIP3    H225613   3.752   1.629   7.697  0.4671  0.2756  0.4701
 1352TIP3   OH225614   1.441   4.675   7.625  0.3281  0.3219 -0.4518
 1352TIP3    H125615   1.501   4.653   7.696 -0.6085  0.2031  0.3193
 1352TIP3    H225616   1.482   4.636   7.547  0.0296 -1.9494  0.4472
 1353TIP3   OH225617   6.194   4.921   2.860  0.3810 -0.1046  0.0047
 1353TIP3    H125618   6.131   4.993   2.852 -0.1083 -0.6405 -1.1484
 1353TIP3    H225619   6.144   4.849   2.899  0.9842  0.2823  1.5903
 1354TIP3   OH225620   0.312   0.610   0.750  0.2890 -0.1782 -0.2062
 1354TIP3    H125621   0.302   0.557   0.672 -0.1385  0.8959 -0.9072
 1354TIP3    H225622   0.336   0.548   0.819  1.1985 -1.0748 -1.2922
 1355TIP3   OH225623   0.348   2.620   1.354 -0.2280  0.6893 -0.1850
 1355TIP3    H125624   0.361   2.648   1.263  1.3476  1.7917  0.3450
 1355TIP3    H225625   0.325   2.700   1.400  3.6509  1.1855  1.2375
 1356TIP3   OH225626   1.797   2.956   0.191 -0.4523  0.2165  0.0841
 1356TIP3    H125627   1.807   2.968   0.096  1.1458  1.0834  0.3238
 1356TIP3    H225628   1.716   3.001   0.212  1.3636  4.0866 -0.2784
 1357TIP3   OH225629   6.820   0.394   1.700 -0.3076  0.1448 -0.1243
 1357TIP3    H125630   6.836   0.353   1.615 -1.6033 -1.0055  0.1538
 1357TIP3    H225631   6.883   0.352   1.759 -0.6379 -0.3920 -0.1475
 1358TIP3   OH225632   3.441   1.579   7.167 -0.0346 -0.1772 -0.4293
 1358TIP3    H125633   3.504   1.508   7.154  0.8724  0.5709 -0.2404
 1358TIP3    H225634   3.378   1.569   7.096 -0.0394 -1.2928 -0.2826
 1359TIP3   OH225635   6.205   0.408   1.055 -0.0787  0.1397  0.4459
 1359TIP3    H125636   6.157   0.429   0.975  0.2138 -0.8579  0.0014
 1359TIP3    H225637   6.286   0.459   1.049 -0.5056  0.8678  0.6189
 1360TIP3   OH225638   0.165   0.457   1.168 -0.3619 -0.1799 -1.0246
 1360TIP3    H125639   0.083   0.505   1.163 -0.4261 -0.2872 -0.9959
 1360TIP3    H225640   0.139   0.367   1.184 -0.1967 -0.0232  0.2239
 1361TIP3   OH225641   1.307   0.569   0.993  0.4098  0.3768  0.1969
 1361TIP3    H125642   1.352   0.643   0.953  0.3265  1.2477  1.6602
 1361TIP3    H225643   1.376   0.517   1.033  0.3250  0.4770  0.4738
 1362TIP3   OH225644   1.133   5.135   7.147 -0.6428  0.3317  0.0505
 1362TIP3    H125645   1.076   5.211   7.138 -0.3019  0.6221  0.3188
 1362TIP3    H225646   1.221   5.168   7.131 -0.4913 -0.0027  0.1708
 1363TIP3   OH225647   2.154   5.347   1.210 -0.5243  0.0917 -0.1317
 1363TIP3    H125648   2.114   5.358   1.297 -0.1024  0.9736 -0.0335
 1363TIP3    H225649   2.229   5.406   1.211  0.5152 -1.1840 -0.4801
 1364TIP3   OH225650   2.290   3.215   2.106 -0.2396  0.1627  0.1534
 1364TIP3    H125651   2.306   3.288   2.046 -2.5856 -0.7763 -1.8378
 1364TIP3    H225652   2.244   3.255   2.180 -0.0337  0.9490 -0.1292
 1365TIP3   OH225653   4.966   1.326   7.555  0.2055 -0.2339  0.2556
 1365TIP3    H125654   4.930   1.238   7.544 -0.1901  0.0819 -1.1696
 1365TIP3    H225655   5.042   1.328   7.497  0.1047  0.4189  0.1373
 1366TIP3   OH225656   0.331   4.005   7.350  0.7073 -0.3630  0.3403
 1366TIP3    H125657   0.374   4.030   7.269  0.2919 -0.2764  0.1415
 1366TIP3    H225658   0.360   4.069   7.415  2.2214 -1.3106  0.6347
 1367TIP3   OH225659   0.255   1.824   0.391 -0.1844 -0.7367  0.1604
 1367TIP3    H125660   0.289   1.734   0.397  1.0476 -0.4828 -2.1298
 1367TIP3    H225661   0.329   1.876   0.360 -1.6486  0.5197 -1.4179
 1368TIP3   OH225662   5.777   0.345   8.600  0.1089  0.8844  0.6636
 1368TIP3    H125663   5.694   0.353   8.647  0.6162 -0.0233  1.7585
 1368TIP3    H225664   5.844   0.352   8.668  0.8425 -1.4467  0.2846
 1369TIP3   OH225665   3.463   1.250   2.567 -0.1217 -0.5890  0.1044
 1369TIP3    H125666   3.551   1.213   2.560 -0.7343 -1.7713 -3.0530
 1369TIP3    H225667   3.472   1.340   2.538  0.0300 -0.7560 -0.3685
 1370TIP3   OH225668   6.504   1.010   7.157 -0.0407 -0.1848  0.1990
 1370TIP3    H125669   6.478   1.094   7.119  1.2304  0.1306 -0.0390
 1370TIP3    H225670   6.570   1.033   7.222  1.0031 -1.0606 -0.5208
 1371TIP3   OH225671   4.299   5.868   1.634 -0.0847  0.2655  0.3363
 1371TIP3    H125672   4.286   5.908   1.548  0.8377 -1.4736 -0.6733
 1371TIP3    H225673   4.349   5.934   1.683  0.4278  0.8131 -0.8704
 1372TIP3   OH225674   3.991   2.516   0.638  0.7206  0.8897 -0.4500
 1372TIP3    H125675   4.073   2.562   0.621  1.1834 -0.0351 -0.8540
 1372TIP3    H225676   3.923   2.577   0.611  1.3485  0.8606 -2.2518
 1373TIP3   OH225677   4.112   6.485   0.292  0.1369 -0.3856 -0.2802
 1373TIP3    H125678   4.042   6.455   0.233  1.0257  2.1489 -2.8329
 1373TIP3    H225679   4.187   6.430   0.270 -0.0035 -0.6073 -0.2164
 1374TIP3   OH225680   1.212   0.430   0.208 -0.3190 -0.7370  0.2344
 1374TIP3    H125681   1.122   0.462   0.205 -0.2237 -0.3315  1.4388
 1374TIP3    H225682   1.260   0.497   0.257  0.7966 -0.5987 -0.9926
 1375TIP3   OH225683   0.875   4.592   8.349  0.5417  0.1577  0.7220
 1375TIP3    H125684   0.787   4.599   8.313  0.8389 -0.5191 -0.1801
 1375TIP3    H225685   0.927   4.655   8.298  0.6728  0.2488  0.9629
 1376TIP3   OH225686   4.696   5.196   7.308  0.0402 -0.0477 -0.4408
 1376TIP3    H125687   4.723   5.146   7.231  3.3788 -2.2377  1.8643
 1376TIP3    H225688   4.776   5.237   7.340 -1.2802  1.0749  1.6992
 1377TIP3   OH225689   5.035   5.584   7.742 -0.2268 -0.1150  0.3487
 1377TIP3    H125690   5.082   5.667   7.731 -0.4825 -0.0746 -0.5259
 1377TIP3    H225691   4.946   5.611   7.768  0.3810 -0.2093  2.8184
 1378TIP3   OH225692   1.363   1.372   7.966  0.3488  0.1203  0.0281
 1378TIP3    H125693   1.436   1.406   7.914 -2.2200  1.5721 -2.8958
 1378TIP3    H225694   1.344   1.286   7.928 -0.5116  0.4885 -0.4034
 1379TIP3   OH225695   5.933   4.682   7.436 -0.2858  0.4653  0.2629
 1379TIP3    H125696   5.955   4.619   7.367 -0.2215  0.8484 -0.0680
 1379TIP3    H225697   5.869   4.636   7.490 -1.2972  0.5990 -0.7770
 1380TIP3   OH225698   5.778   3.176   8.423  0.2091 -0.2941 -0.0712
 1380TIP3    H125699   5.867   3.209   8.429  0.3837 -0.8062  0.2494
 1380TIP3    H225700   5.731   3.241   8.371 -0.2942  2.1424  3.1563
 1381TIP3   OH225701   0.379   2.935   2.122 -0.2274 -0.5367  0.0475
 1381TIP3    H125702   0.348   3.006   2.178  0.3187 -0.3228  0.0883
 1381TIP3    H225703   0.320   2.934   2.047 -0.1954  0.0084  0.0147
 1382TIP3   OH225704   5.467   1.148   2.149  0.1184  0.5585  0.6736
 1382TIP3    H125705   5.482   1.057   2.126 -0.3970  0.9524 -1.3590
 1382TIP3    H225706   5.407   1.144   2.224  0.2521 -0.7539  0.7347
 1383TIP3   OH225707   5.861   0.354   2.513 -0.7172 -0.0990  0.5327
 1383TIP3    H125708   5.832   0.295   2.583  0.2715 -1.7426 -0.3813
 1383TIP3    H225709   5.954   0.369   2.531 -0.9077  1.0753  0.6446
 1384TIP3   OH225710   5.548   2.120   0.541 -0.2019 -0.1212  0.1618
 1384TIP3    H125711   5.588   2.070   0.471  1.3698  0.5653  0.5253
 1384TIP3    H225712   5.605   2.196   0.552 -0.1151 -0.4543  2.4965
 1385TIP3   OH225713   1.047   0.515   1.996  0.1502 -0.2589  0.0749
 1385TIP3    H125714   0.960   0.496   1.961 -0.0064  2.6593 -1.3534
 1385TIP3    H225715   1.031   0.546   2.085 -0.1870 -0.4309  0.0769
 1386TIP3   OH225716   2.423   2.679   8.364 -0.2620 -0.4511  0.3993
 1386TIP3    H125717   2.364   2.746   8.329  1.3687  1.5379  1.2800
 1386TIP3    H225718   2.402   2.674   8.457  1.5322  1.0283  0.9485
 1387TIP3   OH225719   3.271   4.777   7.536 -0.0657  1.0321 -0.1886
 1387TIP3    H125720   3.210   4.795   7.607 -1.0534  0.3387 -0.8297
 1387TIP3    H225721   3.216   4.772   7.458  0.8450  0.6590 -0.8312
 1388TIP3   OH225722   5.417   6.712   0.904 -0.1407 -0.6143 -0.2784
 1388TIP3    H125723   5.416   6.767   0.983  0.0869 -0.2766 -0.5073
 1388TIP3    H225724   5.363   6.636   0.927 -0.5699 -0.2330 -0.0037
 1389TIP3   OH225725   4.974   0.958   7.155  0.4361 -0.2048  0.2177
 1389TIP3    H125726   4.953   0.867   7.174 -0.9066  0.1184  0.4254
 1389TIP3    H225727   5.053   0.954   7.101 -0.3317 -1.5777 -0.8951
 1390TIP3   OH225728   5.967   2.989   1.714 -0.1105 -0.1713  0.2648
 1390TIP3    H125729   5.908   3.060   1.739  0.2254  0.7769 -1.4257
 1390TIP3    H225730   6.054   3.023   1.731  0.0879  0.1866 -1.2824
 1391TIP3   OH225731   3.394   2.130   0.021  0.3380  0.0461  0.2011
 1391TIP3    H125732   3.335   2.109  -0.051 -0.2221 -0.1887  0.7209
 1391TIP3    H225733   3.343   2.112   0.100 -0.5978  4.1638  0.7758
 1392TIP3   OH225734   2.636   2.905   8.634 -0.0947  0.5718  0.3777
 1392TIP3    H125735   2.703   2.942   8.577 -0.3313  0.5008  0.0479
 1392TIP3    H225736   2.645   2.811   8.624  0.1074  0.5468  0.7507
 1393TIP3   OH225737   3.808   4.620   1.086  0.2313  0.6288  0.3598
 1393TIP3    H125738   3.901   4.610   1.105  0.1487 -0.7129  0.1698
 1393TIP3    H225739   3.785   4.707   1.119  1.3415  0.6035  1.2380
 1394TIP3   OH225740   2.938   6.093   8.071 -0.3029 -0.7281 -0.3632
 1394TIP3    H125741   3.008   6.090   8.006 -0.6667  1.2600 -0.9010
 1394TIP3    H225742   2.857   6.092   8.019 -0.5953  2.4356 -0.1192
 1395TIP3   OH225743   2.323   2.089   8.073 -0.1002  0.9079 -0.0103
 1395TIP3    H125744   2.279   2.060   8.153 -0.8190  3.7440  0.7269
 1395TIP3    H225745   2.307   2.018   8.010 -2.7323  0.2272  1.2694
 1396TIP3   OH225746   2.083   1.347   1.374  0.3022  0.1335  0.1570
 1396TIP3    H125747   2.033   1.278   1.331  2.9676 -3.1112  1.8799
 1396TIP3    H225748   2.064   1.336   1.467  1.7567  0.9182  0.5715
 1397TIP3   OH225749   3.689   1.692   0.991  0.0645 -0.0470 -0.0843
 1397TIP3    H125750   3.596   1.714   0.998  0.2399  0.3702  1.2475
 1397TIP3    H225751   3.690   1.598   0.973 -0.6246  0.1745 -1.4019
 1398TIP3   OH225752   1.288   4.790   7.072  0.2175 -0.3658  0.8931
 1398TIP3    H125753   1.344   4.774   6.996  1.4316  1.6131  1.3202
 1398TIP3    H225754   1.199   4.789   7.036  0.8362  2.8759 -1.1117
 1399TIP3   OH225755   3.764   4.151   3.013 -0.0871  0.0424  0.1879
 1399TIP3    H125756   3.831   4.208   3.050 -0.2452 -0.6222  1.5741
 1399TIP3    H225757   3.804   4.115   2.934  0.8422  0.3502  0.5059
 1400TIP3   OH225758   2.890   2.391   7.459 -0.1153 -0.7574  0.3321
 1400TIP3    H125759   2.897   2.357   7.549 -0.6092 -0.8785  0.3280
 1400TIP3    H225760   2.904   2.314   7.404  0.4085 -0.6409  0.3021
 1401TIP3   OH225761   2.310   0.860   1.288 -0.5515  0.0569  0.0518
 1401TIP3    H125762   2.363   0.785   1.261 -1.5540 -1.1331  1.2509
 1401TIP3    H225763   2.310   0.856   1.384 -1.9067  0.6742  0.1044
 1402TIP3   OH225764   6.573   0.194   8.451 -0.1015  0.3665  0.2418
 1402TIP3    H125765   6.517   0.119   8.472 -0.5564  1.3842  3.0744
 1402TIP3    H225766   6.655   0.154   8.421 -0.1512 -1.3462  2.1103
 1403TIP3   OH225767   6.069   5.754   8.438 -0.0161 -0.1219  0.0678
 1403TIP3    H125768   6.098   5.840   8.469 -1.9842  0.3417  0.8027
 1403TIP3    H225769   6.066   5.699   8.516 -0.7762 -0.2367 -0.0339
 1404TIP3   OH225770   2.063   1.508   8.475  0.2655  0.1974  0.2441
 1404TIP3    H125771   1.967   1.511   8.470  0.3463  2.2235 -0.8627
 1404TIP3    H225772   2.089   1.596   8.500  1.8876 -0.1687 -0.0419
 1405TIP3   OH225773   2.100   5.566   0.484 -0.2899  0.1439 -0.0638
 1405TIP3    H125774   2.104   5.479   0.523  0.3346  1.0031  1.9237
 1405TIP3    H225775   2.192   5.593   0.477 -0.4580  0.4865 -1.0731
 1406TIP3   OH225776   4.783   6.761   7.877  0.1251  0.0210  0.2410
 1406TIP3    H125777   4.703   6.797   7.839  0.2466 -0.3726 -0.4264
 1406TIP3    H225778   4.837   6.741   7.801  1.1374  0.9030  0.7110
 1407TIP3   OH225779   4.362   5.422   7.696 -0.3264 -0.6044 -1.1125
 1407TIP3    H125780   4.320   5.350   7.647  0.4278 -2.0880  0.3197
 1407TIP3    H225781   4.426   5.458   7.635  0.4463 -2.2736 -1.3419
 1408TIP3   OH225782   5.434   0.614   6.859  0.2948  0.4925 -0.3396
 1408TIP3    H125783   5.417   0.643   6.948  0.0390  3.4916 -1.2486
 1408TIP3    H225784   5.400   0.684   6.804  2.1584 -0.3337 -2.7336
 1409TIP3   OH225785   1.341   5.245   0.149 -0.8737  0.4583 -0.3760
 1409TIP3    H125786   1.363   5.152   0.157  0.1192  0.6059 -1.1386
 1409TIP3    H225787   1.273   5.259   0.214 -1.8528 -1.0553 -1.0139
 1410TIP3   OH225788   1.401   6.573   2.422  0.5125 -0.3269 -0.4324
 1410TIP3    H125789   1.342   6.602   2.352 -1.4365 -0.3278  1.0866
 1410TIP3    H225790   1.455   6.506   2.383 -0.1893  0.0123 -2.0602
 1411TIP3   OH225791   2.481   6.586   1.327 -0.1657 -0.4583  0.1084
 1411TIP3    H125792   2.439   6.575   1.412 -1.9678 -0.0027 -0.6871
 1411TIP3    H225793   2.500   6.496   1.299 -0.5358 -0.6673  0.5094
 1412TIP3   OH225794   2.165   5.761   6.880 -0.2243  0.5301  0.2086
 1412TIP3    H125795   2.074   5.737   6.863 -0.0375  0.2911 -0.4648
 1412TIP3    H225796   2.199   5.789   6.796  1.2582 -2.4695 -0.3502
 1413TIP3   OH225797   2.185   3.034   2.924  0.1895  0.5073 -0.6927
 1413TIP3    H125798   2.180   2.976   3.001 -1.6822 -1.9639 -2.4939
 1413TIP3    H225799   2.175   3.122   2.960 -0.9262 -0.5499  1.8986
 1414TIP3   OH225800   3.487   6.583   2.198  0.1050 -0.1713  0.5230
 1414TIP3    H125801   3.414   6.602   2.138  1.4458  1.7115 -0.6156
 1414TIP3    H225802   3.521   6.499   2.167  0.8892  0.8454 -1.5720
 1415TIP3   OH225803   2.499   0.730   2.104 -0.6687  0.0466  0.3753
 1415TIP3    H125804   2.464   0.763   2.187  0.0367  1.8894 -0.0118
 1415TIP3    H225805   2.499   0.806   2.046  0.8708 -0.6712 -0.6480
 1416TIP3   OH225806   3.428   4.676   1.446  0.2476  0.4855 -0.4355
 1416TIP3    H125807   3.487   4.607   1.414  1.1624  2.1274 -2.5140
 1416TIP3    H225808   3.452   4.685   1.538  1.1816 -0.9072 -0.4907
 1417TIP3   OH225809   6.535   6.387   2.973  0.4796 -0.4857  0.0980
 1417TIP3    H125810   6.464   6.348   2.922 -0.1484 -1.0218  1.3390
 1417TIP3    H225811   6.555   6.469   2.928 -2.5729  0.9239  1.0391
 1418TIP3   OH225812   1.787   1.454   0.998 -0.7045  0.0842 -0.1806
 1418TIP3    H125813   1.866   1.506   0.984  0.0396 -1.6207 -2.7922
 1418TIP3    H225814   1.719   1.499   0.948 -1.1593  0.8855  1.1024
 1419TIP3   OH225815   3.082   0.223   0.375 -0.3997 -0.4986  0.2210
 1419TIP3    H125816   3.170   0.243   0.404  0.2521 -1.4595 -0.9669
 1419TIP3    H225817   3.057   0.298   0.321  0.8700 -1.4475 -1.8090
 1420TIP3   OH225818   4.908   4.416   1.202  0.1219  0.1551  0.1297
 1420TIP3    H125819   4.964   4.468   1.144  0.2641 -1.6626 -1.4890
 1420TIP3    H225820   4.963   4.342   1.228 -1.5900 -2.1182 -2.1437
 1421TIP3   OH225821   1.288   0.925   7.762 -0.5600 -0.2802  0.1796
 1421TIP3    H125822   1.217   0.989   7.766  1.3360  2.0468 -0.5616
 1421TIP3    H225823   1.353   0.965   7.704  1.1853 -2.4700  0.4727
 1422TIP3   OH225824   5.914   0.800   8.192 -0.4098  0.1447 -0.0710
 1422TIP3    H125825   5.889   0.741   8.122  0.8624 -1.3816  0.6747
 1422TIP3    H225826   5.861   0.772   8.267 -0.3886  0.4894  0.0734
 1423TIP3   OH225827   3.705   4.366   1.202  0.6028  0.0791 -0.0972
 1423TIP3    H125828   3.683   4.380   1.110 -0.2260 -0.7435 -0.0450
 1423TIP3    H225829   3.676   4.445   1.246  0.1677  0.1071 -0.4236
 1424TIP3   OH225830   5.381   5.664   2.109 -0.0312 -0.7037 -0.2934
 1424TIP3    H125831   5.298   5.702   2.138 -0.7425 -1.4476 -1.2706
 1424TIP3    H225832   5.395   5.701   2.022  0.4050 -0.9772 -0.3460
 1425TIP3   OH225833   1.284   1.108   1.202  0.0466 -0.4128 -0.3493
 1425TIP3    H125834   1.273   1.117   1.297  0.2527  0.2000 -0.3755
 1425TIP3    H225835   1.196   1.116   1.166 -0.1689 -1.6733 -0.1474
 1426TIP3   OH225836   3.390   4.937   2.538 -0.3117  0.1454 -0.1342
 1426TIP3    H125837   3.437   5.001   2.592 -0.6209 -0.0032  0.3200
 1426TIP3    H225838   3.392   4.974   2.450  0.3078  0.3327 -0.0437
 1427TIP3   OH225839   0.835   4.794   7.364  0.3297  0.7531 -0.1888
 1427TIP3    H125840   0.899   4.828   7.302  0.3912  1.5749  0.3146
 1427TIP3    H225841   0.883   4.788   7.447  0.1201  0.1146 -0.1081
 1428TIP3   OH225842   1.299   1.887   7.802  0.0646 -0.2198  0.4887
 1428TIP3    H125843   1.304   1.802   7.846 -1.9674  0.1320  1.5261
 1428TIP3    H225844   1.372   1.937   7.839  1.9801 -1.7965 -0.9515
 1429TIP3   OH225845   0.050   2.556   1.197 -0.4943  0.0253  0.2717
 1429TIP3    H125846  -0.027   2.600   1.232 -1.3404 -1.2488  0.0913
 1429TIP3    H225847   0.105   2.627   1.162 -1.9806  0.8938 -0.3801
 1430TIP3   OH225848   1.147   4.715   1.778  0.6166 -0.2639  0.5613
 1430TIP3    H125849   1.218   4.777   1.765  0.4018  0.0126  0.7060
 1430TIP3    H225850   1.109   4.703   1.690  0.1432  0.4318  0.6588
 1431TIP3   OH225851   5.303   4.341   1.681  0.1374 -0.1036 -0.0315
 1431TIP3    H125852   5.397   4.343   1.703  0.0391  1.8949  0.4471
 1431TIP3    H225853   5.260   4.324   1.765  0.0332  0.6134  0.0699
 1432TIP3   OH225854   5.937   5.108   8.613  0.4934  0.0665  0.0885
 1432TIP3    H125855   5.878   5.034   8.596  0.3885  0.3020 -0.6121
 1432TIP3    H225856   5.908   5.142   8.698  0.1666 -0.3406  0.1468
 1433TIP3   OH225857   6.822   3.617   7.934 -0.2825  0.1314  0.0074
 1433TIP3    H125858   6.746   3.616   7.876 -0.7209  1.7638  0.4963
 1433TIP3    H225859   6.855   3.707   7.929  1.3531 -0.4154  0.1710
 1434TIP3   OH225860   6.366   6.119   2.926  0.3573  0.4611  0.0149
 1434TIP3    H125861   6.437   6.119   2.990  0.4393  0.1662 -0.0739
 1434TIP3    H225862   6.386   6.045   2.868  0.6450  1.1336 -0.7573
 1435TIP3   OH225863   4.218   2.163   7.067  0.4864  0.6717 -0.3987
 1435TIP3    H125864   4.289   2.138   7.009 -0.0069  1.2661 -1.2861
 1435TIP3    H225865   4.223   2.101   7.139  0.6327 -0.5955 -1.4597
 1436TIP3   OH225866   2.351   3.800   6.942  0.1520  0.5442  0.4563
 1436TIP3    H125867   2.440   3.802   6.906 -0.6237 -1.5828 -1.9070
 1436TIP3    H225868   2.346   3.718   6.991 -0.2208  1.1523  1.4614
 1437TIP3   OH225869   2.402   1.055   0.878  0.3809 -0.1566  0.8576
 1437TIP3    H125870   2.477   1.034   0.822 -1.7775 -0.3813 -2.1673
 1437TIP3    H225871   2.379   1.144   0.854  0.2242  0.2768  2.5002
 1438TIP3   OH225872   2.831   2.570   2.370 -0.1336 -0.4282 -0.6211
 1438TIP3    H125873   2.802   2.659   2.350  1.3307 -0.0508 -1.2406
 1438TIP3    H225874   2.825   2.563   2.466  0.2841  0.5580 -0.5114
 1439TIP3   OH225875   2.538   4.716   2.664 -0.1684  0.1544  0.1922
 1439TIP3    H125876   2.444   4.725   2.677 -0.2365  1.4704 -1.0210
 1439TIP3    H225877   2.563   4.641   2.718 -1.9794 -0.4877  0.1774
 1440TIP3   OH225878   6.804   6.293   8.279  0.5741 -0.2922  0.1000
 1440TIP3    H125879   6.757   6.220   8.319  2.5484 -2.2100 -0.8235
 1440TIP3    H225880   6.736   6.355   8.253 -1.3999 -2.5722 -0.5872
 1441TIP3   OH225881   6.810   4.090   8.151  0.1446 -0.1437  0.1418
 1441TIP3    H125882   6.902   4.071   8.171 -0.0701 -0.4898  0.8106
 1441TIP3    H225883   6.809   4.103   8.056  1.0516  0.8080  0.2384
 1442TIP3   OH225884   5.684   5.910   0.578  0.2506 -0.5242 -0.5000
 1442TIP3    H125885   5.667   5.846   0.509  1.6528 -1.6804  0.1904
 1442TIP3    H225886   5.721   5.985   0.532 -0.2098 -0.7019 -1.1714
 1443TIP3   OH225887   6.427   4.930   0.620 -0.6059 -0.3089 -0.1396
 1443TIP3    H125888   6.415   4.886   0.704  0.6270  0.6467  0.5762
 1443TIP3    H225889   6.351   4.988   0.612 -1.3872 -1.3343 -0.3161
 1444TIP3   OH225890   6.069   3.303   7.911 -0.1760 -0.2927 -0.2097
 1444TIP3    H125891   5.993   3.341   7.867 -1.1690 -1.4955  0.4314
 1444TIP3    H225892   6.067   3.211   7.888  0.0477 -0.6899  1.2449
 1445TIP3   OH225893   3.049   0.771   8.199  0.1239 -0.5505 -0.2601
 1445TIP3    H125894   2.953   0.764   8.198  0.1680 -1.8386  0.9795
 1445TIP3    H225895   3.066   0.860   8.170 -1.4756 -0.1334 -0.0496
 1446TIP3   OH225896   3.637   3.159   7.959  0.4285 -0.0864 -0.0778
 1446TIP3    H125897   3.659   3.122   8.044 -1.1330 -1.0235 -0.0364
 1446TIP3    H225898   3.681   3.103   7.896  2.5597  1.3066  0.0967
 1447TIP3   OH225899   4.941   1.079   1.658 -0.9867 -0.0123 -0.7952
 1447TIP3    H125900   5.022   1.033   1.678 -2.3813 -2.0044  0.6593
 1447TIP3    H225901   4.952   1.109   1.568  1.0296 -0.9272 -0.9034
 1448TIP3   OH225902   4.817   0.397   8.020  0.1351  0.8828 -0.4990
 1448TIP3    H125903   4.731   0.413   8.057  0.4167  0.9044  0.1602
 1448TIP3    H225904   4.834   0.305   8.039  0.9535  1.2856  0.8837
 1449TIP3   OH225905   1.018   5.012   8.000  0.0288 -0.2575 -0.1603
 1449TIP3    H125906   1.035   5.100   7.967  2.3724 -0.4174  0.4784
 1449TIP3    H225907   0.990   5.026   8.091  0.7655 -0.1674  0.0596
 1450TIP3   OH225908   5.512   0.665   0.695  0.5736  0.3657  0.1324
 1450TIP3    H125909   5.543   0.744   0.740  1.0123 -0.7350  1.8515
 1450TIP3    H225910   5.576   0.597   0.719 -1.9583 -1.4890  2.0830
 1451TIP3   OH225911   6.184   2.268   0.776 -0.1174  0.2175  0.0616
 1451TIP3    H125912   6.231   2.197   0.733  0.3934  0.9957 -0.7134
 1451TIP3    H225913   6.250   2.311   0.830 -1.0158 -1.5040  2.7217
 1452TIP3   OH225914   3.392   0.006   0.666 -0.0557 -0.5186  0.2773
 1452TIP3    H125915   3.349   0.090   0.682 -0.7427 -0.9528  0.7533
 1452TIP3    H225916   3.483   0.019   0.694 -0.2811 -0.0824  0.8224
 1453TIP3   OH225917   4.695   3.248   1.656 -0.1099 -0.3141 -0.4427
 1453TIP3    H125918   4.667   3.290   1.738 -1.2800  1.5449 -1.7101
 1453TIP3    H225919   4.739   3.318   1.607 -0.1933 -1.1500 -1.7587
 1454TIP3   OH225920   3.742   4.030   1.781 -0.8396  0.3039  0.3804
 1454TIP3    H125921   3.711   3.945   1.749 -1.7221  0.4413  0.8617
 1454TIP3    H225922   3.693   4.045   1.861 -1.2723  1.6350 -0.1154
 1455TIP3   OH225923   3.959   5.015   0.140  0.2996  0.2255  0.3618
 1455TIP3    H125924   3.920   4.934   0.106  0.1694  1.2344 -2.0844
 1455TIP3    H225925   4.040   4.986   0.183  0.0679 -1.2476 -0.1330
 1456TIP3   OH225926   3.513   4.126   8.020  0.1650 -0.0958 -0.0641
 1456TIP3    H125927   3.500   4.192   8.089 -1.0897  0.1266 -0.4842
 1456TIP3    H225928   3.578   4.164   7.962 -1.0360  1.1136 -0.6703
 1457TIP3   OH225929   6.469   0.596   0.518  0.2345  0.8875 -0.3363
 1457TIP3    H125930   6.517   0.519   0.549  0.5505  1.4798  0.6893
 1457TIP3    H225931   6.503   0.668   0.572 -0.0728  1.7406 -1.2571
 1458TIP3   OH225932   6.362   0.816   2.390  0.3141  0.5862  0.7215
 1458TIP3    H125933   6.354   0.783   2.301 -0.9571 -1.2658  1.4648
 1458TIP3    H225934   6.368   0.911   2.380 -2.3321  0.6585 -1.2329
 1459TIP3   OH225935   6.443   2.116   0.707 -0.1562 -0.4315 -0.2252
 1459TIP3    H125936   6.406   2.032   0.731 -0.2132 -0.3978 -0.1959
 1459TIP3    H225937   6.536   2.108   0.729 -0.3288 -0.1643  0.6598
 1460TIP3   OH225938   0.120   6.184   7.229 -0.4400 -0.3741 -0.4289
 1460TIP3    H125939   0.149   6.112   7.173 -1.0974 -0.6521 -0.4163
 1460TIP3    H225940   0.171   6.259   7.199  0.5697 -0.9365 -0.1508
 1461TIP3   OH225941   1.744   5.732   7.098 -0.3405  0.3647 -0.0866
 1461TIP3    H125942   1.834   5.715   7.127  0.3065  1.2368 -1.4848
 1461TIP3    H225943   1.754   5.788   7.021 -2.0097 -1.1725 -1.5071
 1462TIP3   OH225944   4.428   1.139   1.382 -0.5275 -0.2548 -0.8397
 1462TIP3    H125945   4.463   1.191   1.310  1.6225  0.3412  0.5270
 1462TIP3    H225946   4.473   1.172   1.460 -2.0772 -1.4836  0.6701
 1463TIP3   OH225947   5.417   3.776   7.446  0.4108 -0.1385  0.2506
 1463TIP3    H125948   5.438   3.713   7.515  0.3802 -0.3091  0.1056
 1463TIP3    H225949   5.336   3.743   7.408  0.0058  0.3821  0.6457
 1464TIP3   OH225950   0.861   3.537   8.555 -0.2024  0.0117 -0.9498
 1464TIP3    H125951   0.856   3.523   8.649 -2.7415  1.1559 -0.8274
 1464TIP3    H225952   0.903   3.623   8.545 -0.3157  0.0787 -0.8429
 1465TIP3   OH225953   6.713   2.059   0.724 -0.2022 -0.3646  0.4663
 1465TIP3    H125954   6.723   1.988   0.788  3.0548  0.0983  0.6126
 1465TIP3    H225955   6.738   2.020   0.641 -0.2458  0.1441  0.2106
 1466TIP3   OH225956   5.452   4.863   8.258 -0.5507 -0.2451 -0.3057
 1466TIP3    H125957   5.532   4.811   8.261 -0.6717 -0.4763 -1.0221
 1466TIP3    H225958   5.482   4.953   8.251 -0.3340 -0.1721  1.1744
 1467TIP3   OH225959   4.038   4.075   8.392 -0.0361 -0.9083  0.8169
 1467TIP3    H125960   4.132   4.057   8.383 -0.6941 -3.8315 -2.0941
 1467TIP3    H225961   4.026   4.156   8.342  0.7283 -1.5830 -0.5433
 1468TIP3   OH225962   4.008   0.055   8.604 -0.3620 -0.0695 -0.8201
 1468TIP3    H125963   3.943   0.018   8.543 -1.1910 -0.8273  0.4821
 1468TIP3    H225964   4.003  -0.002   8.681  1.3176  0.3275 -0.3913
 1469TIP3   OH225965   1.770   0.168   6.972 -0.0873  0.0219  0.0545
 1469TIP3    H125966   1.711   0.096   6.954 -0.7398  0.8502 -1.2705
 1469TIP3    H225967   1.713   0.245   6.981  0.7695  1.0838 -2.5260
 1470TIP3   OH225968   4.332   4.202   2.276 -0.5054  0.0596  0.4061
 1470TIP3    H125969   4.391   4.164   2.211  0.0952  1.4020  0.1417
 1470TIP3    H225970   4.372   4.182   2.361 -1.2193 -1.5744  0.3934
 1471TIP3   OH225971   1.812   3.487   2.141 -0.0885  0.6200 -0.0396
 1471TIP3    H125972   1.798   3.574   2.104 -2.4485  0.4109  0.2209
 1471TIP3    H225973   1.759   3.486   2.221  1.5381 -0.3807  1.1009
 1472TIP3   OH225974   4.037   1.836   8.111  0.1144  0.1606 -0.1298
 1472TIP3    H125975   3.960   1.803   8.066  0.7742 -0.0813 -1.1194
 1472TIP3    H225976   4.042   1.928   8.085 -0.7546  0.6295  1.2586
 1473TIP3   OH225977   5.250   4.301   8.392  0.0555  0.2774 -0.3024
 1473TIP3    H125978   5.190   4.375   8.384  1.9069  1.9799  0.5655
 1473TIP3    H225979   5.295   4.297   8.308 -0.8992 -0.6906 -0.7849
 1474TIP3   OH225980   3.271   1.653   8.542 -0.1981 -0.2273  0.6893
 1474TIP3    H125981   3.209   1.694   8.482  1.9158 -0.6076 -1.9856
 1474TIP3    H225982   3.309   1.725   8.591 -0.6814  0.3172  0.2775
 1475TIP3   OH225983   3.793   0.906   7.556 -0.3877 -0.2475 -0.4853
 1475TIP3    H125984   3.870   0.946   7.515  0.3096 -1.2246 -0.1593
 1475TIP3    H225985   3.739   0.877   7.483 -1.1098  1.6272 -0.7389
 1476TIP3   OH225986   3.530   4.111   0.365 -0.1229  0.1622 -0.4081
 1476TIP3    H125987   3.611   4.162   0.367  0.0395 -0.1023  0.2943
 1476TIP3    H225988   3.527   4.073   0.277  1.4515 -1.2912  0.1129
 1477TIP3   OH225989   3.188   1.161   0.636 -0.4660 -0.0863 -0.7426
 1477TIP3    H125990   3.120   1.173   0.702  0.4825  0.3921  0.1760
 1477TIP3    H225991   3.227   1.247   0.625  0.4755 -0.4921 -0.7056
 1478TIP3   OH225992   6.305   4.896   2.186  0.0589  0.1067  0.0257
 1478TIP3    H125993   6.322   4.986   2.215  0.2561 -0.4316  1.6597
 1478TIP3    H225994   6.223   4.872   2.229  1.3987 -1.4210  1.8799
 1479TIP3   OH225995   6.592   4.655   0.996 -0.3385 -0.2634  0.3565
 1479TIP3    H125996   6.647   4.605   0.936 -0.8689  0.2061 -0.5309
 1479TIP3    H225997   6.645   4.732   1.018  0.2325 -0.8818  1.2517
 1480TIP3   OH225998   5.024   5.166   0.816 -0.0726  0.9696  0.1695
 1480TIP3    H125999   5.089   5.210   0.762 -0.1578 -1.1168 -1.8080
 1480TIP3    H226000   5.076   5.109   0.874 -0.0717  0.8864  0.0868
 1481TIP3   OH226001   3.918   1.302   8.106  0.4674 -0.0053 -0.2803
 1481TIP3    H126002   3.909   1.221   8.057  1.2155  1.9544 -3.9700
 1481TIP3    H226003   3.829   1.338   8.109  0.1450 -0.8317  1.3108
 1482TIP3   OH226004   1.388   1.484   7.625  0.2862  0.3081 -0.1984
 1482TIP3    H126005   1.429   1.513   7.706 -1.0719  1.0694  0.2469
 1482TIP3    H226006   1.461   1.480   7.562  0.8614  3.1923  0.1308
 1483TIP3   OH226007   1.912   2.260   8.122  0.0866 -0.5247  0.2749
 1483TIP3    H126008   1.956   2.344   8.108 -0.2798 -0.2999  0.4490
 1483TIP3    H226009   1.980   2.195   8.106  0.5395 -0.1813  0.7178
 1484TIP3   OH226010   0.705   1.702   0.318  0.0468 -0.4062  0.1232
 1484TIP3    H126011   0.677   1.688   0.409  0.7080 -2.0824  0.1193
 1484TIP3    H226012   0.629   1.740   0.275  0.2012  1.8369  1.6863
 1485TIP3   OH226013   5.105   0.218   1.908 -0.1286  0.2258  0.2486
 1485TIP3    H126014   5.193   0.222   1.946 -0.6352  0.8426  1.4254
 1485TIP3    H226015   5.108   0.277   1.833  0.7274 -0.5282 -0.3285
 1486TIP3   OH226016   4.773   0.440   0.351 -0.2794  0.2517 -0.5376
 1486TIP3    H126017   4.806   0.460   0.263  1.1019  0.1333 -0.0762
 1486TIP3    H226018   4.796   0.348   0.365 -1.6342 -0.1017 -0.5285
 1487TIP3   OH226019   6.460   5.700   1.506 -0.3608 -0.2525 -1.0889
 1487TIP3    H126020   6.419   5.696   1.592 -2.6427 -0.8125 -2.1265
 1487TIP3    H226021   6.387   5.710   1.445  0.9770 -1.9544 -3.1243
 1488TIP3   OH226022   3.715   5.971   1.104  0.6848 -0.1493 -0.4166
 1488TIP3    H126023   3.772   5.894   1.104  0.6001 -0.2941  2.0863
 1488TIP3    H226024   3.650   5.953   1.035  2.2696 -1.0012 -1.7552
 1489TIP3   OH226025   5.826   2.541   8.110  0.7342  0.4011  0.6506
 1489TIP3    H126026   5.814   2.632   8.082 -0.4512 -0.0948 -0.5695
 1489TIP3    H226027   5.744   2.518   8.154  0.9304 -0.1466  0.7446
 1490TIP3   OH226028   1.810   2.129   0.332  0.4269 -0.2181  0.3648
 1490TIP3    H126029   1.836   2.072   0.404 -0.1626 -0.9718 -0.0005
 1490TIP3    H226030   1.715   2.139   0.341  0.6198  1.4639  0.9430
 1491TIP3   OH226031   5.046   2.751   7.066  0.0516  0.0831 -0.4166
 1491TIP3    H126032   5.102   2.680   7.035 -2.4279 -1.2463 -2.2025
 1491TIP3    H226033   4.991   2.710   7.133  0.3811  1.0829  0.5006
 1492TIP3   OH226034   1.616   6.587   2.620  0.0518  0.2659 -0.1065
 1492TIP3    H126035   1.662   6.671   2.614  0.0798  0.3692  1.1527
 1492TIP3    H226036   1.549   6.591   2.552 -0.1113  1.4236  0.0997
 1493TIP3   OH226037   2.174   6.724   7.348 -0.0195 -0.2120  0.5123
 1493TIP3    H126038   2.168   6.816   7.373  0.2350 -0.1742  0.4432
 1493TIP3    H226039   2.111   6.679   7.403 -1.2778  0.2207 -0.5100
 1494TIP3   OH226040   4.866   3.120   0.142 -0.1552 -0.1429  0.5285
 1494TIP3    H126041   4.816   3.169   0.207 -0.7594  1.3556 -1.0115
 1494TIP3    H226042   4.804   3.055   0.108 -0.5183  0.5141 -0.0838
 1495TIP3   OH226043   2.578   2.883   0.604  0.6146 -0.1650 -0.0106
 1495TIP3    H126044   2.653   2.875   0.544 -0.3212  0.2525 -1.2782
 1495TIP3    H226045   2.515   2.819   0.571  0.2895 -0.3255  0.8924
 1496TIP3   OH226046   5.909   6.562   0.264  0.4930  0.3666  0.1008
 1496TIP3    H126047   5.872   6.618   0.196 -0.9239 -0.5648  0.0726
 1496TIP3    H226048   5.944   6.623   0.329  0.2814  1.2727 -0.6084
 1497TIP3   OH226049   1.853   2.150   7.580  1.1670  0.6654  0.1535
 1497TIP3    H126050   1.800   2.229   7.579  0.0968 -0.0337 -0.0231
 1497TIP3    H226051   1.818   2.097   7.509  0.9175 -0.5681  1.1656
 1498TIP3   OH226052   0.350   0.678   1.384 -0.0273  0.0063  0.0059
 1498TIP3    H126053   0.328   0.715   1.298  1.1938  2.6480  0.7329
 1498TIP3    H226054   0.268   0.640   1.415 -0.3822 -1.5143 -2.4890
 1499TIP3   OH226055   1.358   3.990   0.176 -0.3814 -0.7671 -0.4126
 1499TIP3    H126056   1.305   3.916   0.205 -2.1845  0.7204  0.2813
 1499TIP3    H226057   1.380   4.037   0.256 -0.6761  0.3548 -0.9751
 1500TIP3   OH226058   2.565   0.750   7.663 -0.1102 -0.5100 -0.2712
 1500TIP3    H126059   2.541   0.817   7.599  0.9403  1.3758  1.1760
 1500TIP3    H226060   2.661   0.750   7.663 -0.0401  0.5786  2.2114
 1501TIP3   OH226061   2.374   0.788   0.965  0.0828 -0.4641  0.1031
 1501TIP3    H126062   2.382   0.878   0.933 -1.0756 -0.7057 -0.9585
 1501TIP3    H226063   2.447   0.777   1.026 -0.5526  1.6128  1.3082
 1502TIP3   OH226064   5.005   3.013   8.319 -0.5043  0.6692 -0.0731
 1502TIP3    H126065   4.980   2.923   8.339 -2.3970  1.0666 -0.4660
 1502TIP3    H226066   4.959   3.065   8.385 -1.2035  1.4760 -1.1719
 1503TIP3   OH226067   4.885   6.758   0.642  0.2300 -0.2374  0.3253
 1503TIP3    H126068   4.852   6.847   0.652 -0.4282 -0.6383  1.8954
 1503TIP3    H226069   4.809   6.707   0.613  0.2723 -0.5466  0.7529
 1504TIP3   OH226070   5.169   0.380   3.061  0.5692  0.0746  0.6194
 1504TIP3    H126071   5.100   0.380   2.994  1.1511  0.5870  0.0104
 1504TIP3    H226072   5.121   0.373   3.144 -0.2203  0.3670  0.2023
 1505TIP3   OH226073   2.763   1.650   7.903  0.1199 -0.0152  0.0499
 1505TIP3    H126074   2.817   1.575   7.927 -0.2100 -0.3239 -0.1613
 1505TIP3    H226075   2.702   1.617   7.837  0.1823  0.5192 -0.2886
 1506TIP3   OH226076   3.821   0.579   2.608 -0.4823  0.0199 -0.3083
 1506TIP3    H126077   3.781   0.518   2.546 -0.3713  0.3976 -0.7605
 1506TIP3    H226078   3.899   0.610   2.563  0.2564 -0.6089  0.5131
 1507TIP3   OH226079   3.690   5.455   7.709  0.3775  0.0289 -0.4627
 1507TIP3    H126080   3.642   5.475   7.789  1.4121  0.7216  0.0158
 1507TIP3    H226081   3.661   5.521   7.646  0.3374  0.1359 -0.3319
 1508TIP3   OH226082   5.163   5.416   1.251  0.1947 -0.2296 -0.0063
 1508TIP3    H126083   5.140   5.343   1.192  0.5468 -1.2587  1.0837
 1508TIP3    H226084   5.093   5.417   1.315  0.5093  0.0055  0.3323
 1509TIP3   OH226085   1.357   6.094   6.859 -0.3189 -0.3064 -0.6387
 1509TIP3    H126086   1.334   6.034   6.930 -0.8619 -1.1910 -1.5250
 1509TIP3    H226087   1.442   6.063   6.828 -0.0069  0.1797 -0.2683
 1510TIP3   OH226088   0.641   3.302   7.680  0.1687  0.2599 -0.0509
 1510TIP3    H126089   0.666   3.295   7.772  1.0863  0.8119 -0.2423
 1510TIP3    H226090   0.545   3.312   7.682  0.2248  0.7692  0.8772
 1511TIP3   OH226091   5.695   0.158   8.088  0.6382 -0.3026 -0.0882
 1511TIP3    H126092   5.710   0.183   8.180 -0.7458  0.3081 -0.0132
 1511TIP3    H226093   5.632   0.086   8.093 -0.5605  0.6747 -0.5987
 1512TIP3   OH226094   0.818   5.627   1.466 -0.4137 -0.0137  0.5582
 1512TIP3    H126095   0.825   5.716   1.501 -0.7842  0.3466 -0.2665
 1512TIP3    H226096   0.849   5.634   1.376 -0.4369 -0.7278  0.4884
 1513TIP3   OH226097   1.982   3.110   1.208 -0.3665  0.2315 -0.0088
 1513TIP3    H126098   1.920   3.072   1.270  1.4748 -1.7277  0.7735
 1513TIP3    H226099   1.965   3.064   1.126  0.0713 -0.3665  0.2277
 1514TIP3   OH226100   3.760   4.370   7.211  0.0881 -0.0041 -0.3949
 1514TIP3    H126101   3.740   4.276   7.217  0.1458 -0.0502 -0.9013
 1514TIP3    H226102   3.839   4.381   7.264  1.1793 -0.5884 -1.8293
 1515TIP3   OH226103   3.039   5.637   2.855 -0.4495 -0.3051  0.3016
 1515TIP3    H126104   2.992   5.581   2.793  1.0849 -1.6730  0.3181
 1515TIP3    H226105   2.971   5.671   2.913 -1.6606 -0.6127 -0.8930
 1516TIP3   OH226106   2.791   6.330   2.196 -0.3429  0.1232 -0.5327
 1516TIP3    H126107   2.865   6.352   2.139 -0.6164 -0.1441 -0.9965
 1516TIP3    H226108   2.781   6.407   2.252  1.1369 -0.3744  0.4527
 1517TIP3   OH226109   0.518   2.728   2.273  0.0113 -0.2623  0.0680
 1517TIP3    H126110   0.601   2.772   2.290 -0.1988  0.0045  0.4258
 1517TIP3    H226111   0.465   2.793   2.227  0.2158 -0.6419 -0.7292
 1518TIP3   OH226112   0.402   2.818   8.161  0.5285 -0.3610 -0.2183
 1518TIP3    H126113   0.347   2.862   8.097  0.3247 -0.0763  0.1479
 1518TIP3    H226114   0.358   2.735   8.179 -0.7455  0.5865  1.3644
 1519TIP3   OH226115   3.966   1.517   2.016 -0.2655 -0.0083 -0.3725
 1519TIP3    H126116   3.933   1.496   1.929 -3.1455 -2.0906  1.0424
 1519TIP3    H226117   3.900   1.576   2.053 -0.6926 -1.4425  1.3131
 1520TIP3   OH226118   1.359   2.783   3.062  0.0809 -0.3640 -0.3006
 1520TIP3    H126119   1.349   2.879   3.062 -1.3862 -0.4917  0.0109
 1520TIP3    H226120   1.285   2.751   3.113  0.1391 -1.7118 -1.0062
 1521TIP3   OH226121   4.343   4.589   1.869  0.1553 -0.1305  0.1540
 1521TIP3    H126122   4.306   4.503   1.848 -0.0460  0.5099 -2.4446
 1521TIP3    H226123   4.351   4.633   1.785  1.7640  1.8301  1.2443
 1522TIP3   OH226124   5.789   6.780   1.380 -0.1500 -0.3738  0.2457
 1522TIP3    H126125   5.808   6.704   1.435  0.3010 -2.3100 -2.4311
 1522TIP3    H226126   5.698   6.767   1.352  0.1827 -0.3689 -0.8594
 1523TIP3   OH226127   6.621   1.312   0.340 -0.1810 -0.6128 -0.0787
 1523TIP3    H126128   6.537   1.270   0.357 -0.7739 -0.1151 -1.6473
 1523TIP3    H226129   6.642   1.357   0.423 -1.0668 -1.3681  0.5793
 1524TIP3   OH226130   2.156   5.562   6.648  0.1702 -0.2640  0.4443
 1524TIP3    H126131   2.170   5.642   6.597  1.1797 -0.3827  0.5138
 1524TIP3    H226132   2.128   5.593   6.734 -0.3296 -0.0203  0.1971
 1525TIP3   OH226133   6.374   1.220   0.358  0.4238 -0.7098  0.3146
 1525TIP3    H126134   6.368   1.183   0.269 -1.7862  1.6326 -0.6246
 1525TIP3    H226135   6.321   1.160   0.411 -1.5513 -0.0573 -0.7987
 1526TIP3   OH226136   4.808   5.173   1.419  0.3090  0.0811 -0.3217
 1526TIP3    H126137   4.754   5.186   1.497 -3.5388 -1.4909 -2.4213
 1526TIP3    H226138   4.865   5.099   1.440 -2.4950 -2.0648  0.3057
 1527TIP3   OH226139   3.416   2.298   3.004  0.5659 -0.0751 -0.2018
 1527TIP3    H126140   3.413   2.392   2.991 -0.1599  0.1175  1.1831
 1527TIP3    H226141   3.329   2.276   3.037  0.8190 -1.1969 -0.2443
 1528TIP3   OH226142   0.254   0.427   0.561  0.1836  0.6923  0.7192
 1528TIP3    H126143   0.335   0.376   0.561  1.8671  3.1956 -0.7112
 1528TIP3    H226144   0.222   0.421   0.471 -0.3303  1.0316  0.8768
 1529TIP3   OH226145   4.630   4.508   1.052 -0.6923  0.4088  0.3453
 1529TIP3    H126146   4.665   4.523   0.965 -3.0577 -0.3494 -0.8334
 1529TIP3    H226147   4.589   4.592   1.076 -0.0083  0.6299  0.7764
 1530TIP3   OH226148   5.252   3.414   1.155 -0.1139 -0.1484 -0.8278
 1530TIP3    H126149   5.324   3.474   1.137  1.3688 -1.6922 -0.3285
 1530TIP3    H226150   5.195   3.461   1.215  1.4444  0.4679  0.2185
 1531TIP3   OH226151   1.264   0.622   1.633  0.1098  0.3326  0.0643
 1531TIP3    H126152   1.174   0.616   1.601 -0.1176 -1.1360  0.9344
 1531TIP3    H226153   1.318   0.604   1.556 -0.3931 -1.0505  0.0181
 1532TIP3   OH226154   0.689   1.195   8.648 -0.6858 -0.1288 -0.5038
 1532TIP3    H126155   0.721   1.114   8.688 -0.5664  0.0493 -0.2325
 1532TIP3    H226156   0.721   1.264   8.706  0.2050  0.2005 -1.3513
 1533TIP3   OH226157   3.631   5.529   1.338  0.1683  0.2496 -0.2101
 1533TIP3    H126158   3.613   5.435   1.333 -2.4883  0.5301  1.8529
 1533TIP3    H226159   3.649   5.545   1.430  0.8080  1.7725 -0.5625
 1534TIP3   OH226160   6.844   3.622   8.537 -0.5095 -0.0490 -0.3744
 1534TIP3    H126161   6.789   3.667   8.601 -1.1137  1.4915 -1.9187
 1534TIP3    H226162   6.924   3.601   8.585 -0.5394  1.9493  0.6533
 1535TIP3   OH226163   5.679   2.057   8.322  0.0631 -0.2619 -0.0414
 1535TIP3    H126164   5.603   2.033   8.269 -1.7975  1.0579  1.8806
 1535TIP3    H226165   5.690   1.983   8.382  0.7134 -0.7335 -0.7341
 1536TIP3   OH226166   2.063   1.823   8.219 -0.2554  0.0688 -0.1286
 1536TIP3    H126167   2.024   1.876   8.149  1.4465  3.9533  1.6115
 1536TIP3    H226168   2.012   1.844   8.297  1.5553  0.6622  0.9670
 1537TIP3   OH226169   0.713   1.176   8.077  0.3420 -0.0458 -0.2682
 1537TIP3    H126170   0.711   1.128   8.160  0.6263  1.0936  0.4271
 1537TIP3    H226171   0.806   1.185   8.058  0.2793 -0.1563 -0.6218
 1538TIP3   OH226172   4.949   1.528   0.953  0.6010  0.2702  0.0163
 1538TIP3    H126173   5.004   1.580   1.012  2.0868 -0.1655 -0.9104
 1538TIP3    H226174   4.915   1.591   0.890  0.7895  0.4144  0.0574
 1539TIP3   OH226175   4.675   5.766   1.143 -0.0463 -0.1348  0.2554
 1539TIP3    H126176   4.695   5.687   1.192 -1.0484 -0.0537  0.8261
 1539TIP3    H226177   4.722   5.836   1.189 -1.6686  0.0803  1.6695
 1540TIP3   OH226178   0.601   2.447   6.792 -0.0243 -0.1183  0.3773
 1540TIP3    H126179   0.655   2.517   6.756 -0.6049 -0.4564 -1.2491
 1540TIP3    H226180   0.512   2.482   6.791 -0.0871 -0.2409  1.2442
 1541TIP3   OH226181   4.763   4.568   0.829 -0.4713 -0.2386 -0.5124
 1541TIP3    H126182   4.830   4.636   0.837 -2.1690  1.7746 -2.2191
 1541TIP3    H226183   4.800   4.505   0.768  0.4482  0.0424 -0.2596
 1542TIP3   OH226184   1.609   4.034   1.337  0.0137  0.0167  0.1133
 1542TIP3    H126185   1.655   3.984   1.269 -1.7307 -0.7436 -0.5891
 1542TIP3    H226186   1.540   4.081   1.289  1.9708  3.7887  0.6359
 1543TIP3   OH226187   3.906   1.026   0.412 -0.2849  0.4291 -0.2070
 1543TIP3    H126188   3.885   1.058   0.325  0.4190  0.1186 -0.4960
 1543TIP3    H226189   3.936   1.103   0.460  0.7730  0.3348 -0.7006
 1544TIP3   OH226190   1.848   6.410   7.315 -0.5528 -0.4268  0.6132
 1544TIP3    H126191   1.757   6.440   7.319 -0.8726 -1.0031 -1.3881
 1544TIP3    H226192   1.876   6.430   7.226  1.0708 -0.9068  0.9799
 1545TIP3   OH226193   6.126   3.410   1.931  0.1078  0.5828 -0.4001
 1545TIP3    H126194   6.190   3.474   1.901  0.8567  1.3411  2.5059
 1545TIP3    H226195   6.157   3.327   1.895  1.0266  1.3725 -1.4848
 1546TIP3   OH226196   4.709   1.958   0.496  0.0595 -0.6143  0.3393
 1546TIP3    H126197   4.691   1.865   0.489  2.0313 -0.9334 -1.4737
 1546TIP3    H226198   4.804   1.965   0.497  0.0660  1.4400 -2.1365
 1547TIP3   OH226199   1.510   1.373   8.549  0.0923 -0.5570  0.4875
 1547TIP3    H126200   1.468   1.289   8.568  1.1502 -1.3018 -0.2902
 1547TIP3    H226201   1.583   1.350   8.490  1.2247  0.7280  1.3300
 1548TIP3   OH226202   3.344   5.703   8.434 -1.3563  0.7419  0.2132
 1548TIP3    H126203   3.390   5.743   8.507 -0.5431  0.5530 -0.1932
 1548TIP3    H226204   3.310   5.777   8.383 -0.6754  0.9006 -0.0136
 1549TIP3   OH226205   0.711   0.678   7.878 -0.5444 -0.3371  0.0762
 1549TIP3    H126206   0.795   0.699   7.837 -0.6798 -0.6496 -0.3708
 1549TIP3    H226207   0.646   0.701   7.812 -0.7806 -0.6360  0.2054
 1550TIP3   OH226208   2.537   4.314   0.274  0.7190 -0.0258  0.0527
 1550TIP3    H126209   2.600   4.267   0.219  0.8802 -0.5115  0.6448
 1550TIP3    H226210   2.499   4.380   0.216 -0.0567 -1.3631 -1.0195
 1551TIP3   OH226211   4.344   6.028   7.074 -0.1703  0.3181 -0.3291
 1551TIP3    H126212   4.292   5.999   6.999 -3.0874  1.2275  1.2131
 1551TIP3    H226213   4.382   6.112   7.047 -2.3450  1.3375 -0.3744
 1552TIP3   OH226214   1.516   5.991   8.441 -0.1835  0.3127  0.4327
 1552TIP3    H126215   1.597   6.030   8.407 -0.0658 -1.6631 -1.7616
 1552TIP3    H226216   1.449   6.058   8.427  0.5852  0.9838 -0.1418
 1553TIP3   OH226217   6.688   1.591   2.299 -0.1143 -0.0196 -0.0489
 1553TIP3    H126218   6.756   1.652   2.326 -0.3598  0.5295 -0.6431
 1553TIP3    H226219   6.622   1.646   2.256 -1.6108 -0.3249  1.7004
 1554TIP3   OH226220   1.273   2.249   7.304  0.2716  0.5170 -0.0140
 1554TIP3    H126221   1.338   2.182   7.285 -0.9995 -0.6702 -0.4050
 1554TIP3    H226222   1.306   2.328   7.262  1.3693 -0.0964 -0.3338
 1555TIP3   OH226223   4.399   1.684   1.477  0.0163  0.1047 -0.5564
 1555TIP3    H126224   4.465   1.739   1.520  0.4239 -1.9714  1.6424
 1555TIP3    H226225   4.328   1.744   1.456  0.9355  1.6820  0.6460
 1556TIP3   OH226226   0.265   6.009   8.442  0.2452 -0.2511 -0.0197
 1556TIP3    H126227   0.291   5.941   8.381  0.8713 -0.3824  0.3893
 1556TIP3    H226228   0.245   5.963   8.523 -3.5486 -0.4708 -0.8916
 1557TIP3   OH226229   1.665   5.536   7.942 -0.5661 -0.0997 -0.2054
 1557TIP3    H126230   1.604   5.539   7.868 -1.7084 -2.1710  0.5873
 1557TIP3    H226231   1.708   5.622   7.940 -2.2621  0.7980 -1.8312
 1558TIP3   OH226232   2.734   3.746   8.153  0.0013 -0.0310 -0.0823
 1558TIP3    H126233   2.814   3.786   8.119 -0.4646  0.4294 -0.6567
 1558TIP3    H226234   2.714   3.676   8.092 -0.0748 -0.0964  0.0171
 1559TIP3   OH226235   6.386   5.972   7.710 -0.7057  0.6786  0.2164
 1559TIP3    H126236   6.417   5.913   7.779  0.3693  1.2015  0.1931
 1559TIP3    H226237   6.291   5.959   7.709 -0.5453 -0.6521  0.5675
 1560TIP3   OH226238   3.653   1.028   1.861  0.1338 -0.0999  0.3312
 1560TIP3    H126239   3.737   1.039   1.907 -1.6711  1.4813  3.6271
 1560TIP3    H226240   3.670   1.056   1.771  2.7895  1.6640  1.2762
 1561TIP3   OH226241   2.694   6.839   1.527 -0.1906  0.3714 -0.3462
 1561TIP3    H126242   2.647   6.810   1.605  1.3992  0.3849  0.6510
 1561TIP3    H226243   2.740   6.761   1.495  0.0656  0.6259 -0.6114
 1562TIP3   OH226244   3.377   4.918   1.324 -0.5135 -0.2041 -0.4190
 1562TIP3    H126245   3.381   4.841   1.381 -0.6479 -1.5434 -2.1366
 1562TIP3    H226246   3.284   4.927   1.303 -0.3295 -0.4975 -1.4017
 1563TIP3   OH226247   3.196   3.125   1.611  0.6723  0.1142  0.1658
 1563TIP3    H126248   3.221   3.043   1.569 -1.3343  0.6017 -2.2307
 1563TIP3    H226249   3.243   3.193   1.563  2.6793  0.4562  2.4232
 1564TIP3   OH226250   3.876   6.268   8.355  0.2180  0.4843  0.7602
 1564TIP3    H126251   3.902   6.240   8.268 -1.9049 -1.2168  0.5979
 1564TIP3    H226252   3.886   6.363   8.355  0.9958  0.4229 -1.0523
 1565TIP3   OH226253   0.375   1.074   7.678 -0.0986  0.7649 -0.1238
 1565TIP3    H126254   0.308   1.014   7.644  1.8393 -1.3742 -0.4039
 1565TIP3    H226255   0.396   1.130   7.604 -1.5022  1.4666 -0.0379
 1566TIP3   OH226256   6.081   5.209   7.687 -0.1680 -0.2445 -0.2235
 1566TIP3    H126257   6.017   5.226   7.617  0.7329  2.2627 -0.5375
 1566TIP3    H226258   6.151   5.161   7.643  0.0085  0.5819 -0.8785
 1567TIP3   OH226259   3.603   3.181   0.782 -0.2818 -0.7734 -0.1774
 1567TIP3    H126260   3.590   3.275   0.768 -1.6080 -1.1135 -1.4926
 1567TIP3    H226261   3.697   3.167   0.769 -0.1507  0.2991 -0.4649
 1568TIP3   OH226262   4.783   5.068   0.311  0.1081 -0.3210  0.1730
 1568TIP3    H126263   4.766   5.030   0.225 -1.0645 -0.3996  0.4244
 1568TIP3    H226264   4.839   5.003   0.354  0.5166 -0.3851 -0.4419
 1569TIP3   OH226265   3.512   5.142   7.836  0.2303 -0.1819 -0.2153
 1569TIP3    H126266   3.435   5.199   7.837  0.9835  0.8930 -1.2933
 1569TIP3    H226267   3.507   5.097   7.751  2.0189  1.6957 -1.4005
 1570TIP3   OH226268   3.411   6.330   8.062  0.4070  0.2688  0.4687
 1570TIP3    H126269   3.394   6.401   8.124  0.0537 -0.2359  0.9574
 1570TIP3    H226270   3.503   6.308   8.076  0.1275 -0.3592  1.3593
 1571TIP3   OH226271   2.306   3.657   8.381  0.3502 -0.2292 -0.2174
 1571TIP3    H126272   2.295   3.642   8.287  1.7663  0.6717 -0.5676
 1571TIP3    H226273   2.364   3.734   8.386  0.7523 -0.6043  1.3848
 1572TIP3   OH226274   4.508   0.235   1.688 -0.1947 -0.0904 -0.4145
 1572TIP3    H126275   4.433   0.179   1.703 -0.8520  0.3067 -2.0248
 1572TIP3    H226276   4.581   0.174   1.675 -0.8518 -0.5970 -1.9160
 1573TIP3   OH226277   5.649   2.643   1.345 -0.0508 -0.1568  0.2114
 1573TIP3    H126278   5.657   2.724   1.395  0.3078  0.0790 -0.2192
 1573TIP3    H226279   5.566   2.605   1.373 -0.5803  0.7304 -0.1159
 1574TIP3   OH226280   3.711   0.412   8.306 -0.8253 -0.2512  0.1226
 1574TIP3    H126281   3.786   0.463   8.275 -0.2836 -1.8547 -1.4253
 1574TIP3    H226282   3.736   0.383   8.393 -0.0389  0.0034 -0.0102
 1575TIP3   OH226283   6.656   6.700   7.719 -0.0389  0.6203  0.6641
 1575TIP3    H126284   6.668   6.758   7.643  0.5397  2.2872  1.9577
 1575TIP3    H226285   6.576   6.651   7.699 -0.3804  1.6322 -0.6391
 1576TIP3   OH226286   1.441   1.757   1.200 -0.3280  0.2523 -0.1420
 1576TIP3    H126287   1.486   1.823   1.253  0.0507  0.1025 -0.2737
 1576TIP3    H226288   1.375   1.807   1.151 -0.8789  0.3496  0.6707
 1577TIP3   OH226289   3.103   3.577   1.309  0.7699  0.2814  0.2928
 1577TIP3    H126290   3.058   3.559   1.392 -0.4455  1.6976 -0.0234
 1577TIP3    H226291   3.114   3.491   1.269 -3.1450 -0.0923 -0.3375
 1578TIP3   OH226292   1.418   0.728   1.826  0.2761  0.0269  0.1992
 1578TIP3    H126293   1.348   0.701   1.767 -0.3248 -1.7349  1.6037
 1578TIP3    H226294   1.492   0.672   1.803  0.2840 -0.1248  0.5813
 1579TIP3   OH226295   2.384   5.745   2.272  0.7740 -0.2652 -0.2953
 1579TIP3    H126296   2.315   5.782   2.327 -0.0492 -1.1022 -0.7393
 1579TIP3    H226297   2.407   5.816   2.212 -1.1186 -0.5437 -1.4427
 1580TIP3   OH226298   6.082   1.321   7.491 -0.2413  0.1070 -0.7072
 1580TIP3    H126299   6.006   1.379   7.489  0.4788  1.1084 -0.0709
 1580TIP3    H226300   6.109   1.313   7.399 -1.2745 -0.5168 -0.9793
 1581TIP3   OH226301   5.592   4.925   0.778 -0.1164 -0.0975  0.3058
 1581TIP3    H126302   5.597   4.886   0.865  0.6915  0.6666  0.6116
 1581TIP3    H226303   5.671   4.895   0.733 -1.0530 -1.3805 -0.5680
 1582TIP3   OH226304   3.709   2.077   1.785 -0.3718  0.1739  0.7569
 1582TIP3    H126305   3.754   2.141   1.839 -0.3494  0.9119 -0.1056
 1582TIP3    H226306   3.777   2.040   1.728 -0.7190  0.8643 -0.1393
 1583TIP3   OH226307   6.336   2.427   8.527  0.5434  0.1296 -0.0457
 1583TIP3    H126308   6.291   2.377   8.458  0.8605 -0.6992  0.3357
 1583TIP3    H226309   6.396   2.483   8.479 -0.5140  0.8876 -0.5365
 1584TIP3   OH226310   6.262   3.212   8.578  0.2786 -0.8835  0.4223
 1584TIP3    H126311   6.213   3.184   8.655  1.2495  0.3162  1.5145
 1584TIP3    H226312   6.344   3.247   8.612  1.8778 -2.6614 -1.3457
 1585TIP3   OH226313   3.861   0.366   7.759 -0.1716 -0.2098  0.4070
 1585TIP3    H126314   3.921   0.353   7.834 -0.8666 -0.0159  1.0076
 1585TIP3    H226315   3.895   0.444   7.715  0.3223 -0.4003  0.4386
 1586TIP3   OH226316   3.874   3.081   0.749 -0.2834 -0.0734  0.7203
 1586TIP3    H126317   3.904   3.159   0.796 -0.0885  1.8968 -2.4158
 1586TIP3    H226318   3.943   3.063   0.685 -2.5774  0.4192 -2.0891
 1587TIP3   OH226319   3.369   0.074   1.442  0.1977  0.6702  0.4591
 1587TIP3    H126320   3.276   0.051   1.450 -0.4397  3.0149  0.3757
 1587TIP3    H226321   3.401   0.076   1.533  0.1182  0.1581  0.5041
 1588TIP3   OH226322   2.774   0.245   0.093 -0.1222  0.1283 -0.1001
 1588TIP3    H126323   2.754   0.244  -0.000 -0.9945  0.5952  0.0781
 1588TIP3    H226324   2.788   0.153   0.115 -0.1701 -0.0113 -0.6337
 1589TIP3   OH226325   4.895   0.778   1.253  0.3436 -0.0069  0.2749
 1589TIP3    H126326   4.853   0.827   1.183 -1.8548 -2.9139 -0.6670
 1589TIP3    H226327   4.981   0.755   1.218 -0.1306 -0.0941 -0.8830
 1590TIP3   OH226328   2.800   0.372   0.588 -0.3871  0.8232 -0.4280
 1590TIP3    H126329   2.763   0.447   0.542 -0.8452  0.2000 -1.0958
 1590TIP3    H226330   2.749   0.365   0.669 -1.1715  0.4989 -0.9357
 1591TIP3   OH226331   5.578   4.063   1.750  0.6241 -0.2140  0.1087
 1591TIP3    H126332   5.514   4.006   1.709  0.5890 -0.2356  0.1938
 1591TIP3    H226333   5.607   4.015   1.828  2.1439 -1.0733 -0.9213
 1592TIP3   OH226334   0.344   6.325   8.596  0.0988  0.9457 -0.2879
 1592TIP3    H126335   0.273   6.347   8.656 -0.4284 -2.6275  0.6705
 1592TIP3    H226336   0.305   6.330   8.509 -0.4729  1.8094  0.0058
 1593TIP3   OH226337   6.078   0.937   7.121  0.2013  0.2124  0.3024
 1593TIP3    H126338   6.017   1.004   7.091  1.0157  0.6071 -0.5253
 1593TIP3    H226339   6.162   0.961   7.081  0.8706 -0.4017  1.2869
 1594TIP3   OH226340   5.294   0.617   7.508 -0.0856 -0.3627  0.0703
 1594TIP3    H126341   5.366   0.610   7.445 -1.5569 -2.6425 -1.5032
 1594TIP3    H226342   5.335   0.597   7.593  1.3593 -0.3774 -0.5993
 1595TIP3   OH226343   1.321   1.977   0.226 -0.9955  0.3038  0.4190
 1595TIP3    H126344   1.378   1.976   0.149 -2.6715 -0.9330 -0.8858
 1595TIP3    H226345   1.372   2.023   0.293  1.6319 -0.9998 -0.5501
 1596TIP3   OH226346   1.430   4.617   0.882 -0.1622 -0.4389 -0.1353
 1596TIP3    H126347   1.373   4.575   0.818 -1.4286 -0.2841  0.8588
 1596TIP3    H226348   1.518   4.610   0.844 -0.8275 -0.6701 -1.7014
 1597TIP3   OH226349   6.769   4.552   2.105  0.4074  0.2938 -0.7604
 1597TIP3    H126350   6.797   4.600   2.028  1.2063 -0.2094 -0.7994
 1597TIP3    H226351   6.843   4.558   2.166 -0.2779  0.8324  0.0435
 1598TIP3   OH226352   2.997   3.923   1.740  0.4263 -0.7424 -0.4842
 1598TIP3    H126353   2.904   3.937   1.726  0.6008  0.8226 -0.3578
 1598TIP3    H226354   3.006   3.830   1.761 -1.1168 -0.8716 -0.3373
 1599TIP3   OH226355   2.230   4.735   7.372 -0.4216  0.2671 -0.2874
 1599TIP3    H126356   2.316   4.769   7.348 -0.1118  1.7176  2.4986
 1599TIP3    H226357   2.171   4.771   7.306  0.9327  0.0368 -1.6913
 1600TIP3   OH226358   1.566   0.046   0.331  0.6703 -0.3011 -0.3068
 1600TIP3    H126359   1.613   0.128   0.316 -0.6250  0.4124 -0.6111
 1600TIP3    H226360   1.476   0.073   0.350  0.3023 -1.6418 -0.0329
 1601TIP3   OH226361   4.768   6.489   0.477  0.5059 -0.4594 -0.0358
 1601TIP3    H126362   4.783   6.449   0.562 -0.2431 -1.7702 -0.4950
 1601TIP3    H226363   4.703   6.433   0.435 -0.2533  1.0013 -0.8969
 1602TIP3   OH226364   1.752   6.152   7.371 -0.2752  0.2609  0.0643
 1602TIP3    H126365   1.764   6.237   7.329  1.9576  0.2900  0.6789
 1602TIP3    H226366   1.734   6.172   7.463 -1.1173  0.0770 -0.0475
 1603TIP3   OH226367   6.306   5.835   0.188 -0.1742 -0.6707  0.0175
 1603TIP3    H126368   6.293   5.750   0.229  2.2779 -0.4958  1.3706
 1603TIP3    H226369   6.256   5.896   0.243 -0.0583 -0.9432  0.4298
 1604TIP3   OH226370   3.435   6.194   6.626 -0.4163  0.2207  0.0253
 1604TIP3    H126371   3.428   6.288   6.644  1.4933  0.2287  0.9690
 1604TIP3    H226372   3.526   6.182   6.600  0.4205 -1.8559  3.3122
 1605TIP3   OH226373   3.594   1.760   7.797  0.9295 -0.1853  0.1023
 1605TIP3    H126374   3.654   1.835   7.800  2.2234 -1.1932  0.6015
 1605TIP3    H226375   3.541   1.775   7.719  1.2626  1.1690  0.1076
 1606TIP3   OH226376   4.553   5.517   7.900 -0.0297  0.2093 -0.1821
 1606TIP3    H126377   4.514   5.521   7.988  1.2609 -3.2441  0.7305
 1606TIP3    H226378   4.478   5.522   7.840 -1.0736  1.3376  1.1519
 1607TIP3   OH226379   3.741   6.379   2.419 -0.2396  0.4217  0.2186
 1607TIP3    H126380   3.767   6.457   2.370  1.0963 -0.4317 -0.4781
 1607TIP3    H226381   3.766   6.398   2.510  0.5035  0.6365 -0.0243
 1608TIP3   OH226382   0.990   1.684   7.641 -0.6420 -0.2027  0.0664
 1608TIP3    H126383   1.053   1.755   7.650 -1.0228  0.2422 -0.7425
 1608TIP3    H226384   0.991   1.662   7.548 -1.7974 -0.0816  0.0154
 1609TIP3   OH226385   6.338   3.460   1.515 -0.2201  0.3249  0.4822
 1609TIP3    H126386   6.421   3.501   1.490 -0.4906  0.1279 -0.7958
 1609TIP3    H226387   6.305   3.516   1.585  0.0984  1.5066 -0.2709
 1610TIP3   OH226388   4.510   4.775   0.599 -0.0661 -0.0751  0.8169
 1610TIP3    H126389   4.524   4.705   0.536 -1.7356 -1.7282  2.1764
 1610TIP3    H226390   4.425   4.812   0.576  0.2121  0.6468  0.9133
 1611TIP3   OH226391   2.025   6.051   7.718 -0.5482 -0.2434 -0.1130
 1611TIP3    H126392   2.099   6.014   7.765 -0.8868 -0.4738  0.2481
 1611TIP3    H226393   2.064   6.101   7.646 -0.0079  0.4042  0.6145
 1612TIP3   OH226394   2.828   5.084   0.258  0.2902 -0.4668 -0.6073
 1612TIP3    H126395   2.734   5.094   0.273  0.4038  1.5931 -0.8913
 1612TIP3    H226396   2.863   5.054   0.342 -0.4242  0.4270  0.0360
 1613TIP3   OH226397   0.460   3.488   7.924  0.0746 -0.4069 -0.5847
 1613TIP3    H126398   0.494   3.574   7.950 -0.8440 -0.4686  0.9283
 1613TIP3    H226399   0.533   3.428   7.939  0.1032 -0.1723  0.2970
 1614TIP3   OH226400   5.080   1.747   2.075  0.0410 -0.2945 -0.6203
 1614TIP3    H126401   5.141   1.682   2.041 -0.0873 -0.9270  0.3092
 1614TIP3    H226402   5.104   1.828   2.031  1.4026 -0.5772 -0.4592
 1615TIP3   OH226403   6.564   2.853   8.398 -0.0694  0.0429  0.0167
 1615TIP3    H126404   6.648   2.884   8.431  0.4168 -0.3623 -0.7955
 1615TIP3    H226405   6.503   2.923   8.419  0.6057  0.6451  0.0348
 1616TIP3   OH226406   1.081   0.643   0.727 -0.0964  0.6011 -0.3731
 1616TIP3    H126407   1.148   0.587   0.688 -1.0738 -0.0016 -1.2683
 1616TIP3    H226408   1.105   0.732   0.701 -0.1624  0.2985 -1.5326
 1617TIP3   OH226409   1.787   2.077   7.846 -0.5026 -0.3913 -0.5677
 1617TIP3    H126410   1.746   2.163   7.831  0.6815  0.3957  0.5302
 1617TIP3    H226411   1.850   2.068   7.774 -0.3493 -0.1519 -0.4659
 1618TIP3   OH226412   3.550   4.691   1.709  0.2693  0.2970  0.0317
 1618TIP3    H126413   3.644   4.705   1.720  0.5292 -0.6107 -0.8261
 1618TIP3    H226414   3.533   4.607   1.752 -0.3774  0.9687  1.1397
 1619TIP3   OH226415   4.612   6.574   1.862 -0.0636  0.1390  0.2630
 1619TIP3    H126416   4.600   6.635   1.935 -0.6676  0.2610  0.0676
 1619TIP3    H226417   4.654   6.626   1.794  1.5247 -0.2583  0.9083
 1620TIP3   OH226418   4.047   2.558   7.900 -0.4332  0.2177 -0.3323
 1620TIP3    H126419   4.089   2.489   7.847 -0.9478 -1.3653  1.2273
 1620TIP3    H226420   4.084   2.547   7.987 -2.1305  0.5046  0.4563
 1621TIP3   OH226421   1.327   6.296   1.910  0.4836  0.0252  0.6196
 1621TIP3    H126422   1.270   6.370   1.886 -0.7681 -0.6386  1.3947
 1621TIP3    H226423   1.337   6.246   1.829  1.0552  0.8560  0.1689
 1622TIP3   OH226424   5.546   0.857   1.216 -0.1509  0.0931  0.4772
 1622TIP3    H126425   5.511   0.801   1.146 -1.1618  0.7173  0.4652
 1622TIP3    H226426   5.483   0.848   1.288 -1.2973  2.5136 -0.1314
 1623TIP3   OH226427   0.535   2.294   7.121 -0.2010  0.0208  0.1776
 1623TIP3    H126428   0.567   2.362   7.063 -1.6299  1.4421  0.9915
 1623TIP3    H226429   0.445   2.278   7.093  0.6571 -3.0202 -1.2797
 1624TIP3   OH226430   4.189   0.183   0.202  0.6724 -0.3705  0.2981
 1624TIP3    H126431   4.183   0.120   0.275  0.1469 -1.5705 -0.7395
 1624TIP3    H226432   4.138   0.258   0.231 -0.2949 -1.2022  0.8249
 1625TIP3   OH226433   4.893   1.271   0.998 -0.3587 -0.2776 -0.3079
 1625TIP3    H126434   4.932   1.356   0.978  1.2732 -1.0101 -0.3931
 1625TIP3    H226435   4.933   1.245   1.081 -1.6014 -0.5346  0.2334
 1626TIP3   OH226436   2.248   6.416   0.742  0.3724 -0.0318 -0.1569
 1626TIP3    H126437   2.194   6.495   0.738 -1.9963 -1.5941 -0.3810
 1626TIP3    H226438   2.233   6.373   0.658  0.8929 -1.2036  0.3367
 1627TIP3   OH226439   5.238   4.398   2.476 -0.3795 -0.1739  0.0067
 1627TIP3    H126440   5.159   4.446   2.499 -0.4181  0.7051 -1.7426
 1627TIP3    H226441   5.309   4.450   2.514 -0.5636 -0.1751  0.3562
 1628TIP3   OH226442   2.441   1.735   7.658 -0.3652  0.3289  0.2319
 1628TIP3    H126443   2.428   1.758   7.566  2.8000  0.5339 -0.2775
 1628TIP3    H226444   2.456   1.640   7.657 -2.0540  0.0186  0.8334
 1629TIP3   OH226445   4.163   1.449   8.287  0.4607  0.5384  0.0248
 1629TIP3    H126446   4.070   1.459   8.306  0.8032  0.6121  1.8229
 1629TIP3    H226447   4.207   1.490   8.360  1.9049 -2.9895  1.3763
 1630TIP3   OH226448   3.006   5.379   6.944 -0.1724  0.1412  0.2694
 1630TIP3    H126449   3.072   5.360   6.877  1.4793  0.8303  1.6037
 1630TIP3    H226450   2.984   5.471   6.930 -0.8003 -0.0694 -0.1307
 1631TIP3   OH226451   5.555   4.791   7.666  0.2324  0.5668  0.1658
 1631TIP3    H126452   5.544   4.881   7.694 -0.3018  0.8877 -1.0103
 1631TIP3    H226453   5.476   4.746   7.698  0.4764  0.5157  0.7089
 1632TIP3   OH226454   6.319   0.436   7.515 -0.2238 -0.1615 -0.2826
 1632TIP3    H126455   6.301   0.342   7.515  1.5361 -0.5591  1.7115
 1632TIP3    H226456   6.284   0.467   7.598  1.5876  0.3796  0.3251
 1633TIP3   OH226457   2.284   4.814   1.133 -0.0415  0.1791  0.2322
 1633TIP3    H126458   2.229   4.868   1.190 -0.6775  0.2197 -0.4077
 1633TIP3    H226459   2.370   4.816   1.175 -0.6793 -0.4710  1.6490
 1634TIP3   OH226460   6.827   3.240   1.885  0.3486  0.5165  0.1940
 1634TIP3    H126461   6.824   3.328   1.921 -0.3154 -0.0583  1.6113
 1634TIP3    H226462   6.835   3.182   1.961 -1.3551 -0.7479 -0.5113
 1635TIP3   OH226463   0.118   2.728   7.129  0.3980  0.1709  0.5567
 1635TIP3    H126464   0.151   2.641   7.106 -1.2381 -0.4086  0.2633
 1635TIP3    H226465   0.169   2.788   7.074  0.0601 -0.7837 -0.8443
 1636TIP3   OH226466   6.134   5.299   8.555 -0.2947  0.5017  0.0448
 1636TIP3    H126467   6.215   5.275   8.601 -0.5279  0.9546  0.7020
 1636TIP3    H226468   6.066   5.246   8.597 -0.3464  0.1072 -0.5208
 1637TIP3   OH226469   1.505   1.722   0.198  0.6626 -0.2037 -0.5871
 1637TIP3    H126470   1.565   1.688   0.265 -1.7997  1.0376  2.5271
 1637TIP3    H226471   1.475   1.645   0.151  2.1535 -1.2038  0.0256
 1638TIP3   OH226472   3.073   3.298   2.713 -0.5870 -0.5956 -0.3483
 1638TIP3    H126473   3.132   3.270   2.643  0.9590  0.2989  0.5584
 1638TIP3    H226474   3.129   3.340   2.777 -2.1446 -0.2489  0.8518
 1639TIP3   OH226475   0.982   5.225   1.369 -0.2492 -0.1135 -0.3396
 1639TIP3    H126476   1.022   5.149   1.327  1.2162  0.3815  0.1075
 1639TIP3    H226477   1.001   5.298   1.310 -1.3784 -0.0126 -0.6117
 1640TIP3   OH226478   2.184   2.476   2.318  0.5178  0.2027  0.7773
 1640TIP3    H126479   2.110   2.487   2.258  0.5311  1.1539  0.9270
 1640TIP3    H226480   2.147   2.489   2.405  0.8286  0.5424  0.8629
 1641TIP3   OH226481   1.229   0.166   8.272 -0.1260  0.1597  0.5869
 1641TIP3    H126482   1.283   0.204   8.341  1.5500  0.0131 -0.5936
 1641TIP3    H226483   1.162   0.233   8.255  0.6250  1.0406  1.0026
 1642TIP3   OH226484   5.041   6.027   0.868 -0.2174  0.2761 -0.1589
 1642TIP3    H126485   4.959   5.995   0.907 -0.3122  1.1739  0.4107
 1642TIP3    H226486   5.104   6.025   0.940  0.3304 -0.6147 -0.6488
 1643TIP3   OH226487   0.687   3.043   0.604  0.3374  0.4805  0.1962
 1643TIP3    H126488   0.692   2.968   0.545 -0.3638  0.4950  0.1177
 1643TIP3    H226489   0.718   3.009   0.688  0.8222  0.3250 -0.0407
 1644TIP3   OH226490   4.893   5.708   2.089  0.1824  0.4574 -0.3148
 1644TIP3    H126491   4.843   5.736   2.165 -1.4423 -0.0877 -1.1406
 1644TIP3    H226492   4.899   5.786   2.033  0.0690  0.4671 -0.3129
 1645TIP3   OH226493   0.914   5.859   8.381  0.1040 -0.2866  0.3741
 1645TIP3    H126494   0.937   5.932   8.324  4.7491 -0.6881  1.2949
 1645TIP3    H226495   0.846   5.894   8.439 -1.4137  1.5786 -2.3469
 1646TIP3   OH226496   5.371   1.707   8.102 -0.1857 -0.4140  0.0818
 1646TIP3    H126497   5.445   1.658   8.137  1.0853  0.8770 -0.7479
 1646TIP3    H226498   5.304   1.700   8.171  1.3304 -0.0731  1.6580
 1647TIP3   OH226499   2.600   4.438   8.198 -0.1227  0.3405  0.4753
 1647TIP3    H126500   2.627   4.493   8.271  0.4146  1.3168 -0.4415
 1647TIP3    H226501   2.681   4.402   8.163 -0.4609 -1.0293  1.0269
 1648TIP3   OH226502   5.468   3.717   0.065  0.2814  0.0276 -0.6845
 1648TIP3    H126503   5.421   3.666  -0.000 -0.6299  1.9238 -1.6113
 1648TIP3    H226504   5.399   3.764   0.112  0.9166 -1.2235  1.6391
 1649TIP3   OH226505   1.842   2.552   0.227  0.2038  0.3318 -0.1287
 1649TIP3    H126506   1.793   2.518   0.152 -1.0192  0.6593  0.4991
 1649TIP3    H226507   1.896   2.478   0.256 -2.0625 -1.0109  0.9258
 1650TIP3   OH226508   5.527   1.039   0.618  0.4767 -0.3166  0.6628
 1650TIP3    H126509   5.457   1.069   0.675 -0.1170 -1.9492  0.8197
 1650TIP3    H226510   5.567   0.966   0.664  0.7439 -0.9147 -0.4776
 1651TIP3   OH226511   5.740   5.924   7.661 -0.5349  0.2961 -0.0919
 1651TIP3    H126512   5.788   6.007   7.659  0.8603 -0.4920 -1.7381
 1651TIP3    H226513   5.655   5.944   7.623 -0.2251  0.9899 -0.4458
 1652TIP3   OH226514   4.166   5.280   1.529 -0.1520 -0.1342 -0.0504
 1652TIP3    H126515   4.239   5.341   1.528  0.6467 -1.0698 -0.0053
 1652TIP3    H226516   4.202   5.197   1.497 -0.9236 -0.8915  0.9517
 1653TIP3   OH226517   4.310   5.337   0.740 -0.0481 -0.1427 -0.2655
 1653TIP3    H126518   4.219   5.328   0.767  0.1874 -3.3528 -0.1291
 1653TIP3    H226519   4.309   5.319   0.646  0.4348 -0.0960 -0.2822
 1654TIP3   OH226520   1.477   1.203   1.043  0.3791  0.2302 -0.7402
 1654TIP3    H126521   1.419   1.174   1.114  0.4836 -0.2414 -0.8412
 1654TIP3    H226522   1.453   1.294   1.028  1.1746  0.7066  0.7060
 1655TIP3   OH226523   0.553   5.481   1.157  0.8215 -0.6050  0.4308
 1655TIP3    H126524   0.567   5.575   1.141  0.3559 -0.4007  1.1984
 1655TIP3    H226525   0.477   5.459   1.104  1.5792 -0.8072 -0.6044
 1656TIP3   OH226526   0.902   2.127   0.794 -0.5705  0.8526  1.0108
 1656TIP3    H126527   0.947   2.060   0.743 -2.4229 -0.8472  1.4809
 1656TIP3    H226528   0.907   2.206   0.740  2.2101  0.5744  0.7269
 1657TIP3   OH226529   5.033   2.800   7.753 -0.8761  0.3308  0.2358
 1657TIP3    H126530   5.102   2.828   7.693 -0.2107 -1.5449  0.0795
 1657TIP3    H226531   5.026   2.873   7.816  2.3005  0.0131  1.1351
 1658TIP3   OH226532   0.933   4.749   7.631 -0.3631 -0.0602 -0.2193
 1658TIP3    H126533   0.888   4.695   7.695 -0.8820  1.3983  0.7057
 1658TIP3    H226534   1.023   4.717   7.631 -0.4109 -0.2222  1.0937
 1659TIP3   OH226535   0.811   5.896   7.881 -0.1792  0.0185  0.1366
 1659TIP3    H126536   0.897   5.938   7.879  0.4646 -1.2001  1.0763
 1659TIP3    H226537   0.762   5.946   7.946 -0.0854  0.5119 -0.1616
 1660TIP3   OH226538   2.393   1.415   8.171 -0.2789 -0.3960  0.7330
 1660TIP3    H126539   2.479   1.422   8.129  1.5179  1.1997  4.2207
 1660TIP3    H226540   2.371   1.505   8.195 -3.9019 -0.4928 -1.5210
 1661TIP3   OH226541   0.930   4.872   0.838  0.1382  0.1664 -0.1059
 1661TIP3    H126542   0.873   4.878   0.914 -0.3975 -1.6229 -0.3104
 1661TIP3    H226543   0.871   4.875   0.763  0.3608 -0.9596 -0.3441
 1662TIP3   OH226544   1.352   1.147   8.614  0.1069 -0.3396 -0.4012
 1662TIP3    H126545   1.375   1.088   8.542 -1.9694 -0.6494 -0.8645
 1662TIP3    H226546   1.350   1.091   8.692 -1.5308 -0.8700 -0.7861
 1663TIP3   OH226547   2.870   6.773   0.722 -0.0175  0.7368  0.4593
 1663TIP3    H126548   2.869   6.856   0.675  0.1045  0.2799 -0.3647
 1663TIP3    H226549   2.959   6.739   0.707 -0.0743  0.4469  0.7739
 1664TIP3   OH226550   4.032   6.727   0.175 -0.1574 -0.1069  0.9119
 1664TIP3    H126551   4.035   6.635   0.201  0.3397 -0.6944 -1.0243
 1664TIP3    H226552   4.105   6.767   0.222 -0.8079 -0.5206  2.3206
 1665TIP3   OH226553   3.731   6.738   7.472  0.1202 -0.0602 -0.3702
 1665TIP3    H126554   3.694   6.707   7.554  0.2653  0.0735 -0.2545
 1665TIP3    H226555   3.692   6.825   7.459  1.9959  1.0242  0.8354
 1666TIP3   OH226556   3.102   6.752   0.393 -0.4800 -0.3286 -0.4509
 1666TIP3    H126557   3.046   6.693   0.343  0.6212  0.1176 -2.3035
 1666TIP3    H226558   3.063   6.839   0.379  0.5454 -0.0293 -1.6625
 1667TIP3   OH226559   0.694   6.836   2.473 -0.0632 -0.1218 -0.5435
 1667TIP3    H126560   0.733   6.840   2.561  0.4219 -0.7629 -0.7245
 1667TIP3    H226561   0.603   6.810   2.489 -0.6313  2.0046 -0.0730
 1668TIP3   OH226562   0.412   1.116   0.630 -0.4933 -0.5672 -0.4317
 1668TIP3    H126563   0.346   1.050   0.652  0.8829 -1.3947  1.4560
 1668TIP3    H226564   0.368   1.200   0.648 -1.1987 -1.0850  0.3743
 1669TIP3   OH226565   5.785   2.360   7.736 -0.3340 -0.5518 -0.0902
 1669TIP3    H126566   5.804   2.451   7.758  1.2479 -0.9662  0.4269
 1669TIP3    H226567   5.822   2.310   7.809 -1.3784 -1.6036 -0.2613
 1670TIP3   OH226568   2.707   0.161   7.289 -0.4084  0.7850  0.0050
 1670TIP3    H126569   2.756   0.200   7.361  3.3514 -3.1743  0.0936
 1670TIP3    H226570   2.645   0.102   7.331 -2.0976  2.3873 -0.1306
 1671TIP3   OH226571   6.168   5.689   2.161  0.1271 -0.0444 -0.1172
 1671TIP3    H126572   6.211   5.615   2.204 -2.1973 -0.8440  0.9910
 1671TIP3    H226573   6.160   5.662   2.069 -0.1100 -0.9048  0.1439
 1672TIP3   OH226574   5.789   4.616   7.666  0.1071 -0.0506  0.2624
 1672TIP3    H126575   5.772   4.533   7.711  1.6799 -1.1670 -1.0852
 1672TIP3    H226576   5.703   4.659   7.663 -0.6632 -1.3967  1.4064
 1673TIP3   OH226577   2.726   2.754   1.753  0.3818 -0.1139  0.1658
 1673TIP3    H126578   2.667   2.776   1.682 -1.1081 -1.2097  1.0225
 1673TIP3    H226579   2.777   2.835   1.767  0.2984  0.3077 -1.6960
 1674TIP3   OH226580   0.282   0.322   1.584  0.5428  0.8603 -0.1106
 1674TIP3    H126581   0.189   0.304   1.571  0.8805 -1.2860  0.0497
 1674TIP3    H226582   0.323   0.300   1.500  1.3837 -2.6443  1.0210
 1675TIP3   OH226583   5.590   1.757   1.531  0.1358 -0.0429 -0.1673
 1675TIP3    H126584   5.591   1.789   1.441 -1.0430 -0.9496 -0.5330
 1675TIP3    H226585   5.586   1.837   1.585 -1.3476  0.4766 -1.0005
 1676TIP3   OH226586   3.065   1.449   2.738 -0.1632  0.1806 -0.0136
 1676TIP3    H126587   2.990   1.393   2.721  0.2296 -0.5063  0.4425
 1676TIP3    H226588   3.134   1.389   2.765  1.2440  0.5579 -2.4973
 1677TIP3   OH226589   1.243   4.515   2.911 -0.0820  0.1074  0.2407
 1677TIP3    H126590   1.149   4.534   2.916 -0.2523 -0.8557  0.9053
 1677TIP3    H226591   1.257   4.489   2.820  0.1366  3.1388 -0.6920
 1678TIP3   OH226592   0.889   5.230   1.968 -0.4670 -0.5269 -0.3316
 1678TIP3    H126593   0.919   5.156   2.021 -0.2959  0.2936  0.7353
 1678TIP3    H226594   0.889   5.305   2.027 -0.6627  0.3399 -1.3847
 1679TIP3   OH226595   3.929   5.707   2.162 -0.2399 -0.0734  0.3248
 1679TIP3    H126596   3.873   5.693   2.238 -1.2351 -0.5121 -0.4672
 1679TIP3    H226597   3.891   5.783   2.118  1.5099  1.4328  1.3029
 1680TIP3   OH226598   0.157   1.335   2.245 -0.2638  0.3686 -0.4997
 1680TIP3    H126599   0.139   1.421   2.207  1.6199  1.0616  0.0784
 1680TIP3    H226600   0.197   1.285   2.174 -0.0051  0.4678 -0.4241
 1681TIP3   OH226601   2.678   5.006   7.474  0.4758 -0.1194 -0.7558
 1681TIP3    H126602   2.619   5.081   7.481  0.8201  0.1186 -0.3750
 1681TIP3    H226603   2.651   4.947   7.544 -0.4137 -0.7991 -1.6402
 1682TIP3   OH226604   1.820   6.721   0.357  0.5932 -0.4895 -0.5054
 1682TIP3    H126605   1.828   6.626   0.346  0.8304 -0.6884  1.0947
 1682TIP3    H226606   1.727   6.739   0.345  0.7376 -0.6809 -2.2365
 1683TIP3   OH226607   3.074   3.865   0.898  0.2431  0.8623  0.5862
 1683TIP3    H126608   3.127   3.929   0.850  0.0638  0.5854  0.0136
 1683TIP3    H226609   3.049   3.800   0.833  2.8543 -1.4369  1.6728
 1684TIP3   OH226610   0.633   6.710   2.014 -0.2947 -0.3212 -0.6212
 1684TIP3    H126611   0.539   6.715   2.030 -0.3345 -0.7829 -0.7016
 1684TIP3    H226612   0.654   6.791   1.966 -0.6078 -0.1148 -0.4070
 1685TIP3   OH226613   6.377   2.654   2.913  0.1548  0.1472  0.1100
 1685TIP3    H126614   6.424   2.619   2.837  0.0844  0.6692 -0.1755
 1685TIP3    H226615   6.307   2.590   2.929 -0.5433  0.6071 -0.9810
 1686TIP3   OH226616   0.182   6.108   0.896 -0.3313  0.4040  0.1623
 1686TIP3    H126617   0.191   6.075   0.986  1.2117  2.5221  0.8570
 1686TIP3    H226618   0.269   6.140   0.873 -1.1731  1.7879 -1.3101
 1687TIP3   OH226619   1.229   3.164   8.061 -0.2368 -0.3873 -0.3901
 1687TIP3    H126620   1.290   3.184   8.133 -0.7723  0.8726 -0.2651
 1687TIP3    H226621   1.235   3.069   8.051 -0.6914 -0.7024  1.8297
 1688TIP3   OH226622   4.426   0.626   7.993 -0.4156 -0.1063 -0.3693
 1688TIP3    H126623   4.491   0.651   7.927  1.1992 -1.1303  0.7445
 1688TIP3    H226624   4.410   0.533   7.977 -0.2413 -0.2877  0.4837
 1689TIP3   OH226625   4.160   0.054   2.046 -0.3159 -0.0627 -0.2408
 1689TIP3    H126626   4.098   0.102   2.102  1.3093  0.4103  1.2697
 1689TIP3    H226627   4.136  -0.038   2.058 -1.7656  0.1712 -1.0412
 1690TIP3   OH226628   2.184   0.709   1.835  0.0011 -0.0786  0.1238
 1690TIP3    H126629   2.252   0.645   1.857 -1.0869 -1.6236 -0.7973
 1690TIP3    H226630   2.202   0.784   1.891  1.6529 -0.9817  0.8575
 1691TIP3   OH226631   1.440   2.416   1.911  0.1213 -0.4197  0.1636
 1691TIP3    H126632   1.436   2.492   1.971 -0.3908  0.6187 -1.1376
 1691TIP3    H226633   1.351   2.381   1.912  0.3657 -1.0457  0.7865
 1692TIP3   OH226634   4.394   4.352   1.114  0.1552 -0.5118  0.1834
 1692TIP3    H126635   4.319   4.303   1.080 -0.6920  1.2517 -0.6314
 1692TIP3    H226636   4.444   4.376   1.036  0.4107  0.1173  0.5356
 1693TIP3   OH226637   4.526   6.779   0.837  0.0515  0.2124 -0.2824
 1693TIP3    H126638   4.604   6.817   0.878  1.1672 -1.3453 -0.8450
 1693TIP3    H226639   4.525   6.688   0.867 -1.7084  0.2631 -0.1010
 1694TIP3   OH226640   0.741   4.844   1.900 -0.2960 -0.5885 -0.1624
 1694TIP3    H126641   0.781   4.836   1.987 -1.5013 -1.1360  0.3682
 1694TIP3    H226642   0.797   4.905   1.853 -0.4958  0.9668  1.5335
 1695TIP3   OH226643   3.637   1.440   0.717 -0.5742  0.1961  0.3346
 1695TIP3    H126644   3.578   1.515   0.726 -1.8891 -0.7952  0.1420
 1695TIP3    H226645   3.663   1.419   0.806 -0.2239  0.8313  0.3942
 1696TIP3   OH226646   6.555   4.258   0.304  0.0455 -0.2904  0.2878
 1696TIP3    H126647   6.494   4.187   0.281 -2.8373  2.4480 -1.5400
 1696TIP3    H226648   6.504   4.315   0.361  1.2860  1.5497 -0.3510
 1697TIP3   OH226649   3.210   4.802   0.403 -0.2772 -0.0971 -0.1449
 1697TIP3    H126650   3.134   4.859   0.418  0.3637  0.8150 -0.2730
 1697TIP3    H226651   3.247   4.790   0.490 -0.6639 -0.6950 -0.0568
 1698TIP3   OH226652   0.533   4.896   1.637 -0.3233  0.1585  0.3102
 1698TIP3    H126653   0.609   4.894   1.579 -1.9327 -1.1187 -1.9037
 1698TIP3    H226654   0.531   4.809   1.676 -1.4425 -0.3713 -0.8417
 1699TIP3   OH226655   0.888   0.277   0.788  0.0633 -0.6474  0.6622
 1699TIP3    H126656   0.829   0.340   0.746 -0.8663 -0.5054  2.1208
 1699TIP3    H226657   0.882   0.297   0.881  1.5089 -1.4308  0.9599
 1700TIP3   OH226658   3.888   4.267   2.339  0.7695 -0.4292 -0.1546
 1700TIP3    H126659   3.824   4.197   2.333  0.4028 -0.0332 -0.9161
 1700TIP3    H226660   3.939   4.246   2.417 -1.7055  0.4114  1.8388
 1701TIP3   OH226661   1.513   3.002   2.126  0.4264  0.0391  0.2050
 1701TIP3    H126662   1.441   3.028   2.183  0.9562  1.9929  0.0692
 1701TIP3    H226663   1.496   2.910   2.105 -1.8149  0.3465  0.4638
 1702TIP3   OH226664   1.226   0.757   8.573 -0.7025  0.4611  0.2244
 1702TIP3    H126665   1.292   0.769   8.642 -1.1971  0.7879  0.6422
 1702TIP3    H226666   1.274   0.773   8.492  0.1628 -1.0402  0.4106
 1703TIP3   OH226667   6.795   1.101   7.598  0.2852 -0.3719 -0.3993
 1703TIP3    H126668   6.881   1.066   7.576  0.0344 -0.4972 -1.2121
 1703TIP3    H226669   6.807   1.141   7.684  0.9296 -1.1682 -0.1043
 1704TIP3   OH226670   1.663   5.126   0.205 -0.0012 -0.2346  0.0117
 1704TIP3    H126671   1.758   5.134   0.219  0.2672  0.0607 -1.7677
 1704TIP3    H226672   1.636   5.214   0.180 -0.1783 -0.9300 -2.4667
 1705TIP3   OH226673   3.257   4.278   2.702  0.2913  0.0513 -0.2658
 1705TIP3    H126674   3.218   4.335   2.769 -0.5062 -0.4312 -0.3116
 1705TIP3    H226675   3.277   4.197   2.748  1.0061  0.1972 -0.3068
 1706TIP3   OH226676   0.747   5.592   0.865 -0.3855 -0.0217  0.1666
 1706TIP3    H126677   0.761   5.583   0.770 -0.1300 -0.4453  0.2442
 1706TIP3    H226678   0.691   5.669   0.873 -1.1946 -0.5321 -0.3948
 1707TIP3   OH226679   5.838   5.688   8.262 -0.6045 -0.5656  0.4122
 1707TIP3    H126680   5.746   5.669   8.243 -0.6588 -0.8842  0.9924
 1707TIP3    H226681   5.864   5.622   8.326 -0.4617  0.5995  1.5945
 1708TIP3   OH226682   2.422   0.543   0.635  0.0008  0.8446 -0.0290
 1708TIP3    H126683   2.436   0.449   0.643 -1.4915  0.5945 -0.0372
 1708TIP3    H226684   2.365   0.565   0.709  0.3597  1.7575 -0.0042
 1709TIP3   OH226685   2.290   2.682   1.369 -0.1811  0.2121 -0.2735
 1709TIP3    H126686   2.317   2.708   1.281  1.2583 -2.0268 -0.5881
 1709TIP3    H226687   2.329   2.747   1.427 -0.2118  1.0862 -1.2185
 1710TIP3   OH226688   3.107   6.854   1.363  0.3533  0.2999  0.0816
 1710TIP3    H126689   3.045   6.828   1.295  2.7174 -4.0986 -0.7914
 1710TIP3    H226690   3.074   6.812   1.442 -1.2692  3.7061  1.3988
 1711TIP3   OH226691   4.268   4.237   1.388  0.5218 -0.0851  0.4547
 1711TIP3    H126692   4.277   4.282   1.472 -0.4531 -1.4424  1.3230
 1711TIP3    H226693   4.306   4.298   1.324  1.0937  1.0670  1.8320
 1712TIP3   OH226694   6.738   6.835   7.482 -0.1942 -0.4234 -0.0477
 1712TIP3    H126695   6.798   6.781   7.431 -1.6709 -0.4580 -1.8177
 1712TIP3    H226696   6.688   6.884   7.418 -0.7160  1.1052  1.4476
 1713TIP3   OH226697   5.037   4.618   2.274  0.1566 -0.3604  0.1665
 1713TIP3    H126698   5.023   4.601   2.367 -0.8068  0.8805  0.2649
 1713TIP3    H226699   5.122   4.663   2.270  1.4366 -2.6345  0.1544
 1714TIP3   OH226700   2.303   5.927   7.832 -0.0824  0.4367 -0.5031
 1714TIP3    H126701   2.368   5.985   7.792 -0.6082  1.1886 -0.2916
 1714TIP3    H226702   2.279   5.970   7.913 -0.5118 -0.0655 -0.3597
 1715TIP3   OH226703   1.403   0.454   8.539  1.1201  0.3320 -0.3515
 1715TIP3    H126704   1.469   0.442   8.471  0.0735 -0.5747 -1.2402
 1715TIP3    H226705   1.422   0.541   8.575  1.8269  0.7419 -1.6520
 1716TIP3   OH226706   5.015   6.473   0.350 -0.2926 -0.6825 -0.0216
 1716TIP3    H126707   4.931   6.489   0.393 -0.3133  2.0109 -0.8590
 1716TIP3    H226708   4.997   6.408   0.283 -1.7037 -0.1879 -0.1393
 1717TIP3   OH226709   0.430   6.677   0.937  0.3550 -0.5695  0.7222
 1717TIP3    H126710   0.481   6.603   0.903 -0.3580 -2.0628  2.7219
 1717TIP3    H226711   0.388   6.715   0.860  0.6499 -2.3293 -0.3552
 1718TIP3   OH226712   3.322   3.984   6.866 -0.3231  0.1987 -0.8845
 1718TIP3    H126713   3.265   4.033   6.926  0.0874 -1.0045  0.5499
 1718TIP3    H226714   3.364   4.051   6.812 -1.7970  1.2199 -0.8184
 1719TIP3   OH226715   6.374   3.437   0.788 -0.2593  0.1450  0.2130
 1719TIP3    H126716   6.435   3.488   0.735 -0.4128  0.6282  0.4953
 1719TIP3    H226717   6.393   3.462   0.878  1.1513 -1.9379  0.5469
 1720TIP3   OH226718   6.374   6.682   7.468  0.2858  0.6779  0.5433
 1720TIP3    H126719   6.365   6.674   7.563  0.2747  0.7034  0.5443
 1720TIP3    H226720   6.374   6.591   7.437 -0.0920  0.6778  0.5328
 1721TIP3   OH226721   1.645   5.387   0.767 -0.0989 -0.4859 -0.4710
 1721TIP3    H126722   1.703   5.316   0.739  3.1566  1.5663  0.3866
 1721TIP3    H226723   1.608   5.357   0.850  2.2591 -0.8288  0.5633
 1722TIP3   OH226724   5.501   4.346   2.119 -0.1809  0.7085  0.2277
 1722TIP3    H126725   5.450   4.414   2.074 -0.7950 -0.4404 -0.8720
 1722TIP3    H226726   5.558   4.309   2.051  0.9094  0.8133  1.0530
 1723TIP3   OH226727   1.696   2.811   8.118  0.2244  0.2266 -0.1377
 1723TIP3    H126728   1.760   2.815   8.189  0.1096 -0.5187  0.0109
 1723TIP3    H226729   1.721   2.734   8.067 -0.4335  0.0422 -0.1900
 1724TIP3   OH226730   5.075   5.524   8.022 -0.2211  0.2412  0.0276
 1724TIP3    H126731   5.057   5.505   7.930  3.1478 -0.1373 -0.6796
 1724TIP3    H226732   4.999   5.488   8.069 -1.1267 -1.3415 -2.4424
 1725TIP3   OH226733   3.949   3.791   2.197 -0.3077 -0.0262  0.2137
 1725TIP3    H126734   3.870   3.812   2.247  0.3029 -0.1504  1.2376
 1725TIP3    H226735   4.018   3.845   2.235  0.1150  0.0627 -0.6576
 1726TIP3   OH226736   1.060   5.913   0.851 -0.3006 -0.5756  0.0602
 1726TIP3    H126737   1.088   5.847   0.915  3.4910 -0.2026 -0.9757
 1726TIP3    H226738   1.049   5.993   0.902 -2.0079 -1.2496  0.8554
 1727TIP3   OH226739   2.882   3.305   2.513 -0.4762 -0.0998 -0.3464
 1727TIP3    H126740   2.798   3.286   2.554 -0.6205 -0.5353 -0.8400
 1727TIP3    H226741   2.948   3.269   2.573 -0.6770 -0.5533 -0.4001
 1728TIP3   OH226742   6.080   2.709   7.867  0.0698 -0.6623  0.0428
 1728TIP3    H126743   6.119   2.625   7.843  4.2227  1.0224  0.2254
 1728TIP3    H226744   6.044   2.743   7.786 -0.4126 -1.9680 -0.3132
 1729TIP3   OH226745   4.999   4.396   1.708 -0.3169  0.8134  0.5420
 1729TIP3    H126746   4.913   4.358   1.728 -0.0886 -0.3229 -0.5092
 1729TIP3    H226747   5.011   4.380   1.615  1.4839 -0.0197  0.8627
 1730TIP3   OH226748   1.375   6.096   1.076  0.0075 -0.0455  0.4685
 1730TIP3    H126749   1.418   6.051   1.003  0.6396  1.7644 -0.3440
 1730TIP3    H226750   1.293   6.129   1.039  0.9924  2.1398  0.0769
 1731TIP3   OH226751   1.370   2.916   1.211 -0.0162 -0.3097  0.2374
 1731TIP3    H126752   1.457   2.902   1.247 -0.4819 -1.4002  1.0188
 1731TIP3    H226753   1.373   2.877   1.124  1.0095  2.0043 -0.8455
 1732TIP3   OH226754   2.026   4.849   0.469 -0.0682  0.2508  0.4568
 1732TIP3    H126755   1.950   4.896   0.503 -0.8961 -1.8239  1.6992
 1732TIP3    H226756   1.991   4.795   0.399  0.9238  1.6162 -1.1632
 1733TIP3   OH226757   6.069   6.176   1.064 -0.4716  0.4949  0.9251
 1733TIP3    H126758   6.020   6.131   0.995 -0.3318  1.2062  0.3518
 1733TIP3    H226759   6.003   6.230   1.107 -0.0552  2.1657 -0.4424
 1734TIP3   OH226760   4.428   6.535   8.263 -0.6842 -0.1095  0.2250
 1734TIP3    H126761   4.502   6.563   8.209 -1.3412 -0.2595 -0.7577
 1734TIP3    H226762   4.355   6.527   8.203 -1.1734 -1.3434  0.9419
 1735TIP3   OH226763   2.328   3.971   1.191 -0.0918 -0.1091  0.8280
 1735TIP3    H126764   2.418   3.965   1.160 -0.3100  0.2637  0.1025
 1735TIP3    H226765   2.334   4.017   1.275  0.3494  0.3785  0.5365
 1736TIP3   OH226766   1.424   3.856   2.242 -0.0752  0.4313 -0.7397
 1736TIP3    H126767   1.482   3.786   2.212 -1.0646 -0.6701 -0.1324
 1736TIP3    H226768   1.427   3.921   2.172  1.8436  0.3945 -0.7458
 1737TIP3   OH226769   6.712   0.374   8.620 -0.0278  0.4579 -0.5106
 1737TIP3    H126770   6.703   0.466   8.597 -1.1054  0.2607 -0.9478
 1737TIP3    H226771   6.657   0.328   8.557  1.7393 -0.6412 -1.3427
 1738TIP3   OH226772   2.225   6.575   1.614 -0.3979 -0.5728 -0.0243
 1738TIP3    H126773   2.317   6.555   1.628 -0.5875  0.4787  3.9272
 1738TIP3    H226774   2.194   6.504   1.558  2.5634 -1.5046 -0.6827
 1739TIP3   OH226775   3.221   2.390   1.314 -0.5077 -0.0151 -0.5097
 1739TIP3    H126776   3.279   2.464   1.299  0.9588 -0.8685  0.5967
 1739TIP3    H226777   3.280   2.318   1.339 -1.9887 -1.1069  0.0165
 1740TIP3   OH226778   1.329   1.751   1.745  0.2689 -0.5025  0.2713
 1740TIP3    H126779   1.365   1.755   1.656 -0.4257 -1.1900 -0.0467
 1740TIP3    H226780   1.261   1.684   1.741  0.4939 -0.8206  1.4268
 1741TIP3   OH226781   2.533   2.172   1.825 -0.3400 -0.4157  0.0162
 1741TIP3    H126782   2.584   2.220   1.759 -0.3629 -0.3631  0.0373
 1741TIP3    H226783   2.510   2.237   1.891 -1.0470 -0.2813 -0.3512
 1742TIP3   OH226784   6.419   4.179   1.297  0.6055 -0.2841 -0.0910
 1742TIP3    H126785   6.350   4.119   1.268  0.3403 -1.2138  2.2478
 1742TIP3    H226786   6.500   4.138   1.266  0.2738 -0.6107 -0.5435
 1743TIP3   OH226787   1.028   5.317   6.843  0.0499 -0.4392 -0.2852
 1743TIP3    H126788   0.947   5.320   6.893  0.1065 -0.5397 -0.1870
 1743TIP3    H226789   1.052   5.225   6.841  0.0665 -0.4318 -0.4686
 1744TIP3   OH226790   4.034   4.449   8.031 -0.0698  0.2123 -0.7049
 1744TIP3    H126791   3.999   4.528   7.989 -1.0450 -0.1861 -0.6790
 1744TIP3    H226792   4.061   4.393   7.958  0.6390  0.5732 -0.7229
 1745TIP3   OH226793   3.714   2.938   7.784  0.1943  0.1008 -0.3332
 1745TIP3    H126794   3.797   2.956   7.739  0.5564 -0.3961  0.1199
 1745TIP3    H226795   3.713   2.843   7.796 -0.1774  0.1631  0.1610
 1746TIP3   OH226796   3.756   5.254   7.890 -0.4332  0.4269  0.3666
 1746TIP3    H126797   3.754   5.305   7.809 -1.1259 -0.0814  0.0551
 1746TIP3    H226798   3.681   5.195   7.883  1.6939 -2.4629 -0.4969
 1747TIP3   OH226799   5.089   1.857   1.769 -0.1255 -0.7242  0.2885
 1747TIP3    H126800   5.150   1.890   1.703 -3.1658  2.0710 -1.4366
 1747TIP3    H226801   5.102   1.914   1.844 -1.1831  0.5392 -0.4465
 1748TIP3   OH226802   0.974   6.088   2.425 -0.0482 -0.3949  0.4198
 1748TIP3    H126803   0.954   6.007   2.378 -1.9677  0.2889 -0.0341
 1748TIP3    H226804   0.896   6.105   2.477 -1.5674  3.2789 -2.5872
 1749TIP3   OH226805   3.920   1.244   1.497  0.1371  0.3616 -0.2099
 1749TIP3    H126806   3.937   1.150   1.505 -0.7552  0.2214  0.0962
 1749TIP3    H226807   3.877   1.253   1.412  2.4302  0.8353 -1.4179
 1750TIP3   OH226808   4.102   6.122   2.051  0.1052 -0.2208  0.5055
 1750TIP3    H126809   4.171   6.154   2.110  0.5673  1.3487 -0.8215
 1750TIP3    H226810   4.025   6.173   2.075 -0.3091 -1.1315  1.1794
 1751TIP3   OH226811   5.648   1.263   1.259 -0.5373 -0.2057 -0.1751
 1751TIP3    H126812   5.700   1.332   1.219  1.7343 -1.7305 -0.0652
 1751TIP3    H226813   5.618   1.209   1.185  1.0036 -1.2461 -0.0873
 1752TIP3   OH226814   4.577   3.445   7.969  0.5950  0.0731  0.7973
 1752TIP3    H126815   4.663   3.460   7.930 -0.0371  1.3848 -0.1837
 1752TIP3    H226816   4.557   3.527   8.015 -0.0047 -0.3364  1.2832
 1753TIP3   OH226817   2.579   3.988   8.096  0.7067  0.4843 -0.2031
 1753TIP3    H126818   2.592   3.898   8.068 -1.0279  1.5462 -5.5355
 1753TIP3    H226819   2.647   4.037   8.050 -1.5472  2.3606 -1.7361
 1754TIP3   OH226820   0.249   0.528   1.926 -1.0235 -0.1211  0.1195
 1754TIP3    H126821   0.181   0.465   1.902 -2.3653  1.5482 -0.6824
 1754TIP3    H226822   0.220   0.565   2.009 -0.8512  0.2585  0.0142
 1755TIP3   OH226823   0.500   3.609   0.201  0.1717 -0.3929  0.2920
 1755TIP3    H126824   0.503   3.522   0.161 -0.5536 -0.4954  0.4456
 1755TIP3    H226825   0.572   3.657   0.160  0.1562 -0.8581 -0.2870
 1756TIP3   OH226826   4.628   3.372   1.893  0.8372 -0.1093 -0.1115
 1756TIP3    H126827   4.606   3.464   1.886 -1.2012 -0.3213  2.2410
 1756TIP3    H226828   4.718   3.371   1.925  0.9927  1.0374 -0.4687
 1757TIP3   OH226829   6.469   5.219   1.007 -0.7120  0.1862 -0.4715
 1757TIP3    H126830   6.430   5.304   0.988 -0.8757  0.2226  0.0204
 1757TIP3    H226831   6.460   5.209   1.102 -0.8691 -0.4657 -0.5502
 1758TIP3   OH226832   4.532   1.665   2.909 -0.1286  0.4625  0.2995
 1758TIP3    H126833   4.588   1.735   2.941  1.1026  0.2623 -1.2790
 1758TIP3    H226834   4.479   1.706   2.840 -0.3672  0.1406  0.2857
 1759TIP3   OH226835   4.973   6.683   1.900 -0.3535  0.1278 -0.4697
 1759TIP3    H126836   5.027   6.622   1.950 -0.9666  0.1891  0.2798
 1759TIP3    H226837   4.898   6.700   1.956 -0.3994  1.2455 -0.8542
 1760TIP3   OH226838   2.208   0.842   2.077  0.2029  0.3179 -0.1665
 1760TIP3    H126839   2.113   0.848   2.087  0.0636 -1.0117 -0.4933
 1760TIP3    H226840   2.239   0.932   2.087 -0.7784  0.4199  2.9695
 1761TIP3   OH226841   4.002   5.501   0.737  0.0401  0.1486 -0.2240
 1761TIP3    H126842   4.057   5.441   0.685  0.7554  0.4491  0.1773
 1761TIP3    H226843   4.034   5.588   0.715  0.8897  0.2554  1.2951
 1762TIP3   OH226844   4.801   6.845   0.367 -0.2269  0.1598 -0.2153
 1762TIP3    H126845   4.803   6.775   0.432  0.9748 -0.0598 -0.4680
 1762TIP3    H226846   4.712   6.843   0.332 -0.5953 -0.3658  0.7164
 1763TIP3   OH226847   4.595   6.688   0.585  0.4646  0.0079  0.4649
 1763TIP3    H126848   4.533   6.666   0.515  2.0532  3.3662 -2.3232
 1763TIP3    H226849   4.541   6.726   0.653 -0.7625  2.0682 -1.5211
 1764TIP3   OH226850   3.567   1.436   7.585  0.5327 -0.3893 -0.6399
 1764TIP3    H126851   3.556   1.515   7.532 -1.9155  0.0758  0.4074
 1764TIP3    H226852   3.647   1.451   7.634 -0.4284  2.0334  0.3673
 1765TIP3   OH226853   2.816   1.610   2.499  0.4434 -0.9569  0.5774
 1765TIP3    H126854   2.765   1.546   2.449  1.3474  0.0948 -1.8125
 1765TIP3    H226855   2.775   1.694   2.478  3.4466  0.0412 -2.0689
 1766TIP3   OH226856   3.652   1.389   8.098  0.1810  0.0652  0.0418
 1766TIP3    H126857   3.560   1.381   8.072  0.9198  0.2548 -3.0199
 1766TIP3    H226858   3.667   1.483   8.103  0.3550  0.0483 -0.1479
 1767TIP3   OH226859   0.617   0.120   1.934  0.2131  0.6181 -0.2189
 1767TIP3    H126860   0.586   0.161   2.014 -1.4082 -1.8039  0.5308
 1767TIP3    H226861   0.564   0.160   1.865 -0.5420  0.6132  0.3383
 1768TIP3   OH226862   3.730   0.276   8.056  0.2228  0.4244  0.0484
 1768TIP3    H126863   3.807   0.330   8.040 -1.5145  2.8579 -0.7510
 1768TIP3    H226864   3.706   0.294   8.146  0.2112  0.1626  0.0998
 1769TIP3   OH226865   0.155   1.970   0.805  0.3613  0.5730 -0.0517
 1769TIP3    H126866   0.195   2.052   0.837  2.2502  0.8943 -2.8269
 1769TIP3    H226867   0.145   1.984   0.711 -1.0269 -1.7526 -0.3221
 1770TIP3   OH226868   6.068   0.037   0.285  0.2053  0.1714  0.4805
 1770TIP3    H126869   6.083   0.129   0.307  1.2353  0.2178 -0.3513
 1770TIP3    H226870   6.083   0.032   0.191 -0.1821 -0.7931  0.4586
 1771TIP3   OH226871   5.896   0.254   2.128  0.2506  0.8875  0.1370
 1771TIP3    H126872   5.974   0.281   2.079 -0.0848  0.4439 -0.6604
 1771TIP3    H226873   5.929   0.193   2.193  0.5176  0.3128 -0.5218
 1772TIP3   OH226874   3.109   4.956   8.258 -0.2470  0.4156 -0.1925
 1772TIP3    H126875   3.135   5.022   8.323  1.4124 -0.4638  0.0800
 1772TIP3    H226876   3.188   4.937   8.209 -0.9746 -0.5536 -1.0413
 1773TIP3   OH226877   0.117   4.635   8.336 -0.4771  0.7050  0.1322
 1773TIP3    H126878   0.110   4.564   8.401  0.0027 -1.2110 -1.8075
 1773TIP3    H226879   0.026   4.656   8.314 -0.7539  2.8089  2.7738
 1774TIP3   OH226880   4.787   1.643   8.262  0.1917 -0.4390  0.1204
 1774TIP3    H126881   4.709   1.619   8.312 -1.1670  1.3162 -1.0144
 1774TIP3    H226882   4.779   1.596   8.180 -0.8903  1.3955 -0.8849
 1775TIP3   OH226883   0.265   2.880   1.386 -0.1792  0.8619 -0.2060
 1775TIP3    H126884   0.308   2.944   1.331  1.4661  0.7482  0.8778
 1775TIP3    H226885   0.243   2.928   1.466  1.0582  0.1368  0.6121
 1776TIP3   OH226886   1.333   0.824   0.483  0.3578  0.2933 -0.0777
 1776TIP3    H126887   1.390   0.891   0.446  0.6585  0.9354  1.4744
 1776TIP3    H226888   1.246   0.845   0.449  1.0217 -0.8503 -2.6760
 1777TIP3   OH226889   2.661   2.377   0.580  0.5830 -0.2496  0.2083
 1777TIP3    H126890   2.666   2.450   0.519  0.5568  0.8408  1.4552
 1777TIP3    H226891   2.643   2.301   0.525 -1.5057  0.9872 -0.9587
 1778TIP3   OH226892   0.028   4.076   1.172 -0.2434 -0.6141 -1.0070
 1778TIP3    H126893   0.097   4.117   1.223  0.1275 -0.4258 -1.6462
 1778TIP3    H226894  -0.033   4.041   1.237  0.1073 -0.1959 -0.4468
 1779TIP3   OH226895   0.755   5.645   8.658 -0.5011 -0.1958  0.7868
 1779TIP3    H126896   0.734   5.681   8.744  2.7379  1.3697  1.0791
 1779TIP3    H226897   0.727   5.713   8.597 -0.1979 -0.0289  0.8332
 1780TIP3   OH226898   1.703   4.278   0.698  0.1400  0.3827 -0.3742
 1780TIP3    H126899   1.715   4.205   0.637 -2.2407 -0.0378 -0.4137
 1780TIP3    H226900   1.707   4.237   0.785  3.0976  0.9197 -0.1471
 1781TIP3   OH226901   3.738   5.049   2.441 -0.1178 -0.2487 -0.0219
 1781TIP3    H126902   3.715   5.105   2.515  0.1270  0.2125 -0.2975
 1781TIP3    H226903   3.805   4.990   2.475  0.0011 -0.0314  0.1178
 1782TIP3   OH226904   5.191   3.759   2.854 -0.8124 -0.0257 -0.0084
 1782TIP3    H126905   5.132   3.780   2.927 -0.8437 -0.7821  0.1932
 1782TIP3    H226906   5.219   3.669   2.871 -1.1081 -0.3442 -1.1374
 1783TIP3   OH226907   2.348   3.123   0.297 -0.2761  0.5671 -0.1008
 1783TIP3    H126908   2.313   3.107   0.385 -1.0061  3.2192  0.1986
 1783TIP3    H226909   2.439   3.094   0.302 -0.6984 -0.7009  1.0469
 1784TIP3   OH226910   5.181   0.467   0.451  0.3039 -0.0230  0.3471
 1784TIP3    H126911   5.108   0.405   0.458 -0.3370  0.3395 -2.1588
 1784TIP3    H226912   5.139   0.553   0.452  0.5775  0.1830 -1.5452
 1785TIP3   OH226913   5.750   5.842   0.823  0.2675 -0.1292  0.1553
 1785TIP3    H126914   5.752   5.873   0.733 -3.0260  2.4667  0.8028
 1785TIP3    H226915   5.753   5.746   0.816  1.6522  0.0172 -2.5209
 1786TIP3   OH226916   5.449   4.870   8.577  0.0494  0.1409  0.0018
 1786TIP3    H126917   5.438   4.915   8.493 -0.0849  1.4446  0.6903
 1786TIP3    H226918   5.359   4.856   8.609  0.1078 -0.0355  0.0910
 1787TIP3   OH226919   3.853   0.639   8.143 -0.3323  0.1704 -0.5860
 1787TIP3    H126920   3.775   0.671   8.188  0.2614  0.1801  0.4832
 1787TIP3    H226921   3.867   0.702   8.072 -1.4894 -0.0398 -1.0117
 1788TIP3   OH226922   0.524   0.473   1.400  0.3044  0.4236  0.0810
 1788TIP3    H126923   0.480   0.554   1.374  0.7058  0.1454 -1.5855
 1788TIP3    H226924   0.570   0.496   1.481 -1.6552  1.1220  1.0556
 1789TIP3   OH226925   2.372   4.543   1.025  0.2426 -0.3794  0.0116
 1789TIP3    H126926   2.282   4.558   1.053 -0.7002 -2.6925 -1.4967
 1789TIP3    H226927   2.407   4.630   1.006 -2.4822  0.4567 -1.6915
 1790TIP3   OH226928   6.729   6.283   1.727 -0.5176 -0.3161  0.3164
 1790TIP3    H126929   6.665   6.348   1.756  0.4950  0.6652  0.3942
 1790TIP3    H226930   6.758   6.240   1.808  0.3823  0.6218  0.5062
 1791TIP3   OH226931   5.254   5.065   2.013 -0.0888 -0.7348 -0.5598
 1791TIP3    H126932   5.258   5.021   2.098 -0.5737 -0.8777 -0.6044
 1791TIP3    H226933   5.172   5.115   2.016  0.6434  0.4773 -0.3659
 1792TIP3   OH226934   0.843   0.589   8.452 -0.1989 -0.1777 -0.0206
 1792TIP3    H126935   0.801   0.663   8.407  0.6576 -0.2153 -0.9270
 1792TIP3    H226936   0.793   0.579   8.533 -1.2271  0.4735 -0.5471
 1793TIP3   OH226937   6.129   4.031   0.540  0.0400 -0.3131  0.9362
 1793TIP3    H126938   6.167   3.967   0.480  2.2473  0.8670  0.9473
 1793TIP3    H226939   6.199   4.050   0.602 -0.5531  1.9728  1.0098
 1794TIP3   OH226940   0.083   4.094   2.232  0.1847 -0.2046 -0.1154
 1794TIP3    H126941   0.136   4.130   2.304 -0.1294 -0.4081  0.2162
 1794TIP3    H226942   0.129   4.122   2.153 -0.4294  1.5308  0.1088
 1795TIP3   OH226943   3.269   4.621   7.076 -0.0511  0.5493 -0.7486
 1795TIP3    H126944   3.281   4.689   7.010 -0.6937  0.1172 -1.3285
 1795TIP3    H226945   3.180   4.589   7.062  0.2990 -0.5326 -0.6200
 1796TIP3   OH226946   1.401   5.367   7.309  0.1302 -0.6515  0.7277
 1796TIP3    H126947   1.392   5.316   7.228 -0.7378 -1.0147  1.0440
 1796TIP3    H226948   1.463   5.436   7.286 -0.0361 -0.8001 -0.2258
 1797TIP3   OH226949   0.923   2.740   1.915 -0.1515 -0.0916 -0.1258
 1797TIP3    H126950   0.926   2.782   2.001  3.1304  1.0445 -0.6382
 1797TIP3    H226951   0.898   2.810   1.855 -0.7220 -0.4494 -0.3132
 1798TIP3   OH226952   0.984   1.110   0.202 -0.0354 -0.2033 -0.3211
 1798TIP3    H126953   1.009   1.030   0.156  0.3462  0.1366 -0.7041
 1798TIP3    H226954   1.007   1.093   0.293  0.1147 -0.4983 -0.4137
 1799TIP3   OH226955   6.382   0.763   1.485  0.2209  0.1768  0.3882
 1799TIP3    H126956   6.402   0.821   1.411  0.4373  0.5223  0.7152
 1799TIP3    H226957   6.306   0.713   1.456  0.9410 -0.4549 -0.4872
 1800TIP3   OH226958   1.907   2.873   2.804  0.0847  0.1838  0.4171
 1800TIP3    H126959   1.993   2.841   2.829  0.0712 -0.0318  0.1872
 1800TIP3    H226960   1.846   2.805   2.831 -0.0935  0.6606  1.2530
 1801TIP3   OH226961   4.690   6.822   1.912  0.2843  0.0750  0.1100
 1801TIP3    H126962   4.675   6.904   1.865  1.0196 -0.8344 -1.8029
 1801TIP3    H226963   4.747   6.846   1.985  2.2831  0.9716 -1.6524
 1802TIP3   OH226964   5.721   4.357   2.615 -0.1842  1.0459 -0.0037
 1802TIP3    H126965   5.768   4.441   2.612 -0.1657  1.0063 -0.9504
 1802TIP3    H226966   5.667   4.357   2.536  2.3318 -1.3092 -1.8608
 1803TIP3   OH226967   4.596   0.945   8.090  0.2777  0.0556  0.1198
 1803TIP3    H126968   4.514   0.952   8.041  0.2628  0.6995  0.2371
 1803TIP3    H226969   4.578   0.879   8.157 -0.0465 -0.0183 -0.0392
 1804TIP3   OH226970   2.773   6.008   7.047 -1.2688 -0.5393 -0.6642
 1804TIP3    H126971   2.731   5.936   7.093 -1.3454 -1.2619 -1.8092
 1804TIP3    H226972   2.798   5.971   6.962  0.3253  0.2876 -0.6019
 1805TIP3   OH226973   1.291   4.673   1.530  0.0438 -0.0086 -0.5030
 1805TIP3    H126974   1.364   4.639   1.479  0.0392 -0.9435  0.0860
 1805TIP3    H226975   1.233   4.598   1.543  0.4879 -0.0557  1.6306
 1806TIP3   OH226976   5.517   3.610   7.621 -0.0471  0.2516  0.2435
 1806TIP3    H126977   5.542   3.555   7.695  0.3309  1.7650  1.2929
 1806TIP3    H226978   5.601   3.631   7.579  0.0088  1.4082  0.8931
 1807TIP3   OH226979   2.893   5.689   0.692 -0.0015 -0.0789  0.3094
 1807TIP3    H126980   2.958   5.759   0.687 -0.0602  0.0092  0.7278
 1807TIP3    H226981   2.834   5.717   0.762  0.3014 -0.8168  0.8653
 1808TIP3   OH226982   6.089   0.269   1.273  0.0316  0.2963 -0.7759
 1808TIP3    H126983   6.110   0.311   1.190 -1.8244 -1.7511 -2.4068
 1808TIP3    H226984   6.034   0.194   1.249 -0.6574 -0.3380  2.3122
 1809TIP3   OH226985   2.099   2.085   7.763 -0.2054 -0.1035 -0.1704
 1809TIP3    H126986   2.037   2.159   7.766 -1.1340 -0.8786  0.7072
 1809TIP3    H226987   2.158   2.106   7.691 -1.0519  1.0196 -0.5739
 1810TIP3   OH226988   5.871   5.508   8.469  0.3183 -0.6941  0.0055
 1810TIP3    H126989   5.802   5.550   8.519 -0.4423 -0.6732 -1.0316
 1810TIP3    H226990   5.937   5.484   8.534  0.2815  1.1135  0.7646
 1811TIP3   OH226991   5.039   4.667   7.734 -0.7041  0.1241 -0.2411
 1811TIP3    H126992   5.061   4.756   7.707 -1.1014  0.6111  0.9487
 1811TIP3    H226993   5.077   4.611   7.667  1.7158  1.0505  0.2371
 1812TIP3   OH226994   5.692   5.382   1.915  0.5301  0.0614  0.2743
 1812TIP3    H126995   5.647   5.466   1.910  0.3282  0.0738  1.7290
 1812TIP3    H226996   5.621   5.317   1.912  0.6518 -0.0493 -0.3877
 1813TIP3   OH226997   0.195   1.814   2.037 -0.1919 -0.2414  0.5139
 1813TIP3    H126998   0.284   1.816   2.073  0.4104  3.1947 -0.8172
 1813TIP3    H226999   0.148   1.880   2.087 -0.8381  0.7932 -1.3733
 1814TIP3   OH227000   6.601   2.941   7.977  0.0591  0.3800 -0.2943
 1814TIP3    H127001   6.526   2.884   7.960 -0.5857  1.4038 -1.0554
 1814TIP3    H227002   6.564   3.015   8.025  0.5654  0.9155 -0.7070
 1815TIP3   OH227003   4.602   0.675   1.745 -0.6398  0.0820  0.2907
 1815TIP3    H127004   4.562   0.736   1.807 -0.8168 -0.1035  0.3573
 1815TIP3    H227005   4.696   0.696   1.748 -0.7828  0.8287 -0.2081
 1816TIP3   OH227006   6.018   3.817   8.424  0.1481 -0.2716 -0.1414
 1816TIP3    H127007   5.935   3.843   8.466 -0.5947 -0.7706 -1.2460
 1816TIP3    H227008   6.074   3.894   8.433 -0.6085  0.2602  0.1966
 1817TIP3   OH227009   1.043   0.009   7.301  0.1326  0.0096 -0.1996
 1817TIP3    H127010   0.959   0.050   7.280 -0.4179 -0.7223  0.5001
 1817TIP3    H227011   1.101   0.082   7.320 -0.3387  0.5291 -0.6963
 1818TIP3   OH227012   0.703   3.278   0.389  0.2097 -0.2573  0.1340
 1818TIP3    H127013   0.790   3.246   0.412  0.5113 -0.0785 -0.7153
 1818TIP3    H227014   0.644   3.233   0.449  1.0089  0.7120  1.7243
 1819TIP3   OH227015   5.500   5.312   1.079 -0.0873 -0.8274 -0.0432
 1819TIP3    H127016   5.450   5.390   1.057 -1.0222 -1.6620 -0.9793
 1819TIP3    H227017   5.568   5.343   1.139 -1.3420  0.4312  0.7848
 1820TIP3   OH227018   2.533   1.043   0.296 -0.3231  0.0474 -0.6366
 1820TIP3    H127019   2.477   0.969   0.271  0.0671  0.4920 -3.0349
 1820TIP3    H227020   2.471   1.112   0.322 -0.7346 -0.6159  0.1969
 1821TIP3   OH227021   5.025   5.057   8.186 -0.4292  0.4859 -0.6646
 1821TIP3    H127022   4.995   5.128   8.129  0.8774 -0.5825 -2.7931
 1821TIP3    H227023   5.120   5.052   8.170 -0.3800 -1.2744 -0.0350
 1822TIP3   OH227024   1.482   5.907   2.231 -0.0316 -0.2152  0.4848
 1822TIP3    H127025   1.468   5.863   2.315 -1.8018  0.8291  0.7899
 1822TIP3    H227026   1.558   5.962   2.245  1.0485 -1.6920  0.6809
 1823TIP3   OH227027   1.399   6.201   1.646 -0.0433 -0.7437  0.7083
 1823TIP3    H127028   1.469   6.236   1.591 -0.1964  1.3019  1.7283
 1823TIP3    H227029   1.321   6.207   1.592 -0.1517  1.0163  1.0315
 1824TIP3   OH227030   3.029   1.262   1.084 -0.2654  0.6692  0.2471
 1824TIP3    H127031   3.039   1.263   1.179 -1.1102  2.4271  0.3573
 1824TIP3    H227032   3.113   1.294   1.051  0.4765 -1.1174  0.3101
 1825TIP3   OH227033   2.782   2.644   0.166  0.6329 -0.7318 -0.4655
 1825TIP3    H127034   2.824   2.729   0.150  0.9673 -0.7618  0.2293
 1825TIP3    H227035   2.722   2.633   0.092  0.9374 -0.1134 -0.8161
 1826TIP3   OH227036   6.379   5.266   1.607 -0.3315 -0.4276 -0.2827
 1826TIP3    H127037   6.424   5.291   1.526  1.3142 -3.3472 -0.4092
 1826TIP3    H227038   6.296   5.229   1.577  0.2821 -1.5259 -0.6681
 1827TIP3   OH227039   4.470   2.785   7.703 -0.0752 -0.6864 -0.6523
 1827TIP3    H127040   4.466   2.696   7.668 -0.0744 -0.7342 -0.5326
 1827TIP3    H227041   4.529   2.778   7.778 -0.5454 -0.7064 -0.2815
 1828TIP3   OH227042   4.314   4.146   6.610  0.6110  0.2385  0.8661
 1828TIP3    H127043   4.277   4.159   6.697 -0.2831 -0.8681  0.6768
 1828TIP3    H227044   4.401   4.185   6.614  1.1479 -1.0146  2.7048
 1829TIP3   OH227045   6.190   3.531   1.014  0.1144  0.5379  0.2014
 1829TIP3    H127046   6.256   3.475   1.055 -0.9224 -1.4105 -0.6532
 1829TIP3    H227047   6.226   3.619   1.022  2.3425 -0.3268  0.6430
 1830TIP3   OH227048   1.211   5.751   7.597 -0.1326 -0.4053 -0.5751
 1830TIP3    H127049   1.154   5.727   7.670  0.6793  1.4241  0.7457
 1830TIP3    H227050   1.151   5.769   7.525 -1.2219  0.7595  0.5640
 1831TIP3   OH227051   3.687   6.312   8.120 -0.5395  0.0554 -0.3793
 1831TIP3    H127052   3.701   6.341   8.211 -0.3245  0.4330 -0.5296
 1831TIP3    H227053   3.741   6.234   8.112  1.3894  1.3632 -0.8827
 1832TIP3   OH227054   2.485   1.435   1.964  0.2443  0.3617  0.5199
 1832TIP3    H127055   2.554   1.498   1.945 -0.8804  2.4348  2.7049
 1832TIP3    H227056   2.413   1.461   1.906  0.4239 -0.1556  0.0616
 1833TIP3   OH227057   4.869   5.359   7.522  0.7258  0.2522 -0.1689
 1833TIP3    H127058   4.863   5.453   7.536  0.3122  0.1978  0.0349
 1833TIP3    H227059   4.900   5.350   7.431  2.2465  0.5847  0.2949
 1834TIP3   OH227060   2.907   0.726   1.215 -0.0634  0.1086 -0.2806
 1834TIP3    H127061   2.850   0.739   1.290  0.8057  1.4236  0.1831
 1834TIP3    H227062   2.926   0.815   1.183  1.0826 -0.3365 -0.9010
 1835TIP3   OH227063   6.417   4.724   1.822 -0.3201  0.1846  0.2284
 1835TIP3    H127064   6.442   4.644   1.777  2.1648  0.3648  1.1226
 1835TIP3    H227065   6.393   4.785   1.753 -2.7076 -1.3948 -0.4508
 1836TIP3   OH227066   3.592   2.020   2.105  0.1712 -0.1519  0.4236
 1836TIP3    H127067   3.592   2.010   2.010 -2.0395 -1.2932  0.4812
 1836TIP3    H227068   3.499   2.027   2.129  0.7168  2.7322  2.2820
 1837TIP3   OH227069   0.492   6.095   8.662 -0.1781 -0.2132 -0.0364
 1837TIP3    H127070   0.453   6.181   8.649  1.5286  0.6061 -0.0394
 1837TIP3    H227071   0.419   6.039   8.689 -0.9394  1.7902  2.4454
 1838TIP3   OH227072   1.091   3.075   1.622 -0.1092  0.5551  0.7636
 1838TIP3    H127073   1.136   3.001   1.580  0.8352  1.4938  0.0689
 1838TIP3    H227074   1.003   3.073   1.584  0.3370  0.6099 -0.3187
 1839TIP3   OH227075   4.165   5.031   1.868 -0.0509 -0.7442 -0.4193
 1839TIP3    H127076   4.247   4.996   1.834  1.9726  3.3228 -0.3873
 1839TIP3    H227077   4.176   5.032   1.963 -0.7038 -1.2906 -0.3266
 1840TIP3   OH227078   6.069   4.751   1.023 -0.3903  0.0482 -0.1569
 1840TIP3    H127079   6.111   4.759   1.108  1.7297  1.1389 -1.2056
 1840TIP3    H227080   6.071   4.839   0.986  0.6739 -0.7239 -2.1273
 1841TIP3   OH227081   2.420   5.850   1.501 -0.4195  0.3556  0.0194
 1841TIP3    H127082   2.449   5.784   1.564 -0.5093  0.6951  0.4220
 1841TIP3    H227083   2.371   5.801   1.435 -0.6794  0.0504  0.4336
 1842TIP3   OH227084   0.125   3.273   0.054  0.8304  0.2672 -0.0582
 1842TIP3    H127085   0.044   3.224   0.069  0.5049 -0.2406 -2.9421
 1842TIP3    H227086   0.189   3.232   0.112  0.6242 -3.8530 -2.3697
 1843TIP3   OH227087   2.429   2.613   1.044 -0.2817 -0.0001 -0.3077
 1843TIP3    H127088   2.433   2.531   0.993 -0.1602 -0.3459  0.2507
 1843TIP3    H227089   2.518   2.623   1.079 -0.6983 -0.4725  0.9256
 1844TIP3   OH227090   1.864   1.259   0.695  0.0709  0.6971  0.0985
 1844TIP3    H127091   1.955   1.249   0.670 -0.5783  0.1935 -2.3003
 1844TIP3    H227092   1.864   1.251   0.790  2.3976 -0.1454  0.0851
 1845TIP3   OH227093   4.373   5.387   1.209 -0.1136  0.0165 -0.2156
 1845TIP3    H127094   4.409   5.307   1.171 -0.6379  0.1330 -0.9916
 1845TIP3    H227095   4.404   5.387   1.300 -1.7415 -2.1020  0.4201
 1846TIP3   OH227096   5.186   3.025   0.610 -0.0928 -0.4222  0.1421
 1846TIP3    H127097   5.105   3.044   0.563  0.5319 -0.6965 -1.0874
 1846TIP3    H227098   5.159   2.974   0.686 -1.2390  0.9216  0.6819
 1847TIP3   OH227099   5.770   4.386   7.826  0.3725  0.0847 -0.7244
 1847TIP3    H127100   5.749   4.334   7.904  1.3126  0.3327 -0.2951
 1847TIP3    H227101   5.771   4.322   7.755  0.1516 -0.2538 -0.4271
 1848TIP3   OH227102   2.289   2.793   2.292 -0.4967 -0.1552 -0.1853
 1848TIP3    H127103   2.324   2.717   2.245  0.2514 -0.5811  1.0291
 1848TIP3    H227104   2.366   2.846   2.312 -0.6205 -0.5926  1.6180
 1849TIP3   OH227105   2.371   6.274   0.937 -0.3938  0.2224  0.2001
 1849TIP3    H127106   2.465   6.283   0.919 -0.4879  0.4420 -0.1698
 1849TIP3    H227107   2.328   6.318   0.865 -0.7654  1.3344  1.0686
 1850TIP3   OH227108   0.671   0.534   0.014  0.1091 -0.9348 -0.4844
 1850TIP3    H127109   0.628   0.450   0.025  0.5691 -1.0832  0.2661
 1850TIP3    H227110   0.599   0.598   0.009 -0.2195 -1.2807 -0.2194
 1851TIP3   OH227111   2.511   2.711   7.759 -0.0054 -0.4104 -0.1083
 1851TIP3    H127112   2.484   2.780   7.699  1.6197 -1.1071 -1.7574
 1851TIP3    H227113   2.467   2.731   7.841 -2.4763  0.4873 -1.5446
 1852TIP3   OH227114   5.073   4.452   0.318  0.2505 -0.5650  0.3236
 1852TIP3    H127115   5.127   4.419   0.390  1.4441  0.2746 -0.1539
 1852TIP3    H227116   5.017   4.519   0.359  1.4980  0.5025  0.3732
 1853TIP3   OH227117   4.224   2.055   8.465  0.2874  0.4256 -0.4867
 1853TIP3    H127118   4.170   2.111   8.410 -2.9524 -1.3223  0.6685
 1853TIP3    H227119   4.279   2.007   8.403 -0.0897  1.6244 -1.8049
 1854TIP3   OH227120   1.156   1.523   1.205  0.1916 -0.1064  0.1999
 1854TIP3    H127121   1.228   1.534   1.144  1.7328  0.9456  2.0780
 1854TIP3    H227122   1.104   1.603   1.195  1.2289  0.7337  1.1562
 1855TIP3   OH227123   0.110   4.125   2.754 -0.2861  0.2685  0.1209
 1855TIP3    H127124   0.202   4.151   2.757 -0.7437  1.9295  1.4927
 1855TIP3    H227125   0.097   4.092   2.665  1.5269  0.3436 -0.2091
 1856TIP3   OH227126   2.430   6.149   7.725  0.1116 -0.1463 -0.4200
 1856TIP3    H127127   2.400   6.234   7.693  0.4059 -0.4075 -1.4090
 1856TIP3    H227128   2.428   6.092   7.649 -1.6592 -1.4912  0.5591
 1857TIP3   OH227129   3.591   5.900   2.636  0.3471  0.5063  0.0973
 1857TIP3    H127130   3.605   5.883   2.730 -1.9422  1.6724  0.7301
 1857TIP3    H227131   3.594   5.814   2.596 -0.0653 -0.1956  1.4945
 1858TIP3   OH227132   5.346   5.035   7.534 -0.4691 -0.5857  0.3420
 1858TIP3    H127133   5.332   5.055   7.442 -1.7032  0.5538  0.7516
 1858TIP3    H227134   5.433   5.070   7.553 -0.0663 -1.1164 -0.4500
 1859TIP3   OH227135   6.432   4.770   8.108 -0.7108 -0.1680  0.1340
 1859TIP3    H127136   6.447   4.792   8.016 -1.2749 -0.5980 -0.0714
 1859TIP3    H227137   6.496   4.822   8.157 -0.0652 -0.3229 -0.5362
 1860TIP3   OH227138   3.787   2.831   7.089 -0.2078 -0.1684 -0.6867
 1860TIP3    H127139   3.731   2.763   7.129 -1.5941  1.4584  0.2826
 1860TIP3    H227140   3.819   2.791   7.009  0.0009 -2.3955  0.4251
 1861TIP3   OH227141   3.825   6.826   8.409  0.0679  0.2592 -0.3276
 1861TIP3    H127142   3.766   6.872   8.468 -1.2001  1.2279 -2.2385
 1861TIP3    H227143   3.774   6.814   8.329  2.2292  0.5219 -1.8243
 1862TIP3   OH227144   2.900   2.177   0.797  0.2477 -0.2504  0.5357
 1862TIP3    H127145   2.970   2.120   0.766 -0.3354  0.2639 -1.8946
 1862TIP3    H227146   2.895   2.159   0.891  2.8495 -1.1217  0.5837
 1863TIP3   OH227147   2.192   5.669   8.321  0.4702 -0.0850  0.0132
 1863TIP3    H127148   2.108   5.642   8.284  0.0142 -2.0768  2.2858
 1863TIP3    H227149   2.257   5.618   8.274  0.1758 -0.4388 -0.0103
 1864TIP3   OH227150   4.504   0.928   0.854 -0.4893  0.8815 -0.3469
 1864TIP3    H127151   4.446   0.854   0.872 -1.0256  1.5330  0.6655
 1864TIP3    H227152   4.552   0.902   0.776 -1.3503 -0.1394 -0.5572
 1865TIP3   OH227153   5.027   3.719   0.444 -0.5299  0.0045  0.0210
 1865TIP3    H127154   5.063   3.767   0.370 -0.4093 -0.8877 -0.5127
 1865TIP3    H227155   4.953   3.772   0.473 -0.8741  0.1338 -1.0425
 1866TIP3   OH227156   1.881   5.571   7.444  0.3643  1.0804  0.2574
 1866TIP3    H127157   1.904   5.611   7.360  0.6165  1.2573  0.4129
 1866TIP3    H227158   1.919   5.628   7.510  2.6315 -0.5418  0.4658
 1867TIP3   OH227159   6.208   3.095   0.336  0.0380  0.5304 -0.2031
 1867TIP3    H127160   6.286   3.137   0.371  0.4051  0.1212 -0.5218
 1867TIP3    H227161   6.177   3.040   0.408  0.2375  0.4340 -0.1890
 1868TIP3   OH227162   6.506   3.055   2.142  0.0050 -0.5126 -0.2930
 1868TIP3    H127163   6.517   2.962   2.164 -1.9189 -0.9619 -0.9997
 1868TIP3    H227164   6.425   3.081   2.186  1.3006  1.3155  1.1718
 1869TIP3   OH227165   3.351   5.583   1.223  0.2776 -0.4806 -0.2554
 1869TIP3    H127166   3.381   5.635   1.148  0.9494 -1.5231 -0.7367
 1869TIP3    H227167   3.429   5.534   1.250 -0.5770 -1.9895 -0.4687
 1870TIP3   OH227168   1.761   3.983   2.182 -0.2422 -0.5945  0.1715
 1870TIP3    H127169   1.775   3.916   2.115  1.1859 -1.2137  1.0582
 1870TIP3    H227170   1.837   4.040   2.174 -1.1090  0.5808 -0.1188
 1871TIP3   OH227171   1.305   2.565   0.635  0.3547  0.9731 -0.3126
 1871TIP3    H127172   1.233   2.605   0.588  0.2799 -0.7434 -1.7400
 1871TIP3    H227173   1.382   2.615   0.607  0.1151  0.9043 -1.1078
 1872TIP3   OH227174   1.250   6.742   1.424 -0.2251  0.2715 -0.1604
 1872TIP3    H127175   1.157   6.719   1.417  0.2117 -1.6728 -0.1275
 1872TIP3    H227176   1.281   6.741   1.333  0.1070 -0.7688 -0.0518
 1873TIP3   OH227177   4.426   3.868   1.106  0.1539  0.1626 -0.6001
 1873TIP3    H127178   4.451   3.866   1.014 -1.7056  0.4498 -1.1385
 1873TIP3    H227179   4.499   3.913   1.149  0.5667  0.9705 -2.0830
 1874TIP3   OH227180   6.388   3.199   1.479 -0.1336  0.0601  0.2377
 1874TIP3    H127181   6.338   3.280   1.476 -2.0743 -1.0393  0.9903
 1874TIP3    H227182   6.326   3.131   1.455  1.5350 -1.2096 -0.7348
 1875TIP3   OH227183   6.271   5.920   0.923 -0.1561 -0.3249  0.9063
 1875TIP3    H127184   6.189   5.969   0.922 -0.9876 -1.6535 -0.5735
 1875TIP3    H227185   6.336   5.982   0.890 -0.5882  0.6485  1.8184
 1876TIP3   OH227186   2.948   5.257   7.932  0.2436 -0.5554 -0.1935
 1876TIP3    H127187   3.021   5.199   7.954 -1.3346 -1.9718  1.6714
 1876TIP3    H227188   2.882   5.200   7.894 -0.2903  0.5323 -0.9639
 1877TIP3   OH227189   3.587   0.957   0.309  0.3991 -0.3234 -0.1751
 1877TIP3    H127190   3.537   1.025   0.353  1.4142 -0.6423  1.5582
 1877TIP3    H227191   3.536   0.877   0.323  0.5969 -0.3824  0.2174
 1878TIP3   OH227192   2.786   3.472   1.280  0.1081 -0.0696 -0.1841
 1878TIP3    H127193   2.839   3.403   1.241  0.0327  0.7434 -1.8015
 1878TIP3    H227194   2.850   3.529   1.323  0.8184  1.5204 -3.0581
 1879TIP3   OH227195   3.328   0.398   1.491 -0.3323  0.6658  0.5946
 1879TIP3    H127196   3.346   0.375   1.582  1.1431 -1.1185 -0.0851
 1879TIP3    H227197   3.238   0.367   1.475 -0.6413  1.0942  1.4485
 1880TIP3   OH227198   4.920   1.959   0.202  0.2617  0.4215  0.4266
 1880TIP3    H127199   4.828   1.970   0.224  0.2584 -1.0622  1.2659
 1880TIP3    H227200   4.923   1.878   0.150  0.8723  1.4007 -1.1291
 1881TIP3   OH227201   2.499   0.024   7.411 -0.2624  0.2184  0.2257
 1881TIP3    H127202   2.438   0.076   7.463 -1.0104 -0.4824  0.0659
 1881TIP3    H227203   2.525  -0.047   7.469 -0.1221  0.1363  0.0630
 1882TIP3   OH227204   1.706   5.185   1.780 -0.4703  0.2679 -0.2171
 1882TIP3    H127205   1.630   5.189   1.722 -0.8497 -1.2677  0.1402
 1882TIP3    H227206   1.684   5.119   1.846  1.0898 -0.0838  0.0051
 1883TIP3   OH227207   1.071   4.342   2.167  0.2719 -0.1704  0.2271
 1883TIP3    H127208   1.074   4.406   2.095 -0.5593 -0.7682 -0.3542
 1883TIP3    H227209   1.029   4.390   2.239  0.8232  0.3323  0.2272
 1884TIP3   OH227210   3.526   4.045   3.078 -0.4248  0.2364  0.2804
 1884TIP3    H127211   3.526   3.975   3.143 -1.6570 -0.6396 -0.6257
 1884TIP3    H227212   3.619   4.065   3.064 -0.1223  0.2680  2.0964
 1885TIP3   OH227213   1.943   1.774   0.405 -0.0030  0.2403 -0.6773
 1885TIP3    H127214   2.018   1.827   0.433 -0.6260  2.7747 -3.3738
 1885TIP3    H227215   1.867   1.815   0.446 -0.1737 -1.0354  0.3513
 1886TIP3   OH227216   4.817   6.279   7.338  0.1072 -0.4230  0.1049
 1886TIP3    H127217   4.812   6.195   7.385 -1.0470 -0.0482  0.7075
 1886TIP3    H227218   4.905   6.312   7.355  0.1283 -0.8996  0.9470
 1887TIP3   OH227219   5.490   1.090   6.650 -0.1524 -0.5772  0.3954
 1887TIP3    H127220   5.472   1.170   6.700  0.9828 -0.5216  0.7586
 1887TIP3    H227221   5.575   1.060   6.684  0.7382 -0.4546 -1.5983
 1888TIP3   OH227222   0.016   4.448   8.509 -0.3873  0.0392  0.1694
 1888TIP3    H127223   0.056   4.367   8.480  0.1702  0.5805 -0.6008
 1888TIP3    H227224  -0.078   4.430   8.508 -0.2388 -0.8479  0.8117
 1889TIP3   OH227225   4.834   3.486   7.859  0.1558  0.2977  0.1531
 1889TIP3    H127226   4.784   3.463   7.780 -1.4836 -3.0453  1.9391
 1889TIP3    H227227   4.919   3.444   7.846 -1.1127 -2.9101  1.2278
 1890TIP3   OH227228   4.885   5.947   1.958 -0.0888  0.1249  0.1641
 1890TIP3    H127229   4.963   6.004   1.966  0.2268 -0.5220  2.2798
 1890TIP3    H227230   4.813   6.000   1.992 -0.2119  0.0486  0.0218
 1891TIP3   OH227231   5.540   4.856   0.231  0.4234 -0.5136 -0.2783
 1891TIP3    H127232   5.588   4.780   0.200  0.6439 -0.8568  0.8619
 1891TIP3    H227233   5.452   4.822   0.250 -0.0247 -0.0816 -1.4956
 1892TIP3   OH227234   2.044   1.174   7.957 -0.0632  0.2086  0.0361
 1892TIP3    H127235   2.104   1.249   7.963  0.5069 -0.1169 -1.3151
 1892TIP3    H227236   2.101   1.100   7.936 -0.4986 -0.8121  2.1858
 1893TIP3   OH227237   2.547   4.873   1.178 -0.2875 -0.3339 -0.6673
 1893TIP3    H127238   2.613   4.940   1.197  0.7719 -1.6010  0.3380
 1893TIP3    H227239   2.580   4.829   1.100  0.4208 -1.3679  0.1874
 1894TIP3   OH227240   0.056   0.046   1.384 -0.6070 -0.6093 -0.3667
 1894TIP3    H127241   0.025  -0.042   1.402 -0.7417 -0.1219  2.1071
 1894TIP3    H227242   0.151   0.039   1.387 -0.6242 -0.5941  0.3058
 1895TIP3   OH227243   0.161   3.856   1.039  0.5456  0.1042 -0.6234
 1895TIP3    H127244   0.121   3.921   1.097  1.3239  0.6633 -0.6888
 1895TIP3    H227245   0.134   3.882   0.951  1.5329  0.8526 -0.7199
 1896TIP3   OH227246   5.230   4.258   7.836 -0.5251 -0.1455 -0.4836
 1896TIP3    H127247   5.226   4.342   7.882 -0.4603 -1.0072  1.1810
 1896TIP3    H227248   5.321   4.229   7.849 -0.8046 -0.9139 -0.1734
 1897TIP3   OH227249   2.581   4.642   6.763  0.3445 -0.2295  0.2158
 1897TIP3    H127250   2.585   4.641   6.668 -1.0014 -0.1325  0.1314
 1897TIP3    H227251   2.576   4.735   6.786 -0.8316 -0.2861  0.2670
 1898TIP3   OH227252   2.766   4.530   1.090 -0.0467 -0.8107  0.5446
 1898TIP3    H127253   2.794   4.588   1.019  0.6708 -0.7010  0.8999
 1898TIP3    H227254   2.771   4.442   1.053  0.3207 -0.7540  0.4559
 1899TIP3   OH227255   1.819   2.329   1.962  0.8092  0.0227  0.5529
 1899TIP3    H127256   1.892   2.284   2.004  2.1649 -0.6056 -2.2892
 1899TIP3    H227257   1.784   2.266   1.899 -0.4291  1.2614 -0.0732
 1900TIP3   OH227258   6.362   4.471   8.410  0.3351 -0.2033  0.0616
 1900TIP3    H127259   6.341   4.554   8.453  3.5373  0.1427  1.2030
 1900TIP3    H227260   6.366   4.493   8.317  2.9928  1.5213  0.4690
 1901TIP3   OH227261   1.264   3.146   1.822 -0.3068 -0.1836 -0.5443
 1901TIP3    H127262   1.202   3.130   1.751  0.3935  1.3421 -1.5515
 1901TIP3    H227263   1.297   3.234   1.806  3.5543 -1.5450 -1.1982
 1902TIP3   OH227264   5.144   5.029   2.273  0.5500  0.2631  0.5145
 1902TIP3    H127265   5.151   5.091   2.346  1.7673 -1.0369  1.5779
 1902TIP3    H227266   5.052   5.031   2.249  0.5403  2.4037  0.5554
 1903TIP3   OH227267   4.079   3.225   2.111  0.1910  0.2776  0.3809
 1903TIP3    H127268   4.085   3.150   2.171  0.2709  0.3487  0.4619
 1903TIP3    H227269   4.053   3.186   2.028 -2.2587  0.4220  0.9805
 1904TIP3   OH227270   1.075   2.865   0.453  0.6162 -0.4844 -0.2091
 1904TIP3    H127271   1.116   2.783   0.428  0.8723 -0.6095  0.5976
 1904TIP3    H227272   1.136   2.933   0.421  0.3007 -0.5871 -1.0602
 1905TIP3   OH227273   2.123   3.618   2.150  0.1782  0.0678 -0.4686
 1905TIP3    H127274   2.100   3.528   2.170 -0.5387  0.5165  0.8606
 1905TIP3    H227275   2.043   3.668   2.169  1.5255  1.4024  2.2743
 1906TIP3   OH227276   0.663   0.792   8.344  0.5941  0.4288 -0.1360
 1906TIP3    H127277   0.650   0.775   8.251 -2.5256  0.6685  0.1364
 1906TIP3    H227278   0.683   0.886   8.349 -0.1871  0.6304 -0.5579
 1907TIP3   OH227279   5.007   3.970   1.073  0.3050  0.6918  0.4489
 1907TIP3    H127280   4.924   3.951   1.030  0.3052  2.3076 -0.3529
 1907TIP3    H227281   5.069   3.908   1.034 -0.2702  0.3186  0.1245
 1908TIP3   OH227282   2.065   2.056   0.187  0.6795  0.2045 -0.5761
 1908TIP3    H127283   2.024   2.048   0.101  2.6814 -2.4784 -1.4205
 1908TIP3    H227284   2.000   2.103   0.240 -2.2560 -1.3056 -2.5243
 1909TIP3   OH227285   5.079   2.178   1.703  0.1102 -0.7199 -0.7283
 1909TIP3    H127286   5.093   2.152   1.794 -0.7669 -0.9428 -0.6538
 1909TIP3    H227287   5.067   2.273   1.706  0.5106 -0.6697 -0.6658
 1910TIP3   OH227288   2.941   3.120   1.046  0.2456  0.2012  0.3379
 1910TIP3    H127289   3.013   3.125   0.982 -0.9382  1.9571 -0.9656
 1910TIP3    H227290   2.894   3.040   1.022  0.6120  0.1129 -0.1152
 1911TIP3   OH227291   6.093   1.192   0.051 -0.1092  0.1661 -0.3852
 1911TIP3    H127292   6.070   1.258   0.117  0.0955  0.2983 -0.4430
 1911TIP3    H227293   6.186   1.174   0.068  0.4078  1.4127 -1.6808
 1912TIP3   OH227294   1.609   2.178   1.531  0.5239 -0.1101  0.0669
 1912TIP3    H127295   1.643   2.150   1.616  0.3242  1.3928  0.6735
 1912TIP3    H227296   1.536   2.235   1.552 -0.1649 -0.5114 -1.1526
 1913TIP3   OH227297   3.039   4.758   8.051  0.4214  0.4683 -0.1152
 1913TIP3    H127298   3.011   4.822   8.116 -0.6060 -2.7112  2.9057
 1913TIP3    H227299   2.958   4.728   8.010  0.7126  0.0534 -0.3952
 1914TIP3   OH227300   1.229   2.903   1.464  0.1751  0.0867 -0.6121
 1914TIP3    H127301   1.261   2.918   1.375  0.7130  0.8957 -0.2969
 1914TIP3    H227302   1.293   2.845   1.504 -0.3034 -0.6408 -0.8837
 1915TIP3   OH227303   1.850   4.266   8.538  0.0037 -0.0828  0.8122
 1915TIP3    H127304   1.812   4.320   8.469  2.2860  0.1555 -0.3473
 1915TIP3    H227305   1.786   4.196   8.551 -1.4304  1.0125 -0.0507
 1916TIP3   OH227306   2.713   3.929   7.399 -0.4388  0.5670 -0.3990
 1916TIP3    H127307   2.619   3.940   7.415 -0.1286  2.5263  0.3773
 1916TIP3    H227308   2.723   3.943   7.305 -1.1821 -2.1962 -0.9802
 1917TIP3   OH227309   2.590   4.230   2.859 -0.0389 -0.3759  0.5546
 1917TIP3    H127310   2.669   4.175   2.857  1.0852  1.0620  2.5360
 1917TIP3    H227311   2.540   4.196   2.934 -0.2941  0.0563  0.5788
 1918TIP3   OH227312   1.690   4.244   6.913  0.6038  0.7531 -0.2625
 1918TIP3    H127313   1.707   4.288   6.830  3.7100 -1.4677 -1.0229
 1918TIP3    H227314   1.639   4.166   6.889  0.0465  0.9720  0.1879
 1919TIP3   OH227315   1.389   2.872   0.654  0.0051  0.3830  0.2126
 1919TIP3    H127316   1.412   2.954   0.610 -1.3810  1.6537  1.7109
 1919TIP3    H227317   1.473   2.837   0.685  0.7879  0.4057 -1.7414
 1920TIP3   OH227318   0.622   3.725   7.950 -0.2661 -0.3034 -0.1392
 1920TIP3    H127319   0.613   3.820   7.946 -0.5843 -0.3282 -0.0221
 1920TIP3    H227320   0.706   3.710   7.993 -0.6741 -0.0822  0.7578
 1921TIP3   OH227321   0.262   1.240   2.023 -0.7110  0.3180  0.3091
 1921TIP3    H127322   0.226   1.221   1.936 -0.1859 -0.5054  0.2589
 1921TIP3    H227323   0.315   1.318   2.010 -0.2860 -0.0467 -0.2158
 1922TIP3   OH227324   6.283   2.765   1.239  0.6049  0.2189 -0.3039
 1922TIP3    H127325   6.290   2.690   1.298 -0.1026  0.1941 -0.2453
 1922TIP3    H227326   6.359   2.819   1.261  0.5191  0.0625  0.4268
 1923TIP3   OH227327   5.545   2.443   0.209 -0.1331  0.4610 -0.1726
 1923TIP3    H127328   5.591   2.425   0.291 -0.0993  0.0362 -0.2799
 1923TIP3    H227329   5.609   2.425   0.141  0.0225  1.3975 -0.2789
 1924TIP3   OH227330   0.177   4.560   0.851 -0.3667  0.2866 -0.0992
 1924TIP3    H127331   0.202   4.650   0.871 -1.9111  1.1050 -1.5527
 1924TIP3    H227332   0.245   4.528   0.792 -0.3499  0.8578 -0.3901
 1925TIP3   OH227333   6.704   6.684   0.059 -0.3586  0.6108  0.2166
 1925TIP3    H127334   6.659   6.669  -0.024 -1.0746  0.2060  0.6743
 1925TIP3    H227335   6.785   6.633   0.052 -0.1369  1.0458 -0.4613
 1926TIP3   OH227336   0.607   5.979   0.396 -0.2247 -0.5496  0.0805
 1926TIP3    H127337   0.621   6.039   0.469 -0.2736  1.2712 -1.3517
 1926TIP3    H227338   0.559   5.906   0.435  1.9210 -0.8770  2.3805
 1927TIP3   OH227339   2.861   3.143   0.463 -0.5015  0.0723  0.7394
 1927TIP3    H127340   2.811   3.100   0.533 -2.8856  0.0442 -0.8670
 1927TIP3    H227341   2.891   3.071   0.408  0.3528  0.1743  1.0493
 1928TIP3   OH227342   1.612   4.130   2.786  0.5335  0.2747 -0.3803
 1928TIP3    H127343   1.547   4.199   2.795  1.2864  0.7724  1.7398
 1928TIP3    H227344   1.562   4.049   2.791 -0.1052  0.6610 -0.4603
 1929TIP3   OH227345   5.394   2.245   7.492 -0.7374  0.9875 -0.3660
 1929TIP3    H127346   5.340   2.166   7.500  0.5247  0.2089  0.9965
 1929TIP3    H227347   5.415   2.268   7.583  1.5667  0.9839 -0.8458
 1930TIP3   OH227348   4.266   0.551   1.892 -0.0275 -0.2601  0.0401
 1930TIP3    H127349   4.350   0.514   1.866 -0.3154  0.4247 -1.9727
 1930TIP3    H227350   4.249   0.511   1.978  2.1692 -0.6537  0.3549
 1931TIP3   OH227351   5.939   1.864   1.575  0.2914 -0.2374  0.0367
 1931TIP3    H127352   5.942   1.768   1.573 -1.1811 -0.3539  1.6149
 1931TIP3    H227353   5.893   1.888   1.495  0.6806 -0.8330 -0.3795
 1932TIP3   OH227354   4.926   0.860   0.712  0.6587  0.1882  0.5329
 1932TIP3    H127355   4.960   0.916   0.782  1.6445 -2.9956  2.8277
 1932TIP3    H227356   4.994   0.794   0.699 -0.8443 -1.0933 -1.3151
 1933TIP3   OH227357   4.034   3.110   1.855 -0.1089 -0.5045 -0.1433
 1933TIP3    H127358   4.093   3.094   1.781 -0.4671  0.0734 -0.5646
 1933TIP3    H227359   3.956   3.059   1.835  0.7936 -2.5081  1.1609
 1934TIP3   OH227360   3.607   0.359   1.476 -0.9060  0.6828  0.1076
 1934TIP3    H127361   3.513   0.374   1.481 -0.7407  1.5887  0.6506
 1934TIP3    H227362   3.617   0.300   1.401 -1.9951 -0.3551  0.7388
 1935TIP3   OH227363   5.945   3.014   1.435  0.1932  0.4893  0.5201
 1935TIP3    H127364   5.935   2.985   1.525 -0.3395 -1.9478 -0.2421
 1935TIP3    H227365   5.916   2.939   1.382 -0.0173  2.0200 -1.6706
 1936TIP3   OH227366   1.484   3.120   0.488  0.0018 -0.3248  0.0828
 1936TIP3    H127367   1.489   3.214   0.503  0.2039 -0.1772 -0.8868
 1936TIP3    H227368   1.572   3.088   0.511  0.2125 -0.1429 -0.4498
 1937TIP3   OH227369   1.578   3.863   2.827 -0.1678 -0.5332  0.2549
 1937TIP3    H127370   1.526   3.824   2.896  0.1890  0.0619  0.8707
 1937TIP3    H227371   1.669   3.846   2.852  0.0365  1.3312  0.9621
 1938TIP3   OH227372   3.175   4.046   2.107  0.2060 -0.7419  0.4020
 1938TIP3    H127373   3.224   4.096   2.171 -2.8537  0.5078  1.9944
 1938TIP3    H227374   3.162   4.107   2.034  0.3693 -0.7922  0.3320
 1939TIP3   OH227375   5.619   1.801   7.838  0.4820 -0.5080  0.1276
 1939TIP3    H127376   5.622   1.889   7.874 -0.5495 -0.6745  0.6775
 1939TIP3    H227377   5.526   1.782   7.829  0.6682 -1.8336  0.7768
 1940TIP3   OH227378   2.660   1.425   0.200  0.0730 -0.2165 -0.4170
 1940TIP3    H127379   2.700   1.389   0.121 -0.4677 -1.3513 -0.1996
 1940TIP3    H227380   2.652   1.518   0.182  0.5645 -0.3514 -1.4352
 1941TIP3   OH227381   5.768   2.082   1.913 -0.4932 -0.3336 -0.3875
 1941TIP3    H127382   5.678   2.054   1.926 -0.2337 -0.3380  1.6743
 1941TIP3    H227383   5.768   2.176   1.932  0.2925 -0.7357  1.9209
 1942TIP3   OH227384   1.816   4.976   8.405  0.2656  0.1570  0.5011
 1942TIP3    H127385   1.763   5.024   8.342 -0.0343 -0.9918 -0.1432
 1942TIP3    H227386   1.902   4.968   8.364  0.4105  0.4296  0.7501
 1943TIP3   OH227387   4.650   6.391   7.099  0.0138  0.2490 -0.0950
 1943TIP3    H127388   4.713   6.342   7.045  2.2308  2.1725  0.5770
 1943TIP3    H227389   4.689   6.389   7.187  0.1668  3.0567 -0.0323
 1944TIP3   OH227390   4.154   2.601   6.935 -0.1956  0.5500  0.5738
 1944TIP3    H127391   4.091   2.668   6.960  1.8089  2.5290  0.6288
 1944TIP3    H227392   4.238   2.647   6.930  1.5182 -2.1646  1.7547
 1945TIP3   OH227393   3.866   5.760   8.360  0.2500  0.1172  0.1857
 1945TIP3    H127394   3.950   5.748   8.315  1.1138  2.9861  0.8445
 1945TIP3    H227395   3.861   5.854   8.377 -3.2585  0.0993 -0.0467
 1946TIP3   OH227396   6.751   1.756   0.578 -0.2965 -0.2542 -0.2434
 1946TIP3    H127397   6.836   1.714   0.589 -0.0818  0.2350 -0.0157
 1946TIP3    H227398   6.764   1.820   0.508 -0.3244  0.2239  0.1842
 1947TIP3   OH227399   4.469   2.530   7.603 -0.5754 -0.0199  0.0987
 1947TIP3    H127400   4.533   2.513   7.672 -0.2728  2.3447  0.4930
 1947TIP3    H227401   4.517   2.582   7.539 -1.2576 -0.9541 -1.2205
 1948TIP3   OH227402   6.630   6.734   0.715 -0.2749 -0.4069 -0.3356
 1948TIP3    H127403   6.562   6.762   0.654 -0.5609 -0.3717  0.0002
 1948TIP3    H227404   6.595   6.754   0.801  0.0618 -0.6090 -0.1502
 1949TIP3   OH227405   4.839   4.568   0.439  0.0203  0.3614  0.1065
 1949TIP3    H127406   4.824   4.516   0.518 -0.2984 -0.6024 -0.5653
 1949TIP3    H227407   4.754   4.609   0.421 -0.4390 -0.9196 -0.7675
 1950TIP3   OH227408   0.294   5.442   1.893  0.2159  0.6513  0.1717
 1950TIP3    H127409   0.252   5.426   1.809 -0.1610  0.6667  0.3550
 1950TIP3    H227410   0.385   5.415   1.880 -0.0906 -0.3854  0.0803
 1951TIP3   OH227411   5.215   3.145   7.305  0.1355  0.0818 -0.1268
 1951TIP3    H127412   5.133   3.155   7.258  0.0874 -1.3064 -0.3844
 1951TIP3    H227413   5.247   3.234   7.318 -0.7777  0.5715 -1.1346
 1952TIP3   OH227414   0.236   2.173   1.276  0.3302  0.5128  0.1991
 1952TIP3    H127415   0.284   2.090   1.273 -1.0578 -0.2958 -0.1026
 1952TIP3    H227416   0.303   2.239   1.259  0.9883 -0.7298 -2.6773
 1953TIP3   OH227417   4.243   5.515   0.342  0.6671 -0.0376  0.2275
 1953TIP3    H127418   4.202   5.567   0.273  1.0485 -0.5336 -0.3899
 1953TIP3    H227419   4.309   5.572   0.380 -0.3433  0.6579  1.0136
 1954TIP3   OH227420   1.470   4.287   8.027 -0.0102 -0.1334  0.1617
 1954TIP3    H127421   1.446   4.200   8.058 -3.1512 -0.2455 -2.0922
 1954TIP3    H227422   1.472   4.279   7.931 -2.3427  2.5965 -0.2341
 1955TIP3   OH227423   0.503   6.159   0.886 -0.0023 -0.0388  0.2539
 1955TIP3    H127424   0.465   6.077   0.855 -0.3498 -0.2220  1.1352
 1955TIP3    H227425   0.557   6.134   0.962 -0.6200  0.6188  0.9279
 1956TIP3   OH227426   6.103   3.535   8.124  0.4136  0.0427  0.4451
 1956TIP3    H127427   6.159   3.593   8.176 -1.4466  2.7021 -0.3041
 1956TIP3    H227428   6.144   3.535   8.037  1.1374 -0.8990  0.7676
 1957TIP3   OH227429   3.999   5.674   7.796 -0.6109 -0.2103 -0.5864
 1957TIP3    H127430   4.056   5.603   7.824  0.3764  0.2451 -1.3895
 1957TIP3    H227431   3.913   5.633   7.787 -0.2239 -1.1203 -0.2846
 1958TIP3   OH227432   0.249   2.877   0.863  0.0817  0.6744 -0.6480
 1958TIP3    H127433   0.223   2.882   0.771  0.3451  1.6150 -0.6798
 1958TIP3    H227434   0.337   2.915   0.866  0.2161  0.3428 -0.0575
 1959TIP3   OH227435   0.369   6.347   7.632 -0.0216 -0.2039  0.1692
 1959TIP3    H127436   0.283   6.338   7.675 -0.5474 -0.5563 -0.9327
 1959TIP3    H227437   0.360   6.424   7.576  0.1986 -0.5610 -0.3652
 1960TIP3   OH227438   3.107   5.094   1.752 -0.3464  0.4579  0.0628
 1960TIP3    H127439   3.187   5.104   1.700 -0.6615 -0.9524 -0.7460
 1960TIP3    H227440   3.056   5.173   1.733 -0.2907  0.1518 -1.5182
 1961TIP3   OH227441   6.841   2.493   7.944 -0.0577 -0.4197 -0.0645
 1961TIP3    H127442   6.892   2.515   7.867 -0.1236 -0.5332 -0.1417
 1961TIP3    H227443   6.769   2.439   7.910  0.8790 -1.9515  0.2817
 1962TIP3   OH227444   6.802   1.162   1.156 -0.0255  0.0127  0.3935
 1962TIP3    H127445   6.734   1.096   1.168  0.3359 -0.7144 -1.2676
 1962TIP3    H227446   6.797   1.217   1.234 -2.0244 -0.4577  0.6455
 1963TIP3   OH227447   6.821   2.850   6.444 -0.4413 -0.4317  0.2226
 1963TIP3    H127448   6.800   2.763   6.478 -2.2902  0.2976  1.0831
 1963TIP3    H227449   6.797   2.846   6.351  0.5471 -1.1376 -0.0267
 1964TIP3   OH227450   2.324   6.106   1.498  0.2322  0.1430 -0.5257
 1964TIP3    H127451   2.357   6.017   1.486  0.8851  0.6069 -2.5660
 1964TIP3    H227452   2.400   6.162   1.481 -0.4969  1.1167 -0.6472
 1965TIP3   OH227453   3.141   5.095   2.700  0.0937  0.0679 -0.2292
 1965TIP3    H127454   3.108   5.006   2.710 -0.9592  0.4262 -0.3779
 1965TIP3    H227455   3.082   5.149   2.754  0.1839  0.7805 -0.8276
 1966TIP3   OH227456   3.677   4.221   0.078  0.2096  0.1295 -0.2219
 1966TIP3    H127457   3.612   4.154   0.053  0.1389  0.2129 -0.2599
 1966TIP3    H227458   3.627   4.302   0.084 -0.0603 -0.1485  1.6195
 1967TIP3   OH227459   4.442   6.103   0.352 -0.0614  0.1466  0.5302
 1967TIP3    H127460   4.389   6.136   0.424 -1.0377 -1.0106  0.3798
 1967TIP3    H227461   4.532   6.114   0.381 -0.3970  1.2146  1.2158
 1968TIP3   OH227462   4.881   1.083   2.337  0.4551 -0.3039  0.3965
 1968TIP3    H127463   4.954   1.107   2.395  0.7674  1.4559 -0.6697
 1968TIP3    H227464   4.815   1.151   2.351 -0.0290 -0.6072 -0.3327
 1969TIP3   OH227465   5.109   0.673   0.786  0.2599 -0.2441 -0.0344
 1969TIP3    H127466   5.049   0.602   0.807  0.4419  0.1833  2.1561
 1969TIP3    H227467   5.195   0.632   0.779  0.6704 -0.1301  2.9713
 1970TIP3   OH227468   2.439   2.125   1.501 -0.3148 -0.2514  0.4932
 1970TIP3    H127469   2.380   2.190   1.462 -0.3164 -1.3375 -1.4297
 1970TIP3    H227470   2.524   2.169   1.506  0.1423 -0.6124 -2.5429
 1971TIP3   OH227471   2.313   2.638   8.611 -0.5354  0.4743  0.1602
 1971TIP3    H127472   2.363   2.566   8.650 -3.1228 -0.8829  1.1982
 1971TIP3    H227473   2.288   2.692   8.686 -0.8254  1.0094 -0.3199
 1972TIP3   OH227474   3.417   1.082   7.615  0.6310  0.2125 -0.2975
 1972TIP3    H127475   3.350   1.013   7.620  0.8539  0.0651  0.7508
 1972TIP3    H227476   3.417   1.107   7.522  0.1026 -0.7581 -0.5835
 1973TIP3   OH227477   5.243   6.637   7.565 -0.6866  0.4695  0.4114
 1973TIP3    H127478   5.238   6.702   7.495  2.9862 -0.3102 -0.8037
 1973TIP3    H227479   5.316   6.667   7.620 -0.2862 -1.4898  1.0287
 1974TIP3   OH227480   4.763   0.577   8.659  0.1278  0.0719  0.3242
 1974TIP3    H127481   4.856   0.596   8.676  0.4454 -0.0319 -1.1687
 1974TIP3    H227482   4.749   0.607   8.569 -0.9373 -1.1731  0.0596
 1975TIP3   OH227483   1.327   2.616   1.301 -0.6006 -0.4863  0.2296
 1975TIP3    H127484   1.259   2.556   1.332  0.4653 -1.6328  0.4136
 1975TIP3    H227485   1.339   2.678   1.373  0.6564 -2.1021  1.4878
 1976TIP3   OH227486   0.432   3.323   7.211  0.1380 -0.3627  0.0749
 1976TIP3    H127487   0.444   3.396   7.272 -1.5238  1.2313 -1.3687
 1976TIP3    H227488   0.504   3.333   7.148  1.6570 -1.8109  1.5044
 1977TIP3   OH227489   5.967   4.258   7.442 -0.0927  0.8057  0.0598
 1977TIP3    H127490   6.051   4.274   7.485 -0.2236  1.8043 -0.0337
 1977TIP3    H227491   5.904   4.250   7.513  0.1388 -0.3940  0.1496
 1978TIP3   OH227492   4.786   3.593   0.806 -0.2707  0.0026 -0.5181
 1978TIP3    H127493   4.731   3.660   0.847 -0.7382 -0.2046 -0.8064
 1978TIP3    H227494   4.873   3.634   0.800 -0.2110  0.0651  0.5991
 1979TIP3   OH227495   5.473   6.589   8.503  0.1769 -0.2881  0.3978
 1979TIP3    H127496   5.382   6.600   8.476 -0.0844 -1.3868  0.7818
 1979TIP3    H227497   5.473   6.611   8.596  0.8857  2.5102 -0.1527
 1980TIP3   OH227498   5.334   0.562   8.549 -0.1284  0.4122  0.7579
 1980TIP3    H127499   5.351   0.579   8.642 -1.9890  1.3420  0.9625
 1980TIP3    H227500   5.357   0.643   8.505 -1.9453  0.9871  0.7972
 1981TIP3   OH227501   3.667   6.383   1.474  0.0805 -0.0667 -0.4346
 1981TIP3    H127502   3.744   6.379   1.418  0.7156 -1.6921  0.4666
 1981TIP3    H227503   3.664   6.297   1.517 -0.0485  1.2352  2.4383
 1982TIP3   OH227504   1.876   4.394   1.717 -0.2745  0.3745 -0.0229
 1982TIP3    H127505   1.802   4.334   1.712  1.1030 -1.3863 -0.5008
 1982TIP3    H227506   1.904   4.406   1.626  0.1488  0.8445  0.1629
 1983TIP3   OH227507   0.436   1.880   2.195 -0.5013 -0.0155  0.0405
 1983TIP3    H127508   0.389   1.919   2.269  1.4550  1.8926  0.3871
 1983TIP3    H227509   0.524   1.863   2.228  0.0289 -0.3910 -1.4646
 1984TIP3   OH227510   4.583   6.127   6.812 -0.6830 -0.0359 -0.0947
 1984TIP3    H127511   4.518   6.187   6.848 -0.7915 -0.5947  0.6566
 1984TIP3    H227512   4.549   6.103   6.725  0.0791  2.1185 -1.0614
 1985TIP3   OH227513   5.418   4.628   1.659  0.0793 -0.3101  0.6785
 1985TIP3    H127514   5.435   4.706   1.711  2.5451 -1.0726  1.1474
 1985TIP3    H227515   5.447   4.555   1.714  0.3783 -1.3277 -0.7668
 1986TIP3   OH227516   3.680   4.625   6.972 -0.5873 -0.2730 -0.1187
 1986TIP3    H127517   3.759   4.680   6.974 -1.8536  1.7559 -1.4584
 1986TIP3    H227518   3.702   4.549   7.025  2.3018  0.1556 -0.5240
 1987TIP3   OH227519   6.255   1.450   0.027  0.6990  0.1621  0.0351
 1987TIP3    H127520   6.188   1.461  -0.041 -0.6193  1.4869  1.4750
 1987TIP3    H227521   6.210   1.470   0.109  2.5155 -0.3100  1.2104
 1988TIP3   OH227522   0.559   3.336   2.350  0.0222  0.1668 -0.2089
 1988TIP3    H127523   0.654   3.353   2.353  0.1089 -0.4114  2.1671
 1988TIP3    H227524   0.519   3.417   2.380 -0.2102  0.1152 -0.3742
 1989TIP3   OH227525   3.849   2.867   0.984 -0.3954 -0.0274 -0.3859
 1989TIP3    H127526   3.869   2.929   1.054  1.3589 -2.6838  1.6667
 1989TIP3    H227527   3.867   2.915   0.903  0.8688  2.1051  1.0635
 1990TIP3   OH227528   0.531   6.082   8.332 -0.4993  0.1054  0.1547
 1990TIP3    H127529   0.455   6.054   8.383 -0.4753  2.1504  1.3831
 1990TIP3    H227530   0.534   6.177   8.342  2.6747  0.0406  0.8113
 1991TIP3   OH227531   6.020   2.382   1.746  0.4329  0.0560 -0.6471
 1991TIP3    H127532   6.002   2.295   1.710 -0.3846  0.3186 -0.8891
 1991TIP3    H227533   6.085   2.366   1.815 -1.1877 -1.0332  0.7132
 1992TIP3   OH227534   5.538   6.533   7.457 -0.4328 -0.1193 -0.0056
 1992TIP3    H127535   5.495   6.613   7.426 -1.0823 -0.7891 -0.9154
 1992TIP3    H227536   5.631   6.553   7.454 -0.6102  0.8331  0.4435
 1993TIP3   OH227537   4.659   2.657   2.214 -0.1241 -0.6499  0.1208
 1993TIP3    H127538   4.564   2.641   2.212 -0.1652 -1.4413  3.2311
 1993TIP3    H227539   4.697   2.569   2.214  0.4111 -0.4580  1.7694
 1994TIP3   OH227540   1.512   6.196   7.099 -0.0550 -0.3507  0.0852
 1994TIP3    H127541   1.555   6.188   7.014  0.4664  4.1432 -0.3320
 1994TIP3    H227542   1.567   6.147   7.159  0.1600 -2.7510 -1.9121
 1995TIP3   OH227543   1.873   4.906   1.881 -0.3412  0.0080  0.2110
 1995TIP3    H127544   1.883   4.846   1.955  0.9516 -1.7185 -1.3069
 1995TIP3    H227545   1.854   4.850   1.806 -1.3556  1.7053 -0.8726
 1996TIP3   OH227546   3.375   6.234   0.486  0.0035 -0.0002  0.0116
 1996TIP3    H127547   3.395   6.265   0.398 -0.0377 -0.1938 -0.0673
 1996TIP3    H227548   3.285   6.263   0.502 -1.0728 -2.3467 -1.1216
 1997TIP3   OH227549   5.006   3.730   6.934  0.2637 -0.6684  0.2172
 1997TIP3    H127550   5.099   3.750   6.922 -0.1087  0.1482 -1.6775
 1997TIP3    H227551   4.964   3.816   6.943 -0.3145 -1.0333  1.2165
 1998TIP3   OH227552   5.346   6.861   8.444  0.2704 -0.3448 -0.0027
 1998TIP3    H127553   5.288   6.864   8.520 -1.8756  0.8125 -1.5746
 1998TIP3    H227554   5.320   6.782   8.396  0.8681 -0.4791 -0.1253
 1999TIP3   OH227555   4.300   5.621   8.313 -0.4467 -0.1788 -0.5915
 1999TIP3    H127556   4.342   5.559   8.253 -2.1103 -0.1827 -1.8205
 1999TIP3    H227557   4.284   5.571   8.392  0.7173 -0.5115 -0.5380
 2000TIP3   OH227558   2.389   1.418   1.394  0.1375  0.5904  0.4561
 2000TIP3    H127559   2.430   1.504   1.384 -0.3252  0.6848 -0.8447
 2000TIP3    H227560   2.303   1.436   1.431  0.6835  0.5108  1.8403
 2001TIP3   OH227561   0.935   5.868   1.795 -0.1824  0.2684  0.4372
 2001TIP3    H127562   1.025   5.900   1.794 -0.1399  0.2168 -1.2272
 2001TIP3    H227563   0.914   5.857   1.887  0.5078  3.0911  1.0164
 2002TIP3   OH227564   5.662   5.977   8.219 -0.6076  0.2456 -0.5516
 2002TIP3    H127565   5.692   5.973   8.128  1.5487  0.4663  0.0784
 2002TIP3    H227566   5.723   5.921   8.267  0.0797  2.2883  1.1443
 2003TIP3   OH227567   1.073   1.952   0.651  0.6204  0.1554 -0.4656
 2003TIP3    H127568   1.064   1.957   0.555  0.0552  2.2375 -0.3668
 2003TIP3    H227569   1.009   1.888   0.678 -1.2151  1.5324 -1.3106
 2004TIP3   OH227570   0.829   0.780   2.381 -0.8100 -0.0007  0.1763
 2004TIP3    H127571   0.757   0.745   2.433 -0.4758  1.6814  1.8562
 2004TIP3    H227572   0.898   0.799   2.444  0.3184  0.4141 -1.1200
 2005TIP3   OH227573   0.536   4.908   0.215  0.1938  0.1496 -0.2894
 2005TIP3    H127574   0.591   4.943   0.144  1.9132 -0.8629  0.4842
 2005TIP3    H227575   0.473   4.852   0.170  1.1311 -0.3199 -1.0602
 2006TIP3   OH227576   1.676   4.019   8.301  0.1938  0.0345  0.0680
 2006TIP3    H127577   1.670   4.014   8.397 -1.1168  1.5033  0.0964
 2006TIP3    H227578   1.589   3.994   8.270  1.1215 -2.2907 -0.8888
 2007TIP3   OH227579   1.528   4.546   1.184  0.1459 -0.3422  0.2595
 2007TIP3    H127580   1.587   4.555   1.259 -0.1255  0.8563  0.3434
 2007TIP3    H227581   1.585   4.535   1.109  0.4367 -0.7313  0.5316
 2008TIP3   OH227582   4.831   6.437   8.236 -0.1801  0.6893 -0.4935
 2008TIP3    H127583   4.824   6.342   8.232 -0.2665  0.6100  0.9098
 2008TIP3    H227584   4.910   6.458   8.186  0.1329 -0.1656 -0.3710
 2009TIP3   OH227585   4.962   3.181   7.188 -0.1223 -0.6719  0.4840
 2009TIP3    H127586   4.935   3.258   7.238  1.7538  0.6605 -0.4542
 2009TIP3    H227587   4.885   3.159   7.134 -1.3578 -0.7286  2.1790
 2010TIP3   OH227588   6.611   5.486   0.912  0.1252 -0.4154 -0.2573
 2010TIP3    H127589   6.645   5.490   0.822  1.7010  3.4128  0.2774
 2010TIP3    H227590   6.520   5.516   0.904  0.3080  0.0793 -0.6056
 2011TIP3   OH227591   0.238   0.749   7.839  0.0152 -0.1173 -0.4017
 2011TIP3    H127592   0.245   0.689   7.765  0.7267 -0.9996  0.3490
 2011TIP3    H227593   0.146   0.746   7.864 -0.3238  0.5476 -1.5244
 2012TIP3   OH227594   5.025   2.726   2.128  0.7385 -0.1207 -0.0935
 2012TIP3    H127595   5.062   2.717   2.216  0.2825  1.5045  0.3012
 2012TIP3    H227596   4.992   2.639   2.107  2.3692 -0.9664  0.6276
 2013TIP3   OH227597   0.707   4.304   7.037  0.2745 -0.1447  0.0418
 2013TIP3    H127598   0.750   4.223   7.063 -0.9314 -0.9523 -0.3848
 2013TIP3    H227599   0.625   4.305   7.086  0.6527  1.2825  0.7186
 2014TIP3   OH227600   6.725   4.511   7.759 -0.1169 -0.2344  0.3014
 2014TIP3    H127601   6.673   4.586   7.790 -1.5897 -1.1453  0.1369
 2014TIP3    H227602   6.769   4.478   7.837  0.2911  0.5937  0.4346
 2015TIP3   OH227603   1.632   0.001   1.024  0.7066  0.3325  0.1060
 2015TIP3    H127604   1.673   0.032   0.944  0.4474  0.3664 -0.0169
 2015TIP3    H227605   1.655  -0.092   1.028  0.5328  0.2776 -0.1278
 2016TIP3   OH227606   6.356   5.301   0.068  0.1565 -0.2884  0.4869
 2016TIP3    H127607   6.444   5.271   0.045 -0.2053 -0.3056 -0.9877
 2016TIP3    H227608   6.350   5.288   0.163  2.3478  1.2930  0.9402
 2017TIP3   OH227609   6.786   4.924   1.580  0.0115  0.3375 -0.1549
 2017TIP3    H127610   6.833   4.988   1.526 -0.4463 -0.1622 -1.1698
 2017TIP3    H227611   6.696   4.956   1.584  0.1687  0.7058  0.8686
 2018TIP3   OH227612   5.742   2.033   6.888 -0.3813 -0.3199  0.4549
 2018TIP3    H127613   5.661   2.077   6.865  0.0330 -0.0627 -0.6043
 2018TIP3    H227614   5.744   1.955   6.831  0.3269 -0.0697  0.1196
 2019TIP3   OH227615   0.855   3.024   1.477  0.4153 -0.1653  0.2552
 2019TIP3    H127616   0.813   3.110   1.477 -0.3155 -0.4904  1.2334
 2019TIP3    H227617   0.801   2.971   1.418  1.2937  0.2204 -0.9247
 2020TIP3   OH227618   3.398   6.304   0.750 -0.6336 -0.0194  0.0953
 2020TIP3    H127619   3.471   6.288   0.690 -0.5661 -0.3733  0.2645
 2020TIP3    H227620   3.321   6.270   0.705 -0.9006  1.4351 -0.5928
 2021TIP3   OH227621   1.047   4.924   1.471 -0.4116  0.5023  0.1088
 2021TIP3    H127622   1.058   5.004   1.522  1.7679 -1.9968  4.0726
 2021TIP3    H227623   1.135   4.900   1.445 -0.5698 -2.0420  1.6214
 2022TIP3   OH227624   2.134   1.365   7.190 -0.3503  0.0061 -0.1953
 2022TIP3    H127625   2.152   1.306   7.117  0.9619 -0.1910  0.2601
 2022TIP3    H227626   2.111   1.307   7.263  0.2456  0.0739  0.0584
 2023TIP3   OH227627   2.824   3.170   8.349  0.4520  0.1715  0.1922
 2023TIP3    H127628   2.784   3.228   8.414  0.6576  1.0361 -0.4377
 2023TIP3    H227629   2.829   3.085   8.394 -0.4086  0.4757  0.9169
 2024TIP3   OH227630   4.649   2.510   8.345 -0.5789 -0.4612  0.7618
 2024TIP3    H127631   4.656   2.506   8.440  1.4701 -0.3782  0.6594
 2024TIP3    H227632   4.669   2.420   8.316 -0.2806 -0.2785  0.3898
 2025TIP3   OH227633   5.585   5.906   1.160 -0.6439 -0.1078 -0.2948
 2025TIP3    H127634   5.614   5.994   1.137 -1.2041  0.1602 -0.0058
 2025TIP3    H227635   5.562   5.911   1.253 -1.2499 -0.3912 -0.4195
 2026TIP3   OH227636   5.269   2.857   7.296 -0.4911  0.1078 -0.2204
 2026TIP3    H127637   5.207   2.903   7.239 -0.8318 -0.7601 -0.5694
 2026TIP3    H227638   5.355   2.884   7.263 -0.6531  1.7203  0.5936
 2027TIP3   OH227639   0.663   3.518   2.137 -0.0329 -0.2175 -0.0095
 2027TIP3    H127640   0.572   3.526   2.165  0.3212  0.9505  0.8928
 2027TIP3    H227641   0.708   3.482   2.213  0.4286  0.1569 -0.1001
 2028TIP3   OH227642   0.711   4.719   8.052  0.0944  0.2983 -0.5523
 2028TIP3    H127643   0.767   4.646   8.025 -0.6725 -0.7736  0.6688
 2028TIP3    H227644   0.695   4.767   7.971 -1.1355 -2.1167 -1.8453
 2029TIP3   OH227645   5.311   4.432   0.214  0.1281  0.0376  0.3590
 2029TIP3    H127646   5.339   4.360   0.271 -1.4327 -0.3013  0.7582
 2029TIP3    H227647   5.216   4.435   0.225  0.0174  1.2841 -0.7080
 2030TIP3   OH227648   3.139   5.497   0.289 -0.0517 -0.3130 -0.3158
 2030TIP3    H127649   3.054   5.504   0.245 -0.2340 -1.8240 -0.2543
 2030TIP3    H227650   3.202   5.522   0.221 -0.4888  0.0000 -0.6171
 2031TIP3   OH227651   3.137   5.210   2.439  0.0304  0.0368  0.1876
 2031TIP3    H127652   3.102   5.297   2.459  0.2611 -0.0494  1.0477
 2031TIP3    H227653   3.174   5.181   2.523 -2.1565 -1.8865  0.5749
 2032TIP3   OH227654   4.355   2.308   7.438 -0.1714  0.2438 -0.1682
 2032TIP3    H127655   4.332   2.344   7.352  0.0934 -0.6667 -0.6256
 2032TIP3    H227656   4.383   2.385   7.489 -0.9783  0.8903 -0.6676
 2033TIP3   OH227657   3.457   1.345   1.678  0.0938 -0.2191  0.3623
 2033TIP3    H127658   3.437   1.389   1.761  2.0497  3.1839 -0.7320
 2033TIP3    H227659   3.545   1.376   1.656  0.9446 -3.5498 -1.4872
 2034TIP3   OH227660   0.162   5.557   0.118 -0.1057  0.2351 -0.4763
 2034TIP3    H127661   0.195   5.492   0.057  1.1863 -0.4243  0.8685
 2034TIP3    H227662   0.067   5.553   0.108 -0.0289 -1.4739 -0.8187
 2035TIP3   OH227663   2.932   5.022   8.654 -0.0354 -0.0250  0.2001
 2035TIP3    H127664   2.924   5.032   8.749 -0.5348 -1.4415  0.3436
 2035TIP3    H227665   3.026   5.018   8.638  0.0440 -1.0530  0.8146
 2036TIP3   OH227666   3.039   0.920   0.564 -0.0777 -0.1694  0.4788
 2036TIP3    H127667   3.057   0.982   0.494  0.5445 -0.8109  0.0653
 2036TIP3    H227668   3.059   0.968   0.644 -1.4523  0.8021  0.2850
 2037TIP3   OH227669   1.428   4.694   6.516  0.2322  0.1659 -0.0108
 2037TIP3    H127670   1.436   4.789   6.501 -0.6928  0.0991 -1.1075
 2037TIP3    H227671   1.449   4.655   6.431 -0.2413 -0.5707  0.2029
 2038TIP3   OH227672   4.610   1.357   8.117 -0.1700  0.4146  0.3160
 2038TIP3    H127673   4.515   1.346   8.124 -0.6245  3.6717  1.2167
 2038TIP3    H227674   4.646   1.309   8.191 -1.4180  1.3667  1.5964
 2039TIP3   OH227675   2.535   3.509   0.337  0.6343  0.2476 -0.7373
 2039TIP3    H127676   2.607   3.450   0.357 -0.3177 -0.8102 -0.3491
 2039TIP3    H227677   2.482   3.511   0.416  0.4533  1.3566 -0.8644
 2040TIP3   OH227678   3.275   5.979   1.030 -0.1921  0.1526 -0.3825
 2040TIP3    H127679   3.343   5.915   1.054 -1.1288 -0.7625 -0.1222
 2040TIP3    H227680   3.225   5.992   1.111 -0.1392  1.0795 -0.4884
 2041TIP3   OH227681   5.060   6.124   8.395 -0.3637  0.5719 -0.6805
 2041TIP3    H127682   4.997   6.117   8.323 -2.9961  2.3953  1.2560
 2041TIP3    H227683   5.045   6.046   8.448  0.0268  0.2926 -0.9849
 2042TIP3   OH227684   2.636   0.303   1.610 -0.0832 -0.0070  0.3211
 2042TIP3    H127685   2.673   0.257   1.534  0.5595  0.2820  0.4512
 2042TIP3    H227686   2.709   0.355   1.644 -0.8630  1.3528 -0.0139
 2043TIP3   OH227687   4.746   1.482   2.475 -0.2114 -0.5199 -0.3095
 2043TIP3    H127688   4.688   1.538   2.527 -0.1366 -0.3421 -0.4164
 2043TIP3    H227689   4.829   1.484   2.523  0.1549  0.4424 -0.9544
 2044TIP3   OH227690   0.541   5.842   2.636 -0.3570  0.3828 -0.4587
 2044TIP3    H127691   0.633   5.814   2.635 -1.0278 -2.5319  2.5771
 2044TIP3    H227692   0.541   5.926   2.591  3.2647 -0.8723 -3.2627
 2045TIP3   OH227693   6.001   5.551   0.229 -0.2309 -0.3235 -0.0232
 2045TIP3    H127694   6.055   5.479   0.262 -1.8062 -2.0005 -0.8531
 2045TIP3    H227695   5.972   5.598   0.307  0.5428 -0.8171  0.5743
 2046TIP3   OH227696   0.395   0.565   7.057 -0.6115  0.3002  0.4914
 2046TIP3    H127697   0.347   0.601   7.133  0.0990  1.7536  0.2919
 2046TIP3    H227698   0.364   0.618   6.983 -1.4251 -1.2171 -0.3053
 2047TIP3   OH227699   5.009   4.778   8.102 -0.2822 -0.9310 -0.3499
 2047TIP3    H127700   4.974   4.861   8.136  0.0528 -1.1705  0.5969
 2047TIP3    H227701   5.073   4.805   8.036 -0.8910 -0.4597 -0.7672
 2048TIP3   OH227702   3.112   6.685   7.942 -0.2679  0.1321  0.6629
 2048TIP3    H127703   3.102   6.698   8.036  0.2914  0.1766  0.7180
 2048TIP3    H227704   3.206   6.674   7.928 -0.3968 -0.4155  0.1741
 2049TIP3   OH227705   0.232   3.839   2.296  0.1457 -0.1219  0.1768
 2049TIP3    H127706   0.292   3.863   2.226  0.0538  0.0175  0.1456
 2049TIP3    H227707   0.155   3.893   2.281  0.3596  0.3396  0.7313
 2050TIP3   OH227708   0.739   4.373   1.918 -0.1469 -0.2611  0.1841
 2050TIP3    H127709   0.681   4.386   1.843 -0.1420  0.2150  0.2605
 2050TIP3    H227710   0.689   4.406   1.993  0.1168 -0.0934  0.2871
 2051TIP3   OH227711   3.386   1.671   0.743  0.0189  0.5137 -0.2480
 2051TIP3    H127712   3.381   1.668   0.838 -0.0843  1.4086 -0.2162
 2051TIP3    H227713   3.295   1.673   0.713  0.0516  0.5770 -0.3469
 2052TIP3   OH227714   1.738   4.578   0.972  0.2017  0.0701 -0.0426
 2052TIP3    H127715   1.809   4.516   0.987 -0.1288 -0.9013 -2.0877
 2052TIP3    H227716   1.711   4.562   0.881 -2.5143  0.4999  0.5960
 2053TIP3   OH227717   6.407   0.595   1.705  0.2206  0.6742  0.4393
 2053TIP3    H127718   6.375   0.666   1.649  1.6480  2.0914  1.3386
 2053TIP3    H227719   6.474   0.551   1.652 -0.0642  0.5428  0.1892
 2054TIP3   OH227720   4.780   6.231   1.425  0.7337  0.0258 -0.6103
 2054TIP3    H127721   4.770   6.138   1.407 -1.1941  0.0925 -0.0398
 2054TIP3    H227722   4.743   6.275   1.348  0.2444  0.3133 -0.2163
 2055TIP3   OH227723   1.475   6.295   2.921  0.1186 -0.0778 -1.1370
 2055TIP3    H127724   1.394   6.328   2.880 -2.0069 -1.6074  1.4659
 2055TIP3    H227725   1.499   6.219   2.869 -1.5543 -1.0062 -0.6313
 2056TIP3   OH227726   5.213   2.646   8.212 -0.3655  0.6171 -0.2831
 2056TIP3    H127727   5.167   2.616   8.134  0.1052 -4.1725  0.9173
 2056TIP3    H227728   5.305   2.649   8.187 -0.4882  2.2753 -0.6404
 2057TIP3   OH227729   0.389   3.893   2.074 -0.3514  0.5133 -0.5782
 2057TIP3    H127730   0.419   3.976   2.111 -1.8553  0.6791  0.3244
 2057TIP3    H227731   0.430   3.889   1.987  0.0851  1.9804 -0.4594
 2058TIP3   OH227732   3.453   5.023   7.594 -0.0234 -0.5116  0.3519
 2058TIP3    H127733   3.491   5.077   7.525 -0.2749  0.4427  0.9530
 2058TIP3    H227734   3.419   4.946   7.547 -0.5449  0.3066 -0.6505
 2059TIP3   OH227735   0.724   2.190   7.996 -0.2694 -0.1390 -0.0381
 2059TIP3    H127736   0.751   2.271   7.953  1.5952  1.1332  3.1400
 2059TIP3    H227737   0.793   2.128   7.975  3.1597  1.7287  4.1554
 2060TIP3   OH227738   0.277   4.460   2.902 -0.0771  0.2903  0.3566
 2060TIP3    H127739   0.203   4.434   2.957 -0.3482  0.2305 -0.0297
 2060TIP3    H227740   0.332   4.382   2.896  0.4958  0.6024  1.3962
 2061TIP3   OH227741   3.688   2.120   7.767 -0.3593  0.5703 -0.1235
 2061TIP3    H127742   3.636   2.139   7.689  0.1081 -0.1311 -0.6115
 2061TIP3    H227743   3.778   2.117   7.735 -0.1498  0.4471  0.4742
 2062TIP3   OH227744   0.031   4.277   0.628 -0.3917  0.2228 -0.1195
 2062TIP3    H127745   0.088   4.352   0.615  0.5806 -0.3364  0.8183
 2062TIP3    H227746   0.073   4.226   0.697 -1.8718 -0.3582  0.3989
 2063TIP3   OH227747   3.820   3.287   1.376 -0.0884  0.5414 -0.8391
 2063TIP3    H127748   3.816   3.376   1.341  0.1792  1.1192  0.5465
 2063TIP3    H227749   3.729   3.257   1.376 -0.1053  0.5600 -1.9164
 2064TIP3   OH227750   4.537   5.553   7.525  0.3784  0.4022  0.3262
 2064TIP3    H127751   4.628   5.577   7.540  0.3248  1.1137 -0.4126
 2064TIP3    H227752   4.494   5.635   7.501 -0.0532 -0.1947 -1.0941
 2065TIP3   OH227753   3.167   3.393   1.763 -0.0935  0.2765 -0.4079
 2065TIP3    H127754   3.163   3.300   1.739  0.4273  0.4743 -1.3088
 2065TIP3    H227755   3.230   3.431   1.702 -0.4209  1.2622 -0.1535
 2066TIP3   OH227756   1.388   5.791   0.160 -0.3541  0.5826  0.0090
 2066TIP3    H127757   1.470   5.742   0.151 -1.1601 -0.6784 -0.9217
 2066TIP3    H227758   1.407   5.859   0.224  1.3348  0.1422  0.0177
 2067TIP3   OH227759   3.283   4.989   0.205  1.1975  0.7498 -0.2037
 2067TIP3    H127760   3.254   5.070   0.246 -1.4022 -0.2574  0.1493
 2067TIP3    H227761   3.296   4.928   0.278  0.6715  0.1670 -0.5757
 2068TIP3   OH227762   3.682   1.852   1.343  0.4077 -0.2388 -0.1063
 2068TIP3    H127763   3.677   1.821   1.433  0.3431  2.3378  0.8558
 2068TIP3    H227764   3.590   1.859   1.315  0.3800  0.2302  0.1018
 2069TIP3   OH227765   1.414   3.353   0.173 -0.0516  0.5948  0.1415
 2069TIP3    H127766   1.437   3.427   0.117 -1.7890  0.3050 -1.0193
 2069TIP3    H227767   1.319   3.346   0.166 -0.0989 -0.6866  1.5987
 2070TIP3   OH227768   1.725   2.661   1.164 -0.9711 -0.5026  0.0310
 2070TIP3    H127769   1.698   2.748   1.192 -0.4333 -0.4239  0.3173
 2070TIP3    H227770   1.720   2.607   1.243  0.2995 -0.3376  0.2509
 2071TIP3   OH227771   5.865   2.555   0.991 -0.0207 -0.0620  0.0102
 2071TIP3    H127772   5.866   2.565   1.086  0.1558  0.2364 -0.0215
 2071TIP3    H227773   5.898   2.467   0.976 -1.6700 -0.7666  0.3005
 2072TIP3   OH227774   0.712   4.672   1.699  0.2355 -0.8246  0.5175
 2072TIP3    H127775   0.732   4.732   1.771 -1.4393  1.2168 -0.5828
 2072TIP3    H227776   0.795   4.662   1.652  0.3748  1.6692  0.0751
 2073TIP3   OH227777   4.028   5.916   7.930 -0.0187  0.0038  0.0142
 2073TIP3    H127778   4.036   5.825   7.900 -1.8365 -0.8263  1.8243
 2073TIP3    H227779   3.934   5.933   7.929  0.2327  1.5934  0.5595
 2074TIP3   OH227780   0.661   1.376   0.854  0.1110  0.0653  0.1513
 2074TIP3    H127781   0.615   1.435   0.914 -0.5055 -0.0275 -0.2305
 2074TIP3    H227782   0.740   1.350   0.903 -0.9628 -0.9600  1.4208
 2075TIP3   OH227783   2.078   0.911   8.502  0.0323  0.3103 -0.9698
 2075TIP3    H127784   2.023   0.983   8.532 -0.6437 -0.5993  0.0360
 2075TIP3    H227785   2.159   0.953   8.473 -0.3761  1.4728 -0.4588
 2076TIP3   OH227786   2.848   3.876   1.402 -0.3582  0.4779 -0.0474
 2076TIP3    H127787   2.902   3.949   1.371 -0.5721  1.1030  1.0073
 2076TIP3    H227788   2.777   3.917   1.450 -0.4613 -0.4241  0.6007
 2077TIP3   OH227789   1.049   6.697   7.892 -0.2160  0.2787  1.4681
 2077TIP3    H127790   0.954   6.690   7.882 -0.6322 -0.2228  4.6686
 2077TIP3    H227791   1.079   6.606   7.900  0.3704  0.4777  1.5585
 2078TIP3   OH227792   5.751   4.606   2.818  0.7476  0.3719 -0.0540
 2078TIP3    H127793   5.804   4.568   2.748  2.0157  0.0774  1.0235
 2078TIP3    H227794   5.663   4.610   2.782  1.1309 -0.9345 -1.2136
 2079TIP3   OH227795   5.870   3.667   8.224  0.4223  0.5036  0.6209
 2079TIP3    H127796   5.934   3.632   8.161 -1.2454  1.1144 -1.5294
 2079TIP3    H227797   5.923   3.718   8.285  2.2957 -1.3975  0.7115
 2080TIP3   OH227798   1.062   3.679   8.278  0.1091 -0.3427 -0.5594
 2080TIP3    H127799   1.109   3.627   8.213 -1.6134 -0.1365 -2.0698
 2080TIP3    H227800   1.097   3.767   8.268 -0.3097 -0.2639 -1.3998
 2081TIP3   OH227801   6.817   6.121   7.804  0.1577  0.0643 -0.0554
 2081TIP3    H127802   6.854   6.033   7.795 -0.9015 -0.2705 -1.4341
 2081TIP3    H227803   6.893   6.179   7.802  0.7349 -0.6629 -2.0033
 2082TIP3   OH227804   6.800   1.545   6.773  0.2753  0.5152  0.3839
 2082TIP3    H127805   6.779   1.610   6.840 -0.8336  0.9748 -0.3908
 2082TIP3    H227806   6.849   1.594   6.707 -0.1466  0.4679  0.0304
 2083TIP3   OH227807   0.625   5.514   8.256 -0.1413 -0.1476  0.4585
 2083TIP3    H127808   0.597   5.584   8.315  0.8760  0.8596 -0.2137
 2083TIP3    H227809   0.560   5.514   8.186  0.1932  0.5758  0.1331
 2084TIP3   OH227810   4.224   4.007   7.659 -0.2612  0.9847  0.1100
 2084TIP3    H127811   4.235   4.001   7.754 -0.2158 -0.1303  0.0444
 2084TIP3    H227812   4.313   4.003   7.624 -0.3724 -0.2524 -0.0508
 2085TIP3   OH227813   5.033   4.184   6.715 -0.0758 -0.1477 -0.2746
 2085TIP3    H127814   5.009   4.124   6.645  1.0157  1.3920 -2.0330
 2085TIP3    H227815   5.109   4.143   6.756 -0.7431 -1.0727  0.0659
 2086TIP3   OH227816   0.955   3.386   3.136  0.2128 -0.3510  0.5242
 2086TIP3    H127817   0.883   3.331   3.167  0.9900 -2.1148 -0.6699
 2086TIP3    H227818   1.026   3.371   3.199  0.6170 -1.1975 -0.1171
 2087TIP3   OH227819   2.901   6.084   2.302  0.3103  0.2692  0.1422
 2087TIP3    H127820   2.873   6.009   2.356 -1.5117 -0.3160 -1.4847
 2087TIP3    H227821   2.822   6.137   2.293  0.0270 -0.5201 -3.2320
 2088TIP3   OH227822   0.438   1.250   1.120 -0.1514  0.1722  0.2490
 2088TIP3    H127823   0.503   1.220   1.183 -0.3434  1.5944  1.1761
 2088TIP3    H227824   0.354   1.237   1.163 -0.4224 -0.6260 -0.4986
 2089TIP3   OH227825   6.714   3.331   2.953  0.2922 -0.1338  0.0274
 2089TIP3    H127826   6.630   3.374   2.941  0.8563  1.4671  1.3167
 2089TIP3    H227827   6.693   3.248   2.995 -0.8579 -1.4160 -2.8144
 2090TIP3   OH227828   2.468   5.454   0.934 -0.1602 -0.2201  0.3124
 2090TIP3    H127829   2.422   5.394   0.876 -1.9590  1.2986  0.0721
 2090TIP3    H227830   2.496   5.400   1.007 -0.3294 -1.6334 -0.6176
 2091TIP3   OH227831   1.733   1.911   0.531  0.8160 -0.1242  0.0841
 2091TIP3    H127832   1.643   1.880   0.518  0.6433  0.9261 -1.4513
 2091TIP3    H227833   1.724   1.983   0.594  0.3099  1.0759 -1.2983
 2092TIP3   OH227834   4.367   2.719   1.085  0.2999 -0.1647 -0.3676
 2092TIP3    H127835   4.317   2.638   1.085 -1.6460  0.9747 -1.2183
 2092TIP3    H227836   4.311   2.783   1.041  0.8032  2.2368  2.1842
 2093TIP3   OH227837   2.183   4.232   1.026  0.3087  0.2868 -0.0786
 2093TIP3    H127838   2.224   4.197   0.947  2.2742  1.6911  0.2434
 2093TIP3    H227839   2.253   4.232   1.091 -1.4010 -1.3556  1.8791
 2094TIP3   OH227840   5.153   4.203   0.922  0.3833 -0.5480 -0.2252
 2094TIP3    H127841   5.168   4.241   1.009  1.2010  1.1216 -1.0327
 2094TIP3    H227842   5.083   4.139   0.934  0.2830 -0.1289  1.5970
 2095TIP3   OH227843   2.396   2.514   0.343 -0.0970 -0.2052  0.6867
 2095TIP3    H127844   2.312   2.532   0.302  0.7529  1.0105 -0.6138
 2095TIP3    H227845   2.405   2.418   0.340 -0.0904 -0.1907 -2.0357
 2096TIP3   OH227846   2.144   0.107   0.581 -0.1092 -0.0622  0.4627
 2096TIP3    H127847   2.111   0.196   0.590  1.6386  0.4802  2.4362
 2096TIP3    H227848   2.185   0.088   0.666  1.2882 -2.0098 -0.5526
 2097TIP3   OH227849   6.835   5.919   0.804  0.2345 -0.4292  0.0609
 2097TIP3    H127850   6.890   5.997   0.789  0.3238 -0.2982  0.9823
 2097TIP3    H227851   6.842   5.903   0.898  0.4803 -1.7543 -0.1623
 2098TIP3   OH227852   3.213   3.511   1.990 -0.2062 -0.3080  0.4810
 2098TIP3    H127853   3.210   3.446   1.920 -1.6722 -0.3038  0.5170
 2098TIP3    H227854   3.233   3.594   1.945 -1.9824 -0.1527 -0.0811
 2099TIP3   OH227855   5.592   4.427   2.363  0.1770 -0.0139  0.7498
 2099TIP3    H127856   5.585   4.523   2.364 -0.6511 -0.0617  1.8067
 2099TIP3    H227857   5.568   4.402   2.274  1.1076  0.8001  0.2607
 2100TIP3   OH227858   2.316   0.164   2.698  0.0497  0.2153 -0.0419
 2100TIP3    H127859   2.398   0.207   2.671 -0.6721  1.4346 -0.3549
 2100TIP3    H227860   2.325   0.075   2.666  0.7625  0.6484 -1.1266
 2101TIP3   OH227861   5.679   3.468   2.587 -0.3181 -0.2270  0.2415
 2101TIP3    H127862   5.761   3.454   2.635 -2.1321 -0.4143  3.6063
 2101TIP3    H227863   5.706   3.477   2.496  3.4519 -0.0242  1.1926
 2102TIP3   OH227864   4.151   6.555   8.198 -0.0786  0.0482  0.5366
 2102TIP3    H127865   4.069   6.507   8.213  0.0095 -0.2357  0.1324
 2102TIP3    H227866   4.130   6.645   8.222  0.0303 -0.3385  2.2522
 2103TIP3   OH227867   6.255   5.403   1.024 -0.1590 -0.2950 -0.0847
 2103TIP3    H127868   6.164   5.415   1.052 -0.3644 -1.4038 -0.2009
 2103TIP3    H227869   6.307   5.424   1.102 -0.4410  1.2513 -0.2794
 2104TIP3   OH227870   2.837   2.208   8.576 -0.3514  0.1864  0.0334
 2104TIP3    H127871   2.766   2.228   8.638 -0.7395  1.2311 -0.7174
 2104TIP3    H227872   2.872   2.294   8.552  2.1970 -0.3287  1.5208
 2105TIP3   OH227873   6.819   0.732   2.386  0.3918  0.0883  0.0779
 2105TIP3    H127874   6.827   0.737   2.291  0.7127 -2.3118 -0.0787
 2105TIP3    H227875   6.752   0.666   2.402 -0.5364  1.3197  1.5446
 2106TIP3   OH227876   0.877   6.824   8.607 -0.1196  0.6777  0.0409
 2106TIP3    H127877   0.931   6.829   8.528 -0.0805 -1.1542 -0.0875
 2106TIP3    H227878   0.939   6.807   8.678 -0.3189  0.6221  0.2021
 2107TIP3   OH227879   6.048   4.967   0.391  0.4817 -0.4710 -0.1888
 2107TIP3    H127880   5.991   5.012   0.453 -0.6053 -1.2843 -0.5680
 2107TIP3    H227881   6.053   5.026   0.316  1.0285  0.0849  0.2739
 2108TIP3   OH227882   1.415   3.251   8.288  0.5426 -0.1178 -0.0162
 2108TIP3    H127883   1.510   3.261   8.294  0.3676  1.3328  0.6213
 2108TIP3    H227884   1.383   3.336   8.257 -0.5418 -0.6250 -0.3562
 2109TIP3   OH227885   0.006   4.019   7.353 -0.0012  0.4182  0.3894
 2109TIP3    H127886  -0.048   4.009   7.274 -1.5991 -2.4125  1.7112
 2109TIP3    H227887   0.096   4.008   7.322 -0.2598  2.5831 -1.4531
 2110TIP3   OH227888   3.824   6.527   8.285  0.2130  0.1618  0.2525
 2110TIP3    H127889   3.751   6.556   8.230  0.4416 -0.4343 -0.3777
 2110TIP3    H227890   3.857   6.607   8.326  0.4246  0.7030 -0.9500
 2111TIP3   OH227891   1.900   1.464   2.549  0.6218 -0.2901 -0.1931
 2111TIP3    H127892   1.915   1.462   2.644 -1.3351 -2.4025  0.1405
 2111TIP3    H227893   1.854   1.546   2.534 -0.8317 -0.8465  1.0315
 2112TIP3   OH227894   4.243   5.465   7.347  0.1049 -0.1901  0.1505
 2112TIP3    H127895   4.176   5.439   7.283 -1.0114 -0.5257  1.4081
 2112TIP3    H227896   4.265   5.384   7.393  0.4089  0.1636  0.6423
 2113TIP3   OH227897   1.876   2.972   2.209 -0.4901 -0.3402 -0.0605
 2113TIP3    H127898   1.870   2.887   2.252  1.6830 -0.2454  0.5244
 2113TIP3    H227899   1.906   3.031   2.278  2.1493 -0.0002 -1.3801
 2114TIP3   OH227900   5.390   4.783   1.012  0.3786  0.1271 -0.1033
 2114TIP3    H127901   5.299   4.792   1.041  0.0536 -2.4092 -0.1067
 2114TIP3    H227902   5.383   4.756   0.920  1.0567 -1.2891  0.2327
 2115TIP3   OH227903   3.031   2.953   0.356 -0.2064  0.3453 -0.5355
 2115TIP3    H127904   3.117   2.923   0.387 -0.7881  0.2129  1.0371
 2115TIP3    H227905   3.052   3.022   0.292  1.0805 -1.2655 -1.9550
 2116TIP3   OH227906   6.017   4.911   1.521  0.1227 -0.1205 -0.5278
 2116TIP3    H127907   6.061   4.836   1.561  0.9940  0.4010 -0.4710
 2116TIP3    H227908   5.924   4.895   1.535  0.3611 -0.3290  1.0704
 2117TIP3   OH227909   5.095   2.017   1.985 -0.2173 -0.0717  0.0349
 2117TIP3    H127910   5.122   2.106   2.009 -1.2218  0.6263 -1.2790
 2117TIP3    H227911   5.019   1.999   2.041 -0.5487  0.2514 -0.3056
 2118TIP3   OH227912   6.398   0.978   7.882  0.2065  0.0752  0.3036
 2118TIP3    H127913   6.357   1.030   7.813 -3.0287  0.0729  2.0118
 2118TIP3    H227914   6.388   0.887   7.853  1.2675  0.1449 -0.3553
 2119TIP3   OH227915   1.428   2.377   7.507  0.3035  0.0716 -0.1386
 2119TIP3    H127916   1.410   2.469   7.488  0.5373  0.1262 -0.0999
 2119TIP3    H227917   1.365   2.328   7.454 -0.5634  0.2808  0.6767
 2120TIP3   OH227918   4.888   6.557   2.185 -0.3852  0.2543  0.4037
 2120TIP3    H127919   4.867   6.650   2.183 -1.6326 -0.0205 -0.9568
 2120TIP3    H227920   4.982   6.553   2.167 -0.4716  1.2152 -0.3550
 2121TIP3   OH227921   2.444   2.831   6.789  0.5218  0.1411 -0.0050
 2121TIP3    H127922   2.411   2.780   6.863  0.6836  0.1464  0.0722
 2121TIP3    H227923   2.370   2.837   6.728  1.0865 -1.9848 -0.9987
 2122TIP3   OH227924   1.325   6.637   7.670  0.5802 -0.2440  0.3489
 2122TIP3    H127925   1.254   6.682   7.624  1.4293 -0.3341 -1.1199
 2122TIP3    H227926   1.311   6.658   7.762 -0.5464  0.8690 -0.0459
 2123TIP3   OH227927   2.304   6.822   1.475  0.8894  0.0871  0.0631
 2123TIP3    H127928   2.372   6.862   1.529  0.1760  0.5789  0.6070
 2123TIP3    H227929   2.300   6.731   1.505  1.0795  0.1402  0.2514
 2124TIP3   OH227930   6.091   6.387   8.347 -0.0902 -0.6801 -0.1384
 2124TIP3    H127931   6.060   6.382   8.257  0.7328  0.8489 -0.5360
 2124TIP3    H227932   6.030   6.332   8.397 -1.7700  0.0510 -1.3074
 2125TIP3   OH227933   0.236   2.034   1.658  0.3148 -0.3658  0.8631
 2125TIP3    H127934   0.227   2.096   1.729  0.7105  1.5191 -0.6546
 2125TIP3    H227935   0.164   1.972   1.671 -1.5615  1.7560  1.1607
 2126TIP3   OH227936   1.666   3.032   8.320  0.3218  0.7290 -0.1260
 2126TIP3    H127937   1.722   3.107   8.300  2.5603 -0.2180  2.1156
 2126TIP3    H227938   1.661   2.982   8.239  1.7333  1.4769 -0.6926
 2127TIP3   OH227939   6.859   3.549   0.836  0.6745 -0.0019 -0.1490
 2127TIP3    H127940   6.804   3.507   0.769  1.0122  2.1856 -1.9285
 2127TIP3    H227941   6.944   3.508   0.826 -0.0619 -2.0306  1.2932
 2128TIP3   OH227942   2.203   4.899   1.949 -0.0210 -0.0517 -0.2946
 2128TIP3    H127943   2.240   4.987   1.943  1.5596 -0.4754  1.9418
 2128TIP3    H227944   2.150   4.900   2.028  1.7010 -1.6119  0.9567
 2129TIP3   OH227945   3.351   4.386   7.146 -0.2495 -0.5695 -0.5026
 2129TIP3    H127946   3.339   4.350   7.058 -0.6228 -1.0518 -0.2561
 2129TIP3    H227947   3.341   4.481   7.134  0.5806 -0.5504 -1.1212
 2130TIP3   OH227948   6.078   1.895   7.282  0.3786  0.9752 -1.1473
 2130TIP3    H127949   6.085   1.806   7.316  0.0555  0.7360 -1.6846
 2130TIP3    H227950   6.017   1.887   7.208 -0.9062  1.9138 -0.2458
 2131TIP3   OH227951   5.603   5.613   8.141  0.1702  0.1019  0.1985
 2131TIP3    H127952   5.627   5.638   8.052 -1.2686  1.0387  0.0371
 2131TIP3    H227953   5.515   5.576   8.132  1.3972 -3.3440  0.7171
 2132TIP3   OH227954   0.710   2.743   0.495 -0.2611 -0.2856 -0.5557
 2132TIP3    H127955   0.718   2.650   0.474  1.7937 -0.1324 -0.7085
 2132TIP3    H227956   0.619   2.754   0.524 -0.7998 -2.1412 -1.4006
 2133TIP3   OH227957   5.845   5.946   8.462  0.3029 -0.0205 -0.4783
 2133TIP3    H127958   5.901   5.869   8.468 -0.0108 -0.1878  0.6390
 2133TIP3    H227959   5.774   5.928   8.524 -0.5872  0.5126 -1.3177
 2134TIP3   OH227960   0.402   2.040   6.939  0.5075 -0.2920 -0.6652
 2134TIP3    H127961   0.364   2.125   6.961 -0.2214 -1.1903  1.7949
 2134TIP3    H227962   0.328   1.989   6.904  0.3496 -0.7213  0.2756
 2135TIP3   OH227963   4.302   5.007   0.492  0.3422  0.1078 -0.0592
 2135TIP3    H127964   4.273   5.070   0.558  0.2770 -0.0021  0.0164
 2135TIP3    H227965   4.273   4.922   0.525  1.2854 -0.0838  0.3290
 2136TIP3   OH227966   0.224   5.125   2.731  0.3623  0.5506  0.3412
 2136TIP3    H127967   0.170   5.139   2.809  0.4824 -1.0827  0.7541
 2136TIP3    H227968   0.313   5.113   2.765  0.7234  1.5926 -0.2064
 2137TIP3   OH227969   3.068   3.382   2.207 -0.0776 -0.0338 -0.5950
 2137TIP3    H127970   3.103   3.458   2.160  1.7929 -1.0717 -0.9756
 2137TIP3    H227971   3.103   3.391   2.296 -3.1004  1.5915  0.5983
 2138TIP3   OH227972   1.902   5.444   7.835 -0.1046  0.6831  0.3828
 2138TIP3    H127973   1.865   5.377   7.777 -0.7891  2.3987 -1.2746
 2138TIP3    H227974   1.832   5.464   7.896  0.1963 -0.2740  1.0615
 2139TIP3   OH227975   5.080   2.030   1.210  0.4261  0.0129 -0.1268
 2139TIP3    H127976   5.043   1.965   1.150  1.6317 -1.2517  0.4481
 2139TIP3    H227977   5.024   2.027   1.287 -0.1836  0.4903 -0.5419
 2140TIP3   OH227978   2.253   3.961   2.163 -0.4773  0.0775  0.1712
 2140TIP3    H127979   2.298   3.981   2.245  1.5185  1.0449 -1.0617
 2140TIP3    H227980   2.251   3.865   2.159  3.2472 -0.1251 -0.4854
 2141TIP3   OH227981   2.513   5.063   2.936  0.4304  0.0215 -0.2918
 2141TIP3    H127982   2.552   4.976   2.942 -0.2875 -0.4141 -1.4837
 2141TIP3    H227983   2.473   5.065   2.849  0.1551  1.4288 -0.1542
 2142TIP3   OH227984   1.601   3.815   8.005  0.1929  0.4339  0.5203
 2142TIP3    H127985   1.577   3.750   7.939  1.0746 -0.1415  0.7464
 2142TIP3    H227986   1.671   3.773   8.056  0.3944  1.3475  1.0268
 2143TIP3   OH227987   3.802   0.775   0.366  0.1744  0.2801  0.1015
 2143TIP3    H127988   3.840   0.849   0.412 -1.6316  2.0729 -1.1604
 2143TIP3    H227989   3.723   0.809   0.324 -0.9173 -2.4274 -0.2877
 2144TIP3   OH227990   5.375   6.214   7.974  0.5073 -0.1442  0.3706
 2144TIP3    H127991   5.345   6.274   7.906  1.6677  0.7569  0.6275
 2144TIP3    H227992   5.326   6.133   7.958 -1.4752  1.0005  0.3299
 2145TIP3   OH227993   4.317   6.181   1.713  0.3363 -0.4278  0.0436
 2145TIP3    H127994   4.369   6.225   1.646 -1.6191  1.5674 -0.2898
 2145TIP3    H227995   4.378   6.167   1.785  0.9475  3.9153  0.6193
 2146TIP3   OH227996   3.116   3.404   7.151  0.1348  0.2219 -0.3244
 2146TIP3    H127997   3.147   3.371   7.067 -0.0334 -2.2640  0.5170
 2146TIP3    H227998   3.020   3.402   7.143  0.1225  0.6653 -0.3045
 2147TIP3   OH227999   3.476   2.452   1.753 -0.2275 -0.0701  0.3620
 2147TIP3    H128000   3.451   2.467   1.844 -1.3806 -0.4025  0.1113
 2147TIP3    H228001   3.393   2.446   1.705  0.3459 -0.4598 -0.6207
 2148TIP3   OH228002   6.344   0.064   1.140  0.2358 -0.6713 -0.0190
 2148TIP3    H128003   6.422   0.043   1.191 -0.2181 -1.2868  0.4437
 2148TIP3    H228004   6.304   0.137   1.188 -0.4192 -1.5280  0.7763
 2149TIP3   OH228005   1.963   1.196   2.108 -0.4182  0.2176  0.2890
 2149TIP3    H128006   2.010   1.248   2.043 -0.5301  0.4265  0.3758
 2149TIP3    H228007   1.916   1.260   2.161  1.3947  0.2406  1.9715
 2150TIP3   OH228008   5.365   4.554   7.714  0.0555 -0.7416 -0.6335
 2150TIP3    H128009   5.412   4.562   7.797 -1.5698 -0.5414  0.3002
 2150TIP3    H228010   5.410   4.482   7.668  1.8336  0.0426 -0.2083
 2151TIP3   OH228011   3.586   3.473   0.741 -0.2862  0.7116 -0.0949
 2151TIP3    H128012   3.567   3.537   0.672  1.6627  0.2773 -1.1136
 2151TIP3    H228013   3.673   3.498   0.773 -0.8194  0.4097  1.6866
 2152TIP3   OH228014   6.223   2.516   1.555  0.2017  0.4150  0.3872
 2152TIP3    H128015   6.140   2.500   1.600  1.2371 -1.2332  1.8354
 2152TIP3    H228016   6.245   2.607   1.579 -0.8108  0.6262  0.5823
 2153TIP3   OH228017   0.538   0.858   0.141 -0.0760  0.2696 -0.1287
 2153TIP3    H128018   0.460   0.873   0.194  0.7224  0.5207  1.0238
 2153TIP3    H228019   0.505   0.821   0.059 -1.2639 -1.8236  1.1898
 2154TIP3   OH228020   6.762   0.407   2.740 -0.0152  0.2118 -0.4632
 2154TIP3    H128021   6.826   0.373   2.678  1.0593 -0.1023  0.7892
 2154TIP3    H228022   6.709   0.331   2.764  0.3535  0.0772 -0.0717
 2155TIP3   OH228023   6.217   5.336   2.062  0.0853 -0.1327  0.4046
 2155TIP3    H128024   6.302   5.355   2.023  0.4017  0.4819  1.3741
 2155TIP3    H228025   6.216   5.386   2.143 -2.0135  1.5201 -0.5412
 2156TIP3   OH228026   0.863   4.846   2.151 -0.2955  0.2660  0.3184
 2156TIP3    H128027   0.793   4.905   2.179  1.0487  1.6738  0.8329
 2156TIP3    H228028   0.938   4.870   2.206  0.8858 -0.5225 -0.8932
 2157TIP3   OH228029   4.178   1.451   0.618  0.0414 -0.2344 -0.6145
 2157TIP3    H128030   4.093   1.483   0.590  0.7478  0.4095 -2.1184
 2157TIP3    H228031   4.166   1.429   0.711 -0.9458  2.8271  0.0997
 2158TIP3   OH228032   6.103   5.976   2.589  0.7839  0.2213 -0.3082
 2158TIP3    H128033   6.197   5.960   2.596  1.1709  2.7448  1.8705
 2158TIP3    H228034   6.090   6.059   2.634 -2.4464  0.2322 -1.0538
 2159TIP3   OH228035   4.070   1.914   1.880 -0.1801 -0.0314  1.1349
 2159TIP3    H128036   4.151   1.930   1.832 -0.3321  0.7838  1.1381
 2159TIP3    H228037   4.088   1.946   1.968 -1.1315  2.0413  0.6417
 2160TIP3   OH228038   3.278   4.602   0.722 -0.2627  0.1232  0.2170
 2160TIP3    H128039   3.221   4.547   0.775 -1.9702 -0.1186 -1.7824
 2160TIP3    H228040   3.231   4.685   0.714  0.0677  0.2275 -0.7238
 2161TIP3   OH228041   1.465   4.691   6.878 -0.3418 -0.0401  0.0223
 2161TIP3    H128042   1.509   4.623   6.929  0.3527  0.0201 -0.4806
 2161TIP3    H228043   1.526   4.764   6.878 -1.8117  1.3213  2.0941
 2162TIP3   OH228044   3.589   4.202   0.624 -0.0226  0.1323 -0.1663
 2162TIP3    H128045   3.642   4.278   0.600 -0.4061  0.2937 -0.5109
 2162TIP3    H228046   3.537   4.183   0.546  0.4914 -0.8503 -0.2927
 2163TIP3   OH228047   4.607   1.522   8.451  0.3541  0.4493  0.0697
 2163TIP3    H128048   4.617   1.430   8.424  1.3653  0.7242 -0.5532
 2163TIP3    H228049   4.513   1.539   8.445  0.0805 -0.7251  0.7985
 2164TIP3   OH228050   2.077   5.123   2.367  0.4780  0.0633 -0.5613
 2164TIP3    H128051   2.081   5.029   2.384 -0.1099  0.2620  0.8233
 2164TIP3    H228052   2.110   5.163   2.448 -1.8722  1.0773 -0.0288
 2165TIP3   OH228053   1.975   2.295   1.136  0.0067  0.3230 -0.1511
 2165TIP3    H128054   1.967   2.291   1.231 -0.6474 -1.0489 -0.2443
 2165TIP3    H228055   1.887   2.276   1.103  0.9366 -3.0364 -1.0492
 2166TIP3   OH228056   3.867   5.017   0.858  0.0632  0.0840 -0.5562
 2166TIP3    H128057   3.776   5.023   0.830  0.0711 -1.2437 -0.9258
 2166TIP3    H228058   3.863   4.972   0.942  0.4307 -0.7595 -0.9815
 2167TIP3   OH228059   6.055   0.164   8.551  0.0934 -0.5738 -0.2762
 2167TIP3    H128060   6.050   0.225   8.477  1.2763  1.6529  1.3433
 2167TIP3    H228061   5.964   0.151   8.578 -0.1675  1.2462 -0.1446
 2168TIP3   OH228062   4.964   1.357   7.183  0.0428  0.1266 -0.1135
 2168TIP3    H128063   4.941   1.268   7.157 -0.1424  1.0012 -3.5171
 2168TIP3    H228064   5.055   1.352   7.211  0.0164 -1.1573 -0.2381
 2169TIP3   OH228065   5.344   1.616   1.539  0.2495  0.2855  0.1751
 2169TIP3    H128066   5.381   1.532   1.567  0.0347 -0.5365 -1.8410
 2169TIP3    H228067   5.420   1.675   1.535  0.7156 -0.3256 -0.1921
 2170TIP3   OH228068   2.430   1.962   2.406  0.3087  0.0415 -0.2353
 2170TIP3    H128069   2.508   1.907   2.402 -0.9066 -2.3624  3.4129
 2170TIP3    H228070   2.452   2.031   2.469  0.0242  0.3525 -0.4692
 2171TIP3   OH228071   1.915   5.886   8.587 -0.3358 -0.2497  0.3503
 2171TIP3    H128072   1.884   5.931   8.508 -1.9212  1.2497  1.7412
 2171TIP3    H228073   1.867   5.928   8.659 -1.7751 -4.0500  1.8413
 2172TIP3   OH228074   5.581   4.240   0.770  0.1832  0.3735  0.0735
 2172TIP3    H128075   5.559   4.163   0.719 -0.0993  1.4185 -1.4398
 2172TIP3    H228076   5.621   4.205   0.850  0.5497 -1.3195 -0.8006
 2173TIP3   OH228077   3.357   0.172   0.078 -0.8448 -0.2641 -0.2285
 2173TIP3    H128078   3.410   0.161   0.157 -1.6070  0.3757  0.3957
 2173TIP3    H228079   3.334   0.082   0.052  0.6445 -0.5637 -0.6106
 2174TIP3   OH228080   2.702   4.173   0.729 -0.6143 -0.2401  0.1172
 2174TIP3    H128081   2.678   4.091   0.773 -1.2080  0.1832  0.6058
 2174TIP3    H228082   2.673   4.162   0.639 -0.8512 -0.5072  0.2240
 2175TIP3   OH228083   4.831   6.298   0.972  0.3815 -0.0784  0.0272
 2175TIP3    H128084   4.842   6.321   0.880  0.7790 -0.0298  0.0854
 2175TIP3    H228085   4.839   6.202   0.974 -2.4516 -0.4119 -0.3867
 2176TIP3   OH228086   3.663   3.990   0.804  0.5030 -0.6478 -0.5676
 2176TIP3    H128087   3.689   4.062   0.861  1.9850  0.1503 -2.1654
 2176TIP3    H228088   3.613   4.032   0.734  0.9933 -1.2209 -1.2691
 2177TIP3   OH228089   2.510   1.432   3.116  0.1765 -0.1404  0.1384
 2177TIP3    H128090   2.425   1.419   3.075  1.0713 -0.7281 -1.6521
 2177TIP3    H228091   2.557   1.490   3.056  1.2535 -0.3258  0.7722
 2178TIP3   OH228092   1.951   0.824   1.778 -0.2331 -0.0932  0.0683
 2178TIP3    H128093   2.017   0.832   1.846  1.3624  1.1373 -1.5238
 2178TIP3    H228094   1.997   0.783   1.704 -1.9019 -1.4018 -0.3069
 2179TIP3   OH228095   3.256   4.286   0.463 -0.1695  0.4837 -0.3500
 2179TIP3    H128096   3.257   4.192   0.479 -2.5400  0.5003  0.2249
 2179TIP3    H228097   3.234   4.295   0.370  2.9064  0.5341 -1.2096
 2180TIP3   OH228098   2.310   6.464   1.924  0.1062  0.3073 -0.2492
 2180TIP3    H128099   2.265   6.392   1.881  0.4971  0.2902 -0.6372
 2180TIP3    H228100   2.402   6.439   1.924  0.3802  1.2148 -1.2329
 2181TIP3   OH228101   3.693   1.641   2.255  0.0212  0.3454 -0.0337
 2181TIP3    H128102   3.723   1.550   2.247  0.0490  0.4729 -1.5656
 2181TIP3    H228103   3.684   1.672   2.165 -1.5930  1.3530  0.4243
 2182TIP3   OH228104   0.163   2.953   8.533 -0.6831  0.8229  0.4377
 2182TIP3    H128105   0.226   3.017   8.500 -1.0035  0.2134 -1.5529
 2182TIP3    H228106   0.078   2.985   8.502 -0.8388 -0.5358 -0.6509
 2183TIP3   OH228107   4.308   0.283   0.916  0.0501  0.0963  0.0873
 2183TIP3    H128108   4.279   0.192   0.907 -0.6438  0.2140  0.9533
 2183TIP3    H228109   4.400   0.277   0.941  0.6966 -0.3008 -2.1249
 2184TIP3   OH228110   6.592   4.236   1.714  0.0264 -0.1337  0.5542
 2184TIP3    H128111   6.619   4.144   1.707  1.9905  0.5227 -2.8896
 2184TIP3    H228112   6.651   4.273   1.779  1.4429 -0.6684 -0.3857
 2185TIP3   OH228113   5.141   3.008   7.021 -0.3618 -0.3069  0.1939
 2185TIP3    H128114   5.113   2.919   6.998 -0.7494  0.2820 -1.8435
 2185TIP3    H228115   5.064   3.048   7.061 -0.3899 -0.6903  0.5255
 2186TIP3   OH228116   5.629   3.378   1.805  0.2246 -0.2997  0.7593
 2186TIP3    H128117   5.536   3.361   1.791  0.4385  0.6193 -2.6032
 2186TIP3    H228118   5.673   3.312   1.753  1.4041  0.3705  0.8773
 2187TIP3   OH228119   0.940   1.097   2.301  0.6448 -0.0411  0.7433
 2187TIP3    H128120   1.034   1.099   2.320  0.8862 -1.5077 -0.1050
 2187TIP3    H228121   0.933   1.048   2.219 -0.8071  0.8027  0.3236
 2188TIP3   OH228122   4.277   3.215   0.360 -0.0252 -0.2474 -0.0696
 2188TIP3    H128123   4.329   3.154   0.412 -1.0511 -0.2796  0.9688
 2188TIP3    H228124   4.287   3.299   0.404 -1.6245 -0.4531  0.7810
 2189TIP3   OH228125   5.096   2.333   7.468  0.1547  0.5768 -0.0029
 2189TIP3    H128126   5.144   2.379   7.537  1.5416  1.4231 -1.4710
 2189TIP3    H228127   5.125   2.242   7.477  2.2256  1.0738 -0.9044
 2190TIP3   OH228128   5.730   1.676   7.292  0.0641 -0.0974 -0.6290
 2190TIP3    H128129   5.687   1.739   7.351  1.8928  0.9640 -0.3419
 2190TIP3    H228130   5.681   1.684   7.210 -0.9113  0.3194 -0.0316
 2191TIP3   OH228131   1.592   0.382   6.932 -0.0549 -0.3921  0.0967
 2191TIP3    H128132   1.508   0.373   6.888  1.2862 -2.0631 -2.3500
 2191TIP3    H228133   1.640   0.446   6.879  0.9152 -0.9438  0.2857
 2192TIP3   OH228134   6.390   4.483   1.078 -0.2871  0.7803 -0.0449
 2192TIP3    H128135   6.451   4.549   1.044  0.2835 -0.4065 -1.4204
 2192TIP3    H228136   6.430   4.453   1.159  0.4114  0.7926 -0.3768
 2193TIP3   OH228137   5.080   4.256   2.300 -0.2886  0.0427 -0.2501
 2193TIP3    H128138   5.138   4.327   2.326  0.4202 -1.0385  1.2404
 2193TIP3    H228139   5.051   4.216   2.382  0.9449 -2.6649 -0.9967
 2194TIP3   OH228140   1.007   5.414   0.153 -0.1164 -0.5181  0.1064
 2194TIP3    H128141   1.015   5.505   0.184  0.5420 -0.6040  0.2049
 2194TIP3    H228142   0.915   5.406   0.127  0.5221  1.3016 -3.3995
 2195TIP3   OH228143   1.370   2.855   8.078 -0.2935  0.6558  0.2471
 2195TIP3    H128144   1.322   2.799   8.017 -0.3539  0.4386  0.4949
 2195TIP3    H228145   1.451   2.876   8.032 -0.1219  0.0948  0.2809
 2196TIP3   OH228146   5.089   6.684   2.377  0.1474 -0.1446 -0.2326
 2196TIP3    H128147   5.020   6.618   2.377  0.4373 -0.5052 -2.3003
 2196TIP3    H228148   5.154   6.651   2.438 -0.1183 -1.3315 -0.5748
 2197TIP3   OH228149   3.190   3.418   2.451  0.2842  0.3912  0.2847
 2197TIP3    H128150   3.242   3.477   2.506  1.4861 -0.7050  0.3647
 2197TIP3    H228151   3.210   3.331   2.485 -0.7358 -0.1326 -0.4415
 2198TIP3   OH228152   0.542   0.050   7.862  0.2001  0.1956  0.3552
 2198TIP3    H128153   0.506   0.125   7.910  1.3676  0.2473  1.1861
 2198TIP3    H228154   0.543   0.079   7.770 -0.5522  0.7111  0.5029
 2199TIP3   OH228155   0.765   5.369   8.656 -0.4594  0.5446 -0.3083
 2199TIP3    H128156   0.744   5.334   8.569 -1.4064  0.0933  0.0886
 2199TIP3    H228157   0.764   5.464   8.644 -1.9848  0.5324 -0.5105
 2200TIP3   OH228158   3.243   0.198   2.534 -0.8563 -0.3082 -0.0936
 2200TIP3    H128159   3.154   0.183   2.566 -0.7412  1.2315  1.0663
 2200TIP3    H228160   3.234   0.262   2.463 -0.6392  0.4583  0.5473
 2201TIP3   OH228161   0.611   2.298   0.492  0.2661  0.6970 -0.4409
 2201TIP3    H128162   0.567   2.280   0.575 -1.5826 -1.3103 -1.7450
 2201TIP3    H228163   0.672   2.226   0.480  0.2365  0.7607 -1.0036
 2202TIP3   OH228164   1.144   3.163   0.992 -0.1480  0.4511  0.6436
 2202TIP3    H128165   1.051   3.170   1.013 -0.1965 -0.5400  0.8395
 2202TIP3    H228166   1.152   3.080   0.945  0.0197  2.3951 -3.0868
 2203TIP3   OH228167   2.818   6.250   0.411  0.7495 -0.2575  0.1891
 2203TIP3    H128168   2.813   6.175   0.352  0.5257 -0.2020  0.1372
 2203TIP3    H228169   2.758   6.229   0.482 -0.7292  0.6810 -0.7424
 2204TIP3   OH228170   1.298   6.870   0.616  0.0112  0.4144 -0.2409
 2204TIP3    H128171   1.241   6.896   0.689  0.6248  0.3087  0.2865
 2204TIP3    H228172   1.363   6.812   0.656 -0.8978 -1.3883 -1.2535
 2205TIP3   OH228173   2.677   5.960   0.673  0.2424 -0.3461 -0.4789
 2205TIP3    H128174   2.622   5.883   0.655  0.4408 -0.4166 -0.7862
 2205TIP3    H228175   2.634   6.032   0.627  0.4518 -0.4199 -0.7983
 2206TIP3   OH228176   0.887   2.306   7.200  0.9446 -0.2903  0.1674
 2206TIP3    H128177   0.878   2.398   7.176  1.0590 -0.5359 -0.8709
 2206TIP3    H228178   0.938   2.268   7.129  1.3173 -1.0578  0.8307
 2207TIP3   OH228179   6.365   0.837   7.322 -0.7594  0.7803 -0.3062
 2207TIP3    H128180   6.345   0.747   7.296  2.1279 -0.2696  0.7088
 2207TIP3    H228181   6.352   0.889   7.243 -3.6221 -0.2595 -0.6174
 2208TIP3   OH228182   0.166   3.542   0.025  0.0998 -0.6114 -0.3484
 2208TIP3    H128183   0.139   3.450   0.029  1.4529 -1.0159  0.3830
 2208TIP3    H228184   0.143   3.577   0.111  0.8190 -0.6706 -0.1167
 2209TIP3   OH228185   3.921   4.189   0.766  0.3128  0.5463  0.3410
 2209TIP3    H128186   3.979   4.141   0.825  0.0659 -0.3876 -0.1424
 2209TIP3    H228187   3.933   4.145   0.681 -1.3003  0.1344  0.2940
 2210TIP3   OH228188   2.363   3.774   2.789  0.4009 -0.2009 -0.2021
 2210TIP3    H128189   2.408   3.812   2.714  0.5175  0.2741  0.1055
 2210TIP3    H228190   2.317   3.848   2.829 -1.1418 -0.7655 -0.8519
 2211TIP3   OH228191   3.050   3.508   7.485 -0.7928 -0.0604  0.3968
 2211TIP3    H128192   3.058   3.497   7.390  0.8687  0.9939  0.3654
 2211TIP3    H228193   2.962   3.541   7.498 -0.9685  0.0001 -0.8084
 2212TIP3   OH228194   1.140   5.714   8.283  0.4643  0.5359 -0.0086
 2212TIP3    H128195   1.067   5.759   8.325 -0.2497  0.1376 -0.7822
 2212TIP3    H228196   1.210   5.779   8.278 -0.3401  1.3706 -0.5680
 2213TIP3   OH228197   4.059   1.822   1.173  0.8521 -0.4906  0.0461
 2213TIP3    H128198   4.118   1.874   1.119 -0.5102  0.7236 -0.3684
 2213TIP3    H228199   4.015   1.886   1.229 -0.6600 -1.2269 -0.2451
 2214TIP3   OH228200   6.553   2.313   1.027  0.0877 -0.5046 -0.0590
 2214TIP3    H128201   6.635   2.360   1.019 -0.5444  0.3878 -1.6276
 2214TIP3    H228202   6.571   2.227   0.989  0.1333 -0.0815 -1.0209
 2215TIP3   OH228203   6.196   3.541   7.849  0.1171 -0.3056  0.1717
 2215TIP3    H128204   6.128   3.474   7.850 -0.7427  0.5499  0.8332
 2215TIP3    H228205   6.152   3.619   7.818  0.2145  0.8238  2.6426
 2216TIP3   OH228206   3.977   6.819   7.213 -0.3728  0.7874  0.3789
 2216TIP3    H128207   4.025   6.750   7.168 -0.1127  1.1862  0.0393
 2216TIP3    H228208   3.885   6.792   7.208 -0.2111  0.1580  0.7955
 2217TIP3   OH228209   5.709   2.826   1.559 -0.0203 -0.0847 -0.4003
 2217TIP3    H128210   5.669   2.883   1.624 -0.1228  0.8336 -1.2350
 2217TIP3    H228211   5.730   2.746   1.606  0.8210  0.9147  1.0020
 2218TIP3   OH228212   1.611   1.440   1.311 -0.0145  0.0838 -0.5750
 2218TIP3    H128213   1.632   1.529   1.338  0.5859 -0.0260 -0.6764
 2218TIP3    H228214   1.633   1.437   1.218 -4.2676  1.1779 -1.8564
 2219TIP3   OH228215   3.890   4.055   7.896  0.0803 -0.1996 -0.1893
 2219TIP3    H128216   3.866   4.144   7.922  1.5194  0.1668 -0.0307
 2219TIP3    H228217   3.880   4.003   7.975  2.1878  0.4563  0.5852
 2220TIP3   OH228218   5.954   4.784   8.311  0.4370  0.0982 -0.6327
 2220TIP3    H128219   6.047   4.802   8.295  1.3736 -2.8179  0.8001
 2220TIP3    H228220   5.914   4.789   8.224  2.4286 -0.8512 -1.6757
 2221TIP3   OH228221   1.598   3.778   0.133 -0.6373 -0.3567  0.3461
 2221TIP3    H128222   1.588   3.786   0.227 -1.6288  1.4415  0.1282
 2221TIP3    H228223   1.671   3.836   0.112 -0.8680 -0.2094 -0.0630
 2222TIP3   OH228224   0.627   4.627   8.609  0.3641 -0.1188  0.3000
 2222TIP3    H128225   0.690   4.611   8.679 -0.0760  1.2485  1.0482
 2222TIP3    H228226   0.542   4.608   8.649  0.1014  0.8140  0.2112
 2223TIP3   OH228227   1.559   2.774   0.020  0.0862 -0.5758  0.5816
 2223TIP3    H128228   1.563   2.780   0.116 -0.7213  2.0413  0.5531
 2223TIP3    H228229   1.640   2.815  -0.010 -0.4494  0.2583  0.1966
 2224TIP3   OH228230   0.043   5.408   6.568  0.1036 -0.2833 -0.3778
 2224TIP3    H128231   0.046   5.382   6.660 -0.3488  0.2032 -0.2209
 2224TIP3    H228232  -0.003   5.336   6.525  1.1371 -0.9628 -0.3979
 2225TIP3   OH228233   3.886   2.314   2.240 -0.0158  0.0543  0.0050
 2225TIP3    H128234   3.978   2.332   2.226  0.0554 -0.1324  0.2263
 2225TIP3    H228235   3.861   2.373   2.311 -0.1845  0.4428 -0.3712
 2226TIP3   OH228236   5.926   3.495   7.758  0.0765 -0.4473  0.2549
 2226TIP3    H128237   5.845   3.460   7.721  0.9116  0.0921 -2.2300
 2226TIP3    H228238   5.942   3.576   7.710  0.7058  0.9183  2.5936
 2227TIP3   OH228239   4.541   5.423   7.280  0.5725  0.2337 -0.0238
 2227TIP3    H128240   4.526   5.455   7.369  0.0281  0.4919 -0.1999
 2227TIP3    H228241   4.590   5.342   7.291  1.5530  0.8695  0.4576
 2228TIP3   OH228242   6.099   6.814   2.026 -1.2685  0.0690  0.4259
 2228TIP3    H128243   6.007   6.841   2.016 -1.0247  1.6065  1.9734
 2228TIP3    H228244   6.149   6.893   2.007 -0.3298 -0.4059  0.9010
 2229TIP3   OH228245   4.151   4.681   7.671 -0.4205 -0.3116  0.7654
 2229TIP3    H128246   4.113   4.646   7.590  1.0295 -1.2935  0.4709
 2229TIP3    H228247   4.203   4.608   7.706  0.8864  0.8668  1.3369
 2230TIP3   OH228248   2.921   1.009   7.660 -0.5275  0.0405  0.5628
 2230TIP3    H128249   2.934   0.923   7.700  0.6304 -0.3519 -0.6090
 2230TIP3    H228250   2.966   1.070   7.719  0.5465 -0.4424  0.2591
 2231TIP3   OH228251   0.769   6.778   8.030  0.1497  0.5189  0.4460
 2231TIP3    H128252   0.731   6.862   8.002  0.2955  0.4514  0.0449
 2231TIP3    H228253   0.821   6.801   8.107 -2.3942  0.2894  2.3826
 2232TIP3   OH228254   3.641   1.561   0.207 -0.1054  0.7435 -0.4321
 2232TIP3    H128255   3.546   1.548   0.200 -0.0414  0.8350 -1.6171
 2232TIP3    H228256   3.653   1.654   0.192  0.2395  0.5881 -1.1577
 2233TIP3   OH228257   3.073   0.657   7.609 -0.4723 -0.4370  0.1366
 2233TIP3    H128258   3.035   0.699   7.687 -0.7071 -0.6066  0.1122
 2233TIP3    H228259   3.002   0.656   7.545  0.2828  1.6311 -0.8431
 2234TIP3   OH228260   4.880   3.654   1.282  0.6714 -0.6590 -0.1784
 2234TIP3    H128261   4.921   3.709   1.350  1.2720 -1.1901 -0.1063
 2234TIP3    H228262   4.953   3.621   1.231  0.3670 -1.8661  0.1291
 2235TIP3   OH228263   2.357   6.404   7.413 -0.3734 -0.2443  0.2704
 2235TIP3    H128264   2.374   6.355   7.333  0.5513 -0.6464  0.6997
 2235TIP3    H228265   2.261   6.409   7.418 -0.4555 -0.9809 -0.3944
 2236TIP3   OH228266   6.351   2.627   2.522  0.1550  0.3832  0.2414
 2236TIP3    H128267   6.270   2.660   2.561 -1.4144 -0.9630 -1.6105
 2236TIP3    H228268   6.397   2.584   2.594 -0.7254  1.2763  1.3780
 2237TIP3   OH228269   0.546   1.461   0.615 -0.6904  0.0434 -0.2989
 2237TIP3    H128270   0.542   1.402   0.540 -1.8043  0.2063 -0.3773
 2237TIP3    H228271   0.586   1.408   0.685  3.0566  0.6825 -1.6891
 2238TIP3   OH228272   4.441   6.535   8.536  0.4417  0.2473 -0.0753
 2238TIP3    H128273   4.478   6.448   8.550 -2.1734 -0.9570 -0.0912
 2238TIP3    H228274   4.405   6.532   8.448  0.7267  1.5094 -0.2440
 2239TIP3   OH228275   3.935   6.446   6.635 -0.3318 -0.2445 -0.2442
 2239TIP3    H128276   4.026   6.467   6.618 -0.4259  0.7290  0.3922
 2239TIP3    H228277   3.909   6.506   6.705 -1.8578  0.4777 -1.3792
 2240TIP3   OH228278   2.616   6.206   8.563  0.4292  0.2207 -0.2186
 2240TIP3    H128279   2.550   6.201   8.632  1.5758 -1.6309  0.8155
 2240TIP3    H228280   2.566   6.228   8.484 -1.2390  0.0225  0.7234
 2241TIP3   OH228281   2.869   0.933   7.218  0.2767  0.3907  0.7819
 2241TIP3    H128282   2.931   0.892   7.157  0.0081  0.4492  0.4689
 2241TIP3    H228283   2.899   1.023   7.225  0.3716  0.3566  0.8197
 2242TIP3   OH228284   1.993   4.026   8.107  0.2526  0.4682 -0.0726
 2242TIP3    H128285   2.023   3.980   8.186  0.2832 -1.4013 -1.1228
 2242TIP3    H228286   1.898   4.012   8.106  0.2411  0.5558 -0.3211
 2243TIP3   OH228287   2.902   0.840   1.654 -0.6141 -0.1016 -0.9642
 2243TIP3    H128288   2.988   0.843   1.613  0.2369  0.4863  0.7477
 2243TIP3    H228289   2.840   0.828   1.582  0.9152 -0.8317 -2.2008
 2244TIP3   OH228290   6.820   6.615   7.919 -0.2146 -0.6309  0.4638
 2244TIP3    H128291   6.745   6.647   7.869 -0.6243 -0.9163  0.8876
 2244TIP3    H228292   6.857   6.693   7.960 -1.2859 -0.6904  1.5937
 2245TIP3   OH228293   4.838   6.688   1.645  0.5506 -0.0910 -0.2922
 2245TIP3    H128294   4.908   6.680   1.710 -1.1882 -3.0118  1.4142
 2245TIP3    H228295   4.849   6.611   1.589 -0.4758  0.1621 -0.8630
 2246TIP3   OH228296   5.750   5.405   7.881  0.2378  0.0647 -0.0916
 2246TIP3    H128297   5.754   5.311   7.865  1.3166  0.2593 -1.0681
 2246TIP3    H228298   5.798   5.418   7.963 -1.2965 -0.3928  0.9279
 2247TIP3   OH228299   4.218   3.191   2.410  0.8535 -0.3095 -0.1423
 2247TIP3    H128300   4.131   3.168   2.375  0.8129  1.8019 -1.6014
 2247TIP3    H228301   4.245   3.114   2.460 -1.4544 -1.3803 -0.4286
 2248TIP3   OH228302   6.414   5.392   1.874  0.0184 -0.2242  0.0873
 2248TIP3    H128303   6.365   5.473   1.857 -0.1471 -0.0719  1.2285
 2248TIP3    H228304   6.403   5.340   1.794 -2.0612 -0.2202  0.3289
 2249TIP3   OH228305   0.381   2.635   6.890 -0.5679  0.9118 -0.1332
 2249TIP3    H128306   0.397   2.720   6.931 -1.9323  1.4062 -0.5761
 2249TIP3    H228307   0.302   2.603   6.934 -0.6516  0.3438 -0.6938
 2250TIP3   OH228308   0.551   0.568   0.472 -1.1267  0.0398  0.5575
 2250TIP3    H128309   0.498   0.521   0.407 -0.9454 -1.0083  1.1458
 2250TIP3    H228310   0.498   0.644   0.495 -1.0358  0.6475 -1.0764
 2251TIP3   OH228311   5.557   0.516   7.370  0.4835 -0.9472 -0.2695
 2251TIP3    H128312   5.600   0.597   7.397  1.2530 -1.0618 -1.0810
 2251TIP3    H228313   5.534   0.531   7.278 -1.1496 -0.9343  0.1047
 2252TIP3   OH228314   2.820   2.916   7.472 -0.5681 -0.2305 -0.7203
 2252TIP3    H128315   2.860   2.964   7.400  0.9761  0.5805  0.6132
 2252TIP3    H228316   2.894   2.876   7.518 -1.2748  0.9332  1.5694
 2253TIP3   OH228317   2.092   5.739   2.754 -0.5901  0.1125  0.6265
 2253TIP3    H128318   2.073   5.831   2.771 -0.8903  0.6883 -2.2996
 2253TIP3    H228319   2.172   5.740   2.702 -0.8740 -1.2322  0.1249
 2254TIP3   OH228320   1.458   4.658   8.499 -0.3925  0.3579  0.2618
 2254TIP3    H128321   1.410   4.575   8.501  2.0949 -1.4080 -2.9363
 2254TIP3    H228322   1.548   4.634   8.523 -0.0154  2.6515  1.4775
 2255TIP3   OH228323   0.328   1.398   0.255 -0.0115 -0.0263  0.2038
 2255TIP3    H128324   0.275   1.320   0.268 -0.6391  0.2725 -0.4870
 2255TIP3    H228325   0.323   1.416   0.161 -0.2792  1.1078  0.4105
 2256TIP3   OH228326   2.859   4.159   7.503  0.2633 -0.1847  0.0694
 2256TIP3    H128327   2.768   4.171   7.532  0.8955  3.6626  0.9999
 2256TIP3    H228328   2.894   4.090   7.560 -1.8876 -1.5046 -0.0778
 2257TIP3   OH228329   0.308   5.592   0.648  0.2179  0.2628 -0.2154
 2257TIP3    H128330   0.276   5.538   0.576  0.1540 -0.8356  0.6081
 2257TIP3    H228331   0.230   5.615   0.698  0.4750 -1.0863  0.8918
 2258TIP3   OH228332   0.834   6.242   1.845  0.0098 -0.0546  0.1304
 2258TIP3    H128333   0.825   6.338   1.849 -1.0180 -0.1720  1.0582
 2258TIP3    H228334   0.896   6.221   1.914  1.9396  0.0925 -1.4606
 2259TIP3   OH228335   2.565   1.768   8.313  0.0811 -0.0676 -0.7032
 2259TIP3    H128336   2.642   1.714   8.297  2.1768  1.7398  2.2330
 2259TIP3    H228337   2.568   1.834   8.244  1.0974 -0.1455 -0.7588
 2260TIP3   OH228338   6.271   2.412   1.074  0.9130  0.5338 -0.2914
 2260TIP3    H128339   6.226   2.385   1.154 -0.5566 -1.4020 -1.6930
 2260TIP3    H228340   6.342   2.349   1.064  2.4656  2.0502  0.5396
 2261TIP3   OH228341   1.569   4.192   2.104 -0.2036  0.0711  0.3970
 2261TIP3    H128342   1.618   4.119   2.143 -0.6549 -0.5071 -0.0878
 2261TIP3    H228343   1.518   4.151   2.034 -2.4571  0.4067  1.7664
 2262TIP3   OH228344   4.616   4.740   7.767 -0.1019 -0.1950 -0.6222
 2262TIP3    H128345   4.675   4.696   7.828 -0.3511  1.2440  0.7487
 2262TIP3    H228346   4.627   4.694   7.684  0.8752 -1.6983  0.3000
 2263TIP3   OH228347   1.923   3.930   1.441  0.6373 -0.8121 -0.1224
 2263TIP3    H128348   1.966   3.977   1.370  0.6368 -1.1291 -0.3332
 2263TIP3    H228349   1.994   3.883   1.485  0.5081 -1.3238 -0.4612
 2264TIP3   OH228350   2.610   3.072   1.649 -0.1441  0.4766 -0.1507
 2264TIP3    H128351   2.561   3.142   1.692 -0.5363 -1.1889  2.3475
 2264TIP3    H228352   2.688   3.115   1.614  0.1236  2.0402  2.1380
 2265TIP3   OH228353   6.705   4.665   8.251  0.0275 -0.1588 -0.0899
 2265TIP3    H128354   6.679   4.749   8.289  2.1632 -0.1419  1.5718
 2265TIP3    H228355   6.709   4.605   8.326 -1.0038 -1.6566 -1.1714
 2266TIP3   OH228356   3.238   4.397   1.216  0.2740  0.6195 -0.4037
 2266TIP3    H128357   3.174   4.440   1.272 -0.6597 -0.0069 -0.9518
 2266TIP3    H228358   3.244   4.452   1.138  0.6983  0.8818 -0.1869
 2267TIP3   OH228359   0.983   3.244   1.932 -0.1658 -0.2078  0.7041
 2267TIP3    H128360   1.073   3.251   1.966  0.7172  0.0501 -1.5169
 2267TIP3    H228361   0.955   3.155   1.956  0.8045 -0.4090  1.1444
 2268TIP3   OH228362   6.854   6.101   1.342 -0.6497  0.4421  0.4326
 2268TIP3    H128363   6.931   6.044   1.340  0.2690  1.5630  1.7430
 2268TIP3    H228364   6.784   6.046   1.377  0.5158  0.3897  2.8424
 2269TIP3   OH228365   0.684   3.139   7.037  0.2174 -0.2283 -0.6246
 2269TIP3    H128366   0.680   3.227   7.075 -2.3500  0.2671 -1.7985
 2269TIP3    H228367   0.594   3.107   7.042  0.8257 -2.2220 -1.5085
 2270TIP3   OH228368   3.743   1.892   0.631 -0.4446  0.1369 -0.1638
 2270TIP3    H128369   3.838   1.902   0.626 -0.2541 -1.8392 -1.6295
 2270TIP3    H228370   3.724   1.813   0.581 -2.7168 -0.4741  1.4859
 2271TIP3   OH228371   3.375   3.318   1.551  0.3020 -0.3144 -0.2523
 2271TIP3    H128372   3.457   3.273   1.570  0.4997  0.5744  1.0995
 2271TIP3    H228373   3.394   3.411   1.568  0.0524  0.4409 -3.4024
 2272TIP3   OH228374   1.724   4.367   8.057  0.0452 -0.0690 -0.3931
 2272TIP3    H128375   1.644   4.319   8.035  0.1264 -0.9856  1.1144
 2272TIP3    H228376   1.713   4.390   8.150  2.7426 -2.8257  0.7613
 2273TIP3   OH228377   6.064   5.031   0.889 -0.0925  0.0794 -0.2951
 2273TIP3    H128378   6.048   5.110   0.941  0.0962  0.0842 -0.2439
 2273TIP3    H228379   6.159   5.023   0.887 -0.1154 -0.9754  0.9641
 2274TIP3   OH228380   4.813   2.649   1.463 -0.3975  0.1221  0.2011
 2274TIP3    H128381   4.893   2.690   1.497 -1.5921  2.9579 -0.1750
 2274TIP3    H228382   4.759   2.634   1.541 -0.4133  0.2792  0.2192
 2275TIP3   OH228383   3.006   6.755   1.577 -0.2227 -0.5416  0.6193
 2275TIP3    H128384   2.981   6.814   1.649  0.1098 -1.4979  1.5470
 2275TIP3    H228385   2.926   6.707   1.556 -0.6893  0.7265 -0.6503
 2276TIP3   OH228386   4.169   1.114   1.017  0.3983  0.2207  0.2180
 2276TIP3    H128387   4.185   1.103   0.924  1.3141  1.4409  0.2107
 2276TIP3    H228388   4.185   1.027   1.055  0.7037 -0.1098 -0.6516
 2277TIP3   OH228389   2.014   3.314   2.207 -0.0303  0.2952 -0.0530
 2277TIP3    H128390   2.018   3.314   2.303  0.9130  0.0957 -0.0799
 2277TIP3    H228391   1.937   3.367   2.186  0.5414  1.5291  0.8008
 2278TIP3   OH228392   4.278   0.002   1.355  0.2783  0.0291  0.4824
 2278TIP3    H128393   4.212   0.059   1.395 -0.8837 -1.6493  1.0675
 2278TIP3    H228394   4.259  -0.085   1.389  0.3155 -1.2238 -2.3956
 2279TIP3   OH228395   4.351   1.568   8.512  0.3613 -0.5381 -0.7509
 2279TIP3    H128396   4.276   1.625   8.499 -0.9983 -2.0534  0.0127
 2279TIP3    H228397   4.341   1.535   8.601  0.5276 -2.6843 -1.4688
 2280TIP3   OH228398   6.856   0.244   0.619  0.4886 -0.3204 -0.0885
 2280TIP3    H128399   6.921   0.304   0.584 -0.8408  1.2300 -0.0144
 2280TIP3    H228400   6.882   0.158   0.585  0.8955  0.6886 -2.5042
 2281TIP3   OH228401   4.230   3.744   0.851  0.4009  0.2394  0.2849
 2281TIP3    H128402   4.178   3.747   0.931  1.2945  1.0888  0.8595
 2281TIP3    H228403   4.179   3.689   0.791 -0.7803  0.4316  1.0742
 2282TIP3   OH228404   2.565   5.276   2.725  0.5930 -1.0776  0.7058
 2282TIP3    H128405   2.510   5.198   2.717  0.1267 -0.5560 -2.0151
 2282TIP3    H228406   2.633   5.264   2.659  0.9846  0.4396  0.8027
 2283TIP3   OH228407   2.808   4.319   0.401  0.5151 -0.3673  0.2326
 2283TIP3    H128408   2.720   4.333   0.367  0.1187 -1.1262  0.9058
 2283TIP3    H228409   2.851   4.264   0.336  0.4792 -0.0533 -0.0625
 2284TIP3   OH228410   2.193   3.632   1.025  0.3771  0.6022  0.0747
 2284TIP3    H128411   2.281   3.595   1.019 -0.2033 -0.7064 -0.9555
 2284TIP3    H228412   2.173   3.632   1.118  1.2593  0.4094  0.2680
 2285TIP3   OH228413   1.473   0.936   7.535 -0.0543  0.1516 -0.3942
 2285TIP3    H128414   1.502   1.025   7.516  0.4546  0.0101 -0.2878
 2285TIP3    H228415   1.487   0.889   7.452  1.3048 -0.2426  0.0259
 2286TIP3   OH228416   0.957   5.101   8.252  0.4012 -0.6357 -0.7018
 2286TIP3    H128417   0.918   5.182   8.218  1.5804  0.3988  0.3345
 2286TIP3    H228418   0.895   5.070   8.318  0.7319  0.3166  0.0572
 2287TIP3   OH228419   2.464   3.469   7.930 -0.4230  0.4982 -0.4655
 2287TIP3    H128420   2.413   3.456   7.851 -1.9178  0.4828  0.4728
 2287TIP3    H228421   2.492   3.381   7.956  2.0456  0.6656 -2.1651
 2288TIP3   OH228422   6.232   4.534   1.541 -0.4696 -0.1398 -0.6131
 2288TIP3    H128423   6.224   4.440   1.527 -0.7012 -0.0506 -1.0968
 2288TIP3    H228424   6.172   4.553   1.613 -2.2342 -0.0003 -2.0524
 2289TIP3   OH228425   2.924   0.118   8.294  0.8815 -0.1394 -0.1459
 2289TIP3    H128426   2.849   0.088   8.243  2.3809 -1.6374 -1.5677
 2289TIP3    H228427   2.900   0.207   8.320 -0.7863 -0.0390 -1.7890
 2290TIP3   OH228428   2.797   4.694   0.002 -0.7498 -0.6116  0.2252
 2290TIP3    H128429   2.825   4.770  -0.049 -2.9296  0.6627  0.8030
 2290TIP3    H228430   2.846   4.701   0.084  1.5248 -1.7445 -0.9528
 2291TIP3   OH228431   3.014   5.109   0.921  0.5631 -0.5267  0.2580
 2291TIP3    H128432   3.037   5.170   0.851 -1.6074  1.1019  0.8512
 2291TIP3    H228433   3.090   5.108   0.979  1.1641  0.5436 -0.4875
 2292TIP3   OH228434   1.996   3.281   7.274  0.0089  0.1177  0.3290
 2292TIP3    H128435   1.940   3.211   7.307 -1.0752  1.6672  2.0218
 2292TIP3    H228436   1.937   3.339   7.226  1.2499 -1.0949 -2.8783
 2293TIP3   OH228437   1.914   0.929   6.991  0.4626  0.1114 -0.5170
 2293TIP3    H128438   1.861   0.960   6.918 -0.7609 -3.3881 -1.3337
 2293TIP3    H228439   1.993   0.895   6.950  1.4556  1.4086  0.2489
 2294TIP3   OH228440   2.981   0.309   0.979 -0.2863  0.1907 -0.3996
 2294TIP3    H128441   3.019   0.260   1.052  2.2531 -0.7044 -2.1952
 2294TIP3    H228442   3.021   0.396   0.985  0.8810 -0.2516 -1.3474
 2295TIP3   OH228443   3.476   1.462   8.526 -0.2942 -0.1495 -0.1246
 2295TIP3    H128444   3.401   1.500   8.480  0.6666  2.2572  0.1461
 2295TIP3    H228445   3.501   1.529   8.590  1.4361 -1.3551  0.5433
 2296TIP3   OH228446   4.184   5.319   0.513 -0.5396 -0.2713 -0.0037
 2296TIP3    H128447   4.206   5.382   0.444 -0.6902 -0.2965 -0.0752
 2296TIP3    H228448   4.112   5.268   0.477 -2.0041  1.0423  0.9200
 2297TIP3   OH228449   3.078   0.387   0.672 -0.1863  0.0795  0.6540
 2297TIP3    H128450   3.082   0.458   0.608  1.5877 -0.8910 -0.3780
 2297TIP3    H228451   2.987   0.356   0.667 -0.1331  0.1201 -1.3251
 2298TIP3   OH228452   2.014   6.666   8.261 -0.0177  0.2478 -0.7900
 2298TIP3    H128453   1.988   6.751   8.296  0.5715  0.3693 -0.6298
 2298TIP3    H228454   2.027   6.611   8.339 -0.2280  0.0632 -0.8859
 2299TIP3   OH228455   1.143   5.383   1.175 -0.3652 -0.2925  0.2606
 2299TIP3    H128456   1.169   5.294   1.154 -1.9115 -0.8007  0.4309
 2299TIP3    H228457   1.183   5.400   1.261 -0.8369 -1.1538  0.6525
 2300TIP3   OH228458   3.198   5.283   6.765 -0.6366 -0.0166 -0.2328
 2300TIP3    H128459   3.218   5.196   6.730 -1.4462 -0.3301  0.0676
 2300TIP3    H228460   3.217   5.342   6.692 -0.2266 -0.4504 -0.4878
 2301TIP3   OH228461   6.668   0.465   0.653 -0.3274 -0.0987  0.0539
 2301TIP3    H128462   6.741   0.407   0.632 -1.8370 -2.0801 -0.0670
 2301TIP3    H228463   6.661   0.461   0.749 -0.0645  0.3432  0.0892
 2302TIP3   OH228464   6.411   2.398   0.795  0.4718 -0.0520 -0.2015
 2302TIP3    H128465   6.483   2.389   0.858 -1.1241 -1.3789  1.5580
 2302TIP3    H228466   6.411   2.315   0.747 -1.4881 -1.2995  1.7391
 2303TIP3   OH228467   0.550   2.960   8.605 -0.2385  0.1587  0.3752
 2303TIP3    H128468   0.619   3.021   8.634 -0.6991  0.1824  1.4625
 2303TIP3    H228469   0.526   2.991   8.518  1.8497 -0.4717 -0.4957
 2304TIP3   OH228470   5.795   2.822   8.508 -0.0571  0.3760  0.2455
 2304TIP3    H128471   5.788   2.892   8.572 -0.1261  1.3435 -0.8040
 2304TIP3    H228472   5.811   2.866   8.425 -1.3637 -0.7614 -0.6582
 2305TIP3   OH228473   1.467   4.919   7.768 -0.1287  0.2016  0.7355
 2305TIP3    H128474   1.371   4.924   7.768 -0.1821 -0.6462  0.4420
 2305TIP3    H228475   1.486   4.826   7.781  0.6635  0.4485  1.3772
 2306TIP3   OH228476   2.788   4.756   1.944 -0.2582 -0.6156  0.6819
 2306TIP3    H128477   2.871   4.712   1.924 -0.6867 -0.6492 -1.1916
 2306TIP3    H228478   2.723   4.711   1.890 -1.0473  1.1000  0.1347
 2307TIP3   OH228479   4.062   5.237   0.859 -0.3514 -0.1250  0.5582
 2307TIP3    H128480   4.037   5.286   0.937  0.5121 -0.4082  1.0227
 2307TIP3    H228481   4.003   5.162   0.858 -1.3490  0.6400  0.1142
 2308TIP3   OH228482   1.639   1.820   7.821 -0.5495 -0.2123 -0.0326
 2308TIP3    H128483   1.690   1.891   7.858 -1.1019  0.9096 -1.3419
 2308TIP3    H228484   1.637   1.838   7.727 -4.2116  0.4048  0.0473
 2309TIP3   OH228485   0.800   1.308   0.215  0.0284  0.2248 -0.3413
 2309TIP3    H128486   0.827   1.325   0.306 -0.4307 -0.3725 -0.0884
 2309TIP3    H228487   0.866   1.248   0.182 -0.0362  0.1117 -0.2666
 2310TIP3   OH228488   6.619   0.626   1.428  0.1581 -0.1671 -0.2112
 2310TIP3    H128489   6.604   0.553   1.367 -0.5284 -0.9041  0.8123
 2310TIP3    H228490   6.531   0.653   1.455  0.3963  1.1534 -0.6705
 2311TIP3   OH228491   1.667   3.506   7.446 -0.1369  0.2346  0.0189
 2311TIP3    H128492   1.666   3.411   7.433 -1.5958  0.3255 -0.7445
 2311TIP3    H228493   1.709   3.540   7.366  0.0280  0.2510  0.1127
 2312TIP3   OH228494   3.407   0.309   7.606  0.3962  0.2403  0.3077
 2312TIP3    H128495   3.421   0.219   7.578  2.9010  1.2954 -2.3959
 2312TIP3    H228496   3.472   0.324   7.674  0.0803  0.0655  0.6507
 2313TIP3   OH228497   0.968   2.668   8.151  0.3246 -0.3236  0.3892
 2313TIP3    H128498   0.988   2.598   8.090  1.2915  0.0481  0.2616
 2313TIP3    H228499   0.872   2.667   8.159  0.2749 -1.1231 -0.2233
 2314TIP3   OH228500   3.930   1.077   7.936 -0.5791  0.0101  0.1605
 2314TIP3    H128501   3.843   1.075   7.895  0.2678  1.2083 -1.8000
 2314TIP3    H228502   3.992   1.068   7.864  0.9701  0.7930  1.3320
 2315TIP3   OH228503   6.757   2.055   0.421  0.0665 -0.5783 -0.0045
 2315TIP3    H128504   6.745   2.008   0.339  2.2586 -1.2553  0.0191
 2315TIP3    H228505   6.681   2.114   0.426  0.4378  0.3185 -3.0580
 2316TIP3   OH228506   4.528   3.891   8.488  0.4311  0.6152 -0.8767
 2316TIP3    H128507   4.590   3.822   8.466  1.1074  0.5860  0.9064
 2316TIP3    H228508   4.553   3.964   8.431  1.7811  0.4214 -0.5757
 2317TIP3   OH228509   0.378   0.648   2.930  0.4771  0.2870 -0.3810
 2317TIP3    H128510   0.462   0.674   2.894  1.3443  0.4083  1.5917
 2317TIP3    H228511   0.314   0.705   2.888  1.5532  1.1107 -0.9181
 2318TIP3   OH228512   5.039   1.981   7.672  0.1726 -0.3055 -0.7012
 2318TIP3    H128513   4.962   2.030   7.698  1.0513  0.4827  0.5596
 2318TIP3    H228514   5.005   1.897   7.639 -1.2109  0.1116 -0.3881
 2319TIP3   OH228515   0.837   4.407   2.364  0.1790 -0.1674  0.6161
 2319TIP3    H128516   0.909   4.399   2.427 -1.5506 -1.6604  2.5672
 2319TIP3    H228517   0.773   4.342   2.394 -2.1053  1.2877 -0.8620
 2320TIP3   OH228518   2.996   4.660   2.212  0.5164  0.0207  0.0407
 2320TIP3    H128519   3.029   4.743   2.178  0.0161  1.6734  3.2993
 2320TIP3    H228520   3.057   4.595   2.177  2.0025  1.9300 -1.1355
 2321TIP3   OH228521   5.201   1.285   7.430 -0.2995  0.6882 -0.3164
 2321TIP3    H128522   5.250   1.236   7.364  0.4180 -1.3663  1.5976
 2321TIP3    H228523   5.258   1.358   7.453 -0.5639  1.4367 -1.9278
 2322TIP3   OH228524   1.235   6.421   7.553 -0.0627  0.1718  0.0385
 2322TIP3    H128525   1.274   6.486   7.611 -1.9009 -0.0060  1.5831
 2322TIP3    H228526   1.143   6.419   7.579  0.0554 -3.6807  0.6913
 2323TIP3   OH228527   0.560   4.103   2.174  1.0056 -0.0205  0.2731
 2323TIP3    H128528   0.573   4.142   2.260 -0.3726 -0.5547  0.7554
 2323TIP3    H228529   0.494   4.159   2.132  1.4236  0.0434 -0.3019
 2324TIP3   OH228530   4.644   2.701   1.027  0.3182 -0.8698  0.5629
 2324TIP3    H128531   4.613   2.655   0.950 -0.5090 -0.0406  0.3844
 2324TIP3    H228532   4.575   2.765   1.047  1.5802  0.5599  0.5564
 2325TIP3   OH228533   0.055   3.406   8.380  0.3894  0.4136 -0.0119
 2325TIP3    H128534   0.029   3.488   8.422 -2.0205 -0.1145 -0.3308
 2325TIP3    H228535  -0.025   3.372   8.340  1.7282 -1.1247 -1.6086
 2326TIP3   OH228536   1.997   2.415   7.752  0.0292  0.1531 -0.1411
 2326TIP3    H128537   2.081   2.386   7.787  0.2228  0.2008 -0.5640
 2326TIP3    H228538   2.019   2.466   7.674 -0.4771 -1.9020 -1.7346
 2327TIP3   OH228539   4.960   5.642   8.332 -0.2927  0.5408 -0.1084
 2327TIP3    H128540   4.950   5.632   8.426  2.3522 -1.8245  0.0694
 2327TIP3    H228541   4.879   5.607   8.295 -1.1489  1.0399  1.2635
 2328TIP3   OH228542   1.609   6.478   7.048  0.1477 -0.3764  0.1776
 2328TIP3    H128543   1.604   6.470   6.953  0.9403 -0.0481  0.1037
 2328TIP3    H228544   1.689   6.432   7.072 -0.4179 -1.0856  0.7725
 2329TIP3   OH228545   2.228   4.279   2.171 -0.3020 -0.3183  0.3959
 2329TIP3    H128546   2.219   4.322   2.086  0.6706  1.4613  1.1292
 2329TIP3    H228547   2.160   4.213   2.173 -0.4471 -0.2735 -1.6976
 2330TIP3   OH228548   1.827   3.346   2.943  0.1143  0.2070 -0.0191
 2330TIP3    H128549   1.797   3.291   3.015  0.8754  0.6024  0.6067
 2330TIP3    H228550   1.785   3.431   2.959  1.5083  0.7640  0.8576
 2331TIP3   OH228551   2.753   2.831   1.487 -0.2008 -0.2765  0.2844
 2331TIP3    H128552   2.776   2.910   1.535 -2.2802  0.6789 -0.1734
 2331TIP3    H228553   2.769   2.852   1.395 -0.0205 -0.6768  0.2205
 2332TIP3   OH228554   2.346   3.559   1.474  0.4618 -0.0874 -0.3029
 2332TIP3    H128555   2.393   3.478   1.495 -0.8233 -1.0580 -0.9727
 2332TIP3    H228556   2.364   3.573   1.381  0.7133  0.4336 -0.1780
 2333TIP3   OH228557   6.214   4.132   7.210 -0.6837  0.1282 -0.2982
 2333TIP3    H128558   6.299   4.111   7.174 -0.0554  0.2800  1.0254
 2333TIP3    H228559   6.223   4.221   7.245 -1.4113  0.1902 -0.2384
 2334TIP3   OH228560   6.176   6.613   8.060 -0.2793 -0.1162  0.0489
 2334TIP3    H128561   6.129   6.615   7.976  1.9577  1.2787 -1.2762
 2334TIP3    H228562   6.268   6.615   8.035  0.5228 -1.7856  2.5595
 2335TIP3   OH228563   4.168   4.874   1.502  0.0425 -0.4636  0.0831
 2335TIP3    H128564   4.178   4.823   1.422 -1.7133  0.7095 -0.9537
 2335TIP3    H228565   4.209   4.959   1.482 -0.2389 -0.2254  0.4829
 2336TIP3   OH228566   2.887   2.977   1.758 -0.1221  0.1982 -0.2771
 2336TIP3    H128567   2.946   2.985   1.833 -0.0839 -4.5113  0.4664
 2336TIP3    H228568   2.943   2.997   1.683  0.9374  0.9526  0.6642
 2337TIP3   OH228569   6.342   0.161   7.521 -0.0260 -0.1110  0.2926
 2337TIP3    H128570   6.363   0.159   7.428 -0.1826  1.3464  0.1997
 2337TIP3    H228571   6.361   0.073   7.552 -1.1745 -0.9841 -1.3627
 2338TIP3   OH228572   0.456   4.542   8.394  0.3541  0.6397 -0.4254
 2338TIP3    H128573   0.505   4.530   8.313  1.4439 -0.9290  0.3995
 2338TIP3    H228574   0.497   4.480   8.455  1.1499  3.4210  2.0585
 2339TIP3   OH228575   5.421   4.557   7.206  0.0705  0.0822  0.5543
 2339TIP3    H128576   5.490   4.505   7.248 -1.4851  0.1489  3.5047
 2339TIP3    H228577   5.352   4.494   7.186 -0.4119  0.4886  0.9048
 2340TIP3   OH228578   0.403   0.479   8.530 -0.7448  0.2065  0.0524
 2340TIP3    H128579   0.314   0.446   8.520  0.5517 -4.8264  1.9074
 2340TIP3    H228580   0.456   0.420   8.476  2.0846 -2.9146  5.3541
 2341TIP3   OH228581   1.000   4.452   8.580  1.0307  0.3173  0.2746
 2341TIP3    H128582   1.094   4.433   8.584  1.2408  0.6360 -1.9072
 2341TIP3    H228583   0.987   4.494   8.495 -1.5201 -2.5115 -0.9655
 2342TIP3   OH228584   0.913   4.603   2.578  0.0008  0.3164  0.5556
 2342TIP3    H128585   0.870   4.627   2.496 -2.1573 -0.0526  1.4912
 2342TIP3    H228586   0.883   4.669   2.641  0.1138 -0.4421  1.4318
 2343TIP3   OH228587   1.584   2.589   7.267 -0.0403  0.0580 -0.2878
 2343TIP3    H128588   1.571   2.643   7.189 -1.3524 -0.3409 -0.3570
 2343TIP3    H228589   1.511   2.527   7.267  1.6469 -2.0647 -0.4577
 2344TIP3   OH228590   1.858   3.766   2.829  0.0486  0.6275 -0.7053
 2344TIP3    H128591   1.919   3.707   2.872  0.4785  1.3481 -0.3129
 2344TIP3    H228592   1.899   3.852   2.835 -0.2365  0.8629 -1.8907
 2345TIP3   OH228593   1.882   3.163   0.710 -0.0099 -1.0922 -0.0557
 2345TIP3    H128594   1.818   3.179   0.779  0.4952 -2.1405  0.6779
 2345TIP3    H228595   1.931   3.245   0.702 -1.3329 -0.3111 -0.5431
 2346TIP3   OH228596   5.833   1.363   8.602 -0.1098  0.4174  0.0191
 2346TIP3    H128597   5.907   1.317   8.562 -0.7707 -0.2717 -0.4443
 2346TIP3    H228598   5.799   1.301   8.667  0.0604  0.9550  0.6290
 2347TIP3   OH228599   3.419   1.849   1.261  0.1140 -0.1386 -0.2196
 2347TIP3    H128600   3.402   1.771   1.208 -0.5856 -1.1959  1.4840
 2347TIP3    H228601   3.359   1.916   1.226  0.6676 -0.3736 -1.6448
 2348TIP3   OH228602   4.412   4.201   7.297  0.0142  0.2107  0.1537
 2348TIP3    H128603   4.458   4.129   7.254 -0.1853 -1.2774  2.2945
 2348TIP3    H228604   4.480   4.265   7.317  0.4249  0.0074 -0.5720
 2349TIP3   OH228605   3.940   6.048   1.264 -0.6225  0.1329 -0.1908
 2349TIP3    H128606   3.935   6.030   1.358 -0.3686  0.3754 -0.1292
 2349TIP3    H228607   3.851   6.034   1.232 -1.0653  1.4947  0.3570
 2350TIP3   OH228608   5.561   4.326   1.765  0.2144 -0.0148  0.6080
 2350TIP3    H128609   5.574   4.232   1.753  0.4481 -0.0848  1.3670
 2350TIP3    H228610   5.638   4.355   1.814  0.6854  0.7874 -0.5557
 2351TIP3   OH228611   3.637   3.277   7.342  0.4178 -0.1058  0.3325
 2351TIP3    H128612   3.600   3.204   7.391  0.8012 -0.1384  0.5752
 2351TIP3    H228613   3.623   3.353   7.398 -1.8295  0.3888 -0.7783
 2352TIP3   OH228614   2.727   1.604   8.648  0.4216  0.0226 -0.3355
 2352TIP3    H128615   2.715   1.528   8.591  1.4266 -0.2610 -0.1967
 2352TIP3    H228616   2.646   1.654   8.640 -0.3213 -1.1471 -0.3021
 2353TIP3   OH228617   4.830   1.767   2.163  0.5258  0.3992 -0.6297
 2353TIP3    H128618   4.861   1.800   2.247  1.2178 -1.5892 -0.0396
 2353TIP3    H228619   4.909   1.750   2.112  0.4098 -2.2286 -0.0998
 2354TIP3   OH228620   3.242   5.587   2.117  0.0176 -0.2725  0.0983
 2354TIP3    H128621   3.190   5.657   2.077 -0.1087 -0.0056  0.7190
 2354TIP3    H228622   3.178   5.522   2.146 -0.0836  0.5624  1.8470
 2355TIP3   OH228623   5.708   5.159   7.265 -0.1639  0.4718 -0.0485
 2355TIP3    H128624   5.717   5.065   7.280 -1.5784  0.5268  1.3253
 2355TIP3    H228625   5.652   5.165   7.188 -1.3421  0.1699  0.7669
 2356TIP3   OH228626   1.506   4.247   1.178 -0.0211 -0.1996  0.2230
 2356TIP3    H128627   1.444   4.305   1.134 -0.1107  0.2698  0.9445
 2356TIP3    H228628   1.569   4.222   1.110 -1.0103 -0.7093 -0.5265
 2357TIP3   OH228629   6.113   5.729   1.641 -0.2880  0.0975  0.2558
 2357TIP3    H128630   6.131   5.706   1.550  1.7629 -1.7846  1.0581
 2357TIP3    H228631   6.122   5.824   1.644  0.8863  0.0669 -1.2623
 2358TIP3   OH228632   5.105   0.137   2.691 -0.1037 -0.1400 -0.1834
 2358TIP3    H128633   5.043   0.209   2.703 -2.4059 -1.7168 -1.7518
 2358TIP3    H228634   5.087   0.104   2.603  0.0141 -3.3193  0.8551
 2359TIP3   OH228635   2.747   6.020   0.259  0.5130 -0.0336  0.2057
 2359TIP3    H128636   2.768   5.936   0.301  0.4954  0.2239  0.7458
 2359TIP3    H228637   2.653   6.017   0.246  0.4487  0.0692  0.6144
 2360TIP3   OH228638   1.751   4.020   0.102 -0.3496  0.1300  0.1038
 2360TIP3    H128639   1.818   3.991   0.040 -0.4979 -0.1132  0.0575
 2360TIP3    H228640   1.691   4.073   0.049  0.4754  1.4099  0.3845
 2361TIP3   OH228641   3.520   5.729   2.045  0.2927  0.0212  0.2519
 2361TIP3    H128642   3.563   5.786   2.108 -0.1819 -1.9100  2.4427
 2361TIP3    H228643   3.429   5.723   2.075  0.1247 -1.1766 -0.4265
 2362TIP3   OH228644   4.654   6.618   0.149 -0.1971 -0.5479 -0.2552
 2362TIP3    H128645   4.568   6.640   0.113  0.2931  1.6943 -0.1905
 2362TIP3    H228646   4.712   6.617   0.074 -0.2738 -2.2724 -0.3281
 2363TIP3   OH228647   3.272   4.806   2.208  0.0339 -0.2944  0.1258
 2363TIP3    H128648   3.224   4.888   2.195  0.3103 -0.5209 -3.2597
 2363TIP3    H228649   3.244   4.776   2.295 -1.3676  2.5040  0.7692
 2364TIP3   OH228650   2.767   1.585   8.320  0.0241  0.1663 -0.2216
 2364TIP3    H128651   2.836   1.529   8.284 -0.7309 -0.4649 -0.7087
 2364TIP3    H228652   2.812   1.637   8.387  1.0543  0.0436 -0.7915
 2365TIP3   OH228653   4.992   0.034   8.010 -0.3780 -0.3269  0.1870
 2365TIP3    H128654   4.915  -0.002   7.967 -1.0113  1.5900 -0.3692
 2365TIP3    H228655   4.962   0.060   8.097 -0.2263  0.0006  0.1412
 2366TIP3   OH228656   1.777   5.578   0.376  0.1880  0.0621 -0.2947
 2366TIP3    H128657   1.831   5.506   0.343  1.7903  1.8459 -1.7504
 2366TIP3    H228658   1.774   5.641   0.305 -0.1692  1.9843  1.3429
 2367TIP3   OH228659   5.897   6.437   1.160  0.1183 -0.1806 -0.3592
 2367TIP3    H128660   5.935   6.437   1.072  0.5552 -1.1076 -0.1768
 2367TIP3    H228661   5.940   6.510   1.205  1.5768 -1.0892 -0.2145
 2368TIP3   OH228662   2.227   3.632   3.370  0.1146  0.1999 -0.2237
 2368TIP3    H128663   2.182   3.677   3.299 -1.1269 -0.5435  0.0714
 2368TIP3    H228664   2.205   3.681   3.448 -1.1979 -0.8346  0.0915
 2369TIP3   OH228665   2.456   5.086   8.568 -0.2870  0.3004  0.1582
 2369TIP3    H128666   2.541   5.123   8.546 -0.7628  0.7397 -1.0098
 2369TIP3    H228667   2.457   4.998   8.530  1.2706 -1.5223  3.8582
 2370TIP3   OH228668   5.722   3.572   0.666 -0.3203 -0.6288 -0.2528
 2370TIP3    H128669   5.649   3.600   0.721  1.1226 -1.8568  2.5021
 2370TIP3    H228670   5.747   3.486   0.702  0.9780 -1.3499 -2.6465
 2371TIP3   OH228671   2.107   3.019   2.022 -0.4961  0.0825 -0.1850
 2371TIP3    H128672   2.146   3.098   2.059  1.4466 -1.0404  0.3162
 2371TIP3    H228673   2.182   2.962   2.004 -1.7790 -1.3121 -1.3364
 2372TIP3   OH228674   6.488   1.797   0.719  0.5813  0.1643  0.0523
 2372TIP3    H128675   6.478   1.738   0.793 -2.2175  1.4620  0.8226
 2372TIP3    H228676   6.574   1.775   0.682  0.3406 -3.2263  1.2312
 2373TIP3   OH228677   2.593   6.101   2.162  0.0870 -0.4992  0.1156
 2373TIP3    H128678   2.519   6.133   2.109  0.4509 -1.8882 -1.2935
 2373TIP3    H228679   2.630   6.181   2.201 -2.2411  0.2246  1.0391
 2374TIP3   OH228680   1.789   2.641   1.584 -0.2643 -0.1893  0.1970
 2374TIP3    H128681   1.802   2.614   1.675 -0.9895 -0.7404  0.1495
 2374TIP3    H228682   1.744   2.725   1.590  0.7502  0.3644  0.3406
 2375TIP3   OH228683   0.500   5.889   7.980 -0.1362  0.1975  0.9900
 2375TIP3    H128684   0.419   5.939   7.967  0.3021  0.6138 -0.1938
 2375TIP3    H228685   0.562   5.953   8.015 -0.2000 -0.0337  1.5354
 2376TIP3   OH228686   6.282   1.582   0.290  0.2681 -0.6915  0.2935
 2376TIP3    H128687   6.330   1.564   0.371  0.1035  1.7884  1.0299
 2376TIP3    H228688   6.252   1.672   0.300 -0.0744 -0.4380 -2.3933
 2377TIP3   OH228689   2.995   4.699   8.394 -0.7739 -0.2688 -0.0842
 2377TIP3    H128690   2.911   4.738   8.367 -1.3213  0.4179  2.4047
 2377TIP3    H228691   3.061   4.754   8.350 -1.5935  0.4220 -0.5067
 2378TIP3   OH228692   1.402   2.498   0.226 -0.2643  0.1038  0.1577
 2378TIP3    H128693   1.393   2.508   0.131 -0.9717 -0.1686  0.1869
 2378TIP3    H228694   1.392   2.586   0.262  1.3614  0.4223 -0.1016
 2379TIP3   OH228695   2.922   1.185   2.399 -0.1031 -0.0962  0.3914
 2379TIP3    H128696   2.851   1.124   2.419 -3.5118  2.2661 -2.8719
 2379TIP3    H228697   2.899   1.264   2.447  0.7946  0.4557 -0.0681
 2380TIP3   OH228698   2.818   2.303   1.998  0.8956  0.6420 -0.2863
 2380TIP3    H128699   2.729   2.337   1.988  0.1110 -0.4141  2.2387
 2380TIP3    H228700   2.870   2.379   2.021  0.3800  1.0658 -0.4845
 2381TIP3   OH228701   4.170   5.873   1.266  0.5387  0.5931 -0.8037
 2381TIP3    H128702   4.232   5.897   1.335  0.8636 -0.4287 -0.7319
 2381TIP3    H228703   4.110   5.947   1.261  0.3981  0.5962  0.6918
 2382TIP3   OH228704   5.816   5.013   2.140  0.0440  0.4114  0.3188
 2382TIP3    H128705   5.904   5.048   2.125  1.1025 -2.2175 -0.2648
 2382TIP3    H228706   5.830   4.936   2.195 -1.5212 -1.4270 -1.6388
 2383TIP3   OH228707   3.445   1.091   7.332  0.0380 -0.0912  0.1485
 2383TIP3    H128708   3.421   1.045   7.251 -1.1039 -0.8374  0.8738
 2383TIP3    H228709   3.538   1.108   7.323  0.2924 -1.6974 -0.5902
 2384TIP3   OH228710   5.434   6.002   8.357  0.1869  0.1634 -0.2335
 2384TIP3    H128711   5.391   6.087   8.355  2.1704  1.3699  2.5228
 2384TIP3    H228712   5.510   6.012   8.300  0.0332 -0.0407 -0.4799
 2385TIP3   OH228713   3.071   0.605   0.333 -0.0107  0.2566  0.4923
 2385TIP3    H128714   3.038   0.545   0.267  1.2000 -0.5518  0.5845
 2385TIP3    H228715   3.166   0.603   0.322  0.0746  2.3859  0.3091
 2386TIP3   OH228716   0.227   1.890   8.507 -0.4527  0.7838 -0.1043
 2386TIP3    H128717   0.217   1.814   8.451  0.7085  1.5866 -1.4670
 2386TIP3    H228718   0.173   1.958   8.466  0.1460  1.2872 -0.0759
 2387TIP3   OH228719   5.441   2.179   0.823 -0.2058  0.9950 -0.7408
 2387TIP3    H128720   5.378   2.243   0.790  0.2095  1.3344 -0.8767
 2387TIP3    H228721   5.526   2.217   0.804  0.0895 -0.3580 -2.3689
 2388TIP3   OH228722   1.250   6.612   2.168 -0.7003  0.3016  0.2561
 2388TIP3    H128723   1.210   6.573   2.090 -2.5208  1.8913  0.3263
 2388TIP3    H228724   1.342   6.624   2.145 -0.3944 -2.4026 -0.3441
 2389TIP3   OH228725   3.754   0.457   1.146  0.2884  0.5643 -0.5101
 2389TIP3    H128726   3.779   0.369   1.118 -0.4208  0.0483  0.4421
 2389TIP3    H228727   3.756   0.454   1.242  0.2067  1.5663 -0.4631
 2390TIP3   OH228728   2.171   6.142   7.495  0.6588 -0.0670 -0.2609
 2390TIP3    H128729   2.138   6.073   7.436 -2.3791  1.9378 -1.1760
 2390TIP3    H228730   2.264   6.147   7.476  0.3151 -1.4503 -2.8840
 2391TIP3   OH228731   6.780   5.452   0.084 -0.0209 -0.2560  0.0949
 2391TIP3    H128732   6.699   5.492   0.117  1.0523 -0.1835  2.8630
 2391TIP3    H228733   6.750   5.372   0.041 -1.6953  0.6572 -0.5644
 2392TIP3   OH228734   5.381   3.144   0.734 -0.0289 -0.0886  0.0638
 2392TIP3    H128735   5.398   3.235   0.710  0.4558 -0.5717 -1.5925
 2392TIP3    H228736   5.303   3.120   0.684 -0.1775 -0.5721  0.5220
 2393TIP3   OH228737   4.006   4.711   7.902  0.6785  0.2992 -0.2136
 2393TIP3    H128738   3.964   4.797   7.900 -0.6435 -0.2890  0.9636
 2393TIP3    H228739   4.057   4.708   7.820 -0.4666  1.5911 -1.0222
 2394TIP3   OH228740   6.161   0.751   8.359  0.6995 -0.5910  0.2697
 2394TIP3    H128741   6.083   0.779   8.311 -0.0993  0.9193  2.2922
 2394TIP3    H228742   6.206   0.691   8.300 -1.1521 -0.2438 -1.5907
 2395TIP3   OH228743   3.257   4.429   1.605  0.5553 -0.2397  0.2126
 2395TIP3    H128744   3.317   4.388   1.542 -1.0005 -2.0287 -0.1731
 2395TIP3    H228745   3.314   4.455   1.678  1.9274 -1.1060 -0.4971
 2396TIP3   OH228746   1.511   5.000   6.923 -0.2859  0.5588 -0.7331
 2396TIP3    H128747   1.531   5.077   6.870  0.2098  1.7034  1.0403
 2396TIP3    H228748   1.560   4.929   6.881  1.1248  1.6956 -1.0813
 2397TIP3   OH228749   4.845   5.606   8.579  0.0547 -0.0065  0.5462
 2397TIP3    H128750   4.765   5.652   8.603 -1.3065 -2.0614  0.1757
 2397TIP3    H228751   4.895   5.601   8.661 -1.3906 -0.9498  1.3999
 2398TIP3   OH228752   6.868   0.095   1.712  0.1311 -0.4309 -0.9730
 2398TIP3    H128753   6.938   0.031   1.723 -0.4979 -1.1901 -1.2745
 2398TIP3    H228754   6.812   0.083   1.789 -0.3571 -0.7404 -1.3635
 2399TIP3   OH228755   2.872   5.037   7.267  0.0350 -0.0145  0.7886
 2399TIP3    H128756   2.829   5.013   7.348  1.2917 -1.2791  1.1231
 2399TIP3    H228757   2.867   4.959   7.212  3.8146 -1.1066  1.7274
 2400TIP3   OH228758   5.946   4.043   8.220  0.0884 -0.3721  0.7011
 2400TIP3    H128759   5.876   4.099   8.252 -1.4305 -1.6356 -0.2903
 2400TIP3    H228760   5.914   4.009   8.136  3.0642  1.2644 -1.3109
 2401TIP3   OH228761   1.750   6.659   7.375  0.0057  0.1487  0.0283
 2401TIP3    H128762   1.829   6.609   7.398 -0.3759  0.2542  1.6923
 2401TIP3    H228763   1.699   6.662   7.456 -0.1177  3.0480 -0.0595
 2402TIP3   OH228764   3.359   0.260   0.967 -0.2475 -0.7406  0.1727
 2402TIP3    H128765   3.352   0.258   0.871  1.0194 -1.8177  0.0705
 2402TIP3    H228766   3.338   0.350   0.991 -0.0379 -0.3058 -1.1789
 2403TIP3   OH228767   1.810   4.770   1.135  0.0786  0.3104  0.0851
 2403TIP3    H128768   1.770   4.705   1.077  0.6564  0.1306 -0.1201
 2403TIP3    H228769   1.880   4.809   1.083 -0.9217  1.8768 -0.1650
 2404TIP3   OH228770   2.512   1.853   8.546  0.0015 -0.2691 -0.1905
 2404TIP3    H128771   2.529   1.835   8.454 -0.4466  0.2398 -0.3760
 2404TIP3    H228772   2.418   1.840   8.556  0.0182 -0.1252  0.1508
 2405TIP3   OH228773   3.969   2.634   0.218 -0.5689  0.1163 -0.0322
 2405TIP3    H128774   3.879   2.604   0.219  0.2148 -2.5052  0.2138
 2405TIP3    H228775   3.995   2.633   0.311 -0.1366  0.3230 -0.1478
 2406TIP3   OH228776   0.009   3.066   2.080  0.3232  0.0489 -0.2905
 2406TIP3    H128777   0.027   3.130   2.148 -1.4519 -0.0316  0.2904
 2406TIP3    H228778   0.093   3.056   2.034  0.5709  3.0182 -0.6301
 2407TIP3   OH228779   0.994   4.458   1.026  0.3645 -0.2374  0.2222
 2407TIP3    H128780   0.923   4.408   1.066  0.1065 -0.8630 -0.9776
 2407TIP3    H228781   1.051   4.482   1.100 -1.4216  0.8903  1.3155
 2408TIP3   OH228782   5.303   6.866   2.467 -0.4206 -0.1742 -0.0025
 2408TIP3    H128783   5.357   6.906   2.398 -1.5318  0.8569 -0.3083
 2408TIP3    H228784   5.221   6.844   2.423 -0.6954 -0.6284  0.7252
 2409TIP3   OH228785   5.556   6.641   1.490  0.6479 -0.2002 -0.3448
 2409TIP3    H128786   5.494   6.571   1.469 -1.2356  0.9909  0.8865
 2409TIP3    H228787   5.503   6.707   1.535  2.3991  1.8730 -1.1372
 2410TIP3   OH228788   3.399   2.818   2.807 -0.0231 -0.1043  0.1492
 2410TIP3    H128789   3.351   2.864   2.738 -0.4065 -1.0326 -0.2260
 2410TIP3    H228790   3.486   2.860   2.808  0.0927 -0.2726 -1.1173
 2411TIP3   OH228791   1.696   3.945   1.580 -0.1790  0.3324 -0.5429
 2411TIP3    H128792   1.775   3.933   1.528 -0.0599  1.0168 -0.5371
 2411TIP3    H228793   1.632   3.980   1.519  0.0745  1.5077 -0.1712
 2412TIP3   OH228794   1.011   0.289   1.449 -0.6260  0.4712 -0.3150
 2412TIP3    H128795   0.959   0.217   1.485  0.5803 -0.5151 -0.4422
 2412TIP3    H228796   1.093   0.247   1.421 -0.1129  1.8106 -0.9199
 2413TIP3   OH228797   5.792   4.195   6.972 -0.1633  0.3885  0.4260
 2413TIP3    H128798   5.772   4.232   6.886  0.7108  4.0190  1.6320
 2413TIP3    H228799   5.887   4.204   6.981  0.0896 -2.0228  0.9850
 2414TIP3   OH228800   2.901   3.614   1.494  0.8313 -0.5512 -0.3083
 2414TIP3    H128801   2.888   3.702   1.460 -0.5230 -0.6460 -0.1094
 2414TIP3    H228802   2.936   3.627   1.582  1.0598 -0.2315 -0.4456
 2415TIP3   OH228803   1.951   3.743   0.717 -0.3874  0.6617 -0.1797
 2415TIP3    H128804   2.044   3.736   0.697 -0.6076 -2.1843 -0.7152
 2415TIP3    H228805   1.941   3.700   0.802 -1.3021  0.1012 -0.5558
 2416TIP3   OH228806   0.576   4.436   1.692 -0.4822  0.4907  0.1548
 2416TIP3    H128807   0.520   4.447   1.615 -0.1363  3.1792  0.2011
 2416TIP3    H228808   0.629   4.516   1.696  0.0443  0.1211  2.7579
 2417TIP3   OH228809   4.599   5.700   8.568 -0.0315  0.7105 -0.6122
 2417TIP3    H128810   4.515   5.677   8.608 -0.1534  0.4316 -1.0231
 2417TIP3    H228811   4.599   5.653   8.484  1.1474 -0.4760  0.0115
 2418TIP3   OH228812   6.692   2.806   0.868 -0.0518  0.3527  0.4384
 2418TIP3    H128813   6.663   2.887   0.826  3.2704  2.4747  1.7597
 2418TIP3    H228814   6.658   2.736   0.813 -1.6605  2.6827 -1.7569
 2419TIP3   OH228815   0.188   5.232   2.362  0.3410 -0.0815  0.3112
 2419TIP3    H128816   0.183   5.287   2.440  1.0879  0.2814  0.1194
 2419TIP3    H228817   0.262   5.269   2.312 -1.4461  1.1206 -1.6351
 2420TIP3   OH228818   1.157   2.176   8.651  0.1924 -0.6121 -0.1357
 2420TIP3    H128819   1.151   2.271   8.642 -2.3940 -0.7128 -0.2563
 2420TIP3    H228820   1.191   2.146   8.566  0.9105  0.1789 -0.1383
 2421TIP3   OH228821   0.766   3.544   1.277 -0.0491  0.3550 -0.3912
 2421TIP3    H128822   0.810   3.610   1.330 -2.3050  4.0656 -2.7441
 2421TIP3    H228823   0.689   3.519   1.329  0.3232  0.2250  0.1129
 2422TIP3   OH228824   4.600   3.608   7.520  0.3775  0.8188 -0.3648
 2422TIP3    H128825   4.616   3.515   7.537  0.7846  0.6069 -1.7677
 2422TIP3    H228826   4.532   3.633   7.582 -0.4137 -0.6651 -0.6019
 2423TIP3   OH228827   5.256   1.858   0.236  0.0948 -0.4382 -0.0848
 2423TIP3    H128828   5.240   1.780   0.182 -0.8608  0.3431 -0.9671
 2423TIP3    H228829   5.250   1.931   0.174  2.0634  0.2876  0.5186
 2424TIP3   OH228830   6.527   1.408   1.191  0.0962  0.1184 -0.0221
 2424TIP3    H128831   6.484   1.471   1.248  0.2356  0.6134 -0.4536
 2424TIP3    H228832   6.606   1.383   1.238  0.5718  1.0555 -0.2971
 2425TIP3   OH228833   1.639   6.583   1.028 -0.2733 -0.2781 -0.1873
 2425TIP3    H128834   1.673   6.527   0.958 -0.4912 -0.4667 -0.1422
 2425TIP3    H228835   1.645   6.529   1.107 -0.4035 -0.2057 -0.1286
 2426TIP3   OH228836   6.324   2.480   2.054  0.5652 -0.2587 -0.1078
 2426TIP3    H128837   6.328   2.420   2.128  2.0011 -2.5935 -1.9248
 2426TIP3    H228838   6.346   2.426   1.978  0.9667  2.3788 -2.0215
 2427TIP3   OH228839   2.599   3.778   6.891  0.2545 -0.5822  0.5730
 2427TIP3    H128840   2.654   3.704   6.917  1.2406  0.3958  1.3784
 2427TIP3    H228841   2.659   3.853   6.888 -0.4414 -0.0488 -1.5719
 2428TIP3   OH228842   0.114   0.651   1.513  0.3942 -0.0685  0.0495
 2428TIP3    H128843   0.033   0.700   1.521  0.0725 -0.3731 -1.1488
 2428TIP3    H228844   0.087   0.559   1.514  0.5118 -0.1610 -2.0382
 2429TIP3   OH228845   4.089   2.544   0.928 -0.7008 -0.0250 -0.3491
 2429TIP3    H128846   4.047   2.459   0.926  0.5063 -0.6334 -0.9762
 2429TIP3    H228847   4.089   2.569   1.020 -2.2612 -0.0587 -0.3064
 2430TIP3   OH228848   6.022   4.949   1.250  0.0544 -0.4248 -0.3326
 2430TIP3    H128849   6.048   4.944   1.342  0.1556 -0.2438 -0.3498
 2430TIP3    H228850   5.971   4.870   1.235 -1.0260  0.1528  0.2098
 2431TIP3   OH228851   2.251   6.210   1.762  0.5908  0.0370  0.0555
 2431TIP3    H128852   2.158   6.226   1.777  0.1173 -1.9221 -0.4093
 2431TIP3    H228853   2.254   6.168   1.675  1.8430 -0.3119  0.2514
 2432TIP3   OH228854   2.481   2.418   0.018  0.3067  0.4429 -0.1040
 2432TIP3    H128855   2.554   2.356   0.025 -1.2779 -2.6192 -5.1607
 2432TIP3    H228856   2.403   2.365   0.035 -0.9824  2.1622 -0.4397
 2433TIP3   OH228857   2.510   3.347   8.261  0.5711 -0.1595 -0.3611
 2433TIP3    H128858   2.444   3.313   8.201  1.0866 -0.9606 -0.4875
 2433TIP3    H228859   2.463   3.361   8.343  0.1476 -0.3006 -0.5770
 2434TIP3   OH228860   2.642   4.395   2.295  0.4075  0.4764 -0.0076
 2434TIP3    H128861   2.622   4.304   2.273 -0.1456  1.0000 -1.7980
 2434TIP3    H228862   2.558   4.433   2.319  0.3340  0.9338 -0.9343
 2435TIP3   OH228863   1.206   0.779   2.931 -0.6075 -0.2026  0.0162
 2435TIP3    H128864   1.271   0.827   2.880 -0.0273 -1.9762 -1.0177
 2435TIP3    H228865   1.125   0.828   2.920  0.2168  1.2124  0.0756
 2436TIP3   OH228866   5.143   2.260   8.601 -0.4096 -0.1470 -0.2972
 2436TIP3    H128867   5.214   2.324   8.603  0.3195 -0.9269  1.6466
 2436TIP3    H228868   5.084   2.292   8.533 -0.3178  2.8429  0.8779
 2437TIP3   OH228869   1.985   6.092   1.389  0.1256  0.4185  0.0820
 2437TIP3    H128870   1.995   6.132   1.476  2.1696 -1.7644  0.9448
 2437TIP3    H228871   1.986   6.166   1.329 -0.8498  1.9686  1.8423
 2438TIP3   OH228872   4.880   0.177   8.214 -0.4214  0.2443  0.4538
 2438TIP3    H128873   4.841   0.249   8.263 -1.5696 -0.5372  0.7102
 2438TIP3    H228874   4.850   0.098   8.259 -0.1681 -0.4368 -0.5399
 2439TIP3   OH228875   1.151   6.857   1.960  0.0966 -0.8890  0.3785
 2439TIP3    H128876   1.072   6.909   1.942  1.4082  0.2882 -2.6558
 2439TIP3    H228877   1.123   6.766   1.949 -1.0378 -0.5336  0.1691
 2440TIP3   OH228878   1.609   1.355   2.708  0.2448 -0.3136 -0.4875
 2440TIP3    H128879   1.675   1.332   2.772  1.6887 -0.2342 -1.8809
 2440TIP3    H228880   1.605   1.451   2.710 -1.1446 -0.3558  0.8146
 2441TIP3   OH228881   4.183   2.026   2.487  0.2030  0.3385 -0.0447
 2441TIP3    H128882   4.133   2.105   2.507  0.2524  0.9726 -2.1959
 2441TIP3    H228883   4.260   2.032   2.543 -0.1369  1.4463  0.3397
 2442TIP3   OH228884   3.686   4.527   2.279  0.1823 -0.3768  0.5883
 2442TIP3    H128885   3.755   4.521   2.345 -0.2201 -0.9646  0.9529
 2442TIP3    H228886   3.653   4.616   2.287  0.6755 -0.1942  0.6341
 2443TIP3   OH228887   1.908   3.614   2.598  0.1667  0.1154 -0.1797
 2443TIP3    H128888   1.865   3.581   2.677  2.9090  1.0740  1.8742
 2443TIP3    H228889   1.915   3.708   2.612  2.9905  0.0053 -0.2257
 2444TIP3   OH228890   4.726   6.114   0.437 -0.2615  0.0172 -0.4079
 2444TIP3    H128891   4.815   6.083   0.451  0.4156  2.1156  0.4436
 2444TIP3    H228892   4.684   6.106   0.523 -1.0864 -1.4194 -0.9164
 2445TIP3   OH228893   4.463   1.419   2.571  0.1426  0.2636 -0.5087
 2445TIP3    H128894   4.492   1.417   2.662  0.2231  1.0971 -0.5129
 2445TIP3    H228895   4.457   1.512   2.550 -1.9683  0.1422 -0.6776
 2446TIP3   OH228896   3.825   3.524   8.613  0.0530 -0.7892  0.0424
 2446TIP3    H128897   3.885   3.578   8.560  0.2618 -1.6756 -0.6463
 2446TIP3    H228898   3.882   3.476   8.672  0.3116 -3.3244 -2.1108
 2447TIP3   OH228899   0.293   5.528   3.119 -0.3476 -0.3364  0.0051
 2447TIP3    H128900   0.239   5.491   3.049 -0.6421  0.4576 -0.1974
 2447TIP3    H228901   0.290   5.622   3.104  1.4287 -0.2889 -0.2538
 2448TIP3   OH228902   5.856   1.921   7.117 -0.3616  0.1561  1.0029
 2448TIP3    H128903   5.804   1.841   7.123 -0.9625  0.4535  0.0654
 2448TIP3    H228904   5.839   1.954   7.029  1.0308  0.5377  0.8511
 2449TIP3   OH228905   3.622   3.685   8.068  0.1483 -0.6862 -0.1548
 2449TIP3    H128906   3.560   3.741   8.022  0.0503 -0.7038 -0.0455
 2449TIP3    H228907   3.568   3.616   8.106 -0.7053  2.2047  4.6916
 2450TIP3   OH228908   5.548   6.075   1.478  0.0492 -0.0405 -0.2651
 2450TIP3    H128909   5.603   6.123   1.417 -0.0633 -0.0867 -0.4016
 2450TIP3    H228910   5.472   6.047   1.427 -0.2673  0.3172  0.0045
 2451TIP3   OH228911   1.722   0.350   0.659 -0.3330  0.4990  0.3134
 2451TIP3    H128912   1.760   0.262   0.650  0.7426  0.7893  1.6377
 2451TIP3    H228913   1.628   0.337   0.646  0.0889 -0.2337 -3.2629
 2452TIP3   OH228914   3.680   5.770   0.916 -0.4329 -0.0168  0.0325
 2452TIP3    H128915   3.689   5.677   0.934  0.7068 -0.0776 -0.7596
 2452TIP3    H228916   3.667   5.776   0.822 -0.2343  0.6378  0.0390
 2453TIP3   OH228917   4.451   6.216   0.826 -0.1416  0.3376  0.2211
 2453TIP3    H128918   4.451   6.308   0.801  1.8627 -0.0450 -1.4628
 2453TIP3    H228919   4.413   6.171   0.751 -0.2637 -0.2955  0.6520
 2454TIP3   OH228920   2.211   3.388   2.694 -0.6906  0.3738 -0.3928
 2454TIP3    H128921   2.226   3.423   2.782  0.0638 -4.2145  1.5956
 2454TIP3    H228922   2.298   3.364   2.663 -1.2420 -0.7385 -1.1303
 2455TIP3   OH228923   6.328   1.645   1.398 -0.1495 -0.4215  0.1054
 2455TIP3    H128924   6.324   1.690   1.482  1.0116 -1.1726  0.5959
 2455TIP3    H228925   6.253   1.678   1.349  0.6629  2.0579  0.4090
 2456TIP3   OH228926   6.815   5.366   0.354  0.5522 -0.1992 -0.3905
 2456TIP3    H128927   6.831   5.383   0.261 -3.3664  1.4309 -0.9766
 2456TIP3    H228928   6.783   5.450   0.388  1.1937 -0.9510  2.2908
 2457TIP3   OH228929   3.765   2.077   2.351  0.3028 -0.4779  0.2283
 2457TIP3    H128930   3.706   2.040   2.286 -0.4275 -0.1491  0.6888
 2457TIP3    H228931   3.810   2.148   2.305  1.1489 -1.4270 -0.4352
 2458TIP3   OH228932   6.514   1.214   0.673  0.2473 -0.3568 -0.1347
 2458TIP3    H128933   6.541   1.236   0.762  4.3279 -0.7248 -1.0864
 2458TIP3    H228934   6.554   1.281   0.618  2.1902 -2.8425 -2.0089
 2459TIP3   OH228935   4.617   3.217   7.367  0.4994 -0.2107 -0.6586
 2459TIP3    H128936   4.691   3.260   7.410  0.6791 -0.7447 -0.4343
 2459TIP3    H228937   4.653   3.137   7.330 -0.0184 -0.5963 -0.3414
 2460TIP3   OH228938   6.069   4.694   6.779 -0.2429 -0.1434 -0.3121
 2460TIP3    H128939   6.017   4.636   6.835  0.7764 -0.5576  0.2387
 2460TIP3    H228940   6.084   4.772   6.832 -3.0152  1.4179 -1.6445
 2461TIP3   OH228941   5.273   6.460   2.352 -0.5494  0.5057 -0.0892
 2461TIP3    H128942   5.349   6.403   2.348  1.1972  2.7830 -2.2491
 2461TIP3    H228943   5.233   6.441   2.437  1.2467 -2.1745  0.2652
 2462TIP3   OH228944   3.257   3.731   6.623  0.0964 -0.3887  0.0580
 2462TIP3    H128945   3.227   3.799   6.683 -0.4133  1.6904 -2.3893
 2462TIP3    H228946   3.333   3.692   6.667 -1.5524 -0.5777  2.9969
 2463TIP3   OH228947   4.512   5.157   7.785 -0.3331  0.2729 -0.6837
 2463TIP3    H128948   4.456   5.233   7.803 -0.0770  0.8115 -1.9961
 2463TIP3    H228949   4.551   5.177   7.700  2.4015  0.2438  0.4650
 2464TIP3   OH228950   5.027   5.427   1.520  0.1476 -0.0039  0.4677
 2464TIP3    H128951   4.934   5.410   1.506  0.8689 -2.6947 -1.8353
 2464TIP3    H228952   5.046   5.388   1.606 -0.4097 -1.5775 -0.0945
 2465TIP3   OH228953   6.702   4.846   0.618  0.7476 -0.1492  0.4471
 2465TIP3    H128954   6.748   4.846   0.533  0.8708  2.9699  0.3975
 2465TIP3    H228955   6.616   4.884   0.599  0.4225 -0.2920  1.5641
 2466TIP3   OH228956   6.604   5.824   0.640 -0.0681 -0.3206 -0.1048
 2466TIP3    H128957   6.610   5.904   0.587 -4.2356  0.1467 -0.1708
 2466TIP3    H228958   6.675   5.833   0.703 -0.1574  3.3738 -0.2827
 2467TIP3   OH228959   5.640   4.087   0.175  0.2021  0.2405  0.6570
 2467TIP3    H128960   5.677   4.159   0.123 -0.1574 -0.0265  0.0173
 2467TIP3    H228961   5.696   4.012   0.155 -0.9294 -0.2868 -0.6949
 2468TIP3   OH228962   1.920   3.902   2.495  0.1459  0.4920  0.1959
 2468TIP3    H128963   1.881   3.948   2.570 -0.6679  0.7112 -0.3422
 2468TIP3    H228964   1.844   3.869   2.446  0.6928 -0.9230  0.2463
 2469TIP3   OH228965   5.340   5.520   8.138  0.3649  0.0873 -0.1383
 2469TIP3    H128966   5.320   5.488   8.226 -1.8891 -0.8451 -0.9122
 2469TIP3    H228967   5.255   5.526   8.095  1.4266  0.2804 -2.3449
 2470TIP3   OH228968   4.658   4.121   2.047  0.8907 -0.9294  0.3287
 2470TIP3    H128969   4.686   4.047   1.992  0.0293  0.1786 -1.6956
 2470TIP3    H228970   4.573   4.094   2.080 -0.1800 -0.2565 -1.7311
 2471TIP3   OH228971   1.721   1.245   8.406  0.0950  0.1385 -0.3531
 2471TIP3    H128972   1.782   1.318   8.413 -1.1936  1.2447 -0.0186
 2471TIP3    H228973   1.746   1.200   8.325  2.5698 -0.6831  0.7749
 2472TIP3   OH228974   3.975   2.783   3.134  0.1328 -0.1638  0.3535
 2472TIP3    H128975   3.975   2.707   3.076  2.7782 -0.7974  1.0700
 2472TIP3    H228976   4.001   2.748   3.220 -0.2765  1.2883  1.1068
 2473TIP3   OH228977   1.305   5.367   1.712 -0.4928 -0.3727  0.0437
 2473TIP3    H128978   1.209   5.376   1.709 -0.3109  2.9644 -0.4572
 2473TIP3    H228979   1.336   5.435   1.652  2.2258 -2.0499 -0.6086
 2474TIP3   OH228980   3.822   3.767   0.786 -0.5520 -0.8816  0.1240
 2474TIP3    H128981   3.782   3.852   0.803 -0.3250 -0.7859  0.1792
 2474TIP3    H228982   3.812   3.719   0.869 -0.4180 -0.8041  0.1850
 2475TIP3   OH228983   6.240   3.191   2.171 -0.6982  0.2485  0.0971
 2475TIP3    H128984   6.171   3.207   2.106 -0.0394  2.1078 -0.1864
 2475TIP3    H228985   6.280   3.276   2.186  0.5369 -0.5150  1.4250
 2476TIP3   OH228986   6.141   0.805   7.865  0.3761  0.3342 -1.0598
 2476TIP3    H128987   6.054   0.785   7.830  0.2095 -0.4673 -0.2383
 2476TIP3    H228988   6.148   0.900   7.859 -1.7097  0.7725  1.3991
 2477TIP3   OH228989   6.811   1.620   1.012 -0.3115  0.2515  0.3188
 2477TIP3    H128990   6.894   1.574   1.022  0.5863  2.0256  1.3854
 2477TIP3    H228991   6.773   1.622   1.100 -2.0558 -1.4446 -0.3066
 2478TIP3   OH228992   2.716   1.847   2.386 -0.0149  0.4853  0.0735
 2478TIP3    H128993   2.687   1.798   2.309  1.6164 -0.5404  0.0828
 2478TIP3    H228994   2.762   1.923   2.350  0.9012 -0.0862  0.0177
 2479TIP3   OH228995   2.641   2.365   1.295 -0.4060  0.7158 -0.2047
 2479TIP3    H128996   2.680   2.370   1.208  1.2578  2.0189  0.5496
 2479TIP3    H228997   2.550   2.340   1.279  0.2025 -0.4680 -2.1919
 2480TIP3   OH228998   1.018   0.657   2.223  0.2232  0.1451 -0.0252
 2480TIP3    H128999   1.057   0.640   2.309 -0.9163  0.5923  0.5865
 2480TIP3    H229000   0.948   0.719   2.240 -0.4408 -0.2668 -1.1842
 2481TIP3   OH229001   2.119   5.512   7.662  0.0985 -0.5256  0.4818
 2481TIP3    H129002   2.098   5.601   7.635 -1.0164 -0.9727 -0.1862
 2481TIP3    H229003   2.048   5.487   7.721  1.0461 -0.5566  1.6460
 2482TIP3   OH229004   4.681   5.927   2.767 -0.3453 -0.2827  1.1536
 2482TIP3    H129005   4.636   5.918   2.851 -1.8873  0.1046  0.3930
 2482TIP3    H229006   4.611   5.943   2.703  0.7306 -1.2631 -0.3300
 2483TIP3   OH229007   0.105   5.699   0.785  0.2846  0.7342  0.5616
 2483TIP3    H129008   0.161   5.738   0.852 -0.1302  1.6120  0.4136
 2483TIP3    H229009   0.024   5.749   0.789 -0.3376 -0.2453  0.4731
 2484TIP3   OH229010   2.275   2.626   1.882  0.0915  0.6933 -0.0796
 2484TIP3    H129011   2.240   2.568   1.814  0.1642  3.7229 -2.9085
 2484TIP3    H229012   2.213   2.618   1.954 -2.1468  0.0988 -1.9413
 2485TIP3   OH229013   6.207   5.059   1.825 -0.5328 -0.0319  0.0562
 2485TIP3    H129014   6.188   5.010   1.905 -0.8267  1.6245  1.0570
 2485TIP3    H229015   6.120   5.078   1.788 -0.3894 -0.9777 -0.7932
 2486TIP3   OH229016   0.845   0.321   8.352  0.3852 -0.1499  0.2184
 2486TIP3    H129017   0.913   0.349   8.291 -0.7369  1.5964 -0.2924
 2486TIP3    H229018   0.845   0.388   8.421 -0.9723  0.0420  0.0655
 2487TIP3   OH229019   1.625   0.954   1.252 -0.3914 -0.4134  0.0674
 2487TIP3    H129020   1.652   1.040   1.282  0.8474 -1.4740  2.1908
 2487TIP3    H229021   1.559   0.926   1.316  0.8673 -1.9287  0.7618
 2488TIP3   OH229022   6.699   3.668   2.206  0.1635 -0.0423 -0.0155
 2488TIP3    H129023   6.737   3.680   2.293  3.3575  1.5667 -1.5000
 2488TIP3    H229024   6.633   3.737   2.199  1.0554  0.8871  0.5451
 2489TIP3   OH229025   5.422   1.322   0.478 -0.1138 -0.0583 -0.0521
 2489TIP3    H129026   5.449   1.250   0.536  1.5714  0.0451 -0.6413
 2489TIP3    H229027   5.372   1.279   0.409 -0.7554 -0.3977  0.6097
 2490TIP3   OH229028   6.190   0.672   2.546 -0.3293  0.0754 -0.0316
 2490TIP3    H129029   6.238   0.715   2.475  0.7115 -0.9504  0.0254
 2490TIP3    H229030   6.235   0.701   2.626 -0.7987  0.3453  0.1365
 2491TIP3   OH229031   4.349   5.754   8.027  0.5320 -0.5414  0.5432
 2491TIP3    H129032   4.346   5.769   7.933 -3.3934 -0.3709  0.5223
 2491TIP3    H229033   4.383   5.836   8.063 -1.7737  1.0420 -0.6231
 2492TIP3   OH229034   5.689   5.665   2.466  0.0833 -0.0730 -0.1056
 2492TIP3    H129035   5.746   5.714   2.526 -0.3711 -1.0982  1.2116
 2492TIP3    H229036   5.630   5.615   2.523 -0.6424 -0.7850 -1.4141
 2493TIP3   OH229037   0.909   6.377   7.223 -0.6813  0.3531 -0.1852
 2493TIP3    H129038   0.955   6.462   7.228  1.7536 -0.8087 -1.1550
 2493TIP3    H229039   0.888   6.367   7.131  0.7780 -0.8842 -0.4276
 2494TIP3   OH229040   6.425   0.263   0.381 -0.0877  0.0741 -0.0892
 2494TIP3    H129041   6.479   0.233   0.454  0.7491 -0.3780 -0.8786
 2494TIP3    H229042   6.390   0.182   0.342 -2.1052  0.3754  0.9441
 2495TIP3   OH229043   6.700   2.353   0.769  0.0107  0.2113  0.7319
 2495TIP3    H129044   6.714   2.277   0.712 -0.9273  0.6367 -0.1125
 2495TIP3    H229045   6.768   2.347   0.835  0.9059 -0.5211 -0.2237
 2496TIP3   OH229046   4.597   4.434   1.914  0.0821  0.2283 -0.5970
 2496TIP3    H129047   4.634   4.423   2.001 -0.7127 -1.1096 -0.3971
 2496TIP3    H229048   4.549   4.516   1.918  0.1601  0.2414  0.1858
 2497TIP3   OH229049   2.883   6.509   8.077  0.0804  0.3894  0.2260
 2497TIP3    H129050   2.937   6.438   8.112 -0.2045  0.0708  0.0275
 2497TIP3    H229051   2.838   6.545   8.153 -0.1816  0.0027  0.2599
 2498TIP3   OH229052   3.806   1.061   0.170 -0.5880  0.2365  0.1451
 2498TIP3    H129053   3.728   1.029   0.214 -0.2631 -0.1495  0.4484
 2498TIP3    H229054   3.775   1.132   0.114 -1.1231  0.2083  0.4033
 2499TIP3   OH229055   3.527   6.606   8.232  0.0310  0.3672  0.1362
 2499TIP3    H129056   3.498   6.661   8.159  2.1143 -2.3575 -3.0001
 2499TIP3    H229057   3.451   6.550   8.251  0.1594 -0.5114 -1.6952
 2500TIP3   OH229058   5.134   6.484   2.039  0.1174 -0.2080  0.0109
 2500TIP3    H129059   5.159   6.438   2.119 -1.1667  0.9718  1.1477
 2500TIP3    H229060   5.148   6.420   1.969  2.1298 -0.9740  1.0429
 2501TIP3   OH229061   1.055   0.029   0.810  0.1870 -0.2768 -0.2696
 2501TIP3    H129062   1.045   0.122   0.831 -0.1112  0.4528 -3.2107
 2501TIP3    H229063   0.967  -0.000   0.788  0.5395 -0.8092 -0.9906
 2502TIP3   OH229064   2.062   1.508   0.931  0.5721  0.1297  0.4219
 2502TIP3    H129065   2.112   1.511   1.012  0.9040  1.4608  0.1926
 2502TIP3    H229066   2.108   1.568   0.872  0.4412 -0.9543 -0.8143
 2503TIP3   OH229067   5.969   3.086   7.796 -1.2915 -0.3354  0.4401
 2503TIP3    H129068   5.990   3.111   7.707 -0.4503  0.6611  0.9043
 2503TIP3    H229069   5.874   3.074   7.796 -1.0834 -2.8263 -1.1732
 2504TIP3   OH229070   2.789   1.658   0.421  0.0615  0.0843 -0.6580
 2504TIP3    H129071   2.817   1.728   0.481  0.1538  0.3737 -1.0394
 2504TIP3    H229072   2.703   1.632   0.452 -0.0938  0.5644 -0.6920
 2505TIP3   OH229073   3.342   3.904   7.471  0.3777  0.8184 -0.1525
 2505TIP3    H129074   3.426   3.858   7.465 -0.5885 -0.8358 -2.5643
 2505TIP3    H229075   3.345   3.969   7.401 -0.9693 -0.5154 -1.5457
 2506TIP3   OH229076   1.675   4.193   1.726  0.5774 -0.0842 -0.1373
 2506TIP3    H129077   1.590   4.150   1.715 -0.6586  2.5389 -1.8965
 2506TIP3    H229078   1.730   4.158   1.655 -0.4209  1.0973 -1.5637
 2507TIP3   OH229079   2.794   0.654   8.470  0.2829  0.0679 -0.3186
 2507TIP3    H129080   2.874   0.605   8.453  0.1660  0.1402 -1.1214
 2507TIP3    H229081   2.733   0.590   8.506  0.4429 -0.1602 -0.4581
 2508TIP3   OH229082   1.965   4.933   7.402 -0.5314 -0.6185  0.2329
 2508TIP3    H129083   1.908   4.880   7.345 -1.3821  1.1851 -0.6688
 2508TIP3    H229084   1.914   5.012   7.420  0.5896 -0.2064  1.7910
 2509TIP3   OH229085   4.772   4.484   2.139  0.6839  1.0157 -0.4189
 2509TIP3    H129086   4.839   4.421   2.110  3.5542  3.0748  1.1700
 2509TIP3    H229087   4.721   4.436   2.204  2.0266 -0.0366 -0.0891
 2510TIP3   OH229088   5.698   4.956   8.631  0.1383  0.4054 -0.0293
 2510TIP3    H129089   5.670   5.018   8.698  0.1258 -0.7206  1.0539
 2510TIP3    H229090   5.619   4.934   8.583  0.2852  1.8307 -0.9767
 2511TIP3   OH229091   6.219   6.689   1.676 -0.0015  0.3675 -0.2123
 2511TIP3    H129092   6.283   6.634   1.629  1.5839  0.1272  2.0854
 2511TIP3    H229093   6.158   6.626   1.714  1.0031  0.2180  1.2447
 2512TIP3   OH229094   4.786   1.756   1.794 -0.5047  0.1766  0.2218
 2512TIP3    H129095   4.867   1.798   1.765 -1.1458  1.9924  0.9128
 2512TIP3    H229096   4.812   1.666   1.814  0.8814  0.1135 -1.5710
 2513TIP3   OH229097   6.278   5.489   7.884 -0.4508 -0.0646 -0.1796
 2513TIP3    H129098   6.196   5.517   7.842 -0.3559  0.6421  0.0758
 2513TIP3    H229099   6.256   5.488   7.978 -0.1169  0.3432 -0.0920
 2514TIP3   OH229100   4.182   0.841   1.821  0.5075 -0.2895 -0.5491
 2514TIP3    H129101   4.222   0.773   1.875  1.5075 -0.4015 -1.3878
 2514TIP3    H229102   4.255   0.899   1.798 -0.2979  0.9552 -0.0273
 2515TIP3   OH229103   2.925   6.460   7.451  0.3803 -0.5210 -0.1106
 2515TIP3    H129104   2.959   6.373   7.470  2.8935 -0.3989 -3.1821
 2515TIP3    H229105   2.874   6.449   7.370  1.6910  0.9259 -1.2074
 2516TIP3   OH229106   4.062   5.252   7.688 -0.3556 -0.4272  0.1074
 2516TIP3    H129107   4.020   5.318   7.633  1.4704  0.7514  0.0407
 2516TIP3    H229108   4.057   5.172   7.637 -0.7430  0.1338 -0.7615
 2517TIP3   OH229109   1.626   0.965   0.966 -1.2177 -0.3151 -0.2177
 2517TIP3    H129110   1.573   1.043   0.950 -0.3699  0.2964 -0.0939
 2517TIP3    H229111   1.621   0.952   1.061 -0.6350  0.1164 -0.1255
 2518TIP3   OH229112   0.789   6.781   0.744 -0.0831 -0.1206 -0.5922
 2518TIP3    H129113   0.725   6.852   0.753 -0.2047 -0.3313  0.2931
 2518TIP3    H229114   0.783   6.733   0.827 -0.2523 -1.3824 -1.3131
 2519TIP3   OH229115   2.547   2.422   7.788 -0.1193  0.0999  0.3390
 2519TIP3    H129116   2.636   2.445   7.813 -0.4217  1.4273  0.2343
 2519TIP3    H229117   2.502   2.506   7.777 -0.8046 -0.4763 -1.6993
 2520TIP3   OH229118   1.202   5.989   1.849  0.1310  0.0872 -0.4347
 2520TIP3    H129119   1.224   6.039   1.770  2.7569 -0.9724 -0.4664
 2520TIP3    H229120   1.286   5.960   1.883 -1.0927 -1.3646  1.5408
 2521TIP3   OH229121   6.617   2.525   7.549  0.4193 -0.1790 -0.9144
 2521TIP3    H129122   6.695   2.581   7.547  1.3099 -1.3455 -0.2286
 2521TIP3    H229123   6.544   2.585   7.535  1.2884  1.2691  0.4035
 2522TIP3   OH229124   2.631   0.490   7.351  0.6959  0.2450 -0.2685
 2522TIP3    H129125   2.544   0.528   7.337  0.4841 -0.5474 -1.0947
 2522TIP3    H229126   2.659   0.461   7.265  1.7419  0.3906  0.0158
 2523TIP3   OH229127   6.364   1.510   1.758 -0.3591 -0.1427  0.0623
 2523TIP3    H129128   6.283   1.538   1.715 -0.5774 -0.4271  0.2878
 2523TIP3    H229129   6.360   1.414   1.758  0.0161 -0.1629  0.0029
 2524TIP3   OH229130   1.606   4.622   7.846 -0.1503  0.1996  0.0794
 2524TIP3    H129131   1.618   4.561   7.918  0.4117  0.2512  0.0394
 2524TIP3    H229132   1.672   4.689   7.861 -0.5258  0.6050 -0.0756
 2525TIP3   OH229133   2.224   0.260   0.324  0.2421 -0.7647  0.7590
 2525TIP3    H129134   2.166   0.335   0.312  1.5343 -0.1706 -3.0974
 2525TIP3    H229135   2.176   0.186   0.287  1.5639 -0.3475 -2.0625
 2526TIP3   OH229136   1.809   1.504   8.398  0.2716  0.3897 -0.5235
 2526TIP3    H129137   1.742   1.570   8.414 -1.6505 -1.3012 -1.2426
 2526TIP3    H229138   1.802   1.483   8.305  1.6595  0.0026 -0.5697
 2527TIP3   OH229139   0.366   1.591   0.436 -0.2996 -0.0901  0.1810
 2527TIP3    H129140   0.370   1.518   0.374  0.1818 -0.5429  0.7344
 2527TIP3    H229141   0.434   1.572   0.500  0.0108  0.9795  0.1944
 2528TIP3   OH229142   5.382   3.542   0.315  0.8785  0.1014  0.0697
 2528TIP3    H129143   5.461   3.563   0.266  1.4981  0.0928  1.0461
 2528TIP3    H229144   5.386   3.598   0.392  0.9166 -1.2496  1.0837
 2529TIP3   OH229145   0.389   6.148   1.549 -0.1761  0.5260 -0.3813
 2529TIP3    H129146   0.432   6.186   1.625 -0.7675 -2.3763  1.5411
 2529TIP3    H229147   0.299   6.179   1.555 -1.0780 -2.1398  2.0965
 2530TIP3   OH229148   6.193   6.426   2.534 -0.2597 -0.0852  0.0373
 2530TIP3    H129149   6.108   6.436   2.491 -0.4972  0.3821  0.6089
 2530TIP3    H229150   6.224   6.340   2.506 -0.4702  0.1530 -0.9609
 2531TIP3   OH229151   2.457   4.312   8.550  0.1927  0.1315  0.3160
 2531TIP3    H129152   2.503   4.390   8.519 -0.7499  0.4625 -0.2883
 2531TIP3    H229153   2.485   4.243   8.490  0.4521  0.1670  0.3937
 2532TIP3   OH229154   5.815   0.190   8.389  0.6730  0.1478  0.3665
 2532TIP3    H129155   5.809   0.242   8.469 -0.2601  0.0106  0.3903
 2532TIP3    H229156   5.866   0.244   8.329  0.6158  0.6334  0.7492
 2533TIP3   OH229157   6.597   2.018   1.048 -0.0167  0.3584  0.0044
 2533TIP3    H129158   6.674   1.997   0.996  0.0634  0.2982  0.1460
 2533TIP3    H229159   6.534   1.949   1.027 -0.1736  0.6189 -0.4004
 2534TIP3   OH229160   5.989   5.461   0.839  0.0595  0.0157  0.1641
 2534TIP3    H129161   6.038   5.461   0.757  0.6479  1.9122  0.4524
 2534TIP3    H229162   5.933   5.384   0.834 -0.0827  0.1958 -2.1129
 2535TIP3   OH229163   0.853   0.463   1.299  0.4168 -0.1438 -0.5618
 2535TIP3    H129164   0.782   0.454   1.362  2.0958  1.8398  1.7991
 2535TIP3    H229165   0.912   0.390   1.317  1.5043  1.0708  1.1707
 2536TIP3   OH229166   3.329   6.489   8.548  0.1415  0.0796 -0.3490
 2536TIP3    H129167   3.331   6.583   8.565 -2.0987  0.1729 -0.3157
 2536TIP3    H229168   3.323   6.482   8.453 -0.0105 -0.0157 -0.3329
 2537TIP3   OH229169   1.112   2.583   0.387  0.0233  0.0618 -0.0800
 2537TIP3    H129170   1.114   2.521   0.314 -1.5203 -0.2830  0.1253
 2537TIP3    H229171   1.026   2.569   0.427  0.4844  0.8743  1.2572
 2538TIP3   OH229172   3.143   1.678   0.647 -0.1196 -0.6452 -0.2019
 2538TIP3    H129173   3.048   1.689   0.653  0.0312 -0.0317  1.6026
 2538TIP3    H229174   3.155   1.621   0.571 -1.9211 -0.7314 -0.4819
 2539TIP3   OH229175   5.918   4.329   1.295 -0.7029 -0.3617 -0.0121
 2539TIP3    H129176   5.983   4.356   1.230 -1.2174  0.1501 -0.3180
 2539TIP3    H229177   5.847   4.290   1.244 -1.2666  0.3552  0.2056
 2540TIP3   OH229178   3.586   6.152   1.257 -0.6664 -0.8978 -0.1220
 2540TIP3    H129179   3.628   6.080   1.211 -0.0884 -1.2361  0.9170
 2540TIP3    H229180   3.606   6.137   1.349 -0.0104  0.9054  0.0727
 2541TIP3   OH229181   6.202   1.786   6.711  0.1485 -0.0695  0.1072
 2541TIP3    H129182   6.138   1.838   6.760 -1.9016 -1.4646 -0.9179
 2541TIP3    H229183   6.239   1.726   6.776 -1.5202 -0.9681  0.2952
 2542TIP3   OH229184   5.478   3.122   1.372 -0.0342  0.2728 -0.0845
 2542TIP3    H129185   5.392   3.130   1.331 -0.1817  0.4052  0.2517
 2542TIP3    H229186   5.531   3.076   1.307 -0.6247 -0.6978  0.0988
 2543TIP3   OH229187   4.624   4.185   1.032  0.0458  0.4983  0.0529
 2543TIP3    H129188   4.620   4.169   0.937  2.7495  3.0012 -0.6214
 2543TIP3    H229189   4.618   4.097   1.070 -0.1451 -0.6987 -2.4593
 2544TIP3   OH229190   4.892   4.930   7.217  0.9298 -0.2906  0.2720
 2544TIP3    H129191   4.954   5.001   7.233  0.7104 -0.2998  1.2150
 2544TIP3    H229192   4.823   4.970   7.163  0.0933  0.6309  1.9266
 2545TIP3   OH229193   1.951   6.523   2.163  0.6819 -0.0542  0.1083
 2545TIP3    H129194   1.879   6.585   2.152  0.4431  0.0078  1.8249
 2545TIP3    H229195   1.924   6.467   2.235  1.9664 -0.5917  0.1993
 2546TIP3   OH229196   1.050   0.790   0.957 -0.1155  0.4761  0.2541
 2546TIP3    H129197   1.127   0.830   0.997 -0.5435  1.6123 -0.0035
 2546TIP3    H229198   1.085   0.720   0.901  0.8029  1.4487 -0.4259
 2547TIP3   OH229199   1.383   5.801   7.238  0.1144  0.0765  0.3191
 2547TIP3    H129200   1.344   5.875   7.190 -0.3872  0.8801  1.9103
 2547TIP3    H229201   1.466   5.836   7.272 -0.4163  0.1366  1.6014
 2548TIP3   OH229202   2.369   4.967   2.199 -0.1988 -0.6244 -0.4757
 2548TIP3    H129203   2.339   4.972   2.108 -1.9133 -1.1142  0.0221
 2548TIP3    H229204   2.394   5.056   2.221  2.1287 -0.8261 -1.9938
 2549TIP3   OH229205   0.520   2.855   0.996  0.2802  0.3476 -0.1860
 2549TIP3    H129206   0.606   2.897   0.987  1.6366 -1.7052  2.1836
 2549TIP3    H229207   0.480   2.899   1.071 -0.4599  0.7745 -0.8146
 2550TIP3   OH229208   1.345   5.282   7.737  0.0522  0.6917 -0.1596
 2550TIP3    H129209   1.368   5.221   7.666 -2.8321  0.4874 -1.0315
 2550TIP3    H229210   1.314   5.360   7.692  2.8077  2.5902  0.9638
 2551TIP3   OH229211   2.555   4.991   1.929  0.3140 -0.3943  0.6079
 2551TIP3    H129212   2.579   5.010   1.839 -2.0675 -0.6184 -0.1459
 2551TIP3    H229213   2.565   5.075   1.975  0.9095 -0.1165 -0.0245
 2552TIP3   OH229214   0.204   2.334   0.036 -0.0787  0.8725 -0.5738
 2552TIP3    H129215   0.237   2.423   0.044 -0.8762  1.2552 -1.3171
 2552TIP3    H229216   0.261   2.282   0.091  1.1099  1.6648 -1.0211
 2553TIP3   OH229217   6.417   2.820   0.378  0.2108 -0.1926  1.0214
 2553TIP3    H129218   6.327   2.834   0.350  0.8271  1.0677 -0.4617
 2553TIP3    H229219   6.409   2.770   0.459 -1.8383  0.4721  1.2907
 2554TIP3   OH229220   1.441   5.774   8.141 -0.3186 -0.1218 -0.1979
 2554TIP3    H129221   1.387   5.851   8.158  0.9870  0.8055 -0.0259
 2554TIP3    H229222   1.421   5.749   8.051 -1.4076 -0.1247  0.0415
 2555TIP3   OH229223   5.156   4.897   0.213  0.1325 -0.6683  0.0841
 2555TIP3    H129224   5.130   4.840   0.140  1.9289 -2.2544  0.6095
 2555TIP3    H229225   5.236   4.858   0.247  0.4124  1.1511  1.6949
 2556TIP3   OH229226   0.453   5.557   6.724 -0.2451 -0.1747  0.0645
 2556TIP3    H129227   0.546   5.573   6.711 -0.1060 -0.9523  0.0791
 2556TIP3    H229228   0.447   5.464   6.743 -1.2127 -0.5364 -1.8206
 2557TIP3   OH229229   1.148   5.530   2.423 -0.4515  0.1377 -0.0161
 2557TIP3    H129230   1.056   5.531   2.396 -0.1687  1.3243 -1.0431
 2557TIP3    H229231   1.147   5.487   2.508 -1.9504  0.0426 -0.0446
 2558TIP3   OH229232   6.779   4.698   1.401 -0.5623 -0.4647 -0.1881
 2558TIP3    H129233   6.850   4.749   1.440 -0.9812 -0.2868  0.3557
 2558TIP3    H229234   6.800   4.607   1.423  1.4729 -0.8438 -3.1877
 2559TIP3   OH229235   2.755   3.710   0.872  0.1343  0.2933 -0.2617
 2559TIP3    H129236   2.764   3.768   0.947 -0.2645  0.6784 -0.5041
 2559TIP3    H229237   2.820   3.642   0.886 -0.4493 -0.0699  0.8292
 2560TIP3   OH229238   0.244   4.829   0.175 -0.2099 -0.0842  0.4977
 2560TIP3    H129239   0.213   4.745   0.209  1.6229 -0.8600  0.4052
 2560TIP3    H229240   0.209   4.894   0.235 -0.4273 -1.0663  1.4656
 2561TIP3   OH229241   5.292   4.993   7.230 -0.5232 -0.3693  0.2035
 2561TIP3    H129242   5.326   4.992   7.141 -1.8524 -0.0639 -0.3299
 2561TIP3    H229243   5.213   5.047   7.225  0.6216  1.6628  2.0311
 2562TIP3   OH229244   1.907   5.693   6.836  0.3990 -0.3889 -0.2308
 2562TIP3    H129245   1.847   5.625   6.866 -0.5575  0.8179  0.7257
 2562TIP3    H229246   1.855   5.774   6.838  2.0831  0.7402  0.8187
 2563TIP3   OH229247   4.823   2.552   7.116  0.1746  0.6963 -0.2072
 2563TIP3    H129248   4.750   2.611   7.094  0.6102  0.7356 -1.6412
 2563TIP3    H229249   4.857   2.524   7.031  0.8461 -0.5554  0.4574
 2564TIP3   OH229250   3.708   6.220   1.819 -0.2251 -0.2668  0.0913
 2564TIP3    H129251   3.643   6.151   1.824  0.5125 -1.0307 -0.6524
 2564TIP3    H229252   3.763   6.197   1.745  0.8941  0.3656  0.6901
 2565TIP3   OH229253   6.661   3.879   0.790 -0.1732 -0.0741  0.2187
 2565TIP3    H129254   6.676   3.971   0.813  1.2858 -0.5225  1.1674
 2565TIP3    H229255   6.597   3.849   0.855  0.1753 -0.0227  0.5856
 2566TIP3   OH229256   6.026   2.326   6.892 -0.0209  0.1527 -0.4940
 2566TIP3    H129257   5.946   2.352   6.846  0.0861 -0.3363 -0.9616
 2566TIP3    H229258   5.996   2.296   6.977 -0.4505 -0.9791 -1.0245
 2567TIP3   OH229259   1.157   3.603   8.539 -0.2389  0.0349  0.2708
 2567TIP3    H129260   1.163   3.508   8.530 -0.3325 -0.0865  1.3980
 2567TIP3    H229261   1.127   3.633   8.453 -1.0889 -1.0409  0.1700
 2568TIP3   OH229262   4.528   6.204   7.394  0.5021 -0.5386  0.8557
 2568TIP3    H129263   4.595   6.165   7.338  0.2751 -1.6745  1.3319
 2568TIP3    H229264   4.451   6.148   7.381  0.5273 -1.0239  2.4942
 2569TIP3   OH229265   3.426   2.036   7.343 -0.6633  0.2588  1.0181
 2569TIP3    H129266   3.496   1.987   7.301 -1.4882  0.1675 -0.2982
 2569TIP3    H229267   3.346   1.994   7.313 -1.3290  1.1677  1.4752
 2570TIP3   OH229268   0.875   0.976   1.316 -0.1509  0.3155 -0.8197
 2570TIP3    H129269   0.824   0.964   1.396  1.3876 -0.6164  0.0804
 2570TIP3    H229270   0.913   0.890   1.298  0.1227  0.6908 -2.1356
 2571TIP3   OH229271   5.631   1.342   2.095 -0.1513 -0.1654 -0.0078
 2571TIP3    H129272   5.641   1.394   2.175  0.3999  0.0568 -0.2113
 2571TIP3    H229273   5.563   1.278   2.115 -0.7445  0.5511  0.2928
 2572TIP3   OH229274   5.584   2.483   2.233 -0.0679 -0.0225 -0.2480
 2572TIP3    H129275   5.624   2.570   2.239 -1.0323  0.4247 -0.0791
 2572TIP3    H229276   5.490   2.499   2.245 -0.1288 -1.2492  1.2320
 2573TIP3   OH229277   5.604   0.929   8.299 -0.4451 -0.2405  0.1903
 2573TIP3    H129278   5.587   0.936   8.205 -0.3730  2.2228  0.2916
 2573TIP3    H229279   5.677   0.989   8.315  0.8759 -2.1136  1.5455
 2574TIP3   OH229280   0.734   6.530   7.606  0.6305  0.4148 -0.0714
 2574TIP3    H129281   0.748   6.625   7.616 -0.5064  0.4624  1.2954
 2574TIP3    H229282   0.711   6.519   7.514 -3.5937  2.1251  0.5474
 2575TIP3   OH229283   0.414   2.377   1.251 -0.1281  0.2509 -0.0092
 2575TIP3    H129284   0.398   2.450   1.310  1.5035  1.4173 -0.9574
 2575TIP3    H229285   0.433   2.418   1.167 -0.1415 -1.3052 -0.7993
 2576TIP3   OH229286   3.466   5.228   6.893  0.2774  0.3509  0.5149
 2576TIP3    H129287   3.502   5.303   6.940 -0.0926  0.8053  0.0837
 2576TIP3    H229288   3.391   5.263   6.845  0.5087 -0.1453 -0.2335
 2577TIP3   OH229289   0.313   4.420   1.528  0.2437 -0.2220  0.2369
 2577TIP3    H129290   0.296   4.364   1.604 -0.6115  1.6909  1.5729
 2577TIP3    H229291   0.255   4.496   1.542  2.2015  1.5612 -0.7905
 2578TIP3   OH229292   1.154   0.453   7.799 -0.2758  0.3825 -0.2383
 2578TIP3    H129293   1.201   0.419   7.875 -0.9479 -0.4285 -0.1744
 2578TIP3    H229294   1.110   0.532   7.832 -0.9955 -0.2531  0.3738
 2579TIP3   OH229295   0.462   6.689   7.530  0.4699  0.7389  0.4196
 2579TIP3    H129296   0.435   6.611   7.482  1.4143 -0.7923  2.2396
 2579TIP3    H229297   0.386   6.747   7.527 -0.8550 -0.9170  0.3491
 2580TIP3   OH229298   5.687   6.109   6.929 -0.2576  1.0904 -0.2859
 2580TIP3    H129299   5.769   6.067   6.954 -1.3544 -0.2719  1.2338
 2580TIP3    H229300   5.713   6.178   6.868  1.9473  0.3725 -0.2458
 2581TIP3   OH229301   6.321   6.038   8.202  0.3591 -0.5443 -0.2200
 2581TIP3    H129302   6.237   6.084   8.193 -0.5815 -2.1131  0.0110
 2581TIP3    H229303   6.351   6.026   8.112 -1.0575 -2.3085 -0.5200
 2582TIP3   OH229304   1.609   0.857   7.251 -0.3911  0.0849 -0.2128
 2582TIP3    H129305   1.614   0.800   7.174 -2.8351  1.1308 -1.2682
 2582TIP3    H229306   1.643   0.942   7.221  0.6725 -0.0510  0.5418
 2583TIP3   OH229307   1.922   0.475   7.473  0.3800 -0.1402  0.4280
 2583TIP3    H129308   1.899   0.546   7.413  0.9245 -1.0122 -0.8680
 2583TIP3    H229309   1.994   0.429   7.430 -0.1310 -1.6473  1.0897
 2584TIP3   OH229310   0.079   2.639   2.556  0.2176  0.8527  0.1846
 2584TIP3    H129311   0.132   2.703   2.604  0.3769  0.4499  0.5450
 2584TIP3    H229312   0.024   2.598   2.623 -0.0960  0.8177 -0.0910
 2585TIP3   OH229313   0.363   2.001   7.667 -0.4088 -0.3975  0.0234
 2585TIP3    H129314   0.453   2.020   7.692  0.0485 -1.8842 -0.3662
 2585TIP3    H229315   0.332   1.942   7.736 -0.9991 -0.1118  0.0058
 2586TIP3   OH229316   5.385   2.883   7.760  0.3591 -0.0945 -0.3579
 2586TIP3    H129317   5.348   2.949   7.818  0.6867 -0.7000  0.5526
 2586TIP3    H229318   5.431   2.933   7.693  0.8185  0.6047  0.4652
 2587TIP3   OH229319   5.709   5.302   2.500 -0.0985  0.2384 -0.1217
 2587TIP3    H129320   5.652   5.230   2.475  0.7311 -0.2970 -0.5192
 2587TIP3    H229321   5.691   5.317   2.592  0.1860 -0.9311  0.1441
 2588TIP3   OH229322   4.503   4.877   1.505 -0.4049 -0.3337  0.6933
 2588TIP3    H129323   4.571   4.814   1.481  2.3087  1.8645  2.0604
 2588TIP3    H229324   4.509   4.946   1.439 -2.5132 -0.8516 -0.1086
 2589TIP3   OH229325   6.193   2.078   7.529 -0.4588 -0.2260  0.0306
 2589TIP3    H129326   6.228   2.145   7.588  0.5657 -0.0861 -0.7236
 2589TIP3    H229327   6.098   2.082   7.543 -0.5849  2.4058 -1.0482
 2590TIP3   OH229328   0.898   3.539   0.154 -0.8544  0.2362 -0.7358
 2590TIP3    H129329   0.968   3.604   0.161 -1.9069  1.3185  0.0771
 2590TIP3    H229330   0.860   3.535   0.241 -1.7909 -0.3650 -1.1530
 2591TIP3   OH229331   1.685   4.811   7.114 -0.0053 -0.0247 -0.0216
 2591TIP3    H129332   1.652   4.881   7.170  0.1737  0.2917 -0.3035
 2591TIP3    H229333   1.675   4.846   7.025 -1.4186 -0.9936 -0.2762
 2592TIP3   OH229334   6.868   4.373   7.265 -0.5395  0.5209 -0.8129
 2592TIP3    H129335   6.819   4.333   7.194  0.5503 -1.2018 -0.6587
 2592TIP3    H229336   6.810   4.368   7.341 -0.2988 -1.2362 -0.6963
 2593TIP3   OH229337   2.265   5.002   0.529 -0.1052  0.3129 -0.7079
 2593TIP3    H129338   2.187   4.949   0.517 -0.2038  0.1542  0.5693
 2593TIP3    H229339   2.324   4.973   0.459 -0.7378 -0.3759 -0.9734
 2594TIP3   OH229340   1.796   0.480   8.207  0.1240 -0.7950  0.0515
 2594TIP3    H129341   1.862   0.518   8.265  0.9262 -1.6362 -0.2960
 2594TIP3    H229342   1.763   0.555   8.157 -0.0432 -0.1810  1.0517
 2595TIP3   OH229343   3.538   4.496   7.311 -0.1371 -0.0755  0.2398
 2595TIP3    H129344   3.473   4.439   7.269  0.4529 -0.1853 -0.5392
 2595TIP3    H229345   3.623   4.462   7.282  0.4364 -1.4557  3.0910
 2596TIP3   OH229346   3.515   4.679   2.572 -0.1274  0.3494  0.1253
 2596TIP3    H129347   3.471   4.764   2.563 -0.1640  0.2639 -0.5871
 2596TIP3    H229348   3.476   4.640   2.650 -0.9786  0.4738 -0.2246
 2597TIP3   OH229349   1.368   3.355   2.063  0.1467 -0.1785 -0.3692
 2597TIP3    H129350   1.292   3.317   2.109 -0.2982  1.2797  0.1523
 2597TIP3    H229351   1.440   3.296   2.085 -0.5998 -0.9741  0.0488
 2598TIP3   OH229352   5.243   5.827   8.454 -0.7021 -0.0769 -0.3538
 2598TIP3    H129353   5.309   5.890   8.424 -1.4147  0.5657 -0.5932
 2598TIP3    H229354   5.294   5.757   8.495  0.0908  0.7305  0.0731
 2599TIP3   OH229355   3.214   5.452   8.349  0.0358 -0.1023  0.2484
 2599TIP3    H129356   3.126   5.488   8.335 -0.5980 -2.3724 -2.4401
 2599TIP3    H229357   3.268   5.529   8.369 -2.1154  1.6779 -0.3083
 2600TIP3   OH229358   3.381   2.298   7.414  0.0721 -0.1925  0.7719
 2600TIP3    H129359   3.392   2.203   7.416  0.1806 -0.1673  2.0335
 2600TIP3    H229360   3.428   2.326   7.335  0.8864 -1.0836  0.9300
 2601TIP3   OH229361   3.322   1.700   8.191 -0.3240  0.0387 -0.6865
 2601TIP3    H129362   3.303   1.740   8.106 -2.4506 -3.0751 -1.8465
 2601TIP3    H229363   3.244   1.715   8.243 -0.2832 -0.7220 -0.3896
 2602TIP3   OH229364   2.774   2.084   7.496 -0.1737  0.4876  0.1855
 2602TIP3    H129365   2.821   2.041   7.425 -0.7846 -0.7034  0.4799
 2602TIP3    H229366   2.692   2.035   7.504 -0.1621  0.6615  1.6324
 2603TIP3   OH229367   3.445   3.665   2.499  0.3462 -0.3255  0.5535
 2603TIP3    H129368   3.371   3.661   2.561  1.3229 -0.9326  1.7260
 2603TIP3    H229369   3.405   3.692   2.416 -0.5712  3.9597  2.1542
 2604TIP3   OH229370   2.330   6.268   7.182 -0.1845  0.5468 -0.0233
 2604TIP3    H129371   2.397   6.224   7.130 -0.1191  1.9471 -1.1844
 2604TIP3    H229372   2.247   6.239   7.144 -0.6028 -3.6884  3.3544
 2605TIP3   OH229373   3.425   3.724   6.857 -0.0262  0.2707 -0.7845
 2605TIP3    H129374   3.416   3.818   6.871  0.3962  0.3526 -1.0356
 2605TIP3    H229375   3.353   3.685   6.907  2.1905  0.3972  2.8572
 2606TIP3   OH229376   5.688   2.412   1.799  0.0750 -0.8317 -0.0871
 2606TIP3    H129377   5.741   2.417   1.879  0.0701  0.6830 -0.1341
 2606TIP3    H229378   5.736   2.466   1.736 -0.3068 -1.4045 -0.8709
 2607TIP3   OH229379   1.629   2.541   1.390  0.2088 -0.2460 -0.4205
 2607TIP3    H129380   1.697   2.539   1.457  0.2668 -2.8247 -0.4691
 2607TIP3    H229381   1.550   2.509   1.434 -0.2427 -0.0709 -1.0833
 2608TIP3   OH229382   1.561   3.620   2.204  0.1659 -0.0641  0.6456
 2608TIP3    H129383   1.486   3.601   2.260  0.7191 -0.7142  1.1883
 2608TIP3    H229384   1.540   3.579   2.120 -0.2940  0.1723  0.6465
 2609TIP3   OH229385   1.111   2.409   0.791  0.0614  0.5476 -0.1779
 2609TIP3    H129386   1.192   2.445   0.757  0.6685 -1.4464 -1.0126
 2609TIP3    H229387   1.054   2.400   0.714 -0.7785  1.4418  0.3161
 2610TIP3   OH229388   4.850   0.196   0.019 -0.4367  0.2978  0.0965
 2610TIP3    H129389   4.877   0.106   0.035  0.4834  0.7856  1.4281
 2610TIP3    H229390   4.757   0.198   0.041 -0.3234 -0.1944  0.6336
 2611TIP3   OH229391   6.691   2.079   8.027 -0.2635  0.1055  0.3646
 2611TIP3    H129392   6.758   2.013   8.010 -1.3049 -1.2523  1.3472
 2611TIP3    H229393   6.735   2.145   8.081  0.4865 -0.3205  0.2870
 2612TIP3   OH229394   0.015   5.539   2.219  0.5050 -0.0641  0.1279
 2612TIP3    H129395  -0.078   5.544   2.197 -0.2164 -1.9216  2.3774
 2612TIP3    H229396   0.050   5.476   2.156  0.6028  1.6052 -1.5736
 2613TIP3   OH229397   3.235   2.538   1.628  0.6033  0.6430 -0.3213
 2613TIP3    H129398   3.210   2.453   1.591  0.4876  0.6922 -0.3589
 2613TIP3    H229399   3.179   2.601   1.582 -2.2835  0.3707  2.4865
 2614TIP3   OH229400   2.148   5.352   8.310 -0.7084 -0.7488 -0.7556
 2614TIP3    H129401   2.055   5.343   8.330 -0.4608 -2.6488 -0.3262
 2614TIP3    H229402   2.189   5.372   8.395 -0.8377  1.4373 -1.1525
 2615TIP3   OH229403   5.216   3.050   7.956  0.0888  0.3318 -0.4455
 2615TIP3    H129404   5.148   2.985   7.972 -0.1488  0.6524 -0.1417
 2615TIP3    H229405   5.187   3.128   8.004  1.2324  0.1237  0.6330
 2616TIP3   OH229406   3.217   3.653   1.055  0.4229  0.2101  0.3492
 2616TIP3    H129407   3.189   3.652   1.147  0.6107 -0.1995  0.4035
 2616TIP3    H229408   3.216   3.746   1.031  0.1715  0.3023  0.7024
 2617TIP3   OH229409   5.564   0.410   7.927  0.1250  0.4387  0.2705
 2617TIP3    H129410   5.654   0.398   7.955 -0.1707 -0.7694  0.7930
 2617TIP3    H229411   5.512   0.403   8.007 -0.4920  0.2803 -0.1277
 2618TIP3   OH229412   6.781   1.110   0.592 -0.0698 -0.5065  0.4200
 2618TIP3    H129413   6.704   1.142   0.639  0.9235  0.2898  1.5601
 2618TIP3    H229414   6.746   1.053   0.523 -1.6800  0.1469  0.6768
 2619TIP3   OH229415   1.556   4.210   7.423 -0.4829 -0.0544 -0.2821
 2619TIP3    H129416   1.504   4.271   7.476  0.8241  1.0655 -0.2329
 2619TIP3    H229417   1.612   4.267   7.370  1.0603 -1.2274  0.0516
 2620TIP3   OH229418   0.692   3.753   1.694  0.0174 -0.0810  0.1111
 2620TIP3    H129419   0.773   3.713   1.726 -0.1530 -0.5129  0.0136
 2620TIP3    H229420   0.635   3.679   1.676 -1.0116  0.2641  1.7583
 2621TIP3   OH229421   3.977   5.473   7.539  0.4659 -0.1407  0.2333
 2621TIP3    H129422   3.906   5.538   7.533 -0.4811 -1.2251 -3.1571
 2621TIP3    H229423   4.055   5.520   7.511  0.3984  0.2359  0.6678
 2622TIP3   OH229424   0.092   4.568   2.297  0.1804 -0.0705 -0.0463
 2622TIP3    H129425   0.155   4.504   2.331  0.6154 -1.3885 -3.0408
 2622TIP3    H229426   0.042   4.595   2.374  1.2829 -2.5463  1.6809
 2623TIP3   OH229427   0.839   6.476   0.243 -0.6402 -0.5140 -0.1440
 2623TIP3    H129428   0.789   6.398   0.222  2.3471 -1.5583 -4.9324
 2623TIP3    H229429   0.813   6.540   0.176  2.4515 -0.3225 -1.3388
 2624TIP3   OH229430   6.005   0.799   0.522  0.1781 -0.2018 -0.3360
 2624TIP3    H129431   5.928   0.754   0.554  1.0387 -1.0750  0.5673
 2624TIP3    H229432   6.079   0.751   0.560  1.1491  1.3973 -0.1129
 2625TIP3   OH229433   4.690   1.685   0.525  0.3679 -0.2638 -0.0125
 2625TIP3    H129434   4.644   1.632   0.459 -1.2653 -0.8503  1.5236
 2625TIP3    H229435   4.686   1.633   0.605  0.5669  1.2707  1.0367
 2626TIP3   OH229436   4.702   6.000   0.084  0.7257  0.0901 -0.0444
 2626TIP3    H129437   4.661   6.083   0.060  0.3158  0.3813  1.5811
 2626TIP3    H229438   4.723   5.959  -0.000 -0.9676  0.8830 -0.9070
 2627TIP3   OH229439   1.105   1.192   1.522  0.1861 -0.2302  0.5133
 2627TIP3    H129440   1.184   1.141   1.502  0.8010  0.7249  0.4468
 2627TIP3    H229441   1.069   1.151   1.600  0.5689 -0.8680  0.3658
 2628TIP3   OH229442   1.621   0.669   2.704  0.1340 -0.4977  0.0147
 2628TIP3    H129443   1.696   0.725   2.684 -1.2841  1.8924  0.9786
 2628TIP3    H229444   1.587   0.642   2.619  0.0044  1.3456 -0.5495
 2629TIP3   OH229445   0.463   1.700   1.482 -0.2617 -0.4915  0.0487
 2629TIP3    H129446   0.423   1.784   1.461 -1.0353 -0.7708  0.3985
 2629TIP3    H229447   0.404   1.634   1.445 -0.6514 -0.9309  1.4073
 2630TIP3   OH229448   2.224   0.795   1.551 -0.4059 -0.1268  0.2092
 2630TIP3    H129449   2.229   0.777   1.645  1.0113  1.4223  0.4788
 2630TIP3    H229450   2.141   0.842   1.540 -0.4721 -0.1222  0.7085
 2631TIP3   OH229451   0.283   4.676   1.770 -0.0091 -0.0719 -0.3306
 2631TIP3    H129452   0.272   4.665   1.675 -0.3775  0.0666 -0.3057
 2631TIP3    H229453   0.273   4.588   1.806 -0.0529 -0.0969 -0.4034
 2632TIP3   OH229454   1.858   2.996   7.864 -0.2384 -0.4564  0.4537
 2632TIP3    H129455   1.870   3.069   7.804 -0.8692 -0.5526  0.2054
 2632TIP3    H229456   1.776   2.955   7.836  0.1600 -1.3186  0.5246
 2633TIP3   OH229457   3.627   4.072   2.028  0.2835  0.1136 -0.2116
 2633TIP3    H129458   3.556   4.134   2.011  0.0066 -0.4006 -1.0231
 2633TIP3    H229459   3.668   4.103   2.109 -0.5604  0.6992  0.0060
 2634TIP3   OH229460   0.602   0.130   7.570  0.0075 -0.0739 -0.3667
 2634TIP3    H129461   0.529   0.137   7.507 -0.1110  0.0704 -0.2137
 2634TIP3    H229462   0.617   0.219   7.599  0.0413 -0.1457 -0.1650
 2635TIP3   OH229463   3.025   3.125   7.955 -0.1002  0.1813 -0.6271
 2635TIP3    H129464   3.121   3.129   7.945  0.0717 -0.0652  0.7225
 2635TIP3    H229465   2.992   3.118   7.865  1.2383 -1.6262 -1.0474
 2636TIP3   OH229466   1.773   0.284   7.585 -0.6101 -0.0353 -0.3842
 2636TIP3    H129467   1.826   0.350   7.541 -1.2045  1.5448  1.1738
 2636TIP3    H229468   1.828   0.206   7.585 -1.0425 -0.6548 -5.0614
 2637TIP3   OH229469   3.014   3.141   0.166  0.0875  0.1143 -0.2307
 2637TIP3    H129470   3.053   3.124   0.081  1.6160  0.9937  0.2505
 2637TIP3    H229471   2.994   3.235   0.165  1.6440  0.5024  0.9240
 2638TIP3   OH229472   0.440   6.743   2.266  0.4024  0.0003 -0.3894
 2638TIP3    H129473   0.453   6.648   2.261 -1.1757 -0.1849 -1.2930
 2638TIP3    H229474   0.425   6.759   2.359 -0.6047 -0.8286 -0.3886
 2639TIP3   OH229475   6.171   1.911   0.152  0.7416  0.1932 -0.3414
 2639TIP3    H129476   6.133   1.999   0.141 -0.3731 -0.2339  0.0072
 2639TIP3    H229477   6.120   1.856   0.093 -1.6912 -1.0816  2.6720
 2640TIP3   OH229478   3.779   4.305   1.735 -0.0062 -0.0979 -0.5890
 2640TIP3    H129479   3.803   4.334   1.823 -0.8729  1.1562 -0.7342
 2640TIP3    H229480   3.783   4.209   1.739  1.9258 -0.0246  0.2273
 2641TIP3   OH229481   5.932   6.205   8.517 -0.8309  0.4793  0.2948
 2641TIP3    H129482   5.916   6.111   8.503 -0.7787  0.3521  1.0271
 2641TIP3    H229483   5.845   6.243   8.528 -0.8960  0.6486 -0.7409
 2642TIP3   OH229484   3.032   3.942   8.665 -0.3113 -0.3074 -0.2012
 2642TIP3    H129485   2.986   3.916   8.586  0.1342  1.9191 -1.2774
 2642TIP3    H229486   3.102   4.001   8.634  1.1024 -0.8984  1.6734
 2643TIP3   OH229487   3.450   0.565   1.928  0.6872 -0.2120  0.0394
 2643TIP3    H129488   3.409   0.651   1.926  2.1363  0.6555  2.5950
 2643TIP3    H229489   3.406   0.519   1.999 -0.0984 -1.6751 -1.3229
 2644TIP3   OH229490   6.192   1.056   0.480 -0.1605 -0.3236  0.4758
 2644TIP3    H129491   6.112   1.107   0.490 -0.5743 -0.9218  0.2381
 2644TIP3    H229492   6.163   0.969   0.454  0.6717  0.1715 -2.4320
 2645TIP3   OH229493   5.876   3.008   2.141 -0.1808  0.0759 -0.2344
 2645TIP3    H129494   5.956   2.973   2.181 -0.4378 -0.4550 -0.1694
 2645TIP3    H229495   5.895   3.100   2.126 -0.3092  0.4821  1.7405
 2646TIP3   OH229496   3.236   2.605   7.141 -0.4455  0.4735  0.1961
 2646TIP3    H129497   3.204   2.681   7.093 -0.2631  0.9616  0.8357
 2646TIP3    H229498   3.330   2.601   7.121 -0.7610 -0.6323 -1.2368
 2647TIP3   OH229499   5.377   3.780   8.313  0.0883  0.2680  0.6324
 2647TIP3    H129500   5.358   3.700   8.361 -0.1125  1.7796  3.2845
 2647TIP3    H229501   5.454   3.816   8.357 -0.2050  1.8225 -0.0601
 2648TIP3   OH229502   3.415   2.952   8.470 -0.0741 -0.2284 -0.5020
 2648TIP3    H129503   3.398   3.005   8.392 -0.8163 -1.5372 -1.2799
 2648TIP3    H229504   3.511   2.942   8.472 -0.0914 -0.8167 -1.7138
 2649TIP3   OH229505   2.851   2.243   7.080  0.4408 -0.1572  0.2304
 2649TIP3    H129506   2.930   2.221   7.030 -0.9299 -1.9898 -1.3015
 2649TIP3    H229507   2.805   2.306   7.025 -0.1045 -0.6482  0.1061
 2650TIP3   OH229508   4.833   0.267   7.417  0.2641  0.1368 -0.3494
 2650TIP3    H129509   4.796   0.289   7.503  0.0720 -0.6853 -0.2158
 2650TIP3    H229510   4.789   0.186   7.392 -0.0975  0.6652 -1.4895
 2651TIP3   OH229511   4.680   1.015   1.669  0.3409  0.1623 -0.0802
 2651TIP3    H129512   4.751   1.065   1.629  0.0667  0.5794 -0.0618
 2651TIP3    H229513   4.717   0.978   1.749  0.7620 -0.2921 -0.4834
 2652TIP3   OH229514   6.430   5.397   1.234  0.8017 -0.0255 -0.2904
 2652TIP3    H129515   6.377   5.360   1.305  0.7821  0.1304 -0.2233
 2652TIP3    H229516   6.507   5.432   1.278  1.1003 -0.5068 -0.4197
 2653TIP3   OH229517   3.171   5.795   7.844 -0.1186 -0.5505 -0.1170
 2653TIP3    H129518   3.152   5.702   7.829 -0.2205 -0.7039  0.8871
 2653TIP3    H229519   3.264   5.804   7.825  0.1598 -1.1182  0.8942
 2654TIP3   OH229520   0.353   5.832   8.244  0.1188 -0.3210 -0.1415
 2654TIP3    H129521   0.268   5.799   8.215 -0.3986  1.5596 -0.9191
 2654TIP3    H229522   0.401   5.850   8.162  0.4454  0.5845  0.2290
 2655TIP3   OH229523   3.290   0.951   1.074  0.6023 -0.3272 -0.1020
 2655TIP3    H129524   3.315   1.004   0.998  0.6085  1.6218  1.1911
 2655TIP3    H229525   3.372   0.933   1.119  0.3020  2.9451  2.1392
 2656TIP3   OH229526   0.574   1.430   1.394  0.3233 -0.2441  0.2920
 2656TIP3    H129527   0.647   1.486   1.421  1.1042 -1.4748  0.7739
 2656TIP3    H229528   0.611   1.375   1.325 -0.5816  0.1581 -0.5330
 2657TIP3   OH229529   3.502   5.810   1.780  0.1223  0.0072 -0.2115
 2657TIP3    H129530   3.504   5.775   1.869 -1.8205  0.4390  0.0687
 2657TIP3    H229531   3.589   5.793   1.744  1.1490  0.3609  1.9785
 2658TIP3   OH229532   3.007   3.042   7.235 -0.5590 -0.7514  0.5153
 2658TIP3    H129533   3.091   3.043   7.188  0.8097  1.5387  2.7277
 2658TIP3    H229534   2.941   3.048   7.167  1.1914 -0.0685 -1.2327
 2659TIP3   OH229535   3.675   5.258   1.446  0.5316 -0.1027 -0.2446
 2659TIP3    H129536   3.700   5.167   1.459  1.4432  0.1605 -0.0667
 2659TIP3    H229537   3.758   5.304   1.436  0.0797  0.7083 -0.3434
 2660TIP3   OH229538   4.021   2.459   2.442  0.1577 -0.3857  0.1346
 2660TIP3    H129539   4.060   2.494   2.522  1.4664 -1.1055 -0.1604
 2660TIP3    H229540   3.961   2.391   2.472  0.5074 -0.5255  0.5236
 2661TIP3   OH229541   6.594   3.183   1.279 -0.3366  0.0788  0.2602
 2661TIP3    H129542   6.537   3.203   1.353  0.8740 -0.1096  1.2655
 2661TIP3    H229543   6.563   3.098   1.247  0.9501 -1.3024  2.4265
 2662TIP3   OH229544   5.241   5.207   2.692 -0.0214 -0.0628  0.1703
 2662TIP3    H129545   5.244   5.132   2.751 -0.9339  0.7654  1.3340
 2662TIP3    H229546   5.149   5.213   2.666 -0.1576  1.1599  0.8258
 2663TIP3   OH229547   3.295   6.814   7.730 -0.4574  0.0162  0.3051
 2663TIP3    H129548   3.259   6.821   7.819 -1.6606 -1.1744 -0.0632
 2663TIP3    H229549   3.335   6.727   7.728  0.3854  0.4009 -0.0485
 2664TIP3   OH229550   6.070   4.038   7.608 -0.2169  1.3169  0.0467
 2664TIP3    H129551   6.003   4.087   7.655 -0.6367 -0.3034  1.2003
 2664TIP3    H229552   6.025   4.002   7.532 -1.4456 -1.7705  2.0259
 2665TIP3   OH229553   3.475   1.900   7.571  0.2763 -0.4406 -0.7269
 2665TIP3    H129554   3.442   1.967   7.511 -0.6693 -1.5809 -1.5138
 2665TIP3    H229555   3.540   1.851   7.520  1.5814  0.3427  0.1031
 2666TIP3   OH229556   1.105   5.129   0.288  0.2157 -0.3570 -0.0541
 2666TIP3    H129557   1.064   5.195   0.345 -0.3227  0.0110 -0.8491
 2666TIP3    H229558   1.182   5.100   0.337  0.3982  0.7838  0.3657
 2667TIP3   OH229559   4.267   6.316   1.038  0.3960  0.2300 -0.1455
 2667TIP3    H129560   4.233   6.389   0.986 -1.6249 -0.5891 -0.0564
 2667TIP3    H229561   4.325   6.269   0.978 -1.5382 -0.4363 -1.5916
 2668TIP3   OH229562   1.739   2.957   8.581 -0.1319 -0.2836 -0.0313
 2668TIP3    H129563   1.688   3.001   8.514  0.5438 -1.1101 -1.1219
 2668TIP3    H229564   1.828   2.954   8.546  0.7079  1.1204  1.8269
 2669TIP3   OH229565   4.308   0.336   1.482 -0.0062  0.6399  0.6322
 2669TIP3    H129566   4.251   0.263   1.507 -0.5479  0.6327 -0.5716
 2669TIP3    H229567   4.250   0.411   1.473 -0.6430 -0.1222 -4.2536
 2670TIP3   OH229568   3.447   4.354   1.382 -0.4405 -0.0425  0.6470
 2670TIP3    H129569   3.522   4.342   1.323 -0.3126 -1.8190  1.1107
 2670TIP3    H229570   3.373   4.369   1.323  0.0065  0.0557  0.1029
 2671TIP3   OH229571   4.747   4.140   1.307  0.1852 -0.3840  0.3328
 2671TIP3    H129572   4.718   4.049   1.309  1.3136 -0.7584  0.9045
 2671TIP3    H229573   4.843   4.134   1.309  0.5917  0.6620 -4.1851
 2672TIP3   OH229574   3.328   5.891   7.501 -0.0458 -0.0752  0.8851
 2672TIP3    H129575   3.252   5.948   7.494  0.7666  1.0579  1.0045
 2672TIP3    H229576   3.316   5.844   7.583 -0.3948  0.4419  1.1341
 2673TIP3   OH229577   3.713   4.683   7.530  0.2557 -0.2131  0.0268
 2673TIP3    H129578   3.808   4.671   7.542  0.4929  1.7699  0.4140
 2673TIP3    H229579   3.704   4.719   7.442 -0.3806 -2.3773 -0.8713
 2674TIP3   OH229580   0.507   4.021   7.140  0.4405  0.0998  0.1858
 2674TIP3    H129581   0.594   3.984   7.155  0.3960  0.0530  0.3317
 2674TIP3    H229582   0.499   4.027   7.045  0.0091 -1.3368  0.1073
 2675TIP3   OH229583   2.016   3.370   7.633 -0.0125  0.2421  0.0096
 2675TIP3    H129584   2.062   3.411   7.560 -0.8922  0.2987 -0.5331
 2675TIP3    H229585   2.015   3.436   7.702  1.4434 -0.0592  0.3586
 2676TIP3   OH229586   2.447   5.575   7.168 -0.5237  0.0384  0.0022
 2676TIP3    H129587   2.541   5.557   7.162 -0.0709  2.1062  0.1236
 2676TIP3    H229588   2.434   5.604   7.259 -0.5511  3.0090 -0.8194
 2677TIP3   OH229589   5.220   6.678   0.271  0.7098 -0.2318  0.5566
 2677TIP3    H129590   5.149   6.614   0.275  1.6085 -1.2459  0.8410
 2677TIP3    H229591   5.199   6.741   0.340  0.6526 -1.1355  1.3876
 2678TIP3   OH229592   2.806   1.133   8.192  0.2281  0.4841 -0.5091
 2678TIP3    H129593   2.803   1.222   8.227 -1.9507  0.5166 -0.6210
 2678TIP3    H229594   2.883   1.094   8.233 -0.6076  1.3935  2.1940
 2679TIP3   OH229595   0.821   4.154   7.910  0.1944  0.4202  0.4380
 2679TIP3    H129596   0.859   4.078   7.866  1.1576  1.2595 -0.2249
 2679TIP3    H229597   0.856   4.151   7.999  0.8818  0.5275  0.1762
 2680TIP3   OH229598   4.339   4.549   8.527 -0.4762 -0.2521  0.0818
 2680TIP3    H129599   4.283   4.471   8.528 -0.0704 -0.6621  3.5381
 2680TIP3    H229600   4.278   4.622   8.538 -0.6212 -0.3586 -0.0029
 2681TIP3   OH229601   3.677   1.830   0.161  0.0160 -0.2869  0.0498
 2681TIP3    H129602   3.722   1.798   0.082 -0.5761  0.6130 -0.6654
 2681TIP3    H229603   3.687   1.925   0.158 -0.6444 -0.1905  0.6829
 2682TIP3   OH229604   0.306   6.067   6.876 -0.7035 -0.0202 -0.0484
 2682TIP3    H129605   0.330   6.159   6.869  0.7790 -0.4369 -1.1715
 2682TIP3    H229606   0.320   6.045   6.968 -0.3089  0.6982  0.0682
 2683TIP3   OH229607   1.731   3.550   1.113  0.0512  0.3646 -0.7728
 2683TIP3    H129608   1.704   3.630   1.159  0.1839  0.7461 -1.3534
 2683TIP3    H229609   1.764   3.493   1.183  0.2669  0.9413 -0.3926
 2684TIP3   OH229610   0.374   1.392   1.616  0.2992  0.2379 -0.1558
 2684TIP3    H129611   0.437   1.383   1.544  0.8877  1.2076  0.2050
 2684TIP3    H229612   0.421   1.445   1.681 -0.4772 -0.0281  0.6339
 2685TIP3   OH229613   1.104   2.573   1.831  0.1958 -0.1357 -0.4534
 2685TIP3    H129614   1.116   2.609   1.743 -0.5285 -1.8287 -1.3034
 2685TIP3    H229615   1.038   2.629   1.871  0.4589  0.6031 -1.0327
 2686TIP3   OH229616   2.201   1.079   7.605  0.1572  0.5148  0.0207
 2686TIP3    H129617   2.292   1.107   7.613  1.2011 -2.0651 -1.4229
 2686TIP3    H229618   2.206   0.983   7.599 -2.5073  0.3750 -1.7341
 2687TIP3   OH229619   5.675   0.762   1.627  0.3695 -0.3309 -0.4292
 2687TIP3    H129620   5.763   0.755   1.663  0.8800 -0.1352 -1.5945
 2687TIP3    H229621   5.688   0.789   1.536 -0.9093  0.1812 -0.4871
 2688TIP3   OH229622   5.094   0.753   8.224 -0.4741 -0.2965 -0.1982
 2688TIP3    H129623   5.068   0.787   8.138  2.2634  0.3403 -0.8812
 2688TIP3    H229624   5.147   0.823   8.262 -1.8534 -0.4386  2.2039
 2689TIP3   OH229625   0.309   5.990   0.503  0.2157 -0.4291 -0.1479
 2689TIP3    H129626   0.325   5.915   0.446 -0.0928  0.5335 -1.5312
 2689TIP3    H229627   0.307   6.065   0.444 -2.2153  0.3747  0.8529
 2690TIP3   OH229628   3.368   1.477   0.185  0.4818 -0.4327 -0.0012
 2690TIP3    H129629   3.274   1.482   0.166  0.5989 -0.7538 -0.6673
 2690TIP3    H229630   3.395   1.392   0.152  1.1300 -0.0994 -0.3423
 2691TIP3   OH229631   5.655   5.723   7.839 -0.2972  0.6072  0.1728
 2691TIP3    H129632   5.637   5.792   7.776 -0.2509  1.0842  0.6775
 2691TIP3    H229633   5.721   5.759   7.897 -1.6390  0.8721  1.6025
 2692TIP3   OH229634   5.166   0.201   7.640 -0.1078  0.1203  0.2405
 2692TIP3    H129635   5.110   0.238   7.708  1.5551 -0.7348  2.1898
 2692TIP3    H229636   5.248   0.181   7.685  0.2175 -2.8760 -1.3981
 2693TIP3   OH229637   4.613   3.150   6.485 -0.2015  0.1783  0.6251
 2693TIP3    H129638   4.607   3.199   6.567 -0.6460  0.5496  0.3778
 2693TIP3    H229639   4.631   3.060   6.511 -2.1616 -0.0856  1.2334
 2694TIP3   OH229640   4.038   3.135   1.415 -0.2035 -0.2409 -0.3426
 2694TIP3    H129641   4.119   3.177   1.442 -1.1420 -0.5380  3.5561
 2694TIP3    H229642   3.979   3.208   1.394  0.4989  0.0332 -1.4125
 2695TIP3   OH229643   3.812   1.123   0.880  0.1935 -0.0803  0.2155
 2695TIP3    H129644   3.742   1.168   0.927 -0.7751 -1.1282 -0.1887
 2695TIP3    H229645   3.835   1.050   0.936  1.6739  0.7862  0.8072
 2696TIP3   OH229646   4.069   0.557   0.459  0.5547 -0.0653  0.3311
 2696TIP3    H129647   4.086   0.487   0.396  0.4938  0.4677 -0.2868
 2696TIP3    H229648   3.991   0.528   0.507  1.3288 -1.0622  1.0441
 2697TIP3   OH229649   0.391   0.056   1.080  0.4431 -0.0078 -0.0160
 2697TIP3    H129650   0.379  -0.033   1.048 -1.8395 -0.0268  0.7669
 2697TIP3    H229651   0.379   0.111   1.003  1.4078 -0.3271 -0.4123
 2698TIP3   OH229652   5.033   3.292   0.574  0.3482 -0.0568  0.0535
 2698TIP3    H129653   5.101   3.351   0.540  0.1035 -0.1180 -0.5550
 2698TIP3    H229654   4.952   3.323   0.533 -0.2691  0.9703  1.9342
 2699TIP3   OH229655   6.415   2.044   8.101  0.2233 -0.5177 -0.5262
 2699TIP3    H129656   6.509   2.047   8.082  0.6407  0.6230  1.4296
 2699TIP3    H229657   6.385   2.134   8.084  0.0864 -0.1666  1.3754
 2700TIP3   OH229658   1.558   0.617   1.501  0.0707 -0.0330  0.1729
 2700TIP3    H129659   1.502   0.550   1.462  0.0680 -0.1684  0.4101
 2700TIP3    H229660   1.508   0.698   1.490 -0.7231 -0.3216  1.4469
 2701TIP3   OH229661   2.460   2.438   2.322 -0.4950  0.4507  0.1378
 2701TIP3    H129662   2.373   2.462   2.354  0.0913  0.7149  1.6185
 2701TIP3    H229663   2.477   2.499   2.251 -0.6211  1.9055  1.3152
 2702TIP3   OH229664   4.201   1.167   8.307  0.1133 -0.1366  0.0824
 2702TIP3    H129665   4.180   1.257   8.332 -0.2644 -0.1670 -0.1097
 2702TIP3    H229666   4.253   1.176   8.227  0.5632 -0.0707  0.3813
 2703TIP3   OH229667   5.092   3.097   0.322 -0.1037  0.0735  0.7731
 2703TIP3    H129668   4.997   3.089   0.319 -0.0404 -0.4805 -0.2353
 2703TIP3    H229669   5.109   3.189   0.302 -0.4282  0.2241  1.1780
 2704TIP3   OH229670   0.203   2.183   2.359  0.0354 -0.2046  0.3491
 2704TIP3    H129671   0.145   2.112   2.329 -0.2350 -0.5119  1.5481
 2704TIP3    H229672   0.237   2.221   2.278 -1.9999  0.1197 -0.4329
 2705TIP3   OH229673   5.802   4.803   8.078  0.0681 -0.2716 -0.1833
 2705TIP3    H129674   5.728   4.833   8.025  1.1069  2.1988 -0.3971
 2705TIP3    H229675   5.867   4.773   8.015  0.3048  0.2459 -0.1991
 2706TIP3   OH229676   3.529   6.060   1.935  0.7202  0.6309 -0.2299
 2706TIP3    H129677   3.489   6.022   1.856  0.8636  2.5005 -1.2585
 2706TIP3    H229678   3.501   6.002   2.006 -1.3458  0.1728 -1.3314
 2707TIP3   OH229679   4.110   0.740   7.456  0.4794  0.1860 -0.2483
 2707TIP3    H129680   4.195   0.717   7.493  0.4598 -1.0854 -0.9178
 2707TIP3    H229681   4.126   0.821   7.408  1.7289 -0.8525 -1.7012
 2708TIP3   OH229682   5.319   4.709   0.319 -0.3773  0.0744 -0.0429
 2708TIP3    H129683   5.311   4.617   0.294 -0.1766 -0.3002  1.2088
 2708TIP3    H229684   5.270   4.716   0.401 -1.0627  1.2669 -0.5315
 2709TIP3   OH229685   4.144   2.867   0.477  0.5117  0.0365 -0.2086
 2709TIP3    H129686   4.192   2.950   0.476 -0.8628  0.9099  1.3798
 2709TIP3    H229687   4.194   2.811   0.536 -0.0227  0.7230  0.9334
 2710TIP3   OH229688   5.810   6.586   7.420 -0.1576  0.3428 -0.2667
 2710TIP3    H129689   5.809   6.650   7.491 -0.4951  1.1878 -1.0143
 2710TIP3    H229690   5.892   6.605   7.373 -0.4080  0.4398 -0.6692
 2711TIP3   OH229691   3.868   2.554   1.834 -0.1299  0.3277 -0.2315
 2711TIP3    H129692   3.871   2.647   1.853 -1.5108  0.6876 -1.5712
 2711TIP3    H229693   3.960   2.527   1.834  0.3230  1.7875 -0.2494
 2712TIP3   OH229694   4.779   2.767   1.804  0.6857 -0.1107  0.5076
 2712TIP3    H129695   4.731   2.711   1.743  0.1885  1.3186 -0.4605
 2712TIP3    H229696   4.712   2.803   1.862  0.4890  1.8990 -0.8549
 2713TIP3   OH229697   6.741   2.660   7.204 -0.0036 -0.0897  0.1656
 2713TIP3    H129698   6.833   2.685   7.190  0.1792 -1.6232 -1.7376
 2713TIP3    H229699   6.701   2.666   7.117 -0.8032 -2.8157  0.2522
 2714TIP3   OH229700   3.543   6.647   1.350  0.5022 -0.2239 -0.4052
 2714TIP3    H129701   3.627   6.618   1.315 -0.1949 -0.1173 -2.2840
 2714TIP3    H229702   3.548   6.743   1.350  0.2061 -0.2067 -0.9903
 2715TIP3   OH229703   5.592   0.969   1.819 -0.6494  0.2570  0.0687
 2715TIP3    H129704   5.678   1.008   1.839 -0.5458 -0.4407  1.0587
 2715TIP3    H229705   5.604   0.926   1.734 -0.0667  0.2988  0.1278
 2716TIP3   OH229706   4.741   5.788   7.397  0.5711 -0.0334 -0.3223
 2716TIP3    H129707   4.797   5.736   7.339  0.9009 -0.9844  0.8067
 2716TIP3    H229708   4.670   5.819   7.340  1.1498 -0.5088 -1.3341
 2717TIP3   OH229709   0.783   5.601   0.593  0.3844 -0.4024 -0.5981
 2717TIP3    H129710   0.702   5.643   0.565  1.4688  0.0366 -3.3181
 2717TIP3    H229711   0.797   5.530   0.530  1.1714 -1.6986  0.9532
 2718TIP3   OH229712   5.328   3.578   8.520  0.0607 -0.7831  0.2569
 2718TIP3    H129713   5.415   3.541   8.509  0.4276  0.4615 -1.4154
 2718TIP3    H229714   5.271   3.521   8.470  0.4302  0.1095 -1.2467
 2719TIP3   OH229715   3.943   0.742   1.664  0.0859  0.7231 -0.0146
 2719TIP3    H129716   3.927   0.816   1.606  0.5855  1.3559  0.6409
 2719TIP3    H229717   3.857   0.700   1.675 -0.1151  0.9419 -0.7361
 2720TIP3   OH229718   3.134   1.006   8.066  0.2675  0.3106 -1.2068
 2720TIP3    H129719   3.188   1.082   8.044 -0.6144  1.0926 -0.7833
 2720TIP3    H229720   3.078   1.037   8.137 -2.0466  0.1532 -2.8415
 2721TIP3   OH229721   3.813   4.816   8.632 -0.5094  0.1584  0.7187
 2721TIP3    H129722   3.725   4.850   8.648 -0.4009  0.8937 -0.1045
 2721TIP3    H229723   3.805   4.766   8.551  0.0816  1.3725 -0.1222
 2722TIP3   OH229724   0.922   2.609   7.356  0.0124 -0.2393 -0.5234
 2722TIP3    H129725   0.959   2.692   7.325  0.3404  1.3850  3.5237
 2722TIP3    H229726   0.993   2.546   7.346  0.5618  0.5102 -1.5932
 2723TIP3   OH229727   0.585   0.835   1.853  0.1460 -0.4443  0.4135
 2723TIP3    H129728   0.591   0.867   1.763  0.3617 -0.0693  0.5598
 2723TIP3    H229729   0.504   0.874   1.887  0.9754  0.8766  0.9496
 2724TIP3   OH229730   4.734   0.859   1.036 -0.4646  0.1214 -0.0236
 2724TIP3    H129731   4.718   0.908   0.955 -0.9070 -1.8157 -1.1603
 2724TIP3    H229732   4.723   0.767   1.012  0.9360 -0.6195  1.8925
 2725TIP3   OH229733   0.239   4.440   1.874 -0.3987  0.1787 -0.2733
 2725TIP3    H129734   0.148   4.424   1.902 -0.3391  2.8078  1.8578
 2725TIP3    H229735   0.290   4.373   1.919 -1.2259 -1.3852 -1.5634
 2726TIP3   OH229736   2.539   1.418   2.639  0.1217  0.1992  0.4014
 2726TIP3    H129737   2.539   1.326   2.614 -0.4388  0.4222 -0.4506
 2726TIP3    H229738   2.576   1.419   2.728  1.6724 -0.6641 -0.2062
 2727TIP3   OH229739   3.858   4.320   7.670  0.2598 -0.2056  0.1675
 2727TIP3    H129740   3.853   4.413   7.693  0.8546  0.0084 -0.5580
 2727TIP3    H229741   3.951   4.304   7.656  0.2338 -1.0698  0.9217
 2728TIP3   OH229742   2.720   6.405   1.719  0.2786 -0.4241  0.0600
 2728TIP3    H129743   2.748   6.491   1.750 -0.3466  0.2255 -1.0654
 2728TIP3    H229744   2.795   6.370   1.671  0.1979 -0.0444 -0.3485
 2729TIP3   OH229745   4.275   3.732   2.117 -0.2406 -0.3159  0.3372
 2729TIP3    H129746   4.309   3.712   2.029  0.4102 -1.0622  0.7523
 2729TIP3    H229747   4.275   3.648   2.163 -2.8833 -0.4278  0.3114
 2730TIP3   OH229748   1.823   0.106   0.552 -0.2740  0.0959  0.1087
 2730TIP3    H129749   1.811   0.153   0.469 -1.3924 -0.1026  0.1379
 2730TIP3    H229750   1.915   0.082   0.554  0.1994  1.7664 -0.1947
 2731TIP3   OH229751   6.611   1.012   1.285  0.2397  0.6070  0.8396
 2731TIP3    H129752   6.653   0.953   1.347  0.3273  1.1184  1.2743
 2731TIP3    H229753   6.594   1.091   1.335  0.7129  1.1926  0.0904
 2732TIP3   OH229754   5.284   1.396   1.918 -0.0564  0.3508 -0.2291
 2732TIP3    H129755   5.357   1.450   1.887  0.6095 -0.3126  0.1732
 2732TIP3    H229756   5.300   1.310   1.881  0.7502 -0.4689  1.9021
 2733TIP3   OH229757   2.177   3.735   1.263  0.0807  0.0807 -0.1751
 2733TIP3    H129758   2.237   3.810   1.264  0.5195 -0.2601 -0.7130
 2733TIP3    H229759   2.129   3.742   1.346  1.6722 -0.3048  0.8185
 2734TIP3   OH229760   4.463   4.652   8.273 -0.3905 -0.1314 -0.8186
 2734TIP3    H129761   4.455   4.602   8.192  0.0708 -0.0645 -0.9081
 2734TIP3    H229762   4.428   4.594   8.341  0.8164 -0.8790 -0.8054
 2735TIP3   OH229763   3.630   0.073   1.213 -0.2085 -0.8325 -0.0275
 2735TIP3    H129764   3.683   0.093   1.136 -0.9442  2.9329  0.2616
 2735TIP3    H229765   3.545   0.047   1.179 -0.1080 -0.5739 -0.4783
 2736TIP3   OH229766   6.319   4.859   1.578  0.7231 -0.0097  0.0637
 2736TIP3    H129767   6.242   4.810   1.607  0.3925 -0.0007 -0.7724
 2736TIP3    H229768   6.342   4.819   1.494  2.5670 -1.0298  1.0120
 2737TIP3   OH229769   1.326   4.910   1.359 -0.1345  0.0393  0.4443
 2737TIP3    H129770   1.357   4.857   1.285 -1.4396  0.2879 -0.3057
 2737TIP3    H229771   1.372   4.874   1.435  1.1092 -0.3327 -0.4476
 2738TIP3   OH229772   2.818   5.994   7.617  0.0119  0.5678  0.2508
 2738TIP3    H129773   2.841   6.030   7.531 -1.3311 -0.6412 -0.6589
 2738TIP3    H229774   2.777   6.067   7.663 -0.0582  0.9892 -0.4664
 2739TIP3   OH229775   6.492   3.944   8.615  0.4870  0.0527  0.1672
 2739TIP3    H129776   6.480   4.023   8.562 -1.2811  0.0327  0.4707
 2739TIP3    H229777   6.523   3.878   8.553  0.2247  0.5186 -0.4744
 2740TIP3   OH229778   2.377   2.693   0.550  0.9447 -0.1483  0.1436
 2740TIP3    H129779   2.351   2.637   0.477 -1.0316  1.7010 -0.6924
 2740TIP3    H229780   2.329   2.658   0.625  0.3721 -0.0935 -0.1914
 2741TIP3   OH229781   1.361   4.185   0.367 -0.4328 -0.2769  0.4215
 2741TIP3    H129782   1.356   4.275   0.400 -0.8131  0.0952 -0.6185
 2741TIP3    H229783   1.305   4.135   0.426  1.3462 -0.2381  2.2563
 2742TIP3   OH229784   3.165   2.805   2.923  0.4825 -0.4449 -0.3096
 2742TIP3    H129785   3.110   2.789   2.847  0.2267  0.2055 -0.2633
 2742TIP3    H229786   3.253   2.779   2.895  0.0546 -2.1327 -0.1662
 2743TIP3   OH229787   1.758   1.209   0.406 -0.0670  0.1477  0.3780
 2743TIP3    H129788   1.822   1.275   0.379  0.0949  0.7650  2.1502
 2743TIP3    H229789   1.811   1.137   0.441 -0.2541 -0.8373 -1.2549
 2744TIP3   OH229790   1.823   1.032   7.427  0.4549  0.1973 -0.1220
 2744TIP3    H129791   1.880   1.019   7.351 -0.9355  0.4359 -1.2690
 2744TIP3    H229792   1.753   1.089   7.395  0.4481  1.2783  1.6925
 2745TIP3   OH229793   5.326   2.983   2.163 -0.3330 -0.7795  1.0551
 2745TIP3    H129794   5.330   2.922   2.089 -1.1038 -0.8905  1.1039
 2745TIP3    H229795   5.382   2.943   2.230  2.1628  0.3809 -0.2125
 2746TIP3   OH229796   5.957   1.145   1.537  0.2398  0.2355 -0.4129
 2746TIP3    H129797   6.006   1.148   1.455 -0.9997  0.6125 -1.1800
 2746TIP3    H229798   5.991   1.217   1.589 -0.5950  1.5479 -1.6084
 2747TIP3   OH229799   2.145   5.130   7.412 -0.5054  0.3109 -0.2066
 2747TIP3    H129800   2.095   5.049   7.404  1.1549 -0.7976 -0.0174
 2747TIP3    H229801   2.085   5.199   7.386 -1.9367 -0.9971 -0.4893
 2748TIP3   OH229802   3.226   2.152   2.512 -0.1774 -0.8912  0.1538
 2748TIP3    H129803   3.174   2.178   2.589 -0.9825  0.0053 -0.6706
 2748TIP3    H229804   3.249   2.061   2.529  0.3368 -0.4800  1.8378
 2749TIP3   OH229805   3.404   4.132   2.348 -0.2359  0.2734  0.1721
 2749TIP3    H129806   3.383   4.195   2.278  1.1018  1.1157  0.4979
 2749TIP3    H229807   3.319   4.111   2.386 -0.6206  3.5857  1.4714
 2750TIP3   OH229808   2.215   2.909   0.138 -0.2548 -0.0362 -0.1464
 2750TIP3    H129809   2.236   2.861   0.218  1.8172 -0.4759 -0.8880
 2750TIP3    H229810   2.159   2.849   0.088 -0.7687 -0.1362  0.5268
 2751TIP3   OH229811   4.988   1.617   1.220  1.0748 -0.0645 -0.2455
 2751TIP3    H129812   4.970   1.597   1.312  0.1395 -4.0099 -1.0858
 2751TIP3    H229813   4.914   1.670   1.193  0.9030  0.4118  1.0591
 2752TIP3   OH229814   4.076   5.881   7.351  0.3232  0.3963 -0.3137
 2752TIP3    H129815   4.027   5.899   7.271 -0.2292  0.2275 -0.0145
 2752TIP3    H229816   4.012   5.888   7.422  0.7727  0.3961  0.1047
 2753TIP3   OH229817   3.122   1.777   0.238 -0.0707  0.3528  0.5287
 2753TIP3    H129818   3.034   1.800   0.265 -0.1271  0.2027  0.4720
 2753TIP3    H229819   3.110   1.710   0.171  0.1192 -0.4386  1.2750
 2754TIP3   OH229820   3.814   2.836   8.137  0.1079  0.2462  0.3134
 2754TIP3    H129821   3.734   2.857   8.088  0.0507  0.7722  0.6311
 2754TIP3    H229822   3.880   2.895   8.102 -0.1621  1.2978  1.5166
 2755TIP3   OH229823   3.678   4.585   1.379  0.5762 -0.1886  0.3490
 2755TIP3    H129824   3.762   4.551   1.410  1.1313  1.3587  0.6373
 2755TIP3    H229825   3.695   4.678   1.362 -0.8434 -0.0622 -0.4897
 2756TIP3   OH229826   2.044   3.579   8.115  0.4556 -0.3561 -0.4139
 2756TIP3    H129827   2.058   3.491   8.149  0.5432 -0.1382  0.1221
 2756TIP3    H229828   2.132   3.614   8.099  0.6957  1.1044  3.1935
 2757TIP3   OH229829   5.148   4.452   0.790  0.1415 -0.0642  0.1113
 2757TIP3    H129830   5.104   4.507   0.855 -2.1303 -0.3152 -1.1066
 2757TIP3    H229831   5.156   4.366   0.833  1.7538  0.5962  1.2279
 2758TIP3   OH229832   3.618   5.020   0.744  0.0334  0.1324 -0.2000
 2758TIP3    H129833   3.597   4.932   0.711  0.1617  0.1994 -0.4607
 2758TIP3    H229834   3.600   5.078   0.670  2.6424  0.0326 -0.9857
 2759TIP3   OH229835   0.356   5.185   0.919  0.1539  0.3567 -0.6236
 2759TIP3    H129836   0.443   5.152   0.941 -0.4305 -0.9330 -0.1295
 2759TIP3    H229837   0.334   5.141   0.836 -0.8030 -0.8858  0.2513
 2760TIP3   OH229838   5.580   0.153   0.711 -0.3003 -0.5019  0.0406
 2760TIP3    H129839   5.521   0.085   0.677 -1.4173  0.8677 -0.8364
 2760TIP3    H229840   5.644   0.166   0.642 -0.9564  0.3561 -0.4173
 2761TIP3   OH229841   1.192   3.878   2.791  0.0978 -1.0229  0.3288
 2761TIP3    H129842   1.274   3.928   2.801 -0.4785 -0.2742  1.4639
 2761TIP3    H229843   1.125   3.945   2.781 -0.3140 -1.6372 -1.4867
 2762TIP3   OH229844   0.949   3.385   8.317  0.1409 -0.3290 -0.0097
 2762TIP3    H129845   1.005   3.370   8.393 -2.0918  0.0574  1.8360
 2762TIP3    H229846   0.945   3.480   8.308  1.4890 -0.3794 -1.5487
 2763TIP3   OH229847   6.423   1.463   7.435 -0.1470 -0.3306  0.4479
 2763TIP3    H129848   6.500   1.451   7.490 -1.3390  0.7368  2.4947
 2763TIP3    H229849   6.398   1.374   7.408  1.4916 -0.7215  0.1086
 2764TIP3   OH229850   0.816   0.684   0.614 -0.6353 -0.3587 -0.2551
 2764TIP3    H129851   0.905   0.662   0.642 -0.0987  2.3981  0.5314
 2764TIP3    H229852   0.826   0.705   0.520 -0.2519  0.6214 -0.0167
 2765TIP3   OH229853   2.302   3.566   7.732  0.0838  0.3449 -0.3312
 2765TIP3    H129854   2.367   3.635   7.747 -2.5675  2.7256  1.2111
 2765TIP3    H229855   2.228   3.611   7.690 -1.0378 -1.9917 -1.0281
 2766TIP3   OH229856   0.502   2.968   1.572  0.0067 -0.0207  0.2960
 2766TIP3    H129857   0.450   2.892   1.596  2.1577 -1.2981  1.1989
 2766TIP3    H229858   0.563   2.980   1.645 -0.4067  2.7707  0.3224
 2767TIP3   OH229859   0.334   4.812   0.585  0.3206  0.1841 -0.1743
 2767TIP3    H129860   0.271   4.835   0.517 -1.2920 -0.2679  1.0992
 2767TIP3    H229861   0.354   4.720   0.569  1.3087  0.5173 -1.0323
 2768TIP3   OH229862   6.385   4.391   0.482 -0.1495  0.2475 -0.3625
 2768TIP3    H129863   6.303   4.399   0.432 -0.5224  1.5749  0.3901
 2768TIP3    H229864   6.356   4.372   0.571  0.5167 -2.3077 -0.6312
 2769TIP3   OH229865   4.756   1.445   1.605 -0.6087 -0.1954  0.2300
 2769TIP3    H129866   4.840   1.450   1.561 -1.4377 -1.3258 -1.6102
 2769TIP3    H229867   4.778   1.435   1.698  1.2255  0.7749 -0.0520
 2770TIP3   OH229868   0.901   6.686   1.705 -0.5000  0.0353  0.3635
 2770TIP3    H129869   0.824   6.636   1.730 -0.8813 -0.1959 -1.2021
 2770TIP3    H229870   0.958   6.682   1.782 -1.7949 -0.2577  1.3338
 2771TIP3   OH229871   2.168   5.826   1.372 -0.1963  0.2091 -0.5836
 2771TIP3    H129872   2.136   5.887   1.305 -0.6542  1.3773  0.6637
 2771TIP3    H229873   2.092   5.807   1.426  0.1931 -0.6404 -0.3156
 2772TIP3   OH229874   0.589   3.458   8.470  0.0864 -0.3221 -0.2519
 2772TIP3    H129875   0.597   3.480   8.377  0.3119  0.4744 -0.0530
 2772TIP3    H229876   0.679   3.466   8.504  0.2331 -1.8277 -0.2159
 2773TIP3   OH229877   3.014   2.598   7.565 -0.3352 -0.0101 -0.0902
 2773TIP3    H129878   3.069   2.632   7.494 -1.1429  0.8486 -0.3206
 2773TIP3    H229879   2.974   2.519   7.527 -0.9442  0.5707 -0.6821
 2774TIP3   OH229880   5.431   1.555   8.611  0.1460 -0.1251 -0.6807
 2774TIP3    H129881   5.441   1.534   8.519 -0.5778 -0.8317 -0.6096
 2774TIP3    H229882   5.379   1.483   8.647 -0.0400  0.4089  0.1582
 2775TIP3   OH229883   3.379   4.791   8.519 -0.2131 -0.2221 -0.1814
 2775TIP3    H129884   3.302   4.844   8.538 -0.0265  0.2141 -0.6256
 2775TIP3    H229885   3.345   4.713   8.475 -0.1944  1.4711 -3.5268
 2776TIP3   OH229886   2.338   0.127   8.084  0.1914  0.1987  0.7516
 2776TIP3    H129887   2.291   0.180   8.148 -0.6204 -1.2899  1.4269
 2776TIP3    H229888   2.279   0.121   8.009  0.5104  0.6698  0.4528
 2777TIP3   OH229889   5.353   5.808   0.451  0.4473  0.8132  0.2014
 2777TIP3    H129890   5.383   5.835   0.538  1.2996 -0.6400  0.3954
 2777TIP3    H229891   5.319   5.889   0.412  2.4773  2.0788  0.8793
 2778TIP3   OH229892   3.172   5.143   8.030 -0.6634  0.2817  0.1960
 2778TIP3    H129893   3.164   5.096   8.113 -1.2811 -0.0194 -0.0257
 2778TIP3    H229894   3.225   5.220   8.051  0.8445 -0.7813  0.4564
 2779TIP3   OH229895   0.487   3.326   0.893 -0.8942  0.2853 -0.2225
 2779TIP3    H129896   0.460   3.295   0.979 -1.7194  0.3810 -0.4354
 2779TIP3    H229897   0.558   3.267   0.867 -2.6930 -1.7783 -0.8004
 2780TIP3   OH229898   5.416   6.430   7.709 -0.1661  0.3179  0.0674
 2780TIP3    H129899   5.483   6.481   7.754 -1.2997  2.0502 -0.1291
 2780TIP3    H229900   5.435   6.442   7.616  0.1560 -0.4740  0.0213
 2781TIP3   OH229901   1.073   5.151   0.749  0.0851  0.0891 -0.2215
 2781TIP3    H129902   1.007   5.118   0.688 -1.7871  0.1558  1.6836
 2781TIP3    H229903   1.105   5.231   0.707  0.3799 -0.9171 -2.0583
 2782TIP3   OH229904   0.810   2.598   2.327  0.1189  0.1802  0.0586
 2782TIP3    H129905   0.769   2.598   2.413  0.2799  0.6579  0.1416
 2782TIP3    H229906   0.805   2.690   2.298  1.5734  0.3563  0.2877
 2783TIP3   OH229907   3.370   1.302   1.182  0.8081 -0.8641  0.5051
 2783TIP3    H129908   3.379   1.336   1.271  1.4564 -0.7881  0.4174
 2783TIP3    H229909   3.330   1.373   1.133  0.1588 -1.0193  0.8034
 2784TIP3   OH229910   6.485   3.482   8.268 -0.2663 -0.8770  0.5293
 2784TIP3    H129911   6.519   3.545   8.205  0.9188  0.3388  2.2872
 2784TIP3    H229912   6.393   3.471   8.244  0.1446 -0.4840 -1.3861
 2785TIP3   OH229913   6.133   4.602   1.294  0.1593 -0.1868  0.0016
 2785TIP3    H129914   6.038   4.609   1.298 -0.0701 -1.1665 -2.5348
 2785TIP3    H229915   6.158   4.568   1.380 -1.9886 -1.8644  0.0274
 2786TIP3   OH229916   3.268   6.473   0.348  0.3928 -0.4371  0.2658
 2786TIP3    H129917   3.200   6.424   0.394 -1.0695  0.2103 -1.1110
 2786TIP3    H229918   3.229   6.493   0.263  1.5830  1.6123  0.1503
 2787TIP3   OH229919   5.476   6.136   0.200  0.6334 -0.1243 -0.2760
 2787TIP3    H129920   5.445   6.226   0.193  1.9000  0.2519 -1.6121
 2787TIP3    H229921   5.424   6.087   0.137 -1.8110 -0.9298  2.1730
 2788TIP3   OH229922   5.809   4.767   0.680  0.7062 -0.2237  0.1972
 2788TIP3    H129923   5.841   4.689   0.635  1.1671 -0.3484  0.7386
 2788TIP3    H229924   5.852   4.840   0.635  0.2166 -0.2678 -0.3579
 2789TIP3   OH229925   6.056   0.705   7.246 -0.2248  0.0415  0.4967
 2789TIP3    H129926   6.065   0.799   7.230 -0.5257 -0.0461 -0.2141
 2789TIP3    H229927   6.143   0.669   7.231 -0.4091  0.0198 -0.5815
 2790TIP3   OH229928   2.131   3.156   1.738 -0.2004  0.1697  0.1730
 2790TIP3    H129929   2.168   3.078   1.779 -2.4934 -1.4380 -0.6090
 2790TIP3    H229930   2.192   3.177   1.667 -0.4965 -2.1662 -0.8653
 2791TIP3   OH229931   5.462   5.241   2.237 -0.1086 -0.3790  0.2875
 2791TIP3    H129932   5.467   5.195   2.321 -1.3117 -0.8977  0.0869
 2791TIP3    H229933   5.493   5.178   2.173 -0.2562 -0.3632  0.2014
 2792TIP3   OH229934   0.023   2.087   1.098  0.4227  0.5178  0.0579
 2792TIP3    H129935  -0.002   1.995   1.098  0.2226  0.5707  0.1217
 2792TIP3    H229936   0.092   2.093   1.164  1.5013  0.1364 -1.0044
 2793TIP3   OH229937   1.570   0.458   1.024  0.2408 -0.0741 -0.0624
 2793TIP3    H129938   1.566   0.499   0.938 -1.9965  0.6979  0.3398
 2793TIP3    H229939   1.626   0.517   1.076  0.1604  0.4054 -0.5162
 2794TIP3   OH229940   2.684   5.161   0.554  0.3792 -0.1040 -0.0075
 2794TIP3    H129941   2.672   5.091   0.618 -0.6895  0.7997  0.8058
 2794TIP3    H229942   2.763   5.207   0.582  1.6658 -1.5159 -1.0988
 2795TIP3   OH229943   5.604   2.325   6.623 -0.3827  0.4946  0.4764
 2795TIP3    H129944   5.589   2.266   6.548  0.9664  1.7654 -0.8629
 2795TIP3    H229945   5.559   2.282   6.696 -0.5943 -1.5050 -0.7345
 2796TIP3   OH229946   4.270   6.462   7.932 -0.1368  0.2464  0.2694
 2796TIP3    H129947   4.263   6.535   7.993 -0.5552  0.9026 -0.5502
 2796TIP3    H229948   4.245   6.385   7.983  0.5671  0.6286  1.2105
 2797TIP3   OH229949   5.917   3.070   1.087 -0.1059 -0.1941 -0.0976
 2797TIP3    H129950   5.994   3.101   1.039  0.2731  0.1377  0.7008
 2797TIP3    H229951   5.931   2.976   1.098 -1.1294 -0.6679 -2.2964
 2798TIP3   OH229952   5.159   2.842   0.337  0.3367  0.2119  0.2933
 2798TIP3    H129953   5.156   2.937   0.346  1.2462  0.1453  1.5105
 2798TIP3    H229954   5.178   2.810   0.426 -0.5607 -1.1432  0.0317
 2799TIP3   OH229955   1.550   5.576   7.224 -0.0576  0.1714  0.5594
 2799TIP3    H129956   1.487   5.637   7.262  0.1649 -0.1045  1.3948
 2799TIP3    H229957   1.598   5.628   7.159  0.3442  0.9814  1.4732
 2800TIP3   OH229958   3.729   0.599   2.866  0.2870  0.6637  0.0403
 2800TIP3    H129959   3.818   0.605   2.902  0.7201 -1.1510 -0.6573
 2800TIP3    H229960   3.741   0.609   2.771 -0.0654 -0.9185 -0.1943
 2801TIP3   OH229961   3.851   1.738   7.344 -0.1548  0.7181  0.1955
 2801TIP3    H129962   3.857   1.832   7.364 -0.3834  1.1247 -1.5419
 2801TIP3    H229963   3.861   1.696   7.429 -1.2230  2.3540  1.1910
 2802TIP3   OH229964   1.143   1.786   8.355 -0.1115 -0.3977  0.2588
 2802TIP3    H129965   1.116   1.711   8.302  0.0177  0.1598 -0.6137
 2802TIP3    H229966   1.069   1.802   8.414 -1.6322  0.8750 -1.8336
 2803TIP3   OH229967   3.229   0.603   0.804 -0.0754  0.0274  0.1355
 2803TIP3    H129968   3.172   0.526   0.804  0.5246 -0.6484 -3.7795
 2803TIP3    H229969   3.277   0.597   0.887 -3.1812 -1.2309  2.0202
 2804TIP3   OH229970   6.710   4.706   1.712 -0.1722 -0.0068 -0.2008
 2804TIP3    H129971   6.622   4.685   1.682 -0.4551  1.4754 -0.5197
 2804TIP3    H229972   6.733   4.786   1.664  1.8522 -1.0315 -1.0838
 2805TIP3   OH229973   6.822   3.663   7.356  0.2767  0.1293  0.2534
 2805TIP3    H129974   6.794   3.618   7.277  1.1816  0.4594 -0.2736
 2805TIP3    H229975   6.815   3.597   7.425 -0.4884 -0.1722 -0.0999
 2806TIP3   OH229976   0.975   0.921   2.874 -0.0497 -0.5674  0.0501
 2806TIP3    H129977   0.969   1.016   2.878  2.3953 -0.2939 -1.0898
 2806TIP3    H229978   0.902   0.890   2.928 -0.5372  1.9342  0.9497
 2807TIP3   OH229979   6.265   3.188   1.815 -0.6663  0.0483  0.6187
 2807TIP3    H129980   6.290   3.123   1.750  0.0027  1.3716 -0.4908
 2807TIP3    H229981   6.336   3.186   1.879 -0.4669 -0.0347  0.3950
 2808TIP3   OH229982   3.320   3.586   1.624  0.1537  0.4466  0.1535
 2808TIP3    H129983   3.385   3.636   1.672 -0.5908  0.5453  1.0872
 2808TIP3    H229984   3.274   3.650   1.570 -0.1876  0.6213  0.6522
 2809TIP3   OH229985   6.659   2.599   0.654 -0.6154  0.1248 -0.0117
 2809TIP3    H129986   6.656   2.531   0.721 -0.0696  0.9201  0.8470
 2809TIP3    H229987   6.633   2.555   0.574 -1.9711 -0.6995  0.8451
 2810TIP3   OH229988   6.312   3.408   6.737  0.1936  0.0499  0.0997
 2810TIP3    H129989   6.294   3.333   6.679  1.2102  0.0020 -0.1737
 2810TIP3    H229990   6.237   3.466   6.724  0.4106  0.0627 -1.3294
 2811TIP3   OH229991   3.949   6.626   7.547  0.4776 -0.4686  0.0614
 2811TIP3    H129992   3.879   6.684   7.519 -0.0720 -1.0491  0.2119
 2811TIP3    H229993   3.966   6.570   7.471  1.0606 -0.0754 -0.1110
 2812TIP3   OH229994   4.853   3.817   1.938  0.6279 -0.6917 -0.0877
 2812TIP3    H129995   4.914   3.765   1.990  0.2925 -0.8959  0.1066
 2812TIP3    H229996   4.774   3.764   1.934  0.3687 -0.3057 -0.1003
 2813TIP3   OH229997   1.089   3.718   0.115  0.1830  0.2223 -0.0255
 2813TIP3    H129998   1.152   3.747   0.182 -0.6822  3.5692 -0.4972
 2813TIP3    H229999   1.143   3.702   0.037  0.8937 -1.3217  0.7283
 2814TIP3   OH230000   2.003   2.728   0.080  0.0058 -0.3954 -0.1299
 2814TIP3    H130001   1.917   2.720   0.121 -0.2811  1.2911 -0.3462
 2814TIP3    H230002   1.987   2.772  -0.003  0.9724 -0.9145 -0.6059
 2815TIP3   OH230003   6.079   0.305   7.928  0.0286 -0.0227 -0.4902
 2815TIP3    H130004   6.131   0.227   7.951  0.0908 -0.0794 -0.8125
 2815TIP3    H230005   6.131   0.379   7.960  0.4766 -0.0617 -1.1032
 2816TIP3   OH230006   3.013   0.153   2.145 -0.7994  0.0911  0.6504
 2816TIP3    H130007   2.960   0.217   2.191 -1.5248  0.2440 -0.3642
 2816TIP3    H230008   3.062   0.108   2.214  1.1750  2.9704  1.2680
 2817TIP3   OH230009   0.683   1.336   2.005  0.1048  0.7286 -0.0329
 2817TIP3    H130010   0.771   1.311   2.034  0.7839  0.9474 -1.7732
 2817TIP3    H230011   0.632   1.343   2.086  1.6435  0.4461  1.0050
 2818TIP3   OH230012   3.022   3.895   7.577 -0.1671  0.7886  0.1312
 2818TIP3    H130013   2.942   3.882   7.628  0.2015 -1.5790  0.1944
 2818TIP3    H230014   3.003   3.856   7.492  0.1974  2.2127 -0.6404
 2819TIP3   OH230015   5.704   0.403   1.241 -0.0114  0.2203 -0.1510
 2819TIP3    H130016   5.771   0.469   1.255  0.5014 -0.2321 -0.4609
 2819TIP3    H230017   5.729   0.359   1.160 -0.8542  0.2550 -0.4414
 2820TIP3   OH230018   4.994   5.318   0.238  0.2943 -0.2556  0.2647
 2820TIP3    H130019   4.933   5.289   0.306  0.8044  0.1467  0.9075
 2820TIP3    H230020   4.969   5.408   0.220  1.6959  0.4650  1.7095
 2821TIP3   OH230021   0.021   6.375   7.003 -0.5595  0.1306  0.0524
 2821TIP3    H130022   0.112   6.405   7.014  0.0124 -1.2417 -0.6174
 2821TIP3    H230023   0.030   6.282   6.983 -2.2302 -0.5063  2.0115
 2822TIP3   OH230024   2.208   2.427   1.682  0.1796  0.5352 -0.2874
 2822TIP3    H130025   2.207   2.332   1.684  0.6480  0.4502 -2.2469
 2822TIP3    H230026   2.252   2.449   1.600  0.9752  2.4480  0.5856
 2823TIP3   OH230027   2.380   5.499   8.212  0.1709 -0.1437  0.1522
 2823TIP3    H130028   2.295   5.455   8.206  0.7397 -1.3187  0.5808
 2823TIP3    H230029   2.423   5.480   8.128 -0.5032  1.6300 -0.6654
 2824TIP3   OH230030   6.396   6.362   1.659 -0.0860  0.1229 -0.2185
 2824TIP3    H130031   6.465   6.320   1.607  0.1890  1.2088 -0.7641
 2824TIP3    H230032   6.442   6.393   1.738 -0.2021 -0.1999 -0.0202
 2825TIP3   OH230033   6.804   0.730   2.093  0.2230  0.2406 -0.2852
 2825TIP3    H130034   6.803   0.688   2.007  2.8446  2.2733 -1.4025
 2825TIP3    H230035   6.723   0.782   2.095 -1.1346 -1.7223 -0.3904
 2826TIP3   OH230036   5.181   6.605   7.101  0.3841  0.3627 -0.3206
 2826TIP3    H130037   5.183   6.540   7.171  0.2999  0.3603 -0.3210
 2826TIP3    H230038   5.097   6.592   7.057 -0.4579  1.6923  0.8388
 2827TIP3   OH230039   2.435   3.887   8.466  0.2308 -0.9630 -0.0527
 2827TIP3    H130040   2.424   3.880   8.561 -0.1817 -2.7243 -0.1926
 2827TIP3    H230041   2.467   3.976   8.452 -0.6365 -0.3304  1.6493
 2828TIP3   OH230042   5.391   6.754   7.772 -0.1437 -0.2947 -0.1992
 2828TIP3    H130043   5.311   6.733   7.819  0.5720 -3.5702 -0.1809
 2828TIP3    H230044   5.422   6.835   7.812 -1.3108 -1.1313  2.6432
 2829TIP3   OH230045   6.114   4.114   2.153 -0.4997  0.0956 -0.2121
 2829TIP3    H130046   6.203   4.100   2.120 -0.6683 -0.1989 -0.5526
 2829TIP3    H230047   6.090   4.030   2.191 -1.8886 -0.9359 -3.1366
 2830TIP3   OH230048   2.637   3.762   0.229 -0.1752  0.2140  0.7972
 2830TIP3    H130049   2.610   3.684   0.278 -2.0645  0.7605  0.7132
 2830TIP3    H230050   2.592   3.834   0.272 -1.5763  0.7606 -1.4523
 2831TIP3   OH230051   1.864   0.203   8.498 -0.0634  0.0826  0.5626
 2831TIP3    H130052   1.936   0.168   8.446 -1.0054  1.0841 -1.5310
 2831TIP3    H230053   1.845   0.134   8.562  2.5285 -0.3133  1.0129
 2832TIP3   OH230054   3.169   0.862   0.817 -0.1649  0.0858 -0.5197
 2832TIP3    H130055   3.211   0.776   0.812  0.7227  0.5172 -0.6136
 2832TIP3    H230056   3.149   0.873   0.910 -0.4309 -0.2860 -0.5293
 2833TIP3   OH230057   2.528   1.926   0.447 -0.0753  0.6853  0.5017
 2833TIP3    H130058   2.538   1.835   0.476  1.6782 -0.2218 -2.5209
 2833TIP3    H230059   2.601   1.972   0.490  1.2758 -0.1992 -0.7244
 2834TIP3   OH230060   5.116   2.718   2.408 -0.7558  0.7777 -0.3824
 2834TIP3    H130061   5.177   2.741   2.479 -0.7394  3.6526 -1.1816
 2834TIP3    H230062   5.031   2.710   2.452 -0.3051 -0.3658  0.3291
 2835TIP3   OH230063   2.508   2.449   1.645 -0.1985  0.1299  0.3470
 2835TIP3    H130064   2.571   2.392   1.602 -0.1818 -1.3058  2.1630
 2835TIP3    H230065   2.465   2.496   1.573 -0.2406 -2.1861 -1.2531
 2836TIP3   OH230066   4.822   3.883   8.589  0.1133  0.3202  0.1684
 2836TIP3    H130067   4.910   3.893   8.552  0.2445  0.7981  0.6089
 2836TIP3    H230068   4.837   3.845   8.675 -0.0205  1.5656  0.7582
 2837TIP3   OH230069   1.714   3.573   1.753 -0.4137 -0.6027 -0.0678
 2837TIP3    H130070   1.679   3.493   1.794 -0.7380 -0.8045 -0.7244
 2837TIP3    H230071   1.808   3.565   1.762 -0.4531 -0.9671  0.0440
 2838TIP3   OH230072   6.745   2.561   8.457 -0.1484  0.9087  0.1614
 2838TIP3    H130073   6.789   2.554   8.372  0.0558  0.1541  0.3240
 2838TIP3    H230074   6.656   2.589   8.435 -0.8298 -1.5665 -0.5167
 2839TIP3   OH230075   2.143   0.929   7.900  0.3550 -0.0409 -0.3926
 2839TIP3    H130076   2.099   0.894   7.823  0.8312 -0.0373 -0.6661
 2839TIP3    H230077   2.235   0.932   7.876  0.4781  0.1713  0.0978
 2840TIP3   OH230078   5.408   5.335   0.155  0.0074  0.2048  0.8120
 2840TIP3    H130079   5.361   5.404   0.203  0.1696  0.4181  0.6693
 2840TIP3    H230080   5.357   5.323   0.075  1.1087  1.6562 -0.1596
 2841TIP3   OH230081   2.863   6.482   7.714  0.3477  0.1583 -0.6695
 2841TIP3    H130082   2.844   6.496   7.622 -2.9988 -1.6967 -0.4084
 2841TIP3    H230083   2.918   6.403   7.716 -1.4982 -1.2114 -1.0812
 2842TIP3   OH230084   5.490   5.553   1.406 -0.0491 -0.2165 -0.6863
 2842TIP3    H130085   5.546   5.477   1.389  2.8754  1.6027 -0.0434
 2842TIP3    H230086   5.475   5.591   1.320  2.2746  0.8395 -0.7134
 2843TIP3   OH230087   6.487   3.468   1.034 -0.5540 -1.1594 -0.4093
 2843TIP3    H130088   6.478   3.533   1.104  1.0041  0.6786 -1.8192
 2843TIP3    H230089   6.545   3.402   1.071  2.7568  1.2756 -0.7679
 2844TIP3   OH230090   0.107   3.265   7.370 -0.2748 -0.0857 -0.1916
 2844TIP3    H130091   0.122   3.322   7.445  0.1264  1.4459 -1.3674
 2844TIP3    H230092   0.049   3.197   7.402  1.8841 -0.9591  2.1809
 2845TIP3   OH230093   5.841   6.089   3.149 -0.0179 -0.7458 -1.1885
 2845TIP3    H130094   5.852   6.023   3.080 -0.1146 -0.1483 -1.7805
 2845TIP3    H230095   5.769   6.055   3.202 -0.3794 -0.8992 -1.7594
 2846TIP3   OH230096   2.039   1.284   8.301  0.5215 -0.0220 -0.0965
 2846TIP3    H130097   2.116   1.235   8.327  0.2127 -0.7410 -0.5021
 2846TIP3    H230098   2.040   1.362   8.356  0.4269 -1.0013  1.3404
 2847TIP3   OH230099   4.254   1.615   7.434  0.4779 -0.6361 -0.0975
 2847TIP3    H130100   4.344   1.628   7.406  0.9288 -2.1154  0.5681
 2847TIP3    H230101   4.245   1.520   7.442 -1.1043 -0.5053 -0.0297
 2848TIP3   OH230102   3.333   5.367   0.723 -0.6212  0.3403  0.1706
 2848TIP3    H130103   3.317   5.290   0.777 -1.0372  0.3021 -0.0056
 2848TIP3    H230104   3.246   5.399   0.699 -0.4421  0.3729 -0.4633
 2849TIP3   OH230105   2.248   6.617   2.390  0.2918  0.7449  0.7555
 2849TIP3    H130106   2.218   6.624   2.300 -1.1434  0.3391  1.1802
 2849TIP3    H230107   2.191   6.552   2.430  2.5389 -0.9957  1.3220
 2850TIP3   OH230108   4.477   0.869   8.375 -0.3594  0.2129  0.1988
 2850TIP3    H130109   4.460   0.790   8.324 -0.1177  0.5422 -0.3971
 2850TIP3    H230110   4.445   0.848   8.463 -0.0273 -0.6499  0.1201
 2851TIP3   OH230111   5.168   5.311   7.659 -0.2672 -0.9896 -0.2578
 2851TIP3    H130112   5.106   5.382   7.679  0.0012 -0.6084 -0.7591
 2851TIP3    H230113   5.127   5.263   7.587  1.0875  0.7227 -2.2928
 2852TIP3   OH230114   0.886   5.590   1.868  0.1930  0.5911 -0.1164
 2852TIP3    H130115   0.838   5.516   1.905  0.1612  0.9439  0.5672
 2852TIP3    H230116   0.936   5.626   1.942  0.7656  0.8140 -0.6020
 2853TIP3   OH230117   0.147   1.020   1.315 -0.4505  0.3358  0.7033
 2853TIP3    H130118   0.182   0.976   1.238  0.5017  1.1029  0.6730
 2853TIP3    H230119   0.081   1.080   1.282  0.2971  1.0198  0.4019
 2854TIP3   OH230120   4.139   2.890   1.010 -0.3907 -0.1992  0.1823
 2854TIP3    H130121   4.076   2.871   1.079 -0.5653  1.0217  0.3840
 2854TIP3    H230122   4.168   2.980   1.028  0.9825 -0.5345 -0.2297
 2855TIP3   OH230123   4.250   6.782   8.046  0.4958 -0.7711  0.1014
 2855TIP3    H130124   4.308   6.793   8.121 -1.9632  0.4975  1.9961
 2855TIP3    H230125   4.284   6.842   7.980  2.0505 -1.0349  0.6254
 2856TIP3   OH230126   3.978   5.347   8.056  0.6141  0.5951  0.0984
 2856TIP3    H130127   4.047   5.382   8.001  0.8077  1.8815  1.1196
 2856TIP3    H230128   3.906   5.329   7.995  1.8283 -0.8706 -0.9967
 2857TIP3   OH230129   2.268   4.494   1.981 -0.0463  0.3015 -0.2063
 2857TIP3    H130130   2.331   4.462   1.917 -0.5180  0.7931 -0.9356
 2857TIP3    H230131   2.212   4.554   1.932 -1.1405 -0.1910  0.4018
 2858TIP3   OH230132   3.830   4.690   1.711 -0.2227 -0.0834  0.9555
 2858TIP3    H130133   3.909   4.743   1.721  0.0296 -0.6357  2.0299
 2858TIP3    H230134   3.860   4.611   1.667 -0.6264  0.6810 -0.7862
 2859TIP3   OH230135   0.832   2.962   0.807 -0.1253  0.1514 -0.1779
 2859TIP3    H130136   0.918   2.938   0.774  0.0181 -1.6068  1.2756
 2859TIP3    H230137   0.810   2.892   0.869 -2.1307  1.1159  0.2906
 2860TIP3   OH230138   5.792   3.413   2.290 -0.2770  0.0408 -0.3900
 2860TIP3    H130139   5.806   3.507   2.299 -1.8290  0.2591 -0.1266
 2860TIP3    H230140   5.702   3.404   2.261 -0.1825 -1.3813 -0.3204
 2861TIP3   OH230141   6.572   3.330   2.653 -0.3460 -0.1002 -0.1931
 2861TIP3    H130142   6.598   3.396   2.588 -1.9138 -0.6446 -1.4505
 2861TIP3    H230143   6.542   3.381   2.728  0.8793  0.5630 -0.1268
 2862TIP3   OH230144   6.151   3.843   0.091  0.5811 -0.7516 -0.1101
 2862TIP3    H130145   6.213   3.784   0.049  1.2026 -0.2084  0.0230
 2862TIP3    H230146   6.139   3.914   0.029 -0.9212 -1.4790 -0.6886
 2863TIP3   OH230147   3.123   5.757   0.493  0.0342 -0.4134 -0.2369
 2863TIP3    H130148   3.148   5.800   0.575 -0.1505 -3.1815  1.4110
 2863TIP3    H230149   3.206   5.732   0.453  0.1410 -1.5435  0.6142
 2864TIP3   OH230150   0.327   3.524   7.694 -0.5287  0.0036  0.7701
 2864TIP3    H130151   0.293   3.611   7.672  0.6777  0.2617 -0.1483
 2864TIP3    H230152   0.357   3.533   7.784  0.3445  0.8026  0.4249
 2865TIP3   OH230153   5.968   6.031   0.848 -0.0440  0.3320 -0.2974
 2865TIP3    H130154   5.912   6.109   0.840 -0.8142 -0.3548 -1.9697
 2865TIP3    H230155   5.909   5.964   0.883  0.8849  0.7035  2.2351
 2866TIP3   OH230156   5.498   1.255   7.767  0.3973 -0.0212 -0.2345
 2866TIP3    H130157   5.573   1.197   7.783 -0.0506 -0.3249  0.8501
 2866TIP3    H230158   5.422   1.197   7.770  0.0403  0.4361 -0.3690
 2867TIP3   OH230159   2.800   6.644   6.627 -0.2928 -0.2721 -0.1452
 2867TIP3    H130160   2.800   6.548   6.617  1.4570 -0.4385  1.0268
 2867TIP3    H230161   2.858   6.676   6.558  1.2804 -0.3295  1.0901
 2868TIP3   OH230162   0.491   5.034   7.821  0.1138 -0.3146  0.0815
 2868TIP3    H130163   0.401   5.054   7.846 -0.7142 -1.7048 -1.5700
 2868TIP3    H230164   0.545   5.095   7.872 -1.6688 -0.2172  1.9677
 2869TIP3   OH230165   3.733   6.588   8.020  0.8106  0.0048  1.3502
 2869TIP3    H130166   3.683   6.507   8.033 -1.3278  1.1091  0.4556
 2869TIP3    H230167   3.808   6.560   7.966 -0.4929 -1.2195  0.0688
 2870TIP3   OH230168   1.657   2.526   0.039  0.1066 -0.9681  0.2799
 2870TIP3    H130169   1.641   2.617   0.013  2.4947 -1.0112 -1.7562
 2870TIP3    H230170   1.574   2.481   0.021 -0.8474  0.6197  0.4985
 2871TIP3   OH230171   4.384   0.884   7.154 -0.2246 -0.1275  0.2921
 2871TIP3    H130172   4.308   0.907   7.207 -0.3117  0.6737 -0.1554
 2871TIP3    H230173   4.458   0.892   7.213 -0.0168  3.2364 -0.2518
 2872TIP3   OH230174   5.139   4.637   1.676  0.3935  0.4645  0.1105
 2872TIP3    H130175   5.100   4.557   1.712 -1.6716  2.6570  3.2325
 2872TIP3    H230176   5.231   4.615   1.663  0.3216 -1.9097  2.7108
 2873TIP3   OH230177   4.940   5.889   2.659  0.3083 -0.4005 -0.7061
 2873TIP3    H130178   4.857   5.895   2.706  0.8711 -0.4445  0.3280
 2873TIP3    H230179   4.966   5.980   2.644  2.3128 -0.1582  3.1274
 2874TIP3   OH230180   5.633   6.024   7.939 -0.1583 -0.3037  0.4746
 2874TIP3    H130181   5.562   5.970   7.905 -1.2322  1.2392  0.1580
 2874TIP3    H230182   5.592   6.107   7.960  1.4145  0.3622  1.0896
 2875TIP3   OH230183   4.500   0.841   1.308  0.3398 -0.3096 -0.6106
 2875TIP3    H130184   4.438   0.830   1.380  0.6855 -0.5241 -0.3358
 2875TIP3    H230185   4.528   0.932   1.313  0.6476 -0.4226 -0.2323
 2876TIP3   OH230186   3.604   4.740   7.259  0.5886 -0.5028 -0.3958
 2876TIP3    H130187   3.552   4.725   7.180  1.1261 -2.0858 -0.4788
 2876TIP3    H230188   3.590   4.662   7.312  1.3937 -0.1103  0.4222
 2877TIP3   OH230189   4.983   4.148   7.787  0.2091 -0.5855 -0.2361
 2877TIP3    H130190   5.075   4.171   7.792  0.3228 -1.1906  0.7487
 2877TIP3    H230191   4.938   4.231   7.771  0.8177 -0.1022  0.5156
 2878TIP3   OH230192   0.535   1.541   8.330  0.0825  0.5846  0.1523
 2878TIP3    H130193   0.505   1.610   8.389 -0.6763  0.2989  0.1182
 2878TIP3    H230194   0.612   1.577   8.287  0.5954  0.8277  1.2538
 2879TIP3   OH230195   4.633   5.456   0.479 -0.5557 -0.1358  0.0691
 2879TIP3    H130196   4.651   5.363   0.489  0.7638  0.1996  0.9788
 2879TIP3    H230197   4.544   5.459   0.443 -0.3051 -1.7549 -0.7842
 2880TIP3   OH230198   4.891   2.037   2.182  0.0393  0.0013  0.2895
 2880TIP3    H130199   4.859   2.116   2.138  1.1329  0.5968  0.5139
 2880TIP3    H230200   4.832   2.025   2.256 -1.6288 -0.8203 -1.1007
 2881TIP3   OH230201   4.693   3.808   6.873  0.6770 -0.2814 -0.3840
 2881TIP3    H130202   4.750   3.819   6.797 -0.7974  2.2183 -1.2480
 2881TIP3    H230203   4.625   3.875   6.862 -3.4618 -4.0152 -0.3397
 2882TIP3   OH230204   5.164   0.916   0.283 -0.3126 -0.0688 -0.1023
 2882TIP3    H130205   5.181   0.843   0.342  0.4826  0.2758  0.1041
 2882TIP3    H230206   5.215   0.895   0.204 -3.5271 -1.9497 -1.8767
 2883TIP3   OH230207   0.782   2.387   1.490  0.2760  0.0456  0.0141
 2883TIP3    H130208   0.789   2.453   1.420  0.6142  1.2087  1.1092
 2883TIP3    H230209   0.720   2.425   1.552  2.3601  0.5552  1.9102
 2884TIP3   OH230210   4.420   2.513   0.331  0.1214 -0.7423  0.4827
 2884TIP3    H130211   4.400   2.419   0.336 -0.1663 -0.6971  0.2509
 2884TIP3    H230212   4.388   2.539   0.244  1.6553 -0.7666 -0.1156
 2885TIP3   OH230213   6.738   4.923   0.874  0.5281  0.2587  0.3341
 2885TIP3    H130214   6.719   4.912   0.781 -2.1555 -0.1138  0.8622
 2885TIP3    H230215   6.733   5.018   0.888 -1.3465  0.1661  0.4871
 2886TIP3   OH230216   1.092   3.963   8.230  0.2857 -0.0509  0.6604
 2886TIP3    H130217   1.163   4.021   8.201 -0.4658  0.9249  0.7473
 2886TIP3    H230218   1.017   4.020   8.242 -0.4725 -1.0437  0.7866
 2887TIP3   OH230219   4.100   4.583   1.394  0.7365  0.6841  0.5842
 2887TIP3    H130220   4.012   4.580   1.430  0.2564 -1.3408 -0.6114
 2887TIP3    H230221   4.099   4.656   1.331 -0.3616  0.1105 -0.0752
 2888TIP3   OH230222   6.245   6.144   0.124 -0.0084 -0.1573 -0.5595
 2888TIP3    H130223   6.299   6.204   0.073 -0.3975  2.0585  1.4504
 2888TIP3    H230224   6.308   6.086   0.168  0.4575 -0.4061 -1.5385
 2889TIP3   OH230225   5.964   1.783   2.341 -0.3131  0.4664  0.1578
 2889TIP3    H130226   6.041   1.838   2.354 -0.6711  0.7044  1.4477
 2889TIP3    H230227   5.894   1.830   2.386 -0.6572 -0.9673  1.1914
 2890TIP3   OH230228   0.938   4.344   1.258 -0.1712  0.1824 -0.2800
 2890TIP3    H130229   0.898   4.398   1.326  0.3425  0.9939 -0.6107
 2890TIP3    H230230   0.906   4.255   1.276  1.2201  0.0630  1.9809
 2891TIP3   OH230231   0.339   2.016   0.068 -0.1074  0.3079  0.4491
 2891TIP3    H130232   0.274   2.052   0.128  1.1268  1.9286  0.8631
 2891TIP3    H230233   0.286   1.974  -0.001 -1.5607  0.5178  1.3807
 2892TIP3   OH230234   3.807   1.347   0.332 -0.2951 -0.1649  0.2482
 2892TIP3    H130235   3.740   1.293   0.374 -0.2193  0.0326  0.6341
 2892TIP3    H230236   3.757   1.406   0.275 -0.3927 -0.4998 -0.0152
 2893TIP3   OH230237   2.902   5.332   7.371 -0.0564 -0.3746  0.4479
 2893TIP3    H130238   2.863   5.262   7.423 -0.5607 -0.7771 -0.4678
 2893TIP3    H230239   2.983   5.295   7.337  0.9026  0.2850  1.9046
 2894TIP3   OH230240   3.503   6.281   8.665 -0.0560 -0.4104  0.1297
 2894TIP3    H130241   3.463   6.355   8.618  1.5126  0.7102  0.4633
 2894TIP3    H230242   3.431   6.219   8.677 -1.3716  0.9247 -0.4294
 2895TIP3   OH230243   0.914   5.414   2.168 -0.6177 -0.1200  0.5747
 2895TIP3    H130244   0.848   5.475   2.201 -0.6391  0.3812 -0.3736
 2895TIP3    H230245   0.962   5.387   2.246 -1.8102 -0.3420  1.2569
 2896TIP3   OH230246   1.438   5.408   0.463 -0.2693 -0.1381  0.4041
 2896TIP3    H130247   1.430   5.313   0.456 -1.6945  0.0115 -0.3004
 2896TIP3    H230248   1.391   5.442   0.387 -1.1056  1.1572  1.4623
 2897TIP3   OH230249   1.928   0.444   1.699  0.2091  0.0914  0.1763
 2897TIP3    H130250   2.005   0.396   1.669 -0.5164 -2.2751  1.7826
 2897TIP3    H230251   1.952   0.477   1.785 -0.5835 -0.8236  0.7720
 2898TIP3   OH230252   0.083   2.578   7.683  0.3099  0.1191 -0.0596
 2898TIP3    H130253   0.155   2.566   7.622 -1.7615  0.4387 -2.8061
 2898TIP3    H230254   0.070   2.673   7.686 -1.0045 -0.0095 -0.9580
 2899TIP3   OH230255   4.434   3.227   2.258 -0.0434 -0.0714 -0.3101
 2899TIP3    H130256   4.461   3.140   2.230 -0.8377 -0.0030 -1.4099
 2899TIP3    H230257   4.363   3.212   2.321  0.4147 -0.2200  0.1727
 2900TIP3   OH230258   6.592   3.028   0.736  0.1960 -0.3032  0.5439
 2900TIP3    H130259   6.654   3.096   0.709 -0.1232  0.2054  1.0979
 2900TIP3    H230260   6.514   3.075   0.763 -0.4708 -0.9454 -0.1971
 2901TIP3   OH230261   6.687   0.421   2.173  0.3584 -0.5421  0.7219
 2901TIP3    H130262   6.777   0.391   2.178  1.0213  1.0911 -0.5111
 2901TIP3    H230263   6.669   0.457   2.260  0.8986 -0.8397  0.9575
 2902TIP3   OH230264   6.332   0.018   0.302  0.7950 -0.5241 -0.5534
 2902TIP3    H130265   6.358   0.014   0.210 -2.0478 -0.2437 -1.4527
 2902TIP3    H230266   6.244  -0.020   0.304  1.6552 -2.7992  2.4989
 2903TIP3   OH230267   1.346   2.220   1.596  0.3367  0.0800 -0.1738
 2903TIP3    H130268   1.288   2.165   1.649 -1.7899  0.7487 -1.6698
 2903TIP3    H230269   1.352   2.174   1.512  2.3111 -0.1312  0.0353
 2904TIP3   OH230270   3.893   6.705   1.948  0.2652  0.6529 -0.4476
 2904TIP3    H130271   3.816   6.759   1.961  0.4897  0.7330  0.6538
 2904TIP3    H230272   3.859   6.618   1.929 -0.1382  0.3129  1.6108
 2905TIP3   OH230273   5.209   3.784   1.860 -0.9522 -0.0010 -0.1116
 2905TIP3    H130274   5.184   3.784   1.953 -1.6463  0.5558 -0.2943
 2905TIP3    H230275   5.128   3.766   1.814 -0.6756  0.0999 -0.6387
 2906TIP3   OH230276   2.326   6.602   7.692 -0.0891 -0.2332 -0.3716
 2906TIP3    H130277   2.365   6.544   7.757 -0.3154  0.9846  0.9137
 2906TIP3    H230278   2.367   6.577   7.609  1.2718 -0.8786  0.4617
 2907TIP3   OH230279   4.250   2.572   1.362 -0.0268 -0.4014 -0.0761
 2907TIP3    H130280   4.184   2.640   1.346  0.6452  0.1849 -0.4430
 2907TIP3    H230281   4.256   2.525   1.279  1.5193  0.9108 -0.7658
 2908TIP3   OH230282   2.767   1.030   0.124 -0.0312  0.6171  0.0772
 2908TIP3    H130283   2.796   0.941   0.143 -0.1700  0.6377  0.3971
 2908TIP3    H230284   2.699   1.047   0.189 -0.4107  0.7480 -0.3486
 2909TIP3   OH230285   4.700   2.225   6.943 -0.9527 -0.0144 -0.4980
 2909TIP3    H130286   4.722   2.318   6.943 -0.3643 -0.1487 -0.2805
 2909TIP3    H230287   4.750   2.188   6.870 -2.2295  0.0679 -1.4475
 2910TIP3   OH230288   5.550   6.401   0.777 -0.1925 -0.0797  0.6566
 2910TIP3    H130289   5.455   6.394   0.785 -0.2814  0.2363 -0.0589
 2910TIP3    H230290   5.577   6.322   0.731 -0.3245  0.6417 -0.7068
 2911TIP3   OH230291   2.023   1.637   0.144 -0.4919  0.1478  0.5802
 2911TIP3    H130292   2.005   1.704   0.211  1.4336  0.8358  0.4656
 2911TIP3    H230293   2.064   1.685   0.073 -0.6505 -0.9172 -0.2541
 2912TIP3   OH230294   6.581   4.249   2.951 -0.0089 -0.3664  0.1039
 2912TIP3    H130295   6.656   4.215   2.999 -0.3725 -0.1856  0.8183
 2912TIP3    H230296   6.529   4.171   2.930 -0.5876 -0.3184  1.2997
 2913TIP3   OH230297   6.433   3.168   0.439  0.4355 -0.6395 -0.7243
 2913TIP3    H130298   6.432   3.135   0.529  1.1678 -0.9501 -0.8207
 2913TIP3    H230299   6.402   3.258   0.447 -0.2720 -0.9151 -0.2722
 2914TIP3   OH230300   2.474   1.498   2.249 -0.1354  0.2224  0.0552
 2914TIP3    H130301   2.446   1.428   2.189  1.3373 -0.6300  0.3083
 2914TIP3    H230302   2.494   1.572   2.191 -1.7405  0.4819 -0.2138
 2915TIP3   OH230303   3.055   6.333   8.222 -0.1189 -1.1333 -0.5406
 2915TIP3    H130304   3.021   6.259   8.171 -1.3661  0.9027 -2.8830
 2915TIP3    H230305   3.018   6.320   8.310 -0.8788 -2.8911 -1.0679
 2916TIP3   OH230306   3.409   1.126   1.928 -0.8895  0.5091  0.2829
 2916TIP3    H130307   3.459   1.207   1.913 -1.3315  0.5956 -0.7695
 2916TIP3    H230308   3.453   1.061   1.874 -0.5099  0.0147  1.1622
 2917TIP3   OH230309   5.973   0.830   0.989 -0.6114 -0.3944 -0.4724
 2917TIP3    H130310   5.908   0.872   1.044 -1.1069 -0.2478 -1.1562
 2917TIP3    H230311   6.036   0.899   0.968 -1.7231  0.1944 -2.0551
 2918TIP3   OH230312   1.642   5.895   7.331  0.2485  0.3798 -0.3315
 2918TIP3    H130313   1.659   5.845   7.252  0.5617  0.6233 -0.4162
 2918TIP3    H230314   1.707   5.965   7.331 -0.5029  1.0993 -0.4781
 2919TIP3   OH230315   5.910   1.556   7.473 -0.0563  0.4728  0.1893
 2919TIP3    H130316   5.892   1.595   7.558 -0.9884  0.3541  0.0595
 2919TIP3    H230317   5.869   1.617   7.410 -0.8449 -0.2851 -0.0603
 2920TIP3   OH230318   5.777   0.339   2.826  0.0306  0.3574 -0.7837
 2920TIP3    H130319   5.704   0.379   2.874  0.5173 -0.4265  0.6738
 2920TIP3    H230320   5.834   0.413   2.803  1.6480  0.5740  3.1055
 2921TIP3   OH230321   6.367   0.002   0.713  0.6114  0.1998  0.1151
 2921TIP3    H130322   6.370  -0.042   0.629 -0.4337  0.0508  0.1488
 2921TIP3    H230323   6.392   0.093   0.693  1.7127 -0.1294 -0.1166
 2922TIP3   OH230324   3.340   0.826   2.864  0.1505  0.3616 -0.2183
 2922TIP3    H130325   3.382   0.761   2.921  0.0113  0.0585 -0.4592
 2922TIP3    H230326   3.413   0.865   2.815  0.3969  1.3725  0.9113
 2923TIP3   OH230327   5.395   3.338   7.323 -0.2729  0.4626 -0.5094
 2923TIP3    H130328   5.377   3.429   7.299 -2.4702  0.0371 -0.6985
 2923TIP3    H230329   5.405   3.293   7.239 -1.9468  0.0703 -0.5346
 2924TIP3   OH230330   2.908   4.858   7.705 -0.5979  0.2860  0.3577
 2924TIP3    H130331   2.943   4.846   7.617  0.6815 -1.7311  1.0840
 2924TIP3    H230332   2.965   4.923   7.746  0.4488 -0.7089  0.5204
 2925TIP3   OH230333   0.250   0.167   7.749  0.3644  0.1831  0.4518
 2925TIP3    H130334   0.218   0.085   7.710 -0.4253 -1.1172  3.5052
 2925TIP3    H230335   0.189   0.234   7.717 -0.6475 -0.9158  0.0056
 2926TIP3   OH230336   1.723   1.190   1.367 -0.0005 -0.3929  0.2667
 2926TIP3    H130337   1.719   1.285   1.365 -1.5294 -0.4235 -2.1590
 2926TIP3    H230338   1.711   1.167   1.459  2.3971  1.7410  1.2305
 2927TIP3   OH230339   0.506   6.353   8.073 -0.7236  0.0113 -0.2026
 2927TIP3    H130340   0.561   6.395   8.007 -1.9891  0.6961 -0.8485
 2927TIP3    H230341   0.476   6.425   8.129 -1.8463 -0.1969 -0.5210
 2928TIP3   OH230342   2.914   1.706   1.838 -0.8574 -0.4260 -0.1278
 2928TIP3    H130343   2.917   1.724   1.931 -1.0805 -0.6280 -0.0792
 2928TIP3    H230344   2.932   1.790   1.796  1.0824 -0.7006  0.0891
 2929TIP3   OH230345   2.289   2.854   7.107  0.2851 -0.2673 -0.1594
 2929TIP3    H130346   2.348   2.782   7.085  0.5277 -0.1727  0.1878
 2929TIP3    H230347   2.248   2.827   7.189  1.9253  0.9060  1.1003
 2930TIP3   OH230348   1.319   4.378   7.499  0.4113 -0.5832  0.3494
 2930TIP3    H130349   1.267   4.307   7.463 -0.2036 -0.2701  0.6184
 2930TIP3    H230350   1.352   4.425   7.422  0.0652 -0.6059  0.1877
 2931TIP3   OH230351   6.008   0.394   0.080 -0.2113  0.4641  0.4451
 2931TIP3    H130352   6.085   0.403   0.023  0.1918  0.1044  0.9292
 2931TIP3    H230353   6.044   0.368   0.165 -1.0339 -2.3961  0.0305
 2932TIP3   OH230354   3.372   0.553   1.059  0.1956  0.3165 -0.2982
 2932TIP3    H130355   3.371   0.567   1.154  0.5043  1.9560 -0.5109
 2932TIP3    H230356   3.448   0.602   1.029 -0.4023  0.5304 -1.4993
 2933TIP3   OH230357   0.005   4.767   1.916 -0.0804  0.2266 -0.1955
 2933TIP3    H130358  -0.061   4.750   1.849 -1.0223  1.0490  0.4945
 2933TIP3    H230359   0.088   4.768   1.868 -0.8487  2.2538 -1.6182
 2934TIP3   OH230360   3.281   1.396   0.599 -1.0607  0.1976  0.1327
 2934TIP3    H130361   3.349   1.451   0.637  1.4503 -1.5430 -1.5334
 2934TIP3    H230362   3.244   1.448   0.528  0.6896  0.1078 -0.8885
 2935TIP3   OH230363   0.161   6.542   1.334  0.2655  0.0769 -0.1028
 2935TIP3    H130364   0.105   6.515   1.262 -0.1030 -0.8649  0.5146
 2935TIP3    H230365   0.100   6.576   1.400  0.5235  0.1282  0.1090
 2936TIP3   OH230366   6.211   0.557   7.756  0.6503  0.2144  0.0542
 2936TIP3    H130367   6.222   0.636   7.808 -0.3989 -0.0005  0.6311
 2936TIP3    H230368   6.134   0.574   7.702  0.4890 -0.3553  0.0920
 2937TIP3   OH230369   5.576   0.615   7.111  0.1658  0.6809  0.1557
 2937TIP3    H130370   5.597   0.701   7.074 -0.5392  1.2111  0.9521
 2937TIP3    H230371   5.552   0.562   7.035 -0.9135  1.6454 -0.2034
 2938TIP3   OH230372   2.162   1.541   1.191 -1.1502 -0.2799  0.1143
 2938TIP3    H130373   2.138   1.486   1.265 -2.7316 -0.3193 -0.3814
 2938TIP3    H230374   2.110   1.621   1.202 -1.0838 -0.1094 -0.7046
 2939TIP3   OH230375   4.024   0.292   7.975 -0.4508 -0.0629  0.1069
 2939TIP3    H130376   3.986   0.204   7.970  0.0057 -0.2229 -0.9544
 2939TIP3    H230377   4.110   0.279   8.014  0.3042 -0.3654 -1.5415
 2940TIP3   OH230378   5.046   3.012   2.214  0.1589  0.2930  0.5201
 2940TIP3    H130379   5.133   2.973   2.218  0.6540  1.2107 -0.6577
 2940TIP3    H230380   4.986   2.940   2.234  1.1579 -0.4549  0.8669
 2941TIP3   OH230381   4.682   3.141   8.259 -0.4329  0.0378 -0.4765
 2941TIP3    H130382   4.698   3.214   8.320 -0.3690 -0.0949 -0.3335
 2941TIP3    H230383   4.608   3.094   8.297 -0.1825 -0.2371 -0.3259
 2942TIP3   OH230384   2.240   0.567   8.290  0.1700  0.0012  0.2045
 2942TIP3    H130385   2.285   0.573   8.374  1.2184  0.8185 -0.3955
 2942TIP3    H230386   2.190   0.649   8.282  0.1962 -0.0043 -0.0400
 2943TIP3   OH230387   4.262   3.472   2.159  0.2318 -0.1228  0.0749
 2943TIP3    H130388   4.197   3.402   2.153 -0.7941  0.8808 -1.0040
 2943TIP3    H230389   4.345   3.426   2.174 -0.4986 -1.5200  0.0266
 2944TIP3   OH230390   6.647   3.753   7.749  0.1131  0.5122  0.0928
 2944TIP3    H130391   6.562   3.743   7.706  0.7143 -2.6685 -0.5628
 2944TIP3    H230392   6.711   3.754   7.677  0.7711  1.1477  0.6668
 2945TIP3   OH230393   2.115   2.861   7.692 -0.6295  0.3553  0.2384
 2945TIP3    H130394   2.173   2.932   7.666 -1.1323  1.5462  2.1829
 2945TIP3    H230395   2.028   2.900   7.694 -1.7969 -1.5875 -3.4163
 2946TIP3   OH230396   5.722   1.598   1.739 -0.0563 -0.1132 -0.5770
 2946TIP3    H130397   5.682   1.650   1.669 -0.4026 -1.5391 -1.4837
 2946TIP3    H230398   5.737   1.512   1.700  1.4235 -0.4271  0.5703
 2947TIP3   OH230399   2.149   3.811   1.558 -0.8042  0.3945  1.2172
 2947TIP3    H130400   2.212   3.740   1.568  0.7713  1.2160 -1.5878
 2947TIP3    H230401   2.170   3.872   1.629 -0.5897 -0.7737  2.1963
 2948TIP3   OH230402   6.710   4.420   1.195 -0.4101 -0.3516 -0.1343
 2948TIP3    H130403   6.751   4.502   1.167 -1.3655  0.4064  0.5900
 2948TIP3    H230404   6.775   4.378   1.251 -0.0217  0.0627 -0.2713
 2949TIP3   OH230405   2.949   3.554   2.473  0.4489  0.0416 -0.8200
 2949TIP3    H130406   2.896   3.474   2.468  0.0601  0.3450 -2.0868
 2949TIP3    H230407   3.039   3.524   2.464  0.6097 -0.5499  2.0017
 2950TIP3   OH230408   6.115   3.928   1.843 -0.2624 -0.5244  0.8956
 2950TIP3    H130409   6.039   3.963   1.890 -0.5076  0.1471  0.0137
 2950TIP3    H230410   6.145   3.855   1.898  0.3353  1.1028  2.8636
 2951TIP3   OH230411   3.140   3.330   0.945 -0.1697 -0.0938 -0.1895
 2951TIP3    H130412   3.218   3.380   0.921 -0.3335 -0.2520 -1.0828
 2951TIP3    H230413   3.136   3.259   0.880 -1.1095 -0.0243 -0.2257
 2952TIP3   OH230414   3.493   4.054   8.597  0.5154  0.3682  0.5065
 2952TIP3    H130415   3.448   4.036   8.515 -0.0158 -0.0179  0.8788
 2952TIP3    H230416   3.469   3.982   8.654 -1.3929  2.0100  1.9200
 2953TIP3   OH230417   2.472   3.347   0.997  0.9287 -0.0800 -0.1757
 2953TIP3    H130418   2.567   3.348   0.994  1.0552 -0.9310  1.9359
 2953TIP3    H230419   2.448   3.437   1.017  1.1698  0.4473 -2.0739
 2954TIP3   OH230420   1.996   5.707   7.232  0.1030  0.2557  0.3567
 2954TIP3    H130421   1.995   5.802   7.242  1.4664  0.4424 -0.8473
 2954TIP3    H230422   2.076   5.690   7.183  0.6678 -1.6569  1.8259
 2955TIP3   OH230423   6.327   4.700   0.449  0.2517 -0.0067 -0.0979
 2955TIP3    H130424   6.238   4.718   0.478  0.3867 -1.2452  1.2105
 2955TIP3    H230425   6.382   4.737   0.518  0.7124 -0.3327 -0.2873
 2956TIP3   OH230426   3.336   4.614   1.069  0.0109  0.6224  0.0419
 2956TIP3    H130427   3.389   4.693   1.062  0.7259  0.0247 -1.8126
 2956TIP3    H230428   3.396   4.543   1.044 -0.7660 -0.4563  1.1283
 2957TIP3   OH230429   6.100   5.962   7.723  0.0290  0.4761 -0.6892
 2957TIP3    H130430   6.050   5.881   7.721  0.8129 -0.0189 -1.0134
 2957TIP3    H230431   6.057   6.016   7.790 -1.3099  0.3382 -1.4234
 2958TIP3   OH230432   1.286   5.893   0.658 -0.0013  0.8322 -0.0489
 2958TIP3    H130433   1.215   5.907   0.720  0.0197 -0.3289  0.2598
 2958TIP3    H230434   1.262   5.946   0.581 -2.0245 -0.7393 -0.5818
 2959TIP3   OH230435   2.996   4.523   0.369  0.7194 -1.1257 -0.0784
 2959TIP3    H130436   3.054   4.459   0.410 -0.3408 -1.9180  0.2565
 2959TIP3    H230437   2.915   4.474   0.353  0.2493 -0.1421 -0.8091
 2960TIP3   OH230438   4.202   1.770   8.323 -0.0998  0.0232 -0.0448
 2960TIP3    H130439   4.135   1.783   8.256  0.1898 -3.4536 -1.1942
 2960TIP3    H230440   4.278   1.818   8.290 -1.0940  1.6052 -0.1551
 2961TIP3   OH230441   4.511   3.087   3.067  0.0512  0.1562  0.0770
 2961TIP3    H130442   4.589   3.038   3.094  0.5326  0.8301 -0.0570
 2961TIP3    H230443   4.438   3.029   3.086  0.6910 -1.2920 -1.5631
 2962TIP3   OH230444   1.212   4.070   7.933  0.0094 -0.3335 -0.0765
 2962TIP3    H130445   1.125   4.031   7.930  0.1412 -0.6404  0.0480
 2962TIP3    H230446   1.218   4.122   7.852 -0.2877 -0.3117 -0.0830
 2963TIP3   OH230447   4.128   1.707   3.076 -0.0708 -0.2510  0.5997
 2963TIP3    H130448   4.101   1.634   3.133  1.8930 -1.9046 -0.4445
 2963TIP3    H230449   4.219   1.725   3.102  0.6055 -0.5015 -1.3915
 2964TIP3   OH230450   6.280   6.435   8.559  0.4091  0.3337  0.2407
 2964TIP3    H130451   6.191   6.429   8.524  0.0090 -1.2095  1.4094
 2964TIP3    H230452   6.291   6.528   8.579  0.7271  1.3928 -3.9068
 2965TIP3   OH230453   1.707   2.335   7.794 -0.4678 -0.2926 -0.5797
 2965TIP3    H130454   1.795   2.373   7.797 -0.5964 -0.0313  1.6759
 2965TIP3    H230455   1.670   2.366   7.711  1.0998  0.6329 -0.9737
 2966TIP3   OH230456   4.808   2.922   7.045 -0.0341 -0.1613  0.2094
 2966TIP3    H130457   4.813   2.979   6.968 -0.9888 -1.2316 -0.6802
 2966TIP3    H230458   4.887   2.868   7.040  0.2854  0.2839  0.4087
 2967TIP3   OH230459   0.793   3.237   7.459  0.2995  0.0098 -0.3927
 2967TIP3    H130460   0.742   3.184   7.397  1.6349 -2.1306  0.2456
 2967TIP3    H230461   0.738   3.243   7.537 -0.0228 -0.1012 -0.6113
 2968TIP3   OH230462   5.944   5.616   0.545  0.2352 -0.5759 -0.2827
 2968TIP3    H130463   6.016   5.557   0.565  0.9162  0.4072  0.2422
 2968TIP3    H230464   5.981   5.704   0.554 -0.2115 -0.0198 -2.9203
 2969TIP3   OH230465   3.324   1.300   2.784  0.3726 -0.1267  0.1875
 2969TIP3    H130466   3.392   1.285   2.849  0.1152 -0.8924  0.2905
 2969TIP3    H230467   3.365   1.277   2.701  0.3536 -0.2131  0.2029
 2970TIP3   OH230468   5.233   5.701   1.476 -0.5631 -0.3175  0.0093
 2970TIP3    H130469   5.282   5.619   1.465 -0.7761 -0.4175 -0.2281
 2970TIP3    H230470   5.163   5.678   1.537 -2.7758 -1.3156 -2.6454
 2971TIP3   OH230471   1.378   1.704   2.219  0.1364 -1.1435  0.4709
 2971TIP3    H130472   1.402   1.611   2.226  1.2694 -0.8844  0.2836
 2971TIP3    H230473   1.447   1.750   2.266  0.4427 -0.2922 -0.7574
 2972TIP3   OH230474   3.039   6.646   1.968 -0.3482  0.1591 -0.7632
 2972TIP3    H130475   3.116   6.687   1.929 -1.2233  1.9391 -0.6948
 2972TIP3    H230476   3.073   6.598   2.044  0.5904  1.6575 -0.2018
 2973TIP3   OH230477   6.166   0.903   0.185 -0.3666 -0.0015 -0.2461
 2973TIP3    H130478   6.184   0.981   0.133 -0.0094  0.2326  0.2129
 2973TIP3    H230479   6.245   0.892   0.238  0.5085 -1.9206 -1.8373
 2974TIP3   OH230480   1.574   6.634   7.572 -0.3711  0.0589 -0.2893
 2974TIP3    H130481   1.612   6.687   7.642 -0.7463 -0.3362  0.2127
 2974TIP3    H230482   1.479   6.641   7.585 -0.4300 -0.5470 -0.3555
 2975TIP3   OH230483   2.911   2.259   7.697 -0.2426 -0.6190 -0.5617
 2975TIP3    H130484   2.883   2.259   7.788  1.1067 -2.5118 -0.0720
 2975TIP3    H230485   2.884   2.173   7.663  1.0002 -0.7473 -1.3244
 2976TIP3   OH230486   6.647   1.522   0.807  0.5991 -0.0887  0.1559
 2976TIP3    H130487   6.692   1.582   0.866 -2.2016  0.7961  1.5558
 2976TIP3    H230488   6.640   1.440   0.856 -1.5892  0.5994  1.1078
 2977TIP3   OH230489   2.540   3.052   8.253  0.1871 -0.5773  0.0299
 2977TIP3    H130490   2.635   3.045   8.246  0.1831 -0.3549 -0.2545
 2977TIP3    H230491   2.523   3.146   8.254 -0.0711 -0.6142 -0.4879
 2978TIP3   OH230492   4.916   5.487   1.787  0.0128 -0.4778 -0.6446
 2978TIP3    H130493   4.931   5.395   1.812 -0.4067 -0.6681 -1.0835
 2978TIP3    H230494   4.861   5.521   1.857 -1.2116 -1.0275 -1.3127
 2979TIP3   OH230495   6.112   0.785   1.363 -0.1565  0.5215 -0.1644
 2979TIP3    H130496   6.170   0.858   1.344  3.9862 -2.6315 -0.9142
 2979TIP3    H230497   6.077   0.759   1.278 -0.2854  0.5746 -0.1285
 2980TIP3   OH230498   3.409   4.718   0.233  0.7107  0.3469  0.3340
 2980TIP3    H130499   3.336   4.743   0.289  0.9183  2.2810 -0.1826
 2980TIP3    H230500   3.431   4.629   0.261  0.0516  0.7954  2.5017
 2981TIP3   OH230501   5.679   5.983   2.747 -0.0834 -0.0331 -0.1125
 2981TIP3    H130502   5.705   5.895   2.774  1.1886  0.0834 -0.8607
 2981TIP3    H230503   5.741   6.041   2.792  0.8562  0.2760 -1.7192
 2982TIP3   OH230504   2.027   4.349   0.631 -0.1525  0.0734  0.2839
 2982TIP3    H130505   2.011   4.256   0.651  0.4231 -0.8614 -2.9881
 2982TIP3    H230506   1.940   4.389   0.634 -0.8916 -1.2940 -1.1520
 2983TIP3   OH230507   0.311   4.360   8.663  0.3100 -0.0307  0.1164
 2983TIP3    H130508   0.267   4.292   8.713 -1.2900  0.0274 -1.1418
 2983TIP3    H230509   0.335   4.319   8.580 -0.0280  0.7281 -0.3740
 2984TIP3   OH230510   1.367   6.851   7.303  0.1109  0.2093 -0.1485
 2984TIP3    H130511   1.326   6.937   7.297 -3.7313 -1.4140  0.0350
 2984TIP3    H230512   1.406   6.849   7.390 -1.1908  1.2206  0.4868
 2985TIP3   OH230513   6.760   2.002   0.132  0.1769 -0.4871 -0.5887
 2985TIP3    H130514   6.693   1.941   0.164 -0.0453  0.2345  0.3734
 2985TIP3    H230515   6.722   2.040   0.054  0.4019 -1.7143 -1.3211
 2986TIP3   OH230516   0.590   2.502   1.660 -0.9262 -0.0018  0.2574
 2986TIP3    H130517   0.644   2.490   1.738 -0.1483 -0.2407 -0.3041
 2986TIP3    H230518   0.509   2.456   1.679 -0.1693 -1.3369  0.3590
 2987TIP3   OH230519   5.582   1.777   1.070  0.0757  0.0355  0.2246
 2987TIP3    H130520   5.661   1.818   1.037  0.9566 -1.4924  0.3053
 2987TIP3    H230521   5.580   1.800   1.163  0.9852 -0.6819  0.4445
 2988TIP3   OH230522   0.198   0.923   8.274 -0.3920 -0.1186  0.1611
 2988TIP3    H130523   0.151   0.978   8.213 -0.2314  0.9837  0.9985
 2988TIP3    H230524   0.285   0.913   8.236  0.0674  1.4826  0.6964
 2989TIP3   OH230525   4.352   4.328   2.719 -0.1432  0.0918  0.5051
 2989TIP3    H130526   4.307   4.257   2.765 -0.6970 -0.1979 -0.4705
 2989TIP3    H230527   4.438   4.333   2.763  0.4685 -2.1021 -0.2655
 2990TIP3   OH230528   1.207   3.670   0.968 -0.1514  0.2018 -0.6606
 2990TIP3    H130529   1.278   3.620   0.926 -1.6342 -1.4374 -1.3153
 2990TIP3    H230530   1.170   3.722   0.897 -0.3151  0.2184 -0.5626
 2991TIP3   OH230531   4.611   3.671   1.896 -0.1584  0.8075  0.5212
 2991TIP3    H130532   4.599   3.719   1.814  1.1350  2.3101  1.1653
 2991TIP3    H230533   4.523   3.664   1.933 -0.7964 -0.1263 -1.0783
 2992TIP3   OH230534   0.163   4.233   8.445 -0.6248  0.1825  0.3223
 2992TIP3    H130535   0.213   4.170   8.496 -0.3156  1.1016  1.1793
 2992TIP3    H230536   0.164   4.198   8.356  1.4806  0.1216  0.3207
 2993TIP3   OH230537   3.356   0.002   2.059 -0.2515  0.0855  0.0875
 2993TIP3    H130538   3.353  -0.092   2.041 -0.3742  0.5333 -2.6913
 2993TIP3    H230539   3.309   0.013   2.142 -0.8848 -2.2021  0.0776
 2994TIP3   OH230540   6.648   2.776   2.542 -0.4921  0.5444 -0.2165
 2994TIP3    H130541   6.679   2.729   2.619  0.8003 -0.4728 -1.2895
 2994TIP3    H230542   6.728   2.815   2.504 -1.2946  2.1887 -0.3064
 2995TIP3   OH230543   2.539   1.583   1.032 -0.1752  0.0249  0.0180
 2995TIP3    H130544   2.632   1.568   1.043  0.5437  3.1780 -0.6593
 2995TIP3    H230545   2.511   1.624   1.114  0.1187  2.9930 -1.2281
 2996TIP3   OH230546   0.519   4.822   7.016 -0.1581 -0.2228 -0.2696
 2996TIP3    H130547   0.528   4.813   6.921 -0.3632 -1.3151 -0.2010
 2996TIP3    H230548   0.429   4.796   7.035  0.3141 -1.5065  0.3634
 2997TIP3   OH230549   1.894   3.963   7.254 -0.1652 -0.0768  0.5137
 2997TIP3    H130550   1.830   3.932   7.319 -0.5359  0.8949  0.6282
 2997TIP3    H230551   1.841   3.984   7.177  0.1100  0.0502  0.3603
 2998TIP3   OH230552   4.199   2.644   8.535 -0.6035 -0.4170  0.3181
 2998TIP3    H130553   4.105   2.659   8.529 -0.1873  2.1968 -1.2585
 2998TIP3    H230554   4.237   2.699   8.467  2.2432  0.4660  2.3984
 2999TIP3   OH230555   0.056   6.562   8.187  0.0550  0.1903  0.6846
 2999TIP3    H130556   0.135   6.566   8.133  0.3464  2.2747  1.1573
 2999TIP3    H230557  -0.004   6.507   8.137  0.5787  1.4038 -1.4278
 3000TIP3   OH230558   1.761   0.753   8.565 -0.0259 -0.0906  0.3134
 3000TIP3    H130559   1.736   0.743   8.474  2.2285  1.2826 -0.5368
 3000TIP3    H230560   1.756   0.848   8.581  0.0839 -0.2576  1.4778
 3001TIP3   OH230561   3.155   4.747   1.440 -1.2093  0.3611  0.4221
 3001TIP3    H130562   3.177   4.769   1.531  0.2557  0.7813 -0.0081
 3001TIP3    H230563   3.237   4.715   1.403 -1.9836 -0.5587 -0.5466
 3002TIP3   OH230564   6.086   6.799   7.623 -0.3720  0.1573  0.1472
 3002TIP3    H130565   6.179   6.818   7.635 -0.5986  1.0556  0.6074
 3002TIP3    H230566   6.081   6.755   7.538  0.5177 -0.2774  0.3139
 3003TIP3   OH230567   2.264   5.876   0.785  0.0707  0.1769  0.8274
 3003TIP3    H130568   2.330   5.858   0.718 -0.3090  2.7045 -0.3611
 3003TIP3    H230569   2.271   5.802   0.846  2.6374 -0.6199 -0.2691
 3004TIP3   OH230570   2.512   0.374   7.870  0.5313 -0.0396 -0.1900
 3004TIP3    H130571   2.482   0.397   7.958 -1.7327  0.0616 -0.9295
 3004TIP3    H230572   2.456   0.301   7.843  2.5511 -1.4444 -0.8139
 3005TIP3   OH230573   3.013   3.311   1.201  0.1042  0.1038  0.3532
 3005TIP3    H130574   3.053   3.353   1.125 -0.2122  0.7496  0.5345
 3005TIP3    H230575   2.995   3.221   1.173  2.0108 -0.3336  0.3894
 3006TIP3   OH230576   3.033   4.162   7.759 -0.0109 -0.5843 -0.2018
 3006TIP3    H130577   3.086   4.186   7.834  0.2574  0.8787 -0.8229
 3006TIP3    H230578   3.036   4.239   7.701 -2.3778 -0.6177 -0.4984
 3007TIP3   OH230579   0.489   0.757   8.551  0.0810  0.3982  0.3922
 3007TIP3    H130580   0.545   0.759   8.474 -0.8682 -1.3758 -0.4111
 3007TIP3    H230581   0.422   0.692   8.530 -0.6664  0.4487  2.4045
 3008TIP3   OH230582   1.793   0.648   7.818  0.2292  0.0445  0.3589
 3008TIP3    H130583   1.795   0.731   7.770  1.8343 -0.3615 -0.3718
 3008TIP3    H230584   1.872   0.602   7.788  1.0480 -0.4594  2.9962
 3009TIP3   OH230585   2.051   5.844   7.997 -0.7796  0.0602 -0.2543
 3009TIP3    H130586   2.111   5.881   8.062 -2.3575 -1.9607  2.5610
 3009TIP3    H230587   2.084   5.755   7.981 -2.3113 -0.6657  0.4516
 3010TIP3   OH230588   3.073   4.178   1.873 -0.5071 -0.4634  0.6686
 3010TIP3    H130589   2.994   4.185   1.927 -2.3728 -0.1405 -1.9513
 3010TIP3    H230590   3.061   4.097   1.823  0.4976 -0.0631 -0.2534
 3011TIP3   OH230591   3.729   2.740   1.432 -0.3308  0.1550  0.4261
 3011TIP3    H130592   3.754   2.676   1.365  0.8736  1.2892 -0.2760
 3011TIP3    H230593   3.708   2.688   1.509  0.8906 -1.0771 -0.0284
 3012TIP3   OH230594   3.572   6.297   2.173 -0.0559 -0.0106 -0.4828
 3012TIP3    H130595   3.491   6.246   2.172 -1.5357  2.1693 -2.0721
 3012TIP3    H230596   3.590   6.311   2.266 -0.1036 -2.5207 -0.0185
 3013TIP3   OH230597   4.091   4.490   1.042  0.1641  0.2829  0.4789
 3013TIP3    H130598   4.083   4.426   1.112  0.9078 -1.8980 -1.3208
 3013TIP3    H230599   4.163   4.546   1.069  1.0007 -1.0422  1.0881
 3014TIP3   OH230600   2.702   6.234   7.691  0.0346  0.3512  0.5234
 3014TIP3    H130601   2.713   6.320   7.653  0.6846 -0.2934 -0.7990
 3014TIP3    H230602   2.608   6.225   7.704  0.0551  1.7450  1.9063
 3015TIP3   OH230603   2.687   5.979   7.979  0.6923 -0.0823 -0.3325
 3015TIP3    H130604   2.704   5.908   7.917  0.3142  0.0768 -0.6198
 3015TIP3    H230605   2.636   5.939   8.049 -0.2149  0.0707 -0.8864
 3016TIP3   OH230606   2.332   1.714   0.323 -0.5888  0.3665  0.2642
 3016TIP3    H130607   2.352   1.799   0.285 -0.2579  0.6632  1.0776
 3016TIP3    H230608   2.273   1.733   0.396 -0.0483 -0.0367  0.8136
 3017TIP3   OH230609   6.032   1.056   7.586 -0.1340 -0.0917  0.3385
 3017TIP3    H130610   6.025   1.116   7.661  1.1493  1.0174 -0.3977
 3017TIP3    H230611   5.955   1.000   7.594 -0.4521  0.5110  2.0429
 3018TIP3   OH230612   0.577   2.508   2.867 -0.2803 -0.0367 -0.3779
 3018TIP3    H130613   0.628   2.478   2.942  0.8548  0.6078 -0.8601
 3018TIP3    H230614   0.623   2.587   2.836 -2.0053  1.0336 -0.3809
 3019TIP3   OH230615   1.183   6.035   0.444 -0.4184  0.0943 -0.3945
 3019TIP3    H130616   1.099   5.995   0.423 -0.0512 -0.6111 -0.5497
 3019TIP3    H230617   1.161   6.125   0.469 -1.3781 -0.4654  0.9226
 3020TIP3   OH230618   0.373   5.458   0.932 -0.4750 -0.4379  0.3327
 3020TIP3    H130619   0.404   5.475   0.843  1.3257  0.9008  1.1570
 3020TIP3    H230620   0.341   5.368   0.930  0.5114 -0.7869 -1.4072
 3021TIP3   OH230621   6.242   1.659   7.421 -0.4022  1.1464  0.6433
 3021TIP3    H130622   6.307   1.588   7.427 -0.8599  0.4466 -1.6085
 3021TIP3    H230623   6.165   1.624   7.467 -0.0370  0.9411  1.1153
 3022TIP3   OH230624   3.442   2.348   8.404 -0.2229 -0.3724  0.2104
 3022TIP3    H130625   3.482   2.262   8.391  0.0073 -0.3582  0.7849
 3022TIP3    H230626   3.516   2.409   8.402 -0.4108 -0.1644 -0.4084
 3023TIP3   OH230627   2.987   4.401   8.229 -0.7640  0.1836  0.1328
 3023TIP3    H130628   3.074   4.441   8.231 -1.2791  1.3906 -0.4426
 3023TIP3    H230629   2.969   4.378   8.320  0.1981 -0.2109  0.2399
 3024TIP3   OH230630   6.517   4.651   6.820  0.4705  0.0727 -0.1684
 3024TIP3    H130631   6.452   4.650   6.750 -0.9493  0.1390  1.1124
 3024TIP3    H230632   6.581   4.717   6.792 -0.3890  0.5377 -1.1029
 3025TIP3   OH230633   1.559   0.983   6.998  0.2649  0.2100  0.1601
 3025TIP3    H130634   1.592   0.992   6.909 -0.8932 -0.4682 -0.3559
 3025TIP3    H230635   1.521   1.069   7.018 -1.2080 -0.1867 -0.7533
 3026TIP3   OH230636   3.387   2.148   2.756 -0.4983  0.6779  0.0636
 3026TIP3    H130637   3.302   2.192   2.752 -0.0861  2.1215  3.4551
 3026TIP3    H230638   3.423   2.172   2.841  3.3565  0.1364 -1.1758
 3027TIP3   OH230639   4.979   1.897   0.471 -0.2966  0.2386 -0.4871
 3027TIP3    H130640   5.053   1.869   0.524 -0.2464  1.2778  0.0267
 3027TIP3    H230641   5.017   1.923   0.387 -0.0873  0.6448 -0.2690
 3028TIP3   OH230642   2.001   5.893   1.090  0.1035 -0.0167 -0.2411
 3028TIP3    H130643   1.977   5.956   1.157 -0.2885 -0.5092  0.0898
 3028TIP3    H230644   2.069   5.937   1.039  0.6746  0.2347  0.7050
 3029TIP3   OH230645   6.165   2.171   7.238  0.6414  0.1635 -0.6623
 3029TIP3    H130646   6.212   2.137   7.162 -1.4838 -0.3683 -1.8120
 3029TIP3    H230647   6.127   2.093   7.279  2.4197  0.3352  1.5053
 3030TIP3   OH230648   2.593   2.570   0.753 -0.1655  0.0534 -0.0419
 3030TIP3    H130649   2.619   2.491   0.705 -1.0458  0.0594 -0.5557
 3030TIP3    H230650   2.587   2.638   0.686  1.5780  0.8401  0.5354
 3031TIP3   OH230651   0.579   2.780   7.214 -0.5920  0.2558  0.0733
 3031TIP3    H130652   0.643   2.718   7.179 -0.6919  0.7554 -1.0404
 3031TIP3    H230653   0.499   2.728   7.226 -0.4326 -0.0184 -0.0452
 3032TIP3   OH230654   1.732   5.389   7.163 -0.1092 -0.0753  0.1841
 3032TIP3    H130655   1.743   5.414   7.071  0.2302  0.3687  0.3393
 3032TIP3    H230656   1.660   5.444   7.194  1.2594  1.4801  0.7848
 3033TIP3   OH230657   6.341   6.285   0.512 -0.5599 -0.2354  0.0619
 3033TIP3    H130658   6.335   6.379   0.528  0.4099 -0.1268 -0.1155
 3033TIP3    H230659   6.333   6.246   0.599 -0.2313  0.0629  0.2331
 3034TIP3   OH230660   6.467   6.461   7.272 -0.0484  0.0116 -0.3392
 3034TIP3    H130661   6.401   6.424   7.213  0.2922  0.9047 -1.2937
 3034TIP3    H230662   6.454   6.556   7.267  1.2505  0.1994 -0.4794
 3035TIP3   OH230663   1.625   3.268   0.828 -0.1021 -0.4249  0.3631
 3035TIP3    H130664   1.635   3.363   0.825  1.6423 -0.5923 -1.4154
 3035TIP3    H230665   1.532   3.254   0.815 -0.1656  1.0296 -1.1281
 3036TIP3   OH230666   0.713   2.031   7.681 -0.4513 -0.4188  0.0537
 3036TIP3    H130667   0.760   2.091   7.623 -0.4268 -0.6165 -0.1318
 3036TIP3    H230668   0.775   2.012   7.752 -0.6170  0.1243  0.3527
 3037TIP3   OH230669   0.600   0.880   1.238 -0.1627  0.0958 -0.1800
 3037TIP3    H130670   0.605   0.805   1.178 -0.2832  0.1266 -0.2294
 3037TIP3    H230671   0.690   0.913   1.243  0.3685 -1.4599  1.6456
 3038TIP3   OH230672   5.544   5.844   2.289 -0.7595 -0.0179  0.0853
 3038TIP3    H130673   5.470   5.803   2.243 -2.0167  1.4168  0.7357
 3038TIP3    H230674   5.581   5.773   2.341 -1.2597 -0.9277 -0.7401
 3039TIP3   OH230675   3.227   0.009   0.925  0.1609 -0.5280 -0.0577
 3039TIP3    H130676   3.245   0.100   0.951 -1.2501 -0.1977 -0.1513
 3039TIP3    H230677   3.285  -0.006   0.851  0.2063  0.4074 -0.2338
 3040TIP3   OH230678   0.497   5.410   1.734  0.3535 -0.0143 -0.4622
 3040TIP3    H130679   0.458   5.474   1.675  0.9764 -0.2138 -1.1026
 3040TIP3    H230680   0.524   5.338   1.677 -0.0648 -0.7218  0.2108
 3041TIP3   OH230681   5.630   5.934   0.307  0.0010  0.3348 -0.1988
 3041TIP3    H130682   5.573   5.976   0.243 -0.3691 -0.7524 -0.5911
 3041TIP3    H230683   5.624   5.841   0.288  1.4838  0.1520  0.1054
 3042TIP3   OH230684   2.003   5.339   7.310  0.0890  0.2495 -0.0923
 3042TIP3    H130685   1.951   5.324   7.231 -0.4452 -1.4656  0.5303
 3042TIP3    H230686   1.950   5.397   7.364  0.5299  1.5654 -1.0366
 3043TIP3   OH230687   4.095   1.225   2.083 -0.0995  0.0445 -0.6983
 3043TIP3    H130688   4.015   1.201   2.036 -0.1477 -1.3913  0.0579
 3043TIP3    H230689   4.125   1.143   2.122 -1.0067  1.4032  3.2796
 3044TIP3   OH230690   3.299   1.997   0.252  0.3090 -0.4267 -0.1021
 3044TIP3    H130691   3.230   1.944   0.212  0.5106 -0.3523 -0.5559
 3044TIP3    H230692   3.326   1.946   0.329 -0.2416 -0.4581  0.0761
 3045TIP3   OH230693   3.764   1.721   8.586  0.2662 -0.0155 -0.3080
 3045TIP3    H130694   3.812   1.639   8.579  2.9399  1.3538  0.6786
 3045TIP3    H230695   3.755   1.751   8.496 -1.2945 -1.5918 -0.7489
 3046TIP3   OH230696   2.329   4.130   8.134  0.4390  0.9742  0.2464
 3046TIP3    H130697   2.290   4.136   8.047 -0.9528 -0.1375  0.7659
 3046TIP3    H230698   2.395   4.062   8.126 -0.9893 -0.5018  0.4755
 3047TIP3   OH230699   2.190   5.138   6.499  0.3957  0.2832  0.7101
 3047TIP3    H130700   2.148   5.219   6.471 -0.3904  0.3641  2.0529
 3047TIP3    H230701   2.270   5.133   6.446  0.1224  1.5718  0.1330
 3048TIP3   OH230702   1.543   1.217   7.537 -0.0914 -0.1603 -0.4015
 3048TIP3    H130703   1.484   1.290   7.557 -0.6389 -1.1105  1.8174
 3048TIP3    H230704   1.631   1.255   7.545 -0.1678 -0.2717  4.4284
 3049TIP3   OH230705   1.709   4.365   7.254 -0.0609  0.5236  0.1104
 3049TIP3    H130706   1.766   4.296   7.219 -0.5263  0.6559 -0.9531
 3049TIP3    H230707   1.728   4.441   7.199 -1.2593  0.5655 -0.2866
 3050TIP3   OH230708   5.021   0.873   7.969 -0.0957 -0.1672 -0.3697
 3050TIP3    H130709   5.053   0.963   7.971 -1.6992  0.4397  1.8264
 3050TIP3    H230710   4.931   0.880   7.936 -0.3006 -0.9264  0.0115
 3051TIP3   OH230711   0.712   2.120   0.228  0.0316  0.4012 -0.2791
 3051TIP3    H130712   0.770   2.196   0.229  0.3497  0.1600  1.1964
 3051TIP3    H230713   0.743   2.068   0.154 -0.7469  2.0884 -1.8755
 3052TIP3   OH230714   4.057   0.925   2.091 -0.7405  0.1285 -0.5303
 3052TIP3    H130715   4.065   0.833   2.068 -1.6106 -0.0609 -0.1017
 3052TIP3    H230716   4.145   0.950   2.121 -0.0445 -0.0769 -2.2847
 3053TIP3   OH230717   1.113   1.498   0.922  0.3861  0.5053 -0.1307
 3053TIP3    H130718   1.192   1.453   0.892 -0.1352  0.7070 -1.9615
 3053TIP3    H230719   1.133   1.591   0.908  0.0489  0.5948 -0.0211
 3054TIP3   OH230720   0.829   3.271   1.138  0.5561 -0.4083  0.1679
 3054TIP3    H130721   0.894   3.338   1.117 -1.7059  1.6725 -0.7487
 3054TIP3    H230722   0.772   3.312   1.203 -1.7578 -0.8056 -1.4831
 3055TIP3   OH230723   3.815   6.635   1.287  0.0547  0.4008  0.2433
 3055TIP3    H130724   3.865   6.664   1.211  1.2645  0.7030  1.1340
 3055TIP3    H230725   3.863   6.560   1.321 -1.2595 -0.6294 -0.0938
 3056TIP3   OH230726   2.722   1.530   7.425 -0.5539  0.7573  0.1057
 3056TIP3    H130727   2.777   1.594   7.471 -0.6231  1.0436 -0.2085
 3056TIP3    H230728   2.705   1.570   7.340 -2.6153  1.4451  0.7660
 3057TIP3   OH230729   2.140   4.089   7.307  0.2958 -0.0807 -0.8429
 3057TIP3    H130730   2.052   4.061   7.281  0.6711 -1.3589 -0.7766
 3057TIP3    H230731   2.199   4.026   7.266  0.9978 -1.3975  1.9557
 3058TIP3   OH230732   3.754   4.843   2.638  0.2489 -0.1179 -0.5476
 3058TIP3    H130733   3.713   4.888   2.712 -2.0748 -0.8897 -1.2851
 3058TIP3    H230734   3.689   4.778   2.611  1.6934 -0.9039 -2.2903
 3059TIP3   OH230735   3.780   5.963   7.790 -0.1140 -0.1484 -0.2617
 3059TIP3    H130736   3.711   5.904   7.817  0.5110 -0.5367  0.5026
 3059TIP3    H230737   3.796   5.941   7.698 -1.2620  0.2118 -0.5568
 3060TIP3   OH230738   6.817   4.127   3.007 -0.7139 -0.0177 -0.2797
 3060TIP3    H130739   6.875   4.131   2.931  0.9918  1.0207  1.0113
 3060TIP3    H230740   6.794   4.035   3.015  2.5953 -0.9030  0.4224
 3061TIP3   OH230741   5.904   2.234   7.947 -0.2492 -0.1757 -0.0904
 3061TIP3    H130742   5.975   2.172   7.929  0.4798  0.5539  0.2144
 3061TIP3    H230743   5.903   2.242   8.042 -0.7186 -0.1427 -0.0960
 3062TIP3   OH230744   1.084   6.324   8.491  0.3526 -0.0494 -0.3809
 3062TIP3    H130745   1.171   6.345   8.523 -0.8087  2.2849  1.6058
 3062TIP3    H230746   1.040   6.408   8.481 -2.6397 -1.1454  1.7778
 3063TIP3   OH230747   1.877   4.764   1.394 -0.5044  0.2821  0.1908
 3063TIP3    H130748   1.841   4.786   1.308  0.1189  1.1909  0.1455
 3063TIP3    H230749   1.961   4.810   1.397 -0.5556  0.3339  1.3219
 3064TIP3   OH230750   5.698   4.438   8.448 -0.1477  0.2232 -0.7732
 3064TIP3    H130751   5.781   4.475   8.477 -0.0622  2.0032 -2.9957
 3064TIP3    H230752   5.636   4.462   8.517  0.2413  3.3076 -1.3355
 3065TIP3   OH230753   5.547   1.449   2.326  0.6240  0.2138 -0.8185
 3065TIP3    H130754   5.565   1.542   2.336 -1.0878  0.8380 -2.8304
 3065TIP3    H230755   5.537   1.416   2.416  0.2072  2.1906 -0.1030
 3066TIP3   OH230756   3.504   0.760   8.349 -0.0819  0.1944 -0.8850
 3066TIP3    H130757   3.457   0.719   8.276  0.3152  0.0234 -1.0472
 3066TIP3    H230758   3.596   0.758   8.322 -0.0272  0.9700 -0.7894
 3067TIP3   OH230759   5.484   0.000   7.303  0.3971  0.2923  0.5172
 3067TIP3    H130760   5.553  -0.037   7.249  0.3665  1.4462 -0.3645
 3067TIP3    H230761   5.514   0.089   7.321 -1.8817  1.6992 -1.9289
 3068TIP3   OH230762   1.074   0.192   0.438  0.1055  0.1560  1.1226
 3068TIP3    H130763   1.150   0.157   0.391  0.0535  0.6652  0.6522
 3068TIP3    H230764   1.057   0.127   0.507  0.7514 -0.1353  1.0193
 3069TIP3   OH230765   4.002   4.074   1.731  0.0528  0.2901  0.2728
 3069TIP3    H130766   4.032   4.048   1.818 -1.7922  0.9000  1.1386
 3069TIP3    H230767   3.917   4.030   1.721 -0.1843  0.9662 -0.8262
 3070TIP3   OH230768   2.147   6.288   8.034  0.0606  0.0595 -0.2731
 3070TIP3    H130769   2.176   6.238   8.110  2.1378  1.0100 -0.3745
 3070TIP3    H230770   2.063   6.249   8.011 -0.1008 -0.9906  1.8130
 3071TIP3   OH230771   3.941   3.601   0.419 -0.6866  0.0051 -0.0268
 3071TIP3    H130772   3.987   3.660   0.360  2.1528  0.1245  2.1104
 3071TIP3    H230773   3.874   3.656   0.461  0.8098  1.3468  0.7094
 3072TIP3   OH230774   5.249   1.288   8.192 -0.1089 -0.1743 -0.2399
 3072TIP3    H130775   5.339   1.266   8.167  0.4790  1.5442  0.2042
 3072TIP3    H230776   5.194   1.243   8.128  1.0586 -1.2480 -0.5320
 3073TIP3   OH230777   6.077   6.589   7.805 -0.6917  0.2526  0.1258
 3073TIP3    H130778   5.998   6.545   7.773 -0.7592  0.8646 -0.5800
 3073TIP3    H230779   6.094   6.657   7.740 -0.2487  0.8849  0.8926
 3074TIP3   OH230780   5.123   2.288   1.130 -0.3235 -0.5415  0.0313
 3074TIP3    H130781   5.120   2.193   1.136  0.4971 -0.5686  0.1234
 3074TIP3    H230782   5.170   2.316   1.208  0.1744 -0.1154 -0.4151
 3075TIP3   OH230783   1.066   0.865   0.087 -0.4097  0.0832  0.9130
 3075TIP3    H130784   1.128   0.820   0.030 -0.7465 -0.7121  1.1532
 3075TIP3    H230785   1.093   0.840   0.176 -1.3608 -0.6721  1.0030
 3076TIP3   OH230786   5.669   1.890   8.525  0.0942 -0.5907 -0.3294
 3076TIP3    H130787   5.706   1.803   8.511  1.0113 -0.8490  2.8806
 3076TIP3    H230788   5.591   1.875   8.579 -0.3446  0.5168 -0.6204
 3077TIP3   OH230789   6.723   0.205   2.494  0.1911 -0.1171  0.5679
 3077TIP3    H130790   6.810   0.244   2.491 -0.6420  1.9004  1.1438
 3077TIP3    H230791   6.739   0.111   2.495  2.2963  0.1662 -0.8621
 3078TIP3   OH230792   3.110   0.345   7.957 -0.3086  0.6011  0.1146
 3078TIP3    H130793   3.113   0.418   8.019  0.4742  1.2324 -0.6462
 3078TIP3    H230794   3.171   0.370   7.887  2.0373 -1.9238  1.0895
 3079TIP3   OH230795   1.643   6.073   2.404 -0.5316 -0.4758 -0.2296
 3079TIP3    H130796   1.560   6.048   2.446  0.3147  0.2316  2.0471
 3079TIP3    H230797   1.709   6.055   2.471  0.7263  2.4236 -0.5400
 3080TIP3   OH230798   5.800   5.717   7.450 -0.5421 -0.5312 -0.0751
 3080TIP3    H130799   5.772   5.760   7.531  0.1374 -0.9169  0.3809
 3080TIP3    H230800   5.822   5.789   7.391 -0.5021 -0.2408  0.2845
 3081TIP3   OH230801   1.087   4.654   7.862 -0.5050 -0.0223 -0.0956
 3081TIP3    H130802   1.027   4.583   7.880  0.2423 -0.0475  2.8349
 3081TIP3    H230803   1.172   4.622   7.893  0.0855  1.6655  0.1451
 3082TIP3   OH230804   6.294   4.973   1.043 -0.1756 -0.0858 -0.3511
 3082TIP3    H130805   6.352   5.049   1.034 -0.7791  0.2366 -1.7646
 3082TIP3    H230806   6.263   4.977   1.133  2.1968 -0.4357  0.5619
 3083TIP3   OH230807   6.405   1.656   0.936  0.0018 -0.3770  0.2725
 3083TIP3    H130808   6.403   1.713   1.013 -1.7404  0.8332 -0.5860
 3083TIP3    H230809   6.442   1.573   0.967 -0.7649  0.0404  2.4199
 3084TIP3   OH230810   5.892   5.410   8.105  0.2946  0.5019 -0.5896
 3084TIP3    H130811   5.923   5.360   8.180 -0.8970 -0.8159 -0.9237
 3084TIP3    H230812   5.958   5.478   8.092  1.1633 -0.0222  0.8517
 3085TIP3   OH230813   1.119   5.496   8.084 -0.1889  0.0075 -0.6395
 3085TIP3    H130814   1.153   5.564   8.142  0.8388 -0.5950 -0.5095
 3085TIP3    H230815   1.131   5.531   7.996 -3.0646  1.5518 -0.5703
 3086TIP3   OH230816   0.911   0.101   1.607 -0.3257  0.6284  0.2247
 3086TIP3    H130817   0.916   0.005   1.610  0.3243  0.6450 -0.2270
 3086TIP3    H230818   0.818   0.119   1.595 -0.5533  0.0763  1.0105
 3087TIP3   OH230819   2.792   0.774   8.139 -0.4822  0.0877  0.0377
 3087TIP3    H130820   2.722   0.776   8.204 -0.8424 -0.1798 -0.3363
 3087TIP3    H230821   2.748   0.752   8.057  0.4083 -2.9106  0.2716
 3088TIP3   OH230822   4.520   6.791   1.611 -0.2196  0.5364 -0.4174
 3088TIP3    H130823   4.566   6.841   1.544 -0.6939  1.7346  0.1319
 3088TIP3    H230824   4.536   6.699   1.588 -1.7237  0.8716 -3.1190
 3089TIP3   OH230825   1.703   5.657   1.940 -0.3158 -0.0251 -0.0434
 3089TIP3    H130826   1.775   5.617   1.891  0.6670  0.4682  0.9507
 3089TIP3    H230827   1.679   5.591   2.005 -2.1056 -0.9739 -1.5663
 3090TIP3   OH230828   5.252   6.152   7.700 -0.1133  0.5387  0.7121
 3090TIP3    H130829   5.194   6.218   7.737 -0.0723  2.1036 -1.7561
 3090TIP3    H230830   5.237   6.158   7.605  2.6260 -0.3793  0.1277
 3091TIP3   OH230831   1.144   3.717   3.020  0.6152 -0.0143 -0.3337
 3091TIP3    H130832   1.050   3.720   3.039  0.2241  0.4560 -2.1486
 3091TIP3    H230833   1.153   3.759   2.934  2.3422 -1.0339 -0.7138
 3092TIP3   OH230834   2.288   0.328   2.153 -1.1242  0.0222 -0.4820
 3092TIP3    H130835   2.265   0.242   2.118 -1.1258  1.0444 -3.2594
 3092TIP3    H230836   2.307   0.312   2.245 -2.7406 -2.6447 -0.4932
 3093TIP3   OH230837   2.411   5.490   2.337  0.2700  0.4667  0.2152
 3093TIP3    H130838   2.420   5.490   2.432  0.0948  1.0868  0.2325
 3093TIP3    H230839   2.390   5.580   2.314  0.8765  0.4413 -0.4702
 3094TIP3   OH230840   3.325   6.622   1.979  0.1590  0.1900 -0.6684
 3094TIP3    H130841   3.310   6.528   1.968  1.1899  0.0399 -0.9209
 3094TIP3    H230842   3.308   6.659   1.892 -1.1610  0.3771 -0.3406
 3095TIP3   OH230843   6.052   2.901   7.333 -0.3206  0.2804 -0.6954
 3095TIP3    H130844   6.054   2.928   7.241  3.3926  1.8463 -0.3346
 3095TIP3    H230845   6.143   2.909   7.363 -1.4291  0.4197  3.2842
 3096TIP3   OH230846   4.662   3.576   1.120  0.2465  0.2022  0.1451
 3096TIP3    H130847   4.726   3.603   1.186  1.0042  0.0534 -0.5110
 3096TIP3    H230848   4.653   3.651   1.063 -0.9723  0.5946  0.8232
 3097TIP3   OH230849   6.315   6.400   2.782  0.1093 -0.1205 -0.0132
 3097TIP3    H130850   6.295   6.440   2.697  0.7276  0.6987  0.2073
 3097TIP3    H230851   6.321   6.474   2.842 -0.7550 -0.7289  0.8437
 3098TIP3   OH230852   0.226   3.425   2.419 -0.1678  0.0347  0.0347
 3098TIP3    H130853   0.306   3.410   2.470 -0.4372 -0.6695  0.2616
 3098TIP3    H230854   0.165   3.463   2.482 -0.0338  0.5338 -0.1289
 3099TIP3   OH230855   2.540   3.468   2.229  0.2195  0.4539  0.0994
 3099TIP3    H130856   2.468   3.410   2.255  1.5313 -0.0927  2.8415
 3099TIP3    H230857   2.593   3.415   2.169 -0.7623  0.3062 -0.6714
 3100TIP3   OH230858   3.958   2.998   7.228  0.0361  0.1098  0.2377
 3100TIP3    H130859   3.943   3.070   7.166 -1.8005  1.1777  1.8063
 3100TIP3    H230860   3.883   2.939   7.215  1.2429 -1.3084 -0.6503
 3101TIP3   OH230861   0.019   1.531   7.745 -0.0960  0.2436 -0.1498
 3101TIP3    H130862  -0.011   1.622   7.744  0.7696  0.6500  2.6345
 3101TIP3    H230863   0.115   1.538   7.747 -0.0340 -0.6475  1.3284
 3102TIP3   OH230864   1.227   4.907   7.326 -0.5457  0.2640  0.0986
 3102TIP3    H130865   1.181   4.985   7.296 -0.7817 -0.1526 -0.6667
 3102TIP3    H230866   1.259   4.866   7.245 -0.0812 -0.2159  0.5177
 3103TIP3   OH230867   0.124   3.435   1.352  0.1328  0.1533 -0.1816
 3103TIP3    H130868   0.094   3.446   1.442 -1.2235  1.2500 -0.7260
 3103TIP3    H230869   0.181   3.359   1.354  1.0076  0.7986  1.8106
 3104TIP3   OH230870   0.223   1.172   0.405  0.6282  0.3104  1.0584
 3104TIP3    H130871   0.192   1.177   0.495 -0.8905  2.5228  0.4957
 3104TIP3    H230872   0.261   1.084   0.397 -1.5020 -0.8996  3.0967
 3105TIP3   OH230873   4.439   2.564   6.915 -0.2830  0.3422 -0.0194
 3105TIP3    H130874   4.471   2.601   6.833  1.7083 -1.9277 -0.4046
 3105TIP3    H230875   4.486   2.613   6.983  2.0291 -1.0447 -0.4993
 3106TIP3   OH230876   1.043   1.947   0.376  0.5020 -0.2811 -0.1048
 3106TIP3    H130877   1.120   1.994   0.343  0.4750 -0.9481 -1.1664
 3106TIP3    H230878   1.040   1.866   0.325 -1.1289 -0.0974 -0.3781
 3107TIP3   OH230879   5.738   1.444   1.067  0.7442 -0.4772  0.2191
 3107TIP3    H130880   5.669   1.475   1.008  0.3975 -0.3750  0.6821
 3107TIP3    H230881   5.780   1.524   1.099  1.6390 -0.5435 -0.7096
 3108TIP3   OH230882   1.762   0.762   0.651 -0.2045 -0.5179  0.3781
 3108TIP3    H130883   1.836   0.784   0.593 -1.0192 -0.5563 -0.7176
 3108TIP3    H230884   1.718   0.846   0.665 -2.5751 -1.0449 -2.7623
 3109TIP3   OH230885   0.274   3.262   7.923  0.7271 -0.5442  0.4135
 3109TIP3    H130886   0.323   3.342   7.907  0.1400 -0.6608 -2.4955
 3109TIP3    H230887   0.335   3.191   7.901  0.2317 -0.7594 -0.3347
 3110TIP3   OH230888   0.177   6.777   7.721  0.0574 -0.1366 -0.2829
 3110TIP3    H130889   0.201   6.745   7.635  2.5683  0.0187  0.2956
 3110TIP3    H230890   0.211   6.712   7.782 -0.6629  0.3288  0.6519
 3111TIP3   OH230891   6.728   4.257   0.099  0.2716  0.0028  0.3609
 3111TIP3    H130892   6.693   4.301   0.022 -0.4106 -0.8826  0.1425
 3111TIP3    H230893   6.652   4.242   0.155  0.2947 -1.6703  0.0209
 3112TIP3   OH230894   3.204   0.022   2.299  0.6535 -0.4660  0.1104
 3112TIP3    H130895   3.242   0.071   2.372  0.8731  1.0232 -0.9572
 3112TIP3    H230896   3.146  -0.042   2.340  2.3315 -1.0816  1.6819
 3113TIP3   OH230897   4.411   1.235   0.633 -0.0427 -0.1775 -0.2141
 3113TIP3    H130898   4.364   1.311   0.599 -0.3180 -0.5763 -0.7280
 3113TIP3    H230899   4.437   1.261   0.722 -1.4311 -0.0331  0.1687
 3114TIP3   OH230900   0.489   3.917   1.821 -0.6870 -0.5779 -0.2076
 3114TIP3    H130901   0.520   4.007   1.831 -2.5124  0.2188 -1.1324
 3114TIP3    H230902   0.561   3.871   1.779  0.0725  0.6127 -0.2352
 3115TIP3   OH230903   4.463   6.400   2.245  0.2553 -0.2618 -0.0817
 3115TIP3    H130904   4.420   6.423   2.327  0.9095  0.8638 -0.0330
 3115TIP3    H230905   4.472   6.305   2.248  1.0679 -0.1624  1.5591
 3116TIP3   OH230906   0.072   0.729   0.586  0.2169 -0.0921  0.9561
 3116TIP3    H130907   0.113   0.686   0.661 -0.4405 -1.5834  0.5040
 3116TIP3    H230908  -0.018   0.697   0.587 -0.1762  0.9324  0.2959
 3117TIP3   OH230909   6.707   3.438   7.467 -0.8741 -0.0603 -0.4651
 3117TIP3    H130910   6.616   3.424   7.495 -1.0705 -1.0237 -1.5201
 3117TIP3    H230911   6.740   3.351   7.449  0.5362  0.2084  0.6526
 3118TIP3   OH230912   2.339   4.100   0.854 -0.2603  0.0963  0.5547
 3118TIP3    H130913   2.296   4.035   0.799 -0.0219  0.3260  0.0914
 3118TIP3    H230914   2.410   4.052   0.896  0.9260  0.3823 -1.0041
 3119TIP3   OH230915   4.825   4.140   8.338 -0.3410 -0.0829  0.0690
 3119TIP3    H130916   4.743   4.091   8.335  0.0355 -0.7937  0.7419
 3119TIP3    H230917   4.854   4.144   8.247  0.2823 -2.3386  0.0982
 3120TIP3   OH230918   5.963   6.281   7.547 -0.0503 -0.2126 -0.2544
 3120TIP3    H130919   5.899   6.327   7.602  2.1044  0.3814  1.9472
 3120TIP3    H230920   5.967   6.333   7.466 -0.3475  1.3767  0.6975
 3121TIP3   OH230921   2.800   3.121   7.748  0.5407  0.4260  0.5365
 3121TIP3    H130922   2.845   3.052   7.700  0.4603  0.8541 -0.1723
 3121TIP3    H230923   2.718   3.135   7.699 -0.3245 -0.2588  1.7340
 3122TIP3   OH230924   1.269   0.431   1.832 -0.0451 -0.3945  0.6219
 3122TIP3    H130925   1.280   0.484   1.753 -0.0106 -0.2917  0.6952
 3122TIP3    H230926   1.201   0.476   1.882  1.4037  0.7647  1.6597
 3123TIP3   OH230927   4.267   4.470   0.668  0.4555  0.2442  0.2334
 3123TIP3    H130928   4.192   4.520   0.701 -0.9702 -1.3144 -0.5086
 3123TIP3    H230929   4.343   4.517   0.702 -0.7504  3.1320 -0.6991
 3124TIP3   OH230930   5.702   3.591   0.391  0.0486 -0.0423  0.1603
 3124TIP3    H130931   5.699   3.505   0.349 -2.0773 -0.1080  0.3308
 3124TIP3    H230932   5.694   3.572   0.485 -2.1803  0.3292  0.1103
 3125TIP3   OH230933   0.791   2.460   6.985  0.2746  0.1199  0.4888
 3125TIP3    H130934   0.717   2.448   6.925 -0.7451  1.0159  1.5177
 3125TIP3    H230935   0.860   2.403   6.950 -0.7263 -0.3604 -0.7806
 3126TIP3   OH230936   1.713   4.852   7.980  0.1283 -0.1323 -0.3770
 3126TIP3    H130937   1.803   4.881   7.965 -0.5575  1.6128 -1.3438
 3126TIP3    H230938   1.658   4.918   7.938 -1.6486 -0.7448  0.8297
 3127TIP3   OH230939   4.468   1.478   0.947  0.9749  0.1520  0.6493
 3127TIP3    H130940   4.382   1.515   0.928  0.5810 -0.8936  0.3445
 3127TIP3    H230941   4.450   1.405   1.007  1.6837  0.1543  0.8714
 3128TIP3   OH230942   3.639   6.725   7.763  0.3475 -0.0658 -0.1756
 3128TIP3    H130943   3.711   6.686   7.814  1.6845  0.2503 -1.7353
 3128TIP3    H230944   3.567   6.662   7.771  1.2812 -1.1086  0.2730
 3129TIP3   OH230945   3.194   2.218   1.633 -0.3488  0.1651  0.3678
 3129TIP3    H130946   3.184   2.131   1.672 -0.9576 -0.8644 -1.9127
 3129TIP3    H230947   3.124   2.270   1.673 -1.0549 -0.8841  0.5361
 3130TIP3   OH230948   6.078   2.003   6.865  0.1241  0.2031 -0.4141
 3130TIP3    H130949   6.163   2.040   6.890  0.0925  0.1755 -0.2671
 3130TIP3    H230950   6.016   2.074   6.881  0.2006  0.4337 -1.1068
 3131TIP3   OH230951   1.935   6.205   0.731 -0.4915  0.1647  0.0189
 3131TIP3    H130952   1.870   6.136   0.723  0.1949 -0.7183  1.6091
 3131TIP3    H230953   1.993   6.193   0.656 -0.8381 -0.4834 -0.1487
 3132TIP3   OH230954   2.801   1.883   8.549 -0.2999 -0.2367 -0.1551
 3132TIP3    H130955   2.705   1.891   8.554 -0.3152  0.9632 -1.6361
 3132TIP3    H230956   2.831   1.971   8.528  1.1587 -0.6059  0.2806
 3133TIP3   OH230957   3.817   6.864   0.657 -1.2628 -0.1658  0.1838
 3133TIP3    H130958   3.890   6.854   0.718  0.7244 -0.4502 -2.0658
 3133TIP3    H230959   3.747   6.812   0.694  0.1942 -1.1461  1.6980
 3134TIP3   OH230960   2.794   6.639   1.832 -0.0576 -0.2489 -0.0947
 3134TIP3    H130961   2.753   6.724   1.821 -0.7153 -0.3498  1.3653
 3134TIP3    H230962   2.882   6.659   1.866  0.4490 -0.1096 -1.4278
 3135TIP3   OH230963   3.959   5.838   7.593  0.6954  0.5326 -0.0624
 3135TIP3    H130964   3.885   5.785   7.564  1.3172 -0.2579 -0.2857
 3135TIP3    H230965   3.985   5.799   7.676  2.3627 -0.8169 -1.1383
 3136TIP3   OH230966   5.304   5.489   0.871  0.4210  0.6325  0.2684
 3136TIP3    H130967   5.375   5.502   0.809  0.9940 -3.0457 -0.0158
 3136TIP3    H230968   5.236   5.444   0.821 -1.1532  1.8461  1.1873
 3137TIP3   OH230969   1.463   0.660   0.303 -0.3478 -0.3811  0.3333
 3137TIP3    H130970   1.414   0.711   0.368 -0.6408 -0.1036 -0.1075
 3137TIP3    H230971   1.521   0.605   0.356 -1.1500 -0.7361  0.8595
 3138TIP3   OH230972   4.452   1.495   7.655 -0.0433 -0.2492 -0.1837
 3138TIP3    H130973   4.416   1.410   7.632 -0.7981 -0.0462  0.2506
 3138TIP3    H230974   4.378   1.555   7.653  0.6389  0.6143 -1.5107
 3139TIP3   OH230975   6.463   5.742   7.329  0.2198  0.1835  0.0221
 3139TIP3    H130976   6.557   5.729   7.320  0.2041  1.1949 -2.1487
 3139TIP3    H230977   6.449   5.834   7.310 -1.0646  0.5008  2.1049
 3140TIP3   OH230978   3.976   1.682   0.747 -0.0694 -0.3141 -0.6943
 3140TIP3    H130979   3.963   1.776   0.738 -0.9382 -0.2687  0.7308
 3140TIP3    H230980   3.954   1.646   0.661 -1.8998  0.5880 -0.6468
 3141TIP3   OH230981   0.538   5.758   1.133  0.2303 -0.0782  0.0346
 3141TIP3    H130982   0.557   5.801   1.049 -0.1378  1.0876  0.5234
 3141TIP3    H230983   0.588   5.809   1.197 -1.7201  0.8835  0.8916
 3142TIP3   OH230984   0.565   2.710   7.536  0.2583 -0.2182 -0.1083
 3142TIP3    H130985   0.505   2.760   7.481  0.2645  0.5978  0.6221
 3142TIP3    H230986   0.605   2.774   7.594  1.0890 -0.9062  0.1009
 3143TIP3   OH230987   5.882   0.107   1.833  0.4096 -0.7334  0.7969
 3143TIP3    H130988   5.970   0.145   1.837 -0.2446  0.8332  1.0940
 3143TIP3    H230989   5.825   0.175   1.869 -1.5017  0.0960 -3.2212
 3144TIP3   OH230990   0.829   0.401   1.037 -0.6734 -0.0247 -0.2899
 3144TIP3    H130991   0.784   0.476   0.999  1.5161  1.2917 -0.4520
 3144TIP3    H230992   0.833   0.420   1.131 -1.5684 -0.7891 -0.0770
 3145TIP3   OH230993   2.982   6.802   7.682 -0.1387 -0.2260 -0.1053
 3145TIP3    H130994   2.998   6.893   7.706  0.2230 -0.6122  1.1864
 3145TIP3    H230995   3.056   6.779   7.625 -0.2989  0.3197 -0.5341
 3146TIP3   OH230996   5.781   4.275   0.033 -0.1376  0.2545 -0.2910
 3146TIP3    H130997   5.856   4.332   0.019 -0.0353  0.2100  0.0527
 3146TIP3    H230998   5.705   4.332   0.022 -0.0582  0.2585 -0.8250
 3147TIP3   OH230999   5.749   0.749   1.937  0.0366  0.0514 -0.5681
 3147TIP3    H131000   5.679   0.724   1.876 -0.5753 -0.6009  0.3766
 3147TIP3    H231001   5.783   0.831   1.901 -0.6284 -0.0629 -1.5222
 3148TIP3   OH231002   1.114   2.755   2.356  0.1488 -0.2638  0.6193
 3148TIP3    H131003   1.067   2.693   2.300  1.2372 -0.0339 -0.6050
 3148TIP3    H231004   1.200   2.715   2.370  0.2413  0.1537  1.2936
 3149TIP3   OH231005   6.039   4.335   1.960  0.5195  0.0540 -0.0687
 3149TIP3    H131006   6.039   4.262   2.022  0.9167  0.2993  0.2242
 3149TIP3    H231007   6.055   4.412   2.014 -0.8608  0.4831 -0.2456
 3150TIP3   OH231008   1.648   6.350   2.374  0.3331 -0.3029  0.2029
 3150TIP3    H131009   1.613   6.261   2.377 -0.3698 -0.0150  1.3214
 3150TIP3    H231010   1.739   6.341   2.402  0.7673 -0.8717 -1.3078
 3151TIP3   OH231011   3.456   0.080   1.704 -0.4280  0.1707  0.0657
 3151TIP3    H131012   3.419   0.152   1.755 -2.9088  0.2538 -1.6783
 3151TIP3    H231013   3.410   0.002   1.736 -0.3920 -0.0933 -0.5076
 3152TIP3   OH231014   2.567   4.233   1.465  0.3168 -0.5319 -0.6786
 3152TIP3    H131015   2.546   4.326   1.457  1.1012 -0.1765  0.9415
 3152TIP3    H231016   2.647   4.231   1.517  0.4126 -2.1198 -0.8353
 3153TIP3   OH231017   6.737   4.855   2.314  0.4638 -0.5799  0.4469
 3153TIP3    H131018   6.760   4.788   2.378  0.2506 -1.9660 -0.8493
 3153TIP3    H231019   6.642   4.847   2.303  0.5253 -0.5389 -0.1898
 3154TIP3   OH231020   5.855   6.381   0.457 -0.2398  0.0358  0.1471
 3154TIP3    H131021   5.868   6.413   0.368 -0.2558  1.1592  0.5380
 3154TIP3    H231022   5.857   6.286   0.449  1.3048  0.1242 -0.8257
 3155TIP3   OH231023   6.197   2.313   2.331 -0.4579 -0.0731  0.2484
 3155TIP3    H131024   6.159   2.323   2.418 -1.2954 -2.4767  0.2261
 3155TIP3    H231025   6.286   2.282   2.346 -0.1725  0.7364  0.2501
 3156TIP3   OH231026   5.970   0.184   7.660 -0.5806  0.0429  0.6863
 3156TIP3    H131027   6.005   0.245   7.725 -0.1732 -0.0657  0.5703
 3156TIP3    H231028   6.041   0.123   7.644 -0.5772  0.2450 -0.0928
 3157TIP3   OH231029   5.740   2.315   2.067 -0.1132 -0.4840  0.3815
 3157TIP3    H131030   5.684   2.371   2.121  0.6277  0.6410  0.0336
 3157TIP3    H231031   5.829   2.331   2.100  0.1435 -1.2740  0.1038
 3158TIP3   OH231032   5.023   4.960   8.450  0.3409  0.1091  0.2499
 3158TIP3    H131033   5.012   5.030   8.514 -0.2270  2.2686 -2.0755
 3158TIP3    H231034   5.051   5.004   8.370 -0.7607 -2.2356 -1.5489
 3159TIP3   OH231035   2.659   1.624   1.890 -0.2245  0.0427  0.1561
 3159TIP3    H131036   2.741   1.619   1.841  0.6078 -1.7119  1.5833
 3159TIP3    H231037   2.599   1.671   1.833  1.0659 -0.7517 -1.9689
 3160TIP3   OH231038   0.089   5.711   1.538  0.6741 -0.3372  0.4730
 3160TIP3    H131039   0.051   5.641   1.486 -0.4553 -1.6658  2.8967
 3160TIP3    H231040   0.162   5.669   1.584  0.4764  0.2453  1.3572
 3161TIP3   OH231041   1.095   4.763   2.898 -0.7920  0.2100  0.5889
 3161TIP3    H131042   1.052   4.821   2.835 -0.5487  0.3899  0.5856
 3161TIP3    H231043   1.172   4.731   2.851 -0.4004  0.6432  0.9244
 3162TIP3   OH231044   2.299   3.115   7.383  0.3864  0.0261  0.8618
 3162TIP3    H131045   2.273   3.152   7.468  1.1059  0.5034  0.8921
 3162TIP3    H231046   2.395   3.110   7.389  0.4023 -0.3884  0.2573
 3163TIP3   OH231047   2.846   4.163   8.423 -0.1542 -0.4113 -0.4959
 3163TIP3    H131048   2.843   4.073   8.457 -0.0906 -0.1549  0.2011
 3163TIP3    H231049   2.918   4.204   8.470 -0.7169  0.2525 -0.1990
 3164TIP3   OH231050   3.437   1.962   8.169  0.6727 -0.0157 -0.6926
 3164TIP3    H131051   3.414   1.982   8.078  0.4958 -0.2237 -0.6960
 3164TIP3    H231052   3.405   1.873   8.182  0.7862 -0.0221 -0.4560
 3165TIP3   OH231053   2.309   4.575   7.913  0.4312 -0.5582  0.4771
 3165TIP3    H131054   2.326   4.530   7.830 -0.4522  0.7354 -0.4273
 3165TIP3    H231055   2.306   4.668   7.891  1.1974 -0.0880  2.1398
 3166TIP3   OH231056   4.624   3.888   7.978  0.1210  0.0800  0.3901
 3166TIP3    H131057   4.618   3.973   7.935 -0.9431  0.0843  0.5151
 3166TIP3    H231058   4.717   3.874   7.992  0.2622  1.5736  1.0651
 3167TIP3   OH231059   4.212   5.868   8.404 -0.3781 -0.1649 -0.2722
 3167TIP3    H131060   4.295   5.915   8.410 -0.1614 -0.6398  0.6100
 3167TIP3    H231061   4.237   5.776   8.407 -1.0557 -0.3834  3.0978
 3168TIP3   OH231062   0.676   5.920   1.334  0.2644 -0.2624 -0.1610
 3168TIP3    H131063   0.737   5.954   1.268 -0.7466  2.3468  0.1183
 3168TIP3    H231064   0.729   5.908   1.412  1.1888 -2.0157 -1.0056
 3169TIP3   OH231065   1.921   2.503   2.417  0.2073  0.1036  0.1186
 3169TIP3    H131066   1.922   2.414   2.383  1.1227  0.2281 -0.1985
 3169TIP3    H231067   1.914   2.493   2.512  0.1088 -0.2966  0.0708
 3170TIP3   OH231068   2.964   1.487   7.946 -0.4653 -0.1264 -0.1176
 3170TIP3    H131069   3.009   1.413   7.988 -1.0733 -0.1956  0.4321
 3170TIP3    H231070   3.021   1.511   7.873  1.6401  1.1849  1.7903
 3171TIP3   OH231071   2.035   2.158   0.549 -0.2184  0.2489  0.1279
 3171TIP3    H131072   2.112   2.204   0.516 -0.3402  0.7693  0.5589
 3171TIP3    H231073   2.009   2.207   0.627  1.4518 -2.2653  2.4609
 3172TIP3   OH231074   3.361   4.255   0.768 -0.1696  0.0341 -0.0453
 3172TIP3    H131075   3.442   4.243   0.719 -1.0428 -2.4897 -1.0492
 3172TIP3    H231076   3.312   4.319   0.716  0.7057  0.7366 -0.0299
 3173TIP3   OH231077   3.140   2.855   8.599 -0.2402  0.3676  0.4761
 3173TIP3    H131078   3.229   2.820   8.593 -0.2948  0.4523 -1.2614
 3173TIP3    H231079   3.150   2.948   8.582 -0.9292 -0.0443 -2.7240
 3174TIP3   OH231080   2.374   2.609   7.023 -0.0945 -0.2094  0.0504
 3174TIP3    H131081   2.289   2.572   7.046 -0.1839 -1.1751 -1.6652
 3174TIP3    H231082   2.418   2.541   6.972  1.5377  0.4353  0.5273
 3175TIP3   OH231083   5.922   0.546   1.968 -0.7058 -0.3430 -0.2667
 3175TIP3    H131084   5.870   0.626   1.958  0.8514  0.5466 -1.6769
 3175TIP3    H231085   5.979   0.564   2.043 -1.0957 -0.5857  0.0971
 3176TIP3   OH231086   2.468   2.953   2.464 -0.0401 -0.0388 -0.1424
 3176TIP3    H131087   2.540   3.015   2.450 -0.2717  1.0942  2.7582
 3176TIP3    H231088   2.399   3.006   2.505 -1.5496 -1.5925 -0.5739
 3177TIP3   OH231089   0.782   5.261   0.646 -0.0996 -0.6077  0.2653
 3177TIP3    H131090   0.690   5.288   0.651 -0.4995 -1.9825  0.9114
 3177TIP3    H231091   0.823   5.299   0.724 -0.0008  0.3744 -0.2528
 3178TIP3   OH231092   1.732   0.503   8.661  0.2979 -0.0784  0.0966
 3178TIP3    H131093   1.782   0.581   8.637  0.3549 -0.3827 -0.8095
 3178TIP3    H231094   1.699   0.469   8.578 -0.7664 -0.3252  0.6038
 3179TIP3   OH231095   3.676   5.700   0.657 -0.1959 -0.1073  0.1732
 3179TIP3    H131096   3.709   5.610   0.658 -0.9319 -0.4262 -1.4282
 3179TIP3    H231097   3.590   5.694   0.615 -1.7529  0.9014  2.9422
 3180TIP3   OH231098   0.007   1.807   8.277 -0.0840 -0.0392  0.2919
 3180TIP3    H131099   0.041   1.816   8.188 -0.2403  2.3766  0.4157
 3180TIP3    H231100   0.067   1.746   8.320 -0.1592 -1.4561 -1.4907
 3181TIP3   OH231101   4.517   4.626   2.709  0.1952  0.8677  0.4051
 3181TIP3    H131102   4.434   4.674   2.703 -0.3631 -0.0878  0.1753
 3181TIP3    H231103   4.491   4.539   2.739  0.8248 -0.1283 -1.7124
 3182TIP3   OH231104   4.355   1.211   2.934  0.4280  0.3766 -0.0046
 3182TIP3    H131105   4.402   1.272   2.877 -0.5305 -0.1331 -1.3951
 3182TIP3    H231106   4.418   1.141   2.951  0.5859  0.3019 -0.8405
 3183TIP3   OH231107   6.740   0.227   8.163  0.0667  0.8365  0.2506
 3183TIP3    H131108   6.663   0.284   8.164 -0.2107  0.4676  0.8301
 3183TIP3    H231109   6.759   0.212   8.256 -0.4021 -0.7308  0.1261
 3184TIP3   OH231110   1.701   1.099   2.260  1.0368 -0.3037  0.2953
 3184TIP3    H131111   1.715   1.016   2.306  2.4782 -0.4211 -0.3270
 3184TIP3    H231112   1.659   1.156   2.326  2.2083 -0.7590  1.4756
 3185TIP3   OH231113   2.349   5.144   6.765 -0.9885 -0.6234 -0.2518
 3185TIP3    H131114   2.423   5.100   6.723 -0.9873  0.0535 -0.9654
 3185TIP3    H231115   2.280   5.145   6.698 -0.4874  1.8067 -0.8274
 3186TIP3   OH231116   6.866   1.735   0.024  0.6042 -0.2134 -0.5672
 3186TIP3    H131117   6.950   1.720  -0.019  0.2980  0.3553 -1.3927
 3186TIP3    H231118   6.821   1.798  -0.032 -0.1630 -0.1064  0.1437
 3187TIP3   OH231119   1.271   1.956   2.921  0.1115 -0.2392 -0.5195
 3187TIP3    H131120   1.233   1.872   2.948  1.5490 -0.4453  1.0467
 3187TIP3    H231121   1.300   1.996   3.002  1.9257  0.5203 -1.4818
 3188TIP3   OH231122   6.381   2.694   0.993 -1.2343  0.2971 -0.3934
 3188TIP3    H131123   6.351   2.604   1.002 -0.4028  0.0838  0.4307
 3188TIP3    H231124   6.315   2.746   1.040 -0.8907 -0.0587  0.5160
 3189TIP3   OH231125   6.269   0.577   2.189 -0.3184 -0.2444  0.1326
 3189TIP3    H131126   6.303   0.496   2.224 -0.7229 -0.6595 -0.4155
 3189TIP3    H231127   6.181   0.584   2.227 -1.3016 -1.3911 -1.7992
 3190TIP3   OH231128   5.754   0.542   0.149 -0.4715  0.0433 -0.0442
 3190TIP3    H131129   5.842   0.507   0.138 -1.4517 -2.6242 -0.2813
 3190TIP3    H231130   5.722   0.502   0.230 -1.4708  0.9772  0.0444
 3191TIP3   OH231131   1.960   4.574   7.395  0.0523 -0.5307  0.7095
 3191TIP3    H131132   2.027   4.643   7.394 -1.0679  0.6465  2.0900
 3191TIP3    H231133   1.929   4.570   7.305  3.1401 -2.3707 -0.4430
 3192TIP3   OH231134   2.361   0.272   0.774 -0.4022  0.3160  0.2685
 3192TIP3    H131135   2.363   0.324   0.855  2.5121 -1.9729  1.8582
 3192TIP3    H231136   2.309   0.195   0.797 -2.2715  1.0959 -1.1489
 3193TIP3   OH231137   1.034   1.088   0.475 -0.3093 -0.3217 -0.7010
 3193TIP3    H131138   1.102   1.155   0.472 -0.8218  0.4543  1.9633
 3193TIP3    H231139   0.953   1.137   0.490 -1.1621 -1.3814 -1.6370
 3194TIP3   OH231140   2.614   5.416   2.947 -0.3178 -0.1278  0.1689
 3194TIP3    H131141   2.657   5.495   2.915 -0.6884  0.0627  0.1376
 3194TIP3    H231142   2.611   5.358   2.872  1.4154 -0.8207  0.5844
 3195TIP3   OH231143   5.472   0.546   7.694 -0.0209 -0.5117  0.0475
 3195TIP3    H131144   5.553   0.512   7.655  0.8586  0.4183  1.0017
 3195TIP3    H231145   5.468   0.505   7.780  0.5548  1.0224  0.8355
 3196TIP3   OH231146   6.299   3.364   1.221 -0.3520 -0.4171 -0.1103
 3196TIP3    H131147   6.219   3.401   1.258 -0.5373 -0.7514 -0.1628
 3196TIP3    H231148   6.369   3.423   1.249 -0.8635  1.1076 -1.8658
 3197TIP3   OH231149   4.345   2.605   2.278  0.0272 -0.2228 -0.1147
 3197TIP3    H131150   4.265   2.589   2.229  0.2375 -0.9211 -0.2414
 3197TIP3    H231151   4.334   2.692   2.315 -0.6540 -0.1893 -0.3920
 3198TIP3   OH231152   0.187   5.649   6.650 -0.0658  0.1245 -0.4737
 3198TIP3    H131153   0.127   5.582   6.619  1.2280 -0.5892 -1.5331
 3198TIP3    H231154   0.271   5.604   6.660  0.7407  1.4886 -0.8004
 3199TIP3   OH231155   5.935   5.195   0.206  0.0111  0.5371  0.3153
 3199TIP3    H131156   5.990   5.252   0.259  0.5131 -0.0428  0.4297
 3199TIP3    H231157   5.874   5.155   0.269  1.4007 -1.0932  0.6917
 3200TIP3   OH231158   3.234   2.352   0.302  0.1639  0.2139  0.1044
 3200TIP3    H131159   3.190   2.386   0.225 -0.6661 -0.3946  0.3033
 3200TIP3    H231160   3.266   2.266   0.275  1.9391  0.9351 -0.2836
 3201TIP3   OH231161   6.528   4.291   2.055 -0.5543 -0.1285 -0.0944
 3201TIP3    H131162   6.513   4.218   1.995  3.2452  0.4423 -2.0174
 3201TIP3    H231163   6.592   4.259   2.118 -1.0712  0.6842  0.8799
 3202TIP3   OH231164   0.326   5.749   7.590  0.4384 -0.4851  0.2290
 3202TIP3    H131165   0.392   5.688   7.556 -0.2178 -0.2221 -1.5928
 3202TIP3    H231166   0.289   5.703   7.665  0.7109 -1.8895 -0.4547
 3203TIP3   OH231167   0.889   2.548   8.451  0.0445 -0.0843 -0.1723
 3203TIP3    H131168   0.828   2.593   8.509 -0.9235 -1.2509 -0.2420
 3203TIP3    H231169   0.863   2.575   8.363  1.5518  1.7336 -0.1200
 3204TIP3   OH231170   2.455   3.142   1.171 -0.1847  0.0936  0.2975
 3204TIP3    H131171   2.453   3.207   1.100  2.3151 -1.3122 -1.2415
 3204TIP3    H231172   2.421   3.062   1.131  2.5140 -1.0770  0.1157
 3205TIP3   OH231173   3.599   6.053   8.368  0.4795 -0.2117  0.2870
 3205TIP3    H131174   3.516   6.009   8.388  1.9643 -2.9553  0.8633
 3205TIP3    H231175   3.626   6.017   8.284  2.1467 -1.1860  1.1694
 3206TIP3   OH231176   2.640   2.230   2.365 -0.8603  0.0695 -0.2623
 3206TIP3    H131177   2.660   2.217   2.457 -0.8082 -0.3723 -0.3353
 3206TIP3    H231178   2.579   2.305   2.364  1.2970  1.9398 -0.1005
 3207TIP3   OH231179   5.369   0.364   2.360 -0.1068  0.2586  0.2946
 3207TIP3    H131180   5.445   0.356   2.303  0.7909 -1.1195  1.5970
 3207TIP3    H231181   5.402   0.343   2.447 -1.5595  1.6828  1.2585
 3208TIP3   OH231182   3.596   4.760   0.687  0.1406  0.0803  0.4422
 3208TIP3    H131183   3.673   4.770   0.631  0.7710 -1.6027  0.9525
 3208TIP3    H231184   3.621   4.693   0.751 -1.5825 -0.1617  0.9183
 3209TIP3   OH231185   6.312   1.065   8.135  0.0304  0.7043 -0.4168
 3209TIP3    H131186   6.361   1.037   8.057 -1.7292  2.1325 -2.1403
 3209TIP3    H231187   6.225   1.028   8.123 -0.5125  1.6541  0.4261
 3210TIP3   OH231188   4.649   1.581   0.779 -0.3291 -0.0460 -0.4459
 3210TIP3    H131189   4.565   1.554   0.818 -0.3056 -0.9874 -1.0374
 3210TIP3    H231190   4.698   1.500   0.768  0.4898  0.4530 -0.5292
 3211TIP3   OH231191   6.515   0.280   1.440  0.1707 -0.3116 -0.0073
 3211TIP3    H131192   6.476   0.192   1.441 -0.1971 -0.1481  0.5691
 3211TIP3    H231193   6.504   0.312   1.530  2.3062 -0.5552  0.3923
 3212TIP3   OH231194   2.963   3.918   0.496 -0.1879  0.8173 -0.0279
 3212TIP3    H131195   2.988   3.831   0.526 -2.7043 -0.4240 -1.2266
 3212TIP3    H231196   2.970   3.973   0.574  0.0188 -0.7904  1.1414
 3213TIP3   OH231197   4.776   6.148   7.934  0.2472 -0.0343  0.1023
 3213TIP3    H131198   4.774   6.239   7.906  2.2741 -0.6044 -2.2295
 3213TIP3    H231199   4.754   6.098   7.856  0.0978 -1.6144  1.1032
 3214TIP3   OH231200   0.893   3.800   8.459 -0.1082 -0.5040  0.0193
 3214TIP3    H131201   0.948   3.764   8.389 -0.5266 -0.7450 -0.1890
 3214TIP3    H231202   0.803   3.785   8.429 -0.3592  2.4367 -0.9878
 3215TIP3   OH231203   6.453   6.674   8.027  0.5591 -0.4750 -0.8622
 3215TIP3    H131204   6.539   6.631   8.026  0.9309  0.2395 -1.7920
 3215TIP3    H231205   6.467   6.754   8.078  0.3207 -0.5837 -0.6237
 3216TIP3   OH231206   5.503   2.353   7.737  0.0243 -0.4003  0.0493
 3216TIP3    H131207   5.472   2.442   7.755  1.8152 -0.0660  1.7396
 3216TIP3    H231208   5.594   2.364   7.710  0.3407 -1.7352  0.5085
 3217TIP3   OH231209   6.493   3.314   0.016 -0.3714  0.3026  0.0285
 3217TIP3    H131210   6.537   3.250   0.073 -1.3128 -0.7695 -0.4117
 3217TIP3    H231211   6.509   3.398   0.059  0.0555 -0.3314  1.1696
 3218TIP3   OH231212   3.589   0.791   7.365 -0.7931  0.4467  0.2937
 3218TIP3    H131213   3.494   0.784   7.364 -0.6963 -1.1702 -0.7953
 3218TIP3    H231214   3.617   0.746   7.286  0.8216  2.2356 -0.2317
 3219TIP3   OH231215   1.144   5.033   2.542  0.1056  0.1841 -0.0300
 3219TIP3    H131216   1.192   4.962   2.585 -1.0210 -0.9537 -0.5915
 3219TIP3    H231217   1.190   5.112   2.569 -0.0198 -0.5321  2.5474
 3220TIP3   OH231218   3.666   3.703   8.379  0.0990 -0.0980 -0.0552
 3220TIP3    H131219   3.751   3.748   8.379 -0.6785  1.4253  0.1208
 3220TIP3    H231220   3.666   3.651   8.299  1.1046  0.0423 -0.1573
 3221TIP3   OH231221   0.855   4.055   1.287  0.0755  0.7149 -0.4624
 3221TIP3    H131222   0.849   3.976   1.233  1.5527  0.4754 -0.3080
 3221TIP3    H231223   0.889   4.025   1.371 -2.5560  1.0178  0.8273
 3222TIP3   OH231224   1.470   4.980   8.160  0.0041 -0.2997 -0.3180
 3222TIP3    H131225   1.377   4.987   8.182 -0.3272 -0.6746 -1.5279
 3222TIP3    H231226   1.493   4.890   8.185  0.2991  0.0762  0.8395
 3223TIP3   OH231227   3.710   1.256   8.626  0.2121 -0.4394  0.1243
 3223TIP3    H131228   3.777   1.217   8.570  0.1546 -0.9286  0.3823
 3223TIP3    H231229   3.676   1.330   8.576  0.5458 -0.5358 -0.2486
 3224TIP3   OH231230   1.225   6.179   7.928  0.5210 -0.4111 -0.0810
 3224TIP3    H131231   1.291   6.158   7.862  0.4628  0.4752 -0.4401
 3224TIP3    H231232   1.274   6.184   8.010  0.5303 -1.8987  0.0261
 3225TIP3   OH231233   1.500   1.430   2.212 -0.4405  0.5896  0.2200
 3225TIP3    H131234   1.466   1.374   2.142  0.1652 -2.0123  1.8498
 3225TIP3    H231235   1.464   1.392   2.293 -0.9011  3.3017  1.4092
 3226TIP3   OH231236   2.654   3.139   0.786 -0.2258  0.5419  0.2810
 3226TIP3    H131237   2.704   3.196   0.844  1.3420  0.7140 -1.1623
 3226TIP3    H231238   2.613   3.075   0.844  0.3075  1.4305  1.6683
 3227TIP3   OH231239   1.345   0.773   8.333 -0.5958  0.0572  0.0824
 3227TIP3    H131240   1.424   0.731   8.300 -0.8802 -0.3208 -0.1315
 3227TIP3    H231241   1.362   0.867   8.324 -0.2241 -0.0255 -0.0864
 3228TIP3   OH231242   3.387   4.194   8.277  0.2482  0.1067 -0.0192
 3228TIP3    H131243   3.327   4.182   8.204  1.4593  0.6727 -1.1441
 3228TIP3    H231244   3.410   4.105   8.305 -0.7922 -0.1113  0.1768
 3229TIP3   OH231245   2.381   5.642   7.937 -0.0184  0.2896  0.3357
 3229TIP3    H131246   2.289   5.616   7.941  0.0561  0.1962  1.5506
 3229TIP3    H231247   2.381   5.721   7.882 -0.3921 -1.4385 -2.3346
 3230TIP3   OH231248   0.679   3.026   7.299  0.6055 -0.1584  0.4570
 3230TIP3    H131249   0.652   2.938   7.273 -0.2945  0.2689 -0.0962
 3230TIP3    H231250   0.663   3.080   7.221  2.3817  0.2671  0.3498
 3231TIP3   OH231251   3.470   2.971   0.852 -0.0587 -0.1587 -0.2717
 3231TIP3    H131252   3.406   2.960   0.782 -0.2250  1.2099 -0.3731
 3231TIP3    H231253   3.524   3.045   0.823  1.2168 -0.9179  0.0773
 3232TIP3   OH231254   5.022   0.377   0.823  0.3787 -0.8430 -0.2219
 3232TIP3    H131255   4.944   0.331   0.793  0.0085 -1.9056  2.1507
 3232TIP3    H231256   5.081   0.308   0.852  0.6905  0.0433  1.3768
 3233TIP3   OH231257   4.065   3.896   0.463 -0.4220 -0.2740  0.6278
 3233TIP3    H131258   3.971   3.890   0.478 -0.5277 -2.4297 -0.4885
 3233TIP3    H231259   4.074   3.918   0.370  0.1718 -1.0431  0.4937
 3234TIP3   OH231260   5.640   0.522   2.613 -0.2341  0.3699 -0.1068
 3234TIP3    H131261   5.695   0.470   2.554 -1.4537 -1.8952  0.6383
 3234TIP3    H231262   5.700   0.551   2.682  0.3490 -0.8666 -0.0559
 3235TIP3   OH231263   0.699   6.222   1.337  0.1922  0.4817 -0.3142
 3235TIP3    H131264   0.766   6.290   1.336  1.0547 -0.3206  0.2823
 3235TIP3    H231265   0.724   6.164   1.264 -0.1926  0.4843 -0.4485
 3236TIP3   OH231266   5.446   2.153   1.085 -0.5442 -0.0121  0.1053
 3236TIP3    H131267   5.423   2.137   0.993  0.6194  1.2664 -0.4406
 3236TIP3    H231268   5.448   2.248   1.093 -0.2948 -0.1102  1.3703
 3237TIP3   OH231269   1.484   4.280   8.332 -0.0111 -0.3545 -0.5469
 3237TIP3    H131270   1.551   4.346   8.310 -1.2697  1.1156 -0.1189
 3237TIP3    H231271   1.492   4.215   8.263  3.6004 -1.6554  0.8453
 3238TIP3   OH231272   4.360   1.809   0.780  0.5280  0.0777 -0.5197
 3238TIP3    H131273   4.395   1.750   0.713  2.0619 -0.8741  1.0431
 3238TIP3    H231274   4.410   1.890   0.769  0.7865 -0.0802 -0.5026
 3239TIP3   OH231275   5.427   5.851   0.859  0.4104  0.0355 -0.3363
 3239TIP3    H131276   5.498   5.788   0.876 -0.2601 -0.0278  2.8558
 3239TIP3    H231277   5.467   5.917   0.803  3.1733  0.2044  1.6128
 3240TIP3   OH231278   6.711   5.539   8.412 -0.1114 -0.2956 -0.5882
 3240TIP3    H131279   6.767   5.571   8.483 -0.2406  0.4014 -0.7980
 3240TIP3    H231280   6.644   5.606   8.402 -1.5193 -1.5141  0.2368
 3241TIP3   OH231281   2.340   5.408   7.701  0.1236 -0.0038 -0.1293
 3241TIP3    H131282   2.398   5.483   7.695  0.0829  0.0350 -0.0220
 3241TIP3    H231283   2.252   5.444   7.688 -0.2406  0.4568  3.0205
 3242TIP3   OH231284   1.159   3.615   2.129  0.2332  0.1963 -0.3666
 3242TIP3    H131285   1.197   3.551   2.189 -1.3661 -1.2216 -0.7877
 3242TIP3    H231286   1.064   3.606   2.142 -0.0505  1.8278 -1.1206
 3243TIP3   OH231287   5.995   4.237   0.265 -0.4025 -0.0186  0.6477
 3243TIP3    H131288   5.938   4.192   0.327 -1.7544  1.8736  0.8658
 3243TIP3    H231289   5.939   4.256   0.190  0.8418 -1.0092 -0.6100
 3244TIP3   OH231290   1.345   6.701   0.100 -0.2784  0.2533 -0.2402
 3244TIP3    H131291   1.434   6.728   0.122  0.4735 -1.6709 -0.6962
 3244TIP3    H231292   1.295   6.716   0.180  0.3765  1.6037 -0.0605
 3245TIP3   OH231293   3.425   3.689   0.565  0.8099 -0.1126  0.7037
 3245TIP3    H131294   3.340   3.650   0.544  0.0080  2.1903 -0.8361
 3245TIP3    H231295   3.477   3.678   0.485  0.4556  2.0285  0.1084
 3246TIP3   OH231296   5.201   2.908   1.142  0.0645  0.0617 -0.0153
 3246TIP3    H131297   5.215   2.994   1.181  1.1896 -0.5628  1.0237
 3246TIP3    H231298   5.271   2.898   1.078  0.5145 -0.4392  0.5362
 3247TIP3   OH231299   2.486   6.618   6.798  0.4187 -0.0699  0.0563
 3247TIP3    H131300   2.402   6.574   6.783  0.1855  1.1776 -3.0423
 3247TIP3    H231301   2.551   6.549   6.794 -0.1735 -0.5655 -1.5736
 3248TIP3   OH231302   2.136   1.265   0.500 -0.2881 -0.2499 -0.0504
 3248TIP3    H131303   2.138   1.251   0.405  0.2104 -0.8575  0.0372
 3248TIP3    H231304   2.131   1.360   0.511 -3.7376 -0.2282 -0.7037
 3249TIP3   OH231305   5.885   3.512   0.985 -0.3664  0.3898  0.0203
 3249TIP3    H131306   5.861   3.443   0.923 -0.8286 -0.1422  0.7810
 3249TIP3    H231307   5.977   3.497   1.004 -0.9622 -1.3365  1.7916
 3250TIP3   OH231308   2.878   0.648   6.924 -0.0775  0.1053  0.2637
 3250TIP3    H131309   2.898   0.686   6.838 -0.0236  0.7443  0.5533
 3250TIP3    H231310   2.910   0.558   6.918 -0.4832  0.0029 -0.5377
 3251TIP3   OH231311   4.837   0.797   2.351 -0.7109 -0.2362  0.3228
 3251TIP3    H131312   4.782   0.804   2.429 -0.6656  0.6185  0.2904
 3251TIP3    H231313   4.864   0.887   2.333 -0.9974 -0.3726 -0.8762
 3252TIP3   OH231314   2.937   3.915   2.162  0.0696 -0.3226  0.5860
 3252TIP3    H131315   3.030   3.934   2.148 -0.1576  1.5256  1.2289
 3252TIP3    H231316   2.931   3.892   2.255  0.1250 -2.3449  0.1230
 3253TIP3   OH231317   6.465   1.256   7.062 -0.2342  0.0535 -0.4457
 3253TIP3    H131318   6.511   1.315   7.003  1.2720  0.6578  1.2363
 3253TIP3    H231319   6.372   1.269   7.041  0.1132  2.1732 -0.9332
 3254TIP3   OH231320   1.261   2.957   8.599  0.0254 -0.2718  0.0032
 3254TIP3    H131321   1.202   2.993   8.532 -0.7996 -2.9086 -0.8092
 3254TIP3    H231322   1.343   3.006   8.587 -0.9509  1.2017 -1.0663
 3255TIP3   OH231323   2.479   1.123   1.630  0.0559  0.4173  0.6217
 3255TIP3    H131324   2.570   1.094   1.627  0.5808  1.9210  0.9557
 3255TIP3    H231325   2.458   1.148   1.540 -0.4279 -1.0160  0.3148
 3256TIP3   OH231326   0.972   4.675   1.555 -0.0269  0.6955  0.4461
 3256TIP3    H131327   1.001   4.753   1.508 -0.6327  0.1844 -0.8326
 3256TIP3    H231328   1.015   4.602   1.509 -1.2446  0.1270  0.1508
 3257TIP3   OH231329   5.113   1.587   1.735 -0.3004  0.3074  0.0275
 3257TIP3    H131330   5.118   1.677   1.767 -1.4207  0.1042  0.8688
 3257TIP3    H231331   5.186   1.542   1.778  0.6474  0.9314 -0.8839
 3258TIP3   OH231332   2.303   3.288   0.770 -0.1761 -0.2062 -0.2331
 3258TIP3    H131333   2.244   3.243   0.831  0.3965 -0.6626 -0.0168
 3258TIP3    H231334   2.362   3.338   0.827 -1.0719  1.1873 -0.4697
 3259TIP3   OH231335   1.807   5.148   0.805  0.0565 -0.8696  0.0458
 3259TIP3    H131336   1.899   5.176   0.811  0.0098 -0.7559  0.2358
 3259TIP3    H231337   1.781   5.131   0.895 -0.3504 -0.1250  0.0816
 3260TIP3   OH231338   5.210   5.295   8.589 -0.0381 -0.5371 -0.1816
 3260TIP3    H131339   5.281   5.263   8.533  0.6255 -0.3589  0.5527
 3260TIP3    H231340   5.166   5.216   8.618  1.6239 -0.8583  1.6587
 3261TIP3   OH231341   4.249   1.032   0.710 -0.6308 -0.6368 -0.4330
 3261TIP3    H131342   4.333   1.077   0.698  0.3696 -2.0669  0.7243
 3261TIP3    H231343   4.187   1.081   0.657  0.3603  2.0699  0.7353
 3262TIP3   OH231344   4.383   0.340   2.387 -0.3281  0.5388  0.5466
 3262TIP3    H131345   4.464   0.296   2.412 -0.0552  0.0194 -1.1327
 3262TIP3    H231346   4.386   0.424   2.434  1.1314  0.4933  0.5760
 3263TIP3   OH231347   2.600   1.165   2.230 -0.4283  0.4905  0.0779
 3263TIP3    H131348   2.667   1.225   2.264  0.4590 -0.9837  1.0747
 3263TIP3    H231349   2.622   1.154   2.137  2.2190 -1.6794  0.8075
 3264TIP3   OH231350   0.339   1.629   0.800  0.0890  0.1979 -0.4588
 3264TIP3    H131351   0.290   1.660   0.876 -0.6128 -0.7440 -0.5128
 3264TIP3    H231352   0.302   1.678   0.727 -0.4840 -0.1938 -0.4381
 3265TIP3   OH231353   5.885   0.580   2.722  0.0995  0.5124  0.3773
 3265TIP3    H131354   5.934   0.561   2.642 -0.3582 -0.5482  0.3279
 3265TIP3    H231355   5.939   0.643   2.769  0.8531  0.3931 -0.3127
 3266TIP3   OH231356   5.748   4.189   2.137  0.2691  0.6556 -0.2224
 3266TIP3    H131357   5.787   4.126   2.197  2.0573  0.7337 -1.2395
 3266TIP3    H231358   5.667   4.216   2.180 -0.7346 -2.5168  0.1387
 3267TIP3   OH231359   1.462   4.911   7.458 -0.6476  0.6945 -0.1614
 3267TIP3    H131360   1.443   4.835   7.513  0.7967  0.7644  0.4747
 3267TIP3    H231361   1.382   4.924   7.407 -1.8643  0.3123  1.5443
 3268TIP3   OH231362   4.014   4.258   3.063 -0.4676 -0.0250 -0.7068
 3268TIP3    H131363   4.002   4.329   3.000 -1.3662 -0.0044 -0.5294
 3268TIP3    H231364   4.087   4.208   3.029  0.8806  1.5626 -0.2967
 3269TIP3   OH231365   3.357   2.326   7.882  0.5738  0.1538 -0.9642
 3269TIP3    H131366   3.269   2.315   7.919  0.8584 -0.3056 -0.3962
 3269TIP3    H231367   3.351   2.405   7.829 -0.0567  0.4043 -0.5349
 3270TIP3   OH231368   6.248   1.931   0.816  0.2550  0.1911 -0.3330
 3270TIP3    H131369   6.308   1.858   0.830  0.8556  0.7436  0.0477
 3270TIP3    H231370   6.197   1.906   0.739 -0.7597 -1.3873  0.7951
 3271TIP3   OH231371   4.963   1.234   1.886 -0.4883 -0.5895  0.1118
 3271TIP3    H131372   4.883   1.220   1.938  0.4833 -1.5222  1.4103
 3271TIP3    H231373   4.952   1.177   1.810  0.0149 -2.7266  1.5498
 3272TIP3   OH231374   4.021   2.689   7.553  0.5204 -0.4610 -0.1187
 3272TIP3    H131375   4.046   2.781   7.541  2.2871 -0.8578  0.2291
 3272TIP3    H231376   3.937   2.681   7.509  0.8644  1.0640 -1.1332
 3273TIP3   OH231377   4.273   1.500   8.015 -0.0003  0.3580  0.0084
 3273TIP3    H131378   4.237   1.498   8.104 -0.6106  1.4398 -0.1876
 3273TIP3    H231379   4.200   1.471   7.960 -0.2393  1.4697 -0.2900
 3274TIP3   OH231380   4.156   2.479   7.630 -0.1478  0.6601  0.3741
 3274TIP3    H131381   4.250   2.489   7.611  0.3020 -1.7137  0.9937
 3274TIP3    H231382   4.117   2.560   7.599  1.7112  0.6104 -2.5817
 3275TIP3   OH231383   1.237   1.536   7.395  0.2607  0.3593 -0.2725
 3275TIP3    H131384   1.277   1.563   7.477  0.0634 -0.3417  0.0614
 3275TIP3    H231385   1.311   1.512   7.339  0.3255 -1.6500  0.5912
 3276TIP3   OH231386   5.466   1.539   1.037  0.2570  0.3693  0.2497
 3276TIP3    H131387   5.500   1.623   1.069 -0.5259  0.3492  1.1682
 3276TIP3    H231388   5.385   1.526   1.085  0.9270 -1.4672  0.9689
 3277TIP3   OH231389   4.354   3.031   8.492  0.4153 -0.0037  0.1409
 3277TIP3    H131390   4.315   3.116   8.510 -0.9801 -0.3380 -1.0559
 3277TIP3    H231391   4.392   3.040   8.404  0.2538 -0.6012  0.0005
 3278TIP3   OH231392   4.063   0.187   1.516 -0.2039  0.7612 -0.2644
 3278TIP3    H131393   4.046   0.263   1.461  1.1786  0.3628 -1.3052
 3278TIP3    H231394   3.985   0.132   1.508 -0.2356  0.9568 -1.4164
 3279TIP3   OH231395   6.351   1.781   8.628  0.0698 -0.4469 -0.3561
 3279TIP3    H131396   6.345   1.876   8.628  1.0725 -0.3662 -0.0490
 3279TIP3    H231397   6.310   1.753   8.709  0.2218 -0.2323 -0.2046
 3280TIP3   OH231398   2.648   0.266   8.411 -0.5239  0.0065  0.0460
 3280TIP3    H131399   2.610   0.340   8.459  0.9106  0.5308  0.4215
 3280TIP3    H231400   2.709   0.306   8.350  0.9250 -0.8802  0.8579
 3281TIP3   OH231401   3.587   0.960   2.797  0.8474  0.2093  0.3854
 3281TIP3    H131402   3.674   0.932   2.824  1.3852  0.6955 -0.7573
 3281TIP3    H231403   3.603   1.019   2.723 -0.4635 -0.0428 -0.1306
 3282TIP3   OH231404   5.088   0.349   2.324 -0.9833  0.3760 -0.0194
 3282TIP3    H131405   5.183   0.343   2.324 -0.8126  2.2822  0.1878
 3282TIP3    H231406   5.057   0.265   2.357  0.6788  0.2733  1.3679
 3283TIP3   OH231407   0.884   1.457   0.640 -0.2203 -0.0711  0.2189
 3283TIP3    H131408   0.790   1.439   0.636 -0.1989 -0.6464  1.7009
 3283TIP3    H231409   0.918   1.395   0.704  1.1251  0.3647 -0.0282
 3284TIP3   OH231410   6.368   3.967   2.162 -0.0966  0.1784 -0.9463
 3284TIP3    H131411   6.369   4.004   2.250  1.5854  0.1534 -0.9244
 3284TIP3    H231412   6.318   3.886   2.171  0.9469 -0.3684  0.2400
 3285TIP3   OH231413   6.032   6.169   7.947 -0.5163 -0.1930 -0.2897
 3285TIP3    H131414   6.124   6.191   7.934 -0.7151 -0.3359 -2.2521
 3285TIP3    H231415   6.032   6.106   8.019  0.9945 -0.6696 -0.6643
 3286TIP3   OH231416   3.049   6.765   7.177  0.3764 -0.1865 -0.2059
 3286TIP3    H131417   2.969   6.790   7.130  0.6095  0.7195 -0.1535
 3286TIP3    H231418   3.066   6.675   7.150 -0.7695 -0.4557 -0.0591
 3287TIP3   OH231419   3.615   6.068   6.934  0.5868 -0.1698 -0.2571
 3287TIP3    H131420   3.600   6.159   6.960  1.7876 -0.0276 -0.0150
 3287TIP3    H231421   3.636   6.072   6.841  2.7361  0.0628  0.2011
 3288TIP3   OH231422   6.383   1.902   7.846  0.1184  0.6699 -0.4315
 3288TIP3    H131423   6.288   1.917   7.847 -0.0022 -0.0798  0.1132
 3288TIP3    H231424   6.412   1.925   7.934  0.0028 -1.6204  0.2763
 3289TIP3   OH231425   2.319   3.353   2.381 -0.5607  0.0636 -0.4653
 3289TIP3    H131426   2.380   3.312   2.442  2.6686  2.7519 -1.5567
 3289TIP3    H231427   2.252   3.393   2.436  1.5742  1.3631  1.3404
 3290TIP3   OH231428   0.778   2.166   6.952 -0.1430  0.1500  0.5686
 3290TIP3    H131429   0.742   2.209   7.030 -1.6539  0.6780 -0.3779
 3290TIP3    H231430   0.855   2.218   6.929 -1.2454  1.6366  0.1538
 3291TIP3   OH231431   1.628   2.896   1.641 -0.1866  0.4965 -0.0717
 3291TIP3    H131432   1.617   2.927   1.731 -3.5370 -0.0653 -0.1719
 3291TIP3    H231433   1.640   2.975   1.589  1.0378  0.8700  0.7437
 3292TIP3   OH231434   4.884   6.842   1.415 -0.2138  0.4285 -0.2398
 3292TIP3    H131435   4.865   6.795   1.497 -0.3208  1.4565  0.3397
 3292TIP3    H231436   4.906   6.773   1.353 -2.4465 -0.6080 -0.0071
 3293TIP3   OH231437   2.825   3.781   7.751 -0.1385 -0.0776 -0.1367
 3293TIP3    H131438   2.875   3.826   7.819  0.1923 -1.7674  0.8206
 3293TIP3    H231439   2.758   3.733   7.799 -1.7250  0.9043 -1.2817
 3294TIP3   OH231440   2.755   3.311   0.979  0.1244  0.0842  0.0786
 3294TIP3    H131441   2.802   3.395   0.984  0.9238 -0.2313 -1.5536
 3294TIP3    H231442   2.813   3.249   1.024  1.0771 -0.1969 -1.4711
 3295TIP3   OH231443   1.410   3.756   3.060  0.1407 -0.1520  0.2795
 3295TIP3    H131444   1.317   3.756   3.035  0.0930  2.2063  0.1461
 3295TIP3    H231445   1.410   3.729   3.152 -1.1676  2.9099  1.3268
 3296TIP3   OH231446   2.087   0.496   0.222 -0.1663  0.0097 -0.4729
 3296TIP3    H131447   2.072   0.508   0.128 -1.2454 -0.9071 -0.4474
 3296TIP3    H231448   2.000   0.507   0.261 -0.3215 -2.5272  0.0622
 3297TIP3   OH231449   4.332   4.256   8.219  0.1544  0.2622 -0.5071
 3297TIP3    H131450   4.356   4.208   8.298  0.3488  0.6140 -0.3494
 3297TIP3    H231451   4.265   4.202   8.177 -1.1984  0.8826  0.7712
 3298TIP3   OH231452   5.359   4.982   1.579  0.1097 -0.3718 -0.4704
 3298TIP3    H131453   5.280   5.030   1.556  2.0078  3.9227  0.9525
 3298TIP3    H231454   5.340   4.945   1.665 -0.4841  0.4115 -0.2499
 3299TIP3   OH231455   2.538   0.477   8.570  0.1714 -0.4487  0.3548
 3299TIP3    H131456   2.486   0.558   8.565  1.2202  0.2163 -0.1239
 3299TIP3    H231457   2.490   0.421   8.631  0.0643  1.0284  1.6881
 3300TIP3   OH231458   4.256   3.642   8.321  0.2632  0.6953 -0.6589
 3300TIP3    H131459   4.230   3.576   8.257 -0.1394  0.9578 -0.7680
 3300TIP3    H231460   4.329   3.601   8.369 -1.0576 -0.5090  0.3985
 3301TIP3   OH231461   1.325   2.389   7.756  0.0317 -0.4343  0.1231
 3301TIP3    H131462   1.373   2.470   7.770 -1.3960  0.6401 -0.9903
 3301TIP3    H231463   1.364   2.351   7.678  0.5200 -0.6949  0.4896
 3302TIP3   OH231464   4.168   1.284   1.244 -0.0246 -0.0502  0.8252
 3302TIP3    H131465   4.166   1.218   1.175 -2.7596 -0.8454  1.5244
 3302TIP3    H231466   4.253   1.328   1.234 -0.0174 -0.5832 -2.5594
 3303TIP3   OH231467   0.755   6.508   1.889 -0.4199 -0.1646 -0.4149
 3303TIP3    H131468   0.842   6.547   1.893 -0.2825 -0.5243  0.7038
 3303TIP3    H231469   0.695   6.581   1.901 -0.2341 -0.0128 -0.4108
 3304TIP3   OH231470   1.037   6.827   8.125  0.5004 -0.3225  0.4825
 3304TIP3    H131471   1.038   6.782   8.041  0.4984 -1.3931  1.0424
 3304TIP3    H231472   0.992   6.910   8.107  2.1080  0.3016 -0.9705
 3305TIP3   OH231473   5.204   4.510   7.960 -0.7372 -0.7549  0.0713
 3305TIP3    H131474   5.173   4.542   8.045 -1.3095 -0.7086 -0.1497
 3305TIP3    H231475   5.157   4.564   7.896 -1.1138 -1.5050 -0.2936
 3306TIP3   OH231476   4.009   5.404   8.347  0.6518 -0.3793  0.1735
 3306TIP3    H131477   4.083   5.355   8.383  0.2230 -0.7268  0.5996
 3306TIP3    H231478   4.004   5.377   8.255  1.7143  0.4612 -0.1380
 3307TIP3   OH231479   3.153   0.961   1.773  0.1087 -0.5494  0.0562
 3307TIP3    H131480   3.127   0.989   1.685  0.4148 -1.9119 -0.4822
 3307TIP3    H231481   3.075   0.974   1.827  0.3792  1.8336 -0.0168
 3308TIP3   OH231482   4.639   4.995   0.666  0.1580  0.5445  0.0482
 3308TIP3    H131483   4.595   4.925   0.616  0.2253  0.7768 -0.3374
 3308TIP3    H231484   4.732   4.973   0.662  0.4896  2.0429 -2.3188
 3309TIP3   OH231485   6.344   1.361   1.026  0.5294  0.6581  0.1937
 3309TIP3    H131486   6.408   1.365   1.098 -0.8538 -1.1646  1.5970
 3309TIP3    H231487   6.272   1.416   1.055 -0.4084 -0.7604  0.6387
 3310TIP3   OH231488   2.010   5.313   0.918 -0.4551 -0.1354 -0.2962
 3310TIP3    H131489   2.083   5.362   0.956 -1.3361  1.4281 -0.5494
 3310TIP3    H231490   1.932   5.349   0.962 -1.2656 -0.1217 -1.6984
 3311TIP3   OH231491   6.711   2.288   1.287 -0.1773 -0.0426 -0.9758
 3311TIP3    H131492   6.629   2.290   1.237 -0.0052 -1.1672 -1.3430
 3311TIP3    H231493   6.753   2.207   1.259  0.5828  0.0158 -0.0291
 3312TIP3   OH231494   0.216   6.063   7.465 -0.4783  0.0311 -0.4376
 3312TIP3    H131495   0.248   5.979   7.433  0.1306  0.6252 -1.4282
 3312TIP3    H231496   0.187   6.109   7.386 -1.4952  0.4709  0.1752
 3313TIP3   OH231497   4.351   2.296   0.806 -0.0921 -0.4927  0.1098
 3313TIP3    H131498   4.402   2.376   0.799  0.1347 -0.5588  0.8924
 3313TIP3    H231499   4.408   2.235   0.853 -0.8617 -0.5835  0.9555
 3314TIP3   OH231500   0.698   4.309   0.046 -0.8871  0.0149 -0.6973
 3314TIP3    H131501   0.778   4.284   0.000  0.3675 -0.7652  1.7638
 3314TIP3    H231502   0.715   4.398   0.077  1.1061 -1.5931  3.6787
 3315TIP3   OH231503   2.414   3.971   0.108 -0.2615  0.3481  0.4876
 3315TIP3    H131504   2.501   4.011   0.123  0.8411 -1.0787 -1.7043
 3315TIP3    H231505   2.356   4.046   0.094  1.3853  1.3404 -1.6657
 3316TIP3   OH231506   4.938   2.992   1.927  0.3306 -0.5565  1.0974
 3316TIP3    H131507   4.963   2.956   2.012  0.4933  1.0561  1.7554
 3316TIP3    H231508   4.861   2.941   1.902  0.2483 -1.0271  2.2222
 3317TIP3   OH231509   6.173   4.048   8.548  0.8557 -0.0540 -0.3797
 3317TIP3    H131510   6.238   4.029   8.480  0.0925  0.1784 -1.1968
 3317TIP3    H231511   6.161   4.143   8.544  0.1673 -0.1371 -0.5353
 3318TIP3   OH231512   5.876   0.941   1.739  0.4491 -0.0346 -0.0241
 3318TIP3    H131513   5.890   1.004   1.668  2.6220 -1.4553 -0.9386
 3318TIP3    H231514   5.957   0.892   1.744 -1.3985 -3.3641  0.0557
 3319TIP3   OH231515   4.501   0.206   8.111  0.0497 -0.2535 -0.5355
 3319TIP3    H131516   4.528   0.293   8.139 -1.3154  0.0578 -0.1125
 3319TIP3    H231517   4.519   0.205   8.017  0.2182  0.4231 -0.5186
 3320TIP3   OH231518   2.936   2.547   0.953  0.2629 -0.2626  0.4130
 3320TIP3    H131519   3.024   2.527   0.983  0.8300  0.9928 -0.3679
 3320TIP3    H231520   2.948   2.601   0.875 -1.1872 -1.2330 -0.5477
 3321TIP3   OH231521   4.224   3.119   1.177 -0.4421  0.4472  0.1922
 3321TIP3    H131522   4.232   3.214   1.172  0.1981  0.4008  0.2086
 3321TIP3    H231523   4.277   3.095   1.253  0.1872 -0.0055 -0.3822
 3322TIP3   OH231524   4.581   2.763   0.113  0.0222  0.3523 -0.4405
 3322TIP3    H131525   4.491   2.750   0.142 -0.7190  2.0727 -1.7805
 3322TIP3    H231526   4.635   2.727   0.184 -1.6683 -2.5258 -0.4864
 3323TIP3   OH231527   0.998   1.895   7.376  0.0937  0.2431  0.3620
 3323TIP3    H131528   1.078   1.869   7.422  0.5867  2.3099  0.7966
 3323TIP3    H231529   0.964   1.969   7.426 -0.4788  1.2567 -1.4166
 3324TIP3   OH231530   0.941   4.666   0.368  0.1445  0.3027  0.2508
 3324TIP3    H131531   1.007   4.736   0.366  0.3302  0.1614  1.0375
 3324TIP3    H231532   0.857   4.712   0.363  0.1959  0.7375  2.4108
 3325TIP3   OH231533   3.199   1.663   1.767 -0.2975 -0.1507 -0.0021
 3325TIP3    H131534   3.117   1.633   1.729 -0.4156  0.6268 -0.3820
 3325TIP3    H231535   3.263   1.653   1.697 -0.6529  1.9385 -0.6808
 3326TIP3   OH231536   5.694   5.578   0.826  0.1949 -0.0655 -0.0998
 3326TIP3    H131537   5.758   5.526   0.778 -0.4993 -0.6008 -0.4629
 3326TIP3    H231538   5.717   5.566   0.918  0.3967 -0.5596 -0.2110
 3327TIP3   OH231539   1.337   6.180   7.690  0.3930  0.9542  0.6260
 3327TIP3    H131540   1.381   6.169   7.606 -1.5031 -3.4139 -0.0438
 3327TIP3    H231541   1.246   6.159   7.673 -0.4865  2.0259  3.4259
 3328TIP3   OH231542   0.428   2.785   0.493  0.4123 -0.2068 -0.6545
 3328TIP3    H131543   0.370   2.709   0.500  0.5192 -0.2069  0.3002
 3328TIP3    H231544   0.372   2.860   0.512  0.6637 -0.1902  0.0620
 3329TIP3   OH231545   5.464   5.850   1.946  0.4318  0.4381 -0.7171
 3329TIP3    H131546   5.424   5.868   1.861  2.0888  1.3776 -1.3251
 3329TIP3    H231547   5.475   5.936   1.986 -0.3399  0.0060  0.4822
 3330TIP3   OH231548   3.961   0.307   0.776 -0.2025 -0.6410  0.8709
 3330TIP3    H131549   3.993   0.217   0.786  1.5215 -0.2008 -0.1908
 3330TIP3    H231550   3.908   0.304   0.697 -0.4630 -0.7821  1.0462
 3331TIP3   OH231551   4.592   3.987   8.237  0.1779  0.5358  0.4035
 3331TIP3    H131552   4.592   3.935   8.156  1.2489 -0.8135  1.2148
 3331TIP3    H231553   4.502   4.019   8.245  0.2467  1.4896 -1.7761
 3332TIP3   OH231554   2.356   5.610   0.492  0.0640  0.0960  0.0299
 3332TIP3    H131555   2.387   5.532   0.538 -0.2439  1.0893  2.0527
 3332TIP3    H231556   2.418   5.679   0.517 -2.6642  1.7809  2.9577
 3333TIP3   OH231557   3.758   4.893   1.084 -0.1788 -0.1366 -0.9172
 3333TIP3    H131558   3.679   4.893   1.030 -1.0465 -0.6324  0.3140
 3333TIP3    H231559   3.726   4.898   1.174  1.1441 -1.4262 -0.3331
 3334TIP3   OH231560   0.596   5.637   7.016  0.7627  0.4383 -0.2348
 3334TIP3    H131561   0.661   5.579   7.055 -1.4400 -0.9390  1.6833
 3334TIP3    H231562   0.645   5.714   6.988  3.2705 -0.8309  0.4227
 3335TIP3   OH231563   1.521   3.346   1.357  0.5070 -0.0748 -0.0605
 3335TIP3    H131564   1.450   3.315   1.301  0.0357  4.0074 -2.1300
 3335TIP3    H231565   1.503   3.306   1.442 -3.9766  0.1577 -0.6110
 3336TIP3   OH231566   4.748   1.518   0.061 -0.2650  0.2432 -0.2469
 3336TIP3    H131567   4.808   1.590   0.040  0.4212 -0.1782  0.2269
 3336TIP3    H231568   4.715   1.489  -0.024 -0.3728  0.9618 -0.4572
 3337TIP3   OH231569   4.757   1.914   1.239  0.3483 -0.5156 -1.0384
 3337TIP3    H131570   4.721   1.928   1.326  2.0095  1.5955 -0.6049
 3337TIP3    H231571   4.683   1.930   1.180 -0.6109 -1.2646 -0.0806
 3338TIP3   OH231572   1.449   3.403   1.813 -0.0516 -0.2909  0.1617
 3338TIP3    H131573   1.407   3.394   1.898 -1.9756 -3.1124 -0.9440
 3338TIP3    H231574   1.415   3.485   1.777 -1.3994 -0.4656  1.0050
 3339TIP3   OH231575   3.957   5.511   0.995 -0.0460  0.9006 -0.0645
 3339TIP3    H131576   4.046   5.536   1.021  0.7602 -1.4859 -0.2477
 3339TIP3    H231577   3.962   5.495   0.901 -0.2837 -0.5672  0.1452
 3340TIP3   OH231578   1.362   4.614   2.064 -0.1150  0.2874 -0.4561
 3340TIP3    H131579   1.358   4.610   2.159 -0.3467 -1.6593 -0.5138
 3340TIP3    H231580   1.291   4.674   2.040 -0.8849 -0.1829  0.5458
 3341TIP3   OH231581   5.497   4.873   7.100  0.2379  0.0174 -0.3782
 3341TIP3    H131582   5.550   4.833   7.030  0.0400 -1.1116  0.0966
 3341TIP3    H231583   5.525   4.964   7.102  3.4128 -0.8452  0.9397
 3342TIP3   OH231584   2.045   0.821   0.582 -0.3659 -0.4161  0.0941
 3342TIP3    H131585   2.104   0.833   0.656 -0.0241  2.4023 -0.5183
 3342TIP3    H231586   2.100   0.785   0.513  0.2171  0.4906  0.0762
 3343TIP3   OH231587   5.550   2.015   0.287  0.2197  0.3374  0.3150
 3343TIP3    H131588   5.517   2.100   0.259  1.1920  0.3403 -0.8641
 3343TIP3    H231589   5.516   1.953   0.222  1.0264  0.0885  0.1173
 3344TIP3   OH231590   5.173   0.532   8.050 -0.8566 -0.5494 -0.4723
 3344TIP3    H131591   5.215   0.446   8.049 -1.8067 -1.0296  0.0464
 3344TIP3    H231592   5.122   0.534   8.131  1.3164  1.5974  0.9626
 3345TIP3   OH231593   1.512   3.391   0.408  0.1666 -0.3733  0.5025
 3345TIP3    H131594   1.441   3.406   0.470  0.4723 -0.8618  0.9791
 3345TIP3    H231595   1.468   3.382   0.323 -0.3900 -1.1546  0.8620
 3346TIP3   OH231596   5.478   4.361   7.568  0.5422  0.5603 -0.0529
 3346TIP3    H131597   5.530   4.291   7.608 -1.2712 -0.3568  0.8177
 3346TIP3    H231598   5.402   4.316   7.531  0.2813  1.8719 -1.1589
 3347TIP3   OH231599   5.166   2.855   0.818  0.1765 -0.0024  0.4429
 3347TIP3    H131600   5.128   2.784   0.868  1.0494 -1.4139 -0.8189
 3347TIP3    H231601   5.223   2.901   0.881  1.7346 -2.1076  0.6687
 3348TIP3   OH231602   5.442   2.222   2.181  0.3820  0.4175  0.2031
 3348TIP3    H131603   5.444   2.158   2.110 -2.2860  1.2452 -0.7315
 3348TIP3    H231604   5.522   2.273   2.169  0.4403 -0.0335 -1.6699
 3349TIP3   OH231605   1.072   0.897   0.684 -0.2200  0.0610  0.4100
 3349TIP3    H131606   1.049   0.949   0.608  0.1447  2.0588  1.6055
 3349TIP3    H231607   1.017   0.931   0.754  0.3044 -0.9088  1.3213
 3350TIP3   OH231608   2.467   2.156   2.138  0.4742 -0.8455  0.7076
 3350TIP3    H131609   2.425   2.227   2.089  1.4811 -0.0093  1.0109
 3350TIP3    H231610   2.546   2.196   2.175  2.4662 -2.7409 -1.2087
 3351TIP3   OH231611   6.637   4.353   8.531  0.3163  0.1700  0.2998
 3351TIP3    H131612   6.554   4.400   8.526  0.1017  0.0704  2.1689
 3351TIP3    H231613   6.622   4.271   8.484 -0.7996 -0.0340  0.9863
 3352TIP3   OH231614   4.348   6.499   2.000 -0.0649 -0.0033 -0.4574
 3352TIP3    H131615   4.384   6.473   2.085 -0.0602  0.8586 -0.1915
 3352TIP3    H231616   4.423   6.494   1.941  0.0686 -0.0343 -0.2898
 3353TIP3   OH231617   3.968   2.217   7.686  0.1858 -0.2560 -0.6603
 3353TIP3    H131618   3.916   2.297   7.688  0.3912 -0.1398  0.7017
 3353TIP3    H231619   4.058   2.247   7.679  0.5374 -0.1753  2.7413
 3354TIP3   OH231620   3.127   4.135   6.986 -0.2876 -0.0810 -0.5977
 3354TIP3    H131621   3.148   4.225   7.012  0.2844 -0.3122 -0.2340
 3354TIP3    H231622   3.047   4.115   7.034 -0.0068 -0.0190 -0.0952
 3355TIP3   OH231623   0.009   4.653   1.150  0.0773 -0.7061 -0.4040
 3355TIP3    H131624   0.042   4.725   1.096 -0.6435 -0.6730 -0.8156
 3355TIP3    H231625   0.018   4.685   1.240  1.2024 -0.7271 -0.5020
 3356TIP3   OH231626   5.828   6.266   0.818 -0.2282  0.1680  0.5025
 3356TIP3    H131627   5.900   6.308   0.770  0.3570  0.1563  1.3554
 3356TIP3    H231628   5.774   6.339   0.848 -0.9196  0.1553 -0.6330
 3357TIP3   OH231629   3.715   6.120   1.527  0.3460  0.0319  0.0031
 3357TIP3    H131630   3.807   6.135   1.509  0.2009 -0.1767 -0.9856
 3357TIP3    H231631   3.710   6.029   1.556  0.3902 -0.1064 -0.4230
 3358TIP3   OH231632   1.295   6.517   8.553 -0.4819  0.2971 -0.4390
 3358TIP3    H131633   1.328   6.566   8.628  2.4531 -0.9585 -0.7656
 3358TIP3    H231634   1.284   6.582   8.484  2.2025  0.7678 -0.5252
 3359TIP3   OH231635   3.257   6.190   2.130 -1.0406 -0.5858  0.1401
 3359TIP3    H131636   3.285   6.244   2.056  0.4512  0.3940  1.3461
 3359TIP3    H231637   3.257   6.251   2.205 -0.0532 -2.0585  1.4049
 3360TIP3   OH231638   6.637   4.937   8.327 -0.1915 -0.2529  0.4277
 3360TIP3    H131639   6.704   4.984   8.376  1.3846 -0.1940 -1.6418
 3360TIP3    H231640   6.554   4.971   8.360  0.8437  1.2689  1.5573
 3361TIP3   OH231641   2.656   2.642   8.589  0.4559  0.2669 -0.5466
 3361TIP3    H131642   2.662   2.665   8.496 -2.0385  2.4361 -0.2912
 3361TIP3    H231643   2.585   2.577   8.593 -1.5901  2.4027  0.0387
 3362TIP3   OH231644   1.860   1.425   8.135 -0.1778 -0.4598 -0.4126
 3362TIP3    H131645   1.903   1.507   8.108 -1.2003 -0.0958 -0.9637
 3362TIP3    H231646   1.933   1.367   8.158  0.5635  1.0456  1.3256
 3363TIP3   OH231647   5.891   2.128   8.525  1.0355 -0.6376 -0.1338
 3363TIP3    H131648   5.817   2.136   8.465  1.8128  0.0265 -1.0236
 3363TIP3    H231649   5.964   2.103   8.469  1.6695 -0.4887  0.6200
 3364TIP3   OH231650   5.430   1.025   1.510 -0.5376 -0.7669  0.1714
 3364TIP3    H131651   5.524   1.039   1.506 -0.5799  0.2565  1.7557
 3364TIP3    H231652   5.419   0.932   1.490  0.7264 -0.7648 -0.6787
 3365TIP3   OH231653   1.442   0.852   1.428  0.4070  0.0910  0.2161
 3365TIP3    H131654   1.396   0.929   1.462  1.0463  0.0632  1.1822
 3365TIP3    H231655   1.379   0.811   1.369  0.0579  1.3518 -0.3253
 3366TIP3   OH231656   0.420   2.267   8.186  0.3886 -0.2611  0.3273
 3366TIP3    H131657   0.482   2.226   8.247  1.0229 -0.3296 -0.3582
 3366TIP3    H231658   0.473   2.326   8.133  0.2479 -1.8139 -1.6308
 3367TIP3   OH231659   3.966   0.661   1.947  0.0276 -0.4719  0.3450
 3367TIP3    H131660   3.952   0.633   2.038 -1.9171  1.1152  0.6272
 3367TIP3    H231661   3.882   0.644   1.905 -0.0161  1.3602 -0.3970
 3368TIP3   OH231662   5.419   2.563   1.431  0.0460  0.0835 -0.2503
 3368TIP3    H131663   5.409   2.533   1.521  0.0734  1.7517  0.3442
 3368TIP3    H231664   5.331   2.586   1.403  0.1626  0.4749 -0.3057
 3369TIP3   OH231665   0.784   2.514   0.333 -0.0366  0.4221  0.5512
 3369TIP3    H131666   0.699   2.494   0.294  0.7808 -0.0475 -1.0793
 3369TIP3    H231667   0.845   2.454   0.291  0.9781  0.0990  2.3768
 3370TIP3   OH231668   1.794   5.801   7.857  0.0828  0.2788 -0.4669
 3370TIP3    H131669   1.741   5.871   7.820  1.3545  1.0160 -0.9295
 3370TIP3    H231670   1.858   5.845   7.912 -0.1241 -0.6378  0.5413
 3371TIP3   OH231671   2.170   2.304   8.645 -0.3975  0.3136 -0.7302
 3371TIP3    H131672   2.223   2.242   8.696 -1.3748 -0.7919 -1.0222
 3371TIP3    H231673   2.081   2.292   8.677 -0.5239  2.0723 -0.3360
 3372TIP3   OH231674   6.624   5.270   0.540 -0.9753  0.2614  0.6101
 3372TIP3    H131675   6.536   5.245   0.512 -0.1812 -1.9468 -0.1114
 3372TIP3    H231676   6.674   5.275   0.459  0.1104 -0.9114  1.1829
 3373TIP3   OH231677   2.163   2.623   0.284  0.0242 -0.0261 -0.1967
 3373TIP3    H131678   2.106   2.656   0.215 -0.9270  0.9560  0.9933
 3373TIP3    H231679   2.111   2.556   0.328  0.2431  0.0287  0.1523
 3374TIP3   OH231680   1.286   4.421   1.254 -0.4271  0.0587  0.1364
 3374TIP3    H131681   1.226   4.496   1.252  0.6287  0.9748  1.3380
 3374TIP3    H231682   1.361   4.450   1.203 -0.3334 -0.4915 -0.0448
 3375TIP3   OH231683   2.184   6.627   2.113 -0.4394 -0.6576 -0.1090
 3375TIP3    H131684   2.105   6.580   2.139 -0.3735 -1.0280 -0.5662
 3375TIP3    H231685   2.224   6.572   2.045 -0.9095  0.5708 -1.4219
 3376TIP3   OH231686   6.040   3.864   2.275 -0.1738  0.0915  0.5014
 3376TIP3    H131687   5.969   3.827   2.223  0.6815  1.3358 -1.6878
 3376TIP3    H231688   6.076   3.789   2.323 -0.9411 -1.1712 -0.8166
 3377TIP3   OH231689   0.771   1.634   8.223  0.0387 -0.0290  0.2651
 3377TIP3    H131690   0.856   1.666   8.194 -1.0181  0.7646 -2.2696
 3377TIP3    H231691   0.789   1.549   8.263  1.9900 -0.0346 -0.5184
 3378TIP3   OH231692   2.827   5.098   8.416  0.2644  0.0669 -0.2059
 3378TIP3    H131693   2.879   5.058   8.485 -0.5755  0.2106  0.5223
 3378TIP3    H231694   2.864   5.186   8.406  1.7343 -0.6404 -1.4082
 3379TIP3   OH231695   6.415   1.075   2.331  0.7366  0.5771  0.0790
 3379TIP3    H131696   6.385   1.107   2.246 -1.6831  0.6343  0.8589
 3379TIP3    H231697   6.417   1.153   2.386  0.4823  0.2853  0.5125
 3380TIP3   OH231698   1.687   4.192   0.968 -0.2313 -0.3444 -0.0728
 3380TIP3    H131699   1.726   4.105   0.972  0.5611 -0.3341 -3.9976
 3380TIP3    H231700   1.761   4.252   0.978 -0.6319 -0.0555  1.5214
 3381TIP3   OH231701   2.247   3.770   0.340  0.1690  0.1914 -0.2710
 3381TIP3    H131702   2.321   3.831   0.328  0.7012 -0.3539  0.2192
 3381TIP3    H231703   2.174   3.814   0.297  0.4165  1.4265  0.5103
 3382TIP3   OH231704   5.926   1.258   7.760 -0.2310 -0.3180 -0.3982
 3382TIP3    H131705   5.959   1.341   7.794  0.3035 -0.7411  0.1574
 3382TIP3    H231706   5.969   1.192   7.815 -0.7850 -0.9493 -0.7190
 3383TIP3   OH231707   3.991   0.646   1.302 -0.3274 -0.2262 -0.2679
 3383TIP3    H131708   3.919   0.655   1.365 -0.5248  0.2290 -0.5513
 3383TIP3    H231709   3.969   0.708   1.233 -0.3700 -1.0598 -1.0264
 3384TIP3   OH231710   4.271   4.575   7.112  0.5991  0.8708 -0.9151
 3384TIP3    H131711   4.325   4.616   7.045  0.5667  0.3451 -1.2646
 3384TIP3    H231712   4.196   4.634   7.122  0.2960  0.6408 -1.7797
 3385TIP3   OH231713   6.814   4.121   0.385  0.4851 -0.3226 -0.0335
 3385TIP3    H131714   6.747   4.178   0.348 -0.8489 -1.0182  1.2535
 3385TIP3    H231715   6.847   4.169   0.461  0.2473 -0.7100  0.3166
 3386TIP3   OH231716   6.372   2.765   7.912  0.1248  0.2362  0.0586
 3386TIP3    H131717   6.404   2.677   7.889  2.1371  0.7175  0.8703
 3386TIP3    H231718   6.297   2.749   7.969  0.6669 -0.9714  0.4650
 3387TIP3   OH231719   3.752   5.514   8.171  0.0967 -0.2202  0.1683
 3387TIP3    H131720   3.831   5.472   8.137  0.0566 -1.4910  1.5447
 3387TIP3    H231721   3.777   5.544   8.259 -0.7440 -0.0360  0.3533
 3388TIP3   OH231722   4.867   4.625   1.943  0.2852 -0.1788 -0.0893
 3388TIP3    H131723   4.842   4.558   1.879 -2.0676 -0.6988  1.2811
 3388TIP3    H231724   4.853   4.583   2.028  0.7800  1.3825  0.7942
 3389TIP3   OH231725   2.127   5.854   0.445 -0.7101  0.2185 -0.7154
 3389TIP3    H131726   2.122   5.768   0.485 -1.8165  0.3428 -0.5719
 3389TIP3    H231727   2.037   5.884   0.440 -0.6518  0.2148 -3.2921
 3390TIP3   OH231728   3.243   1.501   1.387  0.3882 -0.0665  0.3778
 3390TIP3    H131729   3.165   1.446   1.377 -0.2599  0.9020  0.0321
 3390TIP3    H231730   3.216   1.587   1.356  0.9186  0.8649  2.3155
 3391TIP3   OH231731   3.841   2.922   8.652 -0.3189  0.5733  0.0458
 3391TIP3    H131732   3.932   2.931   8.623  0.1036 -2.4517  0.1970
 3391TIP3    H231733   3.845   2.936   8.747  0.5000 -2.0141  0.4605
 3392TIP3   OH231734   0.338   3.829   0.211  0.7256  0.1059 -0.0783
 3392TIP3    H131735   0.352   3.866   0.124 -0.2916 -0.9033 -0.7088
 3392TIP3    H231736   0.395   3.752   0.214 -1.6674 -1.8492 -1.2266
 3393TIP3   OH231737   6.381   2.698   7.567 -0.2417 -0.4744 -0.1439
 3393TIP3    H131738   6.422   2.757   7.631 -1.5734  1.4020 -0.9222
 3393TIP3    H231739   6.288   2.700   7.588 -0.7346  0.3062 -2.1615
 3394TIP3   OH231740   1.381   1.403   1.429  0.2550 -0.2943 -0.2279
 3394TIP3    H131741   1.455   1.395   1.368 -0.3838 -0.0761 -1.0540
 3394TIP3    H231742   1.329   1.475   1.393  0.4231  0.5535  1.1856
 3395TIP3   OH231743   2.280   6.263   8.565  0.5178  0.8303  0.8863
 3395TIP3    H131744   2.266   6.170   8.580 -2.2376  0.8326 -0.9864
 3395TIP3    H231745   2.257   6.305   8.648 -0.9384  0.0045  0.9249
 3396TIP3   OH231746   1.581   5.227   1.426  0.0766 -0.3115 -0.6303
 3396TIP3    H131747   1.625   5.151   1.464  0.8044 -0.2132 -1.2513
 3396TIP3    H231748   1.651   5.274   1.380 -0.9263 -0.9515 -2.9363
 3397TIP3   OH231749   6.847   6.666   1.496  0.0972 -0.1165 -0.3866
 3397TIP3    H131750   6.835   6.674   1.590  1.5818 -1.5508 -0.0174
 3397TIP3    H231751   6.767   6.625   1.464 -0.6123  0.8138  0.1607
 3398TIP3   OH231752   2.580   4.100   1.203 -0.5535  0.0075  0.2267
 3398TIP3    H131753   2.530   4.181   1.217 -1.0538  0.0549 -1.5315
 3398TIP3    H231754   2.635   4.091   1.281 -1.4495  1.3314  1.0465
 3399TIP3   OH231755   3.666   5.256   1.062 -0.2804  0.1689  0.0500
 3399TIP3    H131756   3.682   5.186   0.999 -1.4546  1.5002 -1.8437
 3399TIP3    H231757   3.751   5.273   1.102  0.7433 -0.0933 -1.9079
 3400TIP3   OH231758   4.772   3.971   7.163  0.0777 -0.3348 -0.0078
 3400TIP3    H131759   4.812   3.969   7.077  0.1088 -1.5787  0.0176
 3400TIP3    H231760   4.678   3.972   7.146  0.0319 -2.6408 -0.0820
 3401TIP3   OH231761   0.442   4.829   1.332 -0.6893 -0.6280  0.1513
 3401TIP3    H131762   0.447   4.922   1.311  0.5619 -0.2898  1.7253
 3401TIP3    H231763   0.418   4.787   1.250 -0.7830  1.0317 -0.7117
 3402TIP3   OH231764   1.130   2.903   8.199  0.1237 -0.1754 -0.1099
 3402TIP3    H131765   1.211   2.890   8.149 -0.1018  0.0805 -0.5495
 3402TIP3    H231766   1.074   2.830   8.174 -0.2455  0.3155 -0.7647
 3403TIP3   OH231767   5.247   3.394   1.520 -0.0645 -0.8025  0.2023
 3403TIP3    H131768   5.291   3.367   1.439  0.8993 -1.7790  1.0174
 3403TIP3    H231769   5.235   3.489   1.510 -1.1161 -1.0810 -1.5973
 3404TIP3   OH231770   0.815   5.073   1.702 -0.0722 -0.2180 -0.0042
 3404TIP3    H131771   0.866   5.048   1.779 -0.3381  0.8199  0.5236
 3404TIP3    H231772   0.817   5.168   1.701  0.2540 -0.2092 -1.5193
 3405TIP3   OH231773   3.006   4.339   1.660 -0.2388  0.0458 -0.2267
 3405TIP3    H131774   3.092   4.359   1.623 -0.1185 -0.6167 -0.3270
 3405TIP3    H231775   3.024   4.275   1.730 -0.6771 -0.3660 -0.4819
 3406TIP3   OH231776   6.393   2.262   0.072  0.0751 -0.3028 -0.1336
 3406TIP3    H131777   6.395   2.332   0.006  0.6926  0.7589  0.9752
 3406TIP3    H231778   6.477   2.218   0.063  0.1214 -0.2180 -0.1197
 3407TIP3   OH231779   2.560   0.965   8.125  0.5192  0.1238  0.0993
 3407TIP3    H131780   2.573   0.936   8.215 -0.1929  2.0058  0.8743
 3407TIP3    H231781   2.644   1.004   8.099  0.1917  1.2446  0.6529
 3408TIP3   OH231782   0.070   4.545   0.078 -0.8062 -0.1221 -0.0471
 3408TIP3    H131783   0.094   4.457   0.106 -1.0455 -0.3261 -0.4793
 3408TIP3    H231784   0.042   4.535  -0.013  0.9786  0.6919 -0.7289
 3409TIP3   OH231785   4.637   4.815   1.053  0.0248  0.0799 -0.0190
 3409TIP3    H131786   4.722   4.853   1.031  0.3641 -0.5737  0.1633
 3409TIP3    H231787   4.646   4.786   1.144 -0.1133 -0.7725 -0.2699
 3410TIP3   OH231788   5.304   4.166   1.427 -0.4019 -0.7555 -0.6544
 3410TIP3    H131789   5.334   4.217   1.502 -0.8781  1.5141 -1.9130
 3410TIP3    H231790   5.281   4.080   1.464 -1.8226  0.6346  2.0367
 3411TIP3   OH231791   5.657   2.785   1.044  0.1730 -0.0752  0.2908
 3411TIP3    H131792   5.746   2.760   1.019  0.4819 -0.5378  1.7214
 3411TIP3    H231793   5.603   2.710   1.018  0.5855 -0.8330  1.5056
 3412TIP3   OH231794   2.658   1.995   0.828  0.3185  0.0737  0.2061
 3412TIP3    H131795   2.698   2.017   0.744  0.0873  0.6572  0.2473
 3412TIP3    H231796   2.707   1.918   0.858  1.0490  0.4441  0.0009
 3413TIP3   OH231797   3.313   3.986   0.485 -0.0596 -0.0390 -0.2858
 3413TIP3    H131798   3.390   4.024   0.443 -0.7624  0.6160 -1.0145
 3413TIP3    H231799   3.328   3.891   0.479  0.3948  0.0661 -0.9959
 3414TIP3   OH231800   4.738   2.994   7.282  0.1455 -0.0748  0.1710
 3414TIP3    H131801   4.790   2.940   7.341 -0.6792 -0.9532  0.1045
 3414TIP3    H231802   4.755   2.958   7.195 -0.2452 -0.0997  0.1028
 3415TIP3   OH231803   5.866   2.619   1.772  0.2037 -0.1059  0.0929
 3415TIP3    H131804   5.867   2.677   1.848  0.2306  0.2304 -0.1638
 3415TIP3    H231805   5.951   2.573   1.775  0.4196  0.2833 -0.0225
 3416TIP3   OH231806   5.149   1.696   8.294 -0.5157  0.4634  0.2614
 3416TIP3    H131807   5.158   1.727   8.384  0.2861 -0.5185  0.5375
 3416TIP3    H231808   5.096   1.763   8.251 -1.6743  0.5097  1.6892
 3417TIP3   OH231809   0.353   3.092   0.110 -0.4202  0.3562 -0.0515
 3417TIP3    H131810   0.437   3.136   0.121  0.0523  0.0573 -2.0663
 3417TIP3    H231811   0.373   3.016   0.055 -1.6368 -1.0194  1.3267
 3418TIP3   OH231812   1.794   1.740   0.851  0.4911 -0.1817  0.7413
 3418TIP3    H131813   1.824   1.829   0.869  1.7060 -0.0445 -1.6722
 3418TIP3    H231814   1.706   1.751   0.815  1.0468  0.1686 -0.5594
 3419TIP3   OH231815   0.479   0.487   7.882  0.0063 -0.0619  0.7036
 3419TIP3    H131816   0.468   0.402   7.926 -0.6864 -0.2374  0.2076
 3419TIP3    H231817   0.390   0.517   7.867  0.1989 -0.3412 -1.2319
 3420TIP3   OH231818   5.145   0.987   8.426 -0.0851  0.5276 -0.0238
 3420TIP3    H131819   5.067   0.941   8.457 -1.0705 -0.1892 -3.2261
 3420TIP3    H231820   5.118   1.079   8.422  0.0685  0.6412  1.0973
 3421TIP3   OH231821   3.521   1.531   1.291 -0.0513 -0.2525 -0.3745
 3421TIP3    H131822   3.445   1.541   1.348  0.3489  0.4057  0.0584
 3421TIP3    H231823   3.489   1.554   1.204  0.0442  1.7634  0.0780
 3422TIP3   OH231824   3.393   0.080   7.315  0.0106 -0.0081  0.4185
 3422TIP3    H131825   3.404  -0.014   7.301 -1.0217 -0.1703  0.6489
 3422TIP3    H231826   3.415   0.093   7.408 -0.1063 -0.0574  0.4525
 3423TIP3   OH231827   0.091   2.492   3.022 -0.1864 -0.9537 -0.1460
 3423TIP3    H131828   0.169   2.523   2.977 -1.2172  0.7283 -0.8831
 3423TIP3    H231829   0.085   2.547   3.100 -0.6681 -1.0458 -0.1154
 3424TIP3   OH231830   3.397   3.126   1.830 -0.0199  0.1053 -0.0226
 3424TIP3    H131831   3.463   3.192   1.806  0.2639 -0.2172 -0.1412
 3424TIP3    H231832   3.344   3.114   1.752  0.8274 -0.8550 -0.4759
 3425TIP3   OH231833   6.199   5.126   7.973  0.5365 -0.0499  0.1786
 3425TIP3    H131834   6.135   5.164   7.913  1.5807  2.0121  0.2754
 3425TIP3    H231835   6.218   5.040   7.936 -1.1657 -0.1047 -0.6591
 3426TIP3   OH231836   2.006   2.002   1.272  0.0644  0.0111  0.2887
 3426TIP3    H131837   1.944   2.061   1.227  0.3633  0.0211 -0.1196
 3426TIP3    H231838   2.080   1.995   1.211 -0.0619 -0.9632  0.2256
 3427TIP3   OH231839   1.958   4.843   0.062 -0.3528 -0.1749 -0.6815
 3427TIP3    H131840   1.878   4.800   0.033 -1.2368  0.7897  0.2815
 3427TIP3    H231841   1.962   4.924   0.011 -0.5247  0.2662  0.0075
 3428TIP3   OH231842   1.015   2.590   1.147  0.2638 -0.4598 -0.5877
 3428TIP3    H131843   0.946   2.542   1.192  1.2918 -1.8654 -0.4449
 3428TIP3    H231844   1.036   2.663   1.206  0.2640 -1.1655  0.3071
 3429TIP3   OH231845   0.886   4.211   8.546  0.4971 -0.3240  0.0112
 3429TIP3    H131846   0.934   4.294   8.545  0.0327 -0.0193  1.2841
 3429TIP3    H231847   0.951   4.146   8.573  0.2959  0.0563  1.5237
 3430TIP3   OH231848   6.063   6.469   0.920  0.0951 -0.6127  0.4107
 3430TIP3    H131849   6.094   6.401   0.860  0.2773 -0.7135  0.6161
 3430TIP3    H231850   6.142   6.498   0.966 -0.0774 -0.7074  0.7715
 3431TIP3   OH231851   4.750   2.016   1.510 -0.3552 -0.1318  0.3193
 3431TIP3    H131852   4.845   2.011   1.506 -0.0910  1.0775  2.8822
 3431TIP3    H231853   4.730   2.109   1.519 -1.7629 -0.3922  0.2396
 3432TIP3   OH231854   4.108   4.040   0.875  0.6325 -0.4361  0.6050
 3432TIP3    H131855   4.141   4.057   0.963  1.0832 -1.6158  0.6798
 3432TIP3    H231856   4.091   3.946   0.873  0.0726 -0.3324 -0.3851
 3433TIP3   OH231857   3.672   1.268   1.349 -0.2330 -0.2149 -0.6033
 3433TIP3    H131858   3.629   1.341   1.304  0.0988 -0.2659 -1.0066
 3433TIP3    H231859   3.734   1.234   1.286 -0.0265 -0.5292 -0.2361
 3434TIP3   OH231860   0.063   3.836   0.787 -1.1426 -0.2071  0.4063
 3434TIP3    H131861   0.082   3.745   0.809 -2.3654 -0.6824 -0.4453
 3434TIP3    H231862  -0.032   3.843   0.791 -1.0701  1.0386  0.4495
 3435TIP3   OH231863   0.140   6.127   0.169 -0.2673  0.4806  0.4001
 3435TIP3    H131864   0.121   6.201   0.111 -1.8111  1.3345  1.9030
 3435TIP3    H231865   0.200   6.163   0.235 -0.1687  0.0965  0.5201
 3436TIP3   OH231866   5.213   1.293   6.975  0.6016 -0.3533 -0.0414
 3436TIP3    H131867   5.163   1.373   6.961  0.5764 -0.1647  1.0153
 3436TIP3    H231868   5.148   1.223   6.972  0.4347 -0.2130  0.2655
 3437TIP3   OH231869   5.326   1.168   0.765  0.5503  0.3588 -0.3195
 3437TIP3    H131870   5.295   1.214   0.844  1.3641 -0.7757  0.6946
 3437TIP3    H231871   5.267   1.198   0.696 -0.5718  0.9374  0.8347
 3438TIP3   OH231872   2.956   3.528   0.979  0.0741  0.1634 -0.0178
 3438TIP3    H131873   3.014   3.457   0.953 -0.9973 -0.4926 -0.7133
 3438TIP3    H231874   3.005   3.577   1.044  1.8443  0.3380 -1.4312
 3439TIP3   OH231875   2.945   1.037   1.940  0.2920 -0.5823  0.5864
 3439TIP3    H131876   2.920   1.114   1.992 -0.7591 -0.9974  0.7170
 3439TIP3    H231877   2.864   1.010   1.897  1.4954  0.9649 -2.9748
 3440TIP3   OH231878   2.556   3.841   2.537 -0.0746  0.8230 -0.7544
 3440TIP3    H131879   2.556   3.745   2.535  0.4957  0.8285 -1.1934
 3440TIP3    H231880   2.620   3.866   2.471  0.4584  1.4982  0.0077
 3441TIP3   OH231881   0.336   5.739   6.927  0.2946 -0.4863  0.9690
 3441TIP3    H131882   0.381   5.670   6.879 -0.8565  0.0910 -1.0765
 3441TIP3    H231883   0.353   5.719   7.019  2.5688 -1.6869  0.3729
 3442TIP3   OH231884   6.816   5.631   8.027  0.3927  0.5271  0.7265
 3442TIP3    H131885   6.760   5.553   8.025 -1.1034  1.5473  0.3645
 3442TIP3    H231886   6.754   5.704   8.034  1.7195  1.7046  0.6159
 3443TIP3   OH231887   4.382   5.241   1.796 -0.1413  0.2047  0.1672
 3443TIP3    H131888   4.298   5.231   1.751  0.1781  0.1820 -0.4257
 3443TIP3    H231889   4.403   5.153   1.826  0.8087 -0.2505 -1.7348
 3444TIP3   OH231890   4.072   0.155   1.820 -0.2867 -0.2001  0.1900
 3444TIP3    H131891   4.107   0.123   1.903 -0.9113 -0.1254  0.4918
 3444TIP3    H231892   4.130   0.119   1.753  0.3247 -0.1225  0.6674
 3445TIP3   OH231893   3.357   3.241   8.087 -0.1774  0.4038  0.5225
 3445TIP3    H131894   3.432   3.215   8.139  0.4895  1.4208  0.1015
 3445TIP3    H231895   3.298   3.166   8.090  1.9129 -1.4356 -1.1808
 3446TIP3   OH231896   0.304   4.102   0.272 -0.5337 -0.2513  0.3549
 3446TIP3    H131897   0.379   4.114   0.330 -2.4602 -1.7327  3.4432
 3446TIP3    H231898   0.289   4.008   0.271 -1.3327 -0.1476 -1.6334
 3447TIP3   OH231899   0.810   6.318   8.047  0.3557 -0.7228  0.2428
 3447TIP3    H131900   0.759   6.382   7.998 -0.9484 -0.5744  1.7140
 3447TIP3    H231901   0.834   6.251   7.983 -0.2932  0.0399 -0.8137
 3448TIP3   OH231902   2.363   0.282   7.477 -0.3015 -0.0088  0.1696
 3448TIP3    H131903   2.443   0.316   7.518 -0.7146  0.2397  0.7890
 3448TIP3    H231904   2.346   0.342   7.404  0.7953 -0.8235 -0.8008
 3449TIP3   OH231905   1.346   4.272   1.873  0.0434 -0.2132  0.1438
 3449TIP3    H131906   1.302   4.350   1.841  0.0194  0.2120  1.1821
 3449TIP3    H231907   1.353   4.215   1.797 -1.1257  0.2562 -0.3281
 3450TIP3   OH231908   1.488   5.917   0.848 -0.5722 -0.9280  0.1469
 3450TIP3    H131909   1.478   5.834   0.895 -2.0311 -1.0300 -0.2858
 3450TIP3    H231910   1.420   5.915   0.781  0.2103  0.0709 -0.7080
 3451TIP3   OH231911   3.118   0.912   7.377 -0.1807 -0.2260 -0.3347
 3451TIP3    H131912   3.030   0.926   7.342  0.1235  1.1607 -0.6028
 3451TIP3    H231913   3.135   0.819   7.364 -1.3400 -0.3751 -0.8939
 3452TIP3   OH231914   1.027   3.418   1.695 -0.2865  0.3374  0.0764
 3452TIP3    H131915   1.029   3.360   1.771  1.9914 -0.6071 -0.6127
 3452TIP3    H231916   1.014   3.505   1.731 -3.9626 -0.4873  1.1384
 3453TIP3   OH231917   4.502   1.417   7.027 -0.1513  0.0963  0.2963
 3453TIP3    H131918   4.493   1.341   6.969 -0.6766  0.0672  0.4062
 3453TIP3    H231919   4.517   1.490   6.967 -1.2561  0.1545  0.0689
 3454TIP3   OH231920   0.942   5.608   1.227 -0.1701  0.8683  0.5436
 3454TIP3    H131921   1.034   5.587   1.240 -0.0840  0.6765 -0.3474
 3454TIP3    H231922   0.912   5.545   1.161 -0.6742  1.6052  0.0638
 3455TIP3   OH231923   6.330   3.248   2.542 -0.3874  0.7930 -0.7945
 3455TIP3    H131924   6.272   3.309   2.589 -0.9980  1.8141 -2.7706
 3455TIP3    H231925   6.418   3.279   2.562 -0.6170  0.9994 -0.0583
 3456TIP3   OH231926   3.115   5.284   7.193  0.3281  0.1829 -0.4280
 3456TIP3    H131927   3.194   5.230   7.191  0.0292 -0.3042 -2.8746
 3456TIP3    H231928   3.134   5.357   7.134 -0.2885  1.2428  0.6435
 3457TIP3   OH231929   4.573   2.286   0.596 -0.5616 -0.0675  0.2991
 3457TIP3    H131930   4.533   2.318   0.515  0.4302  1.7496  0.4668
 3457TIP3    H231931   4.580   2.364   0.652  1.4629 -0.6646  0.9827
 3458TIP3   OH231932   1.916   5.841   1.488 -0.3805 -0.3249  0.6977
 3458TIP3    H131933   1.832   5.831   1.533 -0.5040  0.0165  0.5419
 3458TIP3    H231934   1.926   5.935   1.474 -0.7791 -0.4763 -0.8217
 3459TIP3   OH231935   2.972   1.592   7.094  0.7166  0.0182 -0.5569
 3459TIP3    H131936   3.003   1.615   7.006  2.9745  0.3949  0.2943
 3459TIP3    H231937   2.900   1.530   7.078  0.3899  0.8456 -2.6707
 3460TIP3   OH231938   0.616   0.809   0.737 -0.2837 -0.2702 -0.1522
 3460TIP3    H131939   0.553   0.845   0.675 -2.3839 -0.8303  1.5338
 3460TIP3    H231940   0.676   0.757   0.683 -1.0313  0.5477 -1.8558
 3461TIP3   OH231941   0.673   0.218   8.097  0.3428 -0.3731 -0.0417
 3461TIP3    H131942   0.693   0.278   8.025 -1.7782  0.1137 -0.3164
 3461TIP3    H231943   0.726   0.248   8.170 -0.4280  1.6963 -0.2648
 3462TIP3   OH231944   3.065   4.192   1.001 -0.9259 -0.1579  0.3098
 3462TIP3    H131945   3.144   4.224   1.044 -0.1619  0.9181 -1.7647
 3462TIP3    H231946   3.091   4.108   0.962 -0.4035  0.7343 -1.3509
 3463TIP3   OH231947   3.759   3.502   7.218  0.0041  0.2202  0.0500
 3463TIP3    H131948   3.785   3.481   7.128  0.5913  1.7901 -0.1708
 3463TIP3    H231949   3.704   3.428   7.245  0.9887 -0.9857 -1.0824
 3464TIP3   OH231950   0.576   5.987   1.812 -0.4127  0.1209 -0.7764
 3464TIP3    H131951   0.627   5.912   1.783  0.8423 -0.2239  1.9806
 3464TIP3    H231952   0.572   6.045   1.736  2.0910 -0.9074 -1.7800
 3465TIP3   OH231953   3.156   1.376   6.881  0.2484  0.1801  0.0978
 3465TIP3    H131954   3.062   1.381   6.893 -0.1439  1.4847 -2.6583
 3465TIP3    H231955   3.172   1.289   6.845 -0.4718  1.1315 -2.7402
 3466TIP3   OH231956   5.879   4.675   1.342 -0.0208  0.0589  0.0354
 3466TIP3    H131957   5.839   4.588   1.348 -2.6393  1.0063 -1.8069
 3466TIP3    H231958   5.827   4.730   1.400 -0.6836  1.0966 -1.4977
 3467TIP3   OH231959   5.755   5.588   0.364 -0.3428 -0.0275 -0.5403
 3467TIP3    H131960   5.821   5.595   0.433  1.1520 -0.3606 -1.8784
 3467TIP3    H231961   5.702   5.512   0.389  1.5589 -1.5158 -0.8550
 3468TIP3   OH231962   3.745   1.405   0.961  0.4884  0.1453 -0.1701
 3468TIP3    H131963   3.828   1.415   1.008 -0.6187 -1.1357  2.2202
 3468TIP3    H231964   3.693   1.346   1.016 -2.1386  1.1284 -1.4302
 3469TIP3   OH231965   0.656   6.241   1.649  0.4747  0.1525 -0.3319
 3469TIP3    H131966   0.693   6.216   1.564  1.2400  0.1469 -0.0038
 3469TIP3    H231967   0.726   6.224   1.712  0.6376  2.0683  0.0618
 3470TIP3   OH231968   4.719   3.893   1.227 -0.0471  0.0169 -0.4756
 3470TIP3    H131969   4.736   3.899   1.133 -0.5194  1.1279 -0.5034
 3470TIP3    H231970   4.778   3.824   1.257  2.4559  1.7289 -1.0656
 3471TIP3   OH231971   2.336   2.913   1.887 -0.6548 -0.2176 -0.3617
 3471TIP3    H131972   2.334   2.818   1.899  0.9407 -0.1105  1.3682
 3471TIP3    H231973   2.411   2.942   1.940 -1.5022  2.0765 -0.2985
 3472TIP3   OH231974   1.184   6.568   8.156  0.0550 -0.0944  0.7862
 3472TIP3    H131975   1.121   6.617   8.210 -0.6116  2.1536 -1.7645
 3472TIP3    H231976   1.131   6.505   8.108  0.0754  0.2387  0.3140
 3473TIP3   OH231977   5.926   2.568   1.272 -0.7615 -0.4126  0.1250
 3473TIP3    H131978   5.961   2.505   1.335 -1.1774  0.3058  1.1026
 3473TIP3    H231979   5.834   2.576   1.295 -1.1558 -0.8311 -1.1913
 3474TIP3   OH231980   0.994   5.802   7.451 -0.3632 -0.1560  0.6307
 3474TIP3    H131981   0.925   5.804   7.384 -0.9763 -0.5022  1.2376
 3474TIP3    H231982   1.015   5.709   7.461  0.2229 -0.0502  0.4319
 3475TIP3   OH231983   6.228   4.835   8.297  0.2827  0.2561  0.3512
 3475TIP3    H131984   6.272   4.911   8.335  2.9164 -1.0173  0.0277
 3475TIP3    H231985   6.267   4.825   8.211 -1.1928 -0.5518 -0.2571
 3476TIP3   OH231986   5.973   4.276   1.572 -0.9756  0.2511  0.7345
 3476TIP3    H131987   5.953   4.183   1.576 -1.4354  0.3637  1.1413
 3476TIP3    H231988   5.936   4.306   1.489 -0.4742 -0.0056  0.4124
 3477TIP3   OH231989   4.450   3.337   8.185 -0.2877 -0.5063  0.9562
 3477TIP3    H131990   4.495   3.356   8.268 -1.7331 -1.9573  2.1265
 3477TIP3    H231991   4.517   3.352   8.118  1.5196 -1.1671  2.5232
 3478TIP3   OH231992   4.010   0.004   0.895 -0.6395 -0.5170  0.1371
 3478TIP3    H131993   4.010  -0.070   0.956 -0.1119 -2.4209 -2.0480
 3478TIP3    H231994   4.101   0.009   0.864 -1.0756 -0.2065 -1.1541
 3479TIP3   OH231995   0.399   3.722   1.320 -0.7055 -0.7519 -0.2560
 3479TIP3    H131996   0.431   3.783   1.253  0.9605 -1.0496  0.2254
 3479TIP3    H231997   0.357   3.651   1.270  0.2047 -0.8002 -0.9710
 3480TIP3   OH231998   5.422   0.696   8.031  0.2932  0.1153 -0.0116
 3480TIP3    H131999   5.328   0.695   8.013  0.4138 -1.8860 -0.8356
 3480TIP3    H232000   5.432   0.641   8.109  0.8312 -0.1499 -0.2636
 3481TIP3   OH232001   3.523   3.963   1.230  0.3448  0.1104  0.1806
 3481TIP3    H132002   3.583   3.959   1.305  0.2439 -0.2359  0.2440
 3481TIP3    H232003   3.547   3.887   1.177 -0.9350 -0.8162  0.8881
 3482TIP3   OH232004   4.223   1.588   1.187 -0.5896 -0.1851 -0.0116
 3482TIP3    H132005   4.164   1.658   1.216 -0.4577 -0.1179  0.1008
 3482TIP3    H232006   4.193   1.566   1.099  0.5927  1.4210 -0.8741
 3483TIP3   OH232007   0.822   3.823   0.703  0.0309 -0.0582  0.0728
 3483TIP3    H132008   0.767   3.900   0.719 -0.0388 -0.1538  0.3100
 3483TIP3    H232009   0.760   3.749   0.703  0.1757 -0.1810  0.4848
 3484TIP3   OH232010   1.620   6.749   0.129 -0.5621  0.1365 -0.1123
 3484TIP3    H132011   1.698   6.757   0.075 -1.1695 -0.8053 -1.1758
 3484TIP3    H232012   1.630   6.817   0.196  1.0027  0.2307 -0.4043
 3485TIP3   OH232013   5.898   6.599   1.668  0.3965 -0.3779 -0.0880
 3485TIP3    H132014   5.913   6.543   1.744  1.8267  0.9014  0.6322
 3485TIP3    H232015   5.848   6.673   1.702  1.3428  0.3748 -0.2658
 3486TIP3   OH232016   5.620   4.878   1.139  0.1096 -0.3327 -0.4844
 3486TIP3    H132017   5.689   4.824   1.101  0.2580 -0.8914  0.5493
 3486TIP3    H232018   5.545   4.864   1.081 -0.1786 -2.5074  0.3272
 3487TIP3   OH232019   1.148   0.844   6.990 -0.4702 -0.4071  0.0053
 3487TIP3    H132020   1.132   0.915   6.929 -0.5276 -0.1865  0.2759
 3487TIP3    H232021   1.237   0.859   7.022  0.3494 -1.6699 -1.5483
 3488TIP3   OH232022   5.062   2.181   3.057 -0.0206  0.2570  0.2476
 3488TIP3    H132023   5.030   2.154   3.143  0.3848 -0.7204  0.1011
 3488TIP3    H232024   5.153   2.151   3.054  0.0230  0.4298 -0.4542
 3489TIP3   OH232025   1.469   3.927   7.089  0.2747 -0.1215  0.2938
 3489TIP3    H132026   1.558   3.944   7.056 -0.1539  0.0695 -0.7853
 3489TIP3    H232027   1.422   4.009   7.075 -0.3344 -0.5213 -0.0277
 3490TIP3   OH232028   3.655   1.732   0.426 -0.1652 -0.3760 -0.0333
 3490TIP3    H132029   3.667   1.639   0.403 -2.0290 -0.6143 -0.1747
 3490TIP3    H232030   3.654   1.777   0.342  1.5648 -0.0668  0.0647
 3491TIP3   OH232031   2.433   1.737   7.356  0.2994 -0.0573  0.0802
 3491TIP3    H132032   2.425   1.820   7.308 -3.1883 -0.8814 -1.0829
 3491TIP3    H232033   2.516   1.700   7.328  0.4544  1.6023 -1.8394
 3492TIP3   OH232034   2.140   0.059   2.081  0.0617  0.4912  0.0827
 3492TIP3    H132035   2.104   0.000   2.147 -0.9274  0.8956 -0.0722
 3492TIP3    H232036   2.194   0.004   2.025  1.5640  0.2792  1.6780
 3493TIP3   OH232037   6.141   6.173   2.788 -0.7807 -0.2678  0.0674
 3493TIP3    H132038   6.159   6.257   2.747 -1.0369 -0.8656 -1.3449
 3493TIP3    H232039   6.216   6.158   2.846 -1.3832  1.5223  1.4127
 3494TIP3   OH232040   5.031   2.335   7.785 -0.0177 -0.6781  0.0912
 3494TIP3    H132041   5.059   2.420   7.751 -0.5495 -0.5048  0.0663
 3494TIP3    H232042   4.960   2.309   7.727 -1.1714 -0.2160  1.2352
 3495TIP3   OH232043   4.169   1.929   2.234 -0.1660 -0.1492  0.0286
 3495TIP3    H132044   4.090   1.978   2.207 -1.4725 -2.0156  0.2858
 3495TIP3    H232045   4.186   1.959   2.323  0.8076  1.9134 -0.7834
 3496TIP3   OH232046   4.536   6.418   7.958 -0.0258  0.0158  0.0153
 3496TIP3    H132047   4.442   6.415   7.941 -0.2333  0.3340  1.0060
 3496TIP3    H232048   4.564   6.327   7.959 -0.4368 -0.1108  0.2590
 3497TIP3   OH232049   1.612   6.796   7.801  0.2370 -0.0447  0.0040
 3497TIP3    H132050   1.547   6.737   7.839 -1.1551  0.8766 -0.8596
 3497TIP3    H232051   1.570   6.882   7.800  1.6054  0.6603 -0.2714
 3498TIP3   OH232052   5.504   5.923   7.574 -0.3692 -0.3259 -0.5505
 3498TIP3    H132053   5.451   5.943   7.650 -1.5771 -1.6148 -1.0090
 3498TIP3    H232054   5.448   5.941   7.499  0.1737 -0.7672 -1.0809
 3499TIP3   OH232055   2.976   2.899   7.716 -0.0519  0.2860  0.1785
 3499TIP3    H132056   3.042   2.901   7.647 -0.8897  1.9232 -0.6498
 3499TIP3    H232057   2.969   2.807   7.741  2.9864  0.1289  0.7783
 3500TIP3   OH232058   1.613   2.110   0.680 -0.0744 -0.2300  0.3681
 3500TIP3    H132059   1.523   2.086   0.702 -0.8809  0.8004 -1.5916
 3500TIP3    H232060   1.619   2.203   0.704  1.2252 -0.8150  2.5752
 3501TIP3   OH232061   4.853   0.202   0.651  0.5007 -0.1533  0.2522
 3501TIP3    H132062   4.906   0.201   0.572 -0.8076  0.3647 -0.6648
 3501TIP3    H232063   4.762   0.208   0.620 -0.0076  0.9372  1.7756
 3502TIP3   OH232064   4.165   1.262   0.326 -0.4840 -0.4415  0.5093
 3502TIP3    H132065   4.161   1.299   0.415  1.9328  1.0417  0.0942
 3502TIP3    H232066   4.221   1.322   0.278 -1.8930 -1.1066 -2.1282
 3503TIP3   OH232067   0.333   3.203   2.205 -0.4671  0.3012 -0.3465
 3503TIP3    H132068   0.393   3.247   2.266 -0.5326  0.0876 -0.1235
 3503TIP3    H232069   0.329   3.260   2.129  0.6710 -0.0774 -0.7203
 3504TIP3   OH232070   6.341   5.141   2.289  0.2553  0.4805  0.6029
 3504TIP3    H132071   6.406   5.152   2.359 -1.9675  2.0484  2.6050
 3504TIP3    H232072   6.277   5.210   2.306 -2.5796 -1.7179 -0.4782
 3505TIP3   OH232073   5.768   6.690   2.274 -0.7609 -0.4831  0.2138
 3505TIP3    H132074   5.843   6.722   2.323 -0.3695 -1.3180  0.1757
 3505TIP3    H232075   5.744   6.608   2.318 -0.3540 -1.2841 -1.0176
 3506TIP3   OH232076   6.340   2.866   2.732  0.4116  0.0900 -0.1566
 3506TIP3    H132077   6.255   2.877   2.775 -1.2106 -1.2354 -2.7784
 3506TIP3    H232078   6.390   2.811   2.791 -1.0744 -0.2771  0.8161
 3507TIP3   OH232079   2.753   4.387   0.034  0.1687  0.0059 -0.0017
 3507TIP3    H132080   2.736   4.480   0.046 -2.4610 -0.1168 -1.8826
 3507TIP3    H232081   2.739   4.372  -0.059 -2.5749 -2.7534  0.7059
 3508TIP3   OH232082   1.997   5.168   1.934 -0.6804 -0.0903  0.9059
 3508TIP3    H132083   1.947   5.091   1.905 -1.8125  1.4664 -1.6432
 3508TIP3    H232084   1.962   5.188   2.021 -1.7075 -1.3393  0.8058
 3509TIP3   OH232085   2.783   0.653   7.525  0.2077  0.1468 -0.3010
 3509TIP3    H132086   2.775   0.740   7.488  1.3588 -0.0336 -1.0480
 3509TIP3    H232087   2.741   0.595   7.461 -0.1600  0.1118 -0.0270
 3510TIP3   OH232088   3.856   6.034   8.506  0.8259  0.2423 -0.0381
 3510TIP3    H132089   3.765   6.029   8.474  1.4104 -1.4427 -1.6061
 3510TIP3    H232090   3.893   6.110   8.460  0.2563  0.9154  0.5786
 3511TIP3   OH232091   4.841   4.563   7.886 -0.2218  0.4768 -0.4760
 3511TIP3    H132092   4.916   4.613   7.854 -0.4789  0.1648 -1.6059
 3511TIP3    H232093   4.822   4.501   7.816 -1.0500  0.0236  0.1357
 3512TIP3   OH232094   1.615   1.166   8.127  0.0800 -0.1225 -0.3904
 3512TIP3    H132095   1.583   1.150   8.039  2.6578 -0.7847 -1.2786
 3512TIP3    H232096   1.692   1.109   8.136 -1.6246 -2.2061  3.2900
 3513TIP3   OH232097   2.234   6.302   0.462  0.1618  1.2365  0.1127
 3513TIP3    H132098   2.293   6.228   0.445 -1.0680 -0.4348  2.5524
 3513TIP3    H232099   2.285   6.379   0.438  1.7005 -0.3252 -2.0231
 3514TIP3   OH232100   4.672   5.823   2.272  0.1409  0.1086  0.5883
 3514TIP3    H132101   4.592   5.777   2.248  1.2732 -0.7901 -1.7415
 3514TIP3    H232102   4.643   5.894   2.329 -2.3812  0.2072 -0.7019
 3515TIP3   OH232103   0.812   2.739   7.028  0.0819  0.6274 -0.2204
 3515TIP3    H132104   0.813   2.645   7.006 -1.8000  0.9912 -2.1641
 3515TIP3    H232105   0.887   2.775   6.982  1.4453 -0.0234  1.3752
 3516TIP3   OH232106   1.832   0.077   7.870  0.4522  0.9958 -0.7330
 3516TIP3    H132107   1.786   0.106   7.949  3.3146 -0.9917  1.9136
 3516TIP3    H232108   1.788  -0.004   7.846 -0.8154  1.9121 -1.6588
 3517TIP3   OH232109   4.667   5.195   0.501  0.5851  0.6008  0.2484
 3517TIP3    H132110   4.717   5.150   0.433  2.1526 -0.5123  2.0560
 3517TIP3    H232111   4.650   5.128   0.567 -0.9414  1.6390  0.9724
 3518TIP3   OH232112   4.921   4.653   7.209  0.8097 -0.0827  0.1216
 3518TIP3    H132113   4.922   4.747   7.194  1.2066  0.3553  2.4631
 3518TIP3    H232114   4.905   4.644   7.303  1.5532 -2.3356  0.1022
 3519TIP3   OH232115   3.270   1.295   8.397  0.3269  0.2809  0.1585
 3519TIP3    H132116   3.192   1.262   8.443  0.5529 -0.6440 -0.0891
 3519TIP3    H232117   3.342   1.280   8.458  0.8933 -2.4785 -1.0188
 3520TIP3   OH232118   2.631   3.580   8.651  0.4922  0.1268  0.5013
 3520TIP3    H132119   2.626   3.634   8.571  0.0067  0.3129  0.6542
 3520TIP3    H232120   2.608   3.640   8.721  0.9327 -0.0350  0.7911
 3521TIP3   OH232121   5.015   0.990   2.104 -0.3047  0.0569  0.3863
 3521TIP3    H132122   4.931   0.987   2.060 -0.3136  1.8374  0.2408
 3521TIP3    H232123   4.994   1.006   2.196 -0.1364 -0.0749  0.4492
 3522TIP3   OH232124   4.077   5.727   8.161  0.0777 -0.2132 -0.4466
 3522TIP3    H132125   4.145   5.761   8.103 -0.4883  0.4363 -0.7489
 3522TIP3    H232126   4.123   5.668   8.221  1.1432  1.2225  0.2211
 3523TIP3   OH232127   5.469   6.491   2.076  0.3078 -0.1466  0.2355
 3523TIP3    H132128   5.483   6.417   2.135 -1.4612 -0.5950  0.1575
 3523TIP3    H232129   5.556   6.513   2.043  0.8465 -2.4117  0.0044
 3524TIP3   OH232130   1.346   0.018   0.974 -0.6426  0.7479  0.1132
 3524TIP3    H132131   1.298   0.053   1.048 -1.0113 -0.6089  0.5406
 3524TIP3    H232132   1.437   0.042   0.991 -0.7234  0.4178  1.0148
 3525TIP3   OH232133   4.248   5.060   0.760 -0.2393 -1.3313 -0.5742
 3525TIP3    H132134   4.322   5.060   0.820 -0.1290 -2.2672 -0.6991
 3525TIP3    H232135   4.220   5.152   0.756  1.2198 -0.8757 -0.9117
 3526TIP3   OH232136   6.074   6.844   1.462  0.1525  0.5723 -0.9148
 3526TIP3    H132137   6.097   6.776   1.525  1.0137  0.8351 -0.9362
 3526TIP3    H232138   5.991   6.880   1.495  0.0155 -0.0468 -0.5606
 3527TIP3   OH232139   2.522   6.599   1.011 -0.4866 -0.1568 -0.4290
 3527TIP3    H132140   2.605   6.632   1.046  0.5233 -0.9825 -1.9516
 3527TIP3    H232141   2.527   6.504   1.024 -2.0172 -0.0751  1.1159
 3528TIP3   OH232142   4.843   2.441   1.147 -0.0284  0.3222 -0.0344
 3528TIP3    H132143   4.839   2.407   1.058  0.8332  0.9096 -0.3163
 3528TIP3    H232144   4.888   2.372   1.196  0.5701  0.4963 -0.3239
 3529TIP3   OH232145   3.694   0.214   6.576 -0.1730 -0.3009  0.3325
 3529TIP3    H132146   3.671   0.168   6.657  0.5373 -1.2605  0.0170
 3529TIP3    H232147   3.788   0.196   6.565 -0.2180  0.0081 -0.5873
 3530TIP3   OH232148   4.552   1.406   2.851  0.2449  0.2888  0.6030
 3530TIP3    H132149   4.645   1.384   2.853  0.4152  0.6807 -1.2480
 3530TIP3    H232150   4.548   1.494   2.890  0.8916  0.8943 -0.6236
 3531TIP3   OH232151   2.103   0.106   8.384 -0.5719 -0.2015 -0.3827
 3531TIP3    H132152   2.132   0.173   8.321 -1.5262  0.6481  0.0571
 3531TIP3    H232153   2.171   0.039   8.380  0.3233  0.7082 -0.9741
 3532TIP3   OH232154   4.395   4.369   0.435 -0.8289  0.4338  0.0526
 3532TIP3    H132155   4.343   4.414   0.502 -2.3649  1.3673 -1.6871
 3532TIP3    H232156   4.341   4.293   0.411 -0.8872  0.7793 -0.9606
 3533TIP3   OH232157   4.551   0.543   2.133  0.2202 -0.0020  0.7070
 3533TIP3    H132158   4.499   0.619   2.107 -0.7438 -0.4442  1.3221
 3533TIP3    H232159   4.515   0.517   2.218  0.7824 -0.9348  0.6704
 3534TIP3   OH232160   1.547   4.705   8.179 -0.3705 -0.3316  0.3431
 3534TIP3    H132161   1.586   4.632   8.225  0.2383 -0.5802 -0.5411
 3534TIP3    H232162   1.617   4.739   8.123 -0.8412  0.4892  0.2326
 3535TIP3   OH232163   1.018   0.567   1.539  0.6488  0.2807 -0.3374
 3535TIP3    H132164   1.013   0.490   1.483  1.2720  0.2431 -0.3544
 3535TIP3    H232165   0.942   0.620   1.514  0.4241 -0.1511 -0.5853
 3536TIP3   OH232166   0.295   2.589   2.304 -0.0951 -0.4562 -0.9015
 3536TIP3    H132167   0.381   2.624   2.282 -0.3307 -0.1440 -1.3451
 3536TIP3    H232168   0.286   2.605   2.398 -0.2208  0.7402 -1.1003
 3537TIP3   OH232169   3.443   0.076   8.425 -0.2846  0.0420  0.1054
 3537TIP3    H132170   3.430   0.004   8.363 -2.9161 -0.6248  1.2797
 3537TIP3    H232171   3.399   0.150   8.384  2.4902  1.1397 -1.1404
 3538TIP3   OH232172   1.269   6.557   1.635  0.2255  0.2505  0.2158
 3538TIP3    H132173   1.296   6.649   1.633 -0.0409  0.3302  0.3117
 3538TIP3    H232174   1.234   6.544   1.723 -1.6511  0.6002 -0.4443
 3539TIP3   OH232175   6.631   6.516   7.041  0.0833 -0.1104  0.0953
 3539TIP3    H132176   6.578   6.485   7.114  0.0034 -0.0641  0.0572
 3539TIP3    H232177   6.702   6.452   7.034  0.0423 -0.1623  0.1573
 3540TIP3   OH232178   2.597   4.465   0.860 -0.2971 -0.6680 -0.3026
 3540TIP3    H132179   2.648   4.400   0.909  0.5829  0.7801  0.8098
 3540TIP3    H232180   2.507   4.454   0.892  0.1566 -0.1735  1.2047
 3541TIP3   OH232181   0.826   5.909   0.702 -0.2129  0.0093  0.2893
 3541TIP3    H132182   0.837   5.950   0.616  0.0048  0.8385  0.6918
 3541TIP3    H232183   0.913   5.915   0.743 -0.7316  1.3971  1.2950
 3542TIP3   OH232184   6.004   2.062   0.569 -0.5245  0.0693  0.1209
 3542TIP3    H132185   6.053   2.126   0.518  1.2640 -0.6328  0.8798
 3542TIP3    H232186   5.998   1.985   0.511  0.2451 -0.2254  0.4258
 3543TIP3   OH232187   1.974   6.159   8.339 -0.1573 -0.2855 -0.7164
 3543TIP3    H132188   1.999   6.215   8.265  0.1536  2.4648  1.3152
 3543TIP3    H232189   2.046   6.096   8.346  1.5348  1.5195 -0.7973
 3544TIP3   OH232190   2.028   2.392   0.354  0.0156 -0.3652  0.3017
 3544TIP3    H132191   2.112   2.376   0.398  0.3857 -1.1862 -0.6851
 3544TIP3    H232192   1.970   2.322   0.387 -0.2162  0.0428  0.7780
 3545TIP3   OH232193   2.057   1.555   0.544  0.1071  0.1712  0.6191
 3545TIP3    H132194   1.967   1.538   0.570  0.0030  0.9638  0.7770
 3545TIP3    H232195   2.054   1.637   0.495  0.4619 -0.7417 -1.0167
 3546TIP3   OH232196   6.613   1.621   8.226 -0.1392 -0.1438 -0.6401
 3546TIP3    H132197   6.705   1.605   8.205  0.3309  0.8398  0.5567
 3546TIP3    H232198   6.568   1.615   8.142  1.2098  0.6933 -1.4492
 3547TIP3   OH232199   3.018   2.686   8.433 -0.7358  0.2250 -0.1729
 3547TIP3    H132200   3.085   2.657   8.371 -0.4624 -0.8639  0.6045
 3547TIP3    H232201   3.063   2.745   8.493 -1.1016  1.6521 -1.2399
 3548TIP3   OH232202   1.609   2.799   7.465  0.4878 -0.1243 -0.3161
 3548TIP3    H132203   1.522   2.834   7.448  0.9390  1.1461 -0.0924
 3548TIP3    H232204   1.619   2.729   7.400 -0.1541  0.6418 -1.2731
 3549TIP3   OH232205   3.760   6.373   8.632 -0.2214  0.2351 -0.2630
 3549TIP3    H132206   3.808   6.338   8.556  0.5360 -1.2990  0.8740
 3549TIP3    H232207   3.675   6.330   8.628  0.3061 -0.9344  0.4897
 3550TIP3   OH232208   0.376   5.106   8.257  0.0430  0.1253 -0.1236
 3550TIP3    H132209   0.353   5.013   8.263  1.1049 -0.1779 -0.4982
 3550TIP3    H232210   0.342   5.134   8.173  1.0069 -0.3240 -0.6812
 3551TIP3   OH232211   5.905   6.603   8.483  0.0629  0.8788  0.2838
 3551TIP3    H132212   5.939   6.522   8.447  0.2598  0.8368  0.5544
 3551TIP3    H232213   5.906   6.665   8.410  0.8649  0.9177  0.3125
 3552TIP3   OH232214   4.218   4.747   0.471 -0.4348 -0.7929  0.8525
 3552TIP3    H132215   4.158   4.697   0.526 -2.1243 -1.3997 -1.4142
 3552TIP3    H232216   4.192   4.727   0.381  1.2164  1.3149 -0.2008
 3553TIP3   OH232217   2.993   1.174   0.823 -0.3983  0.0631 -0.6672
 3553TIP3    H132218   2.949   1.253   0.790 -1.3866 -0.0229  0.3948
 3553TIP3    H232219   3.010   1.194   0.915  1.1597 -0.2004 -0.8715
 3554TIP3   OH232220   3.743   0.556   0.751 -0.0985 -0.2315 -0.5679
 3554TIP3    H132221   3.700   0.564   0.666  0.1591 -0.8977 -0.7667
 3554TIP3    H232222   3.815   0.494   0.736  0.1349 -0.1230  0.0620
 3555TIP3   OH232223   2.681   0.516   6.617  0.3252  0.6022  0.1242
 3555TIP3    H132224   2.760   0.464   6.605 -1.5976 -2.3031 -1.0952
 3555TIP3    H232225   2.651   0.536   6.529 -0.4883  1.3724  0.5557
 3556TIP3   OH232226   4.650   4.278   0.333 -0.2040 -0.5658 -0.2779
 3556TIP3    H132227   4.570   4.273   0.386  0.1921 -1.5788  0.2599
 3556TIP3    H232228   4.718   4.306   0.395 -0.2045  0.7131 -0.8259
 3557TIP3   OH232229   5.913   2.596   2.457  0.1541  0.8519  0.1059
 3557TIP3    H132230   5.859   2.629   2.385 -0.5910  0.5388  0.5166
 3557TIP3    H232231   5.942   2.510   2.428  3.6246  2.4198 -1.7894
 3558TIP3   OH232232   5.461   3.019   7.160  0.2468  0.2501  0.3221
 3558TIP3    H132233   5.439   3.063   7.077  0.4468  2.1289  1.2123
 3558TIP3    H232234   5.399   3.056   7.223  2.1348  1.2883  1.6598
 3559TIP3   OH232235   5.650   1.868   0.724  0.0403  0.3772 -0.6335
 3559TIP3    H132236   5.688   1.924   0.792  0.2171  1.3635 -1.5165
 3559TIP3    H232237   5.720   1.805   0.703 -0.5976 -1.0501  1.2580
 3560TIP3   OH232238   3.398   2.561   0.254 -0.2222 -0.0179  0.5254
 3560TIP3    H132239   3.371   2.482   0.302  0.1659 -1.0774 -0.9162
 3560TIP3    H232240   3.351   2.555   0.170  1.1270  0.3456 -0.2969
 3561TIP3   OH232241   0.691   0.124   1.071  0.1372  0.2600 -0.0654
 3561TIP3    H132242   0.615   0.066   1.064  0.2365  0.1748 -0.5142
 3561TIP3    H232243   0.653   0.212   1.078 -0.0189  0.3814 -1.8954
 3562TIP3   OH232244   3.829   0.356   0.521  0.2552  0.1918  0.2883
 3562TIP3    H132245   3.763   0.412   0.479  0.5896  1.7795  1.7401
 3562TIP3    H232246   3.824   0.273   0.474 -1.3878  0.9205 -0.9306
 3563TIP3   OH232247   4.819   5.601   7.204 -0.0780 -0.4572  0.4943
 3563TIP3    H132248   4.836   5.508   7.215 -0.7936 -0.4569  1.7473
 3563TIP3    H232249   4.813   5.613   7.109  1.5258 -1.3879  0.2364
 3564TIP3   OH232250   0.140   4.197   1.969  0.1549  0.6098 -0.0114
 3564TIP3    H132251   0.092   4.120   1.940  0.9459 -0.3259  1.0683
 3564TIP3    H232252   0.231   4.181   1.942  0.2370  1.4255 -0.2634
 3565TIP3   OH232253   0.928   6.152   0.562 -0.3459 -0.5517  0.5881
 3565TIP3    H132254   0.836   6.172   0.579 -0.2887 -1.2908  1.8894
 3565TIP3    H232255   0.977   6.208   0.622  0.0538 -0.3172  0.0525
 3566TIP3   OH232256   1.705   1.788   7.555  0.4050 -0.1818  0.4446
 3566TIP3    H132257   1.746   1.837   7.484 -0.4841 -0.1461 -0.0542
 3566TIP3    H232258   1.760   1.709   7.565  1.1086  0.2938  0.4076
 3567TIP3   OH232259   6.578   2.117   1.987 -0.3152  0.0120  0.6255
 3567TIP3    H132260   6.621   2.068   2.058 -0.6485  0.0777  0.8744
 3567TIP3    H232261   6.496   2.148   2.025 -0.3173  0.3828  0.3314
 3568TIP3   OH232262   0.008   4.122   7.890 -0.1561  0.3064  0.0374
 3568TIP3    H132263   0.058   4.105   7.810 -0.4899 -0.0870 -0.0924
 3568TIP3    H232264   0.012   4.217   7.902 -1.0920  0.5093 -1.1018
 3569TIP3   OH232265   4.134   6.010   8.174 -0.3083 -0.2567  0.2670
 3569TIP3    H132266   4.083   5.955   8.115 -1.3423  0.3877  0.5376
 3569TIP3    H232267   4.139   5.961   8.256  0.4372 -0.7911 -0.0850
 3570TIP3   OH232268   3.149   2.217   2.257  0.1630  0.2015  0.5523
 3570TIP3    H132269   3.169   2.177   2.342 -1.3312 -0.7558  0.4848
 3570TIP3    H232270   3.076   2.276   2.275  0.0050  0.1853 -0.0269
 3571TIP3   OH232271   0.023   2.219   1.996  0.2853  0.3238 -0.1767
 3571TIP3    H132272   0.093   2.249   1.938  1.2376  2.2845  1.8293
 3571TIP3    H232273  -0.058   2.236   1.948  0.9985  2.6556 -0.6517
 3572TIP3   OH232274   2.758   4.836   8.357  0.2811  0.7713  0.3099
 3572TIP3    H132275   2.785   4.925   8.378 -1.6678  1.4468  0.1715
 3572TIP3    H232276   2.662   4.840   8.354  0.1865 -0.7529 -2.1254
 3573TIP3   OH232277   1.461   2.014   8.071  0.2922  0.0953  0.0419
 3573TIP3    H132278   1.471   2.109   8.064  1.3399 -0.0907 -1.8781
 3573TIP3    H232279   1.547   1.983   8.099 -0.0086 -0.3048  0.5271
 3574TIP3   OH232280   0.244   3.131   8.164 -0.4579  0.7201 -0.2164
 3574TIP3    H132281   0.215   3.221   8.180 -1.3324  0.3317  0.4892
 3574TIP3    H232282   0.232   3.118   8.069  0.5716  1.6331 -0.4864
 3575TIP3   OH232283   5.509   4.263   0.349 -0.3024 -0.1846 -0.0586
 3575TIP3    H132284   5.568   4.198   0.310 -1.1961  0.4310 -2.6599
 3575TIP3    H232285   5.560   4.344   0.351 -0.4543 -0.0738 -0.5675
 3576TIP3   OH232286   5.038   2.703   1.856  0.7236  0.5078  0.2347
 3576TIP3    H132287   4.945   2.718   1.836  0.6458 -0.1260  0.1045
 3576TIP3    H232288   5.047   2.729   1.948 -0.1502 -1.7375  1.0335
 3577TIP3   OH232289   5.993   2.819   1.237  0.2782  0.1578 -0.0502
 3577TIP3    H132290   6.078   2.800   1.198  0.6996  0.2055  0.8323
 3577TIP3    H232291   5.957   2.733   1.259  0.3997  0.1722  0.2054
 3578TIP3   OH232292   6.634   3.460   1.528 -0.0755 -0.1211 -0.1172
 3578TIP3    H132293   6.715   3.410   1.524  0.5812  0.8574  0.5412
 3578TIP3    H232294   6.565   3.394   1.521  0.7644 -0.9649 -0.7064
 3579TIP3   OH232295   5.931   2.302   0.888 -0.3076  0.5370 -0.8494
 3579TIP3    H132296   5.927   2.206   0.895  0.2654  0.4984 -0.9975
 3579TIP3    H232297   6.004   2.318   0.828  0.5350  1.1033  0.3050
 3580TIP3   OH232298   3.476   5.414   2.146  0.8356  0.5877  0.0912
 3580TIP3    H132299   3.395   5.465   2.137  0.0780 -0.7550 -1.0722
 3580TIP3    H232300   3.526   5.461   2.212 -0.6542  1.7655  0.4459
 3581TIP3   OH232301   2.472   0.514   8.108  0.4677  0.4152 -0.4311
 3581TIP3    H132302   2.551   0.486   8.155  0.5168 -1.4863 -1.5301
 3581TIP3    H232303   2.403   0.513   8.174  1.1273  0.9413  0.2828
 3582TIP3   OH232304   1.014   4.763   6.920  0.2773  0.0010 -0.0327
 3582TIP3    H132305   0.943   4.706   6.948  0.0357  0.4219  0.2173
 3582TIP3    H232306   1.061   4.712   6.854  0.6579 -0.8839  0.8844
 3583TIP3   OH232307   1.135   5.049   7.553 -0.6746 -0.3418 -0.4454
 3583TIP3    H132308   1.177   4.990   7.489  1.0804  0.1943  0.1519
 3583TIP3    H232309   1.150   5.007   7.638  0.9520  1.1046  0.0302
 3584TIP3   OH232310   1.511   2.139   0.374  0.3213  0.3969  0.1613
 3584TIP3    H132311   1.491   2.089   0.453 -0.0034 -1.4062 -0.9941
 3584TIP3    H232312   1.455   2.216   0.379 -0.6754 -0.3564  1.0612
 3585TIP3   OH232313   4.247   1.755   0.291  0.0234 -0.4431 -0.4682
 3585TIP3    H132314   4.309   1.746   0.218  2.1380  1.4898  0.9343
 3585TIP3    H232315   4.257   1.674   0.340  2.0127  0.0448  0.0429
 3586TIP3   OH232316   0.244   1.620   1.320 -0.2404 -0.3599  0.3553
 3586TIP3    H132317   0.157   1.633   1.285 -0.5174  1.2284  1.5128
 3586TIP3    H232318   0.300   1.610   1.243 -0.8972  2.3613 -0.5876
 3587TIP3   OH232319   3.627   2.267   7.555  0.1394  0.5340 -0.2734
 3587TIP3    H132320   3.665   2.348   7.590 -0.0044 -0.1052  1.4571
 3587TIP3    H232321   3.549   2.295   7.508  0.3578  1.4431 -0.1110
 3588TIP3   OH232322   1.163   5.677   7.884 -0.3456 -0.4446  0.0396
 3588TIP3    H132323   1.255   5.688   7.862 -0.4561  2.5536  0.6309
 3588TIP3    H232324   1.142   5.752   7.940 -3.3114 -0.5747 -0.7002
 3589TIP3   OH232325   0.970   2.701   0.039 -0.3480  0.5073  0.4177
 3589TIP3    H132326   0.890   2.710   0.090 -0.2115  1.5069  0.4752
 3589TIP3    H232327   0.961   2.763  -0.032 -0.1923 -0.3191 -0.3470
 3590TIP3   OH232328   6.259   2.742   1.712 -0.3658  0.0574  0.2168
 3590TIP3    H132329   6.189   2.779   1.767  0.1645 -0.8571  1.5445
 3590TIP3    H232330   6.325   2.812   1.707 -0.3639  0.1056  0.8533
 3591TIP3   OH232331   0.141   2.690   1.830 -0.3248  0.5693 -0.0143
 3591TIP3    H132332   0.075   2.705   1.897  0.3210 -1.9917  1.3347
 3591TIP3    H232333   0.091   2.663   1.753 -0.9281 -0.3182  0.6710
 3592TIP3   OH232334   5.619   3.892   1.941  0.1746  0.1001  0.1001
 3592TIP3    H132335   5.581   3.806   1.923 -0.7083  0.7848 -1.4445
 3592TIP3    H232336   5.576   3.920   2.022  1.3648 -1.3837  1.3222
 3593TIP3   OH232337   1.626   3.573   0.855 -0.0819  0.1927  0.4287
 3593TIP3    H132338   1.543   3.530   0.875 -0.7769  1.7288  0.9605
 3593TIP3    H232339   1.672   3.577   0.939 -0.6677  1.7759  0.7069
 3594TIP3   OH232340   3.688   1.108   2.573 -0.7767  0.6404  0.1207
 3594TIP3    H132341   3.725   1.193   2.547  0.0791  0.2929  0.1751
 3594TIP3    H232342   3.761   1.047   2.565 -1.2975 -0.0317  0.4287
 3595TIP3   OH232343   3.554   6.412   0.316  0.0443  0.1006  0.3201
 3595TIP3    H132344   3.520   6.425   0.404  0.9714 -0.0911  0.7180
 3595TIP3    H232345   3.648   6.426   0.324  0.1265  0.2223 -0.6709
 3596TIP3   OH232346   2.819   2.081   2.757 -0.0812 -0.0708  0.4553
 3596TIP3    H132347   2.748   2.018   2.741 -0.6230  0.1893  1.6885
 3596TIP3    H232348   2.777   2.166   2.749  0.0730  0.0846  1.2524
 3597TIP3   OH232349   6.602   2.676   1.361  0.0381  0.4482 -0.3654
 3597TIP3    H132350   6.605   2.593   1.409  2.1075  1.6220  1.7234
 3597TIP3    H232351   6.600   2.650   1.269 -0.6855 -1.8904  0.2203
 3598TIP3   OH232352   3.028   4.155   7.298 -0.2925 -0.2672  0.0898
 3598TIP3    H132353   2.980   4.120   7.223  0.7205 -1.5161 -0.0302
 3598TIP3    H232354   2.979   4.125   7.375 -1.3074  0.9772 -0.0498
 3599TIP3   OH232355   1.759   6.661   8.395 -0.4207 -0.2809 -0.6202
 3599TIP3    H132356   1.691   6.708   8.347 -0.4402 -0.1425 -0.4596
 3599TIP3    H232357   1.811   6.618   8.328  0.0754  0.6161 -0.8294
 3600TIP3   OH232358   1.894   1.576   7.646  0.1200 -0.7714 -0.1916
 3600TIP3    H132359   1.848   1.508   7.696 -1.1769 -0.6972 -1.2088
 3600TIP3    H232360   1.981   1.580   7.685 -0.4890 -1.4665  1.3316
 3601TIP3   OH232361   5.193   0.422   2.692  0.3092 -0.2270  1.0392
 3601TIP3    H132362   5.200   0.486   2.621 -0.4961 -0.7310  0.4877
 3601TIP3    H232363   5.263   0.360   2.676  0.9486  0.3725  1.4425
 3602TIP3   OH232364   6.835   0.074   7.708  0.2258  0.1912 -0.4449
 3602TIP3    H132365   6.889  -0.003   7.725 -1.0175 -0.6287 -0.0806
 3602TIP3    H232366   6.802   0.061   7.619 -2.5440 -1.3914  0.6697
 3603TIP3   OH232367   0.567   3.009   7.584 -0.6584  0.8613 -0.1054
 3603TIP3    H132368   0.661   2.996   7.597 -0.8924 -2.2987 -0.6850
 3603TIP3    H232369   0.555   3.004   7.489 -1.4134  1.1907 -0.0286
 3604TIP3   OH232370   1.601   2.584   0.895  0.5370  0.5190 -0.1446
 3604TIP3    H132371   1.639   2.592   0.983  2.3012  3.5556 -1.0362
 3604TIP3    H232372   1.513   2.620   0.904 -0.0043 -0.9396  0.7098
 3605TIP3   OH232373   4.984   1.688   7.328 -0.5402 -0.1535  0.1356
 3605TIP3    H132374   5.075   1.714   7.344 -0.8407  1.5813 -0.6902
 3605TIP3    H232375   4.954   1.654   7.412  0.8883 -0.8738  0.3885
 3606TIP3   OH232376   5.993   2.671   6.697  0.2443  0.1005 -0.1878
 3606TIP3    H132377   5.956   2.583   6.692  0.8121 -0.2756  1.5387
 3606TIP3    H232378   5.922   2.724   6.734  0.6109 -0.1114  0.8434
 3607TIP3   OH232379   3.207   5.177   8.370 -0.0237 -0.2016  0.2922
 3607TIP3    H132380   3.303   5.171   8.372 -0.0226 -0.0762  1.1084
 3607TIP3    H232381   3.190   5.271   8.361 -0.0787 -0.3339 -1.2711
 3608TIP3   OH232382   5.211   3.149   1.282 -0.0101 -0.1321 -0.2999
 3608TIP3    H132383   5.118   3.144   1.301  0.2437  1.0819  1.5706
 3608TIP3    H232384   5.222   3.233   1.237  0.0905 -0.6542 -1.2729
 3609TIP3   OH232385   0.655   0.112   1.515 -0.0827 -0.0575 -0.5272
 3609TIP3    H132386   0.573   0.064   1.510 -0.8201  1.0912  0.0886
 3609TIP3    H232387   0.635   0.189   1.568  1.3586  0.3179 -0.4796
 3610TIP3   OH232388   1.793   0.434   1.427  0.1977 -0.1205 -0.0127
 3610TIP3    H132389   1.880   0.394   1.432 -0.3698 -1.3838  0.1444
 3610TIP3    H232390   1.742   0.372   1.374 -1.3752 -0.8714  2.2296
 3611TIP3   OH232391   6.305   2.932   7.442  0.4560 -0.2148 -0.5058
 3611TIP3    H132392   6.389   2.913   7.400  1.1353  1.4435  0.0187
 3611TIP3    H232393   6.326   2.939   7.535 -0.5090 -0.9833 -0.2166
 3612TIP3   OH232394   0.460   4.669   8.121  0.1666  0.1146  0.2130
 3612TIP3    H132395   0.451   4.647   8.028 -0.5502  0.6832  0.1381
 3612TIP3    H232396   0.553   4.658   8.139  0.4327  0.6519 -0.7517
 3613TIP3   OH232397   0.428   6.188   1.282 -0.7467 -0.2094 -0.0692
 3613TIP3    H132398   0.520   6.163   1.272 -0.7301 -0.1363 -0.0934
 3613TIP3    H232399   0.410   6.175   1.375 -1.2902 -2.2361 -0.4093
 3614TIP3   OH232400   0.483   6.626   0.588 -0.0402 -0.5527  0.4164
 3614TIP3    H132401   0.505   6.540   0.625 -0.6076 -0.7991  0.1878
 3614TIP3    H232402   0.503   6.618   0.495 -1.4595 -0.9198  0.1211
 3615TIP3   OH232403   4.488   0.601   0.676 -0.1458 -0.4493  0.1734
 3615TIP3    H132404   4.496   0.562   0.763 -0.6983  0.7975  0.8092
 3615TIP3    H232405   4.554   0.669   0.674 -1.0967  0.4964  0.1730
 3616TIP3   OH232406   1.350   1.338   1.707 -0.2492 -0.4438 -0.1619
 3616TIP3    H132407   1.271   1.284   1.704  0.6188 -1.7586 -0.5957
 3616TIP3    H232408   1.360   1.371   1.617 -1.9980  2.3932  0.5623
 3617TIP3   OH232409   5.134   4.763   8.602  0.2925  0.0575 -0.0587
 3617TIP3    H132410   5.086   4.680   8.605 -0.2456  0.2700 -1.7688
 3617TIP3    H232411   5.091   4.813   8.533  0.6440  1.7608  0.8996
 3618TIP3   OH232412   6.619   2.187   7.576 -0.0458 -0.5375  0.5442
 3618TIP3    H132413   6.667   2.268   7.593 -1.3932  0.6322 -0.9480
 3618TIP3    H232414   6.588   2.195   7.486 -1.9896 -1.7694  1.0344
 3619TIP3   OH232415   6.603   0.818   0.672 -0.5552  0.3350  0.0633
 3619TIP3    H132416   6.631   0.877   0.602 -0.3118 -0.0686 -0.1803
 3619TIP3    H232417   6.666   0.833   0.742  1.1208 -1.5127 -0.9603
 3620TIP3   OH232418   5.697   1.776   0.355  0.3682 -0.3149  0.7922
 3620TIP3    H132419   5.630   1.717   0.390 -0.3961  1.1826  1.9823
 3620TIP3    H232420   5.652   1.860   0.345  1.1639 -0.0980 -1.7484
 3621TIP3   OH232421   4.201   1.949   0.987  0.2861 -0.3695  0.2182
 3621TIP3    H132422   4.212   1.919   0.896  0.5625  1.8595 -0.5366
 3621TIP3    H232423   4.290   1.955   1.021  0.6876  3.6400 -1.1055
 3622TIP3   OH232424   6.383   5.369   7.679 -0.6285 -0.1981  0.0603
 3622TIP3    H132425   6.367   5.390   7.771 -1.3184  0.3896 -0.1875
 3622TIP3    H232426   6.404   5.275   7.680 -0.2806 -0.1237  0.8527
 3623TIP3   OH232427   3.476   3.595   8.561 -0.4302 -0.9875  0.6990
 3623TIP3    H132428   3.401   3.581   8.503  0.3598  0.9766 -0.9017
 3623TIP3    H232429   3.546   3.625   8.504  0.5564  0.5362  2.5835
 3624TIP3   OH232430   2.365   5.127   0.736  0.1708  0.5109 -0.2492
 3624TIP3    H132431   2.350   5.065   0.664  0.8270 -0.6653  0.5853
 3624TIP3    H232432   2.309   5.094   0.807 -1.5019  2.4193 -0.6023
 3625TIP3   OH232433   2.779   6.859   0.098 -0.3793  0.0447 -0.7071
 3625TIP3    H132434   2.848   6.854   0.033  0.9537  1.1771  0.5575
 3625TIP3    H232435   2.813   6.811   0.174 -0.1352  2.1600  0.5982
 3626TIP3   OH232436   6.834   3.128   7.742 -0.2141 -0.1032  0.7753
 3626TIP3    H132437   6.857   3.062   7.808 -0.7824 -1.0745  0.0387
 3626TIP3    H232438   6.810   3.206   7.792  1.6065 -0.0527  1.6451
 3627TIP3   OH232439   3.016   2.828   2.343 -0.6207 -0.0569  0.6159
 3627TIP3    H132440   3.048   2.855   2.429  0.1264  2.6325 -0.4122
 3627TIP3    H232441   2.967   2.903   2.310  1.0160 -0.0703 -2.2230
 3628TIP3   OH232442   4.659   2.085   7.804 -0.2689 -0.3378 -0.0436
 3628TIP3    H132443   4.584   2.030   7.783  0.9877 -2.4825  0.7490
 3628TIP3    H232444   4.698   2.044   7.881  3.0615 -0.7579 -1.7677
 3629TIP3   OH232445   0.321   0.966   8.599  0.9238  0.0378  0.0243
 3629TIP3    H132446   0.397   1.016   8.570  2.0058 -0.1433  2.3507
 3629TIP3    H232447   0.352   0.876   8.607  0.8200  0.1347  2.0061
 3630TIP3   OH232448   4.354   3.037   7.608  0.4178  0.4722 -0.0870
 3630TIP3    H132449   4.379   2.951   7.641  2.5425  0.5867 -1.2506
 3630TIP3    H232450   4.416   3.098   7.649 -0.7028  1.4035  0.2924
 3631TIP3   OH232451   6.088   3.152   0.880  0.2353  0.2098 -0.3689
 3631TIP3    H132452   6.062   3.225   0.824  1.8399  1.1509  0.0504
 3631TIP3    H232453   6.127   3.088   0.820 -3.0096 -1.3397 -1.0463
 3632TIP3   OH232454   5.152   3.650   7.996 -0.1796  0.1870 -0.1150
 3632TIP3    H132455   5.167   3.742   8.015  1.1512  0.1218 -0.7484
 3632TIP3    H232456   5.153   3.644   7.901 -0.3793 -0.4657 -0.0849
 3633TIP3   OH232457   4.883   1.493   1.836 -0.5058 -0.5322 -0.5329
 3633TIP3    H132458   4.907   1.412   1.880 -0.4256  0.7614  1.9970
 3633TIP3    H232459   4.964   1.523   1.793 -0.4460 -1.5500 -1.1527
 3634TIP3   OH232460   3.835   2.699   0.508  0.2351 -0.4264  0.1691
 3634TIP3    H132461   3.769   2.678   0.441  0.1305  0.7775 -0.1230
 3634TIP3    H232462   3.813   2.788   0.536  2.4875  0.5210 -0.8537
 3635TIP3   OH232463   2.991   6.085   7.213 -0.0326 -0.2217 -0.0855
 3635TIP3    H132464   2.908   6.082   7.164  0.5333  1.7716 -1.2865
 3635TIP3    H232465   3.031   6.167   7.186  1.3562 -0.1011  2.1204
 3636TIP3   OH232466   1.459   2.463   1.632  0.4453 -0.2144  0.1971
 3636TIP3    H132467   1.480   2.461   1.725  0.9601 -3.0053  0.1141
 3636TIP3    H232468   1.409   2.382   1.617  0.6414  0.0157 -2.0069
 3637TIP3   OH232469   1.968   2.479   7.371 -0.2950 -0.1330 -0.0084
 3637TIP3    H132470   2.019   2.538   7.316 -0.8023 -0.1114 -0.4539
 3637TIP3    H232471   2.019   2.398   7.372 -1.2843 -0.8549 -2.2257
 3638TIP3   OH232472   4.535   3.966   0.116 -0.0995  0.2206  0.0971
 3638TIP3    H132473   4.521   3.937   0.026  1.3303  0.1845 -0.1387
 3638TIP3    H232474   4.576   3.891   0.159 -2.2164 -0.3434  1.2432
 3639TIP3   OH232475   4.088   4.365   0.228  0.2067 -0.1996  0.2201
 3639TIP3    H132476   4.133   4.362   0.313  1.2578 -1.4414 -0.3538
 3639TIP3    H232477   4.037   4.285   0.225 -0.9535  0.5143  0.2422
 3640TIP3   OH232478   4.931   3.801   7.771  0.1491 -0.1668 -0.1290
 3640TIP3    H132479   4.916   3.710   7.792 -0.3859  0.0032  0.2291
 3640TIP3    H232480   4.922   3.806   7.676  0.2271 -0.4883 -0.1524
 3641TIP3   OH232481   5.135   3.279   8.061 -0.4629  0.5083 -0.6356
 3641TIP3    H132482   5.132   3.370   8.090  0.7657 -0.2981  2.4259
 3641TIP3    H232483   5.047   3.245   8.080 -0.6926  0.8535 -1.0701
 3642TIP3   OH232484   1.786   1.853   1.349  0.4103  0.2662  0.2961
 3642TIP3    H132485   1.870   1.895   1.330  1.2313 -1.5796 -0.3970
 3642TIP3    H232486   1.724   1.893   1.288  0.8823  1.3079  0.4887
 3643TIP3   OH232487   6.463   6.257   1.255 -0.0844  0.1292  0.1407
 3643TIP3    H132488   6.541   6.240   1.202  0.0602  0.5069  0.2255
 3643TIP3    H232489   6.495   6.250   1.346  0.0572  1.1594  0.1800
 3644TIP3   OH232490   0.888   2.337   2.075 -0.3430  0.2340  0.3494
 3644TIP3    H132491   0.873   2.292   2.158  0.0583 -1.0527 -0.2447
 3644TIP3    H232492   0.955   2.284   2.031 -1.1344  0.4062 -1.1257
 3645TIP3   OH232493   6.111   3.723   0.341 -0.2826  0.2679 -0.5434
 3645TIP3    H132494   6.130   3.737   0.249 -1.2890  2.7262 -0.4490
 3645TIP3    H232495   6.190   3.751   0.387 -0.1036 -0.1133 -0.6180
 3646TIP3   OH232496   5.531   0.358   6.970 -0.3736 -0.0954  0.3713
 3646TIP3    H132497   5.563   0.393   6.887 -0.9791  1.5126  0.7925
 3646TIP3    H232498   5.558   0.266   6.968 -2.3664 -0.7890 -2.6739
 3647TIP3   OH232499   5.260   4.029   6.760 -0.0574  0.1060 -0.1233
 3647TIP3    H132500   5.308   4.088   6.819  1.1619 -0.5761 -0.4079
 3647TIP3    H232501   5.271   3.942   6.799 -0.3352 -0.1788 -0.6718
 3648TIP3   OH232502   4.934   6.662   2.710  0.1102  0.2529 -0.1351
 3648TIP3    H132503   4.877   6.737   2.693 -0.1160  0.3216  0.8626
 3648TIP3    H232504   4.917   6.638   2.801  0.8151 -0.4694 -0.1736
 3649TIP3   OH232505   0.116   1.462   1.752  0.3272 -0.3948 -0.4220
 3649TIP3    H132506   0.177   1.506   1.693  2.0071  0.1662  1.6063
 3649TIP3    H232507   0.127   1.369   1.733  0.9416 -0.2253 -0.9169
 3650TIP3   OH232508   0.453   5.557   7.444 -1.1809  0.5790  0.7236
 3650TIP3    H132509   0.530   5.551   7.388 -0.4221  1.6764  1.6226
 3650TIP3    H232510   0.379   5.544   7.384 -0.3157 -1.7037  0.0313
 3651TIP3   OH232511   3.791   5.858   1.432 -0.3069 -0.9165  0.0549
 3651TIP3    H132512   3.870   5.820   1.470 -0.7319 -1.6219  0.2608
 3651TIP3    H232513   3.804   5.851   1.337 -0.2334 -1.2776  0.0885
 3652TIP3   OH232514   2.905   0.047   1.880 -0.4183 -0.0600  0.2582
 3652TIP3    H132515   2.991   0.066   1.844 -0.1204 -0.7914  0.5676
 3652TIP3    H232516   2.885   0.121   1.937  0.1859 -0.0919  0.5092
 3653TIP3   OH232517   6.054   3.582   1.638 -0.1836  0.4653 -0.1193
 3653TIP3    H132518   6.043   3.672   1.606 -0.2174  0.1199 -1.1264
 3653TIP3    H232519   6.131   3.586   1.695  1.1577  0.7383 -1.8617
 3654TIP3   OH232520   4.705   1.935   1.977 -0.0015  0.1428 -0.3590
 3654TIP3    H132521   4.731   1.905   2.064 -2.5398 -1.2210  0.0145
 3654TIP3    H232522   4.764   1.889   1.918  0.2045 -0.7934  0.5368
 3655TIP3   OH232523   2.632   1.363   8.535  0.1043 -0.1223 -0.3055
 3655TIP3    H132524   2.593   1.393   8.452 -0.0628 -0.6152 -0.4074
 3655TIP3    H232525   2.558   1.333   8.587  0.2907 -0.5204 -0.2713
 3656TIP3   OH232526   3.590   5.060   7.058  0.5996  0.6023  0.9248
 3656TIP3    H132527   3.540   5.122   7.004  0.9434 -0.1466 -0.2941
 3656TIP3    H232528   3.681   5.077   7.035  0.6851 -0.5409  0.3279
 3657TIP3   OH232529   2.869   4.331   1.288  0.0299  0.0383 -0.1245
 3657TIP3    H132530   2.921   4.391   1.340  2.8410 -1.2738 -1.2364
 3657TIP3    H232531   2.835   4.384   1.216 -1.6991  1.2665  1.4956
 3658TIP3   OH232532   3.407   1.055   1.627 -0.5706 -0.8548 -0.5396
 3658TIP3    H132533   3.354   1.037   1.705  0.0369 -1.5452 -0.2683
 3658TIP3    H232534   3.405   1.150   1.619 -1.2510 -0.8218 -0.1135
 3659TIP3   OH232535   0.324   6.785   1.455  0.2202 -0.9330 -0.1238
 3659TIP3    H132536   0.253   6.731   1.422 -1.2518  0.8298 -0.0043
 3659TIP3    H232537   0.343   6.751   1.542 -2.1211 -0.0355  0.8115
 3660TIP3   OH232538   2.125   4.909   1.418  0.3609  0.3337 -0.1937
 3660TIP3    H132539   2.130   4.937   1.509 -1.0424  1.6792 -0.5025
 3660TIP3    H232540   2.165   4.980   1.368 -0.2024  0.2758 -0.7399
 3661TIP3   OH232541   3.442   0.760   0.182  0.2414  0.4242  0.0025
 3661TIP3    H132542   3.354   0.781   0.150  0.1177  0.5147  0.3922
 3661TIP3    H232543   3.499   0.773   0.106 -0.2845 -1.2650 -0.7261
 3662TIP3   OH232544   3.096   1.099   2.625  0.0812 -0.3650  0.0279
 3662TIP3    H132545   3.049   1.182   2.639 -0.4824 -0.8979  1.5979
 3662TIP3    H232546   3.123   1.073   2.713  0.9951 -1.4386 -0.5474
 3663TIP3   OH232547   0.018   2.874   2.423  0.1938 -0.0064  0.7204
 3663TIP3    H132548   0.026   2.782   2.447 -0.6329 -0.5418 -0.9043
 3663TIP3    H232549   0.106   2.910   2.434  0.4711 -0.9105  1.6112
 3664TIP3   OH232550   3.973   5.305   1.167  0.8097  0.2585 -0.0508
 3664TIP3    H132551   3.965   5.380   1.109  1.4450 -0.2420 -0.8024
 3664TIP3    H232552   3.996   5.344   1.252  1.1070  0.9161 -0.4222
 3665TIP3   OH232553   3.673   3.352   1.099 -0.2545 -0.5787  0.2921
 3665TIP3    H132554   3.733   3.356   1.174  0.5326  0.5641 -0.3623
 3665TIP3    H232555   3.597   3.403   1.126  0.3719  0.5165  0.0409
 3666TIP3   OH232556   5.762   3.316   0.808  0.1646  0.0363  0.1487
 3666TIP3    H132557   5.713   3.294   0.887 -0.8072  0.0052 -0.4470
 3666TIP3    H232558   5.785   3.232   0.770 -0.7603  0.0268 -0.4295
 3667TIP3   OH232559   5.403   5.182   8.376 -0.1214 -0.2178 -0.2977
 3667TIP3    H132560   5.479   5.184   8.318 -0.3076 -0.8545 -0.5727
 3667TIP3    H232561   5.329   5.162   8.318 -0.4373 -0.0116  0.0295
 3668TIP3   OH232562   6.621   2.740   3.002  0.2067 -0.1637  0.7540
 3668TIP3    H132563   6.651   2.701   3.084  0.9808 -0.5900  0.2808
 3668TIP3    H232564   6.529   2.713   2.994  0.3293 -0.7003  1.1326
 3669TIP3   OH232565   4.344   0.467   8.600  0.2714  0.2590 -0.0583
 3669TIP3    H132566   4.295   0.390   8.572  0.2241 -0.1782  1.1429
 3669TIP3    H232567   4.429   0.432   8.628  0.6077  0.7723 -0.4323
 3670TIP3   OH232568   4.116   4.243   7.554  0.2153  0.1386 -0.0507
 3670TIP3    H132569   4.143   4.167   7.605  0.4264  0.6006  0.5337
 3670TIP3    H232570   4.195   4.298   7.550  0.3649 -0.1298 -1.3320
 3671TIP3   OH232571   2.083   2.825   7.984 -0.1767  0.2195  0.0394
 3671TIP3    H132572   2.031   2.894   7.942  0.6507  1.8659  1.5943
 3671TIP3    H232573   2.111   2.770   7.911 -1.9835  0.7102 -1.1159
 3672TIP3   OH232574   2.987   0.810   7.851  0.1052  0.6924  0.2370
 3672TIP3    H132575   2.975   0.732   7.906  1.5793 -0.4797 -1.0188
 3672TIP3    H232576   3.049   0.864   7.900  1.7809 -0.5626 -0.3905
 3673TIP3   OH232577   6.212   3.615   7.448 -0.0189 -0.3718 -0.0579
 3673TIP3    H132578   6.118   3.624   7.461 -0.1107 -1.9044  0.5283
 3673TIP3    H232579   6.228   3.655   7.363 -1.1189  0.3070  0.0321
 3674TIP3   OH232580   2.709   5.073   1.334  0.2980  0.1844  0.0790
 3674TIP3    H132581   2.722   5.167   1.324 -0.3650  0.2543 -0.1691
 3674TIP3    H232582   2.797   5.038   1.347  0.7620  0.5965 -1.7099
 3675TIP3   OH232583   5.376   3.117   6.917  0.5273  0.1951 -0.0698
 3675TIP3    H132584   5.290   3.079   6.933 -0.5267  1.4801 -2.2094
 3675TIP3    H232585   5.371   3.205   6.955  0.9306  0.2390 -0.1102
 3676TIP3   OH232586   4.339   0.038   1.764 -0.5469 -0.1823  0.2870
 3676TIP3    H132587   4.405  -0.009   1.712  1.1090  0.7619  1.4319
 3676TIP3    H232588   4.292  -0.032   1.810 -1.1412 -0.9430 -1.3976
 3677TIP3   OH232589   4.699   1.973   2.362 -0.1620 -0.0559  0.3771
 3677TIP3    H132590   4.617   1.923   2.359  0.5993 -1.3324 -0.6614
 3677TIP3    H232591   4.749   1.933   2.434  1.2263 -2.2351 -1.6158
 3678TIP3   OH232592   0.670   5.277   8.435  0.1114  0.1698  0.0917
 3678TIP3    H132593   0.703   5.223   8.363  0.6214  0.8275 -0.1753
 3678TIP3    H232594   0.675   5.366   8.402 -2.3791  0.2867 -0.1390
 3679TIP3   OH232595   3.939   6.163   6.865  0.3137 -0.2673 -0.5344
 3679TIP3    H132596   3.970   6.174   6.955  0.1201 -1.7966 -0.2453
 3679TIP3    H232597   3.911   6.250   6.838  1.5401  0.4657  0.4362
 3680TIP3   OH232598   1.658   0.115   2.348  0.2749 -0.2984  0.0084
 3680TIP3    H132599   1.719   0.120   2.275  0.1050  0.4342 -0.0881
 3680TIP3    H232600   1.572   0.105   2.308 -0.0264  1.8735  0.0270
 3681TIP3   OH232601   2.890   3.700   0.140 -0.4060 -0.2183 -0.8188
 3681TIP3    H132602   2.799   3.715   0.167 -1.0958  0.4421 -3.1800
 3681TIP3    H232603   2.916   3.784   0.101  2.0126  0.3045  1.6697
 3682TIP3   OH232604   5.186   3.953   7.639 -0.6697 -0.4103  0.1179
 3682TIP3    H132605   5.119   3.964   7.706  0.2094 -0.3836  1.0212
 3682TIP3    H232606   5.243   3.884   7.673  1.5403  1.6407  0.9159
 3683TIP3   OH232607   4.773   4.039   0.310  0.0439 -0.4018  0.0788
 3683TIP3    H132608   4.750   4.122   0.267  2.9214  0.4067 -0.1536
 3683TIP3    H232609   4.693   3.988   0.308 -1.0631  1.1887 -2.5802
 3684TIP3   OH232610   1.793   1.565   0.625  0.5083 -0.2853 -0.0220
 3684TIP3    H132611   1.794   1.476   0.659  0.1571  0.4679  2.1209
 3684TIP3    H232612   1.815   1.620   0.701  1.8698  1.3928 -1.5268
 3685TIP3   OH232613   0.516   1.285   8.262 -0.4169  0.5379  0.2526
 3685TIP3    H132614   0.508   1.380   8.273  0.5715  0.7236 -0.4653
 3685TIP3    H232615   0.563   1.275   8.179 -0.5265 -0.5848  0.3164
 3686TIP3   OH232616   4.817   0.207   1.938  0.5280 -0.3388  0.0553
 3686TIP3    H132617   4.913   0.209   1.941  0.5003 -0.0453  0.9233
 3686TIP3    H232618   4.797   0.196   1.845  1.3804  1.1219 -0.3466
 3687TIP3   OH232619   0.221   3.706   1.941 -0.9552 -0.0365 -0.5223
 3687TIP3    H132620   0.169   3.783   1.920 -0.0783  0.8504  0.4183
 3687TIP3    H232621   0.288   3.738   2.003 -1.0526 -1.6909  0.5150
 3688TIP3   OH232622   3.976   1.974   7.574  0.5196  0.4314  0.0469
 3688TIP3    H132623   3.995   2.051   7.627  0.6150  0.6813 -0.3442
 3688TIP3    H232624   3.888   1.990   7.539  1.2643  1.2550 -1.5529
 3689TIP3   OH232625   0.954   2.727   0.668  0.1353  0.0700  0.3987
 3689TIP3    H132626   0.869   2.754   0.633  0.9518  1.5386 -0.5285
 3689TIP3    H232627   1.018   2.762   0.606  1.4821  0.1293  1.7741
 3690TIP3   OH232628   6.137   4.892   7.200 -0.4016  0.3161  0.1441
 3690TIP3    H132629   6.043   4.876   7.204 -0.6076  1.2657 -0.5577
 3690TIP3    H232630   6.145   4.987   7.207  0.4725  0.2856 -0.3673
 3691TIP3   OH232631   0.018   2.963   7.945 -0.3950 -0.1070  0.8532
 3691TIP3    H132632   0.039   2.996   8.032 -1.8716  0.2165  1.1111
 3691TIP3    H232633  -0.078   2.957   7.944 -0.5312  1.5232 -1.3272
 3692TIP3   OH232634   4.953   1.281   8.219  0.0870 -0.0780 -0.6535
 3692TIP3    H132635   4.911   1.204   8.255  0.1275 -0.0390 -0.5211
 3692TIP3    H232636   5.021   1.303   8.283  0.3536 -0.1827 -0.8982
 3693TIP3   OH232637   3.122   0.302   1.921 -0.0840  0.5196  0.0790
 3693TIP3    H132638   3.090   0.388   1.947 -1.5821 -0.0663  0.2665
 3693TIP3    H232639   3.120   0.250   2.001 -1.0241 -0.2149 -0.4019
 3694TIP3   OH232640   1.535   0.319   0.092 -0.1131  0.2282  0.1360
 3694TIP3    H132641   1.443   0.347   0.090 -0.5528 -1.1349 -1.0235
 3694TIP3    H232642   1.582   0.387   0.044 -0.1730  1.9008  2.3098
 3695TIP3   OH232643   6.135   4.237   8.188  0.4883 -0.6630 -0.0070
 3695TIP3    H132644   6.078   4.160   8.198  0.2277 -0.5401 -0.5197
 3695TIP3    H232645   6.091   4.306   8.238 -0.3076 -0.3141 -1.1573
 3696TIP3   OH232646   3.080   1.755   1.415 -0.1205  0.7006  0.6690
 3696TIP3    H132647   3.071   1.714   1.329 -0.9526 -0.9886  1.5185
 3696TIP3    H232648   3.056   1.847   1.401  0.4864  0.6323 -1.0305
 3697TIP3   OH232649   1.002   0.273   7.670 -0.0789 -0.0833  0.5126
 3697TIP3    H132650   0.926   0.305   7.621  0.0786  0.8734  0.8772
 3697TIP3    H232651   1.056   0.350   7.684  1.8797 -1.0251 -1.3035
 3698TIP3   OH232652   5.655   2.997   1.201 -0.3260  0.5865 -0.0703
 3698TIP3    H132653   5.635   2.918   1.151  0.7240  0.4360 -0.2734
 3698TIP3    H232654   5.749   3.011   1.187 -0.5781  2.1028 -0.3655
 3699TIP3   OH232655   5.417   3.654   1.967  0.2675 -0.2398 -0.4468
 3699TIP3    H132656   5.354   3.613   2.027 -0.3151  1.3922  0.1259
 3699TIP3    H232657   5.362   3.704   1.906  0.9459 -0.2436 -1.0690
 3700TIP3   OH232658   5.758   2.069   2.275 -0.4110 -0.4478 -0.1280
 3700TIP3    H132659   5.774   2.055   2.182 -2.4396 -0.3358 -0.5338
 3700TIP3    H232660   5.767   2.163   2.287  1.5486 -0.6348  0.1825
 3701TIP3   OH232661   0.725   1.051   8.372 -0.2137 -0.2011 -0.1900
 3701TIP3    H132662   0.802   1.052   8.429 -0.2869 -1.0097 -0.0638
 3701TIP3    H232663   0.681   1.134   8.389  1.4898  1.0211 -1.4566
 3702TIP3   OH232664   5.623   3.512   1.538  0.4562 -0.2314  0.0981
 3702TIP3    H132665   5.611   3.451   1.611 -3.6466  0.7797  0.5187
 3702TIP3    H232666   5.595   3.463   1.461 -2.6727  0.8241  0.4117
 3703TIP3   OH232667   2.004   2.940   0.810 -0.3635 -0.1166 -0.2733
 3703TIP3    H132668   2.061   2.894   0.747  1.2447  1.4456 -0.0270
 3703TIP3    H232669   1.972   3.016   0.761 -2.8627 -1.2894 -0.6190
 3704TIP3   OH232670   3.584   1.194   1.049 -0.6240  0.3155 -0.0049
 3704TIP3    H132671   3.558   1.106   1.020 -1.9301  1.0075 -1.0775
 3704TIP3    H232672   3.503   1.231   1.085 -0.7031  1.8310 -1.5903
 3705TIP3   OH232673   4.566   3.329   8.654 -0.0449  0.0208  0.2543
 3705TIP3    H132674   4.537   3.370   8.735  1.2955  0.9763  0.2710
 3705TIP3    H232675   4.556   3.235   8.669 -0.7573  0.2229  1.1335
 3706TIP3   OH232676   1.731   0.601   1.222  0.5686 -0.6419  0.0863
 3706TIP3    H132677   1.681   0.676   1.256  0.9830 -0.0881 -0.4831
 3706TIP3    H232678   1.734   0.539   1.294  1.5929  0.5795  1.1497
 3707TIP3   OH232679   1.031   5.698   0.515 -0.1282 -0.0066 -0.4962
 3707TIP3    H132680   0.970   5.675   0.585  0.0716 -0.5781 -0.4997
 3707TIP3    H232681   1.056   5.614   0.477 -0.3217  0.2983 -1.3325
 3708TIP3   OH232682   0.354   3.045   7.327 -0.3634 -0.0486 -0.5657
 3708TIP3    H132683   0.382   3.135   7.345  0.4629 -0.0787 -1.6208
 3708TIP3    H232684   0.404   3.019   7.250 -0.8568 -1.2976 -0.4891
 3709TIP3   OH232685   3.591   1.684   7.385 -0.5326 -0.2847 -0.1730
 3709TIP3    H132686   3.531   1.657   7.315 -1.0622 -0.4164  0.3330
 3709TIP3    H232687   3.675   1.694   7.340 -0.8620 -0.3704 -0.8352
 3710TIP3   OH232688   1.881   3.636   8.653  0.3827 -0.0485  0.1404
 3710TIP3    H132689   1.967   3.623   8.613  0.6408 -0.3195  0.7658
 3710TIP3    H232690   1.895   3.616   8.745  0.1463  2.0500  0.6702
 3711TIP3   OH232691   4.994   3.510   1.855 -0.2343 -0.2543 -0.2471
 3711TIP3    H132692   4.947   3.431   1.879 -2.6818  1.1005 -0.3029
 3711TIP3    H232693   5.004   3.558   1.937  0.5511 -0.2296 -0.3426
 3712TIP3   OH232694   4.576   5.243   7.536 -0.1133 -0.4728 -0.2624
 3712TIP3    H132695   4.598   5.214   7.448  1.0510  0.3829 -0.2775
 3712TIP3    H232696   4.642   5.308   7.557 -1.7245  1.0631  0.3496
 3713TIP3   OH232697   2.222   4.688   6.711  0.4648 -0.2582 -0.2054
 3713TIP3    H132698   2.280   4.738   6.653  2.7456  0.3151  2.3993
 3713TIP3    H232699   2.159   4.754   6.743  1.1288  0.1303  0.3227
 3714TIP3   OH232700   5.581   0.065   2.590  0.2037 -0.0296 -0.2120
 3714TIP3    H132701   5.577   0.029   2.501 -0.0397  2.8964 -1.5155
 3714TIP3    H232702   5.675   0.077   2.606  0.3007 -1.3259  0.3209
 3715TIP3   OH232703   4.788   2.861   2.345  0.0633  0.2740 -0.0186
 3715TIP3    H132704   4.765   2.789   2.286  1.5868 -1.0518  0.8996
 3715TIP3    H232705   4.839   2.819   2.414  0.6597  2.2024  0.7744
 3716TIP3   OH232706   5.466   3.607   1.140 -0.0188  0.2631  0.4593
 3716TIP3    H132707   5.535   3.643   1.084 -0.2395  1.7567  1.1101
 3716TIP3    H232708   5.450   3.675   1.205 -1.9149 -0.1688  0.4935
 3717TIP3   OH232709   0.393   1.970   1.431 -0.4961  1.1393 -0.2437
 3717TIP3    H132710   0.333   1.990   1.504 -0.8784  0.4535 -0.3606
 3717TIP3    H232711   0.449   2.047   1.425  0.1505  0.8465  1.3823
 3718TIP3   OH232712   2.100   0.749   0.984  0.1018 -0.8027 -0.5110
 3718TIP3    H132713   2.069   0.810   0.918  0.5095 -1.2494 -1.1191
 3718TIP3    H232714   2.191   0.773   0.999  0.0022 -0.6776 -0.0772
 3719TIP3   OH232715   3.461   5.765   6.788  0.7237  0.2006  0.6455
 3719TIP3    H132716   3.390   5.789   6.728 -0.1190 -0.7354  1.2418
 3719TIP3    H232717   3.501   5.687   6.748  1.2423  0.5514  0.4639
 3720TIP3   OH232718   2.440   4.333   1.201 -0.3824  0.3202  0.2515
 3720TIP3    H132719   2.422   4.384   1.122 -2.1403  1.4433  1.2944
 3720TIP3    H232720   2.433   4.397   1.273  1.1020 -0.6668  1.3468
 3721TIP3   OH232721   2.002   0.355   0.615  0.1339  0.1370 -0.7097
 3721TIP3    H132722   2.052   0.419   0.665  1.8542 -1.7512  0.0897
 3721TIP3    H232723   1.911   0.372   0.639  0.5701  2.0072 -0.2374
 3722TIP3   OH232724   5.983   0.615   2.242  0.5364 -0.2205  0.4021
 3722TIP3    H132725   5.895   0.580   2.255  0.9068 -1.7789 -1.0219
 3722TIP3    H232726   5.969   0.708   2.223 -0.7564 -0.3462  0.6521
 3723TIP3   OH232727   5.831   4.071   0.768  0.1416  0.4108 -0.3064
 3723TIP3    H132728   5.841   4.054   0.675  1.1001  0.8687 -0.2995
 3723TIP3    H232729   5.912   4.116   0.793 -1.1411  2.5363  0.2270
 3724TIP3   OH232730   5.182   3.508   0.574  0.5134  0.4575 -0.2325
 3724TIP3    H132731   5.129   3.582   0.546 -2.5497 -1.7431 -0.6893
 3724TIP3    H232732   5.173   3.506   0.669 -1.4655 -0.6359 -0.3831
 3725TIP3   OH232733   4.550   5.450   8.455  0.0234  0.6516  0.1106
 3725TIP3    H132734   4.566   5.443   8.549  0.2607 -0.2955  0.0094
 3725TIP3    H232735   4.631   5.418   8.415  0.2848  1.9207 -0.4312
 3726TIP3   OH232736   6.787   2.742   7.456  0.2368  0.1384  0.4162
 3726TIP3    H132737   6.770   2.735   7.362 -0.3562  1.9246  0.3423
 3726TIP3    H232738   6.877   2.775   7.461  0.5678 -0.7642  0.5133
 3727TIP3   OH232739   1.402   3.680   2.595 -0.7812 -0.2623  0.3991
 3727TIP3    H132740   1.471   3.623   2.628 -1.0160  0.7537  2.8568
 3727TIP3    H232741   1.424   3.767   2.630 -3.6116 -0.0232  1.8542
 3728TIP3   OH232742   4.393   0.634   8.261  0.4132 -0.5459 -0.5831
 3728TIP3    H132743   4.303   0.619   8.289  0.2113 -1.3185 -1.6206
 3728TIP3    H232744   4.391   0.631   8.166  1.7276 -1.8081 -0.6144
 3729TIP3   OH232745   0.982   5.727   2.106  0.4663  0.3717 -0.8541
 3729TIP3    H132746   0.986   5.641   2.147 -0.5984  0.4424 -0.5626
 3729TIP3    H232747   0.944   5.784   2.173 -0.1519  0.7524 -1.5082
 3730TIP3   OH232748   2.105   0.995   0.853  0.0530  0.1390 -0.6632
 3730TIP3    H132749   2.181   1.029   0.806 -0.1770  0.6930 -0.6424
 3730TIP3    H232750   2.046   1.070   0.861 -1.1779 -0.6256 -2.0220
 3731TIP3   OH232751   3.558   0.048   7.963  0.1206  0.0314 -0.1061
 3731TIP3    H132752   3.615   0.125   7.954  0.4033 -0.2781 -0.9827
 3731TIP3    H232753   3.592  -0.015   7.899  0.1423 -0.9897  0.8758
 3732TIP3   OH232754   0.520   2.003   7.956  0.5927  0.4914 -0.1645
 3732TIP3    H132755   0.573   2.072   7.997  0.4043  0.4420  0.1684
 3732TIP3    H232756   0.435   2.044   7.940 -0.2116 -0.2070  1.9066
 3733TIP3   OH232757   1.625   5.534   7.499 -0.0005  0.4652 -0.0148
 3733TIP3    H132758   1.609   5.509   7.408 -0.9456  1.6361 -0.1965
 3733TIP3    H232759   1.718   5.519   7.512  0.0910  0.0233 -1.0952
 3734TIP3   OH232760   2.330   5.923   0.002 -0.3900  0.2806  0.3711
 3734TIP3    H132761   2.305   5.834  -0.021 -0.2610  0.1755  0.6383
 3734TIP3    H232762   2.256   5.956   0.053 -0.0866  0.0403  0.9825
 3735TIP3   OH232763   0.585   5.747   8.395  0.1357 -0.6742  0.0273
 3735TIP3    H132764   0.516   5.778   8.337 -0.8987 -1.2773  0.9040
 3735TIP3    H232765   0.634   5.825   8.419 -2.7838  0.5527  2.7102
 3736TIP3   OH232766   1.061   3.217   7.541 -0.5493 -0.7386  0.5362
 3736TIP3    H132767   0.965   3.218   7.550 -0.7511  0.6863 -1.1310
 3736TIP3    H232768   1.077   3.267   7.461  1.6177 -0.7574  0.9140
 3737TIP3   OH232769   1.288   5.576   0.990 -0.2203 -0.1913  0.1199
 3737TIP3    H132770   1.272   5.490   1.029 -2.3295  0.7294  1.4788
 3737TIP3    H232771   1.208   5.596   0.942  1.4722 -0.3033 -2.9865
 3738TIP3   OH232772   6.379   4.763   1.308  0.2395  0.2554 -0.5675
 3738TIP3    H132773   6.297   4.724   1.279  0.5804  1.2281 -3.1198
 3738TIP3    H232774   6.448   4.708   1.270  0.8122 -0.3085  1.1930
 3739TIP3   OH232775   1.596   5.396   0.128 -0.4174 -0.1236 -0.6132
 3739TIP3    H132776   1.568   5.475   0.083 -1.2809 -0.2572 -0.3236
 3739TIP3    H232777   1.523   5.335   0.119  0.2568 -0.9184 -0.8800
 3740TIP3   OH232778   4.213   5.360   6.642 -0.3920 -0.1155 -0.2416
 3740TIP3    H132779   4.131   5.360   6.691  0.9239  0.4294  2.1071
 3740TIP3    H232780   4.212   5.277   6.594 -1.5204 -0.9852  1.1815
 3741TIP3   OH232781   6.645   6.125   8.399  0.1597 -0.0181 -0.0324
 3741TIP3    H132782   6.613   6.067   8.469  2.2374  1.5736  2.4455
 3741TIP3    H232783   6.567   6.159   8.357 -1.2486 -0.1824  2.3051
 3742TIP3   OH232784   3.380   0.232   7.076 -0.4957  0.5040 -0.0995
 3742TIP3    H132785   3.291   0.206   7.055 -0.7998  0.2747  1.3852
 3742TIP3    H232786   3.397   0.196   7.163  0.9733  0.7160 -0.2615
 3743TIP3   OH232787   3.156   2.728   7.366 -0.7526 -0.5258  0.8386
 3743TIP3    H132788   3.106   2.808   7.349  2.4114  1.9118  2.0664
 3743TIP3    H232789   3.194   2.706   7.281 -1.7343 -0.8760  0.4682
 3744TIP3   OH232790   1.413   2.123   1.042  0.7391 -0.1208  0.3306
 3744TIP3    H132791   1.416   2.201   1.097  1.5580  0.2008 -0.1522
 3744TIP3    H232792   1.348   2.142   0.975 -0.1925 -0.4753  1.1035
 3745TIP3   OH232793   0.340   0.274   2.321  0.0461  0.1632  0.1535
 3745TIP3    H132794   0.427   0.296   2.353 -0.2016  2.1381 -0.4004
 3745TIP3    H232795   0.302   0.219   2.389  2.1748 -1.8916 -0.1949
 3746TIP3   OH232796   5.799   5.088   7.865 -0.8582 -0.4952 -0.1203
 3746TIP3    H132797   5.877   5.032   7.861 -1.0257 -0.7437  0.0585
 3746TIP3    H232798   5.736   5.038   7.917 -1.8203 -1.1346 -1.8109
 3747TIP3   OH232799   2.427   0.264   1.304 -0.0015  1.1428  0.0407
 3747TIP3    H132800   2.481   0.337   1.335 -0.5197  2.1288 -1.2981
 3747TIP3    H232801   2.473   0.232   1.226 -1.3707  2.0624 -1.1734
 3748TIP3   OH232802   4.330   4.951   8.111 -0.1946  0.0445  0.8265
 3748TIP3    H132803   4.261   5.017   8.103  0.7697  0.9301 -0.8416
 3748TIP3    H232804   4.295   4.874   8.066 -0.5452  0.1081  0.9919
 3749TIP3   OH232805   6.852   4.896   7.561  0.0734  0.3303 -0.7249
 3749TIP3    H132806   6.855   4.966   7.496  4.1181  0.0676 -1.0830
 3749TIP3    H232807   6.838   4.817   7.510  1.9554  0.2704 -1.2393
 3750TIP3   OH232808   3.377   0.020   1.173  0.2600 -0.2446 -0.8153
 3750TIP3    H132809   3.316  -0.052   1.156  0.0800  0.0182 -1.3180
 3750TIP3    H232810   3.362   0.044   1.264 -0.7438  0.1408 -1.0674
 3751TIP3   OH232811   3.344   0.297   0.413  0.1612 -0.0339 -0.1555
 3751TIP3    H132812   3.369   0.387   0.390 -2.0366  0.3295 -1.3696
 3751TIP3    H232813   3.395   0.242   0.353  1.5805  0.3392  0.6487
 3752TIP3   OH232814   0.797   3.452   2.370  0.1901  0.4338  0.1342
 3752TIP3    H132815   0.785   3.532   2.420 -0.8708 -0.0272  0.6472
 3752TIP3    H232816   0.871   3.408   2.412  0.5447  0.9664  0.0745
 3753TIP3   OH232817   2.595   4.857   7.028 -0.0840 -0.3955  0.6657
 3753TIP3    H132818   2.672   4.815   7.066  0.5093  0.3911  0.3639
 3753TIP3    H232819   2.627   4.897   6.947 -0.8857 -0.3332  0.3717
 3754TIP3   OH232820   0.747   6.260   7.031 -0.8242 -0.0313  0.0355
 3754TIP3    H132821   0.681   6.324   7.058  1.3469  1.6670  1.6528
 3754TIP3    H232822   0.748   6.195   7.101 -1.8630 -0.9925 -0.7998
 3755TIP3   OH232823   4.759   2.483   7.520  0.0716  0.5493  0.0168
 3755TIP3    H132824   4.768   2.547   7.450 -0.9668 -0.1132 -0.7614
 3755TIP3    H232825   4.746   2.399   7.474  0.4991 -0.0781  1.0028
 3756TIP3   OH232826   1.910   0.123   2.688  0.0049 -0.3012  0.0365
 3756TIP3    H132827   1.884   0.188   2.622 -1.6175  0.5428  1.4318
 3756TIP3    H232828   1.980   0.166   2.737  0.6883 -0.6358 -0.6179
 3757TIP3   OH232829   3.269   4.557   8.473  0.3639  0.1118 -0.5532
 3757TIP3    H132830   3.302   4.510   8.549  1.0327 -0.7553 -1.3574
 3757TIP3    H232831   3.192   4.605   8.505  2.1141  1.8911  1.2895
 3758TIP3   OH232832   0.915   2.899   2.177  0.0841 -0.2745  0.0477
 3758TIP3    H132833   0.998   2.896   2.225 -1.0230 -1.6834  2.0019
 3758TIP3    H232834   0.848   2.884   2.243 -1.6493 -0.8110 -1.7275
 3759TIP3   OH232835   5.668   3.210   7.946  0.3118 -0.0967 -0.0169
 3759TIP3    H132836   5.681   3.146   7.875 -0.8379  0.1939 -0.5115
 3759TIP3    H232837   5.594   3.175   7.995  0.6015  0.1212  0.5817
 3760TIP3   OH232838   0.186   2.235   7.771 -0.9696 -0.2649  0.0577
 3760TIP3    H132839   0.183   2.186   7.853 -1.6182  1.6106  1.2267
 3760TIP3    H232840   0.279   2.239   7.750 -0.7855 -0.7542  0.7063
 3761TIP3   OH232841   2.528   5.820   8.135 -0.0090  0.5746  0.0932
 3761TIP3    H132842   2.498   5.752   8.075 -0.0555  0.8429 -0.1860
 3761TIP3    H232843   2.549   5.772   8.216 -0.8774  0.3366  0.1870
 3762TIP3   OH232844   0.369   0.246   7.987 -1.2708 -0.0854  0.0901
 3762TIP3    H132845   0.323   0.212   8.064 -0.2957 -2.5084 -0.2874
 3762TIP3    H232846   0.323   0.205   7.913 -0.0919 -0.5635 -0.4000
 3763TIP3   OH232847   2.976   4.773   0.211  0.1042  0.2346 -0.1988
 3763TIP3    H132848   2.989   4.690   0.257 -2.0063  0.3431  0.7032
 3763TIP3    H232849   2.960   4.837   0.281 -0.9095  0.8503 -0.9694
 3764TIP3   OH232850   4.965   4.856   2.052  0.3429  0.4304  0.3781
 3764TIP3    H132851   5.012   4.854   2.135  2.3291 -0.2512 -0.7092
 3764TIP3    H232852   4.979   4.769   2.014 -0.9953  0.5404 -0.4382
 3765TIP3   OH232853   5.347   5.276   7.886  0.2418  0.1344 -0.0444
 3765TIP3    H132854   5.286   5.275   7.813  1.6690 -1.1738 -1.2983
 3765TIP3    H232855   5.376   5.367   7.894 -0.3457  0.3841 -0.7448
 3766TIP3   OH232856   3.646   1.058   2.151  0.3928  0.1920  0.6483
 3766TIP3    H132857   3.653   1.048   2.056  0.7371  1.6177  0.5051
 3766TIP3    H232858   3.578   1.125   2.163  0.6865  0.3677  1.3834
 3767TIP3   OH232859   5.151   4.939   7.707 -0.0245 -0.2491  0.4853
 3767TIP3    H132860   5.224   4.986   7.666  0.5713  0.6708  2.5114
 3767TIP3    H232861   5.075   4.995   7.692 -0.0260 -0.4373 -0.2507
 3768TIP3   OH232862   1.751   4.764   2.281  0.0901  0.2276  0.6788
 3768TIP3    H132863   1.764   4.754   2.375  1.3361  2.3626  0.7879
 3768TIP3    H232864   1.692   4.839   2.273 -3.7014 -2.5321 -0.2172
 3769TIP3   OH232865   0.894   1.278   7.600 -0.6724  0.9789  0.0219
 3769TIP3    H132866   0.809   1.321   7.615 -0.8049  0.3186  1.3436
 3769TIP3    H232867   0.875   1.184   7.611 -0.0267  0.7065 -1.0175
 3770TIP3   OH232868   1.554   1.517   0.837  0.4525 -0.3874 -0.4033
 3770TIP3    H132869   1.552   1.476   0.751 -0.0749  0.0290 -0.5953
 3770TIP3    H232870   1.535   1.609   0.820 -0.2036 -0.4002  0.2121
 3771TIP3   OH232871   5.626   0.701   0.433  0.4338  0.3818  0.8176
 3771TIP3    H132872   5.647   0.608   0.433 -0.8197  0.0554  2.0075
 3771TIP3    H232873   5.612   0.722   0.526  1.0280  1.8376  0.6029
 3772TIP3   OH232874   4.099   4.659   8.187 -0.2318  0.1163  0.3828
 3772TIP3    H132875   4.064   4.586   8.137  0.8892 -0.9129  1.0410
 3772TIP3    H232876   4.044   4.734   8.162 -0.6868 -0.6843 -1.1660
 3773TIP3   OH232877   3.934   0.843   0.651  0.1355  0.2443  0.5063
 3773TIP3    H132878   3.953   0.920   0.597 -0.7019  0.7611  0.9312
 3773TIP3    H232879   3.839   0.843   0.659 -0.1835 -2.3242 -1.6735
 3774TIP3   OH232880   4.662   0.187   7.822  0.2352  0.1270 -0.1837
 3774TIP3    H132881   4.663   0.277   7.789  0.8436  0.1460 -0.1303
 3774TIP3    H232882   4.588   0.146   7.779 -1.1331  1.1373  1.0915
 3775TIP3   OH232883   4.412   2.986   0.428  0.1036 -0.5735  0.4504
 3775TIP3    H132884   4.443   2.969   0.339  0.4605  0.6180  0.3297
 3775TIP3    H232885   4.421   2.902   0.473  1.7864 -0.7132 -0.0941
 3776TIP3   OH232886   6.197   6.005   1.437  0.0258  0.8795 -0.4571
 3776TIP3    H132887   6.229   5.921   1.403 -0.6325  1.8302 -3.8540
 3776TIP3    H232888   6.269   6.038   1.491  0.3060 -1.7766  0.9533
 3777TIP3   OH232889   6.373   2.792   2.032  0.4174  0.0266  0.1825
 3777TIP3    H132890   6.291   2.827   1.997 -0.3726  0.0316  1.9385
 3777TIP3    H232891   6.365   2.697   2.022  0.7565  0.0916 -0.7860
 3778TIP3   OH232892   0.406   0.940   8.037 -0.0443  1.0751  0.0497
 3778TIP3    H132893   0.464   0.871   8.068 -0.7750 -0.2705 -1.4810
 3778TIP3    H232894   0.344   0.897   7.978 -0.7770  2.9545 -0.6661
 3779TIP3   OH232895   2.679   1.998   8.184 -0.1168 -0.3448  0.4531
 3779TIP3    H132896   2.676   2.017   8.278 -0.2600  1.3452  0.1255
 3779TIP3    H232897   2.617   2.059   8.145  1.1513  0.1087 -0.9332
 3780TIP3   OH232898   5.891   1.554   8.252 -0.0320  0.5915 -0.3410
 3780TIP3    H132899   5.950   1.487   8.218 -0.7056 -0.1466 -0.0991
 3780TIP3    H232900   5.848   1.591   8.175 -1.0150 -0.5600 -0.3712
 3781TIP3   OH232901   1.605   0.384   1.683 -0.0064 -0.1439 -0.4069
 3781TIP3    H132902   1.541   0.363   1.615 -0.5836 -0.2795  0.1714
 3781TIP3    H232903   1.653   0.302   1.697  0.1833 -0.0887 -0.7151
 3782TIP3   OH232904   1.179   4.933   7.799 -0.2404 -0.1204 -0.1098
 3782TIP3    H132905   1.152   4.846   7.829 -1.6105 -0.1835 -1.4148
 3782TIP3    H232906   1.163   4.990   7.875 -1.5762 -0.6272  0.0163
 3783TIP3   OH232907   3.006   3.671   0.675 -0.0832 -0.2355 -0.5563
 3783TIP3    H132908   3.067   3.652   0.604  0.8590  0.9745 -0.1040
 3783TIP3    H232909   2.966   3.587   0.696  3.0224 -1.5855  0.5883
 3784TIP3   OH232910   6.355   0.171   7.154 -0.0136  0.1581 -0.0323
 3784TIP3    H132911   6.264   0.202   7.149  0.0497  0.5812  1.2121
 3784TIP3    H232912   6.348   0.076   7.153 -0.4137  0.1843 -0.6691
 3785TIP3   OH232913   4.533   2.850   1.517 -0.5691  0.2272  0.3829
 3785TIP3    H132914   4.604   2.909   1.544 -0.7899 -0.1149  1.7602
 3785TIP3    H232915   4.565   2.763   1.538 -0.7845 -0.0612 -0.4397
 3786TIP3   OH232916   4.051   2.749   1.564  0.4853  0.1389 -0.5106
 3786TIP3    H132917   4.035   2.662   1.600 -0.3459 -0.2298 -1.7339
 3786TIP3    H232918   4.146   2.761   1.574  0.1833  0.7745  3.3100
 3787TIP3   OH232919   4.480   3.950   7.582  0.8248  0.0717 -0.2353
 3787TIP3    H132920   4.467   3.939   7.488  0.2916 -0.0208 -0.1540
 3787TIP3    H232921   4.544   4.021   7.590  0.7902  0.1496 -0.6637
 3788TIP3   OH232922   6.570   3.737   8.424 -0.3681 -0.0185  0.1344
 3788TIP3    H132923   6.580   3.786   8.343  0.3636  0.8357  0.7199
 3788TIP3    H232924   6.597   3.648   8.402  0.8388  0.4381 -0.3194
 3789TIP3   OH232925   6.237   1.591   7.779  0.6572 -0.0392  0.4924
 3789TIP3    H132926   6.142   1.606   7.783  0.5841  0.0878 -1.1098
 3789TIP3    H232927   6.261   1.568   7.869 -0.8194  0.3298  1.0150
 3790TIP3   OH232928   2.231   5.002   8.045  0.0723  0.0821  0.2354
 3790TIP3    H132929   2.285   5.039   8.115  2.8062 -2.0091 -0.5794
 3790TIP3    H232930   2.236   5.066   7.974 -2.1608  1.8907  1.5789
 3791TIP3   OH232931   5.343   5.434   0.414  0.4433  0.2326 -0.1350
 3791TIP3    H132932   5.265   5.490   0.424  0.2643  0.1887 -1.1610
 3791TIP3    H232933   5.375   5.422   0.503 -0.3898  0.7366  0.2502
 3792TIP3   OH232934   5.226   0.072   0.385  0.6509  0.1196 -0.0532
 3792TIP3    H132935   5.319   0.068   0.362  0.6882 -0.9988  0.2327
 3792TIP3    H232936   5.223   0.049   0.478  0.3612  3.0998  0.7933
 3793TIP3   OH232937   6.479   2.804   2.280 -0.3778  0.1456  0.0477
 3793TIP3    H132938   6.565   2.801   2.239 -1.0995 -0.0063 -1.5580
 3793TIP3    H232939   6.419   2.773   2.211 -1.5577 -1.1185  1.5557
 3794TIP3   OH232940   1.814   0.551   0.266 -0.0548  0.5477  0.3694
 3794TIP3    H132941   1.759   0.572   0.341  1.4234  2.3620  1.0187
 3794TIP3    H232942   1.757   0.561   0.190 -0.8552  1.5065  1.0773
 3795TIP3   OH232943   1.516   1.030   0.404  0.1674  0.0648 -0.1572
 3795TIP3    H132944   1.575   1.010   0.477  0.3064 -1.2843 -0.6095
 3795TIP3    H232945   1.543   1.117   0.374  1.6534 -0.3311 -0.0617
 3796TIP3   OH232946   3.515   3.209   0.489  0.2760 -0.5800 -0.9411
 3796TIP3    H132947   3.455   3.280   0.467  0.2578 -0.4686 -0.5342
 3796TIP3    H232948   3.602   3.245   0.469  0.3514 -0.0542  0.2642
 3797TIP3   OH232949   4.994   4.155   0.461  0.1219  0.3164 -0.1508
 3797TIP3    H132950   4.968   4.156   0.369  1.8495  0.1012 -0.6757
 3797TIP3    H232951   5.089   4.160   0.459  0.2235 -0.2130  1.6248
 3798TIP3   OH232952   3.191   3.627   0.429  0.1804  0.2215  0.2269
 3798TIP3    H132953   3.208   3.547   0.378  3.1448  0.2375  1.0217
 3798TIP3    H232954   3.172   3.693   0.363 -3.6001 -1.2375 -0.4245
 3799TIP3   OH232955   4.052   2.134   2.066 -0.5836  0.4510  0.2515
 3799TIP3    H132956   3.975   2.191   2.067 -1.0312 -0.1475  0.5332
 3799TIP3    H232957   4.077   2.129   1.974 -0.1599  1.5983  0.2978
 3800TIP3   OH232958   6.017   6.010   8.186  0.5494  0.0603 -0.0444
 3800TIP3    H132959   5.969   6.014   8.269 -1.1960  0.6010 -1.0213
 3800TIP3    H232960   6.091   5.952   8.204  0.6204  0.7326  2.0703
 3801TIP3   OH232961   0.892   0.083   1.902  0.2220  0.3670 -0.0107
 3801TIP3    H132962   0.800   0.104   1.920 -0.0166 -0.0806 -0.6693
 3801TIP3    H232963   0.897   0.077   1.807  0.9323  0.3471  0.0235
 3802TIP3   OH232964   1.323   2.641   2.089  0.0941  0.6210  0.3804
 3802TIP3    H132965   1.310   2.726   2.049 -0.1288  0.2470 -0.3646
 3802TIP3    H232966   1.235   2.611   2.113  0.2791  1.1560  1.8580
 3803TIP3   OH232967   1.804   1.763   8.014  0.2311  0.4675  0.0738
 3803TIP3    H132968   1.738   1.742   7.947  1.1372  0.3691 -0.8151
 3803TIP3    H232969   1.880   1.710   7.989  0.4959  0.2169  1.3635
 3804TIP3   OH232970   5.236   2.363   8.018 -0.3394  0.2129  0.1352
 3804TIP3    H132971   5.159   2.393   7.969 -0.7517  0.7328  1.0767
 3804TIP3    H232972   5.298   2.435   8.009 -0.3307  0.2127  0.1981
 3805TIP3   OH232973   5.938   5.484   7.389 -0.2709  0.5732  0.8994
 3805TIP3    H132974   6.015   5.525   7.351  0.5286  0.0176  1.8546
 3805TIP3    H232975   5.879   5.557   7.410 -0.6756  0.8976 -1.1890
 3806TIP3   OH232976   1.256   2.171   1.316  0.0784  0.2049  0.2440
 3806TIP3    H132977   1.296   2.239   1.262  0.3544  0.8120  1.1815
 3806TIP3    H232978   1.163   2.192   1.318 -0.5310 -1.6625 -2.5977
 3807TIP3   OH232979   6.822   3.732   1.548  0.1772 -0.1273  0.1383
 3807TIP3    H132980   6.910   3.767   1.534  0.4509 -1.4371 -1.7514
 3807TIP3    H232981   6.835   3.657   1.606  0.0430  0.6607  1.2337
 3808TIP3   OH232982   4.484   4.676   2.077  0.0949 -0.2394 -0.0794
 3808TIP3    H132983   4.540   4.727   2.019 -0.4920 -0.4746 -0.8687
 3808TIP3    H232984   4.423   4.632   2.019 -0.5687 -0.4106  0.7270
 3809TIP3   OH232985   5.099   5.531   0.496 -0.2106  0.6562  0.0715
 3809TIP3    H132986   5.079   5.602   0.435  0.1314  2.3139  1.7968
 3809TIP3    H232987   5.027   5.534   0.560  0.5255  0.3809  0.9343
 3810TIP3   OH232988   1.067   3.091   0.141  0.1515 -0.3383 -0.1505
 3810TIP3    H132989   0.984   3.049   0.163 -0.0599  0.8211  1.5220
 3810TIP3    H232990   1.118   3.023   0.097 -0.9675 -1.6686  0.5248
 3811TIP3   OH232991   6.849   0.971   1.814  0.3108 -0.1912 -0.1486
 3811TIP3    H132992   6.887   0.961   1.727  0.9655 -2.3680  0.3174
 3811TIP3    H232993   6.918   0.939   1.873  0.5033  2.7006  1.3453
 3812TIP3   OH232994   0.555   0.297   2.135  0.3966  0.4804 -0.5802
 3812TIP3    H132995   0.467   0.293   2.170  0.7304  1.6073  0.4364
 3812TIP3    H232996   0.584   0.387   2.151  1.5221  0.2948 -1.4152
 3813TIP3   OH232997   2.931   1.935   1.709 -0.1361  0.1516 -0.9892
 3813TIP3    H132998   3.023   1.950   1.729 -0.3380  1.3561 -0.9138
 3813TIP3    H232999   2.918   1.975   1.623 -0.3413 -0.9995 -1.5184
 3814TIP3   OH233000   4.843   3.748   7.518  0.3828  0.2204 -0.4351
 3814TIP3    H133001   4.864   3.731   7.426 -1.4979  2.5656 -1.3897
 3814TIP3    H233002   4.758   3.707   7.531  0.0567  0.9896 -0.1146
 3815TIP3   OH233003   0.982   6.328   2.735  0.3547 -0.2009  0.2168
 3815TIP3    H133004   0.913   6.279   2.688  0.2252  0.9036 -0.7880
 3815TIP3    H233005   0.937   6.364   2.812 -0.5324  1.4426 -1.0003
 3816TIP3   OH233006   5.519   3.185   2.016  0.5233 -0.0741 -0.4562
 3816TIP3    H133007   5.549   3.186   2.107 -1.9358  0.9225  0.4414
 3816TIP3    H233008   5.560   3.263   1.977  0.3596  0.3778  0.2566
 3817TIP3   OH233009   2.481   4.382   6.578  0.2092  0.7256 -0.3822
 3817TIP3    H133010   2.497   4.289   6.560 -0.3822  0.1859  1.6260
 3817TIP3    H233011   2.392   4.385   6.611  1.8553  1.0711  4.8263
 3818TIP3   OH233012   3.877   2.356   0.427 -0.0969  0.9537 -0.0160
 3818TIP3    H133013   3.914   2.407   0.499  1.3340 -0.3042  0.1860
 3818TIP3    H233014   3.949   2.299   0.399 -2.2017 -2.7065  1.3673
 3819TIP3   OH233015   1.983   3.546   1.721 -0.4180  0.4193 -0.0897
 3819TIP3    H133016   2.021   3.493   1.791 -0.5498  0.8633  0.3179
 3819TIP3    H233017   2.024   3.512   1.641 -1.3191 -1.0583  0.0354
 3820TIP3   OH233018   3.969   1.935   0.102 -0.7822  0.0269  0.2976
 3820TIP3    H133019   3.961   1.870   0.032  0.7365  0.7416 -0.5708
 3820TIP3    H233020   4.018   2.007   0.063 -0.1848  0.5946  2.0045
 3821TIP3   OH233021   3.383   6.229   7.529 -0.1428 -0.6048  1.2967
 3821TIP3    H133022   3.376   6.200   7.620  0.4354 -2.2183  0.8475
 3821TIP3    H233023   3.380   6.149   7.477 -1.0570  0.3186 -0.1695
 3822TIP3   OH233024   5.664   2.157   2.849 -0.4334 -0.1401  0.0845
 3822TIP3    H133025   5.645   2.154   2.755  0.2395  0.0995 -0.0623
 3822TIP3    H233026   5.581   2.181   2.890 -0.7125 -0.1808 -0.4547
 3823TIP3   OH233027   3.697   6.171   7.579 -0.4106 -0.1843  0.0961
 3823TIP3    H133028   3.750   6.251   7.576 -0.9748  0.1870 -1.0086
 3823TIP3    H233029   3.696   6.141   7.488 -1.4921 -0.5712  0.2255
 3824TIP3   OH233030   6.551   6.320   2.615 -0.2816  0.1250 -0.2462
 3824TIP3    H133031   6.523   6.308   2.705  2.0422  0.6559  0.6128
 3824TIP3    H233032   6.565   6.414   2.606  0.0667  0.0122 -0.9900
 3825TIP3   OH233033   5.499   2.586   0.966 -0.1231 -0.1670  0.3199
 3825TIP3    H133034   5.531   2.565   0.878 -0.8012  2.2352 -0.5805
 3825TIP3    H233035   5.404   2.588   0.957 -0.1371  2.1373  0.5344
 3826TIP3   OH233036   2.070   0.646   1.293  0.1907  0.2816  0.0231
 3826TIP3    H133037   2.126   0.723   1.282 -0.5797  0.7949 -0.3962
 3826TIP3    H233038   2.131   0.573   1.301  0.9293  0.7070 -1.3659
 3827TIP3   OH233039   4.014   5.794   1.634  0.0728  0.5704 -0.3558
 3827TIP3    H133040   4.035   5.771   1.724  0.6686 -0.1324 -0.6630
 3827TIP3    H233041   4.087   5.848   1.605  0.6944 -0.5210 -0.9068
 3828TIP3   OH233042   5.021   5.789   2.951  0.3463  0.7153 -0.1850
 3828TIP3    H133043   5.115   5.807   2.958  0.2043  1.2830  0.4887
 3828TIP3    H233044   4.997   5.817   2.863  1.3900 -2.3841 -1.5765
 3829TIP3   OH233045   5.790   5.296   0.646  0.1663 -0.6245  0.4384
 3829TIP3    H133046   5.719   5.264   0.701 -0.9172  2.3797  0.9457
 3829TIP3    H233047   5.754   5.296   0.557  0.0177 -0.4107  0.4984
 3830TIP3   OH233048   0.381   0.130   0.136 -0.3008 -0.0099 -0.5460
 3830TIP3    H133049   0.311   0.132   0.071  0.0789 -0.4042 -0.9748
 3830TIP3    H233050   0.454   0.176   0.095 -0.2926  0.3729 -0.1139
 3831TIP3   OH233051   6.384   1.231   1.802 -0.7565  0.1412 -0.8408
 3831TIP3    H133052   6.315   1.179   1.843 -0.4592  1.3770  1.4248
 3831TIP3    H233053   6.463   1.180   1.814 -0.8115  0.1059 -0.6155
 3832TIP3   OH233054   5.888   6.728   2.759  0.1973  0.3521  0.1554
 3832TIP3    H133055   5.905   6.669   2.832  0.5792 -0.8984 -0.9016
 3832TIP3    H233056   5.796   6.752   2.767 -0.0346 -0.6313  0.4356
 3833TIP3   OH233057   3.534   2.873   8.041 -0.3766 -0.0341  0.1184
 3833TIP3    H133058   3.519   2.968   8.039 -0.4418 -0.0445  0.1006
 3833TIP3    H233059   3.453   2.835   8.005 -0.1992 -0.0784 -0.2357
 3834TIP3   OH233060   4.986   2.304   2.321 -0.7914 -0.3424  0.2001
 3834TIP3    H133061   4.917   2.355   2.362 -0.3829  0.3983 -0.0154
 3834TIP3    H233062   5.065   2.323   2.372 -0.4528 -0.0554 -0.4158
 3835TIP3   OH233063   0.063   1.701   7.441 -0.5019  0.1327  0.9312
 3835TIP3    H133064  -0.023   1.711   7.399  0.0576 -0.8358 -0.5339
 3835TIP3    H233065   0.124   1.746   7.382  0.1031  0.2465  1.6240
 3836TIP3   OH233066   4.770   3.547   0.001  0.4824  0.5664  0.1167
 3836TIP3    H133067   4.741   3.457  -0.010  0.6621  0.5719 -0.4341
 3836TIP3    H233068   4.764   3.586  -0.086  2.2391  0.5245 -0.0638
 3837TIP3   OH233069   1.837   3.968   0.918 -0.2450 -0.4702  0.3748
 3837TIP3    H133070   1.916   3.923   0.950 -1.0441 -1.5796  0.8904
 3837TIP3    H233071   1.861   4.002   0.832  0.7311 -1.0071  0.4221
 3838TIP3   OH233072   1.277   6.144   1.344 -0.0099 -0.0245  0.4942
 3838TIP3    H133073   1.255   6.237   1.337 -1.7835 -0.4886 -0.5412
 3838TIP3    H233074   1.328   6.125   1.265 -0.1151 -0.0585  0.4347
 3839TIP3   OH233075   1.427   5.552   1.551  0.4904  0.9354  0.2223
 3839TIP3    H133076   1.521   5.561   1.569  0.3535  0.7868  1.0411
 3839TIP3    H233077   1.401   5.638   1.518  1.4362  0.2639 -2.5669
 3840TIP3   OH233078   0.814   6.117   1.090 -0.5269 -0.0080 -0.0041
 3840TIP3    H133079   0.889   6.162   1.051 -1.0554  0.5664 -0.3753
 3840TIP3    H233080   0.824   6.026   1.064 -0.2922  0.1781 -0.5696
 3841TIP3   OH233081   2.728   2.871   0.385 -0.2631  0.1839 -0.2841
 3841TIP3    H133082   2.691   2.917   0.308 -0.7150  0.0998 -0.1226
 3841TIP3    H233083   2.822   2.882   0.376 -0.3510  0.9552 -0.3749
 3842TIP3   OH233084   3.274   6.512   8.270 -0.2650 -0.0850  0.2897
 3842TIP3    H133085   3.202   6.451   8.254 -0.9367  0.3165  1.5752
 3842TIP3    H233086   3.238   6.598   8.248  0.2699 -0.0211 -0.3470
 3843TIP3   OH233087   3.317   5.493   6.606  0.3314  0.4694 -0.0248
 3843TIP3    H133088   3.280   5.580   6.619  1.4439  0.7495  1.5596
 3843TIP3    H233089   3.410   5.508   6.593  0.9722 -0.5768  2.7662
 3844TIP3   OH233090   5.547   6.859   2.266 -0.2480  0.2477 -0.1785
 3844TIP3    H133091   5.614   6.791   2.262  1.2991  1.7255 -0.2517
 3844TIP3    H233092   5.469   6.817   2.229  0.4458 -1.6964  0.4508
 3845TIP3   OH233093   0.640   5.391   2.367  0.5597 -0.2908 -0.1760
 3845TIP3    H133094   0.605   5.420   2.451  0.4351  1.3942 -0.7752
 3845TIP3    H233095   0.734   5.407   2.373  0.5865 -0.4096 -0.2689
 3846TIP3   OH233096   5.241   6.356   0.776 -0.1892 -0.1112 -0.4513
 3846TIP3    H133097   5.249   6.261   0.774 -0.9108 -0.1784 -0.3814
 3846TIP3    H233098   5.246   6.383   0.684  0.6103 -0.1567 -0.4283
 3847TIP3   OH233099   5.397   1.820   0.456 -0.4704  0.1163 -0.1417
 3847TIP3    H133100   5.334   1.848   0.391  0.1049  1.8557  0.0058
 3847TIP3    H233101   5.423   1.732   0.428 -1.3529  0.2314 -1.3958
 3848TIP3   OH233102   5.485   3.932   2.176 -0.6508 -0.1295  0.5117
 3848TIP3    H133103   5.473   3.996   2.246 -1.4477  0.3451 -0.0467
 3848TIP3    H233104   5.419   3.955   2.110  1.0885  0.4188 -1.1183
 3849TIP3   OH233105   4.928   5.114   2.012  0.2657  0.3754  0.2878
 3849TIP3    H133106   4.922   5.119   2.107  1.8536 -1.0642  0.5055
 3849TIP3    H233107   4.946   5.022   1.993  1.2571  0.8504 -1.3109
 3850TIP3   OH233108   1.649   0.417   8.419  0.2841 -0.2718  0.5156
 3850TIP3    H133109   1.710   0.462   8.360  1.7523 -0.6473  1.6659
 3850TIP3    H233110   1.643   0.328   8.385  2.0783 -0.8319  1.5460
 3851TIP3   OH233111   1.098   2.483   7.991 -0.1256  0.6399 -0.0165
 3851TIP3    H133112   1.116   2.437   7.909 -1.9203 -0.2204  0.0358
 3851TIP3    H233113   1.135   2.427   8.059  0.6046  0.9382 -0.1513
 3852TIP3   OH233114   1.133   4.078   0.824 -0.2142 -0.5977  0.6435
 3852TIP3    H133115   1.188   4.152   0.852 -0.2675 -0.2880 -0.0448
 3852TIP3    H233116   1.047   4.096   0.863 -0.6408  0.4957 -0.6834
 3853TIP3   OH233117   4.256   2.609   0.721 -0.3032  0.1447 -0.2794
 3853TIP3    H133118   4.345   2.593   0.752 -0.2458 -1.4424 -1.1543
 3853TIP3    H233119   4.200   2.582   0.793 -0.1101  2.1238  0.6821
 3854TIP3   OH233120   0.902   0.358   7.391  0.4255 -0.2413 -0.0192
 3854TIP3    H133121   0.896   0.454   7.393  1.2949 -0.1887  0.7731
 3854TIP3    H233122   0.965   0.339   7.321  0.3411 -0.2249 -0.0990
 3855TIP3   OH233123   5.715   6.670   0.813 -0.0219 -0.0151 -0.2617
 3855TIP3    H133124   5.627   6.632   0.815  0.4543 -1.1556  1.0501
 3855TIP3    H233125   5.748   6.651   0.725  0.9857 -4.7704  0.8164
 3856TIP3   OH233126   2.217   4.959   0.887 -0.6793 -0.5028  0.3249
 3856TIP3    H133127   2.237   4.917   0.971  0.9278 -0.1835  0.1273
 3856TIP3    H233128   2.239   4.893   0.821  2.0306  0.6156  0.0045
 3857TIP3   OH233129   6.046   3.320   8.423 -0.0556  0.1369  0.0875
 3857TIP3    H133130   6.126   3.296   8.470  0.6189  2.3091  0.1936
 3857TIP3    H233131   6.003   3.384   8.480 -1.4378 -0.3686 -0.3613
 3858TIP3   OH233132   4.123   0.068   7.418  0.2907 -0.0715 -0.2671
 3858TIP3    H133133   4.173   0.089   7.340 -0.4861  1.0311 -0.4832
 3858TIP3    H233134   4.038   0.039   7.385  0.9109 -2.5279  0.0657
 3859TIP3   OH233135   2.412   1.193   7.773 -0.0536 -0.0368  0.9631
 3859TIP3    H133136   2.378   1.112   7.811 -0.0311 -0.7270 -0.4163
 3859TIP3    H233137   2.506   1.178   7.764 -0.2320 -0.4346 -0.5525
 3860TIP3   OH233138   1.287   6.335   6.963 -0.1515  0.8469  0.6064
 3860TIP3    H133139   1.205   6.365   6.926 -0.5398 -2.2186 -1.3764
 3860TIP3    H233140   1.302   6.249   6.922  3.0945  0.4547  2.2852
 3861TIP3   OH233141   0.219   4.993   7.818 -0.3548 -0.3952 -0.8135
 3861TIP3    H133142   0.139   5.045   7.820 -0.0277  0.1070  0.5321
 3861TIP3    H233143   0.195   4.911   7.861 -0.3733 -0.6160 -1.2369
 3862TIP3   OH233144   2.953   2.522   2.116 -0.2964  0.1168 -0.9261
 3862TIP3    H133145   2.889   2.548   2.183 -1.0180 -0.4990 -1.3577
 3862TIP3    H233146   2.958   2.598   2.058  0.2751  0.6245 -0.2213
 3863TIP3   OH233147   2.966   1.373   8.319 -0.1140  0.4544  0.1514
 3863TIP3    H133148   2.959   1.375   8.414 -0.3872  0.3426  0.1355
 3863TIP3    H233149   3.060   1.371   8.301 -0.0518 -1.0648  0.4655
 3864TIP3   OH233150   6.677   1.351   1.681  0.2624 -0.5627  0.6399
 3864TIP3    H133151   6.595   1.386   1.645  0.1783 -0.7517  0.6440
 3864TIP3    H233152   6.734   1.427   1.689 -0.0032 -0.3841  0.8782
 3865TIP3   OH233153   4.207   3.340   1.845  0.1581 -0.3730  0.2923
 3865TIP3    H133154   4.279   3.294   1.889  0.1053 -1.9448 -1.1869
 3865TIP3    H233155   4.131   3.285   1.860 -0.5453  0.6934  0.8437
 3866TIP3   OH233156   4.582   1.800   7.091 -0.1914 -0.7694  0.0055
 3866TIP3    H133157   4.519   1.872   7.094 -1.7919 -2.1649  0.7434
 3866TIP3    H233158   4.658   1.834   7.139 -1.0390  0.3053  0.6422
 3867TIP3   OH233159   3.506   5.233   2.487  0.5321  0.0387  0.0568
 3867TIP3    H133160   3.495   5.190   2.403 -0.8170  0.1003  0.1835
 3867TIP3    H233161   3.593   5.272   2.483 -0.5327  2.4563 -2.4484
 3868TIP3   OH233162   3.295   1.197   0.104  0.0929  0.0290  0.3301
 3868TIP3    H133163   3.333   1.153   0.029 -0.3263  0.0351  0.1111
 3868TIP3    H233164   3.208   1.159   0.113  0.3954 -0.4953  1.2601
 3869TIP3   OH233165   0.102   6.665   1.065  0.1059  0.4865 -0.5137
 3869TIP3    H133166   0.067   6.721   0.996 -1.8660 -1.2940 -1.0700
 3869TIP3    H233167   0.184   6.632   1.029 -0.2325  0.6275 -1.4598
 3870TIP3   OH233168   5.025   2.818   1.581 -0.5125 -0.0578  0.5120
 3870TIP3    H133169   5.101   2.828   1.638  1.0168  0.5133 -1.4923
 3870TIP3    H233170   5.012   2.905   1.544 -0.7567 -0.6380 -0.8169
 3871TIP3   OH233171   4.849   2.940   0.800  0.9798  0.2654 -0.8111
 3871TIP3    H133172   4.759   2.926   0.770  1.0453  2.3716 -2.1695
 3871TIP3    H233173   4.858   2.881   0.875 -0.4999 -2.3276 -2.4976
 3872TIP3   OH233174   5.554   6.132   2.540 -0.2948  0.5280  0.1832
 3872TIP3    H133175   5.555   6.094   2.627 -0.6582 -0.0461 -0.0501
 3872TIP3    H233176   5.645   6.153   2.521  0.0530 -0.9959  0.0078
 3873TIP3   OH233177   3.755   2.272   6.889 -0.5116  0.3826 -0.4401
 3873TIP3    H133178   3.813   2.198   6.902 -0.5207  0.1990 -1.3637
 3873TIP3    H233179   3.807   2.335   6.839 -1.2911 -0.0712 -1.9023
 3874TIP3   OH233180   3.567   2.850   7.311 -0.3945  0.1040  0.0895
 3874TIP3    H133181   3.525   2.790   7.250  1.3297  0.3383 -1.4086
 3874TIP3    H233182   3.541   2.937   7.281 -0.0306  0.2002  0.0438
 3875TIP3   OH233183   4.327   2.379   8.554  0.0310  0.1403 -0.2993
 3875TIP3    H133184   4.271   2.454   8.572  0.2889 -0.0326  1.4397
 3875TIP3    H233185   4.370   2.400   8.472 -0.8088  1.3387 -0.4637
 3876TIP3   OH233186   6.279   5.591   0.331 -0.1392 -0.4619  0.4384
 3876TIP3    H133187   6.237   5.508   0.350 -0.2249 -0.7482 -0.8668
 3876TIP3    H233188   6.321   5.617   0.413 -0.7139 -1.4324  1.0508
 3877TIP3   OH233189   6.407   4.118   8.151  0.1911 -0.0309 -0.4574
 3877TIP3    H133190   6.341   4.186   8.136  0.7844  0.4537 -0.9460
 3877TIP3    H233191   6.358   4.046   8.191 -0.0431  1.5952  2.5107
 3878TIP3   OH233192   0.073   0.380   2.215  0.1977  0.3859  0.3014
 3878TIP3    H133193   0.168   0.366   2.214  0.1739  0.0355  1.7416
 3878TIP3    H233194   0.060   0.452   2.276 -0.3930  1.2339 -0.7794
 3879TIP3   OH233195   6.229   6.548   0.588  0.2243  0.2109  0.3118
 3879TIP3    H133196   6.180   6.469   0.610 -0.6460  0.6399 -0.0493
 3879TIP3    H233197   6.176   6.591   0.521  0.0872  1.7112  1.3448
 3880TIP3   OH233198   5.540   2.690   1.966 -0.1988  0.1888  0.0724
 3880TIP3    H133199   5.463   2.747   1.962 -0.1143  0.2590 -2.5120
 3880TIP3    H233200   5.614   2.748   1.947  0.1999 -0.3027  0.1149
 3881TIP3   OH233201   4.854   4.152   1.820 -0.6530  0.3700  0.1986
 3881TIP3    H133202   4.767   4.184   1.797 -1.5671 -0.9902  1.5744
 3881TIP3    H233203   4.868   4.184   1.909  0.4365  0.8927 -0.1468
 3882TIP3   OH233204   6.537   5.027   1.606 -1.1311 -0.3014 -0.1965
 3882TIP3    H133205   6.490   5.090   1.660 -0.8663  0.8613 -1.2565
 3882TIP3    H233206   6.475   4.955   1.593 -1.2973 -0.4659  1.3747
 3883TIP3   OH233207   3.793   1.573   1.292  0.3677  0.0787 -0.3885
 3883TIP3    H133208   3.703   1.549   1.315  1.1153 -0.7052  1.9880
 3883TIP3    H233209   3.794   1.668   1.298  0.2206  0.0035  2.1315
 3884TIP3   OH233210   4.934   4.017   6.946 -0.1853  0.2693  0.4531
 3884TIP3    H133211   4.880   4.068   6.885 -0.5233 -0.1060  0.4296
 3884TIP3    H233212   5.003   4.077   6.973 -1.0912  1.0469  1.1316
 3885TIP3   OH233213   0.846   2.920   0.223  0.0583  0.4926 -0.1079
 3885TIP3    H133214   0.888   2.875   0.296 -1.4346  1.1740  1.2530
 3885TIP3    H233215   0.762   2.876   0.212  0.1138  0.6224 -1.2062
 3886TIP3   OH233216   2.646   4.624   1.771  0.1912 -0.3682  0.1132
 3886TIP3    H133217   2.580   4.666   1.717 -0.2920 -0.3007  0.7510
 3886TIP3    H233218   2.687   4.559   1.713 -1.7501 -1.7839  0.2447
 3887TIP3   OH233219   0.730   6.671   1.014  0.1345 -0.9144  0.1453
 3887TIP3    H133220   0.767   6.730   1.080 -0.9155 -0.5825  0.4533
 3887TIP3    H233221   0.694   6.598   1.064  0.8764 -1.5401 -0.1956
 3888TIP3   OH233222   4.699   4.121   0.753 -0.4009  0.6070 -0.4481
 3888TIP3    H133223   4.711   4.031   0.784 -0.3035  0.6126 -0.4706
 3888TIP3    H233224   4.642   4.112   0.676 -1.1228  0.6462  0.0713
 3889TIP3   OH233225   3.738   2.015   7.461  0.3470  0.0399  0.2387
 3889TIP3    H133226   3.708   1.991   7.374 -0.4725  0.2401  0.4591
 3889TIP3    H233227   3.680   2.086   7.488  2.0103  1.5121  0.0665
 3890TIP3   OH233228   0.195   1.205   1.744 -0.6054  0.2728 -0.3073
 3890TIP3    H133229   0.258   1.227   1.675  1.3411 -1.7802  0.6910
 3890TIP3    H233230   0.163   1.118   1.721 -0.2696 -0.2518  1.0695
 3891TIP3   OH233231   4.512   2.011   0.688 -0.4681 -0.3889  0.0203
 3891TIP3    H133232   4.565   1.979   0.616  1.6850  0.0545  1.3275
 3891TIP3    H233233   4.506   2.106   0.674 -0.0264 -0.2981  0.3963
 3892TIP3   OH233234   0.193   6.369   2.185 -0.3560 -0.3374  0.2234
 3892TIP3    H133235   0.258   6.368   2.256 -1.6101 -1.1806  1.4335
 3892TIP3    H233236   0.224   6.304   2.123 -0.2866 -1.0904  1.0327
 3893TIP3   OH233237   2.933   2.295   2.421  0.6031 -0.0832  0.0845
 3893TIP3    H133238   2.882   2.351   2.363 -0.3636 -1.0054  0.0285
 3893TIP3    H233239   2.879   2.285   2.499  0.6500 -1.1470 -0.0111
 3894TIP3   OH233240   6.239   5.652   1.357 -0.1387  0.5068  0.7163
 3894TIP3    H133241   6.215   5.683   1.270 -0.9784 -0.7554  0.4689
 3894TIP3    H233242   6.196   5.566   1.365  2.0496 -0.5931  1.3608
 3895TIP3   OH233243   5.343   5.137   1.251  0.0412 -0.4878 -0.1523
 3895TIP3    H133244   5.410   5.075   1.282  1.0409  0.6601  0.0472
 3895TIP3    H233245   5.393   5.209   1.213 -1.0076  1.2134  1.5285
 3896TIP3   OH233246   6.635   3.385   0.306 -0.3025 -0.3005 -0.3178
 3896TIP3    H133247   6.579   3.405   0.381  1.5822  0.6711  0.9104
 3896TIP3    H233248   6.712   3.342   0.344  0.2786 -0.6292 -1.7992
 3897TIP3   OH233249   0.857   5.891   1.544 -0.2321  0.4134  0.6530
 3897TIP3    H133250   0.902   5.861   1.622  1.7308  1.5389  0.0183
 3897TIP3    H233251   0.926   5.927   1.488 -1.6175  0.0577 -1.4132
 3898TIP3   OH233252   2.433   0.276   0.509  0.2247  0.5032  0.8506
 3898TIP3    H133253   2.362   0.271   0.444  0.0700 -2.2746  1.1181
 3898TIP3    H233254   2.389   0.266   0.593  0.8504 -0.3092  1.0824
 3899TIP3   OH233255   5.511   3.549   0.825 -0.1206  0.1526 -0.3129
 3899TIP3    H133256   5.433   3.602   0.810 -0.0888  0.0253 -0.9966
 3899TIP3    H233257   5.482   3.479   0.883 -1.1600 -1.2535 -2.3750
 3900TIP3   OH233258   1.945   4.804   0.883 -0.0007  0.1005  0.3406
 3900TIP3    H133259   1.998   4.882   0.895  1.1855 -0.6822  0.3386
 3900TIP3    H233260   1.892   4.822   0.805 -0.1550  1.1077  0.6694
 3901TIP3   OH233261   0.490   4.401   8.019  0.6593 -0.7277 -0.2735
 3901TIP3    H133262   0.444   4.320   8.043  0.5021 -0.4977  0.2144
 3901TIP3    H233263   0.443   4.433   7.942 -0.4586 -0.1333  0.6131
 3902TIP3   OH233264   6.773   0.617   1.850  0.2089  0.1498 -0.4234
 3902TIP3    H133265   6.786   0.524   1.832 -2.1320 -0.7059  1.7339
 3902TIP3    H233266   6.780   0.659   1.765  0.5864 -2.0730 -1.5772
 3903TIP3   OH233267   2.530   1.705   1.637 -0.2586  0.1883 -0.2793
 3903TIP3    H133268   2.460   1.659   1.682 -2.1122  0.7172 -2.4222
 3903TIP3    H233269   2.521   1.796   1.666 -0.2250  0.2059 -0.3240
 3904TIP3   OH233270   6.444   3.844   1.650  0.3637  0.1464 -0.1133
 3904TIP3    H133271   6.455   3.936   1.672  0.1064 -0.3651  2.4220
 3904TIP3    H233272   6.361   3.841   1.602  0.8724  1.3096 -1.1485
 3905TIP3   OH233273   3.672   0.827   8.067  0.5506  0.1260  0.2849
 3905TIP3    H133274   3.669   0.796   7.976 -0.3206  1.8089 -0.2893
 3905TIP3    H233275   3.731   0.902   8.065  0.3144  0.3393  1.0554
 3906TIP3   OH233276   6.651   6.038   1.941  0.4079  0.4108 -0.0536
 3906TIP3    H133277   6.676   5.994   2.022 -0.6549  1.9083  1.1697
 3906TIP3    H233278   6.559   6.063   1.955 -0.1509 -0.2295 -2.1787
 3907TIP3   OH233279   3.504   4.160   7.386  0.3805 -0.3174 -0.0443
 3907TIP3    H133280   3.578   4.149   7.327 -1.3258 -0.2066 -2.3830
 3907TIP3    H233281   3.428   4.166   7.327 -1.7668 -2.6624  2.2608
 3908TIP3   OH233282   3.219   2.562   7.773 -0.2439 -0.1549  0.3197
 3908TIP3    H133283   3.147   2.500   7.783  1.5222 -2.2831  0.6408
 3908TIP3    H233284   3.241   2.557   7.680  1.2438 -1.6840  0.7111
 3909TIP3   OH233285   0.658   2.806   7.848  0.1247  0.1296 -0.1446
 3909TIP3    H133286   0.674   2.813   7.942  4.1379 -1.6457 -0.4693
 3909TIP3    H233287   0.711   2.876   7.809  1.1506 -1.1258 -1.1175
 3910TIP3   OH233288   5.292   0.261   0.908 -0.6839  0.3175 -0.1572
 3910TIP3    H133289   5.228   0.201   0.871  0.1487  0.3118 -1.6369
 3910TIP3    H233290   5.341   0.209   0.971 -0.2597 -0.4581 -1.1095
 3911TIP3   OH233291   1.979   0.872   0.133  0.3317  0.2549 -0.0862
 3911TIP3    H133292   1.950   0.932   0.064 -0.6178  1.5893  1.3941
 3911TIP3    H233293   1.936   0.790   0.112 -0.4057  0.7962 -0.7810
 3912TIP3   OH233294   4.021   3.182   0.518 -0.2259  0.1073  0.1593
 3912TIP3    H133295   4.053   3.128   0.446  1.0463  0.9305  0.0800
 3912TIP3    H233296   4.088   3.250   0.530 -1.9793  1.9866 -0.0801
 3913TIP3   OH233297   5.602   4.518   1.018  0.5041  0.1500 -0.6272
 3913TIP3    H133298   5.615   4.612   1.014  1.2585  0.2171  1.5466
 3913TIP3    H233299   5.674   4.481   0.966  2.3041  0.7767  1.2635
 3914TIP3   OH233300   5.984   5.986   1.797 -0.3273 -0.2037 -0.0823
 3914TIP3    H133301   5.912   5.924   1.804 -2.1607  1.8092  0.1388
 3914TIP3    H233302   5.956   6.047   1.728  0.7005  1.1999  0.6945
 3915TIP3   OH233303   0.551   6.631   0.295 -0.0693 -0.3252  0.0585
 3915TIP3    H133304   0.478   6.588   0.251  0.8809 -1.2743 -0.6224
 3915TIP3    H233305   0.616   6.645   0.227 -0.1840  1.8887  0.3378
 3916TIP3   OH233306   6.571   1.822   0.261 -0.0324  0.2646 -0.2364
 3916TIP3    H133307   6.631   1.759   0.302  0.4154  1.7014  1.4572
 3916TIP3    H233308   6.543   1.780   0.180  0.2679 -2.0774  0.8099
 3917TIP3   OH233309   2.615   0.193   0.313  0.3151  0.0978 -0.0850
 3917TIP3    H133310   2.558   0.241   0.373 -1.5250 -0.4481 -1.2872
 3917TIP3    H233311   2.658   0.261   0.261 -1.5984  0.5357 -1.1834
 3918TIP3   OH233312   4.224   2.273   7.939  0.1201  0.2639  0.1122
 3918TIP3    H133313   4.297   2.260   8.000  0.1149 -0.5247 -0.0367
 3918TIP3    H233314   4.262   2.257   7.853 -0.2851 -0.4409  0.0544
 3919TIP3   OH233315   2.096   5.473   2.774 -0.2958  0.3594  0.2874
 3919TIP3    H133316   2.107   5.568   2.775  2.4706  0.1737 -1.3400
 3919TIP3    H233317   2.125   5.444   2.860  0.8329  0.8944  0.1103
 3920TIP3   OH233318   0.463   5.535   8.000  0.0072  0.0189 -0.6530
 3920TIP3    H133319   0.376   5.551   8.035  0.4782  0.8055  0.2131
 3920TIP3    H233320   0.464   5.580   7.915  0.6031  2.9599  0.7898
 3921TIP3   OH233321   5.277   3.086   8.318 -0.0887  0.1766 -0.0578
 3921TIP3    H133322   5.284   3.019   8.386 -0.8326 -0.1028 -0.2411
 3921TIP3    H233323   5.187   3.077   8.285  0.1306  0.5794 -0.7921
 3922TIP3   OH233324   1.825   4.736   1.668 -0.2125 -0.6428 -0.2816
 3922TIP3    H133325   1.815   4.641   1.679  2.8333 -1.2016 -1.4987
 3922TIP3    H233326   1.851   4.747   1.577  1.3545  1.1557  0.3333
 3923TIP3   OH233327   2.127   3.585   0.505  0.2748 -0.4776 -0.4470
 3923TIP3    H133328   2.194   3.517   0.498  0.5662  0.0204 -4.4323
 3923TIP3    H233329   2.146   3.646   0.434 -1.1227  2.8363  1.7619
 3924TIP3   OH233330   2.437   4.628   8.632 -0.3954 -0.2334  0.1225
 3924TIP3    H133331   2.485   4.656   8.709 -0.4131 -1.2616  0.5264
 3924TIP3    H233332   2.354   4.595   8.666 -0.5846 -0.2918 -0.3809
 3925TIP3   OH233333   6.501   4.700   2.735 -0.3805 -0.0267  0.3197
 3925TIP3    H133334   6.539   4.783   2.707  0.0648 -0.2620  0.2212
 3925TIP3    H233335   6.561   4.669   2.803 -0.9019  0.0496  0.8164
 3926TIP3   OH233336   5.490   4.712   2.008  0.0385 -0.1139 -0.4057
 3926TIP3    H133337   5.575   4.680   2.039  0.3561  1.2548  0.2387
 3926TIP3    H233338   5.426   4.652   2.044  0.6491 -0.4086  0.1954
 3927TIP3   OH233339   2.512   1.911   1.818  0.1671 -0.3871  0.0596
 3927TIP3    H133340   2.517   1.898   1.913 -0.1998 -1.0058 -0.0038
 3927TIP3    H233341   2.519   2.006   1.807  1.7046 -0.4089  0.6084
 3928TIP3   OH233342   5.524   4.025   0.605 -1.4849 -0.1466  0.0847
 3928TIP3    H133343   5.587   3.997   0.539 -0.7775  0.1769  0.6046
 3928TIP3    H233344   5.447   4.052   0.556 -1.2228 -0.5565 -0.5613
 3929TIP3   OH233345   1.331   3.982   1.181 -0.4367  0.0621  0.0089
 3929TIP3    H133346   1.268   3.916   1.210 -0.7600  1.1509  1.9094
 3929TIP3    H233347   1.399   3.932   1.136 -1.3578 -1.3987  0.1707
 3930TIP3   OH233348   5.323   0.412   7.163  0.0345  0.0701 -0.4714
 3930TIP3    H133349   5.323   0.356   7.240 -1.7747  0.9527  0.2276
 3930TIP3    H233350   5.377   0.366   7.099  2.3976 -0.2217  1.6073
 3931TIP3   OH233351   4.519   5.801   1.828  0.3775 -0.2937 -0.1250
 3931TIP3    H133352   4.488   5.836   1.911  1.8398 -0.8415  0.6919
 3931TIP3    H233353   4.474   5.717   1.818  1.6330 -1.1589  1.1278
 3932TIP3   OH233354   6.361   2.911   6.901  0.3217 -0.1256  0.0165
 3932TIP3    H133355   6.441   2.949   6.863  0.1334 -0.2724 -0.5279
 3932TIP3    H233356   6.343   2.834   6.848  0.8035 -1.1034  1.2330
 3933TIP3   OH233357   1.095   5.344   2.634  0.1505 -0.1855 -0.5466
 3933TIP3    H133358   1.019   5.336   2.691  0.0528 -1.4857 -0.8388
 3933TIP3    H233359   1.170   5.324   2.690  0.2227  0.4094 -0.4261
 3934TIP3   OH233360   1.304   6.407   0.844  0.0825  0.2301 -0.3025
 3934TIP3    H133361   1.240   6.344   0.879 -0.0490  0.1947 -0.6103
 3934TIP3    H233362   1.252   6.471   0.797  0.2913  0.0742 -0.7487
 3935TIP3   OH233363   6.386   5.166   0.335 -0.0030 -0.6695  0.8146
 3935TIP3    H133364   6.330   5.228   0.381  0.4128  1.9399 -1.9031
 3935TIP3    H233365   6.326   5.112   0.284 -0.2343  0.9728 -0.7473
 3936TIP3   OH233366   4.642   1.698   7.596  0.1912  0.7631  0.2494
 3936TIP3    H133367   4.713   1.654   7.549  1.1840  0.2459  2.1198
 3936TIP3    H233368   4.610   1.632   7.657  0.7612  2.1274  2.1398
 3937TIP3   OH233369   0.991   2.689   1.562 -0.3843 -0.0456 -0.0131
 3937TIP3    H133370   0.904   2.674   1.526 -0.7548  0.3004  0.7305
 3937TIP3    H233371   1.026   2.761   1.510 -0.8311  0.3026  0.1625
 3938TIP3   OH233372   4.369   2.396   8.260  0.2383 -0.2776 -0.4217
 3938TIP3    H133373   4.378   2.491   8.269  3.3696 -0.5922  1.3233
 3938TIP3    H233374   4.402   2.377   8.172  3.9562  0.0479  0.7073
 3939TIP3   OH233375   6.864   0.235   0.112 -0.6664  0.0155  0.0929
 3939TIP3    H133376   6.788   0.279   0.072 -0.0122 -0.1899 -1.4667
 3939TIP3    H233377   6.826   0.169   0.170 -1.6765  0.5559  0.0712
 3940TIP3   OH233378   6.204   2.408   7.441 -0.2577  0.0542  0.4392
 3940TIP3    H133379   6.284   2.371   7.477 -0.5807 -0.6214  0.4971
 3940TIP3    H233380   6.157   2.332   7.406 -1.8118  0.1205  2.2074
 3941TIP3   OH233381   1.460   3.779   7.522  0.3413 -0.4941 -0.1471
 3941TIP3    H133382   1.396   3.848   7.541  0.3814  0.1465 -2.1822
 3941TIP3    H233383   1.491   3.751   7.609 -0.2540  1.5007  0.7667
 3942TIP3   OH233384   4.989   1.152   1.215 -0.4777 -0.0495  0.2963
 3942TIP3    H133385   4.947   1.203   1.284 -1.0688 -1.6830  1.2127
 3942TIP3    H233386   5.032   1.080   1.262 -0.7379 -1.0906 -1.0135
 3943TIP3   OH233387   4.331   2.675   7.920 -0.1281 -0.0727 -0.2009
 3943TIP3    H133388   4.304   2.733   7.991 -0.0436  0.0831 -0.2972
 3943TIP3    H233389   4.395   2.725   7.870  0.8507 -0.6749  0.4102
 3944TIP3   OH233390   6.516   5.472   2.172 -0.0404  0.1585  0.0705
 3944TIP3    H133391   6.423   5.480   2.191 -0.0023 -0.5772  0.5802
 3944TIP3    H233392   6.530   5.380   2.151  0.4303  0.4137 -0.8305
 3945TIP3   OH233393   4.765   5.269   1.889  0.0911 -0.6288  0.4862
 3945TIP3    H133394   4.837   5.212   1.914  0.3787 -0.8250 -0.7582
 3945TIP3    H233395   4.759   5.333   1.961 -1.3276 -3.1208  2.8000
 3946TIP3   OH233396   6.040   1.083   6.829  0.0560  0.4944  0.7152
 3946TIP3    H133397   6.017   1.127   6.747 -1.2305 -1.1939  0.0975
 3946TIP3    H233398   5.968   1.105   6.889 -0.6181 -0.7089  0.3893
 3947TIP3   OH233399   3.341   4.896   0.655  0.4948 -0.4698 -0.1329
 3947TIP3    H133400   3.340   4.893   0.751  0.1817  0.1488 -0.1142
 3947TIP3    H233401   3.421   4.848   0.631  0.1101 -1.4159  0.3977
 3948TIP3   OH233402   2.263   2.948   6.606  0.0781  0.4938 -0.5059
 3948TIP3    H133403   2.184   2.996   6.631 -0.4536 -0.2598 -0.7078
 3948TIP3    H233404   2.310   3.007   6.548  0.1687  1.3527  0.4193
 3949TIP3   OH233405   4.497   5.154   8.243  0.8514 -0.1556 -0.0389
 3949TIP3    H133406   4.565   5.104   8.288  0.6869 -0.4968 -0.1702
 3949TIP3    H233407   4.449   5.089   8.191 -1.0448 -0.3421  1.8108
 3950TIP3   OH233408   2.360   5.494   2.645  0.1117  0.4440  0.4471
 3950TIP3    H133409   2.284   5.509   2.702  0.8222  0.5234  1.3999
 3950TIP3    H233410   2.412   5.428   2.692  1.6872  1.9217  0.8779
 3951TIP3   OH233411   1.369   0.627   7.038  0.5741 -0.5672  0.6531
 3951TIP3    H133412   1.385   0.543   7.079  1.9812 -0.0261  1.2554
 3951TIP3    H233413   1.296   0.611   6.978  0.9257 -2.2341  0.6362
 3952TIP3   OH233414   3.095   6.694   2.719 -0.3850 -0.3429  0.1351
 3952TIP3    H133415   3.041   6.617   2.701 -1.0251  0.0663  0.2502
 3952TIP3    H233416   3.146   6.707   2.639 -0.8099 -0.4649 -0.1581
 3953TIP3   OH233417   3.424   6.678   7.335 -0.1915 -0.5936 -0.6115
 3953TIP3    H133418   3.466   6.632   7.408  1.1790  0.2225 -0.8446
 3953TIP3    H233419   3.330   6.677   7.357  0.0041 -1.8605  0.2880
 3954TIP3   OH233420   4.267   3.879   6.568 -0.1180  0.0530  0.1191
 3954TIP3    H133421   4.294   3.971   6.573 -0.3261  0.1226 -0.0284
 3954TIP3    H233422   4.212   3.874   6.489 -2.3492  0.3873  1.5706
 3955TIP3   OH233423   5.885   0.266   6.856 -0.0661 -0.6576 -0.4685
 3955TIP3    H133424   5.977   0.242   6.855  0.1942  0.3397 -0.8623
 3955TIP3    H233425   5.883   0.357   6.827 -1.3045 -1.1295 -2.0190
 3956TIP3   OH233426   1.203   2.738   7.886  0.1552 -0.4818  0.4016
 3956TIP3    H133427   1.232   2.721   7.797  0.0232  1.5016 -0.0764
 3956TIP3    H233428   1.141   2.668   7.906 -0.2793 -0.6193 -1.3041
 3957TIP3   OH233429   6.150   2.271   0.437 -0.0466  0.1510  0.1219
 3957TIP3    H133430   6.081   2.281   0.371 -0.4523  0.4606  0.5818
 3957TIP3    H233431   6.217   2.218   0.395 -0.6743 -0.3501 -0.2576
 3958TIP3   OH233432   4.502   4.007   7.126 -0.1434 -0.1345  0.0693
 3958TIP3    H133433   4.488   4.050   7.042 -1.9103 -0.6159  0.0946
 3958TIP3    H233434   4.437   3.937   7.129  0.3976 -0.6098  1.5151
 3959TIP3   OH233435   1.380   0.930   2.794  0.3027  0.0033  0.3206
 3959TIP3    H133436   1.473   0.908   2.795  0.6052  0.6203 -2.9854
 3959TIP3    H233437   1.377   1.025   2.802  0.2653  0.3042 -2.3167
 3960TIP3   OH233438   5.039   5.484   2.079 -0.1707  0.2556  0.2037
 3960TIP3    H133439   4.964   5.427   2.100  0.4699 -0.9444 -0.6645
 3960TIP3    H233440   5.006   5.573   2.096 -1.6257 -0.2714  0.3261
 3961TIP3   OH233441   1.733   0.019   0.775 -0.2363  0.2374  0.2039
 3961TIP3    H133442   1.651  -0.028   0.759 -0.2104  0.8178 -1.8663
 3961TIP3    H233443   1.759   0.053   0.689  2.2998 -0.1117  0.7567
 3962TIP3   OH233444   3.396   6.376   1.461  0.2704 -0.6563 -0.2477
 3962TIP3    H133445   3.477   6.426   1.451  0.1748 -0.4541 -0.0171
 3962TIP3    H233446   3.425   6.289   1.488  0.3675 -0.2865  0.9036
 3963TIP3   OH233447   0.403   1.062   0.926  0.3338  0.1501 -0.1322
 3963TIP3    H133448   0.422   1.138   0.980 -0.4101 -1.3278  2.3957
 3963TIP3    H233449   0.463   1.069   0.852  1.9603  1.9057  1.2493
 3964TIP3   OH233450   0.180   4.081   7.668 -0.0082  0.2972 -0.0165
 3964TIP3    H133451   0.151   4.025   7.596  1.1926 -1.1349  0.5456
 3964TIP3    H233452   0.254   4.129   7.632 -1.1093  1.6521 -0.5328
 3965TIP3   OH233453   5.098   0.663   7.815  0.0455  0.0729 -0.6122
 3965TIP3    H133454   5.067   0.734   7.872 -0.8681 -0.4669 -0.4112
 3965TIP3    H233455   5.125   0.594   7.875 -0.9943 -0.5286 -0.8048
 3966TIP3   OH233456   5.561   1.589   0.469  0.2647  0.2308 -0.0238
 3966TIP3    H133457   5.568   1.549   0.555 -0.7782  0.0121 -0.0249
 3966TIP3    H233458   5.495   1.537   0.423  0.1249  0.9082 -0.6217
 3967TIP3   OH233459   3.781   1.369   2.318  0.2457 -0.2422 -0.0333
 3967TIP3    H133460   3.852   1.338   2.262  0.7466  0.4799  0.2005
 3967TIP3    H233461   3.812   1.356   2.407  0.0393 -0.0194  0.0719
 3968TIP3   OH233462   6.736   2.846   2.191 -0.4737  0.3286 -0.0406
 3968TIP3    H133463   6.769   2.898   2.118  0.0577  0.7223  0.4673
 3968TIP3    H233464   6.796   2.865   2.263 -0.1080 -1.2045  0.0895
 3969TIP3   OH233465   1.946   2.152   6.902  0.1108 -0.7141 -0.4509
 3969TIP3    H133466   1.945   2.178   6.994 -3.2911  0.3356 -0.6339
 3969TIP3    H233467   1.897   2.070   6.899  0.3167 -0.8161 -1.3133
 3970TIP3   OH233468   0.395   2.789   0.207 -0.3364  0.8831  0.2022
 3970TIP3    H133469   0.423   2.803   0.298  0.9560 -1.1545  0.1768
 3970TIP3    H233470   0.308   2.828   0.203 -1.4348 -0.9640  2.9863
 3971TIP3   OH233471   4.501   6.455   2.523  0.0469 -0.0149  0.6303
 3971TIP3    H133472   4.510   6.457   2.618  2.5473  0.2033  0.4683
 3971TIP3    H233473   4.423   6.507   2.504  1.0513  2.3000  2.4345
 3972TIP3   OH233474   3.849   0.220   1.012 -0.1076 -0.2599 -0.0330
 3972TIP3    H133475   3.915   0.159   1.047  0.2685 -0.9682 -1.8692
 3972TIP3    H233476   3.879   0.241   0.924  0.6074  3.9149  1.0013
 3973TIP3   OH233477   3.060   1.610   1.190 -0.3989 -0.3750  0.6327
 3973TIP3    H133478   2.984   1.562   1.157 -0.0055 -1.6928  1.5300
 3973TIP3    H233479   3.113   1.629   1.112 -0.9160 -0.7789  0.1772
 3974TIP3   OH233480   5.955   3.094   7.513 -0.1218 -0.2278 -0.2815
 3974TIP3    H133481   5.939   3.042   7.435 -2.0573  1.6187 -1.2119
 3974TIP3    H233482   5.943   3.185   7.485 -0.5219  0.5231  2.0687
 3975TIP3   OH233483   5.357   1.490   7.490  0.2136  0.0339 -0.1419
 3975TIP3    H133484   5.451   1.508   7.499  0.3868  0.4293 -2.1803
 3975TIP3    H233485   5.318   1.576   7.471 -0.3912 -0.2886 -0.3981
 3976TIP3   OH233486   2.361   4.631   0.250 -0.3068  0.1666 -0.1249
 3976TIP3    H133487   2.369   4.580   0.330  2.4167  0.1694 -0.2788
 3976TIP3    H233488   2.274   4.612   0.216 -1.2477 -0.3937  2.4353
 3977TIP3   OH233489   5.083   6.188   7.455 -0.4723 -0.2168 -0.1381
 3977TIP3    H133490   5.088   6.136   7.374  0.4952 -0.0165 -0.2183
 3977TIP3    H233491   5.002   6.159   7.496  0.0432 -1.8379 -0.1680
 3978TIP3   OH233492   2.430   3.517   3.146  0.8488 -0.0986 -0.8295
 3978TIP3    H133493   2.507   3.500   3.200 -0.4047 -1.0891  0.7340
 3978TIP3    H233494   2.384   3.588   3.192 -0.8468 -1.7553  0.1730
 3979TIP3   OH233495   5.785   1.436   2.573  0.3784  0.1710 -0.0170
 3979TIP3    H133496   5.835   1.401   2.499 -0.4867  0.1828 -0.6158
 3979TIP3    H233497   5.754   1.522   2.542 -1.1877 -0.4374 -0.1854
 3980TIP3   OH233498   1.085   3.806   0.750 -0.2197 -0.1129 -0.1544
 3980TIP3    H133499   1.108   3.893   0.782 -1.1094  0.2665 -0.5180
 3980TIP3    H233500   0.991   3.811   0.730 -0.6415 -1.5690  1.2199
 3981TIP3   OH233501   4.506   4.355   0.059  0.4676 -0.0702 -0.0300
 3981TIP3    H133502   4.500   4.450   0.064  0.0422 -0.1524  1.5027
 3981TIP3    H233503   4.578   4.332   0.118 -0.0826 -0.7475  0.3961
 3982TIP3   OH233504   5.141   4.848   2.565 -0.3703  0.6145  0.2098
 3982TIP3    H133505   5.108   4.875   2.651 -2.3457 -0.5251 -0.1449
 3982TIP3    H233506   5.236   4.859   2.572 -0.3374 -0.6247  2.9833
 3983TIP3   OH233507   3.309   5.577   7.293  0.0084 -0.0654 -1.1995
 3983TIP3    H133508   3.228   5.621   7.265 -1.0225 -1.4287 -0.4377
 3983TIP3    H233509   3.318   5.503   7.234 -0.2869 -0.9540 -0.1474
 3984TIP3   OH233510   6.513   2.947   1.138  0.0183 -0.0568 -0.7543
 3984TIP3    H133511   6.477   2.861   1.114 -0.8488  0.0962 -0.0493
 3984TIP3    H233512   6.474   3.008   1.075 -1.5769  0.2139  0.4219
 3985TIP3   OH233513   5.182   4.044   0.049 -0.0382  0.9990  0.8077
 3985TIP3    H133514   5.269   4.065   0.016  0.3885  0.0612  1.2829
 3985TIP3    H233515   5.123   4.099  -0.001  0.8219  1.5855  0.4140
 3986TIP3   OH233516   1.623   1.791   2.341  0.3894 -0.3644  0.4782
 3986TIP3    H133517   1.670   1.721   2.294  1.0760  1.2167 -1.3341
 3986TIP3    H233518   1.628   1.766   2.433 -0.2425 -3.1823 -0.1612
 3987TIP3   OH233519   6.092   2.861   2.217 -0.6410 -0.4590 -0.5910
 3987TIP3    H133520   6.156   2.895   2.155  1.1775 -0.5744  1.1111
 3987TIP3    H233521   6.122   2.771   2.234 -0.3807 -0.0548  1.2769
 3988TIP3   OH233522   4.995   0.659   0.425  0.2032 -0.2476  0.1738
 3988TIP3    H133523   4.975   0.678   0.333 -0.4462 -1.5398  0.0310
 3988TIP3    H233524   5.030   0.742   0.459  1.3785 -0.0061 -1.4822
 3989TIP3   OH233525   2.855   1.529   0.815  0.1241  0.2381 -0.1929
 3989TIP3    H133526   2.827   1.500   0.902 -1.2863  0.1450 -0.6577
 3989TIP3    H233527   2.832   1.456   0.758  3.3678 -0.8182 -0.3460
 3990TIP3   OH233528   4.923   1.167   6.966 -0.1122 -0.5667  0.5728
 3990TIP3    H133529   4.860   1.178   7.037  0.1936 -1.3599  0.9818
 3990TIP3    H233530   4.967   1.084   6.986  0.0806 -0.7227 -0.4610
 3991TIP3   OH233531   3.056   1.087   1.545 -0.5461  0.3350  0.2704
 3991TIP3    H133532   3.098   1.076   1.460 -0.4652 -2.7024  0.5872
 3991TIP3    H233533   3.103   1.160   1.586  2.2262 -0.7685 -0.7071
 3992TIP3   OH233534   4.372   5.939   0.672 -0.3174  0.0012 -1.4017
 3992TIP3    H133535   4.338   5.922   0.760 -0.0905  0.0749 -1.2982
 3992TIP3    H233536   4.300   5.915   0.614 -0.8950  1.0416 -1.1519
 3993TIP3   OH233537   4.748   3.324   1.116 -0.3688  0.3260  0.0006
 3993TIP3    H133538   4.840   3.349   1.105  0.0626 -0.5659  1.3303
 3993TIP3    H233539   4.700   3.406   1.113  0.4950  0.8255 -0.4641
 3994TIP3   OH233540   6.476   0.342   1.970  0.0159  0.0165 -0.3580
 3994TIP3    H133541   6.407   0.332   2.036 -0.6689  1.6542 -0.7749
 3994TIP3    H233542   6.537   0.406   2.008 -0.6169  1.3162 -1.4452
 3995TIP3   OH233543   3.529   3.959   8.326  0.0352  0.1837  0.0542
 3995TIP3    H133544   3.566   3.874   8.350 -0.9644 -0.1905  0.3143
 3995TIP3    H233545   3.600   4.021   8.341  1.0357 -0.6909 -0.8912
 3996TIP3   OH233546   5.643   1.673   2.485 -0.8776  0.0683 -0.9297
 3996TIP3    H133547   5.558   1.700   2.448 -0.7143  3.0492  0.5559
 3996TIP3    H233548   5.690   1.755   2.497  0.6080 -1.1037  2.1638
 3997TIP3   OH233549   6.161   4.645   7.845  0.1143 -0.1090 -0.7661
 3997TIP3    H133550   6.128   4.725   7.805 -1.1208 -0.4420 -0.4472
 3997TIP3    H233551   6.247   4.669   7.879 -0.6119  1.3482  0.1373
 3998TIP3   OH233552   5.791   3.698   1.723 -0.5813  0.2636 -0.2347
 3998TIP3    H133553   5.838   3.648   1.790  1.0932  0.0203 -1.5288
 3998TIP3    H233554   5.715   3.645   1.702 -0.2665 -0.4311  0.3209
 3999TIP3   OH233555   6.380   6.628   1.134  0.6396 -0.2405  0.1486
 3999TIP3    H133556   6.350   6.538   1.126 -0.4762 -0.0693  2.0097
 3999TIP3    H233557   6.385   6.659   1.043  0.3184 -1.9310 -0.4791
 4000TIP3   OH233558   3.237   3.205   7.596 -0.3559 -0.2692  0.4035
 4000TIP3    H133559   3.250   3.258   7.518 -0.0572  0.7362  1.1097
 4000TIP3    H233560   3.322   3.205   7.640 -0.5085 -0.8394  0.7188
 4001TIP3   OH233561   5.300   5.131   8.112 -0.0146 -0.0641  0.2815
 4001TIP3    H133562   5.322   5.203   8.052 -2.2888 -1.1141 -2.0340
 4001TIP3    H233563   5.327   5.052   8.065  1.2764 -0.8409  2.2222
 4002TIP3   OH233564   1.676   6.014   7.717  0.3702 -0.4588 -1.1270
 4002TIP3    H133565   1.593   6.001   7.670  0.1773 -1.1231 -0.6102
 4002TIP3    H233566   1.712   6.095   7.679 -0.8395  0.2197 -0.8899
 4003TIP3   OH233567   4.321   6.048   1.396 -0.1721  0.1672  0.0241
 4003TIP3    H133568   4.308   6.133   1.354  1.2831  1.3360  1.8383
 4003TIP3    H233569   4.409   6.021   1.369 -0.2933 -0.3742  0.1562
 4004TIP3   OH233570   0.326   5.741   0.974  0.4091  0.0819 -0.0798
 4004TIP3    H133571   0.351   5.652   0.949  1.6037  0.1351  0.8305
 4004TIP3    H233572   0.393   5.768   1.037 -1.1817  0.7654  1.4279
 4005TIP3   OH233573   2.568   2.087   8.442 -0.1088  0.8404  0.2626
 4005TIP3    H133574   2.582   2.126   8.529 -2.8431  1.1276  0.6404
 4005TIP3    H233575   2.474   2.074   8.436  0.2646 -1.6973 -1.6424
 4006TIP3   OH233576   1.341   2.038   0.702  0.3694 -0.7433 -0.3634
 4006TIP3    H133577   1.276   1.969   0.684  1.7305 -2.6901  1.6300
 4006TIP3    H233578   1.291   2.107   0.745 -0.6412 -1.5341 -0.2289
 4007TIP3   OH233579   0.225   2.274   0.832 -1.2377  0.2730 -0.0930
 4007TIP3    H133580   0.247   2.366   0.818 -1.7360  0.5512  0.8198
 4007TIP3    H233581   0.139   2.276   0.874 -2.1457 -0.6953 -1.7821
 4008TIP3   OH233582   5.435   3.247   2.491  0.0061 -0.4773 -0.2222
 4008TIP3    H133583   5.389   3.165   2.512 -2.2710  0.4857 -1.2394
 4008TIP3    H233584   5.486   3.266   2.570 -0.9572 -1.8519  0.7744
 4009TIP3   OH233585   5.885   2.694   7.380 -0.0061 -0.0930  0.1312
 4009TIP3    H133586   5.958   2.755   7.371  0.0052 -0.1648 -0.2839
 4009TIP3    H233587   5.838   2.701   7.296 -0.3075 -0.2611  0.2859
 4010TIP3   OH233588   6.338   2.672   0.601  0.1759 -0.4244  0.5901
 4010TIP3    H133589   6.275   2.599   0.604 -1.9741  1.3725  1.7123
 4010TIP3    H233590   6.414   2.639   0.649  0.4710 -2.8882 -1.3370
 4011TIP3   OH233591   1.247   3.462   7.441 -0.0392 -0.4805 -0.8212
 4011TIP3    H133592   1.301   3.384   7.456  0.3751 -0.5726 -2.5789
 4011TIP3    H233593   1.191   3.438   7.368  0.1371  0.8903 -1.4300
 4012TIP3   OH233594   3.196   2.662   8.249 -0.1436  0.2541  0.1460
 4012TIP3    H133595   3.185   2.720   8.174  1.2294 -0.1171 -0.3844
 4012TIP3    H233596   3.291   2.663   8.266  0.0091 -2.0947 -0.1493
 4013TIP3   OH233597   1.436   1.688   8.193  0.2687 -0.5206  0.3302
 4013TIP3    H133598   1.395   1.671   8.278 -0.0715 -2.4958 -0.1817
 4013TIP3    H233599   1.530   1.691   8.211  0.1600 -0.2102  0.8659
 4014TIP3   OH233600   4.408   3.774   7.818  0.1575  0.3083 -0.2060
 4014TIP3    H133601   4.490   3.764   7.867  0.9899 -1.5132 -1.8234
 4014TIP3    H233602   4.419   3.855   7.769  1.9984 -0.9460 -2.0385
 4015TIP3   OH233603   6.746   0.777   1.625 -0.1399  0.3290  1.1157
 4015TIP3    H133604   6.703   0.740   1.548  2.6505 -0.1452 -0.3319
 4015TIP3    H233605   6.736   0.872   1.615 -2.9226  0.2536  2.1959
 4016TIP3   OH233606   3.091   5.529   7.823  0.2982 -0.0137 -0.4646
 4016TIP3    H133607   3.061   5.444   7.856 -0.3787  0.1474 -0.6350
 4016TIP3    H233608   3.065   5.528   7.731 -1.3124  1.0638 -0.0600
 4017TIP3   OH233609   3.299   5.038   6.743  0.6732  0.2068 -0.1931
 4017TIP3    H133610   3.294   4.943   6.732  0.7114  0.4231 -2.7875
 4017TIP3    H233611   3.384   5.053   6.784  1.2154 -0.8307 -0.8923
 4018TIP3   OH233612   0.511   1.881   1.906  0.3250  0.3023  0.0632
 4018TIP3    H133613   0.575   1.951   1.897 -0.8190  1.3000 -0.5101
 4018TIP3    H233614   0.504   1.867   2.000  3.5819 -1.9593  0.1470
 4019TIP3   OH233615   5.189   6.619   8.437 -0.0517 -0.3486 -0.7428
 4019TIP3    H133616   5.143   6.666   8.507  3.5180  1.0706  0.8757
 4019TIP3    H233617   5.175   6.527   8.458 -0.1872  0.0429  1.0702
 4020TIP3   OH233618   2.982   1.719   8.425 -0.3548 -0.1266  0.1077
 4020TIP3    H133619   2.915   1.774   8.466 -1.7767 -0.8138 -1.1862
 4020TIP3    H233620   3.014   1.771   8.352 -0.4341 -0.3260 -0.0686
 4021TIP3   OH233621   3.489   1.885   8.594  0.5701  0.0689 -0.4205
 4021TIP3    H133622   3.467   1.950   8.661  2.3519 -0.2643  0.5317
 4021TIP3    H233623   3.546   1.823   8.639 -1.0421 -2.1776 -1.3072
 4022TIP3   OH233624   3.803   5.297   0.302 -0.4098 -0.0815  0.4367
 4022TIP3    H133625   3.846   5.227   0.351 -0.9588 -0.2788  0.6407
 4022TIP3    H233626   3.815   5.272   0.210 -1.5804 -1.0428  0.5266
 4023TIP3   OH233627   1.471   0.916   8.001 -0.8364  0.0697 -0.4433
 4023TIP3    H133628   1.406   0.973   8.042 -1.6962  0.2645 -2.0190
 4023TIP3    H233629   1.450   0.918   7.908  0.2902 -1.3379 -0.7646
 4024TIP3   OH233630   2.244   1.973   1.143  0.3694  0.3654 -0.6595
 4024TIP3    H133631   2.329   1.961   1.102  0.3939 -1.3863 -0.1604
 4024TIP3    H233632   2.250   1.924   1.226 -1.2993 -0.3054 -0.8982
 4025TIP3   OH233633   4.976   5.587   0.170 -0.2229  0.0778  0.4568
 4025TIP3    H133634   4.914   5.656   0.194  0.5876  0.8482  0.3654
 4025TIP3    H233635   5.061   5.618   0.202  0.8238  0.8362 -2.7311
 4026TIP3   OH233636   2.466   1.893   2.079 -0.2359  0.7990 -0.3099
 4026TIP3    H133637   2.376   1.869   2.101  0.8686 -2.5522  1.1185
 4026TIP3    H233638   2.474   1.984   2.108 -3.7018  2.0373 -2.5747
 4027TIP3   OH233639   4.306   5.856   0.941  0.3629  0.0104 -0.1818
 4027TIP3    H133640   4.213   5.856   0.963  0.3803 -2.3626  0.0797
 4027TIP3    H233641   4.338   5.770   0.966  2.4800  0.4806 -0.9859
 4028TIP3   OH233642   3.889   0.106   0.416 -0.8227  0.1081  0.7999
 4028TIP3    H133643   3.848   0.080   0.333 -0.6935  0.0136  0.7643
 4028TIP3    H233644   3.837   0.063   0.484 -1.2908  0.6619  0.8010
 4029TIP3   OH233645   5.208   0.762   1.653 -0.4731  0.1382 -0.0458
 4029TIP3    H133646   5.205   0.813   1.734 -0.1944 -0.8000  0.5803
 4029TIP3    H233647   5.118   0.762   1.620 -0.8739 -0.5488  0.9779
 4030TIP3   OH233648   0.333   4.021   1.484 -0.0849  0.0107  0.4612
 4030TIP3    H133649   0.291   3.944   1.446  0.7329 -1.0263  1.5808
 4030TIP3    H233650   0.311   4.092   1.424 -2.3031 -0.7370  0.3180
 4031TIP3   OH233651   2.266   5.091   1.251  0.6055 -0.4166 -0.1911
 4031TIP3    H133652   2.336   5.091   1.186 -1.5108  0.6644 -2.6831
 4031TIP3    H233653   2.232   5.181   1.250 -2.2835 -1.3910 -0.9266
 4032TIP3   OH233654   0.404   3.476   7.415  0.1765 -0.5172  0.5093
 4032TIP3    H133655   0.375   3.554   7.369 -1.5337 -1.2712  0.2324
 4032TIP3    H233656   0.347   3.471   7.492  1.3193 -0.6489  1.3784
 4033TIP3   OH233657   4.894   6.424   7.636 -0.2898 -0.0526 -0.1656
 4033TIP3    H133658   4.864   6.513   7.614 -0.4083 -0.5317 -2.1469
 4033TIP3    H233659   4.817   6.381   7.671 -0.9705 -0.1223 -1.6524
 4034TIP3   OH233660   3.802   6.594   2.283  0.9044  0.2980 -0.5804
 4034TIP3    H133661   3.807   6.687   2.265  1.1119  0.3568 -0.2213
 4034TIP3    H233662   3.884   6.558   2.248  1.1967  0.3756  0.0132
 4035TIP3   OH233663   1.363   1.531   8.404  0.0056 -0.3237 -0.1108
 4035TIP3    H133664   1.373   1.475   8.328 -1.4408 -2.2069  0.9894
 4035TIP3    H233665   1.419   1.492   8.471 -0.5539 -0.1265  0.4902
 4036TIP3   OH233666   0.058   3.226   6.793  0.1356  0.4887  0.4464
 4036TIP3    H133667   0.004   3.284   6.846  0.2049 -0.6595  1.8234
 4036TIP3    H233668   0.142   3.223   6.838  0.1068 -0.7174  0.4594
 4037TIP3   OH233669   1.919   5.176   0.264  0.2007 -0.0884 -0.1799
 4037TIP3    H133670   1.966   5.259   0.261  0.3778 -0.2085 -0.9097
 4037TIP3    H233671   1.976   5.114   0.218 -0.7093 -0.2028 -1.2080
 4038TIP3   OH233672   3.508   2.349   2.215  0.0552  0.0451  0.2691
 4038TIP3    H133673   3.506   2.261   2.252 -0.3678  0.2308  0.6915
 4038TIP3    H233674   3.443   2.346   2.144  0.1303 -0.0200  0.2034
 4039TIP3   OH233675   4.317   3.940   8.174 -0.0231  0.3967 -0.3372
 4039TIP3    H133676   4.263   3.901   8.243 -0.0265 -0.2509 -0.6977
 4039TIP3    H233677   4.254   3.965   8.106 -0.3272  3.1917  0.8112
 4040TIP3   OH233678   2.972   3.812   2.448 -0.1804  0.4459 -0.0645
 4040TIP3    H133679   2.952   3.719   2.449 -0.8891  0.5784 -0.9470
 4040TIP3    H233680   2.936   3.845   2.531  0.8669 -0.2021  0.6735
 4041TIP3   OH233681   0.871   4.983   7.759 -0.9257 -0.3313 -0.0527
 4041TIP3    H133682   0.911   4.914   7.707  1.2478  1.6566 -1.2390
 4041TIP3    H233683   0.914   4.977   7.844 -1.3592 -0.9343  0.1298
 4042TIP3   OH233684   1.501   3.067   0.221 -0.0740 -0.4281 -0.0062
 4042TIP3    H133685   1.541   3.113   0.295  1.1704 -1.3949 -0.0322
 4042TIP3    H233686   1.498   3.131   0.151 -0.2492  0.1855  0.5524
 4043TIP3   OH233687   6.294   4.415   0.811  0.4090 -0.3701 -0.8751
 4043TIP3    H133688   6.247   4.495   0.788  0.0137 -0.7245 -1.3278
 4043TIP3    H233689   6.331   4.433   0.897  0.5944  0.4147 -1.1088
 4044TIP3   OH233690   1.902   0.174   1.691  0.4211  0.3802  0.0052
 4044TIP3    H133691   1.816   0.138   1.670  0.1810  0.9505 -0.0118
 4044TIP3    H233692   1.885   0.265   1.716  1.0746  0.6542 -0.4973
 4045TIP3   OH233693   4.927   6.196   0.268  0.2830  0.2631  0.6622
 4045TIP3    H133694   4.834   6.197   0.289  0.2757  1.2880  0.6462
 4045TIP3    H233695   4.937   6.123   0.207 -0.1430 -1.1219  2.1601
 4046TIP3   OH233696   4.210   2.278   2.255  0.4276  0.0413  0.1813
 4046TIP3    H133697   4.179   2.361   2.220 -0.2755 -0.3183 -0.0761
 4046TIP3    H233698   4.182   2.213   2.190  3.3303 -0.1334 -1.0248
 4047TIP3   OH233699   1.025   3.653   0.497 -0.2320 -0.3312 -0.1158
 4047TIP3    H133700   0.998   3.641   0.588  1.9888 -3.3241  0.3233
 4047TIP3    H233701   0.950   3.623   0.446 -0.3454 -1.8213  0.8507
 4048TIP3   OH233702   0.774   1.194   0.577 -0.0552 -1.0682  0.1922
 4048TIP3    H133703   0.745   1.187   0.668  2.0264 -1.9582  0.8469
 4048TIP3    H233704   0.699   1.164   0.525 -1.1533 -0.8593  1.6185
 4049TIP3   OH233705   5.532   4.594   7.959  0.0617  0.7314 -0.8878
 4049TIP3    H133706   5.539   4.560   8.048 -1.0539  1.4184 -0.5268
 4049TIP3    H233707   5.610   4.559   7.914 -0.2139 -0.9877 -0.1158
 4050TIP3   OH233708   4.720   5.514   1.591  0.0307 -0.0343 -0.0655
 4050TIP3    H133709   4.784   5.493   1.659  0.4695 -0.4550 -0.6000
 4050TIP3    H233710   4.713   5.610   1.594 -0.7598 -0.1034  1.2816
 4051TIP3   OH233711   5.854   3.480   8.598  0.1092 -0.4153 -0.2902
 4051TIP3    H133712   5.794   3.407   8.611  0.9508 -0.8792  1.0977
 4051TIP3    H233713   5.802   3.558   8.619 -0.5759 -0.6449 -1.0803
 4052TIP3   OH233714   5.928   6.010   2.878 -0.5969 -0.2387 -0.0167
 4052TIP3    H133715   5.960   5.920   2.886 -1.2487 -0.4671  0.0833
 4052TIP3    H233716   6.007   6.064   2.878 -0.2593 -0.6151  2.4032
 4053TIP3   OH233717   4.778   1.520   7.992  0.2000  0.1974  0.2163
 4053TIP3    H133718   4.776   1.502   7.898 -0.1797 -0.2536  0.3105
 4053TIP3    H233719   4.712   1.463   8.029  1.2919 -0.6514  0.9288
 4054TIP3   OH233720   4.753   1.493   7.352  1.0797  0.8777  0.1175
 4054TIP3    H133721   4.829   1.438   7.333 -0.2199 -0.5037 -1.3829
 4054TIP3    H233722   4.776   1.580   7.318  1.6551  0.2459 -1.1583
 4055TIP3   OH233723   1.265   0.304   0.841 -0.3330  0.0344  0.0586
 4055TIP3    H133724   1.282   0.220   0.884  0.3507  0.1108 -0.0492
 4055TIP3    H233725   1.230   0.359   0.911 -0.7129 -0.3121  0.1493
 4056TIP3   OH233726   5.344   4.855   1.830  0.1666  0.6009  0.5653
 4056TIP3    H133727   5.409   4.801   1.874 -1.0735 -1.9102 -0.4488
 4056TIP3    H233728   5.287   4.886   1.901 -1.9822 -3.6098  1.0273
 4057TIP3   OH233729   0.583   4.906   7.281  0.0486  0.0189 -0.1998
 4057TIP3    H133730   0.662   4.856   7.301 -0.8674 -1.5201 -0.2819
 4057TIP3    H233731   0.555   4.874   7.195 -0.3266  1.0008 -0.4622
 4058TIP3   OH233732   6.655   5.418   1.651 -0.5644  0.3652  0.4323
 4058TIP3    H133733   6.667   5.472   1.729 -0.4779  0.3146  0.4544
 4058TIP3    H233734   6.631   5.480   1.583 -2.4563  0.2236  0.9044
 4059TIP3   OH233735   0.807   4.605   6.978  0.0897  0.0574 -0.3888
 4059TIP3    H133736   0.814   4.509   6.984 -2.0065 -0.2484 -1.7312
 4059TIP3    H233737   0.794   4.634   7.069 -1.7864 -1.2280 -0.1946
 4060TIP3   OH233738   6.513   6.639   1.578 -0.5044  0.1580 -0.1027
 4060TIP3    H133739   6.518   6.619   1.485 -0.4861  0.4609 -0.1682
 4060TIP3    H233740   6.541   6.730   1.585  0.2991 -0.1134  0.3022
 4061TIP3   OH233741   6.225   0.692   8.097 -1.0214 -0.1339 -0.4151
 4061TIP3    H133742   6.172   0.734   8.029 -0.8810  0.6770 -0.0280
 4061TIP3    H233743   6.306   0.669   8.052 -0.6248  1.0823 -0.3593
 4062TIP3   OH233744   2.694   2.304   1.034  0.1720 -0.4136  0.0842
 4062TIP3    H133745   2.758   2.363   0.994 -0.3230 -0.3670 -0.6609
 4062TIP3    H233746   2.630   2.287   0.965  0.0988 -1.5305  0.4109
 4063TIP3   OH233747   0.332   6.003   2.184  0.0893  0.1922 -0.0491
 4063TIP3    H133748   0.345   6.077   2.243 -0.2972  0.3348 -0.1467
 4063TIP3    H233749   0.238   5.988   2.183  0.1057  0.1006 -0.5230
 4064TIP3   OH233750   2.220   0.697   0.418  0.3779  0.6771 -0.3143
 4064TIP3    H133751   2.185   0.651   0.341  1.4784  1.4462 -1.2999
 4064TIP3    H233752   2.287   0.638   0.452  0.1961  0.5355 -0.1965
 4065TIP3   OH233753   2.520   2.211   0.385  0.1196  0.1338 -0.5706
 4065TIP3    H133754   2.513   2.117   0.403  0.9079  0.0677 -0.5901
 4065TIP3    H233755   2.545   2.216   0.293 -1.6113  0.4166 -1.0593
 4066TIP3   OH233756   1.012   3.935   0.382 -0.1608 -0.0163  0.0186
 4066TIP3    H133757   0.993   3.893   0.466 -1.8471 -1.0300 -0.8172
 4066TIP3    H233758   1.079   3.879   0.343  0.9273  0.6849  0.8245
 4067TIP3   OH233759   5.686   6.328   1.908  0.1545 -0.1728 -0.3262
 4067TIP3    H133760   5.771   6.367   1.885  0.1388  0.8926  1.2356
 4067TIP3    H233761   5.622   6.388   1.870  0.1321  1.3729  1.9088
 4068TIP3   OH233762   3.440   3.874   2.023 -0.0004 -0.0987 -0.3991
 4068TIP3    H133763   3.513   3.931   2.049  0.8373 -0.4464 -1.8913
 4068TIP3    H233764   3.373   3.935   1.992  0.0459  0.1699  0.0101
 4069TIP3   OH233765   3.886   4.570   2.469 -0.1407 -0.4339  0.4115
 4069TIP3    H133766   3.952   4.531   2.411  0.3114 -0.9259  1.2455
 4069TIP3    H233767   3.935   4.594   2.548 -0.9411 -0.7040  0.9957
 4070TIP3   OH233768   1.494   6.710   0.734  0.0928  0.0980 -0.1702
 4070TIP3    H133769   1.444   6.636   0.768  0.9761 -2.4821 -3.8351
 4070TIP3    H233770   1.585   6.679   0.734  0.4376  0.9677 -2.1681
 4071TIP3   OH233771   5.098   4.524   8.418  1.0550  0.3166 -0.5413
 4071TIP3    H133772   5.043   4.545   8.342  2.0756  0.2900 -1.3001
 4071TIP3    H233773   5.035   4.504   8.487  0.0471  2.3277 -0.7804
 4072TIP3   OH233774   1.905   4.318   0.293 -0.0430  0.1711  0.5672
 4072TIP3    H133775   1.854   4.277   0.364  1.9888  0.4947  2.3001
 4072TIP3    H233776   1.986   4.347   0.335  0.9259  1.0693 -1.7659
 4073TIP3   OH233777   5.058   0.864   7.456  0.4083 -0.3676 -0.8850
 4073TIP3    H133778   5.010   0.941   7.484  0.4132 -0.9009  0.6796
 4073TIP3    H233779   5.135   0.861   7.513  1.1978 -0.7086 -1.9326
 4074TIP3   OH233780   4.749   1.157   0.060  0.6348 -0.4945  0.7146
 4074TIP3    H133781   4.682   1.117   0.005  0.4698  0.0697  0.4996
 4074TIP3    H233782   4.794   1.219   0.002  1.4385 -0.9643  0.8130
 4075TIP3   OH233783   0.661   0.599   7.475 -1.0014 -0.2457  1.2159
 4075TIP3    H133784   0.718   0.583   7.400  0.7083 -1.0328  2.6139
 4075TIP3    H233785   0.699   0.677   7.517 -1.7842  0.0313  1.4321
 4076TIP3   OH233786   2.096   2.036   0.888  0.2747  0.2325 -0.5754
 4076TIP3    H133787   2.127   1.966   0.946  1.6223  0.6393 -0.7736
 4076TIP3    H233788   2.098   1.997   0.801 -1.4439 -0.2734 -0.4395
 4077TIP3   OH233789   6.272   0.886   2.034  0.1742 -0.9422  1.3046
 4077TIP3    H133790   6.329   0.810   2.037 -1.0932 -1.9548  0.5486
 4077TIP3    H233791   6.252   0.898   1.941  1.5960  1.3134  1.1980
 4078TIP3   OH233792   1.309   6.221   0.048  0.2112 -0.1122 -0.8876
 4078TIP3    H133793   1.278   6.266   0.126  0.2051  1.0161 -1.5166
 4078TIP3    H233794   1.260   6.139   0.045 -2.7553  1.5616 -1.8264
 4079TIP3   OH233795   3.272   3.326   7.364  0.4121 -0.0577 -0.5053
 4079TIP3    H133796   3.315   3.411   7.352 -0.1760  0.4091  0.4980
 4079TIP3    H233797   3.190   3.334   7.314  0.4746 -0.1293 -0.6190
 4080TIP3   OH233798   0.828   1.720   1.003 -0.0210 -0.3504 -0.0504
 4080TIP3    H133799   0.736   1.695   0.995  0.0563 -1.1309  1.1854
 4080TIP3    H233800   0.866   1.699   0.918 -0.7476 -1.0742 -0.2116
 4081TIP3   OH233801   3.345   6.794   8.065 -0.0456 -0.0056  0.2837
 4081TIP3    H133802   3.414   6.847   8.024 -0.5925 -0.9930 -2.0538
 4081TIP3    H233803   3.281   6.859   8.095  1.4186  0.8722  1.6904
 4082TIP3   OH233804   4.928   1.868   1.030 -0.4979  0.4151 -0.2532
 4082TIP3    H133805   4.888   1.825   0.955 -0.0263 -1.2522  0.4017
 4082TIP3    H233806   4.861   1.865   1.099 -0.7624  1.5221 -0.4350
 4083TIP3   OH233807   6.401   0.397   8.460  0.1684 -0.7032 -0.1321
 4083TIP3    H133808   6.408   0.397   8.555  2.1125 -1.4594 -0.2336
 4083TIP3    H233809   6.455   0.323   8.431 -0.4058 -0.5177 -1.8197
 4084TIP3   OH233810   3.382   0.959   0.681  0.3981  0.5478  0.6387
 4084TIP3    H133811   3.359   1.041   0.638  0.7460 -0.0417 -0.7175
 4084TIP3    H233812   3.300   0.929   0.722 -0.0103  0.9679  0.1308
 4085TIP3   OH233813   5.694   3.828   8.083 -0.0853 -0.3923 -0.4401
 4085TIP3    H133814   5.744   3.761   8.129 -0.6332  0.4856  1.5601
 4085TIP3    H233815   5.758   3.875   8.030  1.1861  0.3869  1.6726
 4086TIP3   OH233816   6.688   1.452   0.562  0.3679 -0.5635  0.3720
 4086TIP3    H133817   6.687   1.502   0.643  0.1454  1.1536 -0.6349
 4086TIP3    H233818   6.769   1.478   0.518  0.8758 -2.0691  0.3738
 4087TIP3   OH233819   2.819   4.726   6.423 -0.3273  0.5194  0.1483
 4087TIP3    H133820   2.798   4.819   6.430  0.5586  0.7651 -0.2536
 4087TIP3    H233821   2.737   4.681   6.443 -0.2367  1.3119  2.7077
 4088TIP3   OH233822   6.575   0.446   0.216  0.0338  0.4932 -0.2639
 4088TIP3    H133823   6.520   0.390   0.271 -1.3816  2.2252  0.1563
 4088TIP3    H233824   6.595   0.391   0.140 -1.7776 -0.4147 -0.1457
 4089TIP3   OH233825   3.557   4.450   0.258  0.0162 -0.3118  0.5597
 4089TIP3    H133826   3.645   4.488   0.261  1.0147 -2.4832  1.5332
 4089TIP3    H233827   3.531   4.441   0.350 -0.2190 -1.7346  0.3876
 4090TIP3   OH233828   1.496   6.090   7.485  0.1017 -0.5671  0.1553
 4090TIP3    H133829   1.471   5.997   7.491  0.3560 -0.5468  2.2869
 4090TIP3    H233830   1.571   6.090   7.426 -1.4683 -1.3295 -1.9908
 4091TIP3   OH233831   2.913   5.716   1.781  0.2379  0.3314  0.4405
 4091TIP3    H133832   2.944   5.718   1.871 -0.4701 -2.4673  0.8586
 4091TIP3    H233833   2.853   5.790   1.774 -0.7551 -0.1807  2.7075
 4092TIP3   OH233834   4.073   5.863   8.644 -0.5474 -0.0663  0.8006
 4092TIP3    H133835   4.121   5.860   8.562  0.2056  0.0957  1.2308
 4092TIP3    H233836   4.001   5.924   8.627 -0.2985  0.0984  0.3179
 4093TIP3   OH233837   1.560   6.367   0.849 -0.5933 -0.2046 -0.6554
 4093TIP3    H133838   1.466   6.380   0.859 -0.4190  0.9239 -0.3024
 4093TIP3    H233839   1.584   6.423   0.775 -0.3716 -1.3699 -1.4911
 4094TIP3   OH233840   5.698   3.366   1.167  0.2701  0.2571  0.2430
 4094TIP3    H133841   5.749   3.314   1.230  0.3402 -0.0563 -0.0722
 4094TIP3    H233842   5.764   3.421   1.124  0.2184  0.4905  0.4536
 4095TIP3   OH233843   3.373   3.506   0.856 -0.2480  0.1680  0.1087
 4095TIP3    H133844   3.381   3.597   0.883 -0.4455  1.3329 -3.2557
 4095TIP3    H233845   3.463   3.476   0.846 -0.0978  1.0820 -1.7289
 4096TIP3   OH233846   0.932   3.514   0.731  0.0879  0.7150  0.1198
 4096TIP3    H133847   0.861   3.456   0.702 -0.5346  2.0993 -1.2748
 4096TIP3    H233848   0.896   3.559   0.807  0.4172 -0.3720  0.9449
 4097TIP3   OH233849   3.765   2.517   7.977  0.1608 -0.1515 -0.5398
 4097TIP3    H133850   3.857   2.528   7.953  0.4346 -0.3684  0.3379
 4097TIP3    H233851   3.717   2.526   7.895  1.0012 -0.4791 -1.0852
 4098TIP3   OH233852   2.910   5.157   7.566 -0.7397  0.7025  0.1017
 4098TIP3    H133853   2.979   5.134   7.628 -1.4939 -0.1553  0.6523
 4098TIP3    H233854   2.837   5.099   7.588 -0.8342 -0.0577 -1.9627
 4099TIP3   OH233855   5.364   2.233   0.200 -0.6993 -0.1308 -0.7035
 4099TIP3    H133856   5.288   2.236   0.257  1.3615 -1.3110  2.3618
 4099TIP3    H233857   5.402   2.321   0.206  0.2447 -0.6141  0.9431
 4100TIP3   OH233858   2.601   6.294   7.964 -0.4202 -0.6561  0.0111
 4100TIP3    H133859   2.661   6.311   7.892 -1.2144  0.4366 -0.4216
 4100TIP3    H233860   2.600   6.199   7.973  0.1674 -0.7658 -0.9991
 4101TIP3   OH233861   1.505   5.489   7.744 -0.3209  0.2455  0.5689
 4101TIP3    H133862   1.489   5.396   7.756  0.5390 -0.0565 -0.5159
 4101TIP3    H233863   1.527   5.499   7.651 -1.1884  1.6496  0.4699
 4102TIP3   OH233864   0.449   4.631   7.838 -0.1336 -0.1049 -0.2352
 4102TIP3    H133865   0.395   4.628   7.759 -1.0939 -1.6989  0.4434
 4102TIP3    H233866   0.504   4.709   7.827  0.1460 -0.5951 -2.7096
 4103TIP3   OH233867   3.565   0.801   8.608  0.1313 -0.6153  0.0849
 4103TIP3    H133868   3.553   0.751   8.526  1.6275 -0.3304 -0.3389
 4103TIP3    H233869   3.656   0.830   8.605  0.1282 -0.3469  1.7341
 4104TIP3   OH233870   1.907   5.319   1.685 -0.0889 -0.0500  0.3618
 4104TIP3    H133871   1.985   5.273   1.717  0.0015  0.8798  1.5491
 4104TIP3    H233872   1.834   5.272   1.725 -0.1507 -0.8187 -0.6182
 4105TIP3   OH233873   0.374   4.551   0.553 -1.0305  0.7413 -0.1227
 4105TIP3    H133874   0.317   4.508   0.490 -2.1361 -0.1910  1.4399
 4105TIP3    H233875   0.401   4.481   0.612 -0.7236  1.7186  0.9351
 4106TIP3   OH233876   5.037   4.902   1.670  0.1355 -0.0129 -0.3243
 4106TIP3    H133877   4.953   4.865   1.697  0.3875  0.7015  1.5445
 4106TIP3    H233878   5.101   4.835   1.693  0.3204  0.4718  0.6048
 4107TIP3   OH233879   0.101   0.336   2.567  0.0494 -0.6585  0.4607
 4107TIP3    H133880   0.168   0.271   2.544  0.7603 -0.0667  0.8063
 4107TIP3    H233881   0.129   0.416   2.522  0.0987 -0.1501  1.3670
 4108TIP3   OH233882   5.772   3.785   2.233 -0.2344  0.3625  0.4010
 4108TIP3    H133883   5.790   3.760   2.323 -1.0845 -0.5478  0.3341
 4108TIP3    H233884   5.749   3.878   2.237  1.6932  0.8739  0.8347
 4109TIP3   OH233885   0.030   5.534   7.188  0.2514 -0.6207  0.6207
 4109TIP3    H133886  -0.023   5.460   7.217  0.1108 -0.2039  1.4503
 4109TIP3    H233887  -0.000   5.553   7.099  0.2232 -1.4900  0.4381
 4110TIP3   OH233888   5.842   5.569   1.368  0.7696 -0.1480 -0.4591
 4110TIP3    H133889   5.790   5.560   1.448  2.3777 -2.0941  0.4619
 4110TIP3    H233890   5.866   5.662   1.366 -0.6611  0.2832  0.3950
 4111TIP3   OH233891   5.202   3.175   7.724 -0.7928 -0.1909  0.7050
 4111TIP3    H133892   5.196   3.145   7.814 -1.4058 -0.0062  0.7325
 4111TIP3    H233893   5.188   3.096   7.671  0.8716 -0.5470  0.7511
 4112TIP3   OH233894   4.414   0.684   7.361  0.2832  0.7576  0.1904
 4112TIP3    H133895   4.331   0.638   7.348  1.4559 -1.6116  0.5571
 4112TIP3    H233896   4.470   0.653   7.290  0.9102  2.2582  0.0033
 4113TIP3   OH233897   2.315   5.678   0.974  0.8797 -0.3260  0.3548
 4113TIP3    H133898   2.365   5.731   1.035  1.0873 -0.1804  0.0578
 4113TIP3    H233899   2.369   5.600   0.961  1.2374  0.0242 -0.3000
 4114TIP3   OH233900   4.761   6.829   7.464  0.4110  0.3634 -0.0175
 4114TIP3    H133901   4.781   6.765   7.396  0.8394  0.8371 -0.3552
 4114TIP3    H233902   4.846   6.846   7.506  0.5045  1.4535 -0.6103
 4115TIP3   OH233903   2.009   5.721   0.113  0.0164  0.0966  0.4732
 4115TIP3    H133904   1.964   5.779   0.053 -0.9222 -0.4026  0.6768
 4115TIP3    H233905   1.960   5.729   0.195 -0.2612 -1.1191  0.4465
 4116TIP3   OH233906   2.178   1.586   2.323  0.1301  0.0511  0.4910
 4116TIP3    H133907   2.095   1.540   2.318 -0.6491  1.4869 -0.5244
 4116TIP3    H233908   2.214   1.562   2.409 -1.0850 -0.9737  0.7389
 4117TIP3   OH233909   6.852   1.790   7.702 -0.2326 -0.3971  1.1295
 4117TIP3    H133910   6.770   1.839   7.705 -0.0047 -0.0479  1.8576
 4117TIP3    H233911   6.876   1.791   7.609 -0.9703 -0.3739  0.9318
 4118TIP3   OH233912   5.537   6.087   0.745 -0.5365  0.2800 -0.1010
 4118TIP3    H133913   5.451   6.112   0.710 -0.0777  2.7061  0.3418
 4118TIP3    H233914   5.575   6.032   0.677 -2.8373 -1.8221  0.1719
 4119TIP3   OH233915   5.664   2.630   7.613 -0.2560 -0.0918  0.2960
 4119TIP3    H133916   5.616   2.649   7.532 -0.5179  0.6152  0.6099
 4119TIP3    H233917   5.755   2.647   7.591 -0.0669 -1.8562 -0.4291
 4120TIP3   OH233918   3.326   3.829   8.190  0.4652 -0.4359  0.0357
 4120TIP3    H133919   3.398   3.876   8.232  1.0301 -0.1884 -1.1618
 4120TIP3    H233920   3.346   3.736   8.203  0.6880 -0.3602  0.2190
 4121TIP3   OH233921   3.975   0.570   8.527  0.0798 -0.2413  0.4496
 4121TIP3    H133922   4.040   0.572   8.597 -1.2128 -0.5066  1.7238
 4121TIP3    H233923   4.015   0.515   8.459  2.0749  1.4331  0.1834
 4122TIP3   OH233924   1.290   0.919   1.012  0.1856  0.8106 -0.3031
 4122TIP3    H133925   1.284   0.997   1.066  2.2724 -0.0093  1.2349
 4122TIP3    H233926   1.370   0.931   0.961  0.3136 -0.1367 -0.3474
 4123TIP3   OH233927   5.948   2.341   1.402 -0.0869  0.7896  0.1813
 4123TIP3    H133928   6.043   2.334   1.394 -0.1468 -0.5823  0.4789
 4123TIP3    H233929   5.926   2.291   1.480 -1.3804 -2.0148 -1.8111
 4124TIP3   OH233930   0.180   1.141   7.888 -0.1130  0.2268  1.0351
 4124TIP3    H133931   0.228   1.095   7.819 -0.3186  2.0293 -0.3821
 4124TIP3    H233932   0.247   1.164   7.952  0.1937 -0.9215  1.1382
 4125TIP3   OH233933   5.813   2.058   0.123 -0.2425 -0.0262 -0.0081
 4125TIP3    H133934   5.840   2.083   0.035 -2.4019  2.2051 -0.1724
 4125TIP3    H233935   5.790   1.965   0.116  3.6629 -1.1153 -0.6126
 4126TIP3   OH233936   2.902   3.407   0.056 -0.2771 -0.1538 -0.3250
 4126TIP3    H133937   2.889   3.500   0.076  0.2410  0.0322 -0.8118
 4126TIP3    H233938   2.835   3.387  -0.010  0.6314  0.3095 -1.4271
 4127TIP3   OH233939   0.415   5.338   7.627 -0.2148  0.6745 -0.4654
 4127TIP3    H133940   0.330   5.365   7.663  0.0775  0.5960  0.2933
 4127TIP3    H233941   0.433   5.404   7.559 -0.8368  0.7429 -0.5748
 4128TIP3   OH233942   0.395   3.046   1.147 -0.1527  1.0122 -0.1248
 4128TIP3    H133943   0.483   3.082   1.151  0.0349  0.4613  1.1946
 4128TIP3    H233944   0.352   3.095   1.077  0.8013  2.1596  0.0651
 4129TIP3   OH233945   1.186   6.243   2.573  0.1947 -0.1046  0.4766
 4129TIP3    H133946   1.252   6.303   2.608 -1.1913  1.0479  1.2299
 4129TIP3    H233947   1.102   6.285   2.593 -0.7618 -0.5653 -2.0914
 4130TIP3   OH233948   0.196   3.787   7.642 -0.1781 -0.2028 -0.0343
 4130TIP3    H133949   0.166   3.785   7.733 -1.1784  0.0438 -0.3524
 4130TIP3    H233950   0.116   3.799   7.590  0.5035  1.0255 -0.8712
 4131TIP3   OH233951   2.927   2.878   0.105  0.0430 -0.2477 -0.1156
 4131TIP3    H133952   2.966   2.943   0.164  0.3605 -2.0857  1.8562
 4131TIP3    H233953   3.001   2.841   0.057  0.0185  0.0293 -0.3651
 4132TIP3   OH233954   1.171   3.903   1.761 -0.1908  0.7960 -0.5378
 4132TIP3    H133955   1.194   3.909   1.668  0.7064  1.2877 -0.2919
 4132TIP3    H233956   1.135   3.989   1.782 -1.6473  0.2668 -0.7368
 4133TIP3   OH233957   5.260   3.437   2.449  0.2475  0.0318  0.1236
 4133TIP3    H133958   5.329   3.370   2.451  1.6537  1.4084  1.0944
 4133TIP3    H233959   5.272   3.481   2.365  2.9529  2.4845  1.5977
 4134TIP3   OH233960   2.065   3.381   8.397  0.1150 -0.2730 -0.1216
 4134TIP3    H133961   2.067   3.427   8.481 -0.8968 -1.7382  0.7411
 4134TIP3    H233962   2.152   3.341   8.389  0.1997 -0.1600  0.2319
 4135TIP3   OH233963   5.938   2.798   0.909 -0.7031 -0.1726  0.1527
 4135TIP3    H133964   5.919   2.708   0.937  0.5229  0.1642  2.2590
 4135TIP3    H233965   6.021   2.792   0.863 -0.2610 -0.0623  0.9074
 4136TIP3   OH233966   0.886   6.178   8.604 -0.2519 -0.1657 -0.1881
 4136TIP3    H133967   0.916   6.195   8.693 -2.5693  2.2946  0.2758
 4136TIP3    H233968   0.938   6.238   8.550  2.2341 -2.7133 -0.8559
 4137TIP3   OH233969   0.369   2.295   7.424  0.0931 -0.6088  0.0265
 4137TIP3    H133970   0.455   2.322   7.390  0.2760 -2.7634 -1.4467
 4137TIP3    H233971   0.390   2.244   7.503  0.2011 -1.0634 -0.2861
 4138TIP3   OH233972   2.257   4.012   2.839 -0.0321 -0.0701  0.4819
 4138TIP3    H133973   2.182   4.067   2.816 -0.4153 -0.9407 -0.4151
 4138TIP3    H233974   2.274   4.032   2.931  0.3687  2.1441 -0.0341
 4139TIP3   OH233975   0.527   1.144   0.393 -0.5044  0.2879 -0.7874
 4139TIP3    H133976   0.491   1.135   0.481 -0.9101 -1.9945 -1.1338
 4139TIP3    H233977   0.478   1.217   0.355 -0.8075  0.8522  0.6112
 4140TIP3   OH233978   5.970   5.701   2.891  0.2923 -0.2222  0.7534
 4140TIP3    H133979   5.997   5.716   2.981 -1.1379 -1.1166  1.3579
 4140TIP3    H233980   5.876   5.721   2.890  0.2492 -0.3778 -0.5005
 4141TIP3   OH233981   2.041   1.611   7.988 -0.4089 -0.7817 -0.2612
 4141TIP3    H133982   2.122   1.617   8.038 -1.0430 -0.6823  0.7878
 4141TIP3    H233983   2.069   1.598   7.898  0.7730 -0.5107  0.0521
 4142TIP3   OH233984   3.391   2.067   6.813  0.3989 -0.0991 -0.1484
 4142TIP3    H133985   3.328   2.133   6.785 -2.4392 -1.2126  2.9085
 4142TIP3    H233986   3.438   2.108   6.885 -0.1089 -0.7407  0.5692
 4143TIP3   OH233987   1.356   2.707   0.996  0.4541  0.2274  0.1174
 4143TIP3    H133988   1.275   2.669   0.963  0.3639  0.4740  0.0532
 4143TIP3    H233989   1.348   2.701   1.091 -0.6267  2.2296  0.2144
 4144TIP3   OH233990   2.581   3.742   2.233 -0.4344  0.1063 -0.0169
 4144TIP3    H133991   2.595   3.648   2.246  0.0077 -0.1910 -2.1730
 4144TIP3    H233992   2.491   3.757   2.260 -0.4560 -0.9005  0.5231
 4145TIP3   OH233993   0.360   1.487   1.995  0.1716 -0.4108 -0.7358
 4145TIP3    H133994   0.390   1.523   1.912  1.2989 -0.2257 -0.2766
 4145TIP3    H233995   0.277   1.532   2.012  0.3195  0.1268 -1.3853
 4146TIP3   OH233996   3.111   0.090   8.082  0.1314 -0.5665 -0.2137
 4146TIP3    H133997   3.137   0.172   8.041 -1.4662  0.1601  0.1367
 4146TIP3    H233998   3.034   0.113   8.134  1.1738 -1.7616  1.9803
 4147TIP3   OH233999   6.303   0.981   1.298 -0.2341  0.0102  0.0775
 4147TIP3    H134000   6.339   1.045   1.360  0.2641 -0.9349  0.7985
 4147TIP3    H234001   6.302   1.027   1.214 -0.7371  1.2578  0.7397
 4148TIP3   OH234002   0.543   1.657   8.590 -0.2837 -0.0628 -0.1686
 4148TIP3    H134003   0.498   1.697   8.665  0.3000 -0.0051  0.1596
 4148TIP3    H234004   0.620   1.712   8.576 -1.3241  1.0387 -2.0094
 4149TIP3   OH234005   2.747   2.896   7.125  0.6448  0.3449 -0.5051
 4149TIP3    H134006   2.808   2.962   7.094  0.3611  0.2292 -1.3339
 4149TIP3    H234007   2.768   2.818   7.074  0.7614 -0.1133  0.2299
 4150TIP3   OH234008   2.475   5.188   7.555  0.2902 -0.0877  0.3309
 4150TIP3    H134009   2.456   5.133   7.631 -0.0505  0.9243  0.9984
 4150TIP3    H234010   2.430   5.271   7.573  1.1757  0.5826 -0.4319
 4151TIP3   OH234011   5.963   5.958   0.130 -0.4363  0.5892 -0.0711
 4151TIP3    H134012   6.014   5.944   0.210 -0.7246 -0.8748 -0.1085
 4151TIP3    H234013   5.948   6.052   0.127  0.2100  0.7521  1.2105
 4152TIP3   OH234014   6.654   0.789   6.707 -0.1842  0.4292 -0.3980
 4152TIP3    H134015   6.656   0.749   6.620 -0.8295  1.0031 -0.6890
 4152TIP3    H234016   6.716   0.862   6.702  0.2319  0.0941 -0.1840
 4153TIP3   OH234017   5.916   4.863   7.760  0.2327  0.6205  0.3568
 4153TIP3    H134018   5.884   4.776   7.735  0.0434  0.4726  1.1000
 4153TIP3    H234019   5.955   4.898   7.680  5.1369 -2.2157  1.0928
 4154TIP3   OH234020   0.650   0.538   7.188 -0.0915 -0.2345 -0.2904
 4154TIP3    H134021   0.559   0.559   7.170 -0.5107 -1.4381  0.3410
 4154TIP3    H234022   0.648   0.449   7.224  1.0813  0.5392  1.8737
 4155TIP3   OH234023   3.046   1.194   7.820 -0.2076 -0.0544 -0.4102
 4155TIP3    H134024   2.969   1.177   7.874  1.1016 -1.7809  1.0055
 4155TIP3    H234025   3.109   1.236   7.879 -0.2143  1.8916 -1.6959
 4156TIP3   OH234026   3.804   0.364   8.568  0.4913  0.3027  0.1490
 4156TIP3    H134027   3.869   0.426   8.600  1.2065 -0.9253  1.1857
 4156TIP3    H234028   3.726   0.382   8.620  0.7509  0.2081  0.5712
 4157TIP3   OH234029   1.628   3.595   7.726 -0.3240 -0.2474 -0.3705
 4157TIP3    H134030   1.613   3.514   7.776 -1.0086  0.0865 -0.0274
 4157TIP3    H234031   1.628   3.566   7.635 -1.3833 -0.5290 -0.2983
 4158TIP3   OH234032   4.557   4.284   1.679 -0.1938  0.7475  0.1967
 4158TIP3    H134033   4.549   4.338   1.600 -3.0478  1.3432  0.7847
 4158TIP3    H234034   4.563   4.348   1.750 -0.8883  0.2868  0.6828
 4159TIP3   OH234035   6.103   1.922   7.890  0.2291  0.4270 -0.0825
 4159TIP3    H134036   6.057   1.868   7.827  0.9943 -0.1755 -0.1398
 4159TIP3    H234037   6.111   1.867   7.968  0.7233  0.5755 -0.0266
 4160TIP3   OH234038   3.323   6.104   1.550  0.8498  0.5337  0.5380
 4160TIP3    H134039   3.376   6.038   1.504 -0.3685  1.1433 -1.8906
 4160TIP3    H234040   3.275   6.054   1.616  0.9894 -0.7964 -0.3253
 4161TIP3   OH234041   6.801   2.677   8.152 -0.0882 -0.1772  0.0645
 4161TIP3    H134042   6.794   2.603   8.091  3.1428 -1.2970  0.8288
 4161TIP3    H234043   6.770   2.752   8.102  0.5630 -1.3576 -2.2918
 4162TIP3   OH234044   5.496   5.452   0.661  0.5964 -0.1917  0.1697
 4162TIP3    H134045   5.554   5.518   0.700 -0.9300  0.9770  0.5813
 4162TIP3    H234046   5.520   5.370   0.705  0.6668  0.6066  1.7166
 4163TIP3   OH234047   2.481   4.757   1.603  0.2655  0.3432  0.1578
 4163TIP3    H134048   2.453   4.848   1.597  0.5939  0.4529  0.2721
 4163TIP3    H234049   2.407   4.707   1.569  0.7815  0.7493 -1.6846
 4164TIP3   OH234050   2.141   4.254   7.958 -0.5169  0.5408 -0.7262
 4164TIP3    H134051   2.071   4.219   8.013 -0.9287  1.3605 -0.7278
 4164TIP3    H234052   2.096   4.289   7.881 -0.1047  1.1135 -0.7072
 4165TIP3   OH234053   1.114   3.311   1.448  0.0480  0.1348 -0.0921
 4165TIP3    H134054   1.118   3.219   1.473 -1.4258 -0.1544 -0.8311
 4165TIP3    H234055   1.109   3.358   1.531  2.7800 -0.2623  0.3884
 4166TIP3   OH234056   5.011   2.616   0.279 -0.3816  0.2370 -0.3523
 4166TIP3    H134057   5.040   2.563   0.354 -1.3296  0.0384 -0.1169
 4166TIP3    H234058   5.044   2.704   0.298  0.2113 -0.0132 -0.1823
 4167TIP3   OH234059   0.618   3.212   2.948 -0.3888 -0.1783  0.0968
 4167TIP3    H134060   0.644   3.129   2.907 -3.3008 -0.8044 -0.7073
 4167TIP3    H234061   0.588   3.266   2.874 -0.6957  0.7091  0.8576
 4168TIP3   OH234062   3.903   6.496   7.835 -0.3086  0.4208  0.3795
 4168TIP3    H134063   3.947   6.532   7.758 -2.4092  0.5335 -0.8525
 4168TIP3    H234064   3.906   6.401   7.822 -2.1148  0.4606 -0.8141
 4169TIP3   OH234065   0.198   2.292   2.695  0.7093 -0.4005 -0.0527
 4169TIP3    H134066   0.143   2.309   2.619  1.8114 -0.7024 -0.9576
 4169TIP3    H234067   0.143   2.240   2.753 -0.1232 -0.2643 -0.6948
 4170TIP3   OH234068   5.757   1.920   2.494  0.5537  0.1833 -0.1142
 4170TIP3    H134069   5.765   1.955   2.406 -1.7280 -1.7033 -1.1994
 4170TIP3    H234070   5.713   1.989   2.543 -1.1676  0.0785 -1.3994
 4171TIP3   OH234071   6.513   4.685   2.237 -0.1247 -0.4266  0.5908
 4171TIP3    H134072   6.448   4.722   2.177 -0.4378 -1.3142  0.3635
 4171TIP3    H234073   6.597   4.700   2.194 -0.3614 -1.2872 -0.2291
 4172TIP3   OH234074   2.974   6.591   1.243  0.0566 -0.2874  0.3822
 4172TIP3    H134075   3.062   6.609   1.210 -0.3934  0.5524 -0.3864
 4172TIP3    H234076   2.915   6.633   1.180 -0.8471  0.9675  1.9718
 4173TIP3   OH234077   0.258   6.862   0.403  0.2063 -0.2034  0.4561
 4173TIP3    H134078   0.344   6.904   0.403 -0.0976  0.4490 -0.3983
 4173TIP3    H234079   0.239   6.847   0.310 -0.2767 -1.0219  0.6794
 4174TIP3   OH234080   6.754   0.559   1.132  0.3698 -0.1775 -0.1711
 4174TIP3    H134081   6.705   0.638   1.108  2.6339  0.7707 -2.1184
 4174TIP3    H234082   6.688   0.501   1.171 -1.7063  2.0116 -0.1761
 4175TIP3   OH234083   4.474   6.815   8.206  0.0496 -0.1929  0.2879
 4175TIP3    H134084   4.497   6.901   8.170 -3.9882  1.1116  0.3347
 4175TIP3    H234085   4.534   6.754   8.163  2.0249  2.4168 -0.9591
 4176TIP3   OH234086   2.878   1.006   1.163 -0.3303  0.5313 -0.4116
 4176TIP3    H134087   2.848   1.074   1.103 -1.0082  0.0603 -0.6243
 4176TIP3    H234088   2.817   1.011   1.237  0.5913  1.2113  0.3252
 4177TIP3   OH234089   5.147   3.567   7.589 -0.0465 -0.2582  0.6395
 4177TIP3    H134090   5.134   3.610   7.504  0.0155  0.3931  0.9552
 4177TIP3    H234091   5.238   3.586   7.612 -0.0011 -0.6082  0.7610
 4178TIP3   OH234092   1.914   1.894   2.421 -0.3578 -0.0925  0.3361
 4178TIP3    H134093   1.848   1.849   2.474 -0.6348 -0.7813 -0.5612
 4178TIP3    H234094   1.940   1.829   2.356  0.6454  0.4328  0.1949
 4179TIP3   OH234095   6.156   2.839   0.700  0.4619  0.1015  0.0662
 4179TIP3    H134096   6.155   2.831   0.604  0.7892  0.2874  0.0473
 4179TIP3    H234097   6.247   2.821   0.724  0.3483 -0.0854  0.3550
 4180TIP3   OH234098   3.386   4.585   6.777 -1.0809 -0.0620 -0.1025
 4180TIP3    H134099   3.465   4.637   6.792 -1.3149  0.5148 -0.8110
 4180TIP3    H234100   3.317   4.649   6.764 -1.6635 -0.5656  0.4517
 4181TIP3   OH234101   4.289   6.251   8.082 -0.5581  0.2124  0.0346
 4181TIP3    H134102   4.268   6.160   8.104  1.4090 -0.1540  0.6203
 4181TIP3    H234103   4.347   6.280   8.152  2.7455  0.2963 -2.4557
 4182TIP3   OH234104   4.632   3.382   8.399  0.0084  0.0534  0.0722
 4182TIP3    H134105   4.631   3.355   8.491  1.3817 -0.8700 -0.1605
 4182TIP3    H234106   4.640   3.478   8.403  0.0549  0.0214  0.9209
 4183TIP3   OH234107   1.192   2.460   8.397 -0.6336 -0.0657  0.1947
 4183TIP3    H134108   1.207   2.519   8.323  1.6612  1.5819  1.8084
 4183TIP3    H234109   1.260   2.393   8.389 -0.9412 -0.3984  0.3448
 4184TIP3   OH234110   4.114   3.935   6.790  0.4007 -0.2229 -0.5416
 4184TIP3    H134111   4.137   4.027   6.802  0.4330 -0.2277 -0.5692
 4184TIP3    H234112   4.186   3.898   6.740  1.6561 -0.8374  1.5773
 4185TIP3   OH234113   3.305   1.848   1.545  0.6028 -0.1167  0.2570
 4185TIP3    H134114   3.234   1.799   1.502  0.3959  0.6281 -0.2746
 4185TIP3    H234115   3.371   1.859   1.477  0.5744  0.4809  0.3231
 4186TIP3   OH234116   2.052   0.690   8.024 -0.1274  0.2162  0.2599
 4186TIP3    H134117   2.017   0.658   7.942  1.5929 -1.4288  0.1138
 4186TIP3    H234118   2.104   0.766   8.000  2.2332 -1.5659 -0.5769
 4187TIP3   OH234119   0.126   5.368   2.589 -0.3228 -0.4186  0.3459
 4187TIP3    H134120   0.076   5.431   2.640  1.3678  1.3694 -0.0846
 4187TIP3    H234121   0.168   5.312   2.655 -2.1180 -1.3892  0.7217
 4188TIP3   OH234122   5.230   1.306   1.420  0.4418  0.6319  0.2844
 4188TIP3    H134123   5.219   1.211   1.415 -1.1540  0.8310 -0.7647
 4188TIP3    H234124   5.308   1.318   1.473 -0.3249 -1.2187  1.9547
 4189TIP3   OH234125   5.847   3.917   0.115 -0.4804 -0.0491  0.1553
 4189TIP3    H134126   5.932   3.916   0.159 -1.4065  0.1937  2.0352
 4189TIP3    H234127   5.823   3.824   0.108 -0.4771 -0.0792  0.5044
 4190TIP3   OH234128   6.779   3.062   8.438  0.0969 -0.2971  0.7157
 4190TIP3    H134129   6.787   3.072   8.343  0.5541  0.2492  0.8060
 4190TIP3    H234130   6.722   3.134   8.465 -0.6553 -0.9050  0.7632
 4191TIP3   OH234131   6.494   4.455   1.349 -0.2551  0.0481 -0.1213
 4191TIP3    H134132   6.451   4.370   1.348 -0.9584  0.3697 -1.9873
 4191TIP3    H234133   6.571   4.444   1.293  1.4289 -0.1576  2.1103
 4192TIP3   OH234134   4.530   0.058   7.569 -0.0502 -0.4597  0.0545
 4192TIP3    H134135   4.615   0.025   7.541 -0.6887 -1.3959 -0.8372
 4192TIP3    H234136   4.499   0.110   7.495 -1.0626 -1.6630 -0.3995
 4193TIP3   OH234137   2.811   4.424   0.665 -0.1190 -0.3376  0.3196
 4193TIP3    H134138   2.796   4.397   0.574  0.3486 -0.1319  0.1797
 4193TIP3    H234139   2.748   4.372   0.716 -1.4597  0.6459 -0.2604
 4194TIP3   OH234140   0.035   6.854   8.054  0.6470 -0.1285 -0.3500
 4194TIP3    H134141  -0.028   6.873   8.123  0.5904 -1.6810  0.0808
 4194TIP3    H234142   0.104   6.804   8.099  1.0583 -0.3781 -1.2406
 4195TIP3   OH234143   4.073   4.201   2.530 -0.0317 -0.7939 -0.2538
 4195TIP3    H134144   4.093   4.145   2.606  2.5353 -1.1230 -1.0596
 4195TIP3    H234145   4.112   4.285   2.552  0.7741 -0.9059 -1.1884
 4196TIP3   OH234146   0.589   2.972   1.850  0.2029  0.0511  0.4167
 4196TIP3    H134147   0.518   3.035   1.859  1.0135  1.1446 -0.6516
 4196TIP3    H234148   0.633   2.973   1.935  0.3920  1.1622  0.3186
 4197TIP3   OH234149   6.637   5.027   0.231  0.3028 -0.7808 -0.2464
 4197TIP3    H134150   6.673   5.070   0.154 -0.3798 -0.9194 -0.6476
 4197TIP3    H234151   6.584   5.095   0.273  0.1796 -0.8862 -0.2321
 4198TIP3   OH234152   4.268   4.790   0.013 -0.0183 -0.0949 -0.3588
 4198TIP3    H134153   4.227   4.808  -0.071  0.0285  0.9327 -0.1707
 4198TIP3    H234154   4.328   4.863   0.027 -0.0744 -0.2212  0.5962
 4199TIP3   OH234155   1.776   1.822   1.647  0.0988  0.3610  0.4850
 4199TIP3    H134156   1.783   1.870   1.565 -1.1658  0.9304  0.6805
 4199TIP3    H234157   1.727   1.743   1.624 -0.6673  0.7420  0.7522
 4200TIP3   OH234158   1.130   4.666   1.238 -0.7009 -0.2226 -0.0485
 4200TIP3    H134159   1.202   4.720   1.205 -0.1705  0.6091  2.3019
 4200TIP3    H234160   1.054   4.693   1.186  0.2255  0.3922 -1.1418
 4201TIP3   OH234161   6.747   4.808   0.353 -0.1199 -0.2618  0.1299
 4201TIP3    H134162   6.702   4.883   0.316  0.7944 -0.4402 -1.4607
 4201TIP3    H234163   6.717   4.734   0.300  0.2613 -0.7320  0.5646
 4202TIP3   OH234164   6.636   5.527   1.366  0.1890  0.1147 -0.3549
 4202TIP3    H134165   6.673   5.561   1.284 -0.0469  0.9513 -0.1186
 4202TIP3    H234166   6.577   5.595   1.396 -0.8875 -0.8364 -0.2626
 4203TIP3   OH234167   5.932   0.055   1.208 -0.1882 -0.1671  0.2763
 4203TIP3    H134168   5.891  -0.003   1.273  1.5200  0.2681  1.8182
 4203TIP3    H234169   5.937   0.001   1.129 -0.4796 -1.4407  1.0815
 4204TIP3   OH234170   0.926   4.781   8.594  0.0769  0.3193  0.0792
 4204TIP3    H134171   0.905   4.704   8.541 -1.0780  1.3964 -1.1080
 4204TIP3    H234172   1.006   4.757   8.641  1.6936 -0.3913 -2.8051
 4205TIP3   OH234173   0.015   5.226   8.212  0.0873  0.8716  0.0051
 4205TIP3    H134174  -0.075   5.258   8.220  0.2024  1.2635 -0.2149
 4205TIP3    H234175   0.023   5.161   8.281 -1.3215 -1.4903 -1.9103
 4206TIP3   OH234176   6.688   1.865   8.461  0.2549 -0.2030 -0.2979
 4206TIP3    H134177   6.763   1.855   8.403  0.9957  2.2305  0.1389
 4206TIP3    H234178   6.644   1.945   8.430 -1.8898 -1.2673 -0.2148
 4207TIP3   OH234179   4.962   6.672   7.694 -0.2176 -0.3425  0.4788
 4207TIP3    H134180   5.000   6.738   7.636 -0.0585 -1.6896 -1.0313
 4207TIP3    H234181   5.034   6.644   7.750  0.5394 -1.3597 -0.9331
 4208TIP3   OH234182   5.386   2.273   8.228 -0.2627 -0.2377 -0.2241
 4208TIP3    H134183   5.408   2.180   8.216  0.2997 -0.1179 -0.1675
 4208TIP3    H234184   5.345   2.298   8.145 -0.6028 -0.5902 -0.1656
 4209TIP3   OH234185   3.416   6.529   0.925 -0.2959 -0.0564  0.1735
 4209TIP3    H134186   3.424   6.479   1.006 -0.4604 -1.2519 -0.5341
 4209TIP3    H234187   3.466   6.479   0.861  0.9758  1.5663 -0.1807
 4210TIP3   OH234188   3.858   3.335   8.389 -0.8955 -0.4876 -0.0482
 4210TIP3    H134189   3.795   3.343   8.317 -0.5668  1.4490 -0.1718
 4210TIP3    H234190   3.820   3.388   8.460  0.0555 -0.2092  0.2634
 4211TIP3   OH234191   4.196   5.659   6.750 -0.5643  0.1711 -0.3768
 4211TIP3    H134192   4.182   5.653   6.844  1.9208  0.6379  0.1097
 4211TIP3    H234193   4.177   5.572   6.717 -1.5846  0.0369  0.5245
 4212TIP3   OH234194   5.004   4.940   1.350 -0.0279  0.3787  0.0823
 4212TIP3    H134195   5.021   4.854   1.389 -0.7785  1.1867  2.3551
 4212TIP3    H234196   5.063   4.999   1.396 -0.2622  1.2418 -0.7039
 4213TIP3   OH234197   3.299   6.275   7.821  0.0541 -0.5327  0.2609
 4213TIP3    H134198   3.303   6.300   7.914  0.2779 -1.7377  0.5968
 4213TIP3    H234199   3.357   6.199   7.815 -0.8756 -1.1892 -0.6236
 4214TIP3   OH234200   3.258   2.058   1.174 -1.0081  0.5573 -0.0380
 4214TIP3    H134201   3.259   2.120   1.247  1.2206  0.4913  0.0554
 4214TIP3    H234202   3.311   2.100   1.106 -2.2190  0.1802 -1.2752
 4215TIP3   OH234203   2.089   6.684   7.763  0.4423  0.2702  0.0250
 4215TIP3    H134204   2.100   6.669   7.857  1.3574 -1.2956 -0.2995
 4215TIP3    H234205   2.168   6.648   7.723  0.3385  1.4362 -1.3262
 4216TIP3   OH234206   5.185   2.053   8.331 -0.0936 -0.4703 -0.2961
 4216TIP3    H134207   5.137   2.000   8.396  0.0894 -2.0621 -1.4043
 4216TIP3    H234208   5.123   2.122   8.307 -0.0156  0.4394  1.8521
 4217TIP3   OH234209   5.404   2.916   0.968  0.3450  1.1809 -0.0265
 4217TIP3    H134210   5.402   2.913   0.872  0.7721 -0.7529 -0.0182
 4217TIP3    H234211   5.482   2.867   0.992 -0.3739  0.6388  1.3362
 4218TIP3   OH234212   6.526   3.154   8.158  0.3144  0.2243 -0.1654
 4218TIP3    H134213   6.484   3.102   8.227 -0.8681  1.9585  0.4718
 4218TIP3    H234214   6.601   3.194   8.200  0.9415 -0.5282 -0.5308
 4219TIP3   OH234215   5.271   6.856   2.849 -0.0000 -0.0772 -0.1888
 4219TIP3    H134216   5.202   6.912   2.814 -2.3140 -1.0994  2.3929
 4219TIP3    H234217   5.322   6.914   2.906  0.2767  0.3306 -0.8461
 4220TIP3   OH234218   6.218   1.273   7.723 -0.0138 -0.3158  0.3220
 4220TIP3    H134219   6.198   1.270   7.630 -1.0193 -0.3631  0.5262
 4220TIP3    H234220   6.186   1.358   7.753  0.1302 -0.3764  0.6666
 4221TIP3   OH234221   4.640   0.800   2.554  0.4323  0.4345  0.4531
 4221TIP3    H134222   4.662   0.766   2.641 -0.2500 -1.3086 -0.0348
 4221TIP3    H234223   4.588   0.878   2.572 -0.2099 -0.2379  1.6294
 4222TIP3   OH234224   6.676   0.294   7.594  0.1152 -0.0271 -0.0325
 4222TIP3    H134225   6.627   0.332   7.522 -0.4919 -0.1834  0.2896
 4222TIP3    H234226   6.618   0.226   7.629  1.0349 -1.0229 -0.3886
 4223TIP3   OH234227   4.320   0.317   7.639  0.3353  0.1943 -0.5290
 4223TIP3    H134228   4.376   0.280   7.571  2.5102 -1.2650  1.8661
 4223TIP3    H234229   4.265   0.245   7.668  1.2072  0.0429  0.8847
 4224TIP3   OH234230   0.770   1.321   1.661  0.1376  0.1941 -0.0991
 4224TIP3    H134231   0.705   1.255   1.634  1.3476 -1.8361  1.5816
 4224TIP3    H234232   0.756   1.329   1.755  2.1904 -0.1969  0.2788
 4225TIP3   OH234233   5.855   5.753   0.002  0.1038 -0.2593 -0.3969
 4225TIP3    H134234   5.918   5.682   0.013  0.7980  0.1472 -1.5822
 4225TIP3    H234235   5.901   5.832   0.031  0.2840  0.0955 -1.6093
 4226TIP3   OH234236   0.014   2.243   2.929  0.4480 -0.0587  0.2334
 4226TIP3    H134237   0.058   2.318   2.969 -0.2297  0.1503  0.5897
 4226TIP3    H234238  -0.063   2.280   2.886  1.2422 -0.2469 -1.4488
 4227TIP3   OH234239   3.766   3.712   0.157 -0.0370 -0.4902 -0.8892
 4227TIP3    H134240   3.855   3.686   0.178 -0.3393 -1.7379 -1.0231
 4227TIP3    H234241   3.755   3.688   0.064 -0.6269 -0.7363 -0.7619
 4228TIP3   OH234242   1.468   4.482   6.678  0.2408 -0.0438 -0.2360
 4228TIP3    H134243   1.455   4.554   6.617  1.1878  0.2314 -0.1357
 4228TIP3    H234244   1.451   4.520   6.764  0.5993  0.0275 -0.1947
 4229TIP3   OH234245   1.650   1.164   7.279 -0.1581 -0.1960 -0.1223
 4229TIP3    H134246   1.575   1.202   7.324 -0.3446 -0.1654 -0.4523
 4229TIP3    H234247   1.626   1.168   7.186 -0.0124 -0.7631 -0.1864
 4230TIP3   OH234248   5.990   1.826   8.642  0.3868 -0.3119 -0.5101
 4230TIP3    H134249   5.957   1.757   8.699 -1.9000  1.0481 -0.0502
 4230TIP3    H234250   6.015   1.781   8.562  1.1732 -1.9334  0.6104
 4231TIP3   OH234251   4.467   5.604   2.839 -0.2112  0.6173 -0.2124
 4231TIP3    H134252   4.532   5.534   2.829 -0.3878  0.5732 -1.1031
 4231TIP3    H234253   4.405   5.590   2.768 -1.1681  0.7056  0.5920
 4232TIP3   OH234254   0.106   4.896   1.334  0.2852  0.0628  0.1518
 4232TIP3    H134255   0.171   4.948   1.381  0.1979 -0.2715  0.6481
 4232TIP3    H234256   0.096   4.940   1.250  2.0250 -0.5276 -0.4177
 4233TIP3   OH234257   3.853   4.933   7.867 -0.5859 -0.2166  0.2192
 4233TIP3    H134258   3.902   5.013   7.889 -0.4961  0.2031 -1.3988
 4233TIP3    H234259   3.825   4.946   7.776  0.5020 -2.5708 -0.5129
 4234TIP3   OH234260   0.976   1.502   7.390  0.0777 -0.7052 -0.1128
 4234TIP3    H134261   0.958   1.486   7.298 -0.5137 -1.8408  0.1818
 4234TIP3    H234262   1.071   1.497   7.397  0.1100 -0.8571 -0.6153
 4235TIP3   OH234263   3.776   6.397   7.439 -0.5406  0.0369 -0.1372
 4235TIP3    H134264   3.796   6.307   7.411 -1.0224 -0.0103 -0.3298
 4235TIP3    H234265   3.832   6.452   7.384 -1.0191 -0.0901 -0.7531
 4236TIP3   OH234266   4.471   5.952   8.490  0.5116  0.0773  0.0525
 4236TIP3    H134267   4.524   5.886   8.534  1.1963  0.9730  0.5961
 4236TIP3    H234268   4.492   6.034   8.534  0.7393  0.9058 -1.5025
 4237TIP3   OH234269   6.111   2.510   0.022  0.8376 -0.0150 -0.2167
 4237TIP3    H134270   6.075   2.562  -0.050  1.4316 -0.1640 -0.6331
 4237TIP3    H234271   6.197   2.483  -0.010  0.6153 -1.1035  0.0582
 4238TIP3   OH234272   6.147   6.016   8.486  0.2642  0.1016  0.1561
 4238TIP3    H134273   6.237   6.028   8.517  0.2967  0.8092 -0.1739
 4238TIP3    H234274   6.097   6.084   8.531  0.2356  0.8739 -0.9881
 4239TIP3   OH234275   5.544   0.796   7.674 -0.4794 -0.0081  0.1934
 4239TIP3    H134276   5.582   0.792   7.586  2.4104 -1.3366  1.3659
 4239TIP3    H234277   5.510   0.708   7.690 -0.1181 -0.0561  0.7262
 4240TIP3   OH234278   2.658   4.491   2.795  0.2059 -0.4151  0.3319
 4240TIP3    H134279   2.631   4.399   2.801  1.7485 -1.0682 -1.5912
 4240TIP3    H234280   2.729   4.500   2.859 -1.1670 -0.0169  1.8530
 4241TIP3   OH234281   2.957   5.176   0.594 -0.3587  0.5473 -0.0121
 4241TIP3    H134282   3.050   5.166   0.575  0.3410  0.7205  2.7887
 4241TIP3    H234283   2.949   5.266   0.626 -1.2569  0.1947  0.7876
 4242TIP3   OH234284   5.420   1.435   8.369 -0.5216 -0.1325  1.0809
 4242TIP3    H134285   5.346   1.431   8.308  1.9617 -1.9668 -2.1396
 4242TIP3    H234286   5.443   1.343   8.384  3.5974  0.1695 -1.6515
 4243TIP3   OH234287   4.677   0.965   7.483 -0.7697 -0.0635  0.0222
 4243TIP3    H134288   4.680   0.907   7.408  1.1955 -1.3258  0.9727
 4243TIP3    H234289   4.584   0.985   7.496 -1.1069  1.7061 -3.7458
 4244TIP3   OH234290   2.553   3.711   7.204  0.3401 -0.4129  0.1716
 4244TIP3    H134291   2.550   3.807   7.203  0.5079 -0.2576  3.3985
 4244TIP3    H234292   2.623   3.688   7.143  2.2649  1.7429  1.4091
 4245TIP3   OH234293   3.230   3.608   2.681 -0.0007 -0.0672 -0.0844
 4245TIP3    H134294   3.252   3.555   2.757 -0.8871 -0.4688 -0.0924
 4245TIP3    H234295   3.190   3.687   2.718  1.0806  0.4974 -0.0825
 4246TIP3   OH234296   2.866   0.934   0.801  0.3183  0.3289 -0.1487
 4246TIP3    H134297   2.949   0.893   0.825 -0.0295  0.6267  1.7146
 4246TIP3    H234298   2.883   1.028   0.808  0.6999  0.5542 -2.9722
 4247TIP3   OH234299   0.644   6.358   8.317 -0.7527 -0.2261 -0.0586
 4247TIP3    H134300   0.686   6.347   8.231 -1.7324  0.0896 -0.5903
 4247TIP3    H234301   0.569   6.415   8.300 -0.9478 -0.1413  1.0201
 4248TIP3   OH234302   3.678   2.090   0.417 -0.1327  0.2953  0.3672
 4248TIP3    H134303   3.683   2.105   0.323 -1.1554 -3.9774 -0.5715
 4248TIP3    H234304   3.763   2.053   0.440 -0.6992 -0.9733  0.5253
 4249TIP3   OH234305   0.858   5.012   0.375  0.6685 -0.0646 -0.2438
 4249TIP3    H134306   0.938   5.051   0.339  1.2004 -0.8631  0.0557
 4249TIP3    H234307   0.787   5.055   0.327  1.2011  1.6014  0.3714
 4250TIP3   OH234308   6.083   0.807   1.652  0.2944  0.5176 -0.0206
 4250TIP3    H134309   6.035   0.732   1.685  1.3501 -0.2165 -0.0912
 4250TIP3    H234310   6.110   0.781   1.564  0.0830  1.2618 -0.3147
 4251TIP3   OH234311   5.949   1.981   1.287 -0.3021 -0.0898  0.0155
 4251TIP3    H134312   5.883   2.048   1.268  1.5490  1.7166 -0.3561
 4251TIP3    H234313   6.025   2.007   1.235  1.2792 -1.1386  1.7184
 4252TIP3   OH234314   2.461   5.363   0.613  0.1618 -0.1569 -0.0152
 4252TIP3    H134315   2.552   5.357   0.585 -0.1857 -0.2850 -1.1875
 4252TIP3    H234316   2.437   5.273   0.636  0.2217 -0.1851 -0.0634
 4253TIP3   OH234317   3.168   4.866   1.141 -0.3648  0.2640 -0.2417
 4253TIP3    H134318   3.207   4.876   1.055  0.4593 -2.7145 -0.3319
 4253TIP3    H234319   3.179   4.773   1.162 -2.8503  0.3406  1.9770
 4254TIP3   OH234320   6.007   0.883   2.140 -0.2123  0.0766  0.1412
 4254TIP3    H134321   6.000   0.978   2.156  1.1978 -0.1012  2.2213
 4254TIP3    H234322   6.092   0.873   2.098 -0.7529 -0.1982 -0.9014
 4255TIP3   OH234323   0.119   4.290   0.209 -0.5660 -0.0305  0.5589
 4255TIP3    H134324   0.165   4.218   0.252 -1.6899 -0.4097  1.1692
 4255TIP3    H234325   0.042   4.250   0.170 -0.5391  0.6371 -0.1971
 4256TIP3   OH234326   0.943   1.491   1.574 -0.4599 -0.5108 -0.3099
 4256TIP3    H134327   0.891   1.418   1.608 -0.9079 -0.5065 -0.9617
 4256TIP3    H234328   0.967   1.464   1.485 -0.4988  0.0679 -0.5034
 4257TIP3   OH234329   0.725   3.242   3.198 -0.1522 -0.3505 -0.0191
 4257TIP3    H134330   0.674   3.221   3.120  0.9660 -2.3904 -0.2809
 4257TIP3    H234331   0.706   3.170   3.259 -0.4019  0.7993  1.3133
 4258TIP3   OH234332   5.241   1.162   7.729 -0.0933  0.3876  0.3577
 4258TIP3    H134333   5.217   1.208   7.649 -1.5504  0.1833  0.6467
 4258TIP3    H234334   5.201   1.075   7.720  1.3716 -0.3256  0.4613
 4259TIP3   OH234335   2.338   0.604   7.713  0.1444 -0.0629  0.1834
 4259TIP3    H134336   2.379   0.534   7.763  1.2349  0.0106 -0.5499
 4259TIP3    H234337   2.412   0.657   7.682 -0.5554  0.4598 -0.6480
 4260TIP3   OH234338   5.299   3.847   1.287  0.1932 -0.5152 -0.3038
 4260TIP3    H134339   5.300   3.929   1.237  1.6331  0.5513  1.3415
 4260TIP3    H234340   5.382   3.847   1.335 -1.2930 -1.1828  2.5003
 4261TIP3   OH234341   2.623   1.916   2.666  0.0147 -0.0790  0.2499
 4261TIP3    H134342   2.559   1.986   2.656  0.0747  0.1964  1.6731
 4261TIP3    H234343   2.640   1.886   2.576 -0.4297  1.3422 -0.3314
 4262TIP3   OH234344   1.907   2.204   7.147  0.6383 -1.0795  0.3815
 4262TIP3    H134345   1.872   2.292   7.132 -0.6733 -1.6616 -0.2337
 4262TIP3    H234346   1.958   2.211   7.227 -1.7476 -0.3283  1.9467
 4263TIP3   OH234347   2.270   3.964   1.786 -0.5726 -0.2942  0.8368
 4263TIP3    H134348   2.202   4.030   1.775  1.0682  1.3220 -0.0751
 4263TIP3    H234349   2.330   4.001   1.850  0.3607 -0.8971  0.3293
 4264TIP3   OH234350   6.571   4.642   8.652  0.3978 -0.0164  0.5700
 4264TIP3    H134351   6.531   4.605   8.730 -0.6274 -0.4063 -0.1258
 4264TIP3    H234352   6.500   4.686   8.606  0.8746 -0.2295 -0.4040
 4265TIP3   OH234353   0.669   2.545   7.360  0.2784  0.2037  0.9108
 4265TIP3    H134354   0.754   2.582   7.339 -0.6303  1.2508 -1.1882
 4265TIP3    H234355   0.636   2.599   7.432  1.8739 -1.0533  2.6849
 4266TIP3   OH234356   5.278   4.754   2.309 -0.1151 -0.8046  0.4389
 4266TIP3    H134357   5.363   4.729   2.344 -0.2957 -0.5453  1.0774
 4266TIP3    H234358   5.273   4.848   2.322  1.0397 -0.1183 -2.9698
 4267TIP3   OH234359   3.371   2.592   2.085 -0.1568 -0.3357  0.1308
 4267TIP3    H134360   3.328   2.507   2.070 -0.9388  0.2343 -1.0515
 4267TIP3    H234361   3.369   2.634   1.999  1.1608  0.4646  0.4803
 4268TIP3   OH234362   3.072   3.371   7.729  0.6612  0.1295  0.0239
 4268TIP3    H134363   3.047   3.427   7.656 -2.7167 -0.3525  0.6430
 4268TIP3    H234364   3.117   3.297   7.689 -1.1580 -0.1477 -1.6511
 4269TIP3   OH234365   1.378   3.472   2.396  0.2276  0.4121 -0.3856
 4269TIP3    H134366   1.303   3.416   2.374  1.4309 -1.0852 -0.8291
 4269TIP3    H234367   1.368   3.490   2.490 -0.3767 -0.2233 -0.3202
 4270TIP3   OH234368   2.322   5.362   0.206 -0.1462 -0.0216 -0.2904
 4270TIP3    H134369   2.360   5.281   0.240  2.3390  0.9136 -0.5818
 4270TIP3    H234370   2.380   5.431   0.241 -1.6864  1.5501 -0.7347
 4271TIP3   OH234371   0.153   6.753   0.173 -0.3948 -0.2011 -0.0674
 4271TIP3    H134372   0.189   6.665   0.159 -0.7775 -0.0801 -2.0668
 4271TIP3    H234373   0.176   6.801   0.093 -0.7851  1.3175  0.7044
 4272TIP3   OH234374   2.033   0.974   1.498  0.1088  0.0509 -0.8920
 4272TIP3    H134375   2.083   1.006   1.422  2.4697 -1.3295 -0.0500
 4272TIP3    H234376   2.022   1.051   1.554  0.6632  0.5452 -1.4446
 4273TIP3   OH234377   6.776   4.529   0.838  0.1425  0.5330  0.3039
 4273TIP3    H134378   6.867   4.554   0.825  0.5355 -0.7171  0.5118
 4273TIP3    H234379   6.745   4.503   0.751  0.4593 -0.4992  0.4864
 4274TIP3   OH234380   5.510   3.385   2.273 -0.0448  0.1018  0.2071
 4274TIP3    H134381   5.488   3.340   2.355 -0.9930 -0.7307 -0.4758
 4274TIP3    H234382   5.441   3.358   2.212  1.4612 -0.5025 -1.3081
 4275TIP3   OH234383   1.457   2.711   6.684 -0.2711  0.3407 -0.7422
 4275TIP3    H134384   1.530   2.745   6.737  0.4738 -1.1910 -0.7116
 4275TIP3    H234385   1.379   2.746   6.726  0.3838  0.6196  0.2967
 4276TIP3   OH234386   4.315   2.611   7.301  0.5742 -0.5007  0.2689
 4276TIP3    H134387   4.321   2.554   7.224 -1.3280 -1.4044  0.7526
 4276TIP3    H234388   4.260   2.684   7.273  1.4351  0.1563  0.2344
 4277TIP3   OH234389   0.369   6.486   7.370  0.2904  0.6234  0.4530
 4277TIP3    H134390   0.381   6.418   7.304 -1.2263 -0.1396  0.9136
 4277TIP3    H234391   0.347   6.565   7.320 -3.2880 -0.4851  0.0145
 4278TIP3   OH234392   6.659   4.316   0.957  0.2467 -0.5939 -0.3414
 4278TIP3    H134393   6.703   4.392   0.919 -0.7797  0.0059 -0.3770
 4278TIP3    H234394   6.671   4.327   1.052  0.5999 -0.7086 -0.3708
 4279TIP3   OH234395   0.307   2.358   2.175  0.1992 -0.1707 -0.9262
 4279TIP3    H134396   0.301   2.443   2.217  0.7305 -1.1527  1.2952
 4279TIP3    H234397   0.286   2.375   2.083  1.7000  2.5582 -0.8597
 4280TIP3   OH234398   3.002   6.070   1.730  0.7814  0.1980 -0.7455
 4280TIP3    H134399   3.080   6.015   1.719  0.7293 -0.0685  0.1308
 4280TIP3    H234400   2.998   6.086   1.824  0.6600  1.5166 -0.9645
 4281TIP3   OH234401   0.463   0.042   8.459 -0.2249 -0.0570  0.0559
 4281TIP3    H134402   0.439   0.120   8.408 -0.5352 -0.0895  0.1491
 4281TIP3    H234403   0.552   0.059   8.489  0.0931 -0.1814 -0.7778
 4282TIP3   OH234404   4.562   3.231   0.464  0.4812  0.2478  0.2451
 4282TIP3    H134405   4.572   3.149   0.512  0.0319  0.6870  1.1063
 4282TIP3    H234406   4.491   3.277   0.509  2.1788  2.1149  1.2068
 4283TIP3   OH234407   6.540   0.339   1.692 -0.2292  0.2839  0.0583
 4283TIP3    H134408   6.635   0.338   1.706 -0.2513 -0.4838  0.1622
 4283TIP3    H234409   6.504   0.332   1.781 -0.3737 -0.9918 -0.0837
 4284TIP3   OH234410   1.098   5.440   2.958 -0.6762 -0.3303  0.4603
 4284TIP3    H134411   1.072   5.356   2.997 -0.9950  0.2056  1.4407
 4284TIP3    H234412   1.016   5.490   2.954 -0.8945 -0.7644 -2.0038
 4285TIP3   OH234413   6.845   6.620   0.362  0.2749  0.0368 -0.1188
 4285TIP3    H134414   6.907   6.548   0.359 -0.0824 -0.2289 -1.5212
 4285TIP3    H234415   6.853   6.664   0.278  0.4755  1.6594  0.6958
 4286TIP3   OH234416   0.311   6.676   1.709  0.3841 -0.3255  0.2640
 4286TIP3    H134417   0.297   6.685   1.804  1.7207 -0.4835  0.4975
 4286TIP3    H234418   0.286   6.586   1.690 -0.6274 -0.0734  0.3016
 4287TIP3   OH234419   2.818   0.334   2.257 -0.6226  0.3685  0.6379
 4287TIP3    H134420   2.894   0.379   2.294  0.8642  0.1289 -1.8998
 4287TIP3    H234421   2.743   0.373   2.302  0.6895  4.0065  0.0245
 4288TIP3   OH234422   3.611   2.604   2.539 -0.2908 -0.3893 -0.7093
 4288TIP3    H134423   3.606   2.530   2.599  1.7508 -0.3268 -0.3980
 4288TIP3    H234424   3.628   2.679   2.595 -0.3168 -0.0177 -1.1944
 4289TIP3   OH234425   4.694   6.352   0.235 -0.0884  0.6740  0.2448
 4289TIP3    H134426   4.695   6.326   0.143 -1.8723 -0.0300  0.3802
 4289TIP3    H234427   4.681   6.447   0.233 -1.8990  0.4534 -0.2737
 4290TIP3   OH234428   4.824   1.335   2.776  1.0382 -1.1081  0.9741
 4290TIP3    H134429   4.868   1.250   2.767  2.4393 -0.1622 -3.0761
 4290TIP3    H234430   4.866   1.391   2.710 -1.6878  1.9600  1.5914
 4291TIP3   OH234431   6.817   2.370   8.644  0.0306  0.6313 -0.0098
 4291TIP3    H134432   6.816   2.446   8.585 -2.5431  0.3320 -0.4730
 4291TIP3    H234433   6.908   2.365   8.674  0.3750  3.7324 -0.1274
 4292TIP3   OH234434   4.410   1.884   7.690  0.1730  0.1774  0.0724
 4292TIP3    H134435   4.379   1.875   7.780  1.4064 -0.5631  0.4555
 4292TIP3    H234436   4.469   1.809   7.678  1.8234  1.5072 -0.5597
 4293TIP3   OH234437   4.347   0.637   0.257  1.0363 -0.6742 -0.1197
 4293TIP3    H134438   4.321   0.729   0.261 -0.4112 -1.0843  0.5093
 4293TIP3    H234439   4.434   0.636   0.296 -0.4933 -0.0609  3.8254
 4294TIP3   OH234440   3.815   2.308   2.523 -0.2729 -0.7882  0.1918
 4294TIP3    H134441   3.737   2.347   2.563 -0.7770 -0.3423 -1.1672
 4294TIP3    H234442   3.780   2.242   2.463  0.3953 -0.7073 -0.2918
 4295TIP3   OH234443   4.654   1.520   2.192 -0.0412  0.2898  0.0393
 4295TIP3    H134444   4.664   1.487   2.281 -0.0150 -2.5069 -0.8981
 4295TIP3    H234445   4.671   1.614   2.199  1.5519 -0.0953  2.6857
 4296TIP3   OH234446   4.389   1.408   2.125 -0.3515 -0.4559  0.5273
 4296TIP3    H134447   4.475   1.449   2.133  0.5164 -0.9346 -3.8030
 4296TIP3    H234448   4.392   1.335   2.187  0.0073  2.6905  4.6184
 4297TIP3   OH234449   2.325   5.607   8.570  0.2834  0.2512 -0.1928
 4297TIP3    H134450   2.282   5.631   8.488 -1.0727  0.1393  0.4432
 4297TIP3    H234451   2.318   5.512   8.574  0.1210  0.2746  0.1496
 4298TIP3   OH234452   0.381   5.733   1.846 -0.6950 -0.0568 -0.3981
 4298TIP3    H134453   0.407   5.722   1.754  2.2009 -1.8879  0.5005
 4298TIP3    H234454   0.337   5.651   1.868  0.8971 -0.7437  0.4338
 4299TIP3   OH234455   6.413   1.999   1.772  0.3001  0.0103 -0.0683
 4299TIP3    H134456   6.460   2.039   1.845  0.0628  0.5561 -0.2067
 4299TIP3    H234457   6.447   1.910   1.767 -0.1491 -0.2473  1.1305
 4300TIP3   OH234458   4.287   6.047   2.819 -0.1419  0.3472  0.3438
 4300TIP3    H134459   4.352   6.020   2.884  0.0778  0.1727  0.0542
 4300TIP3    H234460   4.309   5.996   2.740 -1.8256 -1.1877  0.8090
 4301TIP3   OH234461   5.178   5.047   1.022 -0.1913 -0.2439  0.1829
 4301TIP3    H134462   5.232   5.015   0.950  0.0394  0.5236  0.0088
 4301TIP3    H234463   5.240   5.089   1.082 -0.5192  0.1289  0.2669
 4302TIP3   OH234464   6.260   5.266   2.879  0.3790 -0.1439  0.4440
 4302TIP3    H134465   6.295   5.306   2.959 -0.4479  0.1214  0.6905
 4302TIP3    H234466   6.314   5.189   2.864  0.1240 -0.5744  1.6465
 4303TIP3   OH234467   2.568   6.126   1.822 -0.2953  0.1242  0.1804
 4303TIP3    H134468   2.543   6.189   1.755  0.2983 -1.1640 -1.2991
 4303TIP3    H234469   2.528   6.160   1.902 -1.1522  1.6178 -0.8299
 4304TIP3   OH234470   4.412   1.403   1.254  0.3136 -0.0879 -0.0425
 4304TIP3    H134471   4.498   1.434   1.281  1.0931 -1.2553 -1.0919
 4304TIP3    H234472   4.363   1.483   1.234  0.7912  0.6367  1.5654
 4305TIP3   OH234473   2.141   2.878   1.602  0.1040 -0.7512 -0.1361
 4305TIP3    H134474   2.152   2.907   1.511 -1.4936  1.9068  0.4109
 4305TIP3    H234475   2.224   2.836   1.624  0.8358 -0.7296 -2.5546
 4306TIP3   OH234476   5.495   5.635   1.141  0.6058  0.3631  0.4255
 4306TIP3    H134477   5.515   5.728   1.156 -0.3852  0.3343  2.2552
 4306TIP3    H234478   5.403   5.635   1.113  1.1078  0.0386 -1.2868
 4307TIP3   OH234479   6.682   5.966   8.630 -0.5793  0.0909  0.4776
 4307TIP3    H134480   6.660   5.925   8.713 -0.1718  0.1180  0.5999
 4307TIP3    H234481   6.776   5.951   8.620 -0.6926 -0.2535 -0.1619
 4308TIP3   OH234482   5.962   1.587   1.519  0.0824 -0.3224 -0.0847
 4308TIP3    H134483   5.871   1.564   1.536 -0.3175  0.4190 -1.1015
 4308TIP3    H234484   5.989   1.526   1.449  0.9600 -1.7483  1.4101
 4309TIP3   OH234485   6.693   0.480   2.444 -0.2528 -0.3739 -0.6963
 4309TIP3    H134486   6.693   0.408   2.507 -1.5749 -0.6438 -0.9706
 4309TIP3    H234487   6.644   0.550   2.487  1.5322  0.6199 -0.1905
 4310TIP3   OH234488   4.865   2.121   8.228 -0.8560 -0.1914 -0.3612
 4310TIP3    H134489   4.895   2.160   8.311 -0.8422  0.1816 -0.5398
 4310TIP3    H234490   4.799   2.182   8.196  0.9970  1.0890 -1.9534
 4311TIP3   OH234491   3.756   2.226   8.026 -0.3208  0.7453 -0.5653
 4311TIP3    H134492   3.731   2.204   7.936 -0.3938  0.7168 -0.5385
 4311TIP3    H234493   3.786   2.316   8.021 -0.7822  0.9059 -0.5317
 4312TIP3   OH234494   6.134   5.840   0.644  0.7071  0.2820 -0.7508
 4312TIP3    H134495   6.100   5.891   0.717 -0.4651 -0.0362 -1.0363
 4312TIP3    H234496   6.186   5.771   0.684 -1.9394 -1.4159  0.0196
 4313TIP3   OH234497   4.625   0.439   8.221 -0.6187  0.0911  0.3657
 4313TIP3    H134498   4.559   0.499   8.257  0.5135  1.5638  0.1140
 4313TIP3    H234499   4.692   0.434   8.289 -0.2537 -0.1250 -0.0050
 4314TIP3   OH234500   2.119   2.519   7.010 -0.4263  0.0257  1.1084
 4314TIP3    H134501   2.081   2.547   6.927 -0.4362 -0.7156  0.8510
 4314TIP3    H234502   2.056   2.549   7.076 -0.1184  1.1402  0.9057
 4315TIP3   OH234503   4.914   0.102   1.122  0.5393 -0.1345 -0.3507
 4315TIP3    H134504   4.904   0.081   1.215  0.6565 -1.1704 -0.5612
 4315TIP3    H234505   5.005   0.078   1.102  0.8753  1.1671 -0.4715
 4316TIP3   OH234506   3.170   2.451   1.043 -0.1108 -0.0054 -0.3082
 4316TIP3    H134507   3.167   2.436   1.137  0.6560 -2.4514 -0.6132
 4316TIP3    H234508   3.229   2.525   1.033  0.4990 -0.2703  1.0935
 4317TIP3   OH234509   6.861   1.099   2.150  0.1667  0.1165 -0.4976
 4317TIP3    H134510   6.825   1.150   2.222  1.5242 -0.5409  0.6827
 4317TIP3    H234511   6.894   1.165   2.088  0.4585  0.6902  0.2569
 4318TIP3   OH234512   4.335   0.875   7.983 -1.2324 -0.2395 -0.0285
 4318TIP3    H134513   4.261   0.868   7.923 -1.2880  1.0766 -0.1509
 4318TIP3    H234514   4.365   0.785   7.994 -0.4626 -0.4626 -2.9878
 4319TIP3   OH234515   6.646   3.772   1.887 -0.4287 -0.0129 -0.2154
 4319TIP3    H134516   6.601   3.757   1.804  1.3258 -1.2044 -1.0144
 4319TIP3    H234517   6.653   3.685   1.927  0.6056  0.2247  0.1552
 4320TIP3   OH234518   2.312   1.045   8.467 -0.7582  0.2087 -0.0361
 4320TIP3    H134519   2.334   1.138   8.464 -1.1195  0.4102  1.9563
 4320TIP3    H234520   2.296   1.021   8.376 -0.4682  2.0474 -0.6140
 4321TIP3   OH234521   0.715   2.718   1.541 -0.0578 -0.5304 -0.4249
 4321TIP3    H134522   0.763   2.750   1.618 -0.0782 -0.8414 -0.2811
 4321TIP3    H234523   0.649   2.659   1.577  1.3145 -2.3945 -0.8092
 4322TIP3   OH234524   0.187   5.933   6.536  0.2194 -0.2891  0.2217
 4322TIP3    H134525   0.101   5.923   6.495  1.8696 -2.3911 -3.1699
 4322TIP3    H234526   0.229   6.003   6.488  1.1593 -0.7403  0.3623
 4323TIP3   OH234527   5.254   0.416   1.202 -0.3560  0.2621 -0.6992
 4323TIP3    H134528   5.281   0.412   1.110 -2.1537 -0.9664 -1.2163
 4323TIP3    H234529   5.328   0.377   1.250 -0.4602 -1.5757 -1.9099
 4324TIP3   OH234530   0.832   2.031   0.514 -0.1568 -0.3180 -0.0238
 4324TIP3    H134531   0.746   2.010   0.476  0.8467 -2.9003 -1.0951
 4324TIP3    H234532   0.895   2.003   0.448  1.5741  1.0353  0.9581
 4325TIP3   OH234533   4.376   2.031   2.690 -0.1956  0.5031 -0.1704
 4325TIP3    H134534   4.360   1.949   2.736  0.5647  1.0433  1.0934
 4325TIP3    H234535   4.469   2.049   2.702 -0.0445  0.8607 -1.6262
 4326TIP3   OH234536   2.144   0.230   1.855 -0.2165  0.5453 -0.0016
 4326TIP3    H134537   2.055   0.231   1.820 -0.0408 -0.5295 -0.5125
 4326TIP3    H234538   2.136   0.188   1.940 -0.1492  0.0986 -0.2123
 4327TIP3   OH234539   1.923   4.364   1.009 -0.2984 -0.0769  0.1293
 4327TIP3    H134540   1.974   4.283   1.009 -0.8614 -0.4854  2.0299
 4327TIP3    H234541   1.988   4.434   1.020  0.0837 -0.3662 -0.2814
 4328TIP3   OH234542   5.519   6.774   8.113  0.0851 -0.4612  0.1501
 4328TIP3    H134543   5.561   6.706   8.165  0.9111 -2.3707 -2.7691
 4328TIP3    H234544   5.427   6.747   8.107 -0.1449  0.0910  1.0697
 4329TIP3   OH234545   1.932   5.612   8.246  0.2649 -0.2902 -0.3507
 4329TIP3    H134546   1.953   5.626   8.338  0.4803  2.8975 -0.7392
 4329TIP3    H234547   1.836   5.609   8.243  0.2422  0.0225 -0.0342
 4330TIP3   OH234548   6.717   2.778   0.357  0.4578  0.2334  0.0587
 4330TIP3    H134549   6.712   2.691   0.396  0.9261 -0.5472 -1.5316
 4330TIP3    H234550   6.627   2.810   0.355  0.1421 -0.6569 -0.2766
 4331TIP3   OH234551   1.463   5.854   7.593 -0.2709 -0.2889 -0.8037
 4331TIP3    H134552   1.376   5.816   7.582 -0.4476 -0.6327  1.2848
 4331TIP3    H234553   1.522   5.790   7.553 -0.9626  0.0582 -2.4369
 4332TIP3   OH234554   6.705   5.848   2.314 -0.0141  0.5636 -0.0979
 4332TIP3    H134555   6.673   5.787   2.381  1.4806  0.3298  0.4485
 4332TIP3    H234556   6.683   5.935   2.348 -0.6821  0.3922 -0.0806
 4333TIP3   OH234557   2.558   3.827   7.646 -0.2792  1.0963 -0.3760
 4333TIP3    H134558   2.651   3.812   7.631 -0.2419 -0.4736  1.1364
 4333TIP3    H234559   2.524   3.853   7.560  1.3395  0.5424 -1.2224
 4334TIP3   OH234560   0.282   3.779   0.556 -0.2093  0.1303 -0.1814
 4334TIP3    H134561   0.194   3.761   0.587  0.2216 -2.1414 -0.1028
 4334TIP3    H234562   0.317   3.841   0.619 -0.9562 -0.8038  1.2077
 4335TIP3   OH234563   1.956   3.534   0.929  0.1122 -0.5221  0.1187
 4335TIP3    H134564   1.904   3.525   1.009  1.4307  0.0386  1.0625
 4335TIP3    H234565   2.046   3.525   0.957  0.5857 -0.9853 -1.4260
 4336TIP3   OH234566   4.572   5.861   1.519 -0.4496 -0.0893 -0.2910
 4336TIP3    H134567   4.631   5.893   1.587 -0.7669  0.0830 -0.0934
 4336TIP3    H234568   4.489   5.844   1.565 -0.5002 -0.5049 -0.5278
 4337TIP3   OH234569   3.797   2.623   0.857 -0.1835  0.1536 -0.1186
 4337TIP3    H134570   3.840   2.698   0.899 -1.5915  0.5654  0.6629
 4337TIP3    H234571   3.869   2.570   0.824  0.9248  0.8283  1.1041
 4338TIP3   OH234572   6.472   1.764   1.173  0.2170  0.4712  0.4537
 4338TIP3    H134573   6.549   1.789   1.225  0.1652  1.1557  0.2194
 4338TIP3    H234574   6.401   1.760   1.237  0.5417 -0.6799  0.7565
 4339TIP3   OH234575   4.294   5.234   7.448  0.4630  0.1561 -0.6868
 4339TIP3    H134576   4.215   5.181   7.461 -0.1606  1.1627 -0.2663
 4339TIP3    H234577   4.356   5.199   7.511  0.4541 -0.8113 -1.1901
 4340TIP3   OH234578   5.327   0.366   0.213 -0.0264  0.0903 -0.1139
 4340TIP3    H134579   5.248   0.367   0.160  0.2024 -2.7053 -0.6438
 4340TIP3    H234580   5.295   0.369   0.303 -0.6765 -0.0615 -0.3369
 4341TIP3   OH234581   6.820   6.498   0.775  0.0690  0.1015  0.4950
 4341TIP3    H134582   6.742   6.540   0.738  0.7770  1.2436  0.2438
 4341TIP3    H234583   6.789   6.457   0.856 -0.9370 -0.0896  0.0290
 4342TIP3   OH234584   0.136   0.393   8.596 -0.4821  0.3868  0.4373
 4342TIP3    H134585   0.057   0.412   8.545 -0.2455 -0.6257 -0.3502
 4342TIP3    H234586   0.104   0.346   8.673 -0.5483 -1.5031 -0.6893
 4343TIP3   OH234587   0.166   4.744   7.907  0.3773 -0.0225 -0.5848
 4343TIP3    H134588   0.209   4.701   7.833  3.1095  0.2680  0.6970
 4343TIP3    H234589   0.177   4.683   7.980 -1.4793  0.0816 -0.1619
 4344TIP3   OH234590   1.733   1.979   8.140 -0.0145 -0.0345 -0.1235
 4344TIP3    H134591   1.780   2.033   8.076 -1.8118 -0.5636 -1.9948
 4344TIP3    H234592   1.770   1.891   8.130  0.8250  0.1982  0.7728
 4345TIP3   OH234593   1.467   2.282   7.970 -0.2127 -0.0392 -0.1466
 4345TIP3    H134594   1.400   2.331   7.921 -0.7880  0.1831  0.8365
 4345TIP3    H234595   1.545   2.286   7.914  0.8200  4.7708  1.1197
 4346TIP3   OH234596   5.387   0.762   1.427  0.2760  0.0865 -0.0915
 4346TIP3    H134597   5.311   0.735   1.478 -1.7269  0.5190 -2.6597
 4346TIP3    H234598   5.419   0.682   1.386  1.1563 -0.0666  0.8534
 4347TIP3   OH234599   4.653   6.521   7.365 -0.6317  0.1506 -0.0332
 4347TIP3    H134600   4.655   6.428   7.345 -1.0772  0.6179 -2.4662
 4347TIP3    H234601   4.740   6.552   7.342 -0.6378  0.4292  0.3120
 4348TIP3   OH234602   1.164   2.161   0.888 -0.0056 -0.1258  0.1586
 4348TIP3    H134603   1.163   2.254   0.866  0.0414 -0.6879 -2.4902
 4348TIP3    H234604   1.073   2.139   0.904 -0.0208  0.3425  0.7589
 4349TIP3   OH234605   3.012   6.110   0.123 -0.0012 -0.0183 -0.5334
 4349TIP3    H134606   2.934   6.067   0.158  0.2925  0.2540  0.4784
 4349TIP3    H234607   3.007   6.199   0.157  0.9258 -0.0955 -0.1885
 4350TIP3   OH234608   4.180   4.297   7.151 -0.0024  0.0150  0.5545
 4350TIP3    H134609   4.212   4.381   7.117  0.9061 -1.2089 -1.8733
 4350TIP3    H234610   4.254   4.263   7.202 -0.6265  0.9391  2.1556
 4351TIP3   OH234611   0.068   5.178   0.586  0.1648 -0.3526  0.1434
 4351TIP3    H134612   0.044   5.227   0.508 -0.0425  0.3331  0.6287
 4351TIP3    H234613   0.031   5.228   0.659  2.8021  0.6384  0.9133
 4352TIP3   OH234614   2.413   1.228   0.610 -0.0133 -0.2062 -0.4742
 4352TIP3    H134615   2.325   1.200   0.582 -0.8187  0.8315  0.8876
 4352TIP3    H234616   2.460   1.244   0.528 -0.8202 -1.5736 -1.2328
 4353TIP3   OH234617   6.675   6.209   1.067  0.5351 -0.0577  0.0535
 4353TIP3    H134618   6.740   6.275   1.043  0.0282  0.5596  0.3561
 4353TIP3    H234619   6.724   6.144   1.118  1.0398  0.0565 -0.2711
 4354TIP3   OH234620   5.946   4.454   8.585 -0.1707  0.2291 -0.5570
 4354TIP3    H134621   5.943   4.545   8.615  0.5626  0.1798 -0.3186
 4354TIP3    H234622   6.039   4.434   8.579 -0.3007  0.0011 -2.1763
 4355TIP3   OH234623   0.090   5.350   6.839  0.2173 -0.4476  0.5957
 4355TIP3    H134624   0.154   5.323   6.905  0.9272  1.0623  0.5582
 4355TIP3    H234625   0.045   5.424   6.879 -2.2594 -2.0656  1.0250
 4356TIP3   OH234626   4.928   1.608   7.071 -0.0968 -0.4294  0.8179
 4356TIP3    H134627   4.947   1.662   7.148 -0.6300  0.7726  0.1380
 4356TIP3    H234628   4.918   1.519   7.106 -0.4921  0.1095  2.1578
 4357TIP3   OH234629   1.959   5.048   1.092  0.4078 -0.3541  1.1178
 4357TIP3    H134630   2.022   5.103   1.044  2.1077 -1.3884  2.0491
 4357TIP3    H234631   1.928   5.105   1.163 -1.3935  0.8628 -0.5637
 4358TIP3   OH234632   6.308   0.447   0.074  0.4838  0.2343  0.6054
 4358TIP3    H134633   6.259   0.520   0.037  1.2624  1.0804  1.1700
 4358TIP3    H234634   6.372   0.489   0.133  1.0938 -0.8871  0.7763
 4359TIP3   OH234635   3.612   2.241   1.597 -0.6439 -1.0357  0.7108
 4359TIP3    H134636   3.635   2.187   1.673  2.5371  0.1887  0.7332
 4359TIP3    H234637   3.638   2.329   1.621 -1.5098 -0.2466 -1.0593
 4360TIP3   OH234638   6.766   5.009   1.970 -0.3125  0.4080  0.3342
 4360TIP3    H134639   6.673   4.988   1.979 -0.4313  0.4922 -0.5517
 4360TIP3    H234640   6.806   4.929   1.936 -0.0043  0.2711  1.0214
 4361TIP3   OH234641   1.920   0.467   1.970  0.8208  0.5928  0.5119
 4361TIP3    H134642   1.838   0.420   1.983 -0.4556  1.9377 -1.9449
 4361TIP3    H234643   1.932   0.516   2.052 -0.8804  0.4231  0.9136
 4362TIP3   OH234644   4.048   1.915   0.368 -0.9687  0.1504  0.4899
 4362TIP3    H134645   4.019   1.924   0.277  0.9877 -1.0569 -0.3051
 4362TIP3    H234646   4.102   1.837   0.369  0.3804  1.0228  2.3485
 4363TIP3   OH234647   0.394   5.940   0.760  0.2867  0.0523 -0.3152
 4363TIP3    H134648   0.332   5.868   0.769 -0.3559  0.7005  0.6857
 4363TIP3    H234649   0.369   5.984   0.679  0.0567 -0.2598 -0.4122
 4364TIP3   OH234650   3.907   1.353   1.760 -0.3522  0.0172 -0.1118
 4364TIP3    H134651   3.999   1.371   1.782 -0.1176  1.9637 -2.2909
 4364TIP3    H234652   3.911   1.290   1.688 -0.8755 -1.6044  1.2100
 4365TIP3   OH234653   6.832   2.779   2.817  0.1872  0.1459  0.3286
 4365TIP3    H134654   6.786   2.776   2.901 -0.5485 -0.8899 -0.0822
 4365TIP3    H234655   6.801   2.701   2.771  0.0011  1.0941 -1.1995
 4366TIP3   OH234656   4.289   0.782   0.925 -0.1076 -0.1784  0.9254
 4366TIP3    H134657   4.249   0.748   0.845 -0.7907 -1.2635  1.7162
 4366TIP3    H234658   4.216   0.811   0.979  0.2134 -1.2284  1.9583
 4367TIP3   OH234659   5.895   5.791   2.610 -0.2427 -0.2225  0.2098
 4367TIP3    H134660   5.968   5.854   2.606  2.1374 -2.7235  0.9605
 4367TIP3    H234661   5.886   5.772   2.703  1.5452 -3.4785 -0.1545
 4368TIP3   OH234662   1.787   2.461   7.119 -0.8011 -0.0483  0.2896
 4368TIP3    H134663   1.819   2.547   7.092 -0.2684 -0.6189 -0.9573
 4368TIP3    H234664   1.715   2.480   7.179  0.2917  1.2598  1.2341
 4369TIP3   OH234665   3.924   5.406   1.426 -0.2647 -0.0866 -0.1396
 4369TIP3    H134666   3.998   5.370   1.473 -0.6536 -1.0635 -0.2540
 4369TIP3    H234667   3.876   5.457   1.491 -0.3348 -0.7287  0.3198
 4370TIP3   OH234668   1.255   0.185   7.587  0.0873 -0.1401 -0.4529
 4370TIP3    H134669   1.160   0.184   7.600  0.0611 -0.4880 -0.6713
 4370TIP3    H234670   1.266   0.194   7.492  0.2762  0.8658 -0.3434
 4371TIP3   OH234671   4.577   3.078   1.137 -0.5639 -0.1717 -0.0896
 4371TIP3    H134672   4.556   3.063   1.045 -0.1873  0.8497 -0.3482
 4371TIP3    H234673   4.625   3.160   1.138  0.4133 -0.7259  0.8919
 4372TIP3   OH234674   5.845   1.190   0.973 -0.2218  0.5702  0.1385
 4372TIP3    H134675   5.870   1.248   1.045  0.8827  0.6053 -0.2436
 4372TIP3    H234676   5.752   1.174   0.985  0.0106  0.3098  1.7593
 4373TIP3   OH234677   6.552   5.454   7.381 -0.3163  0.2394  0.3992
 4373TIP3    H134678   6.616   5.408   7.327 -0.1358  1.4813 -0.4937
 4373TIP3    H234679   6.557   5.411   7.466 -1.4389 -2.5690 -0.8219
 4374TIP3   OH234680   0.791   1.916   1.903  0.7043  0.5816 -0.3297
 4374TIP3    H134681   0.788   1.867   1.820 -1.8122 -0.1656  0.1088
 4374TIP3    H234682   0.778   2.007   1.877  1.2542  0.5130 -0.8561
 4375TIP3   OH234683   4.963   3.908   0.164  0.5644  0.2168  0.2420
 4375TIP3    H134684   5.026   3.977   0.142  0.8306 -0.2525 -0.5033
 4375TIP3    H234685   4.889   3.955   0.204  0.5255  0.9952 -0.6987
 4376TIP3   OH234686   2.587   5.457   7.982  0.5673 -0.2282 -0.2653
 4376TIP3    H134687   2.669   5.451   7.933  2.2473  2.4040  1.9047
 4376TIP3    H234688   2.533   5.517   7.931  0.5177 -0.8664 -0.9888
 4377TIP3   OH234689   2.772   5.253   2.041  0.1487  0.0134  0.0355
 4377TIP3    H134690   2.829   5.182   2.012  0.6944  0.8407 -0.9448
 4377TIP3    H234691   2.745   5.297   1.961  1.6338  2.2984  0.7205
 4378TIP3   OH234692   2.816   4.705   7.895  0.6520  0.1259 -0.0370
 4378TIP3    H134693   2.756   4.779   7.908  0.0726 -0.2154 -0.7235
 4378TIP3    H234694   2.858   4.724   7.811  1.1461  0.1126  0.2056
 4379TIP3   OH234695   5.998   0.366   1.518 -0.3201  1.1279  0.2461
 4379TIP3    H134696   6.040   0.332   1.440 -1.9816  1.6063 -0.9134
 4379TIP3    H234697   5.912   0.324   1.520 -0.0567  0.5849  2.2313
 4380TIP3   OH234698   3.961   0.606   1.007  0.1298  0.4684 -0.1942
 4380TIP3    H134699   3.881   0.557   1.027  0.2047  0.0874 -0.7781
 4380TIP3    H234700   4.030   0.559   1.054  0.0390  0.6756  0.1447
 4381TIP3   OH234701   6.684   0.029   0.238 -0.3086 -0.4276  0.5664
 4381TIP3    H134702   6.729  -0.006   0.314  1.6255 -0.7015 -0.6389
 4381TIP3    H234703   6.694  -0.038   0.171  1.6160  1.4212 -1.1543
 4382TIP3   OH234704   3.667   4.067   2.323  0.4839 -0.2213  0.7018
 4382TIP3    H134705   3.578   4.099   2.343 -0.6732 -0.7160 -2.9940
 4382TIP3    H234706   3.672   3.982   2.367 -1.0632 -0.4056  0.5887
 4383TIP3   OH234707   2.364   6.803   1.211  0.1065  0.9552  0.5830
 4383TIP3    H134708   2.338   6.813   1.302  0.6937  0.9108  0.7550
 4383TIP3    H234709   2.426   6.730   1.211 -0.4863  0.4258  0.0359
 4384TIP3   OH234710   1.414   1.037   1.797  0.4104  0.6801 -0.6087
 4384TIP3    H134711   1.428   0.943   1.785 -1.5471  0.0665  1.1975
 4384TIP3    H234712   1.483   1.064   1.858  0.2644  0.1304 -0.1929
 4385TIP3   OH234713   1.611   4.961   0.992 -0.4990 -0.1930 -0.1193
 4385TIP3    H134714   1.685   4.900   0.992 -0.0837  0.2454 -2.2361
 4385TIP3    H234715   1.536   4.908   1.019  0.4100 -0.8512  1.2063
 4386TIP3   OH234716   4.730   3.590   0.487  0.1236  0.1935 -0.9814
 4386TIP3    H134717   4.821   3.607   0.514 -0.3454  1.6943 -0.2114
 4386TIP3    H234718   4.678   3.604   0.566 -0.8761  0.3648 -1.6454
 4387TIP3   OH234719   1.257   2.906   1.991 -0.6969  0.2637 -0.0280
 4387TIP3    H134720   1.264   2.987   1.942 -1.5486  0.2371 -0.2151
 4387TIP3    H234721   1.168   2.875   1.973 -0.8617  0.0063  1.1366
 4388TIP3   OH234722   0.278   4.141   2.431 -0.5462  0.5718  0.1900
 4388TIP3    H134723   0.279   4.236   2.418  1.9890  0.5919 -0.0303
 4388TIP3    H234724   0.329   4.128   2.511  1.4355 -0.6842 -1.1894
 4389TIP3   OH234725   5.790   6.861   0.331 -0.7034  0.2636 -0.0923
 4389TIP3    H134726   5.816   6.845   0.241 -0.2920  0.4084 -0.0002
 4389TIP3    H234727   5.833   6.943   0.355 -2.0499  1.0627 -0.2663
 4390TIP3   OH234728   2.218   2.218   1.264 -0.4347 -0.2026  0.1130
 4390TIP3    H134729   2.152   2.256   1.206  0.0953 -0.2523 -0.5474
 4390TIP3    H234730   2.234   2.131   1.227  1.5473  0.5965 -1.0616
 4391TIP3   OH234731   6.376   5.607   0.873 -0.0618  0.0470  1.2648
 4391TIP3    H134732   6.308   5.544   0.895 -0.8378  0.6914  0.7613
 4391TIP3    H234733   6.338   5.692   0.894 -0.1147  0.5587 -0.6737
 4392TIP3   OH234734   5.408   4.177   2.329 -0.2174 -0.1409  0.2796
 4392TIP3    H134735   5.430   4.217   2.245 -0.8294 -1.3949 -0.5154
 4392TIP3    H234736   5.359   4.245   2.376 -0.1873  0.4531 -0.5346
 4393TIP3   OH234737   2.863   5.546   0.213 -0.2864  0.2944 -0.7346
 4393TIP3    H134738   2.881   5.637   0.234  2.2511 -0.9598  3.7062
 4393TIP3    H234739   2.797   5.519   0.277  0.2877 -1.4135 -0.8264
 4394TIP3   OH234740   1.449   6.509   8.171  0.2907 -0.0695  0.0264
 4394TIP3    H134741   1.357   6.529   8.187  0.0459 -1.6747  0.9337
 4394TIP3    H234742   1.468   6.437   8.232  1.9081 -0.3407 -0.7463
 4395TIP3   OH234743   6.577   5.248   2.026  0.0300  0.0546  0.0718
 4395TIP3    H134744   6.544   5.293   1.948  1.6198  1.3512  0.0965
 4395TIP3    H234745   6.533   5.163   2.026 -1.4119  0.7781 -1.1894
 4396TIP3   OH234746   4.539   3.783   2.358  0.2800 -0.2505 -0.0175
 4396TIP3    H134747   4.522   3.787   2.452  0.9927 -2.0848  0.2181
 4396TIP3    H234748   4.522   3.692   2.334 -2.0264  0.6437 -2.1246
 4397TIP3   OH234749   2.714   3.331   2.080  0.2619 -0.3611  0.0594
 4397TIP3    H134750   2.788   3.291   2.126  0.1622 -1.0833 -0.3784
 4397TIP3    H234751   2.682   3.261   2.023 -0.9070 -0.1239  0.4183
 4398TIP3   OH234752   6.020   1.558   8.503  0.4555  0.3588  0.5443
 4398TIP3    H134753   5.968   1.555   8.422 -1.0469  1.3940  1.4356
 4398TIP3    H234754   5.956   1.544   8.573  1.7722 -0.8170  1.5768
 4399TIP3   OH234755   5.878   2.220   8.234  0.3338  0.1395  0.1281
 4399TIP3    H134756   5.792   2.181   8.223  0.5263 -0.4084  0.5185
 4399TIP3    H234757   5.870   2.273   8.313  0.3483  0.0969  0.1583
 4400TIP3   OH234758   3.771   4.983   1.560  0.9405  0.4752 -0.2494
 4400TIP3    H134759   3.814   5.039   1.624 -1.2733  0.8673  1.0126
 4400TIP3    H234760   3.767   4.897   1.601 -2.7277  1.2572  1.4744
 4401TIP3   OH234761   3.194   1.588   7.776  0.4483 -0.6348 -0.0148
 4401TIP3    H134762   3.240   1.610   7.857 -2.6817 -0.1426  1.8005
 4401TIP3    H234763   3.201   1.668   7.723 -0.0732  0.1968  1.1251
 4402TIP3   OH234764   5.795   2.329   2.376  0.0693  0.3578  0.5885
 4402TIP3    H134765   5.701   2.343   2.386 -0.5177 -2.2772 -0.4752
 4402TIP3    H234766   5.821   2.285   2.457 -0.0171 -0.6093  0.0965
 4403TIP3   OH234767   3.433   6.383   1.158 -0.0330  0.2449  0.1915
 4403TIP3    H134768   3.385   6.301   1.171 -1.7419  1.1184 -0.2438
 4403TIP3    H234769   3.522   6.363   1.187  0.0057 -2.1781 -1.3004
 4404TIP3   OH234770   1.354   4.888   8.556 -0.2222 -0.1651  0.0850
 4404TIP3    H134771   1.434   4.934   8.581  0.3734 -0.7683 -0.6468
 4404TIP3    H234772   1.383   4.800   8.533 -0.5761  0.4184 -3.1178
 4405TIP3   OH234773   2.732   5.129   7.801 -0.4717  0.3542  0.3050
 4405TIP3    H134774   2.647   5.139   7.844 -0.2588 -0.0657  0.8373
 4405TIP3    H234775   2.741   5.034   7.787 -0.8415  0.5147 -1.3131
 4406TIP3   OH234776   5.118   3.799   8.520  0.0273  0.0916 -0.1671
 4406TIP3    H134777   5.142   3.754   8.602 -0.6130 -1.2969 -0.7199
 4406TIP3    H234778   5.201   3.835   8.489  0.1639  1.3064  1.4615
 4407TIP3   OH234779   6.661   3.333   2.265  0.1992  0.2589 -0.1154
 4407TIP3    H134780   6.604   3.256   2.262 -0.1785  0.2845  2.7939
 4407TIP3    H234781   6.742   3.302   2.305  0.1016  1.2766  0.9655
 4408TIP3   OH234782   4.017   5.218   8.618  0.4910  0.4213 -0.1053
 4408TIP3    H134783   3.997   5.172   8.699 -0.5297 -0.1487 -0.6638
 4408TIP3    H234784   4.016   5.150   8.551  1.6982  0.8209 -0.5551
 4409TIP3   OH234785   3.195   2.802   0.703 -0.0912  0.3553  0.4607
 4409TIP3    H134786   3.251   2.876   0.677  0.6698  0.0043  1.0563
 4409TIP3    H234787   3.186   2.750   0.623 -0.0534  0.7291  0.2093
 4410TIP3   OH234788   5.387   6.449   1.417 -0.3749  0.5146  0.2494
 4410TIP3    H134789   5.301   6.408   1.409  0.8880 -2.2524 -0.5189
 4410TIP3    H234790   5.448   6.383   1.383  1.9725  2.7827 -0.2637
 4411TIP3   OH234791   5.406   2.417   7.273  0.0375  0.0986 -0.7792
 4411TIP3    H134792   5.393   2.375   7.188  0.3918  0.5799 -1.0767
 4411TIP3    H234793   5.390   2.348   7.337  0.3998 -0.4262 -1.2518
 4412TIP3   OH234794   1.938   3.452   0.658 -0.1899 -0.2972  0.2749
 4412TIP3    H134795   1.992   3.519   0.615  1.0457 -1.1801  0.3878
 4412TIP3    H234796   1.927   3.483   0.748 -1.7122  0.9318 -0.2871
 4413TIP3   OH234797   5.403   3.722   0.525  0.2608 -0.6057  0.0764
 4413TIP3    H134798   5.331   3.770   0.567 -0.8001 -0.9122 -1.2912
 4413TIP3    H234799   5.461   3.790   0.491 -0.6670 -0.2643 -0.8992
 4414TIP3   OH234800   0.674   6.472   7.331 -0.7716 -0.0443 -0.2887
 4414TIP3    H134801   0.615   6.461   7.256  0.1462 -0.4678 -0.9726
 4414TIP3    H234802   0.758   6.439   7.300 -0.1433  0.6379  0.6370
 4415TIP3   OH234803   1.366   0.628   0.650 -0.0506 -0.0959 -0.0522
 4415TIP3    H134804   1.357   0.538   0.618  2.3383 -0.0173 -1.1635
 4415TIP3    H234805   1.335   0.682   0.578  1.5316 -0.0045 -0.7008
 4416TIP3   OH234806   1.722   6.222   1.003  0.4238  0.2746 -0.4802
 4416TIP3    H134807   1.652   6.275   0.965 -0.0419  0.3050  0.3864
 4416TIP3    H234808   1.777   6.198   0.929  0.8269  2.2196 -0.8634
 4417TIP3   OH234809   4.281   6.860   0.840 -0.1943  0.8277  0.5585
 4417TIP3    H134810   4.361   6.838   0.887 -0.0070  1.9191  0.7707
 4417TIP3    H234811   4.308   6.866   0.748 -0.0833  0.9077  0.5954
 4418TIP3   OH234812   1.112   2.665   0.891 -0.3076  0.2077  0.3255
 4418TIP3    H134813   1.081   2.602   0.956  0.0920  0.5206  0.8261
 4418TIP3    H234814   1.051   2.655   0.817  0.1237 -1.2059  0.1261
 4419TIP3   OH234815   0.199   2.346   8.331  0.1674  0.2303 -0.6318
 4419TIP3    H134816   0.221   2.367   8.422  1.3398 -0.7564 -0.6551
 4419TIP3    H234817   0.282   2.314   8.294 -0.6573 -0.8297 -1.6073
 4420TIP3   OH234818   5.225   2.298   1.413 -0.3975 -0.2004  0.3257
 4420TIP3    H134819   5.237   2.284   1.507 -0.4068 -0.0292  0.3540
 4420TIP3    H234820   5.134   2.325   1.404 -0.8069 -1.5944  0.0993
 4421TIP3   OH234821   4.626   3.079   7.977  0.4495 -0.0350 -0.0184
 4421TIP3    H134822   4.665   3.090   8.064 -0.4527  0.0141  0.3912
 4421TIP3    H234823   4.601   2.987   7.973  1.7142 -0.3765 -0.7700
 4422TIP3   OH234824   0.113   1.997   6.836  0.0353  0.2064 -0.5202
 4422TIP3    H134825   0.038   2.035   6.882  0.7216  0.4356  0.4450
 4422TIP3    H234826   0.143   2.067   6.777  1.1303  1.1209  1.0581
 4423TIP3   OH234827   3.508   2.866   1.540 -0.3595 -0.1016  0.3212
 4423TIP3    H134828   3.519   2.871   1.635 -0.1437  1.3676  0.2434
 4423TIP3    H234829   3.595   2.843   1.507 -0.3863 -0.4146  0.4681
 4424TIP3   OH234830   1.220   2.391   3.039 -0.2561  0.1091 -0.0769
 4424TIP3    H134831   1.132   2.427   3.031  0.0292  1.0524  0.8998
 4424TIP3    H234832   1.274   2.448   2.984  0.0675  0.7321  0.8714
 4425TIP3   OH234833   1.172   4.812   0.320 -0.4080  0.5420  0.2900
 4425TIP3    H134834   1.263   4.835   0.301 -0.1290  2.9225  3.6995
 4425TIP3    H234835   1.126   4.828   0.238  1.8495  1.5851 -0.8606
 4426TIP3   OH234836   1.634   0.537   0.478 -0.6008  0.3812 -0.3522
 4426TIP3    H134837   1.659   0.453   0.517  2.1232  1.1093 -0.3121
 4426TIP3    H234838   1.621   0.595   0.553 -4.5433 -0.3671 -0.2598
 4427TIP3   OH234839   1.972   0.097   0.277 -0.0192 -0.3533 -0.3746
 4427TIP3    H134840   1.902   0.162   0.275  0.7912  0.5491  0.0155
 4427TIP3    H234841   1.933   0.021   0.320 -0.7878  0.1050 -0.2455
 4428TIP3   OH234842   0.518   0.328   1.163 -0.0420  0.0913  0.3608
 4428TIP3    H134843   0.546   0.401   1.219 -0.7195  1.0662 -0.5231
 4428TIP3    H234844   0.478   0.265   1.224  1.5691 -0.0878  1.2837
 4429TIP3   OH234845   0.326   6.515   0.186 -0.0594  0.0081  0.5668
 4429TIP3    H134846   0.298   6.540   0.274 -0.9311  2.0556 -0.2442
 4429TIP3    H234847   0.270   6.440   0.164  0.6707 -1.0019  1.9904
 4430TIP3   OH234848   5.207   4.770   7.415  0.1383 -0.0269  0.2564
 4430TIP3    H134849   5.224   4.837   7.480  0.5136  0.1413 -0.0151
 4430TIP3    H234850   5.114   4.749   7.426  0.0229  0.5311  0.3430
 4431TIP3   OH234851   5.121   5.133   0.411  0.3737 -0.5729 -0.2703
 4431TIP3    H134852   5.112   5.207   0.350 -0.0463 -0.4640 -0.0772
 4431TIP3    H234853   5.135   5.057   0.355 -1.5962 -0.7431 -0.6064
 4432TIP3   OH234854   0.273   2.839   7.898  0.5534  0.2603 -0.2605
 4432TIP3    H134855   0.303   2.750   7.879 -1.3410 -0.6038  0.5340
 4432TIP3    H234856   0.183   2.842   7.864 -0.3651  0.9731  1.9927
 4433TIP3   OH234857   5.415   3.046   0.445  0.2071  0.4572 -0.2871
 4433TIP3    H134858   5.337   3.060   0.498  0.3927  1.1797 -0.1872
 4433TIP3    H234859   5.396   3.089   0.362  0.5227  0.7194 -0.2301
 4434TIP3   OH234860   4.196   2.217   1.790 -0.7924 -0.6190  0.0739
 4434TIP3    H134861   4.164   2.248   1.705 -1.3308 -0.9285  0.1611
 4434TIP3    H234862   4.284   2.184   1.771 -0.9981 -0.9015 -0.4166
 4435TIP3   OH234863   6.143   2.874   8.379  0.0607  0.1960  0.6505
 4435TIP3    H134864   6.146   2.888   8.473 -0.3348  2.2396  0.4181
 4435TIP3    H234865   6.076   2.807   8.367 -1.5495  1.5276  1.7246
 4436TIP3   OH234866   1.846   0.153   1.270 -0.1029  0.0106 -0.0175
 4436TIP3    H134867   1.936   0.160   1.302 -0.2781  1.4947  0.1982
 4436TIP3    H234868   1.847   0.073   1.216  1.6265  0.5767 -0.9265
 4437TIP3   OH234869   1.611   3.513   2.667 -0.0041 -0.3276  0.2219
 4437TIP3    H134870   1.640   3.522   2.758  0.7443 -0.2540 -0.0230
 4437TIP3    H234871   1.562   3.430   2.666  0.9775 -0.9313  0.4485
 4438TIP3   OH234872   5.355   4.623   0.794  0.1438  0.0570  0.6882
 4438TIP3    H134873   5.402   4.582   0.721 -0.1107  0.0547  0.5207
 4438TIP3    H234874   5.303   4.552   0.831 -0.9366  0.3927 -0.1256
 4439TIP3   OH234875   0.256   3.260   8.464  0.1863  0.1940 -0.7425
 4439TIP3    H134876   0.180   3.306   8.427 -1.0725 -1.1099  0.1263
 4439TIP3    H234877   0.235   3.252   8.557  2.1486  1.2106 -0.1703
 4440TIP3   OH234878   4.380   3.207   6.763 -0.0874 -0.0681 -0.3630
 4440TIP3    H134879   4.325   3.285   6.764  0.2177  0.1983 -1.9953
 4440TIP3    H234880   4.469   3.241   6.771  0.0806 -0.1861 -1.5781
 4441TIP3   OH234881   5.031   4.104   1.313 -0.2385  0.2530  0.1237
 4441TIP3    H134882   5.030   4.040   1.241 -0.6674  0.2028  0.1712
 4441TIP3    H234883   5.119   4.141   1.310 -0.4747  0.7710 -0.8847
 4442TIP3   OH234884   2.678   1.744   2.139 -0.2353  0.0874 -0.0802
 4442TIP3    H134885   2.674   1.693   2.059 -1.0748 -0.9767  0.6154
 4442TIP3    H234886   2.605   1.806   2.132 -1.1368 -0.8829  0.4123
 4443TIP3   OH234887   0.164   5.410   7.468  0.2780  0.2024  0.6703
 4443TIP3    H134888   0.121   5.491   7.440  0.0877 -0.1233 -0.0081
 4443TIP3    H234889   0.143   5.402   7.561 -1.1935  0.0262  0.3553
 4444TIP3   OH234890   3.307   5.524   2.870  0.7586 -0.5538 -0.9399
 4444TIP3    H134891   3.302   5.449   2.811 -0.7077 -1.6736  0.5396
 4444TIP3    H234892   3.218   5.558   2.875  1.0248  0.0659 -0.0591
 4445TIP3   OH234893   4.270   6.799   0.308 -0.1310 -0.0278  0.4453
 4445TIP3    H134894   4.294   6.750   0.230 -0.6987 -0.2933  0.4326
 4445TIP3    H234895   4.349   6.849   0.330 -0.5477  1.6350 -1.4688
 4446TIP3   OH234896   4.090   2.643   3.372  0.0310  0.5539  0.6532
 4446TIP3    H134897   4.158   2.585   3.337 -0.6409  0.4653 -0.5885
 4446TIP3    H234898   4.042   2.588   3.434 -1.3016 -0.6735 -1.3154
 4447TIP3   OH234899   1.907   0.237   2.433 -0.0381  0.6662 -0.2850
 4447TIP3    H134900   1.937   0.325   2.411 -1.8845  2.1006  2.3523
 4447TIP3    H234901   1.812   0.240   2.422 -0.3516 -0.3396  1.6233
 4448TIP3   OH234902   3.834   0.858   8.649 -0.3111  0.5198 -0.6071
 4448TIP3    H134903   3.839   0.916   8.725  0.4445  0.3858 -0.5545
 4448TIP3    H234904   3.925   0.843   8.624 -0.4161 -1.4875  0.0154
 4449TIP3   OH234905   6.272   2.057   8.527  0.4045  0.1487 -0.6736
 4449TIP3    H134906   6.221   2.082   8.604 -0.3624 -1.6900 -0.5418
 4449TIP3    H234907   6.287   2.140   8.481 -2.0635  0.8880 -0.3253
 4450TIP3   OH234908   0.015   3.534   0.487  0.0930  0.0320 -0.6333
 4450TIP3    H134909   0.037   3.596   0.418 -1.4260 -0.2772 -1.4403
 4450TIP3    H234910   0.004   3.450   0.441 -2.8711  0.1879 -0.4059
 4451TIP3   OH234911   1.703   6.169   8.174  0.3565  0.0331  0.1154
 4451TIP3    H134912   1.697   6.080   8.207 -0.5880 -0.4407 -1.2362
 4451TIP3    H234913   1.777   6.168   8.114 -0.4743 -0.2392 -0.9476
 4452TIP3   OH234914   2.809   3.617   7.470 -0.0585 -0.2309 -0.4546
 4452TIP3    H134915   2.772   3.646   7.554  0.3724  0.3516 -0.4595
 4452TIP3    H234916   2.770   3.675   7.405 -0.4776 -0.7563 -0.6722
 4453TIP3   OH234917   3.685   3.838   1.497  0.2722  0.0048  0.0464
 4453TIP3    H134918   3.610   3.806   1.446  0.2001 -1.3059  0.9075
 4453TIP3    H234919   3.717   3.760   1.542  1.7188  0.6915  0.2600
 4454TIP3   OH234920   1.637   2.766   0.687 -0.1078  0.5059 -0.1387
 4454TIP3    H134921   1.619   2.707   0.761 -0.8010 -0.0272 -0.7217
 4454TIP3    H234922   1.731   2.758   0.673  0.1843  1.2060  1.1718
 4455TIP3   OH234923   3.866   3.525   2.412 -0.6436 -0.3721  0.1864
 4455TIP3    H134924   3.873   3.475   2.331 -2.6139  0.0206 -0.2758
 4455TIP3    H234925   3.945   3.503   2.461  0.4612 -0.8223 -1.7128
 4456TIP3   OH234926   4.298   1.938   0.015  0.0550 -0.5931  0.3117
 4456TIP3    H134927   4.274   1.976  -0.069 -0.7453 -1.8681 -0.0651
 4456TIP3    H234928   4.226   1.880   0.037 -0.2032  0.4100  2.3563
 4457TIP3   OH234929   0.731   4.081   0.741  0.4366  0.0119  0.0262
 4457TIP3    H134930   0.815   4.117   0.714  0.6927 -1.3969 -1.1658
 4457TIP3    H234931   0.725   4.099   0.834  1.5846  1.0385 -0.0829
 4458TIP3   OH234932   5.190   5.356   2.289  0.0691 -0.2329  0.3230
 4458TIP3    H134933   5.149   5.386   2.208  1.1486  0.6931  0.0991
 4458TIP3    H234934   5.270   5.312   2.261 -0.3093 -1.2724  0.8074
 4459TIP3   OH234935   6.863   2.341   0.991 -0.2505 -0.1786  0.5206
 4459TIP3    H134936   6.872   2.252   1.026 -1.3022 -0.9769 -1.1297
 4459TIP3    H234937   6.873   2.398   1.068  0.9283 -1.6712  1.5443
 4460TIP3   OH234938   3.727   6.230   0.891 -0.3882 -0.1493  0.3709
 4460TIP3    H134939   3.683   6.146   0.886 -2.6433  0.9596  0.5169
 4460TIP3    H234940   3.682   6.277   0.961  1.1513  1.0228  0.6416
 4461TIP3   OH234941   0.681   4.697   2.758  0.4052 -0.6987 -0.0701
 4461TIP3    H134942   0.682   4.736   2.671 -1.1985 -0.7743 -0.1369
 4461TIP3    H234943   0.643   4.765   2.814 -0.3779 -1.3571  0.2092
 4462TIP3   OH234944   4.852   5.881   0.645 -0.0140 -0.0972  0.5793
 4462TIP3    H134945   4.851   5.801   0.593  1.8835  0.5997 -0.6577
 4462TIP3    H234946   4.913   5.863   0.716  0.5273  0.2551  0.2186
 4463TIP3   OH234947   5.464   2.059   7.751 -0.2882 -0.2113 -0.3636
 4463TIP3    H134948   5.523   2.134   7.747  1.1647 -1.2671  0.4504
 4463TIP3    H234949   5.383   2.094   7.790  0.0759  1.0876 -0.7398
 4464TIP3   OH234950   6.499   2.194   0.464  0.0999  0.3225  0.1367
 4464TIP3    H134951   6.435   2.155   0.404  0.4336  0.4295 -0.2972
 4464TIP3    H234952   6.472   2.165   0.551 -0.7345  0.6290 -0.0109
 4465TIP3   OH234953   3.719   1.950   8.106  0.0395  0.1880  0.2023
 4465TIP3    H134954   3.629   1.983   8.110 -0.2897 -0.0926 -2.6729
 4465TIP3    H234955   3.773   2.029   8.095  0.0433  0.2673  0.7535
 4466TIP3   OH234956   2.767   2.045   0.157  0.1215  0.6198  0.8536
 4466TIP3    H134957   2.839   2.065   0.216  0.5659 -0.7787  0.8283
 4466TIP3    H234958   2.774   1.951   0.141  0.4977  1.0430 -2.0212
 4467TIP3   OH234959   5.241   5.495   1.869 -0.5272 -0.2098 -0.1201
 4467TIP3    H134960   5.162   5.463   1.914 -0.8370  0.8327  0.0894
 4467TIP3    H234961   5.271   5.568   1.923  0.3399 -0.3228 -0.4451
 4468TIP3   OH234962   4.326   2.419   7.121 -0.0588 -0.3671 -0.1817
 4468TIP3    H134963   4.340   2.454   7.033  1.5026  0.1632  0.2424
 4468TIP3    H234964   4.337   2.325   7.112 -1.7961 -0.5244 -0.8801
 4469TIP3   OH234965   4.441   1.826   2.356 -0.3488 -0.7657  0.2104
 4469TIP3    H134966   4.411   1.784   2.437 -0.6315 -0.4252  0.2897
 4469TIP3    H234967   4.402   1.774   2.286 -1.8773  0.1570  0.3140
 4470TIP3   OH234968   6.663   1.790   7.469  0.4014 -0.3388  0.0860
 4470TIP3    H134969   6.657   1.727   7.541 -1.4648  0.6020  0.8355
 4470TIP3    H234970   6.574   1.822   7.459  0.6097 -0.4136 -2.6792
 4471TIP3   OH234971   5.968   4.460   7.268  0.0999 -0.0224  0.5110
 4471TIP3    H134972   6.036   4.432   7.206 -0.4638  0.1920 -0.2252
 4471TIP3    H234973   5.954   4.384   7.324  0.4534 -0.3019  0.2279
 4472TIP3   OH234974   0.625   4.043   1.047 -0.2070 -0.3969  0.6937
 4472TIP3    H134975   0.712   4.016   1.075  1.0067 -0.8532 -3.0615
 4472TIP3    H234976   0.578   3.961   1.030  0.0514 -0.1860 -1.1442
 4473TIP3   OH234977   0.064   0.393   0.344 -0.2638 -0.4221  0.0549
 4473TIP3    H134978  -0.000   0.462   0.363  0.8519  0.6402  0.1454
 4473TIP3    H234979   0.041   0.363   0.256 -2.7831 -2.3048  1.2432
 4474TIP3   OH234980   5.110   2.934   0.083 -0.2243  0.1400  0.1193
 4474TIP3    H134981   5.050   3.006   0.103  0.9985  1.4765 -0.7774
 4474TIP3    H234982   5.142   2.905   0.168 -2.1560 -0.6627  0.6245
 4475TIP3   OH234983   1.330   4.157   1.405  0.3534  0.2277  0.2109
 4475TIP3    H134984   1.361   4.094   1.339 -2.1053 -0.6680 -0.2063
 4475TIP3    H234985   1.323   4.240   1.358  1.2296  0.2345  0.0871
 4476TIP3   OH234986   5.924   2.451   2.785  0.2315 -0.2845  0.6679
 4476TIP3    H134987   5.971   2.410   2.858 -0.6322 -1.2210  0.7132
 4476TIP3    H234988   5.834   2.458   2.815  0.1678  0.7457  0.2679
 4477TIP3   OH234989   4.430   1.283   1.868  0.4267 -0.0704 -0.4774
 4477TIP3    H134990   4.493   1.212   1.870  1.3103  0.6827 -0.7400
 4477TIP3    H234991   4.409   1.300   1.960  3.5056  2.1339 -0.0242
 4478TIP3   OH234992   1.630   0.313   2.707  0.3066 -0.0271 -0.8157
 4478TIP3    H134993   1.699   0.272   2.758 -0.3435  0.4830  0.5265
 4478TIP3    H234994   1.550   0.265   2.730 -0.1305  0.7246 -0.7256
 4479TIP3   OH234995   0.413   0.068   1.740 -0.0935  0.2897  0.4356
 4479TIP3    H134996   0.371  -0.017   1.754  0.8550 -0.1723  0.5702
 4479TIP3    H234997   0.342   0.126   1.715 -0.3758 -1.3058 -3.0599
 4480TIP3   OH234998   4.975   1.533   2.635  1.1175 -0.6768 -0.5742
 4480TIP3    H134999   5.036   1.593   2.591  1.9699 -0.2710  1.0812
 4480TIP3    H235000   4.945   1.582   2.711  0.1254 -1.5674 -0.3753
 4481TIP3   OH235001   4.943   1.788   2.436  0.7704 -0.0685 -0.1061
 4481TIP3    H135002   5.009   1.738   2.483  2.2035  2.2725  0.5334
 4481TIP3    H235003   4.890   1.829   2.504  1.1464  1.1824 -0.5389
 4482TIP3   OH235004   4.396   0.918   7.520 -0.3276 -0.2497 -0.3520
 4482TIP3    H135005   4.423   0.828   7.507 -1.4167 -0.4862 -1.1319
 4482TIP3    H235006   4.341   0.938   7.444  0.9393  1.4977 -0.8733
 4483TIP3   OH235007   5.478   2.705   0.473 -0.1413 -0.3773  0.2110
 4483TIP3    H135008   5.467   2.786   0.425  2.7734  1.4075  2.2302
 4483TIP3    H235009   5.559   2.667   0.438 -1.1161 -2.1135 -0.2590
 4484TIP3   OH235010   4.491   6.266   8.287  0.2089 -0.0544  0.2120
 4484TIP3    H135011   4.502   6.229   8.375 -1.5494 -0.4079  0.3185
 4484TIP3    H235012   4.503   6.360   8.299  1.4611 -0.2342  0.5368
 4485TIP3   OH235013   5.339   0.527   0.875  0.2439 -0.5738 -0.3503
 4485TIP3    H135014   5.411   0.534   0.812 -0.9430  0.3753 -1.6859
 4485TIP3    H235015   5.323   0.433   0.883  2.0373 -0.8458  0.5118
 4486TIP3   OH235016   6.422   5.774   7.901  0.4012  0.0999 -0.1490
 4486TIP3    H135017   6.482   5.728   7.842 -0.3882 -0.8380 -0.2423
 4486TIP3    H235018   6.341   5.724   7.897 -0.1774  0.9564  0.5025
 4487TIP3   OH235019   6.867   4.960   2.660 -0.1182  0.6955  0.7444
 4487TIP3    H135020   6.802   5.004   2.607  2.0843  1.7884 -1.2439
 4487TIP3    H235021   6.931   5.028   2.682  1.0065 -0.5506  1.5671
 4488TIP3   OH235022   4.977   3.852   1.440 -0.7072  0.2969 -0.2045
 4488TIP3    H135023   5.031   3.924   1.406  0.7466 -0.0393  1.2641
 4488TIP3    H235024   4.947   3.882   1.525  0.0662 -0.8631  0.5076
 4489TIP3   OH235025   5.798   2.708   0.077 -0.6914 -0.0316 -0.6744
 4489TIP3    H135026   5.786   2.736  -0.014  2.8646  2.9644 -0.4815
 4489TIP3    H235027   5.747   2.770   0.129  2.9465  3.2075 -0.5175
 4490TIP3   OH235028   2.937   2.728   0.758 -0.4797  0.4512  0.1972
 4490TIP3    H135029   2.924   2.660   0.692 -0.0000  2.7916 -2.5499
 4490TIP3    H235030   3.021   2.768   0.735 -1.3357  2.7785  0.8012
 4491TIP3   OH235031   2.245   6.551   0.314 -0.0859  0.3761 -0.4662
 4491TIP3    H135032   2.193   6.593   0.382  0.3533  0.1115  0.0493
 4491TIP3    H235033   2.326   6.602   0.311 -0.3891  0.8126 -1.2907
 4492TIP3   OH235034   0.056   5.344   2.014 -0.1920 -0.0807  0.2607
 4492TIP3    H135035   0.003   5.328   1.936  0.1414  1.7181 -0.3859
 4492TIP3    H235036   0.117   5.412   1.987  0.8316 -0.3822  1.7196
 4493TIP3   OH235037   1.951   1.748   1.850 -0.0932  0.0367  0.3482
 4493TIP3    H135038   1.868   1.780   1.816  1.6197  3.6954 -0.9581
 4493TIP3    H235039   1.938   1.654   1.861 -4.3272  0.4040  0.2584
 4494TIP3   OH235040   5.166   4.025   2.146  0.1889  0.2168 -0.0223
 4494TIP3    H135041   5.165   3.969   2.223  0.5215 -1.1585 -0.9713
 4494TIP3    H235042   5.137   4.110   2.177 -1.1371 -0.6821  1.3155
 4495TIP3   OH235043   5.471   1.175   8.459  0.6431  0.1994 -0.4447
 4495TIP3    H135044   5.436   1.157   8.546 -2.4055 -1.9176 -1.9083
 4495TIP3    H235045   5.530   1.102   8.441  1.7011  0.9264  0.0154
 4496TIP3   OH235046   2.141   0.362   7.939 -0.2099  0.2480 -0.2043
 4496TIP3    H135047   2.177   0.297   7.878 -1.5898  0.2191 -1.0076
 4496TIP3    H235048   2.088   0.420   7.885 -0.0631  1.2814  0.7170
 4497TIP3   OH235049   0.519   5.335   7.309 -0.2944  0.2861  0.0332
 4497TIP3    H135050   0.491   5.379   7.229 -0.7362 -1.6936 -0.9485
 4497TIP3    H235051   0.598   5.288   7.285 -1.0662 -1.2647  0.4014
 4498TIP3   OH235052   3.689   2.553   8.229  0.3150 -0.2261  0.2071
 4498TIP3    H135053   3.631   2.627   8.208  1.3319  0.3156 -0.8383
 4498TIP3    H235054   3.718   2.521   8.144  2.2075  0.0806  0.6889
 4499TIP3   OH235055   2.234   3.702   1.892 -0.7278 -0.1281  0.1682
 4499TIP3    H135056   2.178   3.674   1.964 -1.4855 -2.1160 -1.1241
 4499TIP3    H235057   2.210   3.794   1.877 -2.1504 -0.3391  0.9945
 4500TIP3   OH235058   1.337   6.641   7.141 -0.5802  0.0317  0.3295
 4500TIP3    H135059   1.308   6.689   7.064 -0.3384  1.3037  1.0101
 4500TIP3    H235060   1.333   6.705   7.213  1.1928 -0.5285  0.9809
 4501TIP3   OH235061   2.822   4.374   8.016  0.0764  0.0724  0.4574
 4501TIP3    H135062   2.870   4.357   8.097  0.7933  0.2643  0.0811
 4501TIP3    H235063   2.885   4.418   7.959 -1.3775  3.1947  1.0374
 4502TIP3   OH235064   0.410   6.513   1.303 -0.0917 -0.4024 -0.1821
 4502TIP3    H135065   0.323   6.539   1.332 -0.0838 -0.6270  0.0376
 4502TIP3    H235066   0.464   6.516   1.381  1.2668  4.3571 -0.9766
 4503TIP3   OH235067   3.444   5.389   8.559 -0.2327  0.2542 -0.1284
 4503TIP3    H135068   3.457   5.460   8.496 -0.6635 -0.6757 -1.2971
 4503TIP3    H235069   3.415   5.315   8.506 -0.2402 -0.6684  1.1272
 4504TIP3   OH235070   5.734   2.624   0.778 -0.5849  0.3065  0.1131
 4504TIP3    H135071   5.783   2.595   0.855  0.1119  0.3275 -0.3169
 4504TIP3    H235072   5.800   2.662   0.720 -0.8001 -1.4123 -1.3377
 4505TIP3   OH235073   5.246   6.590   8.145 -1.0728  0.1769 -0.4600
 4505TIP3    H135074   5.218   6.500   8.129  1.2780 -0.7682  0.2705
 4505TIP3    H235075   5.212   6.610   8.233 -2.6747  0.5160 -1.1219
 4506TIP3   OH235076   6.440   5.540   8.634 -0.0446  0.4073  0.3197
 4506TIP3    H135077   6.392   5.466   8.672  0.1234 -0.4282 -1.0322
 4506TIP3    H235078   6.476   5.586   8.709 -2.5294  0.7787  1.3811
 4507TIP3   OH235079   2.294   4.222   0.076  0.2179  0.3650  0.2454
 4507TIP3    H135080   2.222   4.282   0.096  0.5097  0.7876  0.0410
 4507TIP3    H235081   2.333   4.258  -0.004  0.0928 -0.3741 -0.1513
 4508TIP3   OH235082   0.314   5.566   7.191  0.2816  0.3169  0.2953
 4508TIP3    H135083   0.350   5.489   7.148  0.9329 -0.0064  1.4025
 4508TIP3    H235084   0.223   5.542   7.212  0.2193  0.1732 -0.1277
 4509TIP3   OH235085   0.578   2.177   6.707  0.0918  0.0870 -0.0450
 4509TIP3    H135086   0.591   2.269   6.726  1.2676 -0.1986  0.5827
 4509TIP3    H235087   0.509   2.176   6.640 -0.1444  1.3870  0.1564
 4510TIP3   OH235088   4.434   3.968   2.192  0.7316  0.4348 -0.6871
 4510TIP3    H135089   4.484   3.928   2.263 -1.5483 -0.1876  0.6622
 4510TIP3    H235090   4.359   3.909   2.179 -0.1587  1.7867 -1.9802
 4511TIP3   OH235091   5.862   4.750   8.568  0.1625 -0.4179  0.6642
 4511TIP3    H135092   5.809   4.824   8.596  0.3505 -0.0942  0.1823
 4511TIP3    H235093   5.871   4.762   8.473 -0.1887 -1.3064  0.5094
 4512TIP3   OH235094   6.336   6.831   7.729  0.2572 -0.0128 -0.0446
 4512TIP3    H135095   6.372   6.747   7.760 -2.3840 -2.0990 -2.1082
 4512TIP3    H235096   6.314   6.878   7.809  1.2350 -1.5511  1.2004
 4513TIP3   OH235097   2.531   5.584   7.686  0.2179 -0.6855  0.3907
 4513TIP3    H135098   2.572   5.654   7.737  0.3336 -0.7702  0.4126
 4513TIP3    H235099   2.594   5.513   7.686  0.3853 -0.5492 -0.1881
 4514TIP3   OH235100   2.764   2.080   0.571  0.0478 -0.0820  0.2003
 4514TIP3    H135101   2.802   2.150   0.625  1.2950 -1.0161  0.5772
 4514TIP3    H235102   2.839   2.041   0.526 -0.7877 -0.3529 -1.0058
 4515TIP3   OH235103   5.089   1.362   0.695  0.4753 -0.4285 -0.5911
 4515TIP3    H135104   5.069   1.392   0.607  1.3193 -0.5443 -0.8290
 4515TIP3    H235105   5.119   1.440   0.741 -3.2711  0.4643  0.6963
 4516TIP3   OH235106   3.389   2.965   1.269  0.4330 -0.4628 -0.2088
 4516TIP3    H135107   3.415   2.940   1.358  5.1208 -0.3050 -1.2565
 4516TIP3    H235108   3.472   2.974   1.222 -1.7316  1.2933 -4.1607
 4517TIP3   OH235109   4.456   2.154   8.079  0.0785 -0.0013  0.5847
 4517TIP3    H135110   4.524   2.118   8.022 -0.1055  0.6508 -0.0577
 4517TIP3    H235111   4.453   2.093   8.153  1.1699 -0.1871  0.4963
 4518TIP3   OH235112   2.654   6.814   0.436 -0.0494  0.6478  0.4300
 4518TIP3    H135113   2.616   6.887   0.388  1.3783  0.7835 -0.5672
 4518TIP3    H235114   2.738   6.848   0.468  1.0204 -0.7726 -0.7463
 4519TIP3   OH235115   1.858   5.412   0.018 -0.5758 -0.0519 -0.0399
 4519TIP3    H135116   1.918   5.427   0.091  0.1033 -0.5465 -0.4748
 4519TIP3    H235117   1.774   5.391   0.059  0.0899 -1.5473  0.6503
 4520TIP3   OH235118   4.389   1.698   3.157 -0.6987 -0.1399  0.0808
 4520TIP3    H135119   4.465   1.695   3.215  0.1180 -0.5351 -0.9831
 4520TIP3    H235120   4.425   1.690   3.069 -1.9657 -0.1926 -0.4605
 4521TIP3   OH235121   6.153   5.617   1.886 -0.1756 -0.1830  0.0373
 4521TIP3    H135122   6.086   5.550   1.900 -0.2730 -0.0232  0.3588
 4521TIP3    H235123   6.150   5.636   1.793  0.8193 -1.6392 -0.3274
 4522TIP3   OH235124   3.174   1.334   1.630 -0.0205 -0.2304  0.4865
 4522TIP3    H135125   3.124   1.416   1.633  0.2678 -0.0693  2.4946
 4522TIP3    H235126   3.263   1.360   1.656  0.2324 -1.0797  0.4844
 4523TIP3   OH235127   1.869   0.848   7.657  0.0185 -0.1944 -0.5215
 4523TIP3    H135128   1.943   0.820   7.604 -0.6055 -1.0208 -0.9814
 4523TIP3    H235129   1.820   0.908   7.601  0.7302  0.9510  0.0520
 4524TIP3   OH235130   3.698   2.962   0.569  0.2004 -0.4376 -0.3429
 4524TIP3    H135131   3.748   2.989   0.647  0.1414 -0.9665 -0.1200
 4524TIP3    H235132   3.652   3.042   0.542  0.7063 -0.0871 -0.2074
 4525TIP3   OH235133   6.863   5.881   0.382 -0.4857 -0.4036 -0.4679
 4525TIP3    H135134   6.916   5.916   0.453  1.8124 -0.0247 -2.2695
 4525TIP3    H235135   6.794   5.946   0.368  1.2721  1.4536 -1.0138
 4526TIP3   OH235136   3.129   4.482   2.011 -0.2076  0.0660 -0.1143
 4526TIP3    H135137   3.060   4.416   2.006  1.3216 -1.6187 -0.2530
 4526TIP3    H235138   3.210   4.431   2.011  1.0368  1.9522  0.3154
 4527TIP3   OH235139   5.046   4.586   2.560  0.8352 -0.3940 -0.5684
 4527TIP3    H135140   5.078   4.675   2.547 -0.0371 -0.0398 -0.3743
 4527TIP3    H235141   4.982   4.594   2.631 -1.7591 -0.5751 -2.7507
 4528TIP3   OH235142   3.924   2.818   1.979  0.3161 -0.5807 -0.0321
 4528TIP3    H135143   4.019   2.818   1.990  0.2502 -1.1397  0.6175
 4528TIP3    H235144   3.890   2.850   2.062 -0.1091 -1.9229  0.3381
 4529TIP3   OH235145   6.238   3.935   8.307 -0.3113 -0.6865  0.2450
 4529TIP3    H135146   6.297   3.861   8.303 -0.4507 -0.8243  0.6157
 4529TIP3    H235147   6.153   3.900   8.282 -0.2395 -0.4908 -0.2819
 4530TIP3   OH235148   4.197   5.062   2.126 -0.4933  0.2623  0.4987
 4530TIP3    H135149   4.285   5.044   2.158 -0.1061  0.5366 -0.3823
 4530TIP3    H235150   4.139   5.016   2.187  0.1728  1.4062  2.0404
 4531TIP3   OH235151   0.075   3.713   0.258  0.2357  0.4307  0.8199
 4531TIP3    H135152   0.008   3.782   0.263  0.4457  0.6017  1.3247
 4531TIP3    H235153   0.157   3.760   0.248  0.1577  0.1844 -1.3339
 4532TIP3   OH235154   1.017   6.146   7.338 -0.0602 -0.1172  0.6583
 4532TIP3    H135155   0.963   6.208   7.290 -1.1000 -0.7806  0.9222
 4532TIP3    H235156   1.015   6.067   7.285  1.3579  0.0993  0.2568
 4533TIP3   OH235157   0.698   5.601   7.300 -0.3342  0.1205  0.6573
 4533TIP3    H135158   0.702   5.559   7.214 -0.5788  1.4069  0.0048
 4533TIP3    H235159   0.745   5.683   7.290 -0.3882  0.3044  1.7570
 4534TIP3   OH235160   1.299   4.163   2.789 -0.7134 -0.0886  0.2151
 4534TIP3    H135161   1.218   4.198   2.825 -0.2064  1.1319  0.2286
 4534TIP3    H235162   1.312   4.211   2.707 -1.3102 -2.0898 -1.1256
 4535TIP3   OH235163   0.133   4.442   7.552  0.5195  0.2478  0.2162
 4535TIP3    H135164   0.047   4.402   7.536  0.7561  0.1895 -1.0147
 4535TIP3    H235165   0.196   4.377   7.520  0.9541  0.9850 -0.4729
 4536TIP3   OH235166   1.814   1.399   6.925  0.1582  0.1455  0.6434
 4536TIP3    H135167   1.843   1.352   7.004  0.5330  1.1677  1.1346
 4536TIP3    H235168   1.783   1.484   6.957  2.6431  1.6028 -0.4956
 4537TIP3   OH235169   6.639   3.570   0.668 -0.5510 -0.3481 -0.1307
 4537TIP3    H135170   6.687   3.589   0.588  0.7022 -0.9617  0.4600
 4537TIP3    H235171   6.647   3.650   0.721  0.7928 -0.8248  0.4254
 4538TIP3   OH235172   1.197   5.110   1.204 -0.1351 -0.3544  0.1898
 4538TIP3    H135173   1.249   5.079   1.279  2.4551  0.4503 -1.1455
 4538TIP3    H235174   1.210   5.043   1.137  0.8196  0.7834 -0.8032
 4539TIP3   OH235175   6.671   1.195   0.076  0.1073  0.3830 -0.4157
 4539TIP3    H135176   6.767   1.192   0.072  0.1050 -1.7737  0.0515
 4539TIP3    H235177   6.652   1.242   0.157  0.7979 -0.3160  0.1665
 4540TIP3   OH235178   1.406   6.318   2.198 -0.1468 -0.3849 -0.1347
 4540TIP3    H135179   1.501   6.315   2.189 -0.0919 -1.0627  0.5649
 4540TIP3    H235180   1.375   6.351   2.114  0.7022 -0.1952 -0.3816
 4541TIP3   OH235181   4.458   2.777   3.058  0.0762  0.5565  0.3255
 4541TIP3    H135182   4.539   2.811   3.095  0.0902 -0.0086  0.8350
 4541TIP3    H235183   4.482   2.692   3.021 -0.4077  0.0957  1.0416
 4542TIP3   OH235184   4.839   3.655   8.183 -0.2535  0.3042  0.2298
 4542TIP3    H135185   4.875   3.728   8.133  0.6885 -0.2267  0.1011
 4542TIP3    H235186   4.794   3.601   8.118 -1.6288  1.1368  0.4394
 4543TIP3   OH235187   2.981   2.643   1.709 -0.5798  0.3884  0.1662
 4543TIP3    H135188   2.888   2.663   1.714 -1.5915 -2.7916 -2.2773
 4543TIP3    H235189   3.013   2.694   1.635 -0.1544  1.8273  1.2766
 4544TIP3   OH235190   5.767   4.738   0.941  0.0890 -0.2756 -0.0369
 4544TIP3    H135191   5.859   4.731   0.968  0.4290  0.1443 -1.0343
 4544TIP3    H235192   5.769   4.724   0.846 -1.1511 -2.4478  0.1950
 4545TIP3   OH235193   5.417   0.136   1.117  0.2897 -0.0741 -0.4399
 4545TIP3    H135194   5.429   0.135   1.212  1.0334  0.7720 -0.5085
 4545TIP3    H235195   5.499   0.101   1.082 -0.2084 -0.9471 -0.7682
 4546TIP3   OH235196   0.741   5.464   0.377 -0.0703 -0.4068 -0.0079
 4546TIP3    H135197   0.750   5.377   0.336 -0.5200  0.0087 -1.0138
 4546TIP3    H235198   0.647   5.477   0.384 -0.0526  0.6563 -1.3344
 4547TIP3   OH235199   4.744   5.946   7.742  0.0524 -0.1614  0.2444
 4547TIP3    H135200   4.731   5.863   7.787  0.8200  0.0773  0.9368
 4547TIP3    H235201   4.663   5.959   7.693 -0.2929 -1.0554  0.5486
 4548TIP3   OH235202   0.421   4.808   1.025 -0.4710  0.3778 -0.1673
 4548TIP3    H135203   0.465   4.823   0.942  0.5445  2.8095  0.7266
 4548TIP3    H235204   0.334   4.844   1.013 -0.6952 -0.2457 -0.4790
 4549TIP3   OH235205   6.065   4.504   2.197 -0.3926 -0.0382 -0.1406
 4549TIP3    H135206   6.034   4.586   2.236 -1.7297 -0.2296 -0.7634
 4549TIP3    H235207   6.142   4.530   2.146  0.3569  0.4873  1.2152
 4550TIP3   OH235208   2.078   4.165   1.586 -0.5767 -0.3782 -0.4648
 4550TIP3    H135209   2.118   4.168   1.500 -1.4592  0.1378 -0.8641
 4550TIP3    H235210   1.986   4.143   1.569 -0.9155  0.4092  0.2877
 4551TIP3   OH235211   4.384   4.464   2.408  0.0276 -0.6206  0.0870
 4551TIP3    H135212   4.346   4.386   2.367  0.0909 -1.2373  1.1485
 4551TIP3    H235213   4.311   4.527   2.412 -0.8264 -1.6517  1.7527
 4552TIP3   OH235214   1.642   0.161   8.315  0.2582  0.3201 -0.6010
 4552TIP3    H135215   1.722   0.160   8.367 -0.1004 -0.2015 -0.0447
 4552TIP3    H235216   1.630   0.070   8.287 -1.3824 -0.1058  1.2941
 4553TIP3   OH235217   3.487   5.312   0.164  0.0371 -0.2118  0.5913
 4553TIP3    H135218   3.571   5.268   0.152  0.2703  0.1800  0.7507
 4553TIP3    H235219   3.462   5.343   0.077  0.7592  0.9134  0.7716
 4554TIP3   OH235220   0.393   0.398   0.310 -0.3218  0.0798  0.1984
 4554TIP3    H135221   0.319   0.384   0.251  0.5063  0.2551 -0.8960
 4554TIP3    H235222   0.467   0.356   0.267  0.8250  2.2676 -0.1028
 4555TIP3   OH235223   2.322   1.324   2.891  0.0032 -0.1816  0.4798
 4555TIP3    H135224   2.274   1.395   2.932 -0.1638  0.3220 -0.5471
 4555TIP3    H235225   2.265   1.248   2.899 -0.6730  0.2523 -0.1185
 4556TIP3   OH235226   5.005   0.569   8.412  0.4107 -0.0977 -0.1352
 4556TIP3    H135227   5.054   0.491   8.384  0.1533  0.6055 -2.8262
 4556TIP3    H235228   5.033   0.638   8.352 -2.2646  0.8821 -0.3873
 4557TIP3   OH235229   2.256   3.545   2.917 -0.1091  0.0162 -0.0347
 4557TIP3    H135230   2.336   3.540   2.969 -0.2903  0.4059  0.2911
 4557TIP3    H235231   2.271   3.620   2.858  0.2136 -0.6014 -0.7592
 4558TIP3   OH235232   1.477   5.238   8.541 -0.2627 -0.2552  0.1008
 4558TIP3    H135233   1.394   5.190   8.549 -0.2709 -0.1992  0.3695
 4558TIP3    H235234   1.545   5.172   8.553 -0.2517 -0.4698 -1.0493
 4559TIP3   OH235235   3.518   1.309   2.270 -0.2998 -0.6006 -0.0299
 4559TIP3    H135236   3.609   1.332   2.289  0.5490 -2.3008 -1.7489
 4559TIP3    H235237   3.474   1.394   2.259  1.1858  0.2508  0.3386
 4560TIP3   OH235238   6.540   5.436   2.798 -0.2856 -0.0230  0.2376
 4560TIP3    H135239   6.546   5.341   2.790 -1.9402 -0.0874 -0.6059
 4560TIP3    H235240   6.631   5.466   2.797  0.2251 -1.5110 -0.7264
 4561TIP3   OH235241   6.545   0.567   7.132 -0.0189 -0.2852 -0.0529
 4561TIP3    H135242   6.610   0.527   7.074 -0.6944 -0.8829 -0.4196
 4561TIP3    H235243   6.536   0.657   7.100  1.2066  0.0687  0.5121
 4562TIP3   OH235244   4.783   5.538   8.152  0.5366  0.1783  0.1066
 4562TIP3    H135245   4.694   5.572   8.161  0.8910  0.9728  0.7020
 4562TIP3    H235246   4.779   5.450   8.191  0.0815  0.3033  0.3501
 4563TIP3   OH235247   2.121   6.856   1.723 -0.1567  0.5519  0.2623
 4563TIP3    H135248   2.070   6.936   1.713 -1.2582 -0.2306 -0.6525
 4563TIP3    H235249   2.181   6.857   1.648  1.6137  1.7130  1.5940
 4564TIP3   OH235250   5.877   1.672   1.181 -0.0069 -0.3400  0.4607
 4564TIP3    H135251   5.922   1.705   1.103 -2.3315 -3.0737 -2.3220
 4564TIP3    H235252   5.811   1.738   1.200 -0.8607 -0.6036 -1.3668
 4565TIP3   OH235253   1.440   2.349   2.621 -0.0151  0.0197  0.1552
 4565TIP3    H135254   1.516   2.405   2.638  1.8614 -2.3356  0.1270
 4565TIP3    H235255   1.452   2.318   2.532  0.9232 -2.9831  1.1966
 4566TIP3   OH235256   3.969   4.258   8.214 -0.0522  0.5424  0.4182
 4566TIP3    H135257   3.961   4.348   8.183  1.7396  1.3270  2.0271
 4566TIP3    H235258   4.011   4.212   8.141 -0.4196  1.1403 -0.1909
 4567TIP3   OH235259   3.298   6.650   1.466 -0.3693 -0.1922  0.1526
 4567TIP3    H135260   3.382   6.644   1.421 -0.7987 -0.1532 -0.6667
 4567TIP3    H235261   3.236   6.676   1.398 -0.9362  0.3874  0.8757
 4568TIP3   OH235262   3.776   1.416   7.838  0.3916  0.0259  0.3784
 4568TIP3    H135263   3.732   1.358   7.901 -0.8111  2.4954  1.9913
 4568TIP3    H235264   3.773   1.369   7.755 -3.2419 -1.0033  0.9193
 4569TIP3   OH235265   1.042   6.050   7.611  0.5433 -0.3697 -0.0175
 4569TIP3    H135266   1.042   5.956   7.592  1.0293 -0.2821 -0.4848
 4569TIP3    H235267   1.073   6.090   7.530  0.6145  0.1725  0.2758
 4570TIP3   OH235268   1.080   4.379   2.545 -0.2783 -0.4314  0.4564
 4570TIP3    H135269   1.027   4.455   2.570  1.2081  0.6025  0.5463
 4570TIP3    H235270   1.165   4.395   2.584 -0.0052 -2.2879  0.6687
 4571TIP3   OH235271   6.247   2.692   6.797 -0.2036 -0.4653  0.3362
 4571TIP3    H135272   6.266   2.598   6.788 -0.9762 -0.5447 -0.5670
 4571TIP3    H235273   6.166   2.705   6.749 -0.2420  0.6325  0.6707
 4572TIP3   OH235274   3.443   5.810   8.663  0.0184  0.4059 -0.3860
 4572TIP3    H135275   3.531   5.847   8.676  0.1968 -0.9363  3.3310
 4572TIP3    H235276   3.384   5.876   8.701 -0.2463 -0.1864  0.2416
 4573TIP3   OH235277   2.253   2.854   8.240 -0.3049  1.0423 -0.2533
 4573TIP3    H135278   2.180   2.847   8.179 -1.8286  1.4400  1.4366
 4573TIP3    H235279   2.247   2.943   8.275 -1.8917 -0.2569  3.2516
 4574TIP3   OH235280   2.809   4.270   1.002  0.3707  0.5580 -0.1256
 4574TIP3    H135281   2.761   4.208   0.949 -0.6153  2.0432 -1.0397
 4574TIP3    H235282   2.898   4.235   1.006 -0.6118 -2.0367  1.2584
 4575TIP3   OH235283   0.880   4.140   8.206 -0.3361 -0.7503  0.3840
 4575TIP3    H135284   0.812   4.128   8.273 -0.0991 -0.5353  0.6667
 4575TIP3    H235285   0.911   4.229   8.219 -0.9089 -0.3905 -0.6018
 4576TIP3   OH235286   2.190   3.539   7.012 -0.4677 -0.1804  0.0977
 4576TIP3    H135287   2.132   3.612   7.036 -1.8625 -1.4088  0.6094
 4576TIP3    H235288   2.213   3.498   7.096  1.5784  0.5364 -0.0400
 4577TIP3   OH235289   6.673   4.534   0.513 -0.1014 -0.2937  0.0410
 4577TIP3    H135290   6.669   4.546   0.418 -0.8614  0.1318  0.1183
 4577TIP3    H235291   6.598   4.479   0.532 -0.6159  0.5640  0.5309
 4578TIP3   OH235292   2.558   0.015   8.213  0.6723 -0.3352  0.4347
 4578TIP3    H135293   2.579   0.074   8.285 -0.3238 -0.3574  0.7579
 4578TIP3    H235294   2.501   0.067   8.156 -0.4484 -1.0550  0.8700
 4579TIP3   OH235295   6.599   1.566   8.581 -0.3026  0.0762  0.5360
 4579TIP3    H135296   6.563   1.542   8.667  1.8000 -0.2752  1.3638
 4579TIP3    H235297   6.693   1.574   8.596 -0.0874  1.7868 -1.3462
 4580TIP3   OH235298   0.388   0.182   7.422  0.5725  0.5901 -0.0624
 4580TIP3    H135299   0.373   0.276   7.433  0.3755  0.5619 -0.0867
 4580TIP3    H235300   0.307   0.141   7.451  1.2933  0.3118  1.6799
 4581TIP3   OH235301   0.568   0.359   2.481  0.4492 -0.5234  0.3517
 4581TIP3    H135302   0.614   0.349   2.564 -2.8640 -0.9941  2.3217
 4581TIP3    H235303   0.548   0.453   2.476  0.6637 -0.4920  0.0775
 4582TIP3   OH235304   3.948   6.417   1.382  0.2809  0.0460 -0.7266
 4582TIP3    H135305   3.954   6.429   1.477  1.5230  0.4715 -0.8442
 4582TIP3    H235306   4.010   6.346   1.362 -0.8560 -0.8824 -1.0878
 4583TIP3   OH235307   6.759   6.372   1.287  0.0626  0.3903 -0.5886
 4583TIP3    H135308   6.781   6.279   1.296 -1.7731 -0.0527 -0.1632
 4583TIP3    H235309   6.785   6.394   1.197  2.5269  0.0966 -0.0130
 4584TIP3   OH235310   6.704   2.740   0.005  0.4581  0.2501 -0.1630
 4584TIP3    H135311   6.702   2.652  -0.032 -3.8510  0.0738 -0.0981
 4584TIP3    H235312   6.720   2.727   0.098  1.7424 -0.2323 -0.4350
 4585TIP3   OH235313   1.624   3.037   1.875 -0.2677  0.2166 -0.4963
 4585TIP3    H135314   1.535   3.012   1.899  0.1146 -0.8519 -0.1127
 4585TIP3    H235315   1.647   3.107   1.936 -1.1371  1.0961 -1.1614
 4586TIP3   OH235316   1.886   4.618   0.552 -0.1540 -0.0466  0.4644
 4586TIP3    H135317   1.926   4.695   0.593  0.4327 -0.6065  0.9559
 4586TIP3    H235318   1.912   4.624   0.460 -0.2966  0.4524  0.4495
 4587TIP3   OH235319   4.058   3.562   2.820  0.2355  0.4805 -0.1357
 4587TIP3    H135320   3.993   3.518   2.765  1.2409 -0.7099 -0.4279
 4587TIP3    H235321   4.007   3.625   2.872 -0.9206  0.6862 -1.4510
 4588TIP3   OH235322   1.605   3.183   1.598 -0.2130 -0.0782  0.1231
 4588TIP3    H135323   1.573   3.201   1.687 -0.0234 -0.3453  0.2469
 4588TIP3    H235324   1.686   3.233   1.591 -0.3459  0.1247  0.0184
 4589TIP3   OH235325   6.012   5.649   1.045  0.5083  0.4760 -0.2073
 4589TIP3    H135326   5.930   5.606   1.069 -0.4289  1.5257 -1.3873
 4589TIP3    H235327   6.037   5.608   0.962 -0.8415  2.6311 -1.7956
 4590TIP3   OH235328   3.867   2.963   2.938  0.3754  0.1188  0.4969
 4590TIP3    H135329   3.900   2.888   2.988  2.4945 -0.6563 -1.8474
 4590TIP3    H235330   3.772   2.961   2.952  0.6335 -1.3896  2.5765
 4591TIP3   OH235331   3.481   4.168   1.570 -0.7195  0.6446 -0.0630
 4591TIP3    H135332   3.569   4.136   1.550 -0.4451  1.2390  0.1759
 4591TIP3    H235333   3.464   4.235   1.504 -0.5814  1.2468  0.4997
 4592TIP3   OH235334   1.415   4.225   2.527  0.0076  0.2047  0.4243
 4592TIP3    H135335   1.494   4.174   2.538 -0.5434 -0.5087  1.1393
 4592TIP3    H235336   1.411   4.242   2.432  0.6424 -0.3331  0.2920
 4593TIP3   OH235337   1.626   4.142   0.321  0.2208  0.5238 -0.5000
 4593TIP3    H135338   1.531   4.135   0.318  0.2478 -0.2033  0.1952
 4593TIP3    H235339   1.658   4.084   0.252  0.2665 -2.5782  1.9167
 4594TIP3   OH235340   4.175   2.998   2.200 -0.4503 -0.0006  0.4559
 4594TIP3    H135341   4.195   2.956   2.116 -0.6799  1.1396 -0.1858
 4594TIP3    H235342   4.242   2.966   2.260  0.7081  0.4284 -0.5766
 4595TIP3   OH235343   3.993   6.133   0.050  0.0712 -0.1378  0.0180
 4595TIP3    H135344   4.080   6.173   0.043 -0.8024  1.9662  0.5109
 4595TIP3    H235345   3.972   6.106  -0.040  0.3062  1.4628 -0.5499
 4596TIP3   OH235346   6.744   0.471   7.788  0.6340 -0.0542  0.1565
 4596TIP3    H135347   6.729   0.415   7.712  1.7714  0.4949 -0.5010
 4596TIP3    H235348   6.793   0.416   7.849 -0.5219 -0.5855  0.6289
 4597TIP3   OH235349   0.527   5.368   0.642  0.4196 -0.3224 -0.4438
 4597TIP3    H135350   0.466   5.441   0.655  1.7140  0.4637  1.7028
 4597TIP3    H235351   0.470   5.291   0.636 -0.8409  0.3976  1.3666
 4598TIP3   OH235352   3.580   5.804   7.794 -0.1588  0.0415 -0.6002
 4598TIP3    H135353   3.557   5.740   7.726  0.4315  0.0710 -0.8367
 4598TIP3    H235354   3.547   5.765   7.875  0.5724 -0.7911 -0.6787
 4599TIP3   OH235355   5.805   6.622   0.550  0.0581 -0.3436 -0.5217
 4599TIP3    H135356   5.816   6.527   0.540 -1.9573 -0.6396 -0.4190
 4599TIP3    H235357   5.882   6.660   0.507  0.3875 -2.0048 -1.4976
 4600TIP3   OH235358   0.024   3.219   6.524 -0.6879  0.1172 -0.1908
 4600TIP3    H135359   0.062   3.307   6.516  0.6337 -0.2802  1.2050
 4600TIP3    H235360   0.012   3.207   6.618  1.6167 -2.1365 -0.0679
 4601TIP3   OH235361   3.548   3.682   7.132 -0.1490  0.2945  0.2384
 4601TIP3    H135362   3.501   3.719   7.057  1.0410 -0.8986 -1.1488
 4601TIP3    H235363   3.629   3.734   7.137 -0.1094  0.2052  0.5411
 4602TIP3   OH235364   6.202   2.880   8.641  0.0098  0.0606 -0.3517
 4602TIP3    H135365   6.173   2.832   8.719  0.6494 -0.4497 -0.4212
 4602TIP3    H235366   6.200   2.972   8.668  0.1689 -0.1053  0.2531
 4603TIP3   OH235367   2.664   5.461   7.066 -0.2126  0.3741  0.4908
 4603TIP3    H135368   2.734   5.472   7.130 -0.2251  2.2407  0.2327
 4603TIP3    H235369   2.669   5.539   7.011  0.0494 -1.3172 -2.0636
 4604TIP3   OH235370   0.012   1.774   0.303  0.2451 -0.0124 -0.3971
 4604TIP3    H135371  -0.007   1.762   0.209  1.0085 -1.3592 -0.4061
 4604TIP3    H235372   0.093   1.824   0.305  0.0549  0.2985 -0.4514
 4605TIP3   OH235373   4.884   3.475   1.595  0.2980 -0.1575 -0.0690
 4605TIP3    H135374   4.938   3.516   1.662  0.8178  0.6820 -0.9809
 4605TIP3    H235375   4.889   3.534   1.520  0.0094 -1.2446 -0.9773
 4606TIP3   OH235376   1.316   3.869   1.542 -0.3028 -0.6585 -0.3245
 4606TIP3    H135377   1.296   3.849   1.451  0.2721 -0.1749 -0.5696
 4606TIP3    H235378   1.379   3.802   1.568  0.3324 -0.1929 -0.6197
 4607TIP3   OH235379   4.234   3.413   0.546  0.2644  0.3365 -0.4058
 4607TIP3    H135380   4.170   3.463   0.597 -1.5020 -1.5909 -0.6215
 4607TIP3    H235381   4.313   3.413   0.601 -0.1165  2.1126  0.2210
 4608TIP3   OH235382   3.972   3.733   7.556 -0.4368  0.2781 -0.3994
 4608TIP3    H135383   3.987   3.649   7.599  1.0571  1.2567  1.1588
 4608TIP3    H235384   3.900   3.718   7.496 -1.2549 -1.7081  1.0002
 4609TIP3   OH235385   1.704   5.137   8.194  0.2281 -0.1889 -0.4749
 4609TIP3    H135386   1.619   5.092   8.191 -0.8356  1.4948  1.5685
 4609TIP3    H235387   1.711   5.180   8.109  0.1662 -2.1827 -1.5478
 4610TIP3   OH235388   1.906   2.885   1.747  0.3893 -0.1372  0.4897
 4610TIP3    H135389   1.854   2.920   1.675  0.5768 -1.4320 -0.3173
 4610TIP3    H235390   1.997   2.891   1.716  0.6263  0.8665  1.3322
 4611TIP3   OH235391   2.271   5.414   7.404 -0.5317 -0.1910 -0.0914
 4611TIP3    H135392   2.203   5.446   7.345  1.4069 -0.1281 -2.4254
 4611TIP3    H235393   2.223   5.364   7.470 -2.9360  0.9942 -0.8197
 4612TIP3   OH235394   2.684   6.626   8.229 -0.1825  0.0466  0.0236
 4612TIP3    H135395   2.661   6.715   8.203 -0.2081  0.4029  1.1864
 4612TIP3    H235396   2.607   6.594   8.276 -0.7973 -1.2002 -1.7417
 4613TIP3   OH235397   0.295   2.529   2.821 -0.5166  0.1360  0.5194
 4613TIP3    H135398   0.389   2.515   2.838 -0.1109  0.3106 -1.4086
 4613TIP3    H235399   0.265   2.445   2.785 -0.9757  0.2672  0.5914
 4614TIP3   OH235400   2.606   6.380   1.989  0.6326 -0.0949  0.2567
 4614TIP3    H135401   2.657   6.393   1.909 -0.4103 -0.4687 -0.4872
 4614TIP3    H235402   2.672   6.366   2.057  1.5400  0.2925 -0.5111
 4615TIP3   OH235403   4.877   4.034   6.570 -0.5557  0.0220 -0.1392
 4615TIP3    H135404   4.835   4.056   6.653  2.7446  1.6162  1.3036
 4615TIP3    H235405   4.879   3.938   6.568  0.9140 -0.1053  2.6601
 4616TIP3   OH235406   4.374   0.796   1.539 -0.4962 -0.3499 -0.7320
 4616TIP3    H135407   4.459   0.752   1.550  0.3943  0.6086 -3.1460
 4616TIP3    H235408   4.385   0.881   1.583 -1.1462 -1.1814  1.1663
 4617TIP3   OH235409   5.014   3.576   2.116  0.2271  0.4683 -0.0550
 4617TIP3    H135410   5.006   3.483   2.137 -0.0057  0.2399 -1.0789
 4617TIP3    H235411   5.092   3.606   2.163  0.8066 -0.4542 -0.4112
 4618TIP3   OH235412   6.228   1.107   1.055 -0.3650  0.7433 -0.4641
 4618TIP3    H135413   6.266   1.194   1.052  0.7612  0.3047  0.2596
 4618TIP3    H235414   6.270   1.060   0.981 -0.0084  0.4630 -0.0904
 4619TIP3   OH235415   3.858   4.412   1.499 -0.0384  0.6404  0.1976
 4619TIP3    H135416   3.842   4.367   1.582  0.4922  2.2367  1.2272
 4619TIP3    H235417   3.826   4.352   1.432  0.0585 -0.9554  1.5157
 4620TIP3   OH235418   5.460   3.144   0.190 -0.4274  0.1051 -0.0005
 4620TIP3    H135419   5.494   3.177   0.107  0.6936  0.5980  0.6345
 4620TIP3    H235420   5.402   3.072   0.165 -0.1509  0.2788 -1.2044
 4621TIP3   OH235421   3.555   4.910   2.000  0.0948  0.2732 -0.0626
 4621TIP3    H135422   3.523   4.989   1.956 -0.2578  0.0485 -0.2172
 4621TIP3    H235423   3.501   4.839   1.965 -1.3880  0.3040  1.9530
 4622TIP3   OH235424   5.965   6.078   7.014  0.4961 -0.5047  0.1242
 4622TIP3    H135425   6.031   6.011   7.034  0.2227 -1.9215 -3.2160
 4622TIP3    H235426   6.016   6.153   6.985  0.7180 -0.7338 -0.0896
 4623TIP3   OH235427   4.004   0.857   0.924 -0.2953  0.1715  0.3402
 4623TIP3    H135428   4.005   0.766   0.953  2.4725  0.5747  1.8654
 4623TIP3    H235429   3.967   0.854   0.836  0.6607 -2.5614 -0.0509
 4624TIP3   OH235430   2.499   6.600   8.472 -0.0149 -0.5927 -0.6213
 4624TIP3    H135431   2.515   6.687   8.510 -0.5647  0.2031 -2.0906
 4624TIP3    H235432   2.446   6.554   8.536  0.7760 -0.0598  0.4415
 4625TIP3   OH235433   6.742   0.599   0.379  0.2300 -0.2376  0.0299
 4625TIP3    H135434   6.695   0.567   0.301  1.4723  0.9382 -1.2595
 4625TIP3    H235435   6.699   0.554   0.452 -1.0043 -1.3769 -1.3096
 4626TIP3   OH235436   4.881   3.879   8.018 -0.3406  0.5822  0.1749
 4626TIP3    H135437   4.917   3.881   7.930 -0.2292  1.3985  0.2315
 4626TIP3    H235438   4.904   3.964   8.056  1.7631 -0.6034  1.8425
 4627TIP3   OH235439   4.646   4.356   2.328 -0.4110  0.3862  0.3845
 4627TIP3    H135440   4.692   4.283   2.369 -0.5591  0.8015  1.3020
 4627TIP3    H235441   4.563   4.361   2.375 -0.2148  1.4320  0.6218
 4628TIP3   OH235442   2.752   5.750   7.810  0.1115 -0.5011 -0.1791
 4628TIP3    H135443   2.843   5.728   7.791  0.5020  0.6895  0.2360
 4628TIP3    H235444   2.729   5.816   7.746  0.1842  0.6365  0.9311
 4629TIP3   OH235445   5.922   0.454   0.920 -0.5910  0.3279 -0.4260
 4629TIP3    H135446   6.002   0.413   0.887 -0.0523  1.5545 -0.6992
 4629TIP3    H235447   5.872   0.381   0.958 -0.4362 -0.8454 -2.3415
 4630TIP3   OH235448   6.154   3.879   7.331  0.0745 -0.3904 -0.4878
 4630TIP3    H135449   6.060   3.859   7.336 -0.1299 -0.3588 -2.7754
 4630TIP3    H235450   6.157   3.966   7.291  1.0581 -0.5885 -0.8633
 4631TIP3   OH235451   1.701   3.806   2.378  1.2256 -0.4047 -0.4367
 4631TIP3    H135452   1.646   3.737   2.342  2.4172 -0.9945 -1.2116
 4631TIP3    H235453   1.709   3.870   2.307  1.4162 -0.2564 -0.2847
 4632TIP3   OH235454   5.088   1.612   0.532  0.4434 -0.3578  0.3115
 4632TIP3    H135455   5.010   1.558   0.517  0.3335 -0.0584 -0.2171
 4632TIP3    H235456   5.156   1.572   0.477 -0.1335  1.1292 -1.5989
 4633TIP3   OH235457   0.027   1.785   2.306 -0.1034 -0.1855 -0.3661
 4633TIP3    H135458   0.035   1.880   2.298 -0.9792 -0.1392 -0.7698
 4633TIP3    H235459   0.118   1.755   2.316  0.3753  0.5538 -1.9715
 4634TIP3   OH235460   3.840   3.269   1.661 -0.2324 -0.0698  0.2516
 4634TIP3    H135461   3.859   3.270   1.567  1.5341 -0.0640  0.5607
 4634TIP3    H235462   3.846   3.177   1.686 -0.7089 -0.0724  0.3610
 4635TIP3   OH235463   4.205   1.609   0.903 -0.3607 -0.2560 -0.1079
 4635TIP3    H135464   4.239   1.697   0.891 -2.4891  0.6733  0.1272
 4635TIP3    H235465   4.116   1.613   0.868 -1.4414 -1.5797  2.2119
 4636TIP3   OH235466   0.691   5.738   7.583  0.2180  0.6933 -0.3427
 4636TIP3    H135467   0.765   5.699   7.628 -1.8004 -1.0302  1.7699
 4636TIP3    H235468   0.686   5.691   7.500  0.3754 -0.5913  0.3472
 4637TIP3   OH235469   2.032   3.329   6.947 -0.3551  0.3021 -0.4496
 4637TIP3    H135470   2.079   3.405   6.915 -3.8255  2.2721 -1.3796
 4637TIP3    H235471   1.967   3.364   7.007  0.0268 -2.3692  1.7557
 4638TIP3   OH235472   3.853   0.924   2.799 -0.3339 -0.1075 -0.4321
 4638TIP3    H135473   3.855   0.878   2.714 -0.7545 -0.5248 -0.2240
 4638TIP3    H235474   3.918   0.993   2.790 -1.3496  0.7534 -1.6174
 4639TIP3   OH235475   3.687   1.469   1.577  1.0097 -0.5442 -0.1217
 4639TIP3    H135476   3.682   1.425   1.492  2.1031  0.4475 -0.7314
 4639TIP3    H235477   3.781   1.467   1.599  0.9437  0.5803  0.3109
 4640TIP3   OH235478   1.353   1.103   1.534 -0.0132 -0.0176  0.5776
 4640TIP3    H135479   1.397   1.187   1.547  2.4009 -1.3967  2.0913
 4640TIP3    H235480   1.352   1.063   1.621 -0.8073 -1.6929 -0.1521
 4641TIP3   OH235481   2.950   3.571   8.423  0.2120 -0.1190  0.6337
 4641TIP3    H135482   2.955   3.599   8.332  1.7050  0.2109  0.7967
 4641TIP3    H235483   2.879   3.507   8.424  1.5583 -1.7582 -1.2069
 4642TIP3   OH235484   0.532   0.799   7.696  0.2351  0.0663 -0.2430
 4642TIP3    H135485   0.451   0.794   7.746 -1.1266  0.0614 -2.2925
 4642TIP3    H235486   0.508   0.768   7.608  2.6645 -0.6869 -0.7220
 4643TIP3   OH235487   5.836   1.952   7.459  0.3445 -0.4367  0.0424
 4643TIP3    H135488   5.747   1.918   7.465 -0.3678  1.0209 -1.4680
 4643TIP3    H235489   5.860   1.940   7.367  1.0507  0.7102  0.0624
 4644TIP3   OH235490   4.593   5.298   0.778  0.4068  0.7737 -0.3881
 4644TIP3    H135491   4.499   5.311   0.795 -0.1962 -1.7808 -1.2443
 4644TIP3    H235492   4.599   5.284   0.684  1.5755  0.4467 -0.2834
 4645TIP3   OH235493   0.331   3.847   8.116  0.6267  0.2035  0.1566
 4645TIP3    H135494   0.416   3.882   8.144 -0.5471  0.7539  3.4795
 4645TIP3    H235495   0.333   3.755   8.142  0.0446  0.3402  0.6974
 4646TIP3   OH235496   1.308   4.453   2.660 -0.2377 -0.3133  0.5207
 4646TIP3    H135497   1.385   4.399   2.641 -1.1484 -1.0473 -1.4648
 4646TIP3    H235498   1.329   4.539   2.623  0.5978  0.2735  2.2820
 4647TIP3   OH235499   0.351   4.337   0.721 -0.2100 -0.4733  0.2370
 4647TIP3    H135500   0.298   4.264   0.754  0.1451 -1.9615 -2.2991
 4647TIP3    H235501   0.436   4.298   0.701  0.7007  1.1313  0.7978
 4648TIP3   OH235502   0.541   4.239   1.211  0.4650 -0.4822 -0.3649
 4648TIP3    H135503   0.516   4.307   1.149 -1.8056 -1.0451 -0.1694
 4648TIP3    H235504   0.550   4.160   1.157 -2.4284 -1.1812  0.0033
 4649TIP3   OH235505   0.049   3.115   7.074 -0.0654 -0.2967  0.3621
 4649TIP3    H135506  -0.043   3.106   7.101  0.0838  0.0440  1.0024
 4649TIP3    H235507   0.061   3.047   7.007 -0.2070 -1.7715  1.7826
 4650TIP3   OH235508   5.876   3.680   2.484  0.3556  0.2617 -0.0389
 4650TIP3    H135509   5.833   3.738   2.546  0.2570 -0.1898  0.3223
 4650TIP3    H235510   5.954   3.649   2.530 -0.7206 -1.6082  0.6379
 4651TIP3   OH235511   6.309   1.749   3.021  0.4691 -0.3686  0.1894
 4651TIP3    H135512   6.249   1.805   2.973  0.8562  0.7698  0.9949
 4651TIP3    H235513   6.274   1.746   3.110  0.6092 -1.1822  0.2272
 4652TIP3   OH235514   2.841   2.764   2.045 -0.4430 -0.1916  0.3265
 4652TIP3    H135515   2.777   2.788   2.112 -0.1407  0.1091  0.5077
 4652TIP3    H235516   2.885   2.846   2.024  0.6703 -0.5898  1.0280
 4653TIP3   OH235517   1.429   0.383   1.449  0.2737 -0.2047  0.5605
 4653TIP3    H135518   1.368   0.315   1.477  2.2593 -1.3809  2.3219
 4653TIP3    H235519   1.456   0.356   1.361 -2.3401  0.8695 -0.6985
 4654TIP3   OH235520   1.442   1.824   7.375 -0.2843 -0.3290 -0.1773
 4654TIP3    H135521   1.506   1.796   7.440 -1.6712 -0.8868  0.9884
 4654TIP3    H235522   1.477   1.790   7.292  0.1654 -1.9804  0.6448
 4655TIP3   OH235523   6.808   0.934   0.871  0.5028  0.5461  0.0816
 4655TIP3    H135524   6.868   0.910   0.941  1.4798  0.5574 -0.7291
 4655TIP3    H235525   6.863   0.976   0.806 -0.2184 -0.2661 -1.0943
 4656TIP3   OH235526   0.958   0.524   0.182 -0.2967  0.1248 -0.1969
 4656TIP3    H135527   0.911   0.484   0.255 -0.0648 -1.6647 -0.9583
 4656TIP3    H235528   0.900   0.511   0.107 -0.4186  1.7103 -0.4070
 4657TIP3   OH235529   5.764   2.806   2.740 -0.3736 -0.7940  0.1134
 4657TIP3    H135530   5.692   2.847   2.693 -2.0339 -2.7640  0.7648
 4657TIP3    H235531   5.763   2.715   2.711  1.6065 -0.9775  0.4719
 4658TIP3   OH235532   4.920   4.946   0.666 -0.3552  0.1472 -0.9122
 4658TIP3    H135533   4.961   5.028   0.693  0.0819  0.0906 -1.3833
 4658TIP3    H235534   4.951   4.932   0.577 -1.6440  0.2531 -1.4056
 4659TIP3   OH235535   3.453   0.340   8.379  0.3190 -0.0398 -0.2885
 4659TIP3    H135536   3.457   0.401   8.453  0.2475  2.1212 -1.9658
 4659TIP3    H235537   3.519   0.372   8.318 -0.6254 -0.8571 -1.7969
 4660TIP3   OH235538   1.009   4.756   8.152  0.0622  0.0682  0.1536
 4660TIP3    H135539   1.016   4.816   8.078 -1.0367  1.1448  0.8544
 4660TIP3    H235540   1.099   4.744   8.183  0.4038  0.5202 -0.6558
 4661TIP3   OH235541   5.833   3.987   1.319  0.1611  0.1068 -0.5456
 4661TIP3    H135542   5.849   3.893   1.327  2.1066  0.5197  1.4129
 4661TIP3    H235543   5.920   4.027   1.325 -0.6992  2.0658 -0.3371
 4662TIP3   OH235544   2.468   0.031   8.534  0.0301 -0.3552  0.8702
 4662TIP3    H135545   2.559   0.056   8.552  0.4516 -0.6987 -0.6361
 4662TIP3    H235546   2.435   0.099   8.476  0.4408 -1.9113 -1.3343
 4663TIP3   OH235547   1.067   1.797   1.324 -0.1270 -0.0004 -0.1583
 4663TIP3    H135548   1.040   1.858   1.256 -0.8158  0.2819  0.3520
 4663TIP3    H235549   0.987   1.750   1.348  0.3143 -0.8229 -0.2631
 4664TIP3   OH235550   2.858   2.052   2.267 -0.4266  0.8057  0.1170
 4664TIP3    H135551   2.831   2.138   2.300 -1.6131  0.4016  0.2543
 4664TIP3    H235552   2.866   2.064   2.173  2.5603  1.8566  0.4089
 4665TIP3   OH235553   4.635   1.947   0.960 -0.1399  0.4573 -0.1394
 4665TIP3    H135554   4.639   1.854   0.986  1.7669  0.7616  0.8801
 4665TIP3    H235555   4.636   1.945   0.864 -2.8006 -0.5987 -0.2354
 4666TIP3   OH235556   2.215   2.997   1.372 -0.0496  0.0787 -0.3869
 4666TIP3    H135557   2.144   3.015   1.310  1.3043  1.9903 -1.4630
 4666TIP3    H235558   2.295   3.014   1.323  1.1509 -0.5693  1.2443
 4667TIP3   OH235559   2.385   3.832   0.774 -0.2615  0.1708  0.0588
 4667TIP3    H135560   2.473   3.870   0.773 -0.6895  1.2238  0.4400
 4667TIP3    H235561   2.390   3.761   0.837  0.1158  0.7685  0.7227
 4668TIP3   OH235562   1.590   6.165   1.865  0.2449 -0.4753 -0.3279
 4668TIP3    H135563   1.557   6.101   1.927  1.6120 -1.7088 -0.8024
 4668TIP3    H235564   1.520   6.175   1.800 -0.1076 -1.2581 -0.0746
 4669TIP3   OH235565   3.118   2.142   8.322  0.4591 -1.1639  0.5330
 4669TIP3    H135566   3.038   2.173   8.279  0.0112 -2.3352  0.4948
 4669TIP3    H235567   3.170   2.221   8.334  0.7758 -0.8003 -2.4446
 4670TIP3   OH235568   4.049   3.401   7.820 -0.1682 -0.3511  0.0854
 4670TIP3    H135569   4.035   3.471   7.884 -1.5140 -1.1539  0.7103
 4670TIP3    H235570   4.142   3.381   7.827 -0.3971 -0.9097  2.3672
 4671TIP3   OH235571   4.353   6.675   0.088 -0.4058 -0.0678 -0.0729
 4671TIP3    H135572   4.391   6.656   0.002  0.0217 -1.1182  0.3464
 4671TIP3    H235573   4.264   6.639   0.083 -0.6741  0.6141 -0.3547
 4672TIP3   OH235574   3.533   6.018   0.884 -0.4460 -0.1162  0.1524
 4672TIP3    H135575   3.524   6.026   0.789  1.1323 -2.2898 -0.2556
 4672TIP3    H235576   3.443   6.006   0.916 -0.9861  0.5894 -1.0329
 4673TIP3   OH235577   3.790   1.779   8.306 -0.4802 -0.3707 -0.1244
 4673TIP3    H135578   3.873   1.751   8.268 -0.6803 -3.2232  1.2653
 4673TIP3    H235579   3.758   1.848   8.247  2.9522  1.0767 -0.5195
 4674TIP3   OH235580   5.321   6.715   2.205  0.4168  0.0108 -0.3920
 4674TIP3    H135581   5.260   6.664   2.258  0.7330  0.9900  0.9904
 4674TIP3    H235582   5.354   6.654   2.139 -0.0428 -1.2482  0.5055
 4675TIP3   OH235583   4.014   0.418   8.291  0.4106 -0.1393 -0.6540
 4675TIP3    H135584   4.024   0.347   8.227  2.0981  0.8024 -1.4934
 4675TIP3    H235585   4.034   0.498   8.242 -0.2244  0.8247  0.5805
 4676TIP3   OH235586   2.712   2.838   6.705 -0.5717 -0.8786 -0.1552
 4676TIP3    H135587   2.617   2.851   6.715 -0.5639 -0.8948 -0.0626
 4676TIP3    H235588   2.738   2.789   6.783 -0.4234 -0.5473  0.0030
 4677TIP3   OH235589   2.814   1.451   1.109  0.2760  0.2366  0.4300
 4677TIP3    H135590   2.742   1.407   1.155  0.1839 -2.4608 -2.0343
 4677TIP3    H235591   2.884   1.386   1.107  0.6952  0.6737 -2.1035
 4678TIP3   OH235592   5.275   6.674   1.270 -0.4809 -0.3386 -0.1510
 4678TIP3    H135593   5.231   6.706   1.350 -0.0221  0.6875 -0.2878
 4678TIP3    H235594   5.307   6.587   1.293  1.7264  0.8434  1.6210
 4679TIP3   OH235595   1.996   2.746   1.383  0.2497 -0.2190 -0.0160
 4679TIP3    H135596   2.084   2.735   1.419 -0.5754 -0.9999  1.8761
 4679TIP3    H235597   1.939   2.696   1.442 -1.6837  1.5398 -0.2819
 4680TIP3   OH235598   4.273   4.181   0.674 -0.0149 -0.4794  0.2304
 4680TIP3    H135599   4.266   4.272   0.704 -0.6572 -0.2980 -0.4606
 4680TIP3    H235600   4.223   4.131   0.738  0.1778 -0.3254  0.5047
 4681TIP3   OH235601   2.848   6.667   8.443 -0.2050  0.0925  0.0924
 4681TIP3    H135602   2.854   6.582   8.487  0.3451 -0.1955 -0.5320
 4681TIP3    H235603   2.791   6.651   8.368  1.5211 -0.2362 -1.1895
 4682TIP3   OH235604   3.948   0.928   8.179 -0.5370 -0.0700  0.5896
 4682TIP3    H135605   4.012   0.948   8.247 -1.5627  1.7997  1.0490
 4682TIP3    H235606   3.962   0.995   8.112  1.0973 -2.4123 -1.6087
 4683TIP3   OH235607   0.924   0.162   7.922  0.0721  0.0966 -0.0192
 4683TIP3    H135608   0.942   0.192   7.833 -1.9793 -2.5411 -1.4649
 4683TIP3    H235609   0.847   0.212   7.948  0.3363  0.4698  0.0477
 4684TIP3   OH235610   1.900   6.485   0.095 -0.3495  0.1909 -0.6572
 4684TIP3    H135611   1.951   6.560   0.065 -0.7900  0.6380 -0.3112
 4684TIP3    H235612   1.907   6.421   0.024  1.4710 -0.1529 -0.2357
 4685TIP3   OH235613   5.960   4.566   7.987 -0.1551  0.0632 -0.3635
 4685TIP3    H135614   5.915   4.507   7.926 -1.3144 -1.2342  1.6490
 4685TIP3    H235615   6.035   4.598   7.937 -0.8321 -1.2262 -2.3410
 4686TIP3   OH235616   4.984   2.608   7.421  0.8702 -0.3966  0.5048
 4686TIP3    H135617   5.079   2.621   7.413  0.8855 -0.2948  0.8319
 4686TIP3    H235618   4.973   2.514   7.423  1.0978 -0.4074  1.9610
 4687TIP3   OH235619   2.567   5.616   1.243 -0.0206 -0.2415  0.1865
 4687TIP3    H135620   2.661   5.630   1.252  0.3472 -1.9443 -0.6660
 4687TIP3    H235621   2.536   5.695   1.197  0.6085  1.2481  2.1809
 4688TIP3   OH235622   2.649   3.869   0.656 -0.3008  0.2552  0.0720
 4688TIP3    H135623   2.710   3.875   0.583 -0.0257  0.8406  0.3412
 4688TIP3    H235624   2.685   3.801   0.712  2.7461  3.5260  2.5822
 4689TIP3   OH235625   3.126   6.451   0.050 -0.1943  0.2148 -0.5991
 4689TIP3    H135626   3.201   6.450  -0.010 -0.1910 -0.6048 -0.5837
 4689TIP3    H235627   3.050   6.440  -0.007 -0.2662  0.4731 -0.5547
 4690TIP3   OH235628   4.013   4.970   8.419 -0.6496 -0.2831  0.2141
 4690TIP3    H135629   4.106   4.949   8.409 -0.5872  0.8110 -2.4704
 4690TIP3    H235630   3.968   4.887   8.408 -0.0527 -0.4289 -1.5597
 4691TIP3   OH235631   2.582   6.835   1.830 -0.2793 -0.0650  0.4704
 4691TIP3    H135632   2.596   6.925   1.861 -0.1772 -0.3955  1.4404
 4691TIP3    H235633   2.496   6.811   1.864 -1.0507  0.2237 -1.2022
 4692TIP3   OH235634   1.213   6.663   1.121  0.2281  0.3279 -0.0707
 4692TIP3    H135635   1.123   6.655   1.091 -0.9339  2.9741  2.2605
 4692TIP3    H235636   1.250   6.732   1.065  0.0183  0.8899  0.4665
 4693TIP3   OH235637   4.886   1.430   0.529 -0.7046  0.0628  0.3819
 4693TIP3    H135638   4.828   1.395   0.461  0.1451  0.0679 -0.3666
 4693TIP3    H235639   4.850   1.397   0.611  0.8578 -3.8662 -0.3286
 4694TIP3   OH235640   0.878   1.929   2.240 -0.2457  0.1704  0.2396
 4694TIP3    H135641   0.931   1.994   2.194  1.4650 -0.3847  1.3525
 4694TIP3    H235642   0.871   1.962   2.329  1.0349 -1.3406  0.9476
 4695TIP3   OH235643   2.716   4.124   0.151 -0.4286 -0.1751 -0.2144
 4695TIP3    H135644   2.799   4.080   0.171 -0.8758 -0.8241  0.2833
 4695TIP3    H235645   2.734   4.176   0.073  0.0524 -1.5145 -1.0411
 4696TIP3   OH235646   6.633   0.144   2.220  0.0698  0.3948 -0.1191
 4696TIP3    H135647   6.623   0.236   2.196 -0.0881  1.1108  2.3831
 4696TIP3    H235648   6.659   0.146   2.312 -0.2270 -2.0848  0.0935
 4697TIP3   OH235649   5.496   4.212   7.916 -0.1833 -0.3626  0.1533
 4697TIP3    H135650   5.551   4.258   7.980 -0.5971 -0.5573  0.6614
 4697TIP3    H235651   5.555   4.191   7.844  0.1901  0.2702  0.2639
 4698TIP3   OH235652   1.854   2.763   2.411  0.3892 -0.1077  0.4658
 4698TIP3    H135653   1.938   2.769   2.457  0.5661  2.4934 -0.0454
 4698TIP3    H235654   1.854   2.676   2.372  3.3518  0.1680 -0.3758
 4699TIP3   OH235655   6.070   1.872   2.879  0.9671  0.0466  0.3627
 4699TIP3    H135656   6.052   1.848   2.788  1.3180  1.1506 -0.0201
 4699TIP3    H235657   5.987   1.903   2.914  0.9440  0.1093  0.2511
 4700TIP3   OH235658   6.374   3.617   1.261  0.5323  0.2511 -0.5212
 4700TIP3    H135659   6.286   3.611   1.299 -0.2634  1.3610 -2.0712
 4700TIP3    H235660   6.420   3.680   1.317  0.3425 -0.2891  0.2658
 4701TIP3   OH235661   3.377   4.879   7.887  0.2159  0.2934  0.3948
 4701TIP3    H135662   3.440   4.825   7.839  0.4041  0.1738  0.7732
 4701TIP3    H235663   3.422   4.962   7.900  0.0723  0.4093  0.1514
 4702TIP3   OH235664   5.010   2.095   0.859 -0.0021  0.1992 -0.3069
 4702TIP3    H135665   4.968   2.020   0.900 -1.8123  1.1528 -0.2983
 4702TIP3    H235666   4.938   2.154   0.837  1.1193  0.7673 -2.7609
 4703TIP3   OH235667   5.444   1.316   6.842  0.5243 -0.5450 -0.1708
 4703TIP3    H135668   5.426   1.409   6.849 -0.1121 -0.5915 -1.0729
 4703TIP3    H235669   5.382   1.274   6.902 -0.0171 -0.4673 -0.6739
 4704TIP3   OH235670   1.897   6.484   0.849  0.1953 -0.0580  0.5279
 4704TIP3    H135671   1.953   6.502   0.925 -0.5776  0.1227  1.0666
 4704TIP3    H235672   1.910   6.391   0.832 -2.7861 -1.2706  3.6087
 4705TIP3   OH235673   1.534   3.718   1.603  0.5163 -0.1457  0.4860
 4705TIP3    H135674   1.562   3.804   1.632 -1.1935 -0.1208  2.2718
 4705TIP3    H235675   1.592   3.657   1.649 -0.4262 -0.0156  1.8979
 4706TIP3   OH235676   3.847   4.450   8.365  0.1066 -0.4754  0.5602
 4706TIP3    H135677   3.908   4.396   8.416  0.4135 -0.6345  0.0329
 4706TIP3    H235678   3.768   4.397   8.359  0.4722 -0.9544 -0.1184
 4707TIP3   OH235679   0.482   5.431   0.218  0.0017  0.5291  0.2769
 4707TIP3    H135680   0.466   5.472   0.133  0.3077  4.0162  1.7118
 4707TIP3    H235681   0.405   5.452   0.270 -0.2899 -1.7547  0.8638
 4708TIP3   OH235682   2.775   3.374   0.328 -0.0468 -0.5253 -0.2775
 4708TIP3    H135683   2.814   3.290   0.353  0.5216 -0.0651  0.4147
 4708TIP3    H235684   2.828   3.405   0.255  1.0692  0.1924  0.7837
 4709TIP3   OH235685   4.054   5.984   0.770 -0.2414  0.1719  0.0658
 4709TIP3    H135686   3.972   6.008   0.726  1.0671  2.8886 -1.0675
 4709TIP3    H235687   4.066   6.050   0.838 -0.2155 -1.7092  2.0141
 4710TIP3   OH235688   4.993   2.727   8.384  0.6230  0.8835  0.5826
 4710TIP3    H135689   5.073   2.676   8.368 -0.4587 -0.4024 -0.9760
 4710TIP3    H235690   4.968   2.705   8.473  0.2464 -1.2933 -0.0100
 4711TIP3   OH235691   4.214   4.170   6.862 -0.6531  0.1380 -0.1029
 4711TIP3    H135692   4.158   4.219   6.923  0.0467  1.0120 -0.1484
 4711TIP3    H235693   4.297   4.160   6.908 -0.7089 -0.8213 -0.1883
 4712TIP3   OH235694   5.708   0.383   1.969 -0.0374  0.0249 -0.1227
 4712TIP3    H135695   5.752   0.320   2.026  0.8653  1.1529  0.4642
 4712TIP3    H235696   5.758   0.463   1.979 -2.2009  1.3859  0.5394
 4713TIP3   OH235697   1.093   3.068   8.392  0.3356  0.2205 -0.1058
 4713TIP3    H135698   1.125   3.023   8.314  1.1007 -1.0119  0.8829
 4713TIP3    H235699   1.004   3.035   8.403  0.6239 -0.4792  0.1768
 4714TIP3   OH235700   3.265   5.232   1.003 -0.5966  0.3640 -0.2480
 4714TIP3    H135701   3.209   5.310   1.012 -0.5005  0.3459  0.6047
 4714TIP3    H235702   3.323   5.236   1.079  0.1526  0.0490 -0.8015
 4715TIP3   OH235703   3.401   0.033   6.759  0.3346  0.1245 -0.4596
 4715TIP3    H135704   3.375  -0.006   6.843 -0.9825  0.8573 -0.5028
 4715TIP3    H235705   3.488   0.069   6.776  0.1575  0.1114  0.5463
 4716TIP3   OH235706   5.594   4.525   1.477  0.1432  0.1280  0.5888
 4716TIP3    H135707   5.520   4.544   1.534  1.2131  0.7648  1.8167
 4716TIP3    H235708   5.664   4.584   1.507  1.3407 -0.8787 -0.1089
 4717TIP3   OH235709   6.651   5.928   1.357 -0.0209  0.1388 -0.2857
 4717TIP3    H135710   6.609   5.879   1.286 -0.5157 -0.2455  0.2584
 4717TIP3    H235711   6.578   5.969   1.404  0.2687  0.0928  0.2104
 4718TIP3   OH235712   0.441   5.251   8.623 -0.2459  0.2944  0.0802
 4718TIP3    H135713   0.481   5.311   8.686  1.4659  0.2123 -0.8485
 4718TIP3    H235714   0.492   5.264   8.543 -0.5430 -1.6051 -0.4615
 4719TIP3   OH235715   2.192   0.122   2.386  0.5249  0.2954 -0.0423
 4719TIP3    H135716   2.260   0.187   2.399 -0.7589  1.4969  1.0932
 4719TIP3    H235717   2.113   0.173   2.368 -1.1449 -0.6604  3.4973
 4720TIP3   OH235718   3.123   5.717   0.065  0.5364 -0.7522 -0.0926
 4720TIP3    H135719   3.178   5.756  -0.002 -0.4797 -0.2490 -0.6675
 4720TIP3    H235720   3.049   5.680   0.017 -0.2441 -0.3331  0.7416
 4721TIP3   OH235721   3.329   2.562   8.643  0.2734  0.2214 -0.3831
 4721TIP3    H135722   3.247   2.515   8.657  0.0249  0.5611 -0.6744
 4721TIP3    H235723   3.388   2.498   8.602  0.4715 -0.3014  0.6764
 4722TIP3   OH235724   6.152   0.658   0.013  0.7833  0.0134 -0.6215
 4722TIP3    H135725   6.148   0.719   0.087  0.9033 -0.3849 -0.2807
 4722TIP3    H235726   6.106   0.703  -0.057  2.7802  1.4845 -1.0933
 4723TIP3   OH235727   3.172   2.817   1.183 -0.1043  0.1534  0.7716
 4723TIP3    H135728   3.200   2.775   1.102 -1.7388  1.2006 -0.3950
 4723TIP3    H235729   3.237   2.886   1.198 -0.4190  0.7007 -0.3014
 4724TIP3   OH235730   0.145   5.143   1.610  0.1799 -0.2608 -0.4508
 4724TIP3    H135731   0.200   5.094   1.671  0.3650  0.4647 -0.0239
 4724TIP3    H235732   0.066   5.164   1.661 -1.3966 -2.9361 -1.6080
 4725TIP3   OH235733   3.414   2.188   0.507  0.2091 -0.7529 -0.6110
 4725TIP3    H135734   3.448   2.214   0.421  0.4550  0.8500 -0.0608
 4725TIP3    H235735   3.321   2.207   0.503  0.3926  0.2949 -0.2008
 4726TIP3   OH235736   4.114   2.253   8.304  0.7905 -0.0808 -0.1906
 4726TIP3    H135737   4.192   2.308   8.302 -0.1305  1.4620  2.0468
 4726TIP3    H235738   4.044   2.311   8.333 -0.3392 -2.2813  1.8319
 4727TIP3   OH235739   5.809   6.111   0.392 -0.1906 -0.0818  0.8856
 4727TIP3    H135740   5.739   6.052   0.362 -1.4557  1.0520  1.4717
 4727TIP3    H235741   5.849   6.144   0.312  1.4717 -2.7204  0.5289
 4728TIP3   OH235742   2.490   4.714   8.103  0.3792  0.7242 -0.5561
 4728TIP3    H135743   2.565   4.666   8.136  0.4640  0.7190 -0.7560
 4728TIP3    H235744   2.430   4.647   8.072 -1.0342  0.5235  2.2949
 4729TIP3   OH235745   6.461   2.196   7.332  0.3216 -0.2480 -0.5853
 4729TIP3    H135746   6.506   2.169   7.252 -0.0286  0.5756 -1.0779
 4729TIP3    H235747   6.369   2.201   7.307  0.0751 -0.9038  0.1360
 4730TIP3   OH235748   5.746   5.016   8.318 -0.2160  0.3155 -0.0326
 4730TIP3    H135749   5.753   4.991   8.411 -0.5777 -0.4256 -0.1906
 4730TIP3    H235750   5.836   5.026   8.289 -0.1085  1.3087  0.5872
 4731TIP3   OH235751   1.327   5.529   0.250 -0.9327  0.0127 -0.5970
 4731TIP3    H135752   1.310   5.623   0.246  1.1812  0.4451 -0.7675
 4731TIP3    H235753   1.279   5.493   0.175 -0.8276  1.1191 -1.2176
 4732TIP3   OH235754   0.567   1.662   0.942  0.2485  0.0979 -0.0645
 4732TIP3    H135755   0.486   1.630   0.903  0.7264 -1.2594  0.0270
 4732TIP3    H235756   0.550   1.662   1.036  0.2854  0.0066 -0.0578
 4733TIP3   OH235757   2.161   6.331   7.744  0.3713 -0.2370 -0.3983
 4733TIP3    H135758   2.099   6.341   7.816  0.4191  1.5947 -0.5627
 4733TIP3    H235759   2.106   6.317   7.666  0.0199  2.6368 -0.7514
 4734TIP3   OH235760   5.874   6.255   0.155  0.0608 -0.1642 -0.0820
 4734TIP3    H135761   5.943   6.309   0.115  0.7872 -2.3269 -1.9629
 4734TIP3    H235762   5.794   6.306   0.144  0.9389  1.2363 -0.2501
 4735TIP3   OH235763   5.180   3.579   0.845  0.4100  0.6069  0.5929
 4735TIP3    H135764   5.124   3.543   0.913 -0.6625  0.0748 -0.5333
 4735TIP3    H235765   5.129   3.650   0.806 -0.5392 -1.3034 -1.9443
 4736TIP3   OH235766   4.396   3.203   1.983  0.1398 -0.2178  0.4397
 4736TIP3    H135767   4.488   3.212   1.960 -0.4881  1.6993 -1.7205
 4736TIP3    H235768   4.391   3.231   2.074  1.3240  3.0039 -0.3296
 4737TIP3   OH235769   2.677   3.100   1.934 -0.6112 -0.6837 -0.5062
 4737TIP3    H135770   2.770   3.096   1.953 -0.4956  1.4226 -0.4401
 4737TIP3    H235771   2.670   3.071   1.842  0.0403 -1.2234 -0.3884
 4738TIP3   OH235772   0.005   1.431   8.617 -0.0138  0.5656 -0.1443
 4738TIP3    H135773   0.030   1.513   8.661  0.1607  0.7883 -0.6440
 4738TIP3    H235774   0.067   1.367   8.649  0.4161  0.8357 -0.4204
 4739TIP3   OH235775   0.736   2.689   6.756 -0.4712 -0.3804  0.1528
 4739TIP3    H135776   0.689   2.772   6.747  1.5973  0.6440 -3.1766
 4739TIP3    H235777   0.828   2.715   6.756  0.2125 -2.5726  1.8280
 4740TIP3   OH235778   1.203   1.434   2.062 -0.0728  0.1960 -0.0005
 4740TIP3    H135779   1.268   1.377   2.022 -0.1966  0.6897 -0.9441
 4740TIP3    H235780   1.192   1.401   2.151  2.1166  0.6431  0.4873
 4741TIP3   OH235781   0.111   3.429   8.090  0.7408  0.7623  0.4602
 4741TIP3    H135782   0.162   3.389   8.019 -1.0563 -0.4930 -0.1818
 4741TIP3    H235783   0.057   3.496   8.046 -0.5368 -0.1673  0.5692
 4742TIP3   OH235784   0.610   2.666   8.498 -0.0280  0.0503  0.3096
 4742TIP3    H135785   0.599   2.573   8.515 -1.2818  0.1784  0.3361
 4742TIP3    H235786   0.520   2.701   8.496  0.4284  1.3233  0.6894
 4743TIP3   OH235787   2.884   3.896   8.452 -0.7363  0.1734  0.2283
 4743TIP3    H135788   2.957   3.881   8.392  0.0878 -0.0883  1.2588
 4743TIP3    H235789   2.817   3.834   8.425 -0.9114  0.9532 -1.2303
 4744TIP3   OH235790   6.607   1.043   2.655  0.2198  0.3159  0.4920
 4744TIP3    H135791   6.700   1.028   2.672 -0.1788 -0.3112  2.4384
 4744TIP3    H235792   6.604   1.081   2.568  2.1999 -0.8970 -0.1701
 4745TIP3   OH235793   0.892   2.291   1.072  0.2279  0.0177 -1.0261
 4745TIP3    H135794   0.929   2.364   1.022 -0.9932  0.8991 -0.6814
 4745TIP3    H235795   0.962   2.225   1.072  1.4079  1.2089 -1.2629
 4746TIP3   OH235796   3.027   4.430   0.836  0.2792 -0.0904 -0.3793
 4746TIP3    H135797   3.035   4.336   0.854 -0.9679 -0.2734 -0.6590
 4746TIP3    H235798   2.966   4.435   0.762 -0.4420  0.9820  0.2577
 4747TIP3   OH235799   0.056   6.085   8.124 -0.4207 -0.6124  0.4526
 4747TIP3    H135800   0.019   6.164   8.165 -1.8911 -1.2623  0.4173
 4747TIP3    H235801  -0.004   6.015   8.149  0.1395 -1.4948 -0.6250
 4748TIP3   OH235802   3.694   3.791   2.443 -0.1505  0.2619  0.0060
 4748TIP3    H135803   3.705   3.811   2.536  1.3734 -0.7042  0.0700
 4748TIP3    H235804   3.614   3.739   2.439  1.1644 -1.9686  1.1907
 4749TIP3   OH235805   4.913   1.676   7.645 -0.6651  0.0675  0.4212
 4749TIP3    H135806   4.993   1.650   7.690 -0.1633 -0.9747 -0.9920
 4749TIP3    H235807   4.858   1.713   7.714  1.3866  1.7638  1.2882
 4750TIP3   OH235808   2.682   2.617   1.113 -0.0418  0.1479  0.2428
 4750TIP3    H135809   2.747   2.592   1.048 -0.5073 -0.8996  0.1658
 4750TIP3    H235810   2.728   2.678   1.171  0.3494  1.1804 -1.1051
 4751TIP3   OH235811   2.836   6.144   8.434 -0.2981  0.4674  0.3286
 4751TIP3    H135812   2.777   6.157   8.509  0.5011  2.4999  0.6722
 4751TIP3    H235813   2.783   6.169   8.358  0.3349  3.3819  0.7328
 4752TIP3   OH235814   2.309   0.552   1.444  0.2352 -0.9036  0.3306
 4752TIP3    H135815   2.277   0.612   1.511 -0.5872 -0.5926 -0.3163
 4752TIP3    H235816   2.316   0.468   1.489  1.3617 -0.3552  1.2374
 4753TIP3   OH235817   2.997   6.085   6.526  0.0547  0.6034 -0.3697
 4753TIP3    H135818   2.919   6.079   6.580  0.9037  1.3960  1.0260
 4753TIP3    H235819   3.003   6.178   6.502  0.8919  0.6851  0.0932
 4754TIP3   OH235820   6.412   6.020   1.598  0.5917  0.2125 -0.1415
 4754TIP3    H135821   6.414   5.959   1.671 -0.8566 -0.0372 -0.2722
 4754TIP3    H235822   6.498   6.063   1.599  1.1935 -0.9573  0.6803
 4755TIP3   OH235823   5.174   3.359   0.338 -0.0063 -0.0088 -0.2406
 4755TIP3    H135824   5.224   3.413   0.399 -1.9668  1.2561  0.3358
 4755TIP3    H235825   5.114   3.420   0.296 -1.0208 -1.4378 -0.9327
 4756TIP3   OH235826   0.992   6.382   0.753 -0.1005 -0.0588  0.0438
 4756TIP3    H135827   0.898   6.386   0.772 -0.1912 -0.1414 -0.3733
 4756TIP3    H235828   1.021   6.300   0.791 -0.1728  0.0302  0.2899
 4757TIP3   OH235829   3.693   0.687   1.316  1.4193 -0.3226 -0.0450
 4757TIP3    H135830   3.630   0.756   1.297  0.8576 -0.7539  0.2283
 4757TIP3    H235831   3.674   0.619   1.252  1.3840 -0.5937  0.2511
 4758TIP3   OH235832   2.372   5.169   7.213 -0.6721 -0.0318  0.6245
 4758TIP3    H135833   2.310   5.133   7.276 -0.0170 -1.0561  0.7041
 4758TIP3    H235834   2.398   5.253   7.251 -0.9594 -0.2292  1.2727
 4759TIP3   OH235835   0.597   5.253   7.966  0.1865 -0.3134 -0.0225
 4759TIP3    H135836   0.661   5.322   7.983 -0.5284 -0.3149  3.3344
 4759TIP3    H235837   0.515   5.300   7.952  0.1435 -0.4258 -0.1452
 4760TIP3   OH235838   2.145   4.374   7.689  0.5429 -0.3136 -0.5250
 4760TIP3    H135839   2.200   4.431   7.635 -1.3005  0.6818 -1.4491
 4760TIP3    H235840   2.091   4.327   7.626 -1.2292  0.4113  0.4057
 4761TIP3   OH235841   0.670   4.375   1.422 -0.5215  0.3004  0.4162
 4761TIP3    H135842   0.617   4.337   1.352  1.6132  0.0082 -1.1218
 4761TIP3    H235843   0.647   4.468   1.421 -0.2014  0.3877 -1.0172
 4762TIP3   OH235844   3.190   5.657   8.113 -0.1982  0.1069 -0.0211
 4762TIP3    H135845   3.137   5.631   8.037 -2.6055 -1.8734  2.1491
 4762TIP3    H235846   3.133   5.714   8.164  1.3163  1.2703  0.4376
 4763TIP3   OH235847   5.743   6.590   2.002 -0.4417 -0.2607  0.1925
 4763TIP3    H135848   5.815   6.527   2.012 -0.4340 -0.1838  0.6453
 4763TIP3    H235849   5.746   6.642   2.083 -0.0169  0.7560 -0.4606
 4764TIP3   OH235850   5.785   0.244   1.018 -0.0899 -0.4351  0.0624
 4764TIP3    H135851   5.728   0.186   0.967 -0.8520  1.6193 -1.5488
 4764TIP3    H235852   5.835   0.185   1.075  0.3131 -2.8325 -2.5684
 4765TIP3   OH235853   5.294   0.848   0.056  0.1297 -0.2566  0.4596
 4765TIP3    H135854   5.333   0.767   0.087 -3.4336 -1.4093  2.5250
 4765TIP3    H235855   5.248   0.824  -0.024  0.2904  0.1108  0.2526
 4766TIP3   OH235856   3.888   5.724   0.360 -0.1598  0.4921  0.4407
 4766TIP3    H135857   3.953   5.701   0.427 -0.4451  0.8411  0.8439
 4766TIP3    H235858   3.849   5.640   0.335  0.1662  0.3236  0.4807
 4767TIP3   OH235859   3.125   0.253   1.208 -0.1299 -0.6966 -0.2257
 4767TIP3    H135860   3.114   0.168   1.252  1.5141 -0.0147  1.6729
 4767TIP3    H235861   3.219   0.258   1.190 -0.3441  0.3621 -1.1125
 4768TIP3   OH235862   2.465   5.861   1.135 -0.5935  0.1639  0.1581
 4768TIP3    H135863   2.403   5.918   1.090  1.2263  1.8086 -0.4607
 4768TIP3    H235864   2.526   5.922   1.178  2.3608 -1.1886 -1.7639
 4769TIP3   OH235865   6.780   0.559   8.320 -0.0896 -0.4630  0.1376
 4769TIP3    H135866   6.861   0.608   8.335 -0.2358 -0.2079  0.1052
 4769TIP3    H235867   6.727   0.574   8.399  0.0093 -0.8587  0.2803
 4770TIP3   OH235868   0.676   4.415   8.252 -0.1551 -0.1060  0.3267
 4770TIP3    H135869   0.666   4.330   8.296  0.5082 -0.9946 -1.1675
 4770TIP3    H235870   0.654   4.397   8.161 -0.8256  1.5361  0.1377
 4771TIP3   OH235871   0.937   2.844   7.240 -0.2087 -0.2265  0.3749
 4771TIP3    H135872   0.889   2.801   7.169  0.9433 -0.0972 -0.5135
 4771TIP3    H235873   0.894   2.929   7.250 -0.6499 -0.4183  0.1375
 4772TIP3   OH235874   2.056   0.538   7.761  0.2658  0.4702 -0.0667
 4772TIP3    H135875   2.022   0.467   7.706  1.3350 -1.1078  1.2110
 4772TIP3    H235876   2.144   0.555   7.728  0.1484  0.9540 -0.1372
 4773TIP3   OH235877   0.286   6.845   0.708 -0.5424  0.6548  0.5197
 4773TIP3    H135878   0.306   6.932   0.675 -0.7213 -0.0242 -1.5269
 4773TIP3    H235879   0.345   6.787   0.660 -0.6411 -0.4142  1.6181
 4774TIP3   OH235880   5.832   1.977   2.951 -0.5486 -0.0805 -0.1051
 4774TIP3    H135881   5.816   2.044   2.886 -0.1817  0.7400  0.6307
 4774TIP3    H235882   5.750   1.970   3.000 -0.5932 -0.1895 -0.1941
 4775TIP3   OH235883   1.800   1.592   7.283 -0.4194 -0.0769  0.4498
 4775TIP3    H135884   1.805   1.498   7.268  0.3934  0.1906 -1.2858
 4775TIP3    H235885   1.754   1.626   7.206  3.4230  1.3674 -1.4822
 4776TIP3   OH235886   2.882   0.098   0.532  0.1122  1.0096 -0.2286
 4776TIP3    H135887   2.838   0.181   0.550 -2.5990 -0.0044 -1.5143
 4776TIP3    H235888   2.940   0.116   0.459  0.1006  1.9329 -0.0156
 4777TIP3   OH235889   1.122   0.413   8.602 -0.0607 -0.4485  0.1543
 4777TIP3    H135890   1.207   0.453   8.582  0.1804 -0.8011  0.4669
 4777TIP3    H235891   1.129   0.385   8.693 -0.3481 -0.8921  0.0437
 4778TIP3   OH235892   5.611   6.583   7.831 -0.0776 -0.1164  0.2078
 4778TIP3    H135893   5.630   6.628   7.913 -0.1580 -0.7329  0.5660
 4778TIP3    H235894   5.541   6.635   7.791  0.8540  0.9477 -0.1154
 4779TIP3   OH235895   5.594   1.971   1.687  0.1671 -0.2726  0.1267
 4779TIP3    H135896   5.590   2.066   1.676 -2.7755 -0.3295 -0.1059
 4779TIP3    H235897   5.632   1.959   1.774 -0.2063  1.1577  0.5136
 4780TIP3   OH235898   2.994   3.882   7.949  0.3560 -0.4701  0.1458
 4780TIP3    H135899   3.007   3.974   7.976 -1.5427 -0.5433  1.5072
 4780TIP3    H235900   3.080   3.854   7.918  1.1745  1.5350  0.4485
 4781TIP3   OH235901   1.572   0.248   1.189 -0.4178 -0.1770 -0.1992
 4781TIP3    H135902   1.647   0.188   1.188 -0.7802 -0.6885 -2.3585
 4781TIP3    H235903   1.592   0.312   1.121 -2.0519 -0.4936 -1.0216
 4782TIP3   OH235904   4.551   1.279   1.586  0.0292 -0.6893  0.1587
 4782TIP3    H135905   4.522   1.298   1.675  1.0708  0.8229  0.2083
 4782TIP3    H235906   4.611   1.350   1.564 -0.4659 -0.8325 -1.8910
 4783TIP3   OH235907   6.767   3.488   1.177 -0.0176 -0.3104  0.1769
 4783TIP3    H135908   6.771   3.420   1.110 -2.0868 -0.6760  0.3395
 4783TIP3    H235909   6.835   3.463   1.240 -0.6535 -2.2150  0.1935
 4784TIP3   OH235910   6.636   6.032   0.474  0.0395  0.0284  0.2497
 4784TIP3    H135911   6.646   6.100   0.541 -0.2131  0.3895 -0.0669
 4784TIP3    H235912   6.595   6.078   0.401  0.0601 -0.4243 -0.0480
 4785TIP3   OH235913   3.825   4.662   0.245 -0.3920 -0.1357 -0.0894
 4785TIP3    H135914   3.803   4.699   0.160 -0.8681  0.8774  0.4493
 4785TIP3    H235915   3.910   4.621   0.232 -0.4421  0.0344 -1.0406
 4786TIP3   OH235916   0.918   3.779   1.120  0.4078  0.3987 -0.3312
 4786TIP3    H135917   1.010   3.755   1.123  0.3247  0.0417 -0.5369
 4786TIP3    H235918   0.874   3.700   1.087 -0.2064 -0.1196  1.5786
 4787TIP3   OH235919   1.873   4.492   1.452  0.5220 -0.3262 -0.1791
 4787TIP3    H135920   1.782   4.467   1.436  0.0715  0.9695  0.2143
 4787TIP3    H235921   1.881   4.580   1.415  0.8060  0.7451  2.2191
 4788TIP3   OH235922   1.240   0.400   0.575  0.1478 -0.5856 -0.0409
 4788TIP3    H135923   1.162   0.357   0.540 -0.3693 -1.0134  1.5541
 4788TIP3    H235924   1.242   0.375   0.667  0.3026  2.1668  0.7716
 4789TIP3   OH235925   4.855   1.763   0.778  0.0517 -0.5560  0.3102
 4789TIP3    H135926   4.873   1.770   0.685  0.1513  3.1894  0.4339
 4789TIP3    H235927   4.771   1.717   0.783  1.0449 -2.7135 -1.3909
 4790TIP3   OH235928   1.897   1.838   8.451 -0.2373 -0.3533 -0.3259
 4790TIP3    H135929   1.979   1.830   8.500 -0.7986 -0.7641  0.5796
 4790TIP3    H235930   1.829   1.841   8.519 -1.1650 -2.3181 -1.0855
 4791TIP3   OH235931   5.750   3.260   7.149  0.1529 -0.4009  0.1421
 4791TIP3    H135932   5.797   3.242   7.067  1.8247  0.1211  0.9552
 4791TIP3    H235933   5.742   3.175   7.191  3.5183 -0.1295  1.5967
 4792TIP3   OH235934   2.075   4.624   1.852 -0.0350 -0.4567  0.1792
 4792TIP3    H135935   2.076   4.632   1.756 -0.2744  2.9089  0.3276
 4792TIP3    H235936   1.995   4.669   1.879  1.4741  1.3389  2.0430
 4793TIP3   OH235937   3.291   2.751   1.888  0.0395 -0.2112 -0.0094
 4793TIP3    H135938   3.322   2.786   1.805  0.4327  1.4133  0.7739
 4793TIP3    H235939   3.205   2.714   1.869 -0.0951  0.5979 -1.0368
 4794TIP3   OH235940   1.543   0.106   7.601  0.0659 -0.4357  0.6902
 4794TIP3    H135941   1.462   0.127   7.648 -0.0270 -2.5888  1.5671
 4794TIP3    H235942   1.602   0.179   7.622 -1.8934  1.7327 -0.8045
 4795TIP3   OH235943   3.512   6.465   7.491  0.1043  0.2483  0.1866
 4795TIP3    H135944   3.462   6.385   7.505  1.1441 -0.1561  1.7658
 4795TIP3    H235945   3.600   6.435   7.471  0.9540  0.9611  2.5952
 4796TIP3   OH235946   2.493   3.867   0.426  0.5746  0.7039  0.6074
 4796TIP3    H135947   2.505   3.962   0.422 -0.0228  0.7420 -0.8735
 4796TIP3    H235948   2.514   3.844   0.517 -1.2550  2.5223  1.5769
 4797TIP3   OH235949   2.000   5.761   0.778  0.4110 -0.0207 -0.2641
 4797TIP3    H135950   2.072   5.824   0.771 -0.6744  1.2787 -0.3036
 4797TIP3    H235951   2.003   5.731   0.869  0.3807  0.8113  0.0215
 4798TIP3   OH235952   1.449   5.420   8.066 -0.3864  0.2237 -0.2658
 4798TIP3    H135953   1.422   5.358   7.998 -1.1290  1.3283 -1.0005
 4798TIP3    H235954   1.525   5.465   8.029  1.0120 -1.1460  0.8094
 4799TIP3   OH235955   5.486   0.873   2.106  0.1363  0.1679  0.0937
 4799TIP3    H135956   5.413   0.812   2.115  0.8247 -0.6050  0.6401
 4799TIP3    H235957   5.503   0.875   2.011 -0.9468  0.8092 -0.1010
 4800TIP3   OH235958   5.889   2.211   2.606 -0.2532 -0.5106 -0.2807
 4800TIP3    H135959   5.806   2.163   2.605  0.1914 -1.3615  0.9044
 4800TIP3    H235960   5.886   2.262   2.687  0.5087 -0.8011 -0.0619
 4801TIP3   OH235961   2.996   0.084   2.558  0.0131  0.2425  0.4585
 4801TIP3    H135962   2.989   0.021   2.486 -3.9014  2.0496 -0.9978
 4801TIP3    H235963   2.990   0.030   2.637  2.0939 -1.5714 -0.4797
 4802TIP3   OH235964   1.388   0.096   8.559  0.0186  0.0624 -0.3053
 4802TIP3    H135965   1.429   0.016   8.593  0.4270 -0.6421 -2.3323
 4802TIP3    H235966   1.460   0.159   8.552 -0.1137  0.2932  0.3284
 4803TIP3   OH235967   3.543   2.812   2.075  0.3231 -0.1420  0.4734
 4803TIP3    H135968   3.618   2.842   2.126 -0.0300  0.1696  0.8035
 4803TIP3    H235969   3.487   2.767   2.138 -0.2525  0.4948  0.4178
 4804TIP3   OH235970   0.726   4.536   7.404  0.5400  0.3147  0.1060
 4804TIP3    H135971   0.631   4.539   7.394  0.4016 -0.7082  0.9433
 4804TIP3    H235972   0.751   4.627   7.423 -0.7466  0.0755  3.6713
 4805TIP3   OH235973   0.052   3.214   2.312  0.3026  0.2136  0.1458
 4805TIP3    H135974   0.129   3.262   2.284  0.4564 -0.3437 -0.4011
 4805TIP3    H235975   0.072   3.187   2.402  1.1773 -0.8001 -0.3342
 4806TIP3   OH235976   1.547   6.474   0.292  0.5841  0.2750  0.3454
 4806TIP3    H135977   1.474   6.498   0.349  0.3324 -1.1247  0.6561
 4806TIP3    H235978   1.542   6.534   0.218 -0.1363  0.9816  0.9515
 4807TIP3   OH235979   1.386   2.505   8.608  0.3142  0.0374 -0.2586
 4807TIP3    H135980   1.302   2.466   8.584  0.6235 -1.4482  0.9441
 4807TIP3    H235981   1.451   2.445   8.572  0.8090 -0.3213  1.1962
 4808TIP3   OH235982   0.023   5.465   1.435 -0.5353 -0.0478 -0.2644
 4808TIP3    H135983   0.014   5.431   1.346 -0.8955 -0.9016  0.0838
 4808TIP3    H235984  -0.067   5.474   1.466 -0.4286  0.8256 -0.1906
 4809TIP3   OH235985   4.059   3.658   8.508  0.4274 -0.2593 -0.4609
 4809TIP3    H135986   4.105   3.641   8.590  0.5831 -0.8562 -0.6660
 4809TIP3    H235987   4.127   3.657   8.441  0.0537 -1.9391 -0.8666
 4810TIP3   OH235988   1.886   2.308   6.642 -0.5247  0.2351 -0.5274
 4810TIP3    H135989   1.936   2.386   6.665  2.6272 -0.8771 -2.8270
 4810TIP3    H235990   1.907   2.244   6.710  3.0653 -0.8210 -2.3574
 4811TIP3   OH235991   5.998   1.914   1.846  0.6723 -0.1560 -0.3197
 4811TIP3    H135992   5.929   1.974   1.874  3.0443  2.9801 -0.5641
 4811TIP3    H235993   5.978   1.895   1.755  0.2010  0.8664 -0.4497
 4812TIP3   OH235994   1.213   6.682   0.824 -0.2382  0.0759  0.0144
 4812TIP3    H135995   1.134   6.735   0.814 -0.4244 -0.5984 -2.9639
 4812TIP3    H235996   1.271   6.735   0.879 -1.6065  1.9257 -0.2496
 4813TIP3   OH235997   1.916   4.690   7.799  0.0675 -0.3672 -0.2826
 4813TIP3    H135998   1.941   4.756   7.863  0.1621 -0.8660  0.2020
 4813TIP3    H235999   1.918   4.607   7.847 -0.1462 -0.7142 -0.8538
 4814TIP3   OH236000   1.724   3.935   7.020  0.1377  0.0304 -0.1349
 4814TIP3    H136001   1.740   3.844   6.993 -1.4358 -0.2202 -0.3266
 4814TIP3    H236002   1.695   3.979   6.940  1.2387  0.8183 -0.1211
 4815TIP3   OH236003   0.261   0.766   0.331  0.2231  0.4351 -0.2982
 4815TIP3    H136004   0.268   0.709   0.254 -0.5704  1.0683 -0.8617
 4815TIP3    H236005   0.207   0.716   0.392 -1.7640  1.1279 -1.3790
 4816TIP3   OH236006   4.991   0.196   0.408  0.1747  0.2063  0.2907
 4816TIP3    H136007   4.937   0.132   0.362  0.1276  0.5411 -0.1312
 4816TIP3    H236008   5.080   0.166   0.396  0.1182 -0.0521  0.5208
 4817TIP3   OH236009   4.780   4.113   2.462  0.1892  0.1133 -0.0985
 4817TIP3    H136010   4.715   4.071   2.518  0.4002 -0.5049 -0.2998
 4817TIP3    H236011   4.860   4.115   2.515 -0.1510  1.4770  0.3915
 4818TIP3   OH236012   1.048   0.835   2.544  0.7255  0.0932 -0.5207
 4818TIP3    H136013   1.060   0.849   2.638  0.2962 -2.5230 -0.0004
 4818TIP3    H236014   1.079   0.746   2.529 -2.0718 -0.7092 -2.2573
 4819TIP3   OH236015   5.454   3.225   7.584 -0.0645 -0.3280  0.1402
 4819TIP3    H136016   5.427   3.261   7.499  0.9251 -0.9221 -0.4517
 4819TIP3    H236017   5.374   3.226   7.637 -1.1181 -1.3996 -1.3131
 4820TIP3   OH236018   1.724   6.298   7.618  0.9068 -0.3025  0.3620
 4820TIP3    H136019   1.641   6.322   7.660  0.1789 -0.4472 -0.9289
 4820TIP3    H236020   1.791   6.341   7.670  0.0219 -0.1874  1.4417
 4821TIP3   OH236021   0.814   1.558   1.245 -0.5119  0.4744  0.0924
 4821TIP3    H136022   0.837   1.576   1.153  0.5008  0.9123  0.4111
 4821TIP3    H236023   0.857   1.475   1.265  0.8985  1.3216  0.7095
 4822TIP3   OH236024   1.584   6.264   0.087 -0.7215 -0.1268 -0.0815
 4822TIP3    H136025   1.559   6.295   0.174 -0.7528 -1.1116  0.2718
 4822TIP3    H236026   1.506   6.220   0.054 -0.0312 -1.7107  0.3183
 4823TIP3   OH236027   3.618   3.115   7.587  0.2648 -0.0414 -0.3235
 4823TIP3    H136028   3.618   3.027   7.624 -0.6072  0.1503  0.1467
 4823TIP3    H236029   3.552   3.162   7.637  0.0104  0.5997 -1.2449
 4824TIP3   OH236030   3.161   4.637   3.243  0.2206  0.6636 -0.0061
 4824TIP3    H136031   3.208   4.710   3.281 -0.2631  1.3517 -0.6935
 4824TIP3    H236032   3.186   4.638   3.150  0.4810 -0.2642  0.0378
 4825TIP3   OH236033   4.378   1.036   1.682 -0.5168  0.1091 -0.1181
 4825TIP3    H136034   4.316   1.091   1.634 -0.9113 -0.9210 -0.8326
 4825TIP3    H236035   4.460   1.086   1.682  0.0619 -0.5624 -3.5229
 4826TIP3   OH236036   1.676   3.149   2.765  0.5822  0.4940  0.1331
 4826TIP3    H136037   1.584   3.121   2.760 -0.2797  3.0218  0.1150
 4826TIP3    H236038   1.696   3.144   2.858  0.9277 -1.3734 -0.0046
 4827TIP3   OH236039   3.689   5.157   0.039 -0.5120  0.0835 -0.0619
 4827TIP3    H136040   3.701   5.063   0.027 -1.5703 -0.2905  1.5883
 4827TIP3    H236041   3.725   5.196  -0.042  0.3087 -1.6793 -0.5950
 4828TIP3   OH236042   4.666   6.623   8.093  0.0927 -0.6878  0.0801
 4828TIP3    H136043   4.726   6.664   8.031  0.6028 -0.2061  0.8646
 4828TIP3    H236044   4.626   6.551   8.044  0.7540 -0.5511 -0.6852
 4829TIP3   OH236045   2.870   3.080   1.510 -0.1571 -1.1871 -0.6611
 4829TIP3    H136046   2.926   3.147   1.550 -1.8715 -0.8107  1.2705
 4829TIP3    H236047   2.819   3.127   1.444 -0.6274 -0.7740 -0.0152
 4830TIP3   OH236048   2.579   5.145   7.037  0.2412  0.0269 -0.6356
 4830TIP3    H136049   2.539   5.204   7.102  2.2692  1.1741 -0.3384
 4830TIP3    H236050   2.547   5.058   7.060  0.0320  0.5555  1.2098
 4831TIP3   OH236051   6.638   1.438   2.012  0.1407 -0.8084 -0.5541
 4831TIP3    H136052   6.589   1.371   2.060 -0.3219 -1.4828 -1.9299
 4831TIP3    H236053   6.717   1.392   1.982 -0.2129 -0.7543 -1.5660
 4832TIP3   OH236054   6.532   0.364   7.958 -0.5342  0.2828  0.3864
 4832TIP3    H136055   6.521   0.269   7.954 -4.0181  0.5662  0.5112
 4832TIP3    H236056   6.563   0.388   7.870 -2.3758 -0.7750 -0.6209
 4833TIP3   OH236057   3.106   2.215   2.733 -0.7892  0.6499 -0.1476
 4833TIP3    H136058   3.096   2.309   2.718  0.7349  1.0478  1.1012
 4833TIP3    H236059   3.017   2.184   2.748 -1.4587  1.6381 -1.7793
 4834TIP3   OH236060   1.088   0.840   0.370  0.3226 -0.5268  0.3259
 4834TIP3    H136061   1.007   0.790   0.362 -0.3774  0.4662  1.0419
 4834TIP3    H236062   1.060   0.929   0.390  1.5260  0.2943 -1.3770
 4835TIP3   OH236063   5.819   0.132   2.668 -0.0624  0.5086  0.2459
 4835TIP3    H136064   5.795   0.169   2.753 -2.8692 -2.2815  0.8347
 4835TIP3    H236065   5.870   0.054   2.689  3.1850  2.1028 -0.9044
 4836TIP3   OH236066   6.338   3.838   0.703  0.0001  0.0271 -0.2376
 4836TIP3    H136067   6.246   3.812   0.708  0.0342  0.0534  0.7378
 4836TIP3    H236068   6.362   3.857   0.793  0.7524  0.7580 -0.5809
 4837TIP3   OH236069   2.567   4.136   8.364  0.3147  0.1804 -0.6880
 4837TIP3    H136070   2.553   4.102   8.276 -0.9370 -1.3561  0.0587
 4837TIP3    H236071   2.663   4.139   8.374  0.4643  0.0768 -1.9643
 4838TIP3   OH236072   3.326   5.647   7.678 -0.0707  0.4474 -0.5007
 4838TIP3    H136073   3.282   5.576   7.630  0.5914 -1.7616  1.9363
 4838TIP3    H236074   3.413   5.651   7.638 -0.4300  0.6096 -1.2968
 4839TIP3   OH236075   4.572   1.121   2.005  0.3336 -0.1942 -0.3313
 4839TIP3    H136076   4.505   1.136   2.072 -0.4950  1.1665 -1.4121
 4839TIP3    H236077   4.649   1.167   2.038  0.4308 -0.8696  0.4187
 4840TIP3   OH236078   2.344   4.105   1.444 -0.2641  0.5791  0.0250
 4840TIP3    H136079   2.432   4.143   1.443  0.3943 -0.8672 -0.2238
 4840TIP3    H236080   2.308   4.130   1.529  0.3815  1.2263  0.1172
 4841TIP3   OH236081   4.644   0.413   1.843 -0.2399 -0.1227  0.2269
 4841TIP3    H136082   4.607   0.354   1.777 -1.6356  0.5663  0.3459
 4841TIP3    H236083   4.644   0.499   1.801  1.3129 -0.0903  0.2325
 4842TIP3   OH236084   2.538   3.171   0.522  0.0323  0.6126 -0.2088
 4842TIP3    H136085   2.580   3.157   0.607  0.4914  0.1029 -0.5140
 4842TIP3    H236086   2.610   3.174   0.459 -0.3921 -0.7399 -0.7970
 4843TIP3   OH236087   1.108   1.217   8.483  0.2763  0.0483 -0.1134
 4843TIP3    H136088   1.181   1.207   8.545  0.7326 -0.6092 -0.7373
 4843TIP3    H236089   1.051   1.143   8.502  1.2218 -1.0871 -1.5174
 4844TIP3   OH236090   0.979   3.207   0.381 -0.1783 -0.1040  0.6359
 4844TIP3    H136091   1.016   3.150   0.313 -0.5158  1.0911 -0.5914
 4844TIP3    H236092   1.036   3.283   0.382 -1.3703  0.8202  0.2089
 4845TIP3   OH236093   1.585   4.642   7.349  0.5717 -1.1102  0.3367
 4845TIP3    H136094   1.612   4.716   7.296 -1.0610  0.8977  2.1056
 4845TIP3    H236095   1.665   4.611   7.391  1.5540 -1.5166 -1.7236
 4846TIP3   OH236096   5.970   2.915   8.002 -0.5759 -0.4175 -0.7014
 4846TIP3    H136097   6.022   2.844   7.963 -0.1692  0.1019 -1.1245
 4846TIP3    H236098   5.957   2.977   7.930 -0.3085  0.2860 -0.1534
 4847TIP3   OH236099   3.414   6.326   1.939  0.2477  0.1101 -0.1198
 4847TIP3    H136100   3.485   6.261   1.940  0.1584 -0.0269 -1.1715
 4847TIP3    H236101   3.439   6.388   1.870  1.0131  2.0062  1.7658
 4848TIP3   OH236102   3.557   0.933   0.909  0.7552  0.3585  0.7908
 4848TIP3    H136103   3.588   0.843   0.917 -0.1935  0.0844  1.5245
 4848TIP3    H236104   3.543   0.944   0.815  0.4345 -0.4124  0.7377
 4849TIP3   OH236105   2.329   1.886   7.876  0.1792  0.5900  0.0089
 4849TIP3    H136106   2.237   1.901   7.855  0.2830  1.1216 -0.0879
 4849TIP3    H236107   2.361   1.829   7.806 -0.7227 -1.8125  1.4523
 4850TIP3   OH236108   0.443   1.629   1.752  0.2571  0.6209 -0.1358
 4850TIP3    H136109   0.461   1.638   1.659  0.2167  1.6525 -0.0485
 4850TIP3    H236110   0.476   1.710   1.791  2.8272 -0.8843  1.1539
 4851TIP3   OH236111   2.405   2.975   8.498  0.2226 -0.4793  0.0754
 4851TIP3    H136112   2.459   2.989   8.420  1.5111  0.0433  1.0149
 4851TIP3    H236113   2.468   2.947   8.565 -0.5294  0.8445  1.4056
 4852TIP3   OH236114   3.520   2.882   1.806 -0.2891  0.4380  0.5292
 4852TIP3    H136115   3.467   2.952   1.844  0.9954  1.2763  0.8630
 4852TIP3    H236116   3.528   2.817   1.876 -2.8003 -0.8856 -0.2792
 4853TIP3   OH236117   2.412   1.312   0.328 -0.6087  1.2864  0.3655
 4853TIP3    H136118   2.346   1.362   0.281 -0.1824 -1.1818 -3.2461
 4853TIP3    H236119   2.495   1.349   0.298 -0.3070  1.1864  1.0607
 4854TIP3   OH236120   1.004   6.197   2.088 -0.0219 -0.1598 -0.2358
 4854TIP3    H136121   1.082   6.230   2.043  0.9849 -1.8754  0.1506
 4854TIP3    H236122   1.038   6.130   2.148 -1.6991 -0.2242  0.6921
 4855TIP3   OH236123   0.430   3.774   7.483 -0.1368 -0.1450 -0.1925
 4855TIP3    H136124   0.348   3.775   7.532 -1.2579 -3.3165 -1.7465
 4855TIP3    H236125   0.409   3.815   7.399  0.2537  0.2018 -0.1273
 4856TIP3   OH236126   3.596   4.883   8.364  0.4975  0.2997 -0.2936
 4856TIP3    H136127   3.625   4.806   8.314  0.1141  0.3325 -0.5710
 4856TIP3    H236128   3.511   4.856   8.401 -0.7342  1.3345 -2.2000
 4857TIP3   OH236129   0.454   1.978   0.660  0.2498  0.6564 -0.0448
 4857TIP3    H136130   0.450   1.981   0.564 -1.4908 -2.2597 -0.1784
 4857TIP3    H236131   0.419   2.063   0.688 -2.0323  0.4640 -2.0315
 4858TIP3   OH236132   2.820   3.844   1.097 -0.2701 -0.3506 -0.2171
 4858TIP3    H136133   2.822   3.878   1.186 -1.7577  0.4077 -0.4337
 4858TIP3    H236134   2.902   3.874   1.058 -1.1670  2.3945 -0.1508
 4859TIP3   OH236135   3.769   3.540   1.298  0.4633  0.6280  0.1126
 4859TIP3    H136136   3.717   3.572   1.372  0.0213  1.1400 -0.4142
 4859TIP3    H236137   3.748   3.600   1.226  0.2934 -0.3296 -0.6517
 4860TIP3   OH236138   2.508   2.624   2.133 -0.5192 -0.6200 -0.2354
 4860TIP3    H136139   2.553   2.619   2.048 -0.2742 -0.1604 -0.1408
 4860TIP3    H236140   2.556   2.692   2.180 -0.0372 -1.5396  0.6390
 4861TIP3   OH236141   0.750   0.393   7.909  0.3288 -0.7616  0.1788
 4861TIP3    H136142   0.793   0.478   7.913  3.6391 -2.3359  1.9141
 4861TIP3    H236143   0.728   0.381   7.817  0.1062  1.7604 -0.1630
 4862TIP3   OH236144   2.997   6.847   1.070  0.5514  0.4465 -0.2085
 4862TIP3    H136145   2.923   6.901   1.044  0.0137  0.1456  0.6193
 4862TIP3    H236146   3.067   6.870   1.010 -0.3145  0.5001 -1.2276
 4863TIP3   OH236147   2.945   1.810   2.090 -0.0901 -0.4975 -0.1869
 4863TIP3    H136148   2.918   1.895   2.055  2.0687  0.2962 -0.0642
 4863TIP3    H236149   2.875   1.787   2.151 -0.1311  1.8450  0.7693
 4864TIP3   OH236150   6.235   3.822   7.973 -0.5430  0.0531  0.2190
 4864TIP3    H136151   6.195   3.808   7.887 -1.4095  1.2809  0.4055
 4864TIP3    H236152   6.190   3.898   8.008  0.6733  0.3202  1.2432
 4865TIP3   OH236153   3.495   3.686   1.367  0.2050 -0.0881 -0.6082
 4865TIP3    H136154   3.468   3.608   1.319  0.9443  0.3379 -1.7620
 4865TIP3    H236155   3.413   3.733   1.384 -0.1323 -0.5752 -0.8657
 4866TIP3   OH236156   6.646   6.462   0.482 -0.3220 -0.1880  0.3252
 4866TIP3    H136157   6.597   6.416   0.414  1.1496  2.0313 -2.4797
 4866TIP3    H236158   6.712   6.512   0.434  1.9098  0.2891  3.5706
 4867TIP3   OH236159   2.334   3.015   7.907  0.2806  0.4670  0.5235
 4867TIP3    H136160   2.427   3.032   7.899  0.5199 -1.3068 -1.1464
 4867TIP3    H236161   2.328   2.922   7.930 -1.0762  0.5882  0.7667
 4868TIP3   OH236162   0.597   4.092   1.465  0.3469 -0.1363  0.1625
 4868TIP3    H136163   0.605   4.168   1.408  0.8216  2.0768  2.9719
 4868TIP3    H236164   0.504   4.070   1.463  0.1680  0.6470 -0.4985
 4869TIP3   OH236165   0.151   3.831   1.373  0.3045 -0.0263  0.4894
 4869TIP3    H136166   0.075   3.814   1.316  1.2342  1.0226 -1.1610
 4869TIP3    H236167   0.211   3.759   1.354  1.4125  1.2994 -1.3955
 4870TIP3   OH236168   1.162   4.449   0.234  0.7010  0.4710 -0.0178
 4870TIP3    H136169   1.182   4.460   0.327  0.3845  1.8484 -0.0867
 4870TIP3    H236170   1.088   4.388   0.232 -0.4815  1.7961  0.7897
 4871TIP3   OH236171   2.459   1.267   6.930 -0.2059  0.2676  0.4691
 4871TIP3    H136172   2.509   1.321   6.869  0.4703 -2.0978 -1.1558
 4871TIP3    H236173   2.525   1.231   6.990 -0.4841  0.1622  0.7150
 4872TIP3   OH236174   0.830   3.716   8.117  0.2473  0.3641  0.0521
 4872TIP3    H136175   0.777   3.689   8.192  1.1994 -0.4705  0.4583
 4872TIP3    H236176   0.919   3.691   8.141  0.5218 -0.3339 -1.5389
 4873TIP3   OH236177   0.208   3.051   1.906  0.3211  0.2922 -0.4200
 4873TIP3    H136178   0.282   3.110   1.892  0.5954 -0.2778 -1.5198
 4873TIP3    H236179   0.186   3.020   1.818 -0.2710 -0.6899  0.0591
 4874TIP3   OH236180   6.639   1.090   7.974  0.0872 -0.2744  0.1312
 4874TIP3    H136181   6.658   1.135   7.891  0.3045 -0.9547 -0.1927
 4874TIP3    H236182   6.544   1.081   7.976 -0.1049  1.4441  0.8662
 4875TIP3   OH236183   2.039   3.406   2.465  0.5270 -0.3546 -0.2290
 4875TIP3    H136184   2.074   3.407   2.554  1.0037  1.0668 -0.4110
 4875TIP3    H236185   1.980   3.481   2.462 -0.1655 -0.9127 -0.8586
 4876TIP3   OH236186   5.505   1.531   2.733 -0.1309  0.1455  0.0333
 4876TIP3    H136187   5.449   1.602   2.764  1.4654  0.7208  1.7601
 4876TIP3    H236188   5.558   1.571   2.664 -0.6944  0.0324 -0.4751
 4877TIP3   OH236189   4.533   1.205   0.295  0.0015 -0.1079  0.4872
 4877TIP3    H136190   4.444   1.170   0.296  0.2326 -0.7167  0.2248
 4877TIP3    H236191   4.569   1.178   0.211  0.2959  0.4964  0.4160
 4878TIP3   OH236192   3.776   4.546   7.780 -0.0363  0.1072 -0.0761
 4878TIP3    H136193   3.831   4.595   7.841 -0.4953 -0.1994  0.5887
 4878TIP3    H236194   3.703   4.605   7.761 -0.7411 -0.4076  0.9510
 4879TIP3   OH236195   0.489   2.047   7.273  0.5361  0.3773 -0.6564
 4879TIP3    H136196   0.463   1.965   7.230  1.2210 -0.0487 -0.2678
 4879TIP3    H236197   0.488   2.112   7.203 -1.9262  0.4874 -0.6287
 4880TIP3   OH236198   2.099   6.447   1.037 -0.8415  0.4063  0.3507
 4880TIP3    H136199   2.144   6.523   0.999 -0.7630 -0.5653 -1.6235
 4880TIP3    H236200   2.169   6.384   1.054 -1.0039  0.4405  1.1659
 4881TIP3   OH236201   3.689   5.537   0.331  0.0834  0.2379  0.0061
 4881TIP3    H136202   3.643   5.534   0.415  0.4029  1.2943  0.2397
 4881TIP3    H236203   3.726   5.450   0.319 -2.3525 -0.8195 -0.4047
 4882TIP3   OH236204   2.241   2.594   7.947 -0.0472 -0.5199 -0.4070
 4882TIP3    H136205   2.323   2.613   7.993 -0.6043 -0.5440  0.6304
 4882TIP3    H236206   2.263   2.524   7.885  1.0388  0.4640 -1.1802
 4883TIP3   OH236207   4.027   1.503   1.448  0.0858 -0.1391 -0.4750
 4883TIP3    H136208   3.960   1.540   1.390 -0.8246 -0.7743  0.1441
 4883TIP3    H236209   3.996   1.415   1.468  0.0579  0.2619  1.4372
 4884TIP3   OH236210   0.990   5.146   0.030  0.6704  0.3191  0.7691
 4884TIP3    H136211   0.935   5.223   0.015  1.8362  1.4308  1.8998
 4884TIP3    H236212   1.010   5.150   0.124  2.6309 -0.0365  0.4144
 4885TIP3   OH236213   4.771   5.918   8.393 -0.1249  0.1421  0.4559
 4885TIP3    H136214   4.858   5.929   8.433 -0.6365 -0.7572  1.8651
 4885TIP3    H236215   4.750   5.826   8.407 -1.2426  0.3082 -0.0609
 4886TIP3   OH236216   6.725   3.342   7.885  0.2629  0.2598  0.2437
 4886TIP3    H136217   6.749   3.421   7.934  0.5763 -0.2059  0.8571
 4886TIP3    H236218   6.645   3.366   7.837  1.3667  1.5405 -1.0607
 4887TIP3   OH236219   2.710   5.378   1.791 -0.1515  0.6833  0.9276
 4887TIP3    H136220   2.730   5.445   1.725  3.0406  2.5994  3.5617
 4887TIP3    H236221   2.614   5.373   1.790 -0.3435  0.9824 -3.3082
 4888TIP3   OH236222   3.065   0.777   7.075  0.2130  0.4287 -0.1315
 4888TIP3    H136223   3.133   0.710   7.071 -0.2795 -0.0342 -0.9827
 4888TIP3    H236224   3.004   0.753   7.005 -0.6560  1.0162  0.4155
 4889TIP3   OH236225   5.966   1.864   0.399 -0.3082 -0.3099 -1.0954
 4889TIP3    H136226   5.891   1.811   0.372 -0.7483  0.6381 -1.7806
 4889TIP3    H236227   6.018   1.874   0.320 -0.5719  0.8186 -1.1424
 4890TIP3   OH236228   1.686   0.481   2.466  0.0124  0.3110  0.3967
 4890TIP3    H136229   1.623   0.413   2.491  0.3106  0.0145  0.3554
 4890TIP3    H236230   1.772   0.443   2.489  0.1299  0.9861  1.0893
 4891TIP3   OH236231   1.995   3.076   0.322  0.1492  0.0250 -0.2267
 4891TIP3    H136232   1.975   3.054   0.413 -0.5271 -0.8966 -0.5777
 4891TIP3    H236233   1.928   3.030   0.271  0.6887  0.2933 -1.2047
 4892TIP3   OH236234   2.382   4.913   0.303 -0.1686  0.4616 -0.0109
 4892TIP3    H136235   2.409   4.828   0.270  0.0062  0.6817 -0.4542
 4892TIP3    H236236   2.318   4.945   0.239 -1.5871 -0.0895  1.0752
 4893TIP3   OH236237   5.950   3.350   1.607  0.3037 -0.3229  0.3133
 4893TIP3    H136238   5.995   3.433   1.619 -1.2080  0.4233  1.0132
 4893TIP3    H236239   5.951   3.309   1.693  1.7935 -1.4652 -0.2033
 4894TIP3   OH236240   6.073   1.178   0.748 -0.1459 -0.3257 -0.6738
 4894TIP3    H136241   6.028   1.206   0.828  3.0724 -1.5112  1.7659
 4894TIP3    H236242   6.007   1.128   0.700 -2.0084 -0.3060  1.6862
 4895TIP3   OH236243   3.940   6.183   7.780  0.2053  0.4164 -0.1081
 4895TIP3    H136244   3.877   6.111   7.774 -0.0276  0.6102 -0.0253
 4895TIP3    H236245   4.004   6.165   7.712 -0.7312  0.9840 -1.1770
 4896TIP3   OH236246   1.801   4.179   1.476  0.2862 -0.0106 -0.0329
 4896TIP3    H136247   1.773   4.232   1.401  0.0830 -2.2920 -1.6689
 4896TIP3    H236248   1.769   4.091   1.457 -0.3867 -0.5906  3.1100
 4897TIP3   OH236249   4.172   6.262   6.756 -0.2002 -0.2044 -0.5328
 4897TIP3    H136250   4.086   6.222   6.767  0.4166 -1.4074  0.0340
 4897TIP3    H236251   4.176   6.329   6.825 -0.6085 -0.2434 -0.4638
 4898TIP3   OH236252   2.559   3.411   7.480 -0.5937 -0.3618 -0.0914
 4898TIP3    H136253   2.544   3.349   7.552  0.3666 -0.9098 -0.3518
 4898TIP3    H236254   2.588   3.491   7.523 -1.5331 -0.1707  0.2243
 4899TIP3   OH236255   5.043   5.098   0.057 -0.4596  0.2671  0.0242
 4899TIP3    H136256   5.031   5.163   0.126  1.6996  0.9687 -0.1588
 4899TIP3    H236257   5.054   5.015   0.103  1.2492  0.7720  0.6283
 4900TIP3   OH236258   2.979   0.210   7.755 -0.0500  0.3708 -0.2388
 4900TIP3    H136259   3.061   0.261   7.750  1.3294 -1.4832  1.5283
 4900TIP3    H236260   2.933   0.248   7.830  0.3199 -0.0810  0.2213
 4901TIP3   OH236261   1.039   6.814   8.397 -0.1834 -0.1370 -0.3597
 4901TIP3    H136262   1.041   6.810   8.301 -1.7723 -1.3492 -0.3747
 4901TIP3    H236263   1.129   6.836   8.422  0.8004 -1.9785 -2.0381
 4902TIP3   OH236264   3.317   3.397   0.343 -0.3638  0.5602 -0.4279
 4902TIP3    H136265   3.281   3.308   0.347  0.6561  0.1693  1.0737
 4902TIP3    H236266   3.370   3.398   0.264 -1.4405  0.2819 -1.1840
 4903TIP3   OH236267   1.051   5.519   7.423 -0.0011 -0.0060  0.4057
 4903TIP3    H136268   1.117   5.466   7.468  1.4763  1.7066  0.3454
 4903TIP3    H236269   1.047   5.482   7.335  1.2931  0.2188  0.2445
 4904TIP3   OH236270   2.393   0.746   8.466  0.3144 -0.1338  0.1460
 4904TIP3    H136271   2.335   0.822   8.473  0.4566 -0.1564  1.8199
 4904TIP3    H236272   2.474   0.781   8.430 -0.0521  0.2625 -0.3064
 4905TIP3   OH236273   6.842   0.850   0.020 -0.1019  0.3987 -0.5589
 4905TIP3    H136274   6.915   0.888   0.069 -0.7793 -0.5874  1.3101
 4905TIP3    H236275   6.764   0.893   0.056 -0.7054 -1.1823  0.0982
 4906TIP3   OH236276   4.286   5.808   7.767 -0.2295  0.3239  0.6149
 4906TIP3    H136277   4.339   5.860   7.706 -0.6082  1.3051  1.0949
 4906TIP3    H236278   4.234   5.751   7.710  2.0210 -1.3985  0.1597
 4907TIP3   OH236279   0.698   0.387   0.633  0.1385 -0.3294  0.2117
 4907TIP3    H136280   0.685   0.443   0.709 -0.7024 -0.7011  0.3592
 4907TIP3    H236281   0.670   0.441   0.559  0.2247 -0.2329  0.2494
 4908TIP3   OH236282   4.743   6.864   0.953 -0.0181  0.2497 -0.4080
 4908TIP3    H136283   4.795   6.919   1.011  1.3037 -0.2176 -1.0854
 4908TIP3    H236284   4.799   6.788   0.936 -0.8306 -0.1588 -1.3737
 4909TIP3   OH236285   6.814   3.458   2.060  0.0409  0.0623 -0.2874
 4909TIP3    H136286   6.828   3.548   2.090 -1.6758  0.2041  0.1661
 4909TIP3    H236287   6.763   3.416   2.130 -0.3755 -0.8503 -1.1092
 4910TIP3   OH236288   5.508   1.982   1.997 -0.0103 -0.0618  0.0092
 4910TIP3    H136289   5.483   1.969   2.089  0.7574  0.9409  0.3795
 4910TIP3    H236290   5.440   1.936   1.947 -1.2204  0.5395  1.0306
 4911TIP3   OH236291   0.951   2.409   3.026 -0.4669 -0.0764  0.5377
 4911TIP3    H136292   0.923   2.323   2.994 -1.4958 -0.0025  1.2102
 4911TIP3    H236293   0.870   2.455   3.045  0.0524  1.3915 -0.6561
 4912TIP3   OH236294   6.322   3.134   1.046  0.1074  0.0343 -0.0721
 4912TIP3    H136295   6.230   3.114   1.062  0.7060 -2.6186  0.5474
 4912TIP3    H236296   6.335   3.220   1.085 -2.1705  0.6676 -0.5464
 4913TIP3   OH236297   6.307   6.143   7.944  0.0004 -0.5807 -0.0160
 4913TIP3    H136298   6.348   6.101   7.868  1.0733  0.4877 -0.0638
 4913TIP3    H236299   6.376   6.198   7.981 -0.7634 -0.4259  1.2369
 4914TIP3   OH236300   0.992   2.289   1.652  0.4174 -0.1823 -0.8468
 4914TIP3    H136301   0.919   2.316   1.597 -1.7009  0.9043  2.2163
 4914TIP3    H236302   0.955   2.221   1.708  1.2659  1.3437  1.7273
 4915TIP3   OH236303   2.825   2.569   1.383 -0.2722  0.1586  0.2968
 4915TIP3    H136304   2.796   2.642   1.437 -1.8508 -0.1120 -0.1496
 4915TIP3    H236305   2.745   2.529   1.350  0.5645 -1.4024  0.0163
 4916TIP3   OH236306   2.639   5.339   1.187 -0.4941  0.2171  0.0344
 4916TIP3    H136307   2.734   5.337   1.188 -0.4638  0.5013  1.8185
 4916TIP3    H236308   2.616   5.414   1.243 -1.7584  0.1358 -0.3439
 4917TIP3   OH236309   2.578   3.199   7.303 -0.6861 -0.5725 -0.1464
 4917TIP3    H136310   2.594   3.268   7.367 -0.6784 -0.2899 -0.4499
 4917TIP3    H236311   2.619   3.230   7.223  0.2568 -1.4107 -0.0149
 4918TIP3   OH236312   1.962   3.523   7.855  0.1504 -0.1952 -0.2264
 4918TIP3    H136313   1.961   3.523   7.950  0.1083 -1.5090 -0.2095
 4918TIP3    H236314   1.905   3.595   7.830 -1.2674 -0.9290  0.7607
 4919TIP3   OH236315   3.098   1.898   8.223 -0.2865  0.0437  0.0943
 4919TIP3    H136316   3.119   1.988   8.248  1.2856 -0.6532  1.5480
 4919TIP3    H236317   3.024   1.906   8.163 -0.7774  2.2336  0.8924
 4920TIP3   OH236318   1.045   5.382   8.417 -0.3367 -0.0537 -0.0212
 4920TIP3    H136319   1.094   5.300   8.416 -0.5845 -0.2413  1.3368
 4920TIP3    H236320   0.981   5.372   8.347 -1.0348 -1.4588  0.7722
 4921TIP3   OH236321   4.775   4.961   1.765  0.3429  0.0059 -0.0328
 4921TIP3    H136322   4.744   5.035   1.712 -0.1908  0.0315  0.3068
 4921TIP3    H236323   4.790   4.998   1.852  1.0264 -0.0789 -0.1154
 4922TIP3   OH236324   0.087   0.314   7.554 -0.2598  0.5035  0.0857
 4922TIP3    H136325   0.085   0.373   7.479 -0.2357  1.1232  0.5653
 4922TIP3    H236326  -0.003   0.280   7.560 -0.0666 -0.1707 -0.7000
 4923TIP3   OH236327   0.553   4.445   2.126  0.2642 -0.4632 -0.2189
 4923TIP3    H136328   0.621   4.500   2.164 -1.4981  1.3165  0.5177
 4923TIP3    H236329   0.493   4.426   2.198  0.0370 -2.1515 -0.8034
 4924TIP3   OH236330   4.824   6.736   8.289  0.6228  0.0071  0.5391
 4924TIP3    H136331   4.759   6.674   8.259  0.0467  1.5078 -1.5084
 4924TIP3    H236332   4.908   6.700   8.260  0.2957  0.1523 -0.6159
 4925TIP3   OH236333   4.179   6.673   1.529 -0.5627 -0.3832  0.9960
 4925TIP3    H136334   4.178   6.582   1.558 -2.1176 -0.1268  1.8375
 4925TIP3    H236335   4.150   6.723   1.605 -0.5469  0.7431  0.2841
 4926TIP3   OH236336   5.282   3.889   0.240  0.1483  0.8252 -0.1412
 4926TIP3    H136337   5.260   3.796   0.245  1.8473  0.4517  1.2551
 4926TIP3    H236338   5.227   3.923   0.170 -2.6919 -0.5941  1.2249
 4927TIP3   OH236339   2.096   6.473   8.468 -0.3126  0.3423  0.0414
 4927TIP3    H136340   2.172   6.416   8.482 -1.0135 -0.4033  0.9472
 4927TIP3    H236341   2.021   6.417   8.485 -1.0470  1.3535  0.2140
 4928TIP3   OH236342   4.890   4.809   7.467  0.5342 -0.1803  0.2402
 4928TIP3    H136343   4.905   4.884   7.524 -0.3852 -1.1156  1.8099
 4928TIP3    H236344   4.889   4.845   7.379  1.1883  1.4669  0.8681
 4929TIP3   OH236345   4.297   4.694   1.023  0.1000 -0.6724  0.0795
 4929TIP3    H136346   4.272   4.705   0.931 -1.2761 -2.7212  0.1366
 4929TIP3    H236347   4.380   4.648   1.020 -0.0004 -0.8409 -0.1453
 4930TIP3   OH236348   2.184   0.315   8.218  0.3986  0.4349  0.3850
 4930TIP3    H136349   2.144   0.342   8.135 -2.6468  0.1553  1.6467
 4930TIP3    H236350   2.216   0.396   8.257 -1.1262  1.0649  0.3860
 4931TIP3   OH236351   4.061   5.078   8.091  0.1585 -0.4390 -0.1255
 4931TIP3    H136352   4.011   5.158   8.071  0.4759  1.4035  5.0346
 4931TIP3    H236353   3.998   5.020   8.133  0.8202 -1.1641 -0.1130
 4932TIP3   OH236354   3.914   3.046   7.996  0.2281 -0.6861 -0.7034
 4932TIP3    H136355   3.954   2.975   7.944  2.1329 -0.1261 -0.0886
 4932TIP3    H236356   3.908   3.120   7.935  0.3249 -0.7088 -0.7403
 4933TIP3   OH236357   5.103   0.095   0.828  0.4532 -0.3285  0.2773
 4933TIP3    H136358   5.091   0.019   0.885 -0.8854 -1.0338 -0.8591
 4933TIP3    H236359   5.043   0.079   0.755  0.4735  1.6157 -0.2176
 4934TIP3   OH236360   1.896   5.174   2.184  0.0164 -0.7414  0.1690
 4934TIP3    H136361   1.806   5.190   2.214  0.3300  1.5925  0.0542
 4934TIP3    H236362   1.950   5.184   2.262  0.6090  3.1722 -0.5180
 4935TIP3   OH236363   5.665   5.836   1.568 -0.0534 -0.5067 -0.5855
 4935TIP3    H136364   5.743   5.847   1.513  0.0648 -2.2807 -0.8059
 4935TIP3    H236365   5.611   5.913   1.549  2.3499  1.6971  0.8339
 4936TIP3   OH236366   5.793   6.189   7.777  0.2096  0.4831  0.0776
 4936TIP3    H136367   5.878   6.204   7.820 -0.2176  1.1796  0.7168
 4936TIP3    H236368   5.750   6.125   7.833 -1.3675  3.2153  2.2481
 4937TIP3   OH236369   0.113   2.907   7.651 -0.1477  0.2804 -0.1799
 4937TIP3    H136370   0.075   2.994   7.663 -0.4530 -0.0102  0.9930
 4937TIP3    H236371   0.138   2.905   7.558 -2.0431  0.8493 -0.7506
 4938TIP3   OH236372   5.133   6.398   7.790  0.5513  0.0615 -0.1003
 4938TIP3    H136373   5.070   6.415   7.719  0.2227  1.5904  0.5209
 4938TIP3    H236374   5.216   6.430   7.755  0.8365 -1.1715 -0.5936
 4939TIP3   OH236375   3.466   0.778   6.663 -0.6585 -0.3143 -0.1080
 4939TIP3    H136376   3.526   0.742   6.597  0.8087  0.8360  0.5528
 4939TIP3    H236377   3.520   0.792   6.740 -1.7519  0.8697  0.4842
 4940TIP3   OH236378   3.981   5.137   0.432 -0.3672  0.7725 -0.2346
 4940TIP3    H136379   4.032   5.117   0.354 -2.6165  0.0252 -1.6111
 4940TIP3    H236380   3.997   5.063   0.491  0.3534  0.6943 -0.5196
 4941TIP3   OH236381   5.516   5.012   2.846  0.5843 -0.0050  0.7163
 4941TIP3    H136382   5.517   5.025   2.941  0.2591  0.2444  0.6856
 4941TIP3    H236383   5.575   5.079   2.812 -1.5409  1.8640  0.5091
 4942TIP3   OH236384   3.134   5.039   7.739 -0.4540 -0.3255 -0.4864
 4942TIP3    H136385   3.182   5.122   7.738 -1.6888  0.4155 -1.1879
 4942TIP3    H236386   3.191   4.978   7.786 -0.1108  1.2771  1.2601
 4943TIP3   OH236387   1.072   5.954   7.999  0.1027  0.0522  0.0027
 4943TIP3    H136388   1.099   5.957   8.091  1.1962  0.9105 -0.3224
 4943TIP3    H236389   1.130   6.016   7.955  0.1761 -0.9616 -1.4119
 4944TIP3   OH236390   3.419   1.761   2.284 -0.1114  0.5818  0.1570
 4944TIP3    H136391   3.415   1.845   2.238  0.3483  1.3685  1.5319
 4944TIP3    H236392   3.509   1.731   2.271 -0.0558  0.6744  0.3404
 4945TIP3   OH236393   4.579   5.194   1.068  0.0906  0.0711 -0.1267
 4945TIP3    H136394   4.532   5.138   1.007 -0.0653 -0.0189  0.0764
 4945TIP3    H236395   4.655   5.224   1.019 -0.1210  0.1324 -0.4220
 4946TIP3   OH236396   6.710   5.163   7.594 -0.2193 -0.2908 -0.3639
 4946TIP3    H136397   6.749   5.096   7.649  0.2058  0.1811 -0.0841
 4946TIP3    H236398   6.768   5.168   7.517  0.6156  0.7982  0.3058
 4947TIP3   OH236399   4.891   1.682   0.282  0.0744 -0.8035 -0.3532
 4947TIP3    H136400   4.896   1.742   0.357  1.7478  0.7806 -1.6392
 4947TIP3    H236401   4.832   1.612   0.311 -0.3201  0.3925  1.9672
 4948TIP3   OH236402   5.346   3.870   0.938  0.1082 -0.4428  0.6182
 4948TIP3    H136403   5.357   3.951   0.987  0.2063  0.1940 -0.4100
 4948TIP3    H236404   5.416   3.871   0.873  0.2935 -1.5082  0.7686
 4949TIP3   OH236405   3.479   3.860   7.925  0.2151 -0.3329  0.3851
 4949TIP3    H136406   3.478   3.941   7.977  1.1154 -0.3853  0.5012
 4949TIP3    H236407   3.515   3.886   7.841  0.1963 -0.5500  0.3104
 4950TIP3   OH236408   5.104   1.870   8.529 -0.6096 -0.3534 -0.4112
 4950TIP3    H136409   5.105   1.826   8.614 -2.4675 -0.4962 -0.4144
 4950TIP3    H236410   5.017   1.910   8.524 -0.2018  0.4191 -1.8678
 4951TIP3   OH236411   5.769   0.666   7.992  0.2422 -0.1589 -0.3334
 4951TIP3    H136412   5.676   0.686   7.993  0.2865  0.1065 -0.9187
 4951TIP3    H236413   5.774   0.576   7.958  0.2116 -0.0729 -0.5693
 4952TIP3   OH236414   2.648   1.478   8.113  0.5112  0.2508  0.2856
 4952TIP3    H136415   2.685   1.507   8.196 -1.4406  2.8653  0.3478
 4952TIP3    H236416   2.625   1.558   8.067 -0.7567 -1.1586 -1.7330
 4953TIP3   OH236417   6.259   0.162   0.048  0.3249 -0.2230 -0.3708
 4953TIP3    H136418   6.186   0.157  -0.012  0.4243 -0.1405 -0.4993
 4953TIP3    H236419   6.276   0.256   0.058  0.5592 -0.2480 -0.5219
 4954TIP3   OH236420   5.208   3.500   7.156  0.0973 -0.1296  0.4136
 4954TIP3    H136421   5.187   3.590   7.183  0.0262  0.1947 -0.6596
 4954TIP3    H236422   5.144   3.446   7.203 -0.4557  0.4681  0.3784
 4955TIP3   OH236423   3.325   1.516   2.243 -0.0431  0.3302  0.6447
 4955TIP3    H136424   3.260   1.500   2.312 -2.0612  0.7308 -1.0716
 4955TIP3    H236425   3.337   1.611   2.244  2.1970  0.0980  2.3380
 4956TIP3   OH236426   5.432   0.120   1.380 -0.1593  0.2637 -0.0107
 4956TIP3    H136427   5.415   0.182   1.451  2.8697 -0.1078  1.2064
 4956TIP3    H236428   5.444   0.036   1.423  1.1128 -0.0979 -0.9989
 4957TIP3   OH236429   0.882   2.098   8.186 -0.0741  0.4356  0.4665
 4957TIP3    H136430   0.806   2.132   8.138  0.3925  0.3276 -0.3602
 4957TIP3    H236431   0.955   2.108   8.126  0.6337  0.8011  1.3598
 4958TIP3   OH236432   3.929   2.276   1.142 -0.3913 -0.1661  0.2737
 4958TIP3    H136433   3.892   2.244   1.060 -0.4712  2.3877 -0.7759
 4958TIP3    H236434   3.862   2.258   1.207 -1.5176  0.2470 -0.7379
 4959TIP3   OH236435   3.806   5.980   0.628 -0.0691  0.5474 -0.1612
 4959TIP3    H136436   3.723   6.025   0.635 -0.9682 -0.9167 -0.9249
 4959TIP3    H236437   3.788   5.903   0.573  1.4737 -0.4944  0.6932
 4960TIP3   OH236438   2.478   4.883   8.374 -0.8665 -0.4523 -0.2340
 4960TIP3    H136439   2.437   4.797   8.371  0.4345 -1.0586 -1.3750
 4960TIP3    H236440   2.416   4.941   8.329 -1.6219 -0.8300  0.3007
 4961TIP3   OH236441   6.584   3.080   2.993  0.7043 -0.8233  0.3276
 4961TIP3    H136442   6.490   3.086   2.978  0.5589  0.1763  1.4048
 4961TIP3    H236443   6.610   2.997   2.955 -0.0462  0.2335 -2.7305
 4962TIP3   OH236444   5.002   2.656   0.919  0.4016  0.1409  0.3751
 4962TIP3    H136445   5.043   2.577   0.953 -2.1119 -1.3953  0.1143
 4962TIP3    H236446   4.977   2.706   0.997 -0.3995 -0.6542  0.6328
 4963TIP3   OH236447   0.636   3.312   1.971  0.5229  0.0353  0.3636
 4963TIP3    H136448   0.674   3.244   2.027 -2.4389 -1.1278  1.1497
 4963TIP3    H236449   0.642   3.392   2.023  0.5000 -0.4318  1.1041
 4964TIP3   OH236450   4.530   6.779   7.785  0.0653 -0.6302  0.5159
 4964TIP3    H136451   4.508   6.688   7.763  0.1330 -0.3209 -0.8816
 4964TIP3    H236452   4.524   6.826   7.702  0.4725  0.5643  1.1473
 4965TIP3   OH236453   3.761   3.726   7.376  0.2053 -0.5231  0.6204
 4965TIP3    H136454   3.768   3.639   7.337  1.8534 -0.8469  1.5648
 4965TIP3    H236455   3.765   3.786   7.301  0.7469 -1.2029  0.0947
 4966TIP3   OH236456   1.204   5.970   1.540 -0.2271  0.0414 -0.0800
 4966TIP3    H136457   1.233   6.001   1.454 -1.3858 -0.2360 -0.5871
 4966TIP3    H236458   1.165   6.047   1.581 -0.2966  0.0018 -0.0731
 4967TIP3   OH236459   4.464   5.379   0.048 -0.4353  0.3761  0.4339
 4967TIP3    H136460   4.471   5.348   0.138 -2.5244  1.0705  0.9002
 4967TIP3    H236461   4.437   5.471   0.057  0.2080  0.7089 -0.9001
 4968TIP3   OH236462   1.166   6.309   0.543 -0.0717 -0.2173 -0.2429
 4968TIP3    H136463   1.102   6.378   0.557 -0.9938 -1.1107  0.0578
 4968TIP3    H236464   1.249   6.355   0.528 -0.8969  0.9529 -1.2769
 4969TIP3   OH236465   0.010   6.127   6.909  0.1345  0.4155 -0.8319
 4969TIP3    H136466   0.068   6.058   6.877 -0.7807 -0.3126 -0.9392
 4969TIP3    H236467  -0.065   6.125   6.850 -1.9946 -1.4986  1.7502
 4970TIP3   OH236468   0.368   0.146   1.339 -0.0913 -0.1227  0.1270
 4970TIP3    H136469   0.369   0.124   1.246  0.2036 -0.1902  0.1473
 4970TIP3    H236470   0.350   0.064   1.384  2.9456 -0.7792  0.3300
 4971TIP3   OH236471   1.652   6.482   7.967  0.1276 -0.2536 -0.0983
 4971TIP3    H136472   1.592   6.489   8.042  0.6766  2.0772  0.2017
 4971TIP3    H236473   1.596   6.458   7.893 -1.2221  1.7241  0.1970
 4972TIP3   OH236474   1.036   2.577   2.133  0.1215 -0.4477 -0.0707
 4972TIP3    H136475   0.968   2.560   2.198 -2.7592  1.3321 -2.3654
 4972TIP3    H236476   1.017   2.517   2.062 -1.2171  2.2079 -2.1121
 4973TIP3   OH236477   3.624   2.422   0.946 -0.3596 -0.1856 -0.2404
 4973TIP3    H136478   3.536   2.458   0.936 -0.7656  0.3250  3.6554
 4973TIP3    H236479   3.681   2.488   0.906 -1.6449 -0.1695 -2.1559
 4974TIP3   OH236480   1.272   4.981   2.066 -0.1423 -0.3462 -0.2908
 4974TIP3    H136481   1.313   5.037   2.131  0.1512  0.3708 -1.0757
 4974TIP3    H236482   1.344   4.930   2.029 -0.1629 -0.0539 -0.7317
 4975TIP3   OH236483   3.334   4.135   7.798  0.3415 -0.8622  0.1295
 4975TIP3    H136484   3.400   4.195   7.762  0.5724 -0.3499  1.3730
 4975TIP3    H236485   3.349   4.137   7.892 -0.6263 -1.7419  0.3113
 4976TIP3   OH236486   6.060   6.651   1.285 -0.8303  0.4383 -0.8475
 4976TIP3    H136487   6.151   6.637   1.257 -0.4365 -1.4610  1.0626
 4976TIP3    H236488   6.066   6.721   1.350 -0.4724 -0.5729  0.2494
 4977TIP3   OH236489   6.352   3.420   0.442 -0.2170 -0.2107  0.1979
 4977TIP3    H136490   6.374   3.509   0.467 -1.0367 -0.7207  3.1015
 4977TIP3    H236491   6.270   3.428   0.393 -0.6368  0.5942  1.0073
 4978TIP3   OH236492   1.349   1.615   0.671 -0.3761  0.1931 -0.0838
 4978TIP3    H136493   1.347   1.519   0.673  1.2058  0.0838 -1.5567
 4978TIP3    H236494   1.283   1.640   0.607  0.9794 -0.0868 -1.6536
 4979TIP3   OH236495   3.790   2.680   7.401  0.0600 -0.0110 -0.3687
 4979TIP3    H136496   3.705   2.726   7.400  0.7099  1.2452  0.2122
 4979TIP3    H236497   3.804   2.656   7.309  0.6693  2.8690 -1.1090
 4980TIP3   OH236498   6.090   4.088   1.350 -0.2412  0.1652 -0.1279
 4980TIP3    H136499   6.138   4.162   1.387  1.7394 -0.5817 -1.0238
 4980TIP3    H236500   6.090   4.104   1.256  0.6571 -1.1450 -0.3892
 4981TIP3   OH236501   5.659   6.811   7.076 -0.0567 -0.0589 -0.2010
 4981TIP3    H136502   5.656   6.861   6.994  0.1289  0.6761  0.2262
 4981TIP3    H236503   5.749   6.779   7.081 -0.0384 -0.0142 -0.2382
 4982TIP3   OH236504   6.665   3.749   1.125 -0.5161 -0.7493  0.0567
 4982TIP3    H136505   6.704   3.663   1.109 -0.7097 -0.6603 -0.9120
 4982TIP3    H236506   6.644   3.749   1.219  2.3537 -0.5857  0.7944
 4983TIP3   OH236507   2.196   2.449   8.414  0.0365 -0.2785  0.0261
 4983TIP3    H136508   2.162   2.397   8.487 -2.9000  2.0040  0.4959
 4983TIP3    H236509   2.241   2.522   8.456  1.7265 -0.9191 -0.5864
 4984TIP3   OH236510   6.855   0.693   7.946 -0.0414 -0.4418 -0.5519
 4984TIP3    H136511   6.871   0.640   8.024  1.9033 -1.2599 -1.4363
 4984TIP3    H236512   6.829   0.630   7.879  2.7876 -0.4825 -1.7560
 4985TIP3   OH236513   4.604   2.944   1.996  0.4492  0.5515  0.2456
 4985TIP3    H136514   4.524   2.892   1.991  1.6921 -1.4937  0.5817
 4985TIP3    H236515   4.616   2.959   2.090  2.0150 -1.8341  0.5163
 4986TIP3   OH236516   0.091   3.011   1.631  0.3525 -0.2478 -0.0296
 4986TIP3    H136517   0.057   3.058   1.555 -0.7219  0.7581  1.0288
 4986TIP3    H236518   0.031   2.937   1.643 -0.5568  0.6203  0.8909
 4987TIP3   OH236519   1.718   1.219   1.650 -0.3021  0.4988  0.1068
 4987TIP3    H136520   1.714   1.279   1.724  2.8908  1.0558 -0.0098
 4987TIP3    H236521   1.812   1.209   1.632 -0.7173 -3.2841 -0.9303
 4988TIP3   OH236522   3.405   5.281   7.217 -0.2077 -0.6034 -0.3478
 4988TIP3    H136523   3.466   5.325   7.158 -0.2761 -0.6534 -0.4582
 4988TIP3    H236524   3.459   5.219   7.266 -0.3945 -1.7645 -1.5366
 4989TIP3   OH236525   4.412   3.032   8.229 -0.0924  0.2448  0.0337
 4989TIP3    H136526   4.388   3.124   8.217 -0.1901  0.4456  1.6376
 4989TIP3    H236527   4.338   2.983   8.192 -0.3725  0.8114 -0.1642
 4990TIP3   OH236528   5.934   0.575   1.704  0.5154 -0.3358  0.7271
 4990TIP3    H136529   5.989   0.503   1.672  3.0118  1.0657  1.5819
 4990TIP3    H236530   5.951   0.578   1.798 -0.2566  0.7772  0.8484
 4991TIP3   OH236531   4.770   1.158   1.416 -0.3403 -0.6864  0.2337
 4991TIP3    H136532   4.694   1.163   1.475  0.0065 -0.0104  0.6258
 4991TIP3    H236533   4.735   1.118   1.336 -1.3577  0.5814  0.0215
 4992TIP3   OH236534   3.051   5.526   0.918 -0.5461 -0.0716 -0.1899
 4992TIP3    H136535   3.044   5.616   0.885  2.1448 -0.5831 -2.5049
 4992TIP3    H236536   3.037   5.471   0.841  1.4371 -1.4904  0.3894
 4993TIP3   OH236537   2.445   0.624   1.209 -0.1497 -0.1864 -0.1083
 4993TIP3    H136538   2.392   0.564   1.260 -0.3196  2.2499  2.8994
 4993TIP3    H236539   2.535   0.598   1.227 -0.2094  0.6197  1.5279
 4994TIP3   OH236540   3.969   5.977   0.287  0.0285 -0.1289 -0.3213
 4994TIP3    H136541   3.935   5.888   0.280 -1.2732  0.3375 -0.1237
 4994TIP3    H236542   3.985   6.003   0.196 -1.1667  0.0223 -0.4969
 4995TIP3   OH236543   2.549   5.602   0.695  0.4214  0.2481  0.6098
 4995TIP3    H136544   2.593   5.648   0.767 -0.0937 -0.0000  1.0930
 4995TIP3    H236545   2.500   5.532   0.738 -0.7538  0.7517  0.1326
 4996TIP3   OH236546   3.469   2.806   7.573 -0.2103  0.0315  0.1459
 4996TIP3    H136547   3.510   2.834   7.492 -0.4354 -0.2460 -0.0672
 4996TIP3    H236548   3.379   2.784   7.548 -0.9284  2.0027  0.8651
 4997TIP3   OH236549   0.996   5.270   0.483 -0.5148 -0.0763  0.2582
 4997TIP3    H136550   0.906   5.260   0.514 -0.1719 -1.1758  0.9302
 4997TIP3    H236551   1.037   5.328   0.547 -0.5975 -0.0017  0.2437
 4998TIP3   OH236552   5.254   2.023   0.037  0.5596  0.1119  0.0678
 4998TIP3    H136553   5.215   1.998  -0.046  0.9248  0.1926 -0.1272
 4998TIP3    H236554   5.235   2.116   0.045  0.1747  0.0179  0.2661
 4999TIP3   OH236555   0.226   5.590   8.111  0.0144  0.3924  0.2134
 4999TIP3    H136556   0.143   5.606   8.065 -0.2500 -0.1076  0.5134
 4999TIP3    H236557   0.200   5.551   8.194  0.5000  1.2087  0.7624
 5000TIP3   OH236558   6.772   3.977   1.665 -0.2362 -0.2478 -0.2485
 5000TIP3    H136559   6.858   3.993   1.704 -1.2698  2.7595  1.1131
 5000TIP3    H236560   6.765   3.882   1.661  2.0357 -0.6371  2.1468
 5001TIP3   OH236561   4.698   4.889   2.042  0.0901  0.1145  0.0824
 5001TIP3    H136562   4.783   4.846   2.035  0.3116  0.1285  2.0805
 5001TIP3    H236563   4.692   4.915   2.134 -0.9580  2.4955 -0.6000
 5002TIP3   OH236564   5.663   5.412   8.312 -0.9917  0.7126  0.3316
 5002TIP3    H136565   5.750   5.441   8.337 -0.6711 -0.0319  0.1082
 5002TIP3    H236566   5.641   5.464   8.235 -0.1404 -0.1002 -0.4830
 5003TIP3   OH236567   5.746   5.218   2.812 -0.2401  0.2369  0.4119
 5003TIP3    H136568   5.757   5.313   2.824 -1.8861  0.6365 -0.8669
 5003TIP3    H236569   5.827   5.189   2.771 -0.2932  1.3850 -0.5569
 5004TIP3   OH236570   0.156   0.980   7.449 -0.1845 -0.3223  0.9728
 5004TIP3    H136571   0.105   0.925   7.389  0.1181  0.3654  0.0473
 5004TIP3    H236572   0.243   0.983   7.409 -0.5126  1.8398  0.2641
 5005TIP3   OH236573   6.147   0.215   1.985  0.3389  0.6308 -0.0666
 5005TIP3    H136574   6.181   0.233   1.898 -2.1402 -0.0407 -1.2696
 5005TIP3    H236575   6.195   0.274   2.043  1.9928  1.1517 -1.8708
 5006TIP3   OH236576   0.208   6.215   2.613  0.4603 -0.1414  0.3447
 5006TIP3    H136577   0.188   6.242   2.703  1.9841 -1.2002  1.0324
 5006TIP3    H236578   0.146   6.144   2.596 -1.7612  1.8409 -0.5299
 5007TIP3   OH236579   6.103   4.325   0.509  0.3899 -0.0499 -0.3082
 5007TIP3    H136580   6.080   4.308   0.417 -0.4057 -0.6336 -0.0098
 5007TIP3    H236581   6.102   4.239   0.550  0.6811  0.2201  0.2742
 5008TIP3   OH236582   4.901   1.089   7.410  0.3562  0.0394  0.1403
 5008TIP3    H136583   4.812   1.064   7.435 -0.7155  1.5445 -1.8749
 5008TIP3    H236584   4.915   1.050   7.324  1.0555  1.0754 -0.2367
 5009TIP3   OH236585   2.962   2.998   2.025 -0.8285 -0.5112  0.5292
 5009TIP3    H136586   3.055   2.975   2.026 -0.5533  0.5068 -0.2032
 5009TIP3    H236587   2.952   3.062   2.095 -0.3681  1.4968 -1.1474
 5010TIP3   OH236588   5.624   0.362   1.709 -0.4355 -0.5135 -0.2960
 5010TIP3    H136589   5.662   0.382   1.795 -1.5548 -0.1693  0.1387
 5010TIP3    H236590   5.688   0.395   1.646  0.4403 -0.8365  0.3942
 5011TIP3   OH236591   1.798   5.286   0.488 -0.4412  0.0571  0.0515
 5011TIP3    H136592   1.877   5.263   0.537 -1.0153 -0.3767  0.7908
 5011TIP3    H236593   1.804   5.235   0.407  0.1655  0.2348 -0.0173
 5012TIP3   OH236594   3.117   2.273   8.004 -0.5877 -0.3525 -0.9883
 5012TIP3    H136595   3.141   2.238   8.089  1.6336  1.5355 -0.7156
 5012TIP3    H236596   3.045   2.218   7.973 -0.4256 -2.0154  1.4111
 5013TIP3   OH236597   1.142   3.342   2.332  0.6131  0.1116  0.3231
 5013TIP3    H136598   1.079   3.271   2.323  2.5352 -1.8054  1.1712
 5013TIP3    H236599   1.123   3.379   2.418  1.3739 -1.2584  1.1097
 5014TIP3   OH236600   1.590   1.092   2.968 -0.0229 -0.4642  0.1353
 5014TIP3    H136601   1.633   1.028   2.912 -1.9222 -1.5422 -0.1821
 5014TIP3    H236602   1.639   1.173   2.954  1.1017 -1.3240 -1.1230
 5015TIP3   OH236603   5.073   6.388   0.003 -0.5870 -0.1192 -0.0629
 5015TIP3    H136604   5.133   6.394  -0.071  0.9615  0.0522  1.1409
 5015TIP3    H236605   4.986   6.386  -0.036  0.2150 -0.9255 -1.9035
 5016TIP3   OH236606   5.267   6.413   0.514 -0.4467  0.3517  0.7324
 5016TIP3    H136607   5.229   6.475   0.451  0.5196  0.4491  0.2259
 5016TIP3    H236608   5.346   6.381   0.471 -1.0751 -1.4636  0.8601
 5017TIP3   OH236609   5.855   4.861   2.859  0.1573  0.2394  0.4825
 5017TIP3    H136610   5.841   4.875   2.953 -0.9418 -1.5410  0.6401
 5017TIP3    H236611   5.788   4.796   2.835  1.4454 -0.5343 -1.1908
 5018TIP3   OH236612   3.285   1.095   2.373  0.3718  0.4021 -0.6684
 5018TIP3    H136613   3.374   1.129   2.379  0.0509  0.9866  2.0422
 5018TIP3    H236614   3.242   1.123   2.454 -1.5615 -1.8619 -0.7708
 5019TIP3   OH236615   5.172   5.162   1.455 -0.2449 -0.5266 -0.9284
 5019TIP3    H136616   5.168   5.257   1.451  0.2716 -0.4581 -0.0399
 5019TIP3    H236617   5.232   5.137   1.384  1.4098 -0.0246  0.2360
 5020TIP3   OH236618   1.898   0.229   7.241 -0.0224  0.0133  0.0175
 5020TIP3    H136619   1.847   0.216   7.161  1.1452  0.6032 -0.8573
 5020TIP3    H236620   1.868   0.161   7.300  0.5844 -1.8528 -1.6892
 5021TIP3   OH236621   1.802   0.029   2.110 -0.6315 -0.3490 -0.1007
 5021TIP3    H136622   1.830   0.116   2.082 -1.6196 -0.4666 -1.5540
 5021TIP3    H236623   1.874  -0.003   2.164  0.5574  0.6333 -1.0445
 5022TIP3   OH236624   6.064   3.214   6.966  0.0668  0.3032  0.7988
 5022TIP3    H136625   6.085   3.122   6.983 -0.7505 -0.1584 -0.5455
 5022TIP3    H236626   5.992   3.211   6.903  0.3617  1.8740  0.3476
 5023TIP3   OH236627   5.475   6.583   7.094  0.4819  0.2645  0.2502
 5023TIP3    H136628   5.390   6.624   7.079 -0.1804 -0.4242  1.8630
 5023TIP3    H236629   5.535   6.657   7.104 -0.3526  0.8357  1.2941
 5024TIP3   OH236630   3.878   3.116   1.094 -0.7255  0.1421  0.5632
 5024TIP3    H136631   3.932   3.173   1.039 -1.5203 -1.3377 -1.9068
 5024TIP3    H236632   3.796   3.163   1.105  0.0682  1.2519  2.1414
 5025TIP3   OH236633   0.278   0.062   2.145 -0.4458 -0.4201 -0.2937
 5025TIP3    H136634   0.311   0.144   2.180 -1.1857 -0.3441  0.2420
 5025TIP3    H236635   0.334  -0.005   2.183 -0.6544 -0.2609  0.3008
 5026TIP3   OH236636   4.757   4.622   6.908 -0.3139  0.5948 -0.2757
 5026TIP3    H136637   4.719   4.710   6.908  0.4229  0.9189 -1.1510
 5026TIP3    H236638   4.851   4.636   6.904 -0.2140 -0.2402 -1.1368
 5027TIP3   OH236639   4.543   2.969   2.266  0.1733 -0.8033  0.5439
 5027TIP3    H136640   4.627   2.940   2.301 -0.5674 -2.8243  0.7807
 5027TIP3    H236641   4.478   2.937   2.328 -0.8026  0.6261  0.3081
 5028TIP3   OH236642   3.726   0.329   0.188 -0.7670 -0.6187  0.1519
 5028TIP3    H136643   3.753   0.387   0.117  2.6598 -1.9192  0.1871
 5028TIP3    H236644   3.674   0.384   0.246 -1.4932  1.1394 -2.0473
 5029TIP3   OH236645   0.764   0.985   6.806 -0.5945 -0.7222 -0.0593
 5029TIP3    H136646   0.727   1.069   6.835 -0.8647 -0.3434 -1.4476
 5029TIP3    H236647   0.859   0.998   6.811 -0.5233  0.8509 -3.2895
 5030TIP3   OH236648   6.017   6.869   0.674 -0.5594 -0.1798  0.5075
 5030TIP3    H136649   6.091   6.893   0.730 -0.9963  0.5054  0.8046
 5030TIP3    H236650   5.943   6.862   0.735 -0.8371 -0.3867  0.1466
 5031TIP3   OH236651   5.447   6.568   2.791  0.7718  0.1792  0.6624
 5031TIP3    H136652   5.485   6.520   2.718  0.0697  0.3873  0.1557
 5031TIP3    H236653   5.358   6.535   2.798 -0.0183  1.9900 -0.2411
 5032TIP3   OH236654   3.933   2.424   8.403  0.3373  0.6817  0.1375
 5032TIP3    H136655   3.923   2.422   8.498 -0.4471  0.8899  0.0670
 5032TIP3    H236656   3.846   2.401   8.369  0.7350  0.1139 -0.5308
 5033TIP3   OH236657   6.090   2.160   0.047  0.4794  0.0060  0.2612
 5033TIP3    H136658   6.024   2.181  -0.019  0.1331  1.4900  1.0332
 5033TIP3    H236659   6.114   2.245   0.085  2.5119 -0.5266  0.3126
 5034TIP3   OH236660   2.775   3.436   8.172  0.4439 -0.0007  0.7571
 5034TIP3    H136661   2.796   3.368   8.108  1.6737 -1.1512  2.3021
 5034TIP3    H236662   2.695   3.406   8.215  1.1663 -0.6723  1.6644
 5035TIP3   OH236663   5.431   4.606   8.523 -0.1409  0.5584  0.9349
 5035TIP3    H136664   5.341   4.597   8.554 -0.1527  0.3580  0.8450
 5035TIP3    H236665   5.449   4.699   8.527 -1.5917  1.1603 -2.4904
 5036TIP3   OH236666   1.837   2.972   1.409  0.7120 -0.3495  0.7918
 5036TIP3    H136667   1.868   3.043   1.466  2.1123 -0.9963  0.8713
 5036TIP3    H236668   1.906   2.906   1.413  0.4199 -0.8094 -0.9563
 5037TIP3   OH236669   2.334   6.808   2.553 -1.1417  0.4788  0.2890
 5037TIP3    H136670   2.277   6.854   2.492 -0.9478  0.0022 -0.2714
 5037TIP3    H236671   2.320   6.715   2.533  0.8593  0.3502 -0.8705
 5038TIP3   OH236672   2.870   1.636   2.776  0.0843 -0.7205 -0.0837
 5038TIP3    H136673   2.961   1.609   2.783 -0.4992 -2.5048  1.2011
 5038TIP3    H236674   2.847   1.618   2.685  1.4520  1.4065 -0.9224
 5039TIP3   OH236675   1.794   0.633   0.895  0.4968 -0.0415  0.1761
 5039TIP3    H136676   1.704   0.661   0.910  0.1447 -1.0686  0.0774
 5039TIP3    H236677   1.814   0.662   0.807  0.6701  1.2017  0.6079
 5040TIP3   OH236678   6.394   4.022   0.236  0.1951 -0.2218 -0.4459
 5040TIP3    H136679   6.368   3.948   0.290  0.8346  0.0772  0.2909
 5040TIP3    H236680   6.365   3.999   0.147 -1.7006 -0.3294  0.1514
 5041TIP3   OH236681   0.327   4.855   8.288  0.1202 -0.1071 -0.6760
 5041TIP3    H136682   0.374   4.805   8.221 -0.7779  0.7105 -1.9735
 5041TIP3    H236683   0.273   4.790   8.333  1.0639 -0.7394 -0.4288
 5042TIP3   OH236684   2.489   3.018   2.128 -0.5907  0.3687 -0.1421
 5042TIP3    H136685   2.414   3.077   2.128 -0.3273  0.7155 -0.9628
 5042TIP3    H236686   2.543   3.047   2.054 -0.4228 -0.8585 -0.5259
 5043TIP3   OH236687   6.676   6.169   2.395  0.0924 -0.4436  0.2525
 5043TIP3    H136688   6.709   6.228   2.327 -1.8890  0.3061 -0.1107
 5043TIP3    H236689   6.614   6.222   2.445  0.1257 -1.5289  1.5047
 5044TIP3   OH236690   4.523   3.026   2.780  0.1144  0.2606 -0.3932
 5044TIP3    H136691   4.473   3.094   2.737  1.9200  2.3175  0.5617
 5044TIP3    H236692   4.557   3.067   2.860  0.3772 -2.1062  0.8270
 5045TIP3   OH236693   0.155   6.310   0.720 -0.5290 -0.0704 -0.2139
 5045TIP3    H136694   0.088   6.374   0.744 -1.6211 -1.4969  0.7155
 5045TIP3    H236695   0.138   6.235   0.777  1.8625 -0.5052  0.0277
 5046TIP3   OH236696   6.674   5.184   0.828 -0.2758 -0.2968  0.4177
 5046TIP3    H136697   6.613   5.191   0.901  1.0120  1.5255  1.4006
 5046TIP3    H236698   6.624   5.214   0.752 -0.6456  1.1610  1.2090
 5047TIP3   OH236699   3.477   5.069   2.261  0.1874 -0.4394 -0.0747
 5047TIP3    H136700   3.556   5.103   2.219  0.2791  2.3207  2.0254
 5047TIP3    H236701   3.415   5.058   2.189  1.9013 -1.0515 -1.5559
 5048TIP3   OH236702   2.807   4.099   7.930  0.2429  0.3842 -0.1746
 5048TIP3    H136703   2.872   4.091   7.860  0.2593  0.4716 -0.1686
 5048TIP3    H236704   2.803   4.192   7.949 -2.5330  0.9424 -2.7218
 5049TIP3   OH236705   6.428   4.551   0.198  0.4800 -0.2391 -0.0188
 5049TIP3    H136706   6.374   4.473   0.187 -2.1133  1.4497 -0.1454
 5049TIP3    H236707   6.387   4.599   0.270  1.4460  1.4150 -0.5090
 5050TIP3   OH236708   2.454   2.358   0.887 -0.0846  0.2786  0.3419
 5050TIP3    H136709   2.374   2.356   0.836 -0.0221 -0.9691  0.2396
 5050TIP3    H236710   2.517   2.405   0.833 -0.1861 -0.5127 -0.4928
 5051TIP3   OH236711   0.604   1.298   7.608 -0.1301 -0.0715  0.0390
 5051TIP3    H136712   0.553   1.282   7.528 -0.8440 -1.5800  0.7394
 5051TIP3    H236713   0.557   1.249   7.676  1.8105 -0.8353  0.8992
 5052TIP3   OH236714   5.102   0.025   2.183  0.1470 -0.8339 -0.0910
 5052TIP3    H136715   5.188  -0.017   2.185  0.5941  0.0548 -0.2455
 5052TIP3    H236716   5.107   0.086   2.109  0.6756  1.8821  2.0013
 5053TIP3   OH236717   0.841   1.607   2.581  0.1115  0.1020 -0.2018
 5053TIP3    H136718   0.808   1.553   2.653  0.7065  1.4903  1.1725
 5053TIP3    H236719   0.811   1.696   2.602  1.7631  0.8259 -0.7232
 5054TIP3   OH236720   3.462   5.125   8.349  0.3679 -0.2458  0.4631
 5054TIP3    H136721   3.525   5.055   8.365 -0.6875 -1.4071 -0.2626
 5054TIP3    H236722   3.506   5.184   8.288  0.4168 -1.5445 -0.7910
 5055TIP3   OH236723   2.877   5.331   8.298 -0.5584  0.5979 -0.0567
 5055TIP3    H136724   2.914   5.351   8.212  0.7547  0.9391  0.5549
 5055TIP3    H236725   2.854   5.416   8.335  1.1942  0.7278  0.8864
 5056TIP3   OH236726   1.811   2.741   2.055 -0.5068  0.1470  0.0030
 5056TIP3    H136727   1.740   2.768   2.113 -0.5605  0.9706 -0.4290
 5056TIP3    H236728   1.767   2.697   1.983 -0.4373 -0.9095  0.5916
 5057TIP3   OH236729   6.159   1.038   1.834  0.3858  0.0368 -0.1436
 5057TIP3    H136730   6.168   1.000   1.747  1.0209 -0.0419 -0.0443
 5057TIP3    H236731   6.090   1.104   1.824  0.7598  0.3405 -0.8154
 5058TIP3   OH236732   2.068   5.218   1.459  0.1229  0.8825  1.2498
 5058TIP3    H136733   2.033   5.171   1.534  0.9688 -0.9422  0.5701
 5058TIP3    H236734   2.163   5.218   1.472  0.4815 -1.2835 -0.7314
 5059TIP3   OH236735   5.334   5.598   8.616 -0.0724 -0.0173  0.0298
 5059TIP3    H136736   5.281   5.520   8.602 -0.2574  0.2918 -1.0776
 5059TIP3    H236737   5.424   5.566   8.619 -0.2053 -0.3655  0.4767
 5060TIP3   OH236738   3.114   4.113   8.046 -0.5943 -0.0197  0.2120
 5060TIP3    H136739   3.121   4.205   8.071  2.0767 -0.2517  0.6983
 5060TIP3    H236740   3.089   4.068   8.127  2.2833 -0.1096  1.1621
 5061TIP3   OH236741   2.229   2.191   2.326 -0.6662 -0.2677 -0.2201
 5061TIP3    H136742   2.242   2.277   2.287  0.0907 -0.1218  0.3407
 5061TIP3    H236743   2.317   2.154   2.334 -0.8844 -0.6526  0.5107
 5062TIP3   OH236744   6.291   0.955   7.577 -0.3713  0.5901  0.0164
 5062TIP3    H136745   6.293   0.888   7.508 -0.4029  0.3803  0.2153
 5062TIP3    H236746   6.203   0.991   7.573 -0.2780  0.7863 -0.2498
 5063TIP3   OH236747   1.885   2.234   2.359  0.1630  0.1690  0.1277
 5063TIP3    H136748   1.960   2.213   2.304  0.4748  0.1570  0.5523
 5063TIP3    H236749   1.810   2.200   2.310  0.5522 -0.9567  0.2743
 5064TIP3   OH236750   1.612   4.011   2.542  0.1409  0.0281 -0.0472
 5064TIP3    H136751   1.655   3.999   2.627 -1.2791 -0.8423  0.5957
 5064TIP3    H236752   1.641   3.936   2.489 -0.3395 -0.4110  0.2947
 5065TIP3   OH236753   4.783   4.317   0.582  0.1451 -0.2229 -0.2188
 5065TIP3    H136754   4.733   4.281   0.655  0.1873  1.0294  0.4533
 5065TIP3    H236755   4.865   4.268   0.583 -0.4732 -1.3144 -0.4476
 5066TIP3   OH236756   3.242   2.265   0.829 -0.0978 -0.3179  0.3259
 5066TIP3    H136757   3.297   2.328   0.782  1.5041 -2.2509 -0.5365
 5066TIP3    H236758   3.226   2.306   0.914  2.1902  0.5969  0.3890
 5067TIP3   OH236759   5.491   3.724   2.434 -0.0642  0.1419 -0.3072
 5067TIP3    H136760   5.453   3.793   2.379 -1.1163 -0.7506 -0.7359
 5067TIP3    H236761   5.545   3.771   2.498 -0.0006  1.2940 -1.1800
 5068TIP3   OH236762   4.805   1.054   8.369  0.0536  0.7267  0.9468
 5068TIP3    H136763   4.784   1.039   8.277  0.4652  2.4635  0.5209
 5068TIP3    H236764   4.862   0.982   8.394  0.9700  0.8995 -0.5452
 5069TIP3   OH236765   1.776   3.219   6.855 -0.0020 -0.0618 -0.2578
 5069TIP3    H136766   1.870   3.236   6.859 -0.1084  0.3364  1.1260
 5069TIP3    H236767   1.748   3.255   6.771  1.1472 -0.5941 -0.8951
 5070TIP3   OH236768   1.060   2.363   7.462 -0.0491 -0.5426 -0.0811
 5070TIP3    H136769   1.058   2.311   7.382 -0.3852  0.3594 -0.6703
 5070TIP3    H236770   1.135   2.422   7.452  0.3233 -0.8848  0.5761
 5071TIP3   OH236771   0.284   2.469   7.981  0.0822 -0.0503  0.1057
 5071TIP3    H136772   0.195   2.443   7.958 -0.6520  0.1292  2.4321
 5071TIP3    H236773   0.313   2.525   7.909 -0.1858 -3.0583 -2.5657
 5072TIP3   OH236774   3.722   2.367   0.185  0.2050  0.1537  0.3372
 5072TIP3    H136775   3.664   2.442   0.177  0.8586  0.6142 -0.2759
 5072TIP3    H236776   3.771   2.383   0.266  0.8319  0.7679 -0.1411
 5073TIP3   OH236777   5.174   6.190   2.197  0.2783 -0.1912 -0.1980
 5073TIP3    H136778   5.262   6.158   2.219 -0.4676 -2.6344 -0.4869
 5073TIP3    H236779   5.119   6.158   2.268 -0.7265 -0.6190 -1.1426
 5074TIP3   OH236780   0.838   1.877   6.778  0.2497 -0.6331  0.3609
 5074TIP3    H136781   0.837   1.786   6.806 -1.5274 -0.7191  0.0930
 5074TIP3    H236782   0.874   1.874   6.689  0.1257 -1.0821  0.3239
 5075TIP3   OH236783   0.848   4.883   1.108 -0.2674  0.2638 -0.8374
 5075TIP3    H136784   0.844   4.892   1.203  1.7444  0.4849 -0.7263
 5075TIP3    H236785   0.804   4.800   1.090  0.8489 -0.6781  0.5025
 5076TIP3   OH236786   0.229   3.559   1.154 -0.6375  0.5647  0.2853
 5076TIP3    H136787   0.169   3.606   1.096 -1.2247 -0.2589  0.1993
 5076TIP3    H236788   0.172   3.509   1.212 -0.0643 -0.8336 -0.2929
 5077TIP3   OH236789   4.023   4.129   1.464  0.2110  0.7042 -0.2797
 5077TIP3    H136790   4.024   4.112   1.558 -1.3488  0.6745 -0.2424
 5077TIP3    H236791   4.115   4.148   1.442  0.3928  2.1720  1.4975
 5078TIP3   OH236792   0.384   2.715   1.718 -0.2142 -0.2979 -0.3917
 5078TIP3    H136793   0.422   2.697   1.804 -0.0916 -1.1099 -0.6073
 5078TIP3    H236794   0.290   2.718   1.733 -0.1199  1.1117  0.0373
 5079TIP3   OH236795   4.715   5.538   1.291  0.1817  0.1142  0.1227
 5079TIP3    H136796   4.793   5.490   1.262  2.1367  2.9832  0.2849
 5079TIP3    H236797   4.715   5.526   1.386  1.1404  1.0440  0.2560
 5080TIP3   OH236798   5.636   6.439   0.154 -0.5422  0.6335 -0.1448
 5080TIP3    H136799   5.561   6.497   0.137  0.0569  1.0824 -1.3388
 5080TIP3    H236800   5.678   6.478   0.231 -2.2652 -0.3996  1.4175
 5081TIP3   OH236801   3.716   1.093   7.773 -0.1632  0.5072  0.7326
 5081TIP3    H136802   3.766   1.117   7.695  0.7638  0.9254  1.4458
 5081TIP3    H236803   3.628   1.075   7.740 -0.1393  2.0169 -0.2291
 5082TIP3   OH236804   6.794   0.163   0.923 -0.5356  0.0021  0.3772
 5082TIP3    H136805   6.753   0.198   0.844 -1.2764 -0.3633  0.5903
 5082TIP3    H236806   6.865   0.107   0.890 -0.7143  0.0100 -0.0260
 5083TIP3   OH236807   1.023   3.179   0.664 -0.2567  0.2781 -0.2924
 5083TIP3    H136808   0.975   3.142   0.590  1.2097  1.7037 -2.0372
 5083TIP3    H236809   1.114   3.153   0.650  0.1075  0.8916  0.7944
 5084TIP3   OH236810   0.123   6.178   1.598  0.3272 -0.1793  0.0230
 5084TIP3    H136811   0.068   6.164   1.520  0.1253  0.4347  0.0530
 5084TIP3    H236812   0.075   6.134   1.669 -2.0533  3.3168  0.8322
 5085TIP3   OH236813   4.480   5.396   2.260  0.1867 -0.0402  0.4844
 5085TIP3    H136814   4.464   5.401   2.166  1.1724  2.9039  0.3940
 5085TIP3    H236815   4.539   5.320   2.270 -0.2616 -0.6522 -1.1843
 5086TIP3   OH236816   0.117   4.905   0.447 -0.1552 -0.1627  0.4707
 5086TIP3    H136817   0.092   4.980   0.500 -1.2506  1.6102 -2.3183
 5086TIP3    H236818   0.033   4.865   0.421  0.1807  0.3157 -1.5376
 5087TIP3   OH236819   3.257   5.398   7.501 -0.2101  0.0734  0.1850
 5087TIP3    H136820   3.239   5.334   7.432 -1.1582  1.0660 -0.5272
 5087TIP3    H236821   3.284   5.477   7.454 -0.0357  0.5065  0.9959
 5088TIP3   OH236822   4.774   5.397   2.143  0.4416 -0.3590  0.0196
 5088TIP3    H136823   4.779   5.448   2.223  3.3539 -2.5004  1.4030
 5088TIP3    H236824   4.711   5.328   2.162  0.6189 -0.4671  0.2154
 5089TIP3   OH236825   0.823   6.388   2.961 -0.4112  0.7492 -0.6443
 5089TIP3    H136826   0.827   6.374   3.056 -0.6405 -1.2306 -0.8901
 5089TIP3    H236827   0.732   6.409   2.944 -0.5953  0.0713 -0.5321
 5090TIP3   OH236828   6.066   5.598   8.044 -0.2417  0.0574  0.0185
 5090TIP3    H136829   6.017   5.665   7.996 -0.7786 -0.8955 -0.8089
 5090TIP3    H236830   6.125   5.647   8.101 -2.2201  1.2545  1.1298
 5091TIP3   OH236831   5.804   0.914   1.210 -0.4453 -0.4207  0.5910
 5091TIP3    H136832   5.711   0.907   1.192 -0.3533 -0.6512  0.1783
 5091TIP3    H236833   5.820   0.850   1.280 -0.8064  0.4852  1.5247
 5092TIP3   OH236834   3.197   5.014   8.617 -0.2430 -0.0981 -0.5531
 5092TIP3    H136835   3.225   4.993   8.706 -0.7529 -0.5819 -0.5077
 5092TIP3    H236836   3.247   5.093   8.595  0.2119 -0.2230 -0.0027
 5093TIP3   OH236837   4.100   0.832   0.314  1.1526 -0.4475  0.1361
 5093TIP3    H136838   4.053   0.909   0.346  1.2487 -0.2505 -0.1841
 5093TIP3    H236839   4.069   0.760   0.368  0.1508 -0.4043 -0.3593
 5094TIP3   OH236840   4.657   0.669   7.838 -0.2603  0.1253  0.2469
 5094TIP3    H136841   4.664   0.747   7.784  1.2483 -0.4383 -0.4250
 5094TIP3    H236842   4.704   0.601   7.790  1.0231 -0.4458  2.1669
 5095TIP3   OH236843   1.946   5.599   8.524  0.2284  0.0388  0.1739
 5095TIP3    H136844   1.909   5.514   8.547 -1.6583  0.8106  0.1568
 5095TIP3    H236845   1.986   5.631   8.605  0.4635 -0.6247  0.3220
 5096TIP3   OH236846   3.294   6.416   2.279  0.1992 -0.1698  0.1543
 5096TIP3    H136847   3.349   6.457   2.345 -0.6365 -0.2732  0.9259
 5096TIP3    H236848   3.233   6.485   2.253  0.1759 -0.2926 -0.1210
 5097TIP3   OH236849   3.198   0.459   7.715  0.0289 -0.0393 -0.1942
 5097TIP3    H136850   3.170   0.525   7.651 -2.5037 -0.7487  0.0756
 5097TIP3    H236851   3.249   0.396   7.665  0.4587  0.8594 -0.9225
 5098TIP3   OH236852   4.030   2.274   1.552 -0.0564 -0.7851 -0.3796
 5098TIP3    H136853   4.100   2.313   1.501  0.8757 -1.9302 -0.0219
 5098TIP3    H236854   3.951   2.290   1.501  0.4060  0.7492 -0.6683
 5099TIP3   OH236855   0.827   3.929   1.533 -0.2373 -0.0954 -0.1777
 5099TIP3    H136856   0.745   3.968   1.502  0.6126  1.2811 -0.8206
 5099TIP3    H236857   0.807   3.895   1.620 -1.0285  1.9784  0.5099
 5100TIP3   OH236858   4.016   5.439   7.211 -0.0512  0.1119  0.0337
 5100TIP3    H136859   3.972   5.374   7.266 -0.0135 -0.2277 -0.3234
 5100TIP3    H236860   3.952   5.457   7.141 -1.2151  2.5570  1.6041
 5101TIP3   OH236861   2.645   3.713   8.422  0.2045  0.0425 -0.2733
 5101TIP3    H136862   2.650   3.715   8.326  1.5406  1.7756 -0.2174
 5101TIP3    H236863   2.570   3.769   8.442 -2.5286 -3.2942 -0.3182
 5102TIP3   OH236864   4.501   5.562   2.484 -0.0727 -0.2846  0.0876
 5102TIP3    H136865   4.596   5.555   2.474 -0.0421 -1.1713  0.9273
 5102TIP3    H236866   4.466   5.488   2.434 -0.3527  0.2418 -0.5118
 5103TIP3   OH236867   1.077   0.710   8.338  0.1066  0.0864 -0.5011
 5103TIP3    H136868   1.161   0.725   8.380  0.8296 -1.0655 -1.4573
 5103TIP3    H236869   1.028   0.657   8.400 -0.5380  1.9717  0.7053
 5104TIP3   OH236870   1.539   4.841   0.707  0.4685 -0.4848  0.2312
 5104TIP3    H136871   1.476   4.826   0.778  1.1653  2.0365  1.5252
 5104TIP3    H236872   1.485   4.854   0.629 -0.7936  2.4254  1.4454
 5105TIP3   OH236873   0.393   3.258   1.866 -0.0355  0.4563  0.2758
 5105TIP3    H136874   0.335   3.325   1.903 -1.1408 -0.2753 -0.0686
 5105TIP3    H236875   0.476   3.270   1.911 -0.8577  0.6646  1.7857
 5106TIP3   OH236876   1.954   1.704   1.163 -0.7484  0.2141  0.4310
 5106TIP3    H136877   1.912   1.694   1.077 -2.1338 -1.4526  1.2288
 5106TIP3    H236878   1.887   1.745   1.218 -1.7577 -2.9882  1.8770
 5107TIP3   OH236879   5.570   5.463   8.583 -0.4409  0.6468  0.6852
 5107TIP3    H136880   5.649   5.426   8.622 -0.9428 -0.1987  0.9275
 5107TIP3    H236881   5.558   5.414   8.501 -0.2165  1.3925  0.2008
 5108TIP3   OH236882   4.736   2.331   8.105 -0.3314  0.1213  0.3865
 5108TIP3    H136883   4.662   2.364   8.055 -2.0519  1.4039  3.4878
 5108TIP3    H236884   4.789   2.408   8.124  0.9550 -0.5334 -0.4176
 5109TIP3   OH236885   1.572   2.723   2.177 -0.1268 -0.2856  0.6410
 5109TIP3    H136886   1.588   2.661   2.248  0.5961 -2.1767 -1.0672
 5109TIP3    H236887   1.487   2.697   2.142  0.6402 -1.0427 -0.7412
 5110TIP3   OH236888   5.313   4.083   0.436  0.1870  0.7075 -0.1782
 5110TIP3    H136889   5.324   4.043   0.350 -0.5793  1.8784 -0.8501
 5110TIP3    H236890   5.336   4.175   0.422 -0.6204  1.0568  0.6864
 5111TIP3   OH236891   3.965   2.011   1.657 -0.2727 -0.2413  0.5870
 5111TIP3    H136892   4.011   2.095   1.649 -0.6393 -0.1154 -0.2589
 5111TIP3    H236893   4.002   1.971   1.736  2.1061 -0.6624 -0.6692
 5112TIP3   OH236894   3.366   0.599   8.579 -0.0404 -0.2499 -0.4876
 5112TIP3    H136895   3.349   0.599   8.485 -1.3344  0.4617 -0.2705
 5112TIP3    H236896   3.306   0.664   8.614 -1.0494 -1.9684  1.1016
 5113TIP3   OH236897   5.222   0.623   1.965  0.0345  0.2674  0.1829
 5113TIP3    H136898   5.298   0.566   1.977 -0.3825 -0.0055  1.9079
 5113TIP3    H236899   5.208   0.661   2.052 -1.9420  0.1275 -0.0428
 5114TIP3   OH236900   1.002   1.192   8.238 -0.2758  0.1125  0.4920
 5114TIP3    H136901   0.919   1.235   8.261 -0.3324 -0.7550  2.0461
 5114TIP3    H236902   1.059   1.209   8.312  0.5138 -0.4258  0.0186
 5115TIP3   OH236903   5.306   6.055   2.432 -0.2504  0.8552 -0.6148
 5115TIP3    H136904   5.393   6.079   2.464 -0.4886 -1.4347  2.1264
 5115TIP3    H236905   5.248   6.075   2.505 -1.1303 -2.8496 -0.1000
 5116TIP3   OH236906   2.702   4.830   0.487 -0.2118  0.7345 -0.1320
 5116TIP3    H136907   2.665   4.764   0.546 -0.2556  0.2121 -0.7311
 5116TIP3    H236908   2.628   4.886   0.465 -0.8345 -0.6320 -1.7634
 5117TIP3   OH236909   2.446   0.935   7.520 -0.1634  0.0942  0.2687
 5117TIP3    H136910   2.496   1.004   7.475  2.2277 -2.7168 -1.8085
 5117TIP3    H236911   2.384   0.904   7.454  0.6299 -1.4522  0.2096
 5118TIP3   OH236912   6.516   0.521   2.706 -0.0482 -0.2421  0.2440
 5118TIP3    H136913   6.536   0.605   2.664 -1.0292  0.4440  1.0876
 5118TIP3    H236914   6.602   0.484   2.728  0.4038  0.4278 -0.3585
 5119TIP3   OH236915   4.065   5.753   0.618 -0.5100  0.0024 -0.5316
 5119TIP3    H136916   4.119   5.783   0.545 -0.2241  0.8560  0.0172
 5119TIP3    H236917   4.060   5.828   0.677 -1.0024 -0.5726  0.1800
 5120TIP3   OH236918   2.240   1.845   2.225 -0.5049 -0.2741  0.4008
 5120TIP3    H136919   2.305   1.895   2.275  0.6643 -2.1834  0.8646
 5120TIP3    H236920   2.248   1.756   2.257 -1.7491 -1.0092 -1.1980
 5121TIP3   OH236921   0.581   5.054   1.018  0.2372 -0.4486 -0.3328
 5121TIP3    H136922   0.676   5.064   1.028  0.2153  0.1568 -0.7069
 5121TIP3    H236923   0.571   4.986   0.951  0.4040 -0.5664 -0.2386
 5122TIP3   OH236924   5.436   6.333   1.084 -0.4579  1.1635  0.1723
 5122TIP3    H136925   5.486   6.413   1.066 -0.5514  1.1311 -0.2349
 5122TIP3    H236926   5.499   6.262   1.071 -0.4953  1.1469  0.0799
 5123TIP3   OH236927   2.975   2.120   7.323 -0.1625 -0.1532  0.1779
 5123TIP3    H136928   3.055   2.169   7.305  0.8023 -1.6005  0.3612
 5123TIP3    H236929   2.910   2.155   7.261  0.4473  1.4131  0.4037
 5124TIP3   OH236930   1.605   4.428   1.440 -0.0731  0.4012  0.0924
 5124TIP3    H136931   1.563   4.427   1.526 -1.8208  1.3180 -0.7138
 5124TIP3    H236932   1.551   4.369   1.386 -0.3842  1.6150 -0.9733
 5125TIP3   OH236933   0.582   2.928   6.769 -0.7146  0.2141  0.1299
 5125TIP3    H136934   0.589   2.941   6.864  0.5977  1.1643 -0.0722
 5125TIP3    H236935   0.491   2.901   6.756 -1.0999  0.6837  1.5994
 5126TIP3   OH236936   5.787   6.784   7.600 -0.0475  0.0102  0.3979
 5126TIP3    H136937   5.852   6.852   7.619  0.2790  0.0754 -0.8660
 5126TIP3    H236938   5.756   6.756   7.686  1.9495 -0.3161  1.0616
 5127TIP3   OH236939   3.884   5.585   1.897 -0.3566 -0.7593  0.2298
 5127TIP3    H136940   3.907   5.609   1.987  0.5395  0.4600 -0.2924
 5127TIP3    H236941   3.911   5.493   1.889  2.0011 -0.1596  0.4682
 5128TIP3   OH236942   1.262   3.605   7.697  0.2147  0.2570 -0.3285
 5128TIP3    H136943   1.253   3.592   7.603 -1.9362  0.6851 -0.2252
 5128TIP3    H236944   1.289   3.519   7.730  0.7633  0.0443 -1.2873
 5129TIP3   OH236945   6.679   5.401   8.019  0.2542  0.0207  0.0202
 5129TIP3    H136946   6.587   5.393   8.043  0.4876 -1.7159  0.4636
 5129TIP3    H236947   6.686   5.358   7.934  0.9737 -1.7536  0.9153
 5130TIP3   OH236948   3.205   6.258   1.293  0.0051 -0.7566  0.6680
 5130TIP3    H136949   3.219   6.167   1.321 -1.4540 -0.9670  0.8207
 5130TIP3    H236950   3.270   6.308   1.342  1.1224 -1.7478  0.2645
 5131TIP3   OH236951   3.282   0.975   2.121  0.1784 -0.2257  0.0155
 5131TIP3    H136952   3.313   1.038   2.056  1.5164 -1.3511 -0.4829
 5131TIP3    H236953   3.267   1.027   2.200 -0.0835  0.9211 -0.7715
 5132TIP3   OH236954   4.414   5.427   1.975  0.0692 -0.4393 -0.2780
 5132TIP3    H136955   4.434   5.361   1.910  1.5252  1.0001 -1.3776
 5132TIP3    H236956   4.345   5.481   1.935  0.6445  0.1723 -0.4726
 5133TIP3   OH236957   0.957   4.902   7.145  0.3665 -0.0653 -0.4153
 5133TIP3    H136958   0.977   4.858   7.062  0.2079 -0.8265 -0.0574
 5133TIP3    H236959   0.986   4.992   7.131  1.3616 -0.4467 -0.9210
 5134TIP3   OH236960   2.402   5.894   0.501  0.3765  0.2153 -0.1135
 5134TIP3    H136961   2.310   5.888   0.477  0.7256 -2.9319 -1.1369
 5134TIP3    H236962   2.443   5.939   0.428 -0.4763  3.2714  1.1364
 5135TIP3   OH236963   5.270   6.037   0.652  0.1328 -0.5811  0.2462
 5135TIP3    H136964   5.232   5.974   0.713 -1.8091  0.4428  0.1539
 5135TIP3    H236965   5.197   6.065   0.597  0.9581  1.6197  0.1767
 5136TIP3   OH236966   5.030   3.448   8.545 -0.7112 -0.3592  0.1093
 5136TIP3    H136967   5.088   3.512   8.586 -1.2107  0.1010  0.1115
 5136TIP3    H236968   5.021   3.479   8.454  0.9452 -1.7470 -0.5890
 5137TIP3   OH236969   1.882   6.415   7.037 -0.3798 -0.4177 -0.2557
 5137TIP3    H136970   1.862   6.328   7.003 -1.7579  0.6339 -2.3185
 5137TIP3    H236971   1.964   6.440   6.994 -0.4852 -0.3091 -0.3917
 5138TIP3   OH236972   5.708   1.073   1.489 -0.0205 -0.4154  0.4634
 5138TIP3    H136973   5.701   1.102   1.399  2.4251 -1.4117 -0.1237
 5138TIP3    H236974   5.802   1.079   1.510 -0.2754 -1.8344  2.3412
 5139TIP3   OH236975   4.380   1.985   7.246 -0.3511  0.2844  0.0672
 5139TIP3    H136976   4.452   2.023   7.296  0.1785  1.6594 -1.6571
 5139TIP3    H236977   4.320   1.952   7.313  1.1513  0.4332  1.5701
 5140TIP3   OH236978   5.697   2.521   0.499  0.2048  0.2964  0.2289
 5140TIP3    H136979   5.732   2.432   0.502 -0.6692 -0.1425 -1.4857
 5140TIP3    H236980   5.722   2.559   0.583 -0.9755 -2.1574  1.8143
 5141TIP3   OH236981   5.637   5.187   8.148 -0.4767 -0.4032  0.8805
 5141TIP3    H136982   5.696   5.137   8.204 -0.1184 -0.1262  0.7569
 5141TIP3    H236983   5.633   5.273   8.188  0.3207  0.0022  0.1169
 5142TIP3   OH236984   2.025   3.741   7.140 -0.1305  0.0090  0.0819
 5142TIP3    H136985   2.007   3.831   7.166  1.8836  0.3878  0.2655
 5142TIP3    H236986   1.952   3.691   7.177 -0.1180  1.2558  1.9505
 5143TIP3   OH236987   3.937   2.094   7.014  0.3765  0.1913  0.0195
 5143TIP3    H136988   3.958   2.013   7.060 -0.4731  0.1381  0.3179
 5143TIP3    H236989   4.023   2.133   6.995  0.9414 -1.7198 -1.8619
 5144TIP3   OH236990   5.915   4.526   6.933 -0.2705 -0.0357  0.0482
 5144TIP3    H136991   5.953   4.462   6.993 -0.7035 -0.3884 -0.0505
 5144TIP3    H236992   5.868   4.587   6.991  1.1641  0.9209  0.2483
 5145TIP3   OH236993   6.662   1.968   7.722  0.3041  0.4610  0.1211
 5145TIP3    H136994   6.653   2.048   7.669 -0.7346 -0.0034 -0.4195
 5145TIP3    H236995   6.576   1.956   7.762  0.0518 -1.1050 -0.8335
 5146TIP3   OH236996   2.963   1.853   7.767  0.8357  0.1518  0.1402
 5146TIP3    H136997   2.927   1.894   7.846 -0.6791  1.1335 -1.0103
 5146TIP3    H236998   3.057   1.843   7.786  0.4775  0.1613  2.1267
 5147TIP3   OH236999   5.787   0.529   7.589 -0.3842 -0.6844 -0.2697
 5147TIP3    H137000   5.745   0.604   7.548 -1.6482  0.1393  2.2935
 5147TIP3    H237001   5.879   0.555   7.597 -0.2918 -0.5214 -1.7259
 5148TIP3   OH237002   2.784   0.389   8.191  0.6690  0.2704  0.7160
 5148TIP3    H137003   2.838   0.466   8.174 -0.1852  0.2737 -2.5739
 5148TIP3    H237004   2.764   0.354   8.104 -2.8086 -0.9728  1.8580
 5149TIP3   OH237005   2.547   4.870   7.654  0.4078 -1.1248 -0.6220
 5149TIP3    H137006   2.454   4.867   7.634  0.3299  3.0806 -1.8408
 5149TIP3    H237007   2.553   4.851   7.748 -1.9651  0.5872 -0.0446
 5150TIP3   OH237008   6.452   6.852   1.810 -0.0009  0.6449 -0.5104
 5150TIP3    H137009   6.434   6.874   1.901  0.4958 -0.9571  0.0060
 5150TIP3    H237010   6.386   6.786   1.787  0.4446  0.3668 -1.0204
 5151TIP3   OH237011   4.756   6.355   1.786 -0.0071  0.0359 -0.2539
 5151TIP3    H137012   4.810   6.372   1.708 -0.1977  0.0569 -0.3817
 5151TIP3    H237013   4.714   6.439   1.805  1.2218  0.4632  0.7941
 5152TIP3   OH237014   2.229   5.511   6.985  0.6474 -0.1916 -0.2535
 5152TIP3    H137015   2.207   5.602   6.968  1.4663 -0.2037 -1.5286
 5152TIP3    H237016   2.307   5.515   7.041  1.7832 -0.0451 -1.7697
 5153TIP3   OH237017   4.639   3.720   0.232  0.3307  0.5562  0.3438
 5153TIP3    H137018   4.706   3.681   0.176 -1.0329 -1.2421 -0.1312
 5153TIP3    H237019   4.659   3.689   0.320  0.2724  0.2226  0.2400
 5154TIP3   OH237020   3.098   3.249   8.295 -0.1685 -0.0744  0.0500
 5154TIP3    H137021   3.011   3.232   8.331 -0.7793  0.2038 -1.2241
 5154TIP3    H237022   3.081   3.291   8.210  1.1528 -2.3314 -1.4285
 5155TIP3   OH237023   1.511   5.868   1.880  0.3098 -0.2687 -0.0914
 5155TIP3    H137024   1.556   5.785   1.890 -1.1236 -1.0192  0.4178
 5155TIP3    H237025   1.476   5.866   1.791 -1.3504 -1.0937  0.5403
 5156TIP3   OH237026   4.942   2.847   1.097  0.4858  0.1711 -0.1265
 5156TIP3    H137027   4.894   2.922   1.132  0.4916  0.0372  0.1639
 5156TIP3    H237028   5.033   2.862   1.124  0.4392 -0.0877  0.1756
 5157TIP3   OH237029   5.899   6.775   0.972 -0.1681  0.1785  0.0754
 5157TIP3    H137030   5.843   6.720   0.917  1.3365 -0.9340 -0.4091
 5157TIP3    H237031   5.984   6.731   0.971  1.5122  3.1544 -1.3627
 5158TIP3   OH237032   3.102   0.265   8.610  0.1034 -0.3028  0.3592
 5158TIP3    H137033   3.050   0.186   8.625 -0.7012 -0.0646 -0.9985
 5158TIP3    H237034   3.191   0.233   8.596  0.0452 -0.8495  1.1829
 5159TIP3   OH237035   0.521   3.444   6.830 -0.1972  0.2494 -0.1087
 5159TIP3    H137036   0.579   3.416   6.900  1.3694 -2.4204 -2.2592
 5159TIP3    H237037   0.548   3.534   6.811  0.2143  0.5670  1.8009
 5160TIP3   OH237038   6.071   3.373   7.204  0.6730 -0.0658 -0.0743
 5160TIP3    H137039   6.057   3.307   7.136 -1.6274  0.6642 -0.4189
 5160TIP3    H237040   6.119   3.443   7.160  1.3583 -0.6490 -0.2606
 5161TIP3   OH237041   3.084   2.131   0.061 -0.2351  0.5268  0.3973
 5161TIP3    H137042   2.994   2.147   0.035  0.0524 -0.5629 -1.4601
 5161TIP3    H237043   3.110   2.052   0.012  2.3982  2.0616 -0.9388
 5162TIP3   OH237044   0.032   1.156   2.681  0.7305  0.6645 -0.0658
 5162TIP3    H137045   0.015   1.063   2.668 -3.0787  1.3593 -1.4168
 5162TIP3    H237046   0.086   1.160   2.759 -0.1478 -2.6311  0.8749
 5163TIP3   OH237047   1.905   6.429   7.847 -0.0892  0.9023 -0.3160
 5163TIP3    H137048   1.950   6.513   7.842  0.6443  0.4668 -1.3917
 5163TIP3    H237049   1.825   6.447   7.897  0.3735  2.0894  0.0195
 5164TIP3   OH237050   4.302   1.474   0.208 -0.3716 -0.2976  1.0674
 5164TIP3    H137051   4.375   1.529   0.178  0.0070 -0.1875  2.1702
 5164TIP3    H237052   4.304   1.399   0.149  0.5872 -0.2612  1.0238
 5165TIP3   OH237053   0.890   1.762   0.711  0.0425  0.8199 -0.5060
 5165TIP3    H137054   0.882   1.669   0.687  0.3551  0.5182  0.5114
 5165TIP3    H237055   0.806   1.800   0.688 -0.0352  0.3134 -1.0783
 5166TIP3   OH237056   3.922   3.465   7.561  0.3986 -0.0227 -0.5749
 5166TIP3    H137057   3.920   3.383   7.512  0.9691 -0.4694  0.1215
 5166TIP3    H237058   3.943   3.439   7.651 -0.5032  0.7842 -0.1101
 5167TIP3   OH237059   1.463   1.849   0.445 -0.4605  0.4880  0.5315
 5167TIP3    H137060   1.439   1.764   0.482  1.4815  0.2276  1.3309
 5167TIP3    H237061   1.455   1.838   0.351 -0.6413 -0.4526  0.6480
 5168TIP3   OH237062   4.119   1.726   8.584  0.5978  0.0240  0.0705
 5168TIP3    H137063   4.148   1.761   8.499  1.8772  0.4083  0.6473
 5168TIP3    H237064   4.084   1.639   8.563  0.5776  0.2455 -0.8905
 5169TIP3   OH237065   4.353   0.365   0.466  0.0216 -0.0916  0.2207
 5169TIP3    H137066   4.390   0.354   0.379 -1.5606  1.6350 -0.7437
 5169TIP3    H237067   4.282   0.300   0.471  0.5153 -0.6157  0.4775
 5170TIP3   OH237068   3.452   6.436   2.510 -0.8997 -0.0662  0.1890
 5170TIP3    H137069   3.544   6.439   2.484 -0.7546  1.2468  0.7551
 5170TIP3    H237070   3.450   6.377   2.586  0.0047  2.0426  1.9623
 5171TIP3   OH237071   5.601   5.711   0.095  0.8626  0.1953 -0.3095
 5171TIP3    H137072   5.693   5.719   0.071  1.4137  0.4774  1.7209
 5171TIP3    H237073   5.581   5.618   0.082  1.4963  0.0902 -0.5662
 5172TIP3   OH237074   5.976   1.386   1.329  0.1379 -0.4434 -0.0147
 5172TIP3    H137075   6.004   1.435   1.252  3.8578 -1.3789  0.5485
 5172TIP3    H237076   6.010   1.298   1.316 -1.4269 -1.3660  1.5644
 5173TIP3   OH237077   0.473   3.855   8.649 -0.7945 -0.2386 -0.5138
 5173TIP3    H137078   0.547   3.811   8.692 -3.0023 -0.5937  3.3646
 5173TIP3    H237079   0.443   3.792   8.583  0.8026 -1.1647 -0.4072
 5174TIP3   OH237080   0.011   3.277   0.371 -0.2426 -0.0011 -0.2299
 5174TIP3    H137081  -0.002   3.182   0.372 -2.2810  0.2172 -1.2272
 5174TIP3    H237082   0.096   3.289   0.330 -0.0141 -1.3873 -0.2150
 5175TIP3   OH237083   3.460   0.858   1.260  0.5860  0.1002  0.3721
 5175TIP3    H137084   3.435   0.879   1.350 -2.1199 -0.0832 -0.2511
 5175TIP3    H237085   3.414   0.777   1.240  0.1296  0.7758 -1.5570
 5176TIP3   OH237086   2.605   3.337   0.123 -0.2267  0.0741 -0.1654
 5176TIP3    H137087   2.590   3.410   0.062  0.4724 -0.5887 -1.1515
 5176TIP3    H237088   2.670   3.371   0.184 -0.6075  0.5949 -0.0371
 5177TIP3   OH237089   1.315   6.593   0.406  0.1289 -0.1892  0.0006
 5177TIP3    H137090   1.327   6.674   0.457  2.3308 -0.9843  0.8616
 5177TIP3    H237091   1.225   6.566   0.425  0.0366  0.9452  1.3399
 5178TIP3   OH237092   3.152   4.029   2.417 -0.6554  0.0953  0.1198
 5178TIP3    H137093   3.113   4.070   2.494  0.2552 -0.9422  1.1775
 5178TIP3    H237094   3.135   3.936   2.428 -0.1382 -0.1081 -0.7257
 5179TIP3   OH237095   2.466   4.009   1.968 -0.1443 -0.1751 -0.2780
 5179TIP3    H137096   2.413   4.016   2.047  0.2143  0.0360 -0.0521
 5179TIP3    H237097   2.531   3.941   1.989  0.8850  0.9040  0.1639
 5180TIP3   OH237098   5.148   1.000   1.832  0.1619 -0.0769  0.3053
 5180TIP3    H137099   5.116   0.994   1.922  0.1371  1.3239  0.4021
 5180TIP3    H237100   5.224   1.058   1.838  1.7381 -1.9825 -0.1903
 5181TIP3   OH237101   0.453   2.041   0.374 -0.2679  0.6135 -0.5819
 5181TIP3    H137102   0.516   2.024   0.304 -0.2411  0.3786 -0.5018
 5181TIP3    H237103   0.397   2.111   0.340  0.3447  1.1655 -0.4601
 5182TIP3   OH237104   5.212   1.595   0.780 -0.3620 -0.3561  0.1784
 5182TIP3    H137105   5.162   1.646   0.716  0.0916  0.3959  0.4120
 5182TIP3    H237106   5.287   1.650   0.802  0.5502 -1.4194 -0.1056
 5183TIP3   OH237107   1.911   3.174   1.568 -0.3711 -1.0532  0.0404
 5183TIP3    H137108   1.979   3.153   1.631 -0.0918  0.9201  0.4815
 5183TIP3    H237109   1.949   3.243   1.514 -1.2554 -1.4587 -1.1372
 5184TIP3   OH237110   1.829   4.572   7.133  0.1886 -0.6495 -0.7041
 5184TIP3    H137111   1.783   4.655   7.141  1.9115  0.2637 -0.0017
 5184TIP3    H237112   1.889   4.584   7.059  2.8484 -0.0182  1.4123
 5185TIP3   OH237113   4.193   5.633   2.138 -0.4308 -0.1957  0.5943
 5185TIP3    H137114   4.244   5.646   2.057 -0.2082  1.5012  0.9658
 5185TIP3    H237115   4.103   5.651   2.112 -0.4197 -0.1039  0.6184
 5186TIP3   OH237116   0.259   4.693   7.646 -0.3630  0.0307  0.1407
 5186TIP3    H137117   0.237   4.738   7.564 -1.1199  1.1247  0.8975
 5186TIP3    H237118   0.205   4.615   7.646 -0.8551  0.3634 -0.1169
 5187TIP3   OH237119   3.721   2.696   0.073  0.1032  0.1212  0.1828
 5187TIP3    H137120   3.765   2.777   0.047 -0.6894  0.4486 -0.1593
 5187TIP3    H237121   3.671   2.671  -0.005 -0.8859  0.1394  0.8069
 5188TIP3   OH237122   6.506   0.666   8.029  0.4244 -0.2486 -0.2470
 5188TIP3    H137123   6.569   0.594   8.030 -0.8241 -1.3817  1.3533
 5188TIP3    H237124   6.553   0.738   8.071  0.7398 -1.0282  0.7828
 5189TIP3   OH237125   5.918   0.084   2.328 -0.0532 -0.0108 -0.4127
 5189TIP3    H137126   5.920   0.022   2.401  0.6958 -0.7289 -1.0227
 5189TIP3    H237127   5.918   0.170   2.370  3.0315 -0.3311  0.4773
 5190TIP3   OH237128   6.404   4.116   0.537 -0.0279  0.2909 -0.0994
 5190TIP3    H137129   6.466   4.140   0.607 -0.3484 -0.9279  0.6311
 5190TIP3    H237130   6.454   4.057   0.481 -0.1853  0.1798 -0.1232
 5191TIP3   OH237131   5.520   5.023   7.929  0.2965 -0.1615  0.0233
 5191TIP3    H137132   5.563   5.069   8.001  0.0377  1.2674 -0.6867
 5191TIP3    H237133   5.460   5.088   7.892 -0.8525 -1.4303 -0.3831
 5192TIP3   OH237134   3.605   5.785   8.250  0.3811  0.4113  0.4710
 5192TIP3    H137135   3.550   5.721   8.296  0.1083  0.9326  0.8809
 5192TIP3    H237136   3.694   5.764   8.279  0.9159 -2.5502 -2.6448
 5193TIP3   OH237137   3.535   2.684   0.791 -0.0662 -0.6905  0.0698
 5193TIP3    H137138   3.622   2.660   0.759  0.0193 -1.2202  0.6857
 5193TIP3    H237139   3.545   2.773   0.825  0.1315 -0.5885 -0.2582
 5194TIP3   OH237140   0.885   6.842   0.474 -0.2711  0.5301  0.2977
 5194TIP3    H137141   0.812   6.816   0.417  0.4347  1.8496 -1.2598
 5194TIP3    H237142   0.849   6.835   0.562 -1.2603 -2.0317 -0.2108
 5195TIP3   OH237143   1.541   4.867   2.013  0.3804 -0.2032  0.1673
 5195TIP3    H137144   1.539   4.897   2.104  0.9068  4.5597 -1.1546
 5195TIP3    H237145   1.626   4.824   2.004  0.8179  0.2922  1.6227
 5196TIP3   OH237146   6.022   4.580   0.593  0.5077  0.3892  0.4406
 5196TIP3    H137147   6.027   4.484   0.587  0.4728  0.3789  0.5698
 5196TIP3    H237148   6.083   4.603   0.663  2.3920  0.6623 -1.2124
 5197TIP3   OH237149   3.756   5.442   0.659 -0.0180 -0.0971  0.1654
 5197TIP3    H137150   3.840   5.454   0.704  0.8718  0.4602 -1.5456
 5197TIP3    H237151   3.742   5.347   0.661  0.5876 -0.1862  0.6007
 5198TIP3   OH237152   3.133   3.048   0.864  0.1307  0.1876 -1.0329
 5198TIP3    H137153   3.082   2.980   0.821  0.3033  0.7657 -2.2070
 5198TIP3    H237154   3.224   3.024   0.847  0.2498 -0.2411  0.1036
 5199TIP3   OH237155   2.056   4.327   8.230  0.0517 -0.0711  0.1365
 5199TIP3    H137156   1.973   4.333   8.277  1.0270  0.2298  1.8845
 5199TIP3    H237157   2.081   4.235   8.237  0.3041  0.0163  0.4213
 5200TIP3   OH237158   6.104   0.131   6.936 -0.1807 -0.5360 -0.0273
 5200TIP3    H137159   6.168   0.095   6.875 -0.3950 -0.0680 -0.5348
 5200TIP3    H237160   6.081   0.058   6.994 -2.9599 -2.1871 -2.9325
 5201TIP3   OH237161   2.181   3.107   0.932  0.2583 -0.5559  0.2241
 5201TIP3    H137162   2.210   3.075   1.017  0.4776 -0.8220  0.0493
 5201TIP3    H237163   2.132   3.034   0.894  0.9730 -0.7879 -0.2808
 5202TIP3   OH237164   5.046   5.878   8.243 -0.6394  0.1728  0.1067
 5202TIP3    H137165   5.016   5.793   8.274  0.1787 -0.0366  0.3535
 5202TIP3    H237166   5.134   5.862   8.208 -0.6196  0.8447 -0.1822
 5203TIP3   OH237167   5.865   3.259   1.856 -0.1310  0.1014 -0.6611
 5203TIP3    H137168   5.934   3.279   1.919  0.4729  0.5951 -1.4555
 5203TIP3    H237169   5.799   3.327   1.869  0.0260  0.2431 -0.6003
 5204TIP3   OH237170   1.873   0.014   0.030  0.4985  0.3204  0.0704
 5204TIP3    H137171   1.914  -0.071   0.014 -1.5345 -0.7552  0.2274
 5204TIP3    H237172   1.913   0.045   0.111  3.0517  0.7422 -1.2500
 5205TIP3   OH237173   0.622   2.121   8.326  0.1165 -0.3335  0.2855
 5205TIP3    H137174   0.717   2.108   8.323 -0.1586 -2.5042 -0.3568
 5205TIP3    H237175   0.586   2.050   8.274 -1.9260 -0.0742  1.2563
 5206TIP3   OH237176   2.026   3.106   8.623 -0.0741 -0.8878 -0.2212
 5206TIP3    H137177   2.052   3.042   8.557  1.6622  0.1815 -0.6568
 5206TIP3    H237178   2.011   3.186   8.574 -1.4676 -0.7434  0.4061
 5207TIP3   OH237179   1.507   2.016   1.314  0.0717 -0.8342 -0.3931
 5207TIP3    H137180   1.429   2.064   1.286  1.0406  0.3225 -1.2235
 5207TIP3    H237181   1.539   2.066   1.389  1.8709  0.7356 -2.1101
 5208TIP3   OH237182   3.422   5.584   0.576 -0.1112  0.6030 -0.0373
 5208TIP3    H137183   3.400   5.542   0.493  0.3846 -0.1526  0.2105
 5208TIP3    H237184   3.409   5.516   0.642 -1.2105  1.4019  0.6085
 5209TIP3   OH237185   1.982   4.904   7.968  0.7257 -0.2279  0.2884
 5209TIP3    H137186   2.022   4.949   7.893 -2.0916  0.1774 -1.1260
 5209TIP3    H237187   2.028   4.939   8.044  0.7917  2.7140 -0.9738
 5210TIP3   OH237188   2.431   2.904   7.571  0.0182 -0.3976  0.3488
 5210TIP3    H137189   2.479   2.913   7.488 -1.3994 -0.6690 -0.5311
 5210TIP3    H237190   2.355   2.850   7.549 -0.2493 -0.6896  1.8970
 5211TIP3   OH237191   0.989   3.327   8.021 -0.4783  0.2814 -0.0883
 5211TIP3    H137192   1.080   3.307   8.000 -0.0921  0.8663  0.9565
 5211TIP3    H237193   0.991   3.354   8.113 -1.9911 -1.6979  0.6252
 5212TIP3   OH237194   1.937   5.581   1.854  0.0095 -0.8521  0.2312
 5212TIP3    H137195   1.931   5.489   1.826  0.5630 -1.3084  1.5031
 5212TIP3    H237196   2.020   5.611   1.818 -1.2990 -0.0169 -2.3404
 5213TIP3   OH237197   1.557   1.499   7.409  0.6009 -0.3074  0.2941
 5213TIP3    H137198   1.617   1.558   7.365  2.6497 -1.2834  1.6519
 5213TIP3    H237199   1.525   1.440   7.340 -1.1224  1.9674 -0.9816
 5214TIP3   OH237200   4.945   3.926   1.715 -0.4162  0.0576  0.3149
 5214TIP3    H137201   4.882   3.871   1.762 -0.3494  0.6112  1.0684
 5214TIP3    H237202   4.931   4.014   1.750 -0.0097  0.3894 -0.3414
 5215TIP3   OH237203   0.615   0.151   0.789  0.3195  0.2597  0.2263
 5215TIP3    H137204   0.636   0.240   0.762 -2.8268  1.0384 -0.0337
 5215TIP3    H237205   0.653   0.143   0.877  2.2398  1.1064 -0.4571
 5216TIP3   OH237206   0.243   6.313   8.334 -0.0758  0.5847 -0.5490
 5216TIP3    H137207   0.150   6.326   8.314 -0.2965  0.3660  0.2736
 5216TIP3    H237208   0.256   6.219   8.329  0.9124  0.7858 -3.9398
 5217TIP3   OH237209   0.197   5.439   7.764  0.6095  0.2201  0.7283
 5217TIP3    H137210   0.164   5.369   7.820 -1.2369 -0.0283 -0.6058
 5217TIP3    H237211   0.146   5.516   7.789 -0.9919 -0.1205 -1.2009
 5218TIP3   OH237212   5.823   2.453   6.739  0.0309  0.4023 -0.7818
 5218TIP3    H137213   5.779   2.480   6.820 -1.1199 -1.6916 -0.6218
 5218TIP3    H237214   5.755   2.406   6.690  0.8407  1.1833 -2.7639
 5219TIP3   OH237215   0.350   2.526   0.779  0.3016 -0.0520 -0.9408
 5219TIP3    H137216   0.319   2.548   0.691  0.3047  0.1370 -0.8955
 5219TIP3    H237217   0.316   2.596   0.834 -1.0163 -0.9898 -0.5180
 5220TIP3   OH237218   2.575   2.833   0.887  0.2370 -0.0903 -0.4049
 5220TIP3    H137219   2.545   2.743   0.897 -0.5125  0.1997  0.0280
 5220TIP3    H237220   2.530   2.865   0.809 -0.6200  0.3490  0.2518
 5221TIP3   OH237221   1.632   2.911   2.522 -0.2913  0.0702 -0.0446
 5221TIP3    H137222   1.674   2.869   2.447 -2.0842 -0.3636 -0.8341
 5221TIP3    H237223   1.614   2.840   2.583 -2.6485 -0.2705 -1.0599
 5222TIP3   OH237224   5.581   1.444   0.733  0.4288  0.1835  0.3506
 5222TIP3    H137225   5.519   1.446   0.806  0.5322  0.3699  0.4356
 5222TIP3    H237226   5.555   1.368   0.681 -0.6572  0.9601 -0.2918
 5223TIP3   OH237227   0.560   4.994   8.547 -0.3292 -0.1605  0.2053
 5223TIP3    H137228   0.509   5.064   8.589 -0.8652 -0.4277  0.0086
 5223TIP3    H237229   0.645   5.035   8.528 -0.2554  0.1142  1.0764
 5224TIP3   OH237230   4.417   5.674   7.182 -0.6057 -0.1150 -0.0767
 5224TIP3    H137231   4.465   5.749   7.216 -1.4149 -0.0595  1.0242
 5224TIP3    H237232   4.469   5.598   7.209 -0.8265 -0.0284  0.6326
 5225TIP3   OH237233   6.375   0.099   1.532  0.4101  0.7891 -0.4474
 5225TIP3    H137234   6.287   0.061   1.527  0.4005  0.9449 -1.8504
 5225TIP3    H237235   6.407   0.074   1.619 -0.5456 -0.3347 -0.3932
 5226TIP3   OH237236   3.466   3.276   7.764 -0.3385  0.4821  0.5856
 5226TIP3    H137237   3.487   3.362   7.726 -1.6807  0.3314 -0.6168
 5226TIP3    H237238   3.526   3.267   7.837  0.4688  2.0476  0.1762
 5227TIP3   OH237239   0.946   1.968   1.496  0.2926  0.4525 -0.3781
 5227TIP3    H137240   1.020   1.927   1.450  0.1570  1.6915 -1.7892
 5227TIP3    H237241   0.949   2.059   1.468 -2.3028  0.3521 -1.2189
 5228TIP3   OH237242   4.060   3.747   1.059  0.0173 -0.7606 -0.0654
 5228TIP3    H137243   4.037   3.798   1.137 -1.0833 -0.8281 -0.3243
 5228TIP3    H237244   4.057   3.656   1.088  1.7049 -0.7255  0.3256
 5229TIP3   OH237245   0.604   1.749   2.376  0.6247 -0.0545 -0.9760
 5229TIP3    H137246   0.587   1.675   2.434  0.2355 -0.0867 -1.1297
 5229TIP3    H237247   0.659   1.808   2.428  0.2271 -0.0539 -0.5548
 5230TIP3   OH237248   2.739   4.646   2.439  0.3369  0.3287 -0.1614
 5230TIP3    H137249   2.724   4.582   2.509 -1.2470  0.0981 -0.6782
 5230TIP3    H237250   2.718   4.731   2.480  2.2744  0.5551  0.4731
 5231TIP3   OH237251   5.315   1.155   0.021 -0.3762  0.6621 -0.2699
 5231TIP3    H137252   5.286   1.066   0.037  0.4539  0.6652  1.5713
 5231TIP3    H237253   5.371   1.176   0.096  1.5803  1.8310 -1.9225
 5232TIP3   OH237254   1.320   2.151   3.128  0.1501 -0.3227  0.4202
 5232TIP3    H137255   1.288   2.231   3.087 -1.7958 -1.4790 -0.4659
 5232TIP3    H237256   1.384   2.181   3.193  0.0778  1.8652 -0.4394
 5233TIP3   OH237257   2.290   6.234   1.267 -0.0021 -0.0133  0.0276
 5233TIP3    H137258   2.351   6.207   1.198 -0.9826 -3.0957  0.1888
 5233TIP3    H237259   2.309   6.174   1.340  0.3190  2.4647  2.1426
 5234TIP3   OH237260   2.886   1.755   0.656 -0.3047 -0.7311 -0.5961
 5234TIP3    H137261   2.854   1.687   0.716 -2.1762  0.4395 -0.1828
 5234TIP3    H237262   2.933   1.816   0.713  1.9063 -1.9213 -1.0554
 5235TIP3   OH237263   2.764   6.507   0.668  0.2603  0.2739  0.6105
 5235TIP3    H137264   2.798   6.446   0.733 -1.4691 -0.3137  1.0297
 5235TIP3    H237265   2.781   6.594   0.705  0.9636 -0.0064  0.9578
 5236TIP3   OH237266   1.206   1.849   7.539 -0.0574 -0.3866 -0.8022
 5236TIP3    H137267   1.233   1.879   7.626 -1.2377 -0.3378 -0.4435
 5236TIP3    H237268   1.284   1.860   7.485 -0.0793  2.2088 -0.4117
 5237TIP3   OH237269   2.220   4.105   8.386  0.0807 -0.4512 -0.5546
 5237TIP3    H137270   2.275   4.121   8.310 -0.3273  3.6559 -0.1971
 5237TIP3    H237271   2.275   4.128   8.461 -0.5044 -1.3638  0.1779
 5238TIP3   OH237272   1.240   5.039   6.774  0.0259  0.3666 -0.6459
 5238TIP3    H137273   1.284   5.096   6.837 -1.2591  1.7058 -0.9000
 5238TIP3    H237274   1.153   5.023   6.813  0.4877 -1.8399 -0.3637
 5239TIP3   OH237275   6.608   0.899   2.176 -0.3962 -0.3076 -0.4611
 5239TIP3    H137276   6.696   0.926   2.205 -0.7227  1.6921 -1.1671
 5239TIP3    H237277   6.551   0.970   2.206 -1.6224 -1.1060 -0.8634
 5240TIP3   OH237278   2.644   4.575   8.437  0.2481  0.2469  0.4378
 5240TIP3    H137279   2.596   4.612   8.512 -1.2323  0.7939 -0.7254
 5240TIP3    H237280   2.705   4.645   8.412 -0.0855  0.5245  0.3952
 5241TIP3   OH237281   1.064   3.748   7.177 -0.4760  0.0314 -0.0920
 5241TIP3    H137282   1.078   3.834   7.219  0.2376 -0.4585  0.7050
 5241TIP3    H237283   0.969   3.737   7.178 -0.6128  0.9940 -0.5874
 5242TIP3   OH237284   2.115   3.488   7.406  0.0735 -0.4872 -0.7814
 5242TIP3    H137285   2.077   3.406   7.373  1.0946 -1.4851  0.4126
 5242TIP3    H237286   2.191   3.503   7.350 -0.3654 -0.1099 -1.2802
 5243TIP3   OH237287   1.769   5.915   8.307  0.2646 -0.2783  0.1805
 5243TIP3    H137288   1.855   5.873   8.301  1.0516  1.4048 -1.3123
 5243TIP3    H237289   1.707   5.846   8.285  1.0196 -1.9874  2.9371
 5244TIP3   OH237290   6.590   0.773   1.065  0.8767 -0.2239  0.5135
 5244TIP3    H137291   6.577   0.821   1.147 -0.5341  1.9563 -0.8784
 5244TIP3    H237292   6.630   0.837   1.006 -0.4990 -0.9087 -1.2366
 5245TIP3   OH237293   4.089   5.863   1.935  0.2400  0.3949  0.4021
 5245TIP3    H137294   4.170   5.908   1.958  1.0395 -0.5392 -0.5021
 5245TIP3    H237295   4.021   5.912   1.982  0.8577  3.3918 -1.5243
 5246TIP3   OH237296   3.148   3.112   8.579 -0.3011  0.1349  0.0242
 5246TIP3    H137297   3.240   3.135   8.568  0.3577 -2.7755 -1.6968
 5246TIP3    H237298   3.104   3.156   8.506  0.2518 -0.6803 -0.8314
 5247TIP3   OH237299   5.862   2.263   0.283 -0.1498 -0.0723 -0.3590
 5247TIP3    H137300   5.845   2.186   0.228  0.5611 -1.0957  0.7923
 5247TIP3    H237301   5.866   2.336   0.222 -0.0967 -1.0637 -1.5731
 5248TIP3   OH237302   0.547   1.225   7.867 -0.1117 -0.3210  0.3101
 5248TIP3    H137303   0.614   1.192   7.927  1.0313  1.0012 -0.1840
 5248TIP3    H237304   0.495   1.148   7.843  1.6285 -1.5017  0.2066
 5249TIP3   OH237305   1.081   2.035   2.102  0.3093 -0.6643 -0.2020
 5249TIP3    H137306   1.111   1.977   2.032  0.3798 -0.7753 -0.0816
 5249TIP3    H237307   1.157   2.088   2.124  0.1996 -0.4072 -0.4254
 5250TIP3   OH237308   5.127   3.721   1.091 -0.3602 -0.4509  0.0927
 5250TIP3    H137309   5.186   3.736   1.165  0.7393  0.5017 -0.9268
 5250TIP3    H237310   5.184   3.725   1.014 -1.3413 -2.1533 -0.7814
 5251TIP3   OH237311   0.515   5.694   7.790 -0.6194  0.0940 -0.4038
 5251TIP3    H137312   0.515   5.781   7.828  0.1531 -0.7160  1.6003
 5251TIP3    H237313   0.599   5.687   7.744 -0.2392  0.0836  0.2811
 5252TIP3   OH237314   3.137   6.380   1.832 -0.2136 -0.1344 -0.5540
 5252TIP3    H137315   3.226   6.348   1.817  0.2525  0.6995  0.3159
 5252TIP3    H237316   3.113   6.423   1.750 -1.1343 -3.1678 -2.0224
 5253TIP3   OH237317   6.185   4.121   1.076  0.1867 -0.3780  0.4973
 5253TIP3    H137318   6.236   4.127   0.995  0.8751 -0.9969  0.8674
 5253TIP3    H237319   6.105   4.075   1.051 -0.9873  2.0292 -0.4338
 5254TIP3   OH237320   2.247   3.095   0.565 -0.2361  0.1419 -0.1762
 5254TIP3    H137321   2.219   3.160   0.630 -0.5438  2.5653 -2.5527
 5254TIP3    H237322   2.343   3.102   0.565 -0.2625  0.5201 -0.3482
 5255TIP3   OH237323   0.970   1.647   8.550  0.0956 -0.4753 -0.6505
 5255TIP3    H137324   0.942   1.617   8.636 -0.0076  0.8886 -0.1923
 5255TIP3    H237325   1.062   1.672   8.562  0.3572 -1.1401 -1.1708
 5256TIP3   OH237326   2.113   6.699   0.536 -0.0225  0.2270 -0.0583
 5256TIP3    H137327   2.145   6.788   0.553 -0.3624  0.1471  1.0568
 5256TIP3    H237328   2.029   6.695   0.581  0.0168 -0.6880 -0.0597
 5257TIP3   OH237329   0.174   5.091   2.080  0.3249 -0.3899  0.6581
 5257TIP3    H137330   0.131   5.062   1.999  0.7944  1.6026 -0.3514
 5257TIP3    H237331   0.162   5.186   2.082  2.2812 -0.1102  1.7658
 5258TIP3   OH237332   1.995   3.996   8.615 -0.1748 -0.5984  0.2133
 5258TIP3    H137333   1.985   4.086   8.583  0.9144 -0.7127 -0.5112
 5258TIP3    H237334   2.046   3.952   8.547  1.1305 -1.2035  1.5184
 5259TIP3   OH237335   6.559   4.127   8.402  0.2221  0.0500  0.2435
 5259TIP3    H137336   6.636   4.080   8.372  1.1526 -0.3606  2.9890
 5259TIP3    H237337   6.497   4.122   8.329  1.2358 -3.2243 -0.5287
 5260TIP3   OH237338   6.496   1.208   7.730 -0.3040  0.2117  0.5052
 5260TIP3    H137339   6.536   1.242   7.651  0.4952  2.6476  1.8526
 5260TIP3    H237340   6.410   1.249   7.733 -0.7759 -0.7399  0.3689
 5261TIP3   OH237341   6.755   1.603   1.819 -0.0399  0.1190  0.4595
 5261TIP3    H137342   6.726   1.565   1.902 -0.6381 -0.5582 -0.0449
 5261TIP3    H237343   6.842   1.568   1.805 -0.0728 -0.0330  0.6373
 5262TIP3   OH237344   6.101   2.078   1.088 -0.3620  0.1196 -0.1209
 5262TIP3    H137345   6.113   2.074   0.994 -0.5814  1.8777 -0.2576
 5262TIP3    H237346   6.188   2.060   1.124  0.6587  3.0441 -0.8198
 5263TIP3   OH237347   5.965   2.594   8.456 -0.1543 -0.2807 -0.3049
 5263TIP3    H137348   5.908   2.533   8.408 -1.6637  1.9561 -1.5672
 5263TIP3    H237349   5.907   2.667   8.479  0.9589 -0.3454  3.3643
 5264TIP3   OH237350   0.383   4.675   2.488 -0.4830 -0.4157  0.0620
 5264TIP3    H137351   0.433   4.749   2.455 -0.0972 -0.7268 -0.0658
 5264TIP3    H237352   0.373   4.692   2.582 -2.3991  0.9487 -0.3180
 5265TIP3   OH237353   6.327   6.233   0.803  0.0799 -0.0763 -0.4839
 5265TIP3    H137354   6.419   6.258   0.804 -0.2063  1.0179  0.2377
 5265TIP3    H237355   6.307   6.212   0.895 -0.4961  0.0969 -0.5681
 5266TIP3   OH237356   2.986   3.486   6.791 -0.2748  0.0648 -0.6626
 5266TIP3    H137357   2.927   3.523   6.726 -0.6893  0.7988  0.1140
 5266TIP3    H237358   2.928   3.448   6.858  0.0847  1.4409  0.4807
 5267TIP3   OH237359   4.911   5.216   7.988 -0.0915  0.9171 -0.1211
 5267TIP3    H137360   4.877   5.275   7.922  0.2533 -0.4077 -1.5304
 5267TIP3    H237361   4.847   5.145   7.992 -0.7722  1.5665  1.9183
 5268TIP3   OH237362   2.335   1.354   1.729 -0.0325 -0.3343 -0.3261
 5268TIP3    H137363   2.388   1.279   1.705 -0.9677 -1.0717 -0.1334
 5268TIP3    H237364   2.247   1.333   1.698 -0.0748  1.2354 -1.4329
 5269TIP3   OH237365   6.016   1.736   0.938  0.1085 -0.1665 -0.1527
 5269TIP3    H137366   6.045   1.725   0.848  0.5491 -0.2762 -0.0001
 5269TIP3    H237367   6.056   1.818   0.966 -1.6586  0.9351 -0.6906
 5270TIP3   OH237368   5.298   4.984   0.776  0.2147 -0.2267  0.3219
 5270TIP3    H137369   5.378   4.935   0.760 -0.0390 -0.7683  0.6589
 5270TIP3    H237370   5.314   5.071   0.739  0.8358 -0.4293  0.1136
 5271TIP3   OH237371   5.894   1.987   0.796  0.6347  0.3305 -0.1031
 5271TIP3    H137372   5.943   1.905   0.789 -0.9505 -0.6724 -0.0629
 5271TIP3    H237373   5.909   2.031   0.712 -0.6525 -1.3100 -1.2718
 5272TIP3   OH237374   0.234   3.165   1.326  0.3098  0.5704 -0.6504
 5272TIP3    H137375   0.157   3.113   1.301  0.3431 -0.7386  1.6770
 5272TIP3    H237376   0.294   3.155   1.252 -1.2323  0.5805 -1.9712
 5273TIP3   OH237377   3.638   3.634   2.171  0.6043  0.2860 -0.0507
 5273TIP3    H137378   3.640   3.690   2.093 -1.4436  0.8846  0.2758
 5273TIP3    H237379   3.688   3.683   2.237 -1.3912  1.9651  0.3219
 5274TIP3   OH237380   4.315   1.030   0.307 -0.0993  0.0349  0.2438
 5274TIP3    H137381   4.247   0.965   0.327 -0.3224  0.0405 -0.4784
 5274TIP3    H237382   4.268   1.102   0.265 -0.0059  1.1084  1.8864
 5275TIP3   OH237383   3.376   0.363   1.758  0.2432 -0.3132 -0.4757
 5275TIP3    H137384   3.312   0.338   1.824  0.5640 -1.6708 -0.6388
 5275TIP3    H237385   3.425   0.435   1.797 -1.4625  0.8560 -0.4061
 5276TIP3   OH237386   5.209   1.998   0.665  0.1773 -0.6260  0.4059
 5276TIP3    H137387   5.156   2.009   0.743 -0.0261 -0.5339  0.2531
 5276TIP3    H237388   5.184   2.070   0.607  0.2074 -0.7868  0.1887
 5277TIP3   OH237389   2.741   2.423   6.885  0.1203 -0.5439  0.0486
 5277TIP3    H137390   2.792   2.390   6.810 -1.3715  2.1867 -2.3896
 5277TIP3    H237391   2.666   2.364   6.891 -0.0094 -0.5120 -1.0048
 5278TIP3   OH237392   6.462   3.762   0.947 -0.6932 -0.1704  0.7234
 5278TIP3    H137393   6.516   3.745   1.024  0.3041  1.4657  0.4371
 5278TIP3    H237394   6.374   3.774   0.982 -0.5352 -0.9927  1.4245
 5279TIP3   OH237395   2.286   3.201   8.410 -0.4070  0.1479  0.0491
 5279TIP3    H137396   2.263   3.179   8.319  0.3245  0.3494 -0.1885
 5279TIP3    H237397   2.307   3.117   8.450  1.8397  0.2942 -0.7055
 5280TIP3   OH237398   4.834   1.046   0.338 -0.0329 -0.1320  0.5411
 5280TIP3    H137399   4.898   1.052   0.409  0.5056 -2.3539  0.3126
 5280TIP3    H237400   4.750   1.068   0.378  0.1951 -1.7490  2.0132
 5281TIP3   OH237401   1.015   1.098   1.111 -0.1663 -0.1336 -0.1044
 5281TIP3    H137402   0.973   1.061   1.034 -0.7697  2.0974 -0.9298
 5281TIP3    H237403   0.960   1.071   1.185 -1.0788 -0.1432 -0.7788
 5282TIP3   OH237404   1.238   3.774   0.342  0.5856  0.2846 -0.2036
 5282TIP3    H137405   1.193   3.701   0.384  0.0874  0.8521  0.2813
 5282TIP3    H237406   1.327   3.772   0.377  0.6040 -0.1461 -0.2742
 5283TIP3   OH237407   5.343   5.932   1.330 -0.0868  0.5450  0.4377
 5283TIP3    H137408   5.314   5.855   1.379  2.1871 -0.5532  0.2508
 5283TIP3    H237409   5.305   5.920   1.243  0.8183 -0.8315  0.1897
 5284TIP3   OH237410   2.180   1.014   1.860  0.4701  0.1259  0.1643
 5284TIP3    H137411   2.146   1.038   1.774 -0.3655 -0.9361  0.1671
 5284TIP3    H237412   2.181   1.095   1.910  0.2770  0.6202 -0.6235
 5285TIP3   OH237413   5.932   6.365   1.451  0.4566 -0.4812  0.3316
 5285TIP3    H137414   6.005   6.334   1.396  0.3386 -0.6176  0.2528
 5285TIP3    H237415   5.957   6.455   1.474  1.3297 -0.9928  1.4659
 5286TIP3   OH237416   0.307   0.817   1.928 -0.9656  0.1738 -0.3826
 5286TIP3    H137417   0.269   0.827   2.015  1.7411  0.5502  0.8745
 5286TIP3    H237418   0.286   0.727   1.903 -1.8758  0.0921  0.5923
 5287TIP3   OH237419   6.080   2.631   2.651 -0.4027 -0.4463 -0.0274
 5287TIP3    H137420   6.030   2.593   2.723  0.0426  1.5564  1.4431
 5287TIP3    H237421   6.016   2.643   2.581 -1.2413 -0.9019  0.6430
 5288TIP3   OH237422   0.752   6.353   0.896 -0.1883  0.7234  0.5156
 5288TIP3    H137423   0.718   6.320   0.979 -0.4284  0.9106  0.4901
 5288TIP3    H237424   0.722   6.443   0.891 -0.9652  0.4397 -0.2020
 5289TIP3   OH237425   4.854   2.275   0.658 -0.3656  0.0807  0.0712
 5289TIP3    H137426   4.840   2.348   0.719 -1.2392 -0.2704  0.2949
 5289TIP3    H237427   4.769   2.261   0.617 -0.6634 -1.9004  1.2566
 5290TIP3   OH237428   2.136   2.862   0.580 -0.1676  0.3714 -0.5139
 5290TIP3    H137429   2.220   2.820   0.560 -0.2017  0.3367 -0.5850
 5290TIP3    H237430   2.153   2.955   0.572  0.0539  0.3998  0.1947
 5291TIP3   OH237431   6.009   4.479   1.748  0.2663 -0.2579 -0.0309
 5291TIP3    H137432   5.988   4.410   1.685  0.0159 -0.2611  0.0542
 5291TIP3    H237433   6.051   4.433   1.821 -0.8584 -0.4750  0.5015
 5292TIP3   OH237434   5.236   6.037   0.333 -0.0832  0.2795 -0.5212
 5292TIP3    H137435   5.174   6.101   0.370 -0.6645 -0.0239 -0.9510
 5292TIP3    H237436   5.296   6.090   0.280 -0.3772  0.5106 -0.6305
 5293TIP3   OH237437   1.573   3.863   0.650 -0.7469 -0.2086  0.0437
 5293TIP3    H137438   1.531   3.922   0.713 -0.2498  0.3762 -0.1562
 5293TIP3    H237439   1.595   3.785   0.701 -0.6067  0.1426  0.5288
 5294TIP3   OH237440   0.230   1.350   8.190  0.3036  0.8735 -0.0622
 5294TIP3    H137441   0.185   1.316   8.267  1.3486 -0.5482 -0.0304
 5294TIP3    H237442   0.323   1.336   8.209  0.5615 -0.7587 -2.0938
 5295TIP3   OH237443   6.717   5.865   7.522  0.1621 -0.0293 -0.2221
 5295TIP3    H137444   6.728   5.840   7.430  1.7417  1.8480 -0.6101
 5295TIP3    H237445   6.704   5.960   7.520 -1.1496 -0.1218  1.4355
 5296TIP3   OH237446   0.406   3.000   8.370 -0.3021 -0.4129 -0.1148
 5296TIP3    H137447   0.326   3.042   8.338  0.0691 -1.5956 -2.9194
 5296TIP3    H237448   0.425   2.932   8.305  3.3359  0.2114  0.0867
 5297TIP3   OH237449   4.584   3.750   1.610  0.5217 -0.4980  1.0546
 5297TIP3    H137450   4.561   3.843   1.601 -0.1589 -0.7889 -0.6028
 5297TIP3    H237451   4.677   3.746   1.586  0.0085 -0.5079 -1.1687
 5298TIP3   OH237452   4.939   5.784   2.392 -0.3703 -0.1663 -0.6559
 5298TIP3    H137453   4.861   5.822   2.354 -0.9598 -0.2137  0.4671
 5298TIP3    H237454   4.926   5.790   2.487 -0.0922 -2.3188 -0.4238
 5299TIP3   OH237455   2.290   4.509   7.505 -0.3235 -0.2133 -0.2167
 5299TIP3    H137456   2.264   4.456   7.429 -0.6467 -0.2400 -0.0877
 5299TIP3    H237457   2.263   4.598   7.483  0.8297  0.0227 -0.7243
 5300TIP3   OH237458   0.652   3.589   0.643 -0.0703  0.2052 -0.2145
 5300TIP3    H137459   0.568   3.590   0.596  0.4720 -0.4202 -1.2365
 5300TIP3    H237460   0.672   3.496   0.654  0.3115  0.3515  0.3763
 5301TIP3   OH237461   0.708   0.169   8.543 -0.1273 -0.2667  0.5506
 5301TIP3    H137462   0.768   0.100   8.573 -0.5567 -0.2517  1.4724
 5301TIP3    H237463   0.756   0.214   8.474  0.0028 -1.7655 -0.4073
 5302TIP3   OH237464   5.725   1.167   0.087 -0.1877  0.2121 -0.1775
 5302TIP3    H137465   5.686   1.096   0.037  0.1477 -0.1381  0.0587
 5302TIP3    H237466   5.745   1.129   0.173 -0.1164  0.6183 -0.0115
 5303TIP3   OH237467   6.427   5.883   7.000  0.5199 -0.1128  0.4264
 5303TIP3    H137468   6.492   5.814   6.988  1.2462  0.4991  0.7615
 5303TIP3    H237469   6.353   5.840   7.043 -0.0313 -1.1948 -1.4965
 5304TIP3   OH237470   0.386   3.619   8.495 -0.3176  0.1838 -0.3621
 5304TIP3    H137471   0.319   3.579   8.550  0.7032 -1.8761 -0.4982
 5304TIP3    H237472   0.449   3.549   8.480  0.9940  1.5620 -1.6469
 5305TIP3   OH237473   4.290   5.707   7.445  0.5779 -0.2311 -0.9746
 5305TIP3    H137474   4.278   5.637   7.380 -0.8947 -0.5600 -0.3924
 5305TIP3    H237475   4.226   5.773   7.420 -0.4896 -0.6575  0.5022
 5306TIP3   OH237476   3.831   1.911   0.961 -0.2404  0.0793 -0.4681
 5306TIP3    H137477   3.911   1.872   0.998  0.2613 -0.1306 -1.7263
 5306TIP3    H237478   3.767   1.840   0.963 -0.0449 -0.1025 -0.5058
 5307TIP3   OH237479   4.597   1.639   6.880 -0.1245 -0.3596  0.6101
 5307TIP3    H137480   4.689   1.613   6.893  0.5630  0.6075 -1.7565
 5307TIP3    H237481   4.578   1.696   6.955  0.5988 -1.9844  2.0858
 5308TIP3   OH237482   4.422   1.128   8.507  0.1237 -0.1190  0.1436
 5308TIP3    H137483   4.351   1.168   8.456  0.7677  0.1800 -0.5354
 5308TIP3    H237484   4.444   1.048   8.460 -0.6517 -0.9081  1.0898
 5309TIP3   OH237485   6.480   3.440   7.820 -0.0699 -0.7448 -0.2556
 5309TIP3    H137486   6.482   3.433   7.725 -2.0426 -2.1230 -0.2518
 5309TIP3    H237487   6.397   3.484   7.839  1.7966  2.7841  0.7783
 5310TIP3   OH237488   6.819   2.126   1.703  0.5116 -0.0725  0.5083
 5310TIP3    H137489   6.839   2.110   1.611 -0.3844  1.7096 -0.0298
 5310TIP3    H237490   6.793   2.040   1.736 -0.8518 -0.4500 -1.3564
 5311TIP3   OH237491   4.439   4.152   2.520 -0.1816  0.1952 -0.2581
 5311TIP3    H137492   4.514   4.102   2.552 -0.7525 -0.3516  0.2453
 5311TIP3    H237493   4.420   4.214   2.591 -1.4208 -0.9882  0.4937
 5312TIP3   OH237494   3.960   3.436   0.193 -0.3420 -0.2300 -0.0135
 5312TIP3    H137495   3.930   3.475   0.275  1.4753 -1.6514  1.4161
 5312TIP3    H237496   4.054   3.456   0.190 -0.0885 -1.4630 -1.0030
 5313TIP3   OH237497   1.346   5.301   0.750  0.3101  0.3109  0.2195
 5313TIP3    H137498   1.423   5.272   0.800  0.5539 -1.0642 -0.8810
 5313TIP3    H237499   1.366   5.277   0.659 -0.0486  2.8824 -0.6239
 5314TIP3   OH237500   6.850   3.289   1.606 -0.5189  0.2235  0.2615
 5314TIP3    H137501   6.833   3.231   1.680  0.3287  0.8390  0.9622
 5314TIP3    H237502   6.861   3.376   1.645  1.6556  0.2949 -0.3418
 5315TIP3   OH237503   0.727   2.026   1.324  0.0728 -0.4149 -0.0325
 5315TIP3    H137504   0.791   2.008   1.393 -1.5423 -1.2944  1.3128
 5315TIP3    H237505   0.694   1.939   1.299 -0.2756 -0.0079 -1.0347
 5316TIP3   OH237506   1.256   6.569   2.642  0.1297 -0.0127 -0.1520
 5316TIP3    H137507   1.321   6.544   2.576  0.5515 -0.2455  0.3515
 5316TIP3    H237508   1.213   6.646   2.605  0.7385  0.1864 -0.4542
 5317TIP3   OH237509   4.060   4.461   2.261 -0.3254 -0.0666  0.5528
 5317TIP3    H137510   4.148   4.437   2.291  1.2060  1.7321 -2.1055
 5317TIP3    H237511   4.007   4.382   2.276  1.7654 -1.2840  2.0085
 5318TIP3   OH237512   3.101   3.833   2.806 -0.1265 -0.0273 -0.1697
 5318TIP3    H137513   3.045   3.887   2.750 -0.3634  0.6411  0.6829
 5318TIP3    H237514   3.179   3.887   2.821 -0.1845 -0.0795  0.3575
 5319TIP3   OH237515   0.523   5.472   1.429 -0.2466 -0.3851 -0.3438
 5319TIP3    H137516   0.611   5.454   1.461 -0.6941 -1.7504  0.2111
 5319TIP3    H237517   0.532   5.477   1.334  0.8865  2.4341 -0.1733
 5320TIP3   OH237518   1.628   1.871   8.588 -0.1674 -0.3638 -0.1488
 5320TIP3    H137519   1.578   1.792   8.609  0.9301 -1.9237 -2.8153
 5320TIP3    H237520   1.584   1.909   8.512 -1.6776  2.7160  2.0585
 5321TIP3   OH237521   5.505   0.460   8.210 -0.9375  0.0735  0.3763
 5321TIP3    H137522   5.509   0.375   8.252  0.3758  0.0965  0.3143
 5321TIP3    H237523   5.561   0.516   8.263  0.6484  0.1374 -1.2886
 5322TIP3   OH237524   6.361   6.650   0.846  0.4642  0.0041 -0.1391
 5322TIP3    H137525   6.362   6.743   0.824  0.7471 -0.2639 -1.3585
 5322TIP3    H237526   6.319   6.608   0.771  0.5982 -0.8790  0.2634
 5323TIP3   OH237527   0.888   0.713   1.789 -0.3924 -0.2669 -0.2569
 5323TIP3    H137528   0.879   0.620   1.767 -0.5545 -0.1732 -0.5972
 5323TIP3    H237529   0.982   0.725   1.804 -0.3231 -0.4126 -0.5610
 5324TIP3   OH237530   3.725   2.051   1.168  0.2051 -0.1564 -0.0826
 5324TIP3    H137531   3.698   1.969   1.209  0.8383 -0.5788 -0.4962
 5324TIP3    H237532   3.769   2.024   1.088 -1.0589  0.6640 -1.0846
 5325TIP3   OH237533   4.340   6.353   0.198  0.4679 -0.1328 -0.4238
 5325TIP3    H137534   4.410   6.299   0.235 -1.4090 -1.6150  1.2064
 5325TIP3    H237535   4.346   6.339   0.104  1.6768 -1.0487 -0.2396
 5326TIP3   OH237536   6.585   3.770   1.431  0.1280  0.2117 -0.0310
 5326TIP3    H137537   6.525   3.786   1.503 -0.2434  1.1931 -0.5397
 5326TIP3    H237538   6.660   3.726   1.472 -0.3443  0.1888  0.8344
 5327TIP3   OH237539   2.812   2.671   8.090 -0.6653  0.0839  0.1849
 5327TIP3    H137540   2.859   2.597   8.128 -0.3576  0.0622 -0.2248
 5327TIP3    H237541   2.848   2.679   8.001 -0.9175  0.5277  0.1188
 5328TIP3   OH237542   0.634   2.348   7.579  0.5114  0.3394 -0.3005
 5328TIP3    H137543   0.679   2.422   7.537  0.2475  0.5597 -0.2035
 5328TIP3    H237544   0.647   2.275   7.519  0.9850  0.4057 -0.2764
 5329TIP3   OH237545   2.000   4.108   1.178 -0.2933 -0.1433  0.4614
 5329TIP3    H137546   2.064   4.167   1.137  0.3844  0.4344  2.2774
 5329TIP3    H237547   2.008   4.026   1.128  2.8903 -0.5614  1.4195
 5330TIP3   OH237548   1.118   2.136   7.979 -0.4618  0.1737  0.1529
 5330TIP3    H137549   1.206   2.120   7.945 -1.4775 -1.4487 -1.8946
 5330TIP3    H237550   1.087   2.212   7.930 -1.1441 -0.8859 -1.1210
 5331TIP3   OH237551   6.509   6.148   0.264  0.6683 -0.2083 -0.0542
 5331TIP3    H137552   6.450   6.224   0.262 -0.0905 -0.7942 -1.1308
 5331TIP3    H237553   6.595   6.184   0.245  0.3096  0.3834 -0.6001
 5332TIP3   OH237554   2.583   4.626   6.475 -0.5471 -0.2122  0.3317
 5332TIP3    H137555   2.500   4.673   6.485 -0.5964  0.2653 -1.8445
 5332TIP3    H237556   2.561   4.534   6.495 -0.9156  0.2805  2.5208
 5333TIP3   OH237557   0.699   3.321   0.676  0.2776 -0.1141  0.1808
 5333TIP3    H137558   0.612   3.285   0.660 -0.3459  1.7142 -0.9096
 5333TIP3    H237559   0.754   3.245   0.695 -1.4889 -1.3308  0.6150
 5334TIP3   OH237560   5.659   6.299   8.569  0.0461 -0.0332 -0.0061
 5334TIP3    H137561   5.629   6.369   8.627 -2.3373  0.0598 -1.2207
 5334TIP3    H237562   5.653   6.220   8.622  0.3536  0.3461  0.6115
 5335TIP3   OH237563   6.396   3.743   7.691  0.7780 -0.1708 -0.4159
 5335TIP3    H137564   6.319   3.688   7.702  0.7580  0.0676  0.7327
 5335TIP3    H237565   6.391   3.774   7.600 -1.2859  1.0451  0.0381
 5336TIP3   OH237566   6.346   3.188   2.867 -0.1590 -0.0356  0.4186
 5336TIP3    H137567   6.420   3.195   2.807  0.5209  0.5317  1.3037
 5336TIP3    H237568   6.281   3.249   2.833  0.7996  1.3865  1.0500
 5337TIP3   OH237569   1.810   5.153   7.484 -0.3413  0.6179 -0.4838
 5337TIP3    H137570   1.843   5.171   7.572  1.7925  1.2015 -1.3536
 5337TIP3    H237571   1.730   5.205   7.477 -1.0027 -0.0702  1.3516
 5338TIP3   OH237572   5.792   1.624   0.635 -0.0784 -0.2776 -0.0100
 5338TIP3    H137573   5.729   1.559   0.666 -1.4299  1.3579  0.8272
 5338TIP3    H237574   5.793   1.612   0.540  0.0569 -1.7857  0.1467
 5339TIP3   OH237575   4.291   2.864   0.773 -0.1030  0.6809 -0.3136
 5339TIP3    H137576   4.227   2.865   0.845 -0.8309 -0.5486 -0.9103
 5339TIP3    H237577   4.274   2.782   0.727  1.8630  0.3688 -0.5608
 5340TIP3   OH237578   4.676   2.613   0.321  0.3705 -0.0429 -0.3392
 5340TIP3    H137579   4.726   2.535   0.298  1.1360  0.0370  0.9497
 5340TIP3    H237580   4.596   2.579   0.362 -0.4394 -0.1597 -1.9302
 5341TIP3   OH237581   5.361   0.220   8.306  0.6753  0.1773  0.1943
 5341TIP3    H137582   5.337   0.205   8.214  0.5455  2.1378 -0.1442
 5341TIP3    H237583   5.380   0.133   8.341  2.1120 -0.4897 -2.0640
 5342TIP3   OH237584   5.647   4.104   1.090  0.1212 -0.2983  0.5188
 5342TIP3    H137585   5.643   4.157   1.170 -1.3694  0.1504  0.1785
 5342TIP3    H237586   5.703   4.029   1.113  0.0496  0.0413  1.8461
 5343TIP3   OH237587   2.257   5.966   8.149 -0.4159  0.3330 -0.9281
 5343TIP3    H137588   2.275   6.030   8.219  1.7876  0.7324 -1.8020
 5343TIP3    H237589   2.323   5.898   8.161 -0.0445  0.3717 -2.5643
 5344TIP3   OH237590   0.635   2.444   8.636 -0.0327  0.1914 -0.3862
 5344TIP3    H137591   0.601   2.495   8.710  1.0733 -1.0402  1.0348
 5344TIP3    H237592   0.588   2.361   8.641  1.0877 -0.4474 -0.1415
 5345TIP3   OH237593   3.681   5.289   1.950  0.5855  0.1976  0.0379
 5345TIP3    H137594   3.704   5.270   2.041  1.4748 -0.1356 -0.2465
 5345TIP3    H237595   3.588   5.269   1.944  0.3665  0.8272  1.0279
 5346TIP3   OH237596   6.248   1.172   2.101 -0.0822 -0.4225  0.0148
 5346TIP3    H137597   6.163   1.178   2.145 -0.8406  0.4288 -1.4820
 5346TIP3    H237598   6.246   1.087   2.057 -0.6252  0.0171 -0.8551
 5347TIP3   OH237599   1.681   6.416   1.975  0.0895  0.6689  0.2338
 5347TIP3    H137600   1.687   6.478   1.902 -1.3567 -0.1019 -0.5986
 5347TIP3    H237601   1.650   6.335   1.934  1.0843 -0.3494  1.4359
 5348TIP3   OH237602   2.897   4.675   0.916 -0.3450  0.3505 -0.1243
 5348TIP3    H137603   2.935   4.734   0.851 -0.2024  0.7079  0.2865
 5348TIP3    H237604   2.954   4.597   0.913 -0.4504  0.2904 -0.5618
 5349TIP3   OH237605   5.553   2.702   7.329  0.2770  0.2522  0.1829
 5349TIP3    H137606   5.608   2.698   7.250  1.5962  1.7269  0.9773
 5349TIP3    H237607   5.486   2.636   7.314 -0.6117  1.6967 -2.9768
 5350TIP3   OH237608   2.389   0.126   1.673 -0.2153 -0.1222 -0.5095
 5350TIP3    H137609   2.363   0.158   1.759 -0.8687 -1.8464 -0.0133
 5350TIP3    H237610   2.463   0.181   1.648 -1.3630  1.8292  0.1579
 5351TIP3   OH237611   5.355   1.844   2.225 -0.1772  0.2189  0.3832
 5351TIP3    H137612   5.267   1.875   2.247 -0.7294 -1.7743  1.2441
 5351TIP3    H237613   5.389   1.808   2.307  0.2503 -1.6486 -0.5521
 5352TIP3   OH237614   2.468   6.409   8.185  0.3061  0.0281  0.4089
 5352TIP3    H137615   2.543   6.359   8.153 -1.7179 -2.2637 -1.0850
 5352TIP3    H237616   2.471   6.491   8.137 -0.3122 -1.6756 -2.8056
 5353TIP3   OH237617   0.698   1.030   2.429 -0.4353 -0.0894  0.6854
 5353TIP3    H137618   0.784   1.058   2.396  0.1343  0.2484  2.3530
 5353TIP3    H237619   0.694   0.936   2.408  0.2847 -0.0822  0.4704
 5354TIP3   OH237620   4.533   1.484   0.412 -0.2697 -0.2007  0.1049
 5354TIP3    H137621   4.445   1.452   0.430 -0.9028  1.0163 -0.7335
 5354TIP3    H237622   4.576   1.410   0.369 -0.9465 -0.7216  0.3018
 5355TIP3   OH237623   6.360   3.191   0.704 -0.7602 -0.0972 -0.3728
 5355TIP3    H137624   6.375   3.269   0.756 -0.3737 -0.0279 -0.5871
 5355TIP3    H237625   6.265   3.179   0.705 -0.7046 -0.5447  0.9998
 5356TIP3   OH237626   4.169   4.140   2.830  0.1385 -0.0413  0.1256
 5356TIP3    H137627   4.202   4.051   2.820  0.1767 -0.2449  1.7781
 5356TIP3    H237628   4.073   4.129   2.829  0.1441 -0.1889  0.9627
 5357TIP3   OH237629   3.048   2.851   8.089 -0.2686 -0.2103  0.4464
 5357TIP3    H137630   2.976   2.830   8.150  0.1628  1.1058  1.4471
 5357TIP3    H237631   3.008   2.908   8.023 -0.0685  0.9074  1.2657
 5358TIP3   OH237632   2.363   2.413   1.393 -0.0653 -0.2561 -0.1136
 5358TIP3    H137633   2.314   2.494   1.403  1.7582  1.0210 -0.9158
 5358TIP3    H237634   2.312   2.361   1.331 -1.1568  0.3585  0.2490
 5359TIP3   OH237635   6.746   3.155   7.468 -0.0463  0.0365  0.0702
 5359TIP3    H137636   6.654   3.155   7.495 -0.1761  2.7835 -0.0725
 5359TIP3    H237637   6.796   3.148   7.549 -0.4391  1.8610  0.5143
 5360TIP3   OH237638   0.419   5.352   2.237  0.0558  0.2871 -0.2206
 5360TIP3    H137639   0.499   5.362   2.289 -0.3417  0.5081  0.3563
 5360TIP3    H237640   0.444   5.379   2.148  0.5887  0.4748 -0.0156
 5361TIP3   OH237641   6.270   4.278   1.506  0.4791  0.2742  0.5382
 5361TIP3    H137642   6.336   4.249   1.443 -0.1302  1.4329 -0.6997
 5361TIP3    H237643   6.265   4.208   1.570  0.3407 -1.4842 -1.3088
 5362TIP3   OH237644   4.268   3.011   0.173 -0.2509 -0.3456  0.2840
 5362TIP3    H137645   4.179   2.975   0.174 -0.1230 -0.6833 -0.2900
 5362TIP3    H237646   4.265   3.082   0.237 -1.9488  2.0670 -2.2306
 5363TIP3   OH237647   4.596   4.314   8.024 -0.2588  0.6385  0.2615
 5363TIP3    H137648   4.533   4.264   8.076 -0.5357  0.1484 -0.5269
 5363TIP3    H237649   4.601   4.399   8.067  0.4890 -0.1643  1.8470
 5364TIP3   OH237650   2.439   6.670   8.023  0.1090 -0.3586 -0.2905
 5364TIP3    H137651   2.426   6.764   8.038  1.0011 -0.1825 -0.5969
 5364TIP3    H237652   2.350   6.636   8.010 -0.2396  0.4004  0.0183
 5365TIP3   OH237653   1.671   0.268   8.075 -0.1247  0.2352  0.1879
 5365TIP3    H137654   1.651   0.212   8.150  1.3092 -1.3795 -0.5476
 5365TIP3    H237655   1.712   0.345   8.113 -2.3622  0.9630  1.2478
 5366TIP3   OH237656   0.637   1.782   0.596  0.2806  0.0078  0.5494
 5366TIP3    H137657   0.577   1.850   0.623  0.8282  0.1068  1.5607
 5366TIP3    H237658   0.608   1.703   0.642 -0.1425 -0.3739 -0.3436
 5367TIP3   OH237659   4.498   3.657   8.139  0.3182 -0.2894 -0.1099
 5367TIP3    H137660   4.425   3.669   8.199 -0.0117 -3.8017  0.3949
 5367TIP3    H237661   4.538   3.744   8.131 -1.7258  0.9893  2.4009
 5368TIP3   OH237662   2.635   4.819   3.017  0.3129 -0.2803 -0.3727
 5368TIP3    H137663   2.664   4.736   3.054  1.9291 -0.1424 -1.2096
 5368TIP3    H237664   2.579   4.857   3.085 -0.5612 -2.0732 -0.0341
 5369TIP3   OH237665   1.789   1.334   7.541 -0.0933  0.1512  0.2708
 5369TIP3    H137666   1.774   1.426   7.519 -2.4300 -0.6954 -2.2601
 5369TIP3    H237667   1.874   1.312   7.502  0.4238  1.1882  0.7997
 5370TIP3   OH237668   2.967   5.313   1.579  0.0068 -0.0865  0.7074
 5370TIP3    H137669   3.031   5.282   1.515  0.8861 -0.8736  1.9035
 5370TIP3    H237670   2.882   5.287   1.544  0.3303  0.8042 -0.8249
 5371TIP3   OH237671   4.326   1.259   0.061 -0.0742 -0.5003 -0.0947
 5371TIP3    H137672   4.245   1.210   0.047  0.1805 -0.8055 -0.5448
 5371TIP3    H237673   4.388   1.222  -0.003  0.4559 -0.3617  0.3277
 5372TIP3   OH237674   6.769   6.273   0.258 -0.7431  0.5804  0.2535
 5372TIP3    H137675   6.831   6.279   0.331 -0.0864 -2.3331  0.0481
 5372TIP3    H237676   6.820   6.297   0.181  0.5462 -2.5052 -0.0213
 5373TIP3   OH237677   5.168   2.470   6.960  0.0741  0.1141 -0.6433
 5373TIP3    H137678   5.215   2.387   6.962 -1.4266 -0.9057 -2.8992
 5373TIP3    H237679   5.200   2.515   6.881 -1.8042 -0.1326 -1.6303
 5374TIP3   OH237680   2.830   5.025   8.125  0.0141  0.3806  0.5709
 5374TIP3    H137681   2.861   5.006   8.213 -0.7821  0.4538  0.8815
 5374TIP3    H237682   2.849   5.118   8.112 -3.1424  1.3854  2.1347
 5375TIP3   OH237683   5.518   2.082   7.289 -0.2043  0.6324  0.1497
 5375TIP3    H137684   5.442   2.115   7.337 -0.0390  0.2123  0.7044
 5375TIP3    H237685   5.490   2.081   7.197 -0.3511  1.9335  0.1596
 5376TIP3   OH237686   6.025   5.158   2.845 -0.0341  0.0490  0.2829
 5376TIP3    H137687   6.110   5.200   2.857  0.5202 -1.0824  0.3454
 5376TIP3    H237688   5.972   5.191   2.918 -0.1401  1.8910 -0.5529
 5377TIP3   OH237689   3.321   4.029   2.827 -0.8809 -0.5632 -0.0089
 5377TIP3    H137690   3.317   4.061   2.917 -1.0601 -0.3334 -0.0997
 5377TIP3    H237691   3.393   3.966   2.828 -0.0423  0.3754  0.0004
 5378TIP3   OH237692   4.432   4.708   6.937  0.5201  0.0387 -0.0437
 5378TIP3    H137693   4.457   4.654   6.861  0.0874  1.0033 -0.8879
 5378TIP3    H237694   4.496   4.779   6.938  1.6619 -0.9487  1.6234
 5379TIP3   OH237695   1.704   3.240   0.281  0.2717 -0.0530 -0.0668
 5379TIP3    H137696   1.682   3.329   0.308  0.2744 -0.0019 -0.2345
 5379TIP3    H237697   1.766   3.209   0.348  0.1337  0.0074  0.0882
 5380TIP3   OH237698   5.184   6.740   7.939 -0.4403  0.4609 -0.0632
 5380TIP3    H137699   5.113   6.801   7.962  0.5747  1.6543  0.0470
 5380TIP3    H237700   5.194   6.685   8.017 -0.5897  0.9550  0.3174
 5381TIP3   OH237701   2.276   5.312   8.554  0.1946  0.0663  0.1563
 5381TIP3    H137702   2.341   5.244   8.571  0.1434 -0.2083 -0.6993
 5381TIP3    H237703   2.215   5.307   8.628 -0.2194 -1.2976 -0.2510
 5382TIP3   OH237704   0.767   4.903   1.516  0.2895 -0.3137  0.4201
 5382TIP3    H137705   0.772   4.978   1.575  0.6021 -0.6532  0.8332
 5382TIP3    H237706   0.855   4.865   1.517  0.5590  0.2132 -0.9920
 5383TIP3   OH237707   5.747   5.574   1.109 -0.0116  0.5773  0.2211
 5383TIP3    H137708   5.772   5.551   1.198  1.0644  2.6557  0.5300
 5383TIP3    H237709   5.661   5.615   1.118 -0.3665 -0.1356  0.1424
 5384TIP3   OH237710   6.023   1.156   8.465 -0.1904 -0.3907 -0.6668
 5384TIP3    H137711   6.103   1.144   8.414 -0.2205  0.2394 -0.8678
 5384TIP3    H237712   6.053   1.186   8.550 -0.1801 -0.7858 -0.5282
 5385TIP3   OH237713   6.840   2.316   7.635 -0.5595 -0.6431 -0.3105
 5385TIP3    H137714   6.850   2.411   7.623 -0.1174 -0.8921 -2.1938
 5385TIP3    H237715   6.916   2.290   7.686 -1.4605  0.2055  1.5657
 5386TIP3   OH237716   2.301   0.201   7.805  0.6396  0.4999  0.2770
 5386TIP3    H137717   2.348   0.120   7.785 -1.1043 -0.8019  1.3064
 5386TIP3    H237718   2.245   0.216   7.728 -0.1552 -0.1117  0.7319
 5387TIP3   OH237719   4.767   2.160   8.642 -0.9259 -0.5658  0.0871
 5387TIP3    H137720   4.775   2.151   8.737 -0.2475 -1.1063 -0.0178
 5387TIP3    H237721   4.691   2.218   8.630 -0.3280  0.4344  0.9788
 5388TIP3   OH237722   0.547   0.327   1.692 -0.7758 -0.0540  0.2354
 5388TIP3    H137723   0.467   0.319   1.640  0.1304  1.3096 -1.4805
 5388TIP3    H237724   0.535   0.406   1.743  0.4114  1.6801 -1.9730
 5389TIP3   OH237725   4.622   1.687   1.051  0.5426  0.3921 -0.3629
 5389TIP3    H137726   4.655   1.668   1.139 -0.3814  1.7006  0.3050
 5389TIP3    H237727   4.604   1.602   1.013  0.6323 -0.1943  0.8440
 5390TIP3   OH237728   6.717   4.407   7.507 -0.3390 -0.3074  0.5112
 5390TIP3    H137729   6.718   4.455   7.590 -1.7622  0.2136  0.2550
 5390TIP3    H237730   6.625   4.390   7.490 -0.1091 -0.1324 -1.1228
 5391TIP3   OH237731   5.428   1.347   2.567 -0.0225  0.2710  0.7508
 5391TIP3    H137732   5.385   1.266   2.593  0.5714 -0.4884 -0.5619
 5391TIP3    H237733   5.434   1.398   2.648 -1.8324 -0.2996  1.2960
 5392TIP3   OH237734   1.247   2.677   7.613 -0.2989 -0.4550 -0.0851
 5392TIP3    H137735   1.219   2.622   7.540  2.0638 -1.3522 -0.4141
 5392TIP3    H237736   1.284   2.755   7.571 -0.2204 -0.3347  0.2084
 5393TIP3   OH237737   4.834   1.939   8.533 -0.0347 -0.3543 -0.2588
 5393TIP3    H137738   4.818   2.025   8.571  0.2851 -0.7317  0.7672
 5393TIP3    H237739   4.747   1.904   8.513 -0.2521 -0.3459  0.6130
 5394TIP3   OH237740   4.257   6.158   8.625  0.6023  0.9111  0.0871
 5394TIP3    H137741   4.233   6.092   8.560  0.9081 -0.7557  1.5995
 5394TIP3    H237742   4.347   6.183   8.602 -0.1285  2.2137 -1.5755
 5395TIP3   OH237743   1.328   5.770   8.503 -0.7362  0.2578 -0.1720
 5395TIP3    H137744   1.392   5.836   8.477  0.1456 -0.1799  0.8318
 5395TIP3    H237745   1.285   5.806   8.580 -0.2585 -0.3101  0.3753
 5396TIP3   OH237746   3.372   0.449   2.807  0.7548  0.1384  0.0470
 5396TIP3    H137747   3.445   0.481   2.860  0.4689  0.0387  0.4997
 5396TIP3    H237748   3.305   0.517   2.815  0.6358  0.0295 -0.0253
 5397TIP3   OH237749   2.284   1.726   2.967 -0.0202  0.0514 -0.2317
 5397TIP3    H137750   2.335   1.740   2.887 -0.1690 -1.8472 -0.7020
 5397TIP3    H237751   2.200   1.769   2.951 -0.6317 -1.6127 -1.7685
 5398TIP3   OH237752   2.888   3.170   2.218  0.0050 -0.0300  0.0597
 5398TIP3    H137753   2.871   3.147   2.309  1.5745 -1.2525  0.1066
 5398TIP3    H237754   2.948   3.244   2.223  0.5610 -0.4700  0.0556
 5399TIP3   OH237755   2.475   1.600   6.941 -0.7691 -0.2436  0.1166
 5399TIP3    H137756   2.406   1.625   6.880 -1.7609 -5.4288 -1.4135
 5399TIP3    H237757   2.428   1.573   7.020 -0.2422 -1.0438  0.1647
 5400TIP3   OH237758   0.676   0.884   7.167  0.1824  0.0686 -0.2070
 5400TIP3    H137759   0.618   0.882   7.090 -0.5571 -0.8541  0.3575
 5400TIP3    H237760   0.752   0.832   7.141 -0.7642 -1.5907  0.1924
 5401TIP3   OH237761   6.045   1.334   8.197  0.0569 -0.4951 -0.0960
 5401TIP3    H137762   6.026   1.260   8.139 -1.2493 -0.4888  0.2958
 5401TIP3    H237763   6.133   1.316   8.230 -0.1803 -1.8041 -0.1107
 5402TIP3   OH237764   4.236   3.150   0.758  0.4471 -0.0057  0.0500
 5402TIP3    H137765   4.258   3.057   0.761  3.6256  0.6001 -0.8723
 5402TIP3    H237766   4.298   3.191   0.818 -0.9818  1.5590  0.5340
 5403TIP3   OH237767   0.891   5.135   1.002  0.4045  0.3099  0.5236
 5403TIP3    H137768   0.929   5.056   1.041  0.7004 -0.4927 -1.2766
 5403TIP3    H237769   0.904   5.123   0.908 -1.8012  1.3225  0.0319
 5404TIP3   OH237770   0.665   5.765   0.225  0.3761  0.3175 -0.6241
 5404TIP3    H137771   0.668   5.728   0.313  1.1075  0.3439 -0.6273
 5404TIP3    H237772   0.690   5.857   0.236  0.7637  0.2488 -0.8867
 5405TIP3   OH237773   3.621   1.645   8.120  0.3582  0.1200  0.4661
 5405TIP3    H137774   3.548   1.699   8.088  1.0754  1.0346  0.3589
 5405TIP3    H237775   3.671   1.703   8.177  1.5183 -0.2239 -0.1850
 5406TIP3   OH237776   6.658   2.272   7.843 -0.5349  0.2848  0.3433
 5406TIP3    H137777   6.671   2.180   7.867 -1.2964 -0.0507 -0.4713
 5406TIP3    H237778   6.718   2.286   7.770 -0.5541  0.3861  0.3475
 5407TIP3   OH237779   2.539   5.285   1.464 -0.2991  0.0451 -0.5242
 5407TIP3    H137780   2.561   5.236   1.385 -0.9085 -1.3742  0.1341
 5407TIP3    H237781   2.577   5.233   1.535  2.1315  2.4146  0.0455
 5408TIP3   OH237782   3.291   4.348   8.010  0.2897  0.1954  0.7846
 5408TIP3    H137783   3.274   4.422   8.068 -0.6042  1.1515 -0.6497
 5408TIP3    H237784   3.297   4.386   7.923  0.4762 -1.3535  0.0860
 5409TIP3   OH237785   5.877   5.213   7.476  0.4104  0.3124  0.1958
 5409TIP3    H137786   5.916   5.301   7.473 -1.9593  1.4331 -0.7921
 5409TIP3    H237787   5.842   5.200   7.388 -1.9704 -0.2656  1.1532
 5410TIP3   OH237788   3.142   1.943   8.525 -0.3075 -0.7179  0.0881
 5410TIP3    H137789   3.079   1.873   8.513 -1.7921  0.6128 -0.2563
 5410TIP3    H237790   3.124   2.005   8.454 -0.5024  1.0074  1.5415
 5411TIP3   OH237791   5.968   5.283   1.622  0.1511 -0.2667  0.4395
 5411TIP3    H137792   5.930   5.363   1.586  4.0757  2.5119  1.8296
 5411TIP3    H237793   5.926   5.274   1.708 -2.3273 -1.5209 -0.7692
 5412TIP3   OH237794   5.038   0.632   0.026 -0.5719  0.6064 -0.2191
 5412TIP3    H137795   5.057   0.610  -0.065 -2.1858 -0.4887 -0.3354
 5412TIP3    H237796   5.045   0.549   0.073  1.1368  1.3176  0.8568
 5413TIP3   OH237797   1.427   6.173   8.139 -0.0570 -0.0857  0.0929
 5413TIP3    H137798   1.443   6.201   8.229 -0.5566 -2.9218  1.1681
 5413TIP3    H237799   1.513   6.151   8.105  0.1948  1.4435 -0.3670
 5414TIP3   OH237800   3.303   2.305   2.054 -0.2800 -0.2605  0.4787
 5414TIP3    H137801   3.245   2.251   2.108  1.5748 -1.3923  1.4008
 5414TIP3    H237802   3.338   2.245   1.989  0.1881  0.3202  0.1843
 5415TIP3   OH237803   5.947   3.269   2.114  0.2940 -0.4794 -0.5912
 5415TIP3    H137804   6.013   3.331   2.082  0.4005 -0.0558  0.4072
 5415TIP3    H237805   5.892   3.321   2.173  0.1191 -1.2369 -0.0745
 5416TIP3   OH237806   3.179   4.026   0.702 -0.0960 -0.5795 -0.0885
 5416TIP3    H137807   3.222   4.104   0.736 -1.0433 -0.2258  0.3379
 5416TIP3    H237808   3.217   4.013   0.616  0.7919 -0.2326  0.2435
 5417TIP3   OH237809   1.571   1.376   0.560  0.2443  0.4209  0.4177
 5417TIP3    H137810   1.572   1.443   0.491  0.0641 -0.0264 -0.0311
 5417TIP3    H237811   1.623   1.304   0.523 -2.3483 -1.0898 -0.5762
 5418TIP3   OH237812   5.959   4.716   0.356 -0.8310  0.4299  0.2009
 5418TIP3    H137813   5.999   4.802   0.372 -1.2544  0.5542  0.6033
 5418TIP3    H237814   5.986   4.663   0.431 -2.0203  0.7305  0.8611
 5419TIP3   OH237815   4.177   2.296   1.277  0.4027  0.1247 -0.2585
 5419TIP3    H137816   4.248   2.343   1.233  1.1173 -1.6867 -1.1562
 5419TIP3    H237817   4.112   2.280   1.209 -0.1735  0.4521  0.2093
 5420TIP3   OH237818   2.079   2.651   2.069  0.3809 -0.3487  0.2198
 5420TIP3    H137819   1.983   2.653   2.073  0.3120 -2.4390  3.6435
 5420TIP3    H237820   2.106   2.729   2.117  0.2721 -1.1832  1.7030
 5421TIP3   OH237821   0.787   0.707   1.523  0.2091  0.0700 -0.4248
 5421TIP3    H137822   0.789   0.701   1.619  0.1047  1.3716 -0.3178
 5421TIP3    H237823   0.716   0.769   1.505 -0.4475 -0.9423 -1.4002
 5422TIP3   OH237824   6.414   5.292   8.066 -0.1841 -0.0273  0.1677
 5422TIP3    H137825   6.363   5.330   8.138 -0.2265  0.5496 -0.1581
 5422TIP3    H237826   6.358   5.222   8.032  0.2066 -0.9081  1.2484
 5423TIP3   OH237827   4.948   4.848   0.408  0.2889 -0.6060  0.1249
 5423TIP3    H137828   5.031   4.805   0.428  1.4477  1.3242 -0.2562
 5423TIP3    H237829   4.935   4.831   0.314 -0.5001 -2.0691  0.4704
 5424TIP3   OH237830   6.661   3.936   2.395 -0.2409 -0.3295  0.4257
 5424TIP3    H137831   6.592   3.958   2.457 -2.6711 -2.0976 -1.4713
 5424TIP3    H237832   6.698   3.854   2.427  0.4620  0.1996  1.0011
 5425TIP3   OH237833   2.588   6.188   1.213 -0.0870 -0.7731  1.0861
 5425TIP3    H137834   2.616   6.228   1.296 -0.5275 -1.1079  1.4022
 5425TIP3    H237835   2.621   6.099   1.217  3.2169  0.2081 -0.7669
 5426TIP3   OH237836   6.630   4.205   0.710  0.3291  0.3624  0.1095
 5426TIP3    H137837   6.619   4.238   0.799  0.9161 -1.2412  0.8151
 5426TIP3    H237838   6.724   4.214   0.693  0.0308  1.9872 -0.9357
 5427TIP3   OH237839   0.521   4.048   8.171  0.5739 -0.3843  0.0681
 5427TIP3    H137840   0.542   4.065   8.080  1.7131 -1.1385  0.1689
 5427TIP3    H237841   0.600   4.072   8.219 -0.3028  0.8334  0.9668
 5428TIP3   OH237842   5.445   0.315   2.639 -0.0228  0.3534  0.6334
 5428TIP3    H137843   5.496   0.234   2.630 -0.4604  0.2882 -2.3244
 5428TIP3    H237844   5.511   0.384   2.648  0.6550  0.1248 -1.8008
 5429TIP3   OH237845   5.668   5.088   1.885 -0.2230 -0.1278  0.1235
 5429TIP3    H137846   5.727   5.103   1.959  0.1228  2.0118 -0.5029
 5429TIP3    H237847   5.582   5.113   1.917 -0.4766 -1.3790  0.4543
 5430TIP3   OH237848   6.567   3.057   2.559  0.0845 -0.2602  0.3052
 5430TIP3    H137849   6.649   3.041   2.605 -0.0049 -1.3484  0.1275
 5430TIP3    H237850   6.528   3.132   2.603  0.3489 -0.8106  1.5192
 5431TIP3   OH237851   0.392   0.495   8.180  0.1999 -0.7815 -1.0990
 5431TIP3    H137852   0.402   0.493   8.085  0.2628 -1.1247 -1.0853
 5431TIP3    H237853   0.298   0.500   8.195  0.2203 -0.0623 -1.1895
 5432TIP3   OH237854   1.931   6.254   1.639 -0.0039 -0.0650  0.2543
 5432TIP3    H137855   1.849   6.230   1.595 -0.1779 -0.5849  0.8405
 5432TIP3    H237856   1.923   6.348   1.656 -0.8628 -0.2771  1.0810
 5433TIP3   OH237857   0.023   2.112   1.442 -0.5908  0.1252  0.4978
 5433TIP3    H137858   0.037   2.018   1.451  1.6256  0.1020 -1.9828
 5433TIP3    H237859   0.108   2.147   1.414 -1.7373  2.6208 -0.2085
 5434TIP3   OH237860   4.063   5.601   2.385 -0.6017  0.2445  0.2871
 5434TIP3    H137861   3.985   5.656   2.382  0.5533  1.9170 -0.7319
 5434TIP3    H237862   4.110   5.621   2.304  0.3016 -1.6654  0.2656
 5435TIP3   OH237863   5.028   4.438   6.867 -0.3798 -0.0678 -0.0538
 5435TIP3    H137864   5.044   4.355   6.821  0.8250  0.6225 -0.9296
 5435TIP3    H237865   5.082   4.502   6.820  0.7334  0.7301  2.2016
 5436TIP3   OH237866   4.639   0.664   0.250  0.0422  0.2232 -0.2712
 5436TIP3    H137867   4.665   0.616   0.172 -0.1652  0.7920 -0.7028
 5436TIP3    H237868   4.683   0.620   0.322  0.1754 -0.3565 -0.7035
 5437TIP3   OH237869   1.036   6.574   0.464 -0.4203  0.3772  0.0444
 5437TIP3    H137870   0.995   6.642   0.517 -0.3147  2.2499 -2.1040
 5437TIP3    H237871   0.965   6.541   0.409 -0.0090  0.3886 -0.5020
 5438TIP3   OH237872   1.176   4.419   8.076 -0.0851  0.6532 -0.2477
 5438TIP3    H137873   1.222   4.496   8.044  2.7370  0.2685  2.3989
 5438TIP3    H237874   1.225   4.345   8.040 -1.6675  0.0491 -1.2872
 5439TIP3   OH237875   1.327   0.336   6.863  0.4461  0.2792  1.0938
 5439TIP3    H137876   1.261   0.406   6.865 -0.1637 -0.2284 -0.1940
 5439TIP3    H237877   1.322   0.296   6.950 -0.7223  0.4747  1.1344
 5440TIP3   OH237878   4.121   0.838   8.663 -0.2278  0.4022 -0.2800
 5440TIP3    H137879   4.077   0.777   8.722 -0.4544  1.1219  0.3018
 5440TIP3    H237880   4.214   0.813   8.669 -0.1605  0.8604  0.8705
 5441TIP3   OH237881   4.759   1.291   2.083 -0.1767  0.0386 -0.4909
 5441TIP3    H137882   4.728   1.379   2.103  2.1933  0.6862  0.7428
 5441TIP3    H237883   4.779   1.252   2.168 -0.9237 -1.6096 -1.0359
 5442TIP3   OH237884   5.212   6.595   2.941 -0.2404  0.1437  0.2382
 5442TIP3    H137885   5.120   6.617   2.951 -0.0886  0.9915 -0.1620
 5442TIP3    H237886   5.255   6.678   2.919  0.7190 -0.1038  1.0474
 5443TIP3   OH237887   6.287   1.531   8.305 -0.3622  0.1277 -0.0514
 5443TIP3    H137888   6.215   1.567   8.357  1.3014  2.8238  0.5916
 5443TIP3    H237889   6.313   1.451   8.352 -1.9706 -0.1185  0.4847
 5444TIP3   OH237890   4.027   6.683   1.081 -0.3532  0.1852 -0.2919
 5444TIP3    H137891   4.032   6.595   1.044  0.5452  1.1729 -2.7572
 5444TIP3    H237892   4.106   6.691   1.135 -1.0920 -0.9032  1.0018
 5445TIP3   OH237893   6.394   6.045   2.027  0.8905  0.1299 -0.4752
 5445TIP3    H137894   6.346   5.981   1.975 -0.8928  0.3096  0.8544
 5445TIP3    H237895   6.383   6.016   2.118  3.2073  0.2849 -0.0711
 5446TIP3   OH237896   4.742   1.443   7.736 -0.0446 -0.5386  0.0292
 5446TIP3    H137897   4.660   1.427   7.689  0.2757  0.5114 -0.9100
 5446TIP3    H237898   4.809   1.400   7.683  0.4128  1.2323 -0.9003
 5447TIP3   OH237899   5.302   5.829   1.724  0.3998 -0.4035  0.0137
 5447TIP3    H137900   5.322   5.776   1.647 -0.8893  0.1225 -0.7049
 5447TIP3    H237901   5.212   5.805   1.747 -0.3924  1.7368 -0.5936
 5448TIP3   OH237902   0.141   2.285   0.496  0.4025  0.6084 -0.4526
 5448TIP3    H137903   0.142   2.193   0.524  0.5929  0.5779 -0.5628
 5448TIP3    H237904   0.048   2.307   0.491  0.3656  0.7703  0.7299
 5449TIP3   OH237905   4.279   5.625   1.839 -0.0315 -0.0246 -0.4189
 5449TIP3    H137906   4.273   5.712   1.799 -2.4391  0.4092  0.7326
 5449TIP3    H237907   4.206   5.576   1.801 -1.2658 -0.1807  1.9558
 5450TIP3   OH237908   0.934   2.582   7.686 -0.3294 -0.0212  0.2835
 5450TIP3    H137909   0.996   2.650   7.714 -0.9183  0.5965  0.1376
 5450TIP3    H237910   0.944   2.578   7.591 -0.6743  0.2472  0.2343
 5451TIP3   OH237911   5.784   1.138   1.985 -0.1684  0.5835 -0.2120
 5451TIP3    H137912   5.862   1.146   2.039 -1.2413  0.4232  1.4382
 5451TIP3    H237913   5.728   1.211   2.012 -1.4798 -0.5425  0.2518
 5452TIP3   OH237914   5.883   0.817   7.790  0.1842 -0.3322  0.3833
 5452TIP3    H137915   5.817   0.783   7.850  1.4878 -2.3382  0.7649
 5452TIP3    H237916   5.837   0.827   7.707 -0.3504 -2.9755  0.2817
 5453TIP3   OH237917   3.229   3.665   7.059 -0.0453  0.1063 -0.5658
 5453TIP3    H137918   3.159   3.728   7.073 -0.8381 -0.2140 -2.7015
 5453TIP3    H237919   3.189   3.580   7.078  1.0996  0.1363  2.5932
 5454TIP3   OH237920   1.383   4.889   1.777 -0.0306  1.0014  0.3013
 5454TIP3    H137921   1.417   4.965   1.730 -1.0102  0.3704 -1.5594
 5454TIP3    H237922   1.438   4.881   1.854  1.5543  2.2374 -0.6497
 5455TIP3   OH237923   2.080   0.808   7.369  0.4193 -0.1496  0.1971
 5455TIP3    H137924   2.003   0.762   7.335  0.2304  0.2909  0.0222
 5455TIP3    H237925   2.151   0.782   7.311 -0.2225  1.8806 -1.5876
 5456TIP3   OH237926   0.659   4.655   0.646  0.7815 -0.6511 -0.3022
 5456TIP3    H137927   0.586   4.602   0.615 -0.4735  0.1164  1.1959
 5456TIP3    H237928   0.726   4.644   0.579 -0.2061 -2.4182 -1.0832
 5457TIP3   OH237929   5.235   5.672   0.259  0.4544 -0.4298 -0.0083
 5457TIP3    H137930   5.289   5.638   0.188  0.5908  1.0826 -0.6729
 5457TIP3    H237931   5.297   5.697   0.327  0.6476  1.3337 -0.7830
 5458TIP3   OH237932   4.986   3.349   7.635  0.3434 -0.9306  0.0815
 5458TIP3    H137933   5.056   3.314   7.691  1.2402 -1.4641 -1.3178
 5458TIP3    H237934   5.018   3.435   7.609 -1.7809  1.0594  3.3738
 5459TIP3   OH237935   0.925   4.288   0.652  0.1159 -0.0920  0.3465
 5459TIP3    H137936   0.918   4.344   0.574  0.3690 -1.0957 -0.4233
 5459TIP3    H237937   1.008   4.314   0.692  0.8123 -0.6881 -0.6551
 5460TIP3   OH237938   1.112   1.689   2.129  0.3022 -0.1026 -0.0979
 5460TIP3    H137939   1.120   1.601   2.092  0.0551 -0.4534  0.6778
 5460TIP3    H237940   1.160   1.685   2.211 -0.0053  0.3906  0.1093
 5461TIP3   OH237941   2.840   1.775   0.181 -0.1236  0.2509  0.3298
 5461TIP3    H137942   2.818   1.721   0.257 -3.7230  0.8260 -0.0902
 5461TIP3    H237943   2.824   1.718   0.106 -0.0377  0.7049 -0.0375
 5462TIP3   OH237944   4.292   0.575   7.606 -0.1699 -0.3904  0.8361
 5462TIP3    H137945   4.270   0.486   7.633 -0.1773 -0.2825  1.1969
 5462TIP3    H237946   4.379   0.568   7.567 -0.8739 -0.8386 -0.6979
 5463TIP3   OH237947   3.642   5.860   0.331  0.4688 -0.6047 -0.0176
 5463TIP3    H137948   3.692   5.894   0.257  1.0968  0.5924  0.9129
 5463TIP3    H237949   3.708   5.816   0.386  0.1339 -0.8825  0.1663
 5464TIP3   OH237950   3.148   4.169   8.549  0.2297  0.3809  0.6867
 5464TIP3    H137951   3.092   4.247   8.543 -1.1347 -0.5966  0.2568
 5464TIP3    H237952   3.233   4.198   8.516 -0.7206  1.2695 -1.1130
 5465TIP3   OH237953   1.409   0.613   2.434  0.2955  0.0291  0.5264
 5465TIP3    H137954   1.479   0.610   2.370 -1.0817 -0.0979 -1.0534
 5465TIP3    H237955   1.400   0.522   2.464  1.4672  0.2224  1.5491
 5466TIP3   OH237956   5.014   2.050   1.480 -0.1900  0.3091 -1.0791
 5466TIP3    H137957   5.053   2.095   1.555  1.1305 -0.2414 -1.3990
 5466TIP3    H237958   5.060   1.966   1.477  0.1294  0.5057 -2.7694
 5467TIP3   OH237959   0.951   3.689   1.770 -0.1415  0.0320  0.0805
 5467TIP3    H137960   0.996   3.773   1.779  0.6109 -0.4516  0.9181
 5467TIP3    H237961   0.926   3.666   1.860 -0.3839 -0.6213 -0.1532
 5468TIP3   OH237962   2.675   1.076   8.530 -0.2880  0.3870 -0.3202
 5468TIP3    H137963   2.647   1.167   8.535 -2.0512 -0.1837  2.0194
 5468TIP3    H237964   2.698   1.053   8.621  2.0121 -0.9772 -1.1510
 5469TIP3   OH237965   4.663   2.194   1.870  0.2282  0.4247  0.0007
 5469TIP3    H137966   4.588   2.230   1.918  0.6865  1.3515  0.0336
 5469TIP3    H237967   4.651   2.099   1.876 -1.4594  0.5362 -0.7740
 5470TIP3   OH237968   5.463   0.481   1.953  0.3374  0.1947  0.2526
 5470TIP3    H137969   5.469   0.536   1.875  1.4637  3.0389  2.1617
 5470TIP3    H237970   5.547   0.435   1.958  0.1066 -0.3086 -0.3738
 5471TIP3   OH237971   6.391   3.609   8.593 -0.1259  0.1046  1.2964
 5471TIP3    H137972   6.456   3.661   8.545 -2.2228  1.4497 -0.2639
 5471TIP3    H237973   6.437   3.582   8.673  2.0858  1.6110  0.6502
 5472TIP3   OH237974   6.133   6.667   8.632  0.1862 -0.5073  0.2361
 5472TIP3    H137975   6.094   6.633   8.713  0.4340  0.6803  0.8784
 5472TIP3    H237976   6.064   6.656   8.566  0.3875 -2.5452  0.3170
 5473TIP3   OH237977   0.759   6.788   7.613  0.1897  0.0577  0.1681
 5473TIP3    H137978   0.673   6.787   7.571  0.2551 -0.0134  0.0346
 5473TIP3    H237979   0.762   6.872   7.659  0.8929  1.0574 -1.5881
 5474TIP3   OH237980   1.138   6.782   2.515  0.4252  0.0766  0.0942
 5474TIP3    H137981   1.113   6.801   2.425 -0.4890  1.4807  0.6129
 5474TIP3    H237982   1.204   6.849   2.536  0.9790 -0.5298  0.3374
 5475TIP3   OH237983   1.049   4.951   1.889  0.5961 -0.2118 -0.2700
 5475TIP3    H137984   1.084   4.863   1.873  3.6850  0.9557 -0.6010
 5475TIP3    H237985   1.112   4.990   1.950 -0.3617  1.9875 -0.6347
 5476TIP3   OH237986   4.981   0.472   2.101  0.0630  0.8996  0.1729
 5476TIP3    H137987   5.044   0.449   2.033 -0.2084 -1.4323  0.6219
 5476TIP3    H237988   5.029   0.465   2.183 -0.1913  1.4446  0.3758
 5477TIP3   OH237989   3.024   6.011   7.801 -0.1266  0.1365  0.6538
 5477TIP3    H137990   2.948   5.983   7.751 -0.4675 -1.2393  1.8630
 5477TIP3    H237991   3.080   5.934   7.806  0.2375  0.4402  1.7539
 5478TIP3   OH237992   6.215   4.763   7.570 -0.5287 -0.2744 -0.5720
 5478TIP3    H137993   6.133   4.783   7.526 -0.1707 -0.3847 -1.3085
 5478TIP3    H237994   6.244   4.681   7.530  0.1992  0.0302 -0.6933
 5479TIP3   OH237995   0.040   3.136   6.266  0.0942  0.2004 -0.2790
 5479TIP3    H137996  -0.047   3.097   6.264  0.7990 -1.4594 -2.1827
 5479TIP3    H237997   0.060   3.145   6.360 -0.8201 -2.5509  0.2872
 5480TIP3   OH237998   2.547   4.662   0.669 -0.0172 -0.0736  0.0142
 5480TIP3    H137999   2.594   4.599   0.724  0.2001  1.1831  1.3389
 5480TIP3    H238000   2.573   4.748   0.704 -2.3403  0.6976  0.0233
 5481TIP3   OH238001   2.539   5.652   1.677  0.5834 -0.6537 -0.1801
 5481TIP3    H138002   2.518   5.672   1.768  0.4413  0.4490 -0.4486
 5481TIP3    H238003   2.635   5.652   1.673  0.6183  1.7417 -0.5249
 5482TIP3   OH238004   6.357   6.594   8.313 -0.6948 -0.2548 -0.5474
 5482TIP3    H138005   6.400   6.549   8.241 -0.7320 -0.7322 -0.2790
 5482TIP3    H238006   6.264   6.575   8.302 -0.6974 -0.3617 -0.3564
 5483TIP3   OH238007   6.383   1.192   7.399  0.2756 -0.9682 -0.7228
 5483TIP3    H138008   6.345   1.118   7.446 -1.2314  0.5731  0.6439
 5483TIP3    H238009   6.338   1.192   7.315 -1.6939 -0.1363  0.2605
 5484TIP3   OH238010   3.336   3.049   0.632  0.1089 -0.1737 -0.1075
 5484TIP3    H138011   3.274   3.049   0.559 -1.3121  0.7022  1.0701
 5484TIP3    H238012   3.419   3.075   0.592 -0.6064  0.1609 -1.4360
 5485TIP3   OH238013   4.189   1.189   1.541  0.0395  0.4348 -0.1365
 5485TIP3    H138014   4.132   1.256   1.504 -1.7635 -0.0723  1.5524
 5485TIP3    H238015   4.238   1.155   1.466 -0.2103  2.4571 -1.2870
 5486TIP3   OH238016   2.254   4.380   7.261  0.4528 -0.5572  0.7401
 5486TIP3    H138017   2.243   4.416   7.174  0.6497  0.9619  1.3080
 5486TIP3    H238018   2.204   4.299   7.260  0.4628 -0.5727 -0.7741
 5487TIP3   OH238019   1.242   1.657   8.624 -0.2669  0.0221  0.2214
 5487TIP3    H138020   1.267   1.602   8.550 -2.2887 -0.8336  0.0989
 5487TIP3    H238021   1.254   1.747   8.592 -0.6063 -0.3373 -0.9696
 5488TIP3   OH238022   6.349   0.103   8.223 -0.8170 -0.5277  0.0347
 5488TIP3    H138023   6.342   0.063   8.310 -5.5121 -0.9407 -0.2610
 5488TIP3    H238024   6.376   0.193   8.241 -0.5756 -0.9172  1.8088
 5489TIP3   OH238025   6.063   2.744   0.170  0.5438  0.0754  0.0521
 5489TIP3    H138026   5.976   2.739   0.131 -0.4913 -0.1973  2.2562
 5489TIP3    H238027   6.098   2.656   0.161 -0.6316 -0.5990  1.7301
 5490TIP3   OH238028   2.382   4.520   0.519  0.4889 -0.3391  0.8162
 5490TIP3    H138029   2.445   4.589   0.538  3.0785 -1.9859 -1.0500
 5490TIP3    H238030   2.384   4.462   0.595  0.1998  0.3400  1.3381
 5491TIP3   OH238031   3.135   2.978   7.488  0.4196  0.1830  0.2697
 5491TIP3    H138032   3.167   3.047   7.547  1.5253  0.3871 -0.5286
 5491TIP3    H238033   3.132   3.020   7.402  0.5395 -0.6034 -0.1232
 5492TIP3   OH238034   4.999   5.353   2.515  0.5222 -0.2274  0.4401
 5492TIP3    H138035   4.989   5.264   2.547  2.1352 -0.1984  1.1208
 5492TIP3    H238036   5.067   5.347   2.448  0.8615  0.5399  0.7060
 5493TIP3   OH238037   2.399   3.918   7.443 -0.0268  0.3596  0.0720
 5493TIP3    H138038   2.328   3.931   7.507 -0.1667  0.1614 -0.0410
 5493TIP3    H238039   2.357   3.931   7.358 -0.7154 -2.7944 -0.2134
 5494TIP3   OH238040   0.714   5.237   1.288  0.5089  0.5653  0.3793
 5494TIP3    H138041   0.711   5.323   1.247 -0.4490  0.6361  0.5944
 5494TIP3    H238042   0.798   5.200   1.259  0.2067  0.9154 -1.0141
 5495TIP3   OH238043   1.173   2.319   1.892 -0.4707  0.1335  0.4055
 5495TIP3    H138044   1.170   2.254   1.821 -0.6746  1.0778 -0.4735
 5495TIP3    H238045   1.122   2.393   1.859 -1.2796  0.2697  1.8927
 5496TIP3   OH238046   4.896   3.091   1.245  0.2535 -0.5613  0.4687
 5496TIP3    H138047   4.850   3.165   1.207  1.2678 -0.9192 -1.6368
 5496TIP3    H238048   4.915   3.117   1.335  0.0857  1.4868 -0.0508
 5497TIP3   OH238049   5.088   2.425   1.803 -0.0259  0.0603  0.1240
 5497TIP3    H138050   5.060   2.511   1.834 -2.0428  0.0623 -1.4593
 5497TIP3    H238051   5.087   2.369   1.881  0.2745  1.2305  0.9785
 5498TIP3   OH238052   2.847   6.763   7.419  0.3848  0.4413 -0.6219
 5498TIP3    H138053   2.879   6.834   7.474  0.3259  1.0143 -1.3101
 5498TIP3    H238054   2.926   6.719   7.388  0.4103 -1.0502  1.3535
 5499TIP3   OH238055   2.409   6.408   7.838 -0.4228 -0.2331  1.1853
 5499TIP3    H138056   2.469   6.351   7.885  0.2561 -3.7172 -3.2206
 5499TIP3    H238057   2.324   6.365   7.847 -0.9906  0.9786  1.9010
 5500TIP3   OH238058   3.240   5.897   1.744  0.3279 -1.0755  0.3606
 5500TIP3    H138059   3.325   5.853   1.752  1.1947  0.5606  0.4760
 5500TIP3    H238060   3.194   5.876   1.826  0.3338 -2.4893  0.0273
 5501TIP3   OH238061   2.740   5.434   7.701 -0.0304  0.3437 -0.0299
 5501TIP3    H138062   2.768   5.343   7.708  0.2957  0.2615 -1.7712
 5501TIP3    H238063   2.813   5.478   7.657 -1.5556  0.6376 -2.5000
 5502TIP3   OH238064   6.526   3.577   2.491  0.5521 -0.5767  0.3883
 5502TIP3    H138065   6.467   3.651   2.506 -2.1373 -2.6540  0.7906
 5502TIP3    H238066   6.609   3.618   2.468 -1.2480  2.5845 -1.2814
 5503TIP3   OH238067   2.139   5.944   8.412 -0.4023  0.1073 -0.5582
 5503TIP3    H138068   2.083   5.870   8.434  0.0274  0.4048  1.7749
 5503TIP3    H238069   2.227   5.908   8.408 -0.2045  0.4603  0.4816
 5504TIP3   OH238070   0.948   6.143   8.209  0.4838  0.5665  0.0772
 5504TIP3    H138071   0.996   6.154   8.127  1.1546  0.9299  0.5078
 5504TIP3    H238072   0.887   6.217   8.211  1.8477  1.7462  0.8175
 5505TIP3   OH238073   5.869   3.988   7.913  0.1811  0.1746 -0.4387
 5505TIP3    H138074   5.952   4.034   7.909 -0.7203  1.8399 -0.8205
 5505TIP3    H238075   5.819   4.021   7.839 -1.0655 -0.2940  0.1508
 5506TIP3   OH238076   0.991   1.230   7.958  0.2708 -0.2262 -0.6111
 5506TIP3    H138077   0.955   1.314   7.930 -0.4727 -0.2254  0.2817
 5506TIP3    H238078   1.033   1.249   8.042 -0.3829 -0.8414 -0.1365
 5507TIP3   OH238079   1.373   6.449   6.698  0.2389  0.6126 -0.4722
 5507TIP3    H138080   1.343   6.442   6.788 -1.4851 -2.0727 -1.1295
 5507TIP3    H238081   1.438   6.379   6.689  0.4035  0.8578 -1.3183
 5508TIP3   OH238082   0.340   4.978   7.569  0.3846 -0.3106  0.2702
 5508TIP3    H138083   0.417   5.009   7.616 -0.4487  2.8433 -0.2553
 5508TIP3    H238084   0.286   4.937   7.637  1.7272 -1.0368  0.9394
 5509TIP3   OH238085   4.873   4.378   7.675  0.3746  0.6616  0.0716
 5509TIP3    H138086   4.941   4.410   7.616  0.1578  0.0636 -0.5178
 5509TIP3    H238087   4.791   4.407   7.637  0.1969 -0.2479 -0.2695
 5510TIP3   OH238088   3.935   4.694   8.413  0.2112 -0.7625  0.0569
 5510TIP3    H138089   4.002   4.680   8.345  0.3810 -1.0097  0.2703
 5510TIP3    H238090   3.886   4.612   8.414 -0.1105 -0.5720 -0.1143
 5511TIP3   OH238091   1.644   2.418   8.136 -0.0181 -0.3283  0.1483
 5511TIP3    H138092   1.730   2.391   8.105  0.0677  0.6312 -0.4871
 5511TIP3    H238093   1.583   2.361   8.088  0.1239  1.0065 -1.7123
 5512TIP3   OH238094   4.604   6.548   1.536 -0.0217  0.0924  0.4356
 5512TIP3    H138095   4.569   6.466   1.571  0.8753  0.1584  1.5605
 5512TIP3    H238096   4.640   6.524   1.451  0.2507 -0.6970  0.7627
 5513TIP3   OH238097   3.669   6.128   0.172 -0.0395 -0.3651 -0.0370
 5513TIP3    H138098   3.642   6.163   0.257  0.1072  0.7320 -0.4154
 5513TIP3    H238099   3.652   6.200   0.110  0.1332 -1.0353 -0.8857
 5514TIP3   OH238100   5.209   6.626   2.631  0.0287 -0.3281 -0.4580
 5514TIP3    H138101   5.135   6.666   2.677  0.6839 -0.2214  0.5405
 5514TIP3    H238102   5.185   6.534   2.622 -0.1841 -0.3183 -0.0297
 5515TIP3   OH238103   0.486   6.468   2.300 -0.2998 -0.3590 -0.2395
 5515TIP3    H138104   0.536   6.428   2.371 -1.9563 -3.3710 -0.5874
 5515TIP3    H238105   0.514   6.422   2.221 -1.9631 -0.5541 -0.7593
 5516TIP3   OH238106   1.572   4.264   7.766 -0.0684 -0.1650 -0.6005
 5516TIP3    H138107   1.627   4.186   7.759  0.6402  0.2276  0.5164
 5516TIP3    H238108   1.632   4.337   7.759 -0.8336  0.3612 -2.6337
 5517TIP3   OH238109   3.290   5.991   0.135  0.3365  0.0705  0.8860
 5517TIP3    H138110   3.206   6.036   0.143  0.7737  0.8940  0.9378
 5517TIP3    H238111   3.300   5.943   0.218  0.7279  1.4112  1.6497
 5518TIP3   OH238112   4.813   4.600   2.712 -0.1194 -0.3785 -0.3044
 5518TIP3    H138113   4.834   4.673   2.770 -1.0270 -1.6849  1.7741
 5518TIP3    H238114   4.720   4.611   2.691  0.0571 -0.2403 -1.0424
 5519TIP3   OH238115   5.528   3.955   7.159 -0.1397 -0.0955 -0.7079
 5519TIP3    H138116   5.519   3.863   7.134 -0.0261 -1.2055  2.7452
 5519TIP3    H238117   5.444   3.995   7.134 -0.3589 -1.2289 -1.8771
 5520TIP3   OH238118   0.476   2.990   7.068 -0.7708 -0.2603 -0.3340
 5520TIP3    H138119   0.408   2.970   7.004 -0.1296 -1.5551 -0.6487
 5520TIP3    H238120   0.502   2.905   7.103  0.4704  0.2200 -0.0058
 5521TIP3   OH238121   1.364   1.081   0.742  0.4284 -0.7714  0.2354
 5521TIP3    H138122   1.412   1.059   0.663  3.2391 -0.4338  1.7328
 5521TIP3    H238123   1.279   1.037   0.732  0.9535 -1.3249 -2.5770
 5522TIP3   OH238124   2.265   6.221   8.269 -0.2909  0.0686 -0.2687
 5522TIP3    H138125   2.268   6.248   8.361  1.0004 -1.5448  0.2173
 5522TIP3    H238126   2.329   6.277   8.225 -1.5583  1.4724 -0.4231
 5523TIP3   OH238127   6.181   3.838   1.588  0.2702  0.1646 -0.2024
 5523TIP3    H138128   6.133   3.911   1.549  1.1964  0.9586  0.1017
 5523TIP3    H238129   6.175   3.853   1.682  1.9993  0.8992 -0.1731
 5524TIP3   OH238130   6.596   3.887   8.207  0.1420 -0.2946  0.4598
 5524TIP3    H138131   6.597   3.821   8.137  0.1487 -1.2070  1.2973
 5524TIP3    H238132   6.672   3.942   8.189 -0.5604  0.2617 -0.9603
 5525TIP3   OH238133   4.621   1.665   2.618 -0.3226  0.4542 -0.4844
 5525TIP3    H138134   4.659   1.751   2.632 -0.9997  0.5723  0.8591
 5525TIP3    H238135   4.528   1.682   2.601 -0.1682  0.0688 -1.7661
 5526TIP3   OH238136   0.898   6.535   8.421  0.4984 -0.1340 -0.0097
 5526TIP3    H138137   0.886   6.626   8.450  1.8319 -0.1968  0.7853
 5526TIP3    H238138   0.819   6.490   8.450 -0.4843  0.8814 -0.9715
 5527TIP3   OH238139   6.083   2.423   8.061  0.0567  0.0866  0.1285
 5527TIP3    H138140   5.998   2.452   8.093  0.3602  0.2103  0.8359
 5527TIP3    H238141   6.069   2.407   7.968 -0.4353  1.2459 -0.0126
 5528TIP3   OH238142   6.783   1.242   8.436  0.7930  0.4437 -0.2058
 5528TIP3    H138143   6.870   1.211   8.409 -0.0459 -2.1605 -0.1607
 5528TIP3    H238144   6.802   1.301   8.510  2.5759  1.0324 -1.0632
 5529TIP3   OH238145   0.852   0.995   1.799  0.3295  0.4466 -0.8668
 5529TIP3    H138146   0.849   0.900   1.789  0.3193  0.0443  2.0166
 5529TIP3    H238147   0.785   1.028   1.741 -0.5779 -1.4310 -0.9534
 5530TIP3   OH238148   2.395   5.227   2.269 -0.0380  0.3282  0.6061
 5530TIP3    H138149   2.314   5.231   2.217 -0.5748  1.2068  1.4662
 5530TIP3    H238150   2.402   5.314   2.309  1.2198  0.1879  0.7297
 5531TIP3   OH238151   1.813   6.461   8.194  0.4784 -0.3623 -0.4496
 5531TIP3    H138152   1.766   6.401   8.253  0.4635  2.3679  2.6252
 5531TIP3    H238153   1.760   6.462   8.114 -0.4490 -3.0371  0.0220
 5532TIP3   OH238154   5.909   6.346   8.139  0.5149 -0.2016 -0.2295
 5532TIP3    H138155   5.835   6.285   8.145 -0.3872  0.8191 -0.5996
 5532TIP3    H238156   5.960   6.315   8.065  0.6081 -1.0748  0.1935
 5533TIP3   OH238157   1.666   1.206   0.137  0.8145 -0.1276  0.2421
 5533TIP3    H138158   1.711   1.229   0.218 -1.1642 -0.2807  1.4219
 5533TIP3    H238159   1.611   1.282   0.118  2.0356  0.3749 -1.5941
 5534TIP3   OH238160   2.740   2.594   0.432  0.3075 -0.5565  0.2416
 5534TIP3    H138161   2.702   2.681   0.447 -1.3170 -1.3981  1.2943
 5534TIP3    H238162   2.779   2.600   0.345  1.7815  1.7393  0.9684
 5535TIP3   OH238163   0.468   5.392   7.049  0.6759 -0.2775 -0.0203
 5535TIP3    H138164   0.538   5.456   7.035  1.3791 -1.0151  0.0757
 5535TIP3    H238165   0.468   5.339   6.969 -0.4245  0.3114 -0.4363
 5536TIP3   OH238166   0.480   3.369   0.044  0.2682  0.1465  0.2740
 5536TIP3    H138167   0.527   3.398  -0.034  1.1789 -1.4791  0.1701
 5536TIP3    H238168   0.388   3.380   0.023  0.4582 -1.2943 -1.4783
 5537TIP3   OH238169   1.495   3.507   8.069  0.1743 -0.6761 -0.1533
 5537TIP3    H138170   1.565   3.549   8.018 -0.5211  0.0513 -0.5306
 5537TIP3    H238171   1.532   3.498   8.157 -0.4757  3.2123  0.7041
 5538TIP3   OH238172   5.624   1.276   2.782 -0.3938  0.7232 -0.3378
 5538TIP3    H138173   5.684   1.310   2.715 -0.1794 -0.2701 -0.6629
 5538TIP3    H238174   5.578   1.354   2.814  0.3491  1.3721 -0.7952
 5539TIP3   OH238175   2.408   3.486   1.957  0.5012  0.1639 -0.2855
 5539TIP3    H138176   2.493   3.530   1.966  0.7173 -0.4139  0.6046
 5539TIP3    H238177   2.344   3.557   1.954  1.0156  0.6066 -0.9945
 5540TIP3   OH238178   1.055   6.811   0.179 -0.5115  0.0167 -0.0664
 5540TIP3    H138179   1.073   6.899   0.145 -3.5540  0.4755 -0.7633
 5540TIP3    H238180   1.003   6.826   0.258  0.6198 -1.1907  0.9650
 5541TIP3   OH238181   4.011   0.344   7.429  0.1402 -0.8166 -0.4381
 5541TIP3    H138182   4.097   0.382   7.449 -0.5252  0.8791 -0.6525
 5541TIP3    H238183   4.013   0.330   7.334 -0.8457  2.1683 -1.0289
 5542TIP3   OH238184   6.667   4.927   1.285 -0.0436  0.3066 -0.3451
 5542TIP3    H138185   6.596   4.885   1.236 -0.1869 -1.2927  1.1178
 5542TIP3    H238186   6.687   4.865   1.355  0.8601  2.0220  0.9857
 5543TIP3   OH238187   4.775   0.414   2.665  0.1500  0.3920 -0.5764
 5543TIP3    H138188   4.716   0.340   2.674  0.8695 -0.0675  0.4756
 5543TIP3    H238189   4.788   0.424   2.570 -0.6319 -0.2686 -0.7523
 5544TIP3   OH238190   4.757   5.759   0.206  0.1977  0.3662  0.0368
 5544TIP3    H138191   4.769   5.853   0.190  0.4200  0.1951 -0.8842
 5544TIP3    H238192   4.668   5.741   0.176 -0.3557  0.5378  1.5163
 5545TIP3   OH238193   1.640   5.437   8.421 -0.5970  0.1326 -0.2001
 5545TIP3    H138194   1.615   5.351   8.455  2.2310 -0.5141  0.5292
 5545TIP3    H238195   1.623   5.497   8.493  2.2581 -0.7303  1.3660
 5546TIP3   OH238196   4.959   2.348   1.400  0.1542  0.1752  0.1946
 5546TIP3    H138197   4.878   2.378   1.441  0.2684  0.3606  0.2907
 5546TIP3    H238198   4.968   2.257   1.428 -0.1327  0.0894  0.0032
 5547TIP3   OH238199   5.077   0.021   1.728  0.6915  0.1445  0.0366
 5547TIP3    H138200   5.029  -0.043   1.781 -1.7953  0.5928 -1.4635
 5547TIP3    H238201   5.124   0.075   1.791 -0.3859 -0.6905  1.6152
 5548TIP3   OH238202   0.876   5.861   1.096 -0.3165  0.6733  0.3664
 5548TIP3    H138203   0.862   5.768   1.114 -1.5957  0.7258 -0.2452
 5548TIP3    H238204   0.969   5.875   1.112 -0.3930 -0.3694  1.9759
 5549TIP3   OH238205   1.780   1.032   8.625  0.1652 -0.0618  0.3662
 5549TIP3    H138206   1.778   1.087   8.547 -0.5304 -2.6161 -1.5749
 5549TIP3    H238207   1.744   1.086   8.695 -0.8850  1.7590 -1.4929
 5550TIP3   OH238208   6.214   3.017   1.362  0.0380 -0.5191 -0.1278
 5550TIP3    H138209   6.203   2.932   1.320 -0.5484  0.3775 -1.8616
 5550TIP3    H238210   6.126   3.053   1.370  0.2770 -0.0499  0.5865
 5551TIP3   OH238211   6.561   5.791   1.152 -0.2384  0.2593  0.3955
 5551TIP3    H138212   6.487   5.731   1.165  0.5333 -0.5631  1.1118
 5551TIP3    H238213   6.550   5.824   1.063 -0.3820 -1.3716 -0.2153
 5552TIP3   OH238214   1.954   6.536   1.723  0.3663  0.2720 -0.0026
 5552TIP3    H138215   1.914   6.616   1.755  1.2626  0.0213  1.8708
 5552TIP3    H238216   2.041   6.562   1.692 -0.0749  0.3247 -1.2418
 5553TIP3   OH238217   4.619   4.703   1.796 -0.1069 -0.3090 -0.0390
 5553TIP3    H138218   4.689   4.765   1.816  0.1622 -1.1983  2.0252
 5553TIP3    H238219   4.548   4.757   1.762  0.6337  0.9414  0.3402
 5554TIP3   OH238220   5.254   2.598   7.391 -0.0130  0.2912 -0.3240
 5554TIP3    H138221   5.267   2.679   7.343 -0.6945 -0.6253 -2.1555
 5554TIP3    H238222   5.287   2.530   7.333 -2.2837 -1.0104 -0.2154
 5555TIP3   OH238223   4.332   2.945   6.781 -0.4072  0.6348 -0.0001
 5555TIP3    H138224   4.349   3.038   6.792 -0.3065  0.4232  1.9482
 5555TIP3    H238225   4.340   2.908   6.869 -0.7739 -1.1638 -0.6720
 5556TIP3   OH238226   2.312   4.856   7.817 -0.8523  0.2848  0.3086
 5556TIP3    H138227   2.233   4.877   7.768 -2.2712  0.0394  2.3697
 5556TIP3    H238228   2.300   4.897   7.902  1.8175  1.2773  0.3193
 5557TIP3   OH238229   4.881   3.027   0.551 -0.0752 -0.0005  0.5321
 5557TIP3    H138230   4.864   3.008   0.643 -0.4671 -0.6387  0.3345
 5557TIP3    H238231   4.862   2.945   0.505 -1.0046  0.6142 -0.2516
 5558TIP3   OH238232   4.718   4.615   7.543 -0.3788  0.1061 -0.0171
 5558TIP3    H138233   4.787   4.681   7.540 -1.3494  1.1229 -0.4876
 5558TIP3    H238234   4.736   4.558   7.468 -0.2879  0.5992 -0.3703
 5559TIP3   OH238235   6.118   0.419   2.564  0.6711 -0.3468 -0.0077
 5559TIP3    H138236   6.174   0.393   2.637 -1.3475  0.1160  1.7881
 5559TIP3    H238237   6.144   0.509   2.544  0.2546  0.0564  1.1784
 5560TIP3   OH238238   5.700   4.455   0.343  0.0977  0.0475  0.5687
 5560TIP3    H138239   5.768   4.496   0.397  0.0982  0.5250  0.2148
 5560TIP3    H238240   5.705   4.501   0.260 -0.4050 -0.1758  0.4111
 5561TIP3   OH238241   6.350   3.214   7.401  0.2067  0.0266 -0.0874
 5561TIP3    H138242   6.264   3.241   7.367  0.6049 -1.0625 -2.1053
 5561TIP3    H238243   6.346   3.119   7.405  1.2048 -0.0154  0.1502
 5562TIP3   OH238244   1.068   4.437   1.874  0.6942 -0.0626 -0.4600
 5562TIP3    H138245   0.986   4.425   1.826  0.8275 -0.0723 -0.6866
 5562TIP3    H238246   1.103   4.519   1.840  0.7178  0.0044 -0.2733
 5563TIP3   OH238247   0.448   6.151   7.898 -0.3526  0.4099 -0.1929
 5563TIP3    H138248   0.512   6.199   7.846 -1.3095 -0.4147 -2.2438
 5563TIP3    H238249   0.441   6.201   7.979  1.5185  1.5227 -0.6610
 5564TIP3   OH238250   2.852   2.918   8.433  0.2201  0.4593 -0.0168
 5564TIP3    H138251   2.790   2.854   8.400 -0.2308  1.6728 -1.6519
 5564TIP3    H238252   2.928   2.866   8.459 -0.0258 -0.7200 -1.5136
 5565TIP3   OH238253   6.443   5.089   7.667  0.0582 -1.0083 -0.4016
 5565TIP3    H138254   6.434   5.113   7.575 -0.5307  0.3336 -0.0185
 5565TIP3    H238255   6.537   5.096   7.684 -0.1062  1.5990 -0.2098
 5566TIP3   OH238256   3.304   1.912   7.091 -0.4638 -0.0887 -0.0864
 5566TIP3    H138257   3.311   1.820   7.066 -0.0213 -0.2266  0.5373
 5566TIP3    H238258   3.329   1.960   7.012  1.2706 -0.5291  0.1535
 5567TIP3   OH238259   2.687   0.219   6.782  0.0020 -0.3803  0.0624
 5567TIP3    H138260   2.773   0.238   6.821  0.3892 -2.2773  0.2384
 5567TIP3    H238261   2.637   0.300   6.795  1.0124  0.0023  2.0439
 5568TIP3   OH238262   1.375   5.121   0.453 -0.2125  0.1458 -0.1945
 5568TIP3    H138263   1.417   5.076   0.381 -0.6802  1.2600 -1.1916
 5568TIP3    H238264   1.352   5.051   0.515 -1.2284 -1.0378 -1.8321
 5569TIP3   OH238265   4.580   0.065   0.033  0.6293 -0.0675  0.1398
 5569TIP3    H138266   4.500   0.111   0.008  0.5205  0.1668  0.8814
 5569TIP3    H238267   4.596   0.003  -0.038  1.0447  1.4526 -1.1503
 5570TIP3   OH238268   2.278   5.891   2.602 -0.2683 -0.2345 -0.1964
 5570TIP3    H138269   2.220   5.957   2.638  0.1824 -0.4712  1.0076
 5570TIP3    H238270   2.246   5.876   2.513 -0.7606  1.1291 -0.2630
 5571TIP3   OH238271   6.486   3.700   8.019 -0.2682  0.2217  0.1442
 5571TIP3    H138272   6.527   3.687   7.934 -0.1717 -1.4946  0.4333
 5571TIP3    H238273   6.404   3.746   7.999  0.0779  0.4464 -0.7942
 5572TIP3   OH238274   1.787   3.179   2.396  0.7913 -0.3775  0.0242
 5572TIP3    H138275   1.820   3.257   2.441  3.2293 -2.0800  1.4864
 5572TIP3    H238276   1.693   3.191   2.392  0.9230  1.8856  1.7160
 5573TIP3   OH238277   3.162   0.468   8.236  0.1768 -0.1799  0.0592
 5573TIP3    H138278   3.184   0.555   8.203 -1.0930 -0.0699 -0.5765
 5573TIP3    H238279   3.238   0.414   8.214  1.1793  0.8477  0.8811
 5574TIP3   OH238280   3.729   4.290   7.933  0.3466  0.2193 -0.2808
 5574TIP3    H138281   3.756   4.330   7.850 -2.3959  1.0540 -0.8617
 5574TIP3    H238282   3.686   4.361   7.980 -2.6749 -1.4179 -0.3765
 5575TIP3   OH238283   3.927   1.187   8.404  0.3780  0.0004 -0.0465
 5575TIP3    H138284   3.941   1.253   8.336 -1.2719 -0.2998 -0.7294
 5575TIP3    H238285   4.007   1.135   8.403  1.1484  1.1322 -0.4502
 5576TIP3   OH238286   3.994   6.244   0.908 -0.0631  0.0884 -0.4041
 5576TIP3    H138287   3.898   6.252   0.910 -0.3675 -2.5590 -0.6896
 5576TIP3    H238288   4.020   6.237   1.000  0.2894  3.6715 -0.0820
 5577TIP3   OH238289   5.208   6.357   8.429 -0.0104  0.2560 -0.1317
 5577TIP3    H138290   5.294   6.326   8.404 -0.1752 -2.1333  1.8985
 5577TIP3    H238291   5.150   6.281   8.418 -1.5469  1.3293  0.0987
 5578TIP3   OH238292   2.609   4.901   7.942  0.1852 -0.4100  0.0202
 5578TIP3    H138293   2.666   4.961   7.989 -1.5470  0.9984  0.4599
 5578TIP3    H238294   2.547   4.869   8.008 -0.3639 -0.8515 -0.6870
 5579TIP3   OH238295   2.603   1.183   1.939 -0.3005  0.4894 -0.0488
 5579TIP3    H138296   2.598   1.194   1.844  1.8715  2.8761  0.0035
 5579TIP3    H238297   2.561   1.261   1.975 -1.4213 -0.5561  1.0118
 5580TIP3   OH238298   3.459   6.054   7.753 -0.7774 -0.2569  0.4194
 5580TIP3    H138299   3.496   5.978   7.799 -2.6462 -0.1949  2.1907
 5580TIP3    H238300   3.527   6.080   7.691  0.1469 -3.0302  0.1197
 5581TIP3   OH238301   3.277   5.088   7.061  0.2530 -0.0910  0.1772
 5581TIP3    H138302   3.286   5.133   6.977 -3.3615  1.3794  0.3941
 5581TIP3    H238303   3.321   5.145   7.124 -0.1414  0.6895 -0.2408
 5582TIP3   OH238304   6.800   1.740   7.145 -0.4046 -0.3186  0.2014
 5582TIP3    H138305   6.892   1.720   7.161 -0.3515 -0.8131 -0.6515
 5582TIP3    H238306   6.800   1.782   7.058 -0.9566 -0.1167  0.2961
 5583TIP3   OH238307   4.234   3.419   0.149  0.3943  0.5651  0.2899
 5583TIP3    H138308   4.279   3.471   0.217  1.2747 -1.2796  1.1854
 5583TIP3    H238309   4.246   3.329   0.177 -1.0804 -0.1405 -1.2422
 5584TIP3   OH238310   4.411   2.737   0.500  0.1744  0.3053 -0.8534
 5584TIP3    H138311   4.396   2.672   0.431 -0.3656  0.0718 -0.5267
 5584TIP3    H238312   4.453   2.688   0.571 -0.8209  0.1486 -0.3495
 5585TIP3   OH238313   6.777   2.682   1.974 -0.1019 -0.0109  0.5551
 5585TIP3    H138314   6.748   2.734   2.049 -0.2301 -0.6880  0.9901
 5585TIP3    H238315   6.697   2.664   1.924 -0.0584  0.2080  0.4082
 5586TIP3   OH238316   4.775   0.133   1.670  0.4381  0.0473  0.1658
 5586TIP3    H138317   4.840   0.175   1.614  1.5246  0.7171  1.8676
 5586TIP3    H238318   4.784   0.040   1.651  0.3890  0.2796 -1.1436
 5587TIP3   OH238319   5.317   3.757   7.781  0.1114 -0.2438 -0.5652
 5587TIP3    H138320   5.359   3.826   7.833 -0.5790  0.3268 -0.7476
 5587TIP3    H238321   5.389   3.700   7.754  0.5782 -0.1050  0.3473
 5588TIP3   OH238322   1.359   3.205   1.184  0.4900  0.0761 -0.7240
 5588TIP3    H138323   1.380   3.114   1.204 -1.2881 -0.2227 -0.0415
 5588TIP3    H238324   1.278   3.200   1.132  1.0012  1.2235 -1.6942
 5589TIP3   OH238325   1.411   2.718   1.561  0.4980 -0.4850 -0.1781
 5589TIP3    H138326   1.478   2.781   1.589  0.1364  0.0862 -0.5769
 5589TIP3    H238327   1.448   2.632   1.583  1.5256 -0.2005 -0.7111
 5590TIP3   OH238328   6.005   2.173   2.969 -0.3812  0.3230 -0.3074
 5590TIP3    H138329   5.943   2.101   2.982  0.3131  0.0733  2.0727
 5590TIP3    H238330   6.087   2.130   2.947 -0.2937  0.4599 -0.2484
 5591TIP3   OH238331   3.512   6.816   2.339 -0.0271 -0.3443 -0.0966
 5591TIP3    H138332   3.487   6.744   2.281  0.1837 -0.2398 -0.3178
 5591TIP3    H238333   3.605   6.805   2.354  0.4870  1.1000 -1.8692
 5592TIP3   OH238334   0.316   3.597   8.201  0.4555  0.0892  0.5163
 5592TIP3    H138335   0.242   3.544   8.170 -0.0357  0.6435  0.7396
 5592TIP3    H238336   0.301   3.606   8.295 -0.1623  1.6958  0.2930
 5593TIP3   OH238337   2.222   2.843   7.399 -0.2226 -0.6975  0.4820
 5593TIP3    H138338   2.224   2.937   7.386  0.1547 -0.4890  1.8969
 5593TIP3    H238339   2.133   2.825   7.429 -1.1963 -1.2219 -2.3550
 5594TIP3   OH238340   6.104   3.104   0.097 -0.0687 -0.0926 -0.8607
 5594TIP3    H138341   6.011   3.110   0.117 -0.2248  0.4426 -1.7198
 5594TIP3    H238342   6.147   3.121   0.180 -0.7361 -0.9470 -0.3174
 5595TIP3   OH238343   1.720   5.831   0.241 -0.2691 -0.8861 -0.7834
 5595TIP3    H138344   1.654   5.889   0.203 -0.7899 -0.8902  0.1008
 5595TIP3    H238345   1.773   5.888   0.297 -1.1183 -1.3347  0.5188
 5596TIP3   OH238346   4.499   4.645   0.096 -0.4433  0.3938 -0.4327
 5596TIP3    H138347   4.571   4.670   0.038  0.6914 -1.9892 -0.1664
 5596TIP3    H238348   4.422   4.687   0.059  0.7020  1.1563 -2.0611
 5597TIP3   OH238349   4.146   4.797   1.233  0.3798 -0.2364  0.1054
 5597TIP3    H138350   4.153   4.891   1.219 -0.4501  0.1109  1.7574
 5597TIP3    H238351   4.188   4.758   1.156  1.1005  1.4667 -0.4122
 5598TIP3   OH238352   0.112   0.717   8.449 -0.3071  0.0399 -0.2857
 5598TIP3    H138353   0.062   0.759   8.519  1.8280  0.0005  1.3529
 5598TIP3    H238354   0.157   0.789   8.405  0.4624 -0.1531  0.1567
 5599TIP3   OH238355   5.253   2.966   1.629  0.1014  0.2671 -0.0987
 5599TIP3    H138356   5.332   2.994   1.583 -0.2956  0.1531 -0.8581
 5599TIP3    H238357   5.201   3.046   1.638  0.4926  0.4355  0.8113
 5600TIP3   OH238358   2.814   6.037   0.886 -0.3069 -0.4098  0.2581
 5600TIP3    H138359   2.772   6.034   0.800 -2.1949 -2.6379  1.1551
 5600TIP3    H238360   2.766   6.104   0.934 -1.0443 -1.0466  0.4148
 5601TIP3   OH238361   4.401   3.626   1.231  0.1117  0.0595  0.3523
 5601TIP3    H138362   4.495   3.615   1.244  0.6485  0.5752 -2.4206
 5601TIP3    H238363   4.393   3.711   1.189 -1.5892 -0.0348  0.4440
 5602TIP3   OH238364   6.138   2.143   2.551 -0.5292  0.1660  0.1281
 5602TIP3    H138365   6.047   2.139   2.580 -0.4759 -1.7594  0.1456
 5602TIP3    H238366   6.176   2.216   2.601 -1.8247  0.4384  0.7516
 5603TIP3   OH238367   5.067   0.352   0.082 -0.3311 -0.4926  0.0785
 5603TIP3    H138368   5.112   0.336  -0.001  0.5334  0.2742  0.3873
 5603TIP3    H238369   4.989   0.296   0.078 -0.6303 -0.0232 -1.5125
 5604TIP3   OH238370   6.647   1.113   7.355 -0.0692 -0.6385 -0.1272
 5604TIP3    H138371   6.565   1.164   7.360 -0.6652 -1.3648 -1.6233
 5604TIP3    H238372   6.694   1.134   7.435 -1.1878  0.7413  0.2082
 5605TIP3   OH238373   3.373   5.603   0.147  0.1298 -0.4753 -0.6302
 5605TIP3    H138374   3.429   5.532   0.116  0.8963 -0.6354  1.0128
 5605TIP3    H238375   3.385   5.673   0.083  3.4110  0.0546  0.3886
 5606TIP3   OH238376   4.124   4.972   7.611  0.1498  0.1658 -0.4805
 5606TIP3    H138377   4.218   4.954   7.613 -0.0742 -1.0590 -0.2583
 5606TIP3    H238378   4.083   4.889   7.635 -0.9940  0.6877 -0.5621
 5607TIP3   OH238379   4.444   5.016   0.093  0.0957  0.2804 -0.1082
 5607TIP3    H138380   4.437   5.102   0.133 -0.4805  0.2822 -0.2062
 5607TIP3    H238381   4.526   5.019   0.043 -0.6867  1.3013 -1.3834
 5608TIP3   OH238382   3.333   1.993   2.191 -0.5180 -0.0225 -0.1552
 5608TIP3    H138383   3.270   2.053   2.230 -1.3682 -1.2266  0.3565
 5608TIP3    H238384   3.281   1.932   2.140  0.2666 -0.8044 -0.0420
 5609TIP3   OH238385   5.055   4.572   1.028 -0.1104 -0.0492  0.4425
 5609TIP3    H138386   5.045   4.652   0.976 -1.0636  0.0938  0.8221
 5609TIP3    H238387   5.113   4.598   1.100  1.2221 -0.2497 -0.5144
 5610TIP3   OH238388   2.299   5.421   1.540  0.8784  0.2563  0.2653
 5610TIP3    H138389   2.279   5.466   1.458  0.3341  0.7394  0.6555
 5610TIP3    H238390   2.387   5.385   1.526  0.8315  0.4048 -0.4955
 5611TIP3   OH238391   2.645   5.810   2.067  0.3243 -0.5487  0.2181
 5611TIP3    H138392   2.602   5.868   2.130  0.0644 -0.0850 -0.3761
 5611TIP3    H238393   2.702   5.754   2.121 -1.1460 -1.3054  1.0436
 5612TIP3   OH238394   2.275   1.068   1.116  0.2919 -0.2725 -0.5020
 5612TIP3    H138395   2.294   0.977   1.142 -0.6226  0.0962  1.6591
 5612TIP3    H238396   2.291   1.069   1.022  0.4681 -2.6421 -0.5769
 5613TIP3   OH238397   0.049   2.841   0.685 -0.0116 -0.1631  0.7913
 5613TIP3    H138398   0.058   2.783   0.610  0.0168  1.8413 -0.8241
 5613TIP3    H238399  -0.039   2.824   0.719  0.5156 -2.1601  1.3224
 5614TIP3   OH238400   0.228   3.414   0.840 -0.5765 -0.0282 -0.6435
 5614TIP3    H138401   0.321   3.407   0.815 -0.3348  0.8756 -0.0316
 5614TIP3    H238402   0.225   3.379   0.929 -0.8440 -0.1248 -0.6905
 5615TIP3   OH238403   4.847   2.175   7.647  0.3128  0.2445  0.2205
 5615TIP3    H138404   4.860   2.199   7.556  0.3925 -0.9294 -0.0888
 5615TIP3    H238405   4.753   2.163   7.656  0.1711  1.4565  0.5956
 5616TIP3   OH238406   0.016   4.015   2.518  0.0349  0.1144 -0.0485
 5616TIP3    H138407  -0.053   3.992   2.455  0.4166  0.7236 -0.7067
 5616TIP3    H238408   0.067   3.935   2.527  0.3928  0.2054 -1.0744
 5617TIP3   OH238409   6.823   3.823   7.570  0.2406 -0.3550 -0.5191
 5617TIP3    H138410   6.849   3.910   7.540 -2.1312  0.3637 -0.6303
 5617TIP3    H238411   6.809   3.774   7.489  1.1377 -0.7446 -0.4567
 5618TIP3   OH238412   1.204   4.732   6.714 -0.3383 -0.5066  0.0448
 5618TIP3    H138413   1.255   4.717   6.635 -2.0208  2.6910 -1.8410
 5618TIP3    H238414   1.261   4.785   6.770  0.4678 -1.9299  0.6588
 5619TIP3   OH238415   3.317   0.032   2.736  0.4591 -0.1887  0.4720
 5619TIP3    H138416   3.301   0.106   2.677  1.3803  0.9841  1.6271
 5619TIP3    H238417   3.327  -0.044   2.678 -1.1802  0.4507 -0.7049
 5620TIP3   OH238418   1.245   0.042   7.829  0.9979 -0.3475  0.3524
 5620TIP3    H138419   1.254   0.097   7.751  0.1793  0.5696  0.8800
 5620TIP3    H238420   1.158   0.003   7.821  1.3126 -1.0601  0.3140
 5621TIP3   OH238421   6.644   2.161   8.609 -0.0286 -0.1749 -0.1065
 5621TIP3    H138422   6.615   2.148   8.519  0.0987  0.1513 -0.1972
 5621TIP3    H238423   6.712   2.229   8.603  0.6668 -0.8447  0.1248
 5622TIP3   OH238424   6.027   1.052   7.906 -0.1774 -0.2374  0.5900
 5622TIP3    H138425   6.023   1.063   8.001 -1.1878  1.0129  0.4321
 5622TIP3    H238426   5.959   0.987   7.887 -0.4237 -0.0021  0.6617
 5623TIP3   OH238427   1.424   0.297   2.233  0.1812 -0.4510  0.2790
 5623TIP3    H138428   1.410   0.317   2.326 -1.5197 -1.2590  0.2312
 5623TIP3    H238429   1.384   0.211   2.221 -0.1399 -0.1048 -1.3122
 5624TIP3   OH238430   5.136   3.837   2.334 -0.0737 -0.1330  0.4808
 5624TIP3    H138431   5.048   3.861   2.304 -0.0798 -0.3620  0.3168
 5624TIP3    H238432   5.131   3.841   2.429  0.2399  1.6841  0.4613
 5625TIP3   OH238433   1.299   0.681   1.243 -0.0811 -0.3287 -0.2636
 5625TIP3    H138434   1.205   0.675   1.259 -0.1741 -0.5760 -0.8578
 5625TIP3    H238435   1.312   0.638   1.158  0.4828  0.2410 -0.4810
 5626TIP3   OH238436   1.558   6.442   7.346  0.6727 -0.2822  0.1236
 5626TIP3    H138437   1.547   6.402   7.432 -1.6735 -0.8407 -0.3345
 5626TIP3    H238438   1.558   6.536   7.362  0.7347 -0.3958  0.7902
 5627TIP3   OH238439   3.972   1.444   1.117  0.1505 -0.4381 -0.2108
 5627TIP3    H138440   3.898   1.472   1.171 -0.6285 -2.7386  0.0032
 5627TIP3    H238441   4.044   1.433   1.180  0.3370  0.5549 -0.2340
 5628TIP3   OH238442   5.331   1.746   1.962 -0.2926  0.0597  0.3338
 5628TIP3    H138443   5.394   1.675   1.956 -0.1873  0.1658  0.1967
 5628TIP3    H238444   5.343   1.781   2.051  0.1985  0.4119  0.1334
 5629TIP3   OH238445   5.521   6.109   2.040 -0.1115  0.2868 -0.4952
 5629TIP3    H138446   5.558   6.189   2.004 -2.0105  1.2958 -0.3057
 5629TIP3    H238447   5.521   6.123   2.135  0.9010 -0.5864 -0.3381
 5630TIP3   OH238448   2.884   5.012   1.999  0.3421 -0.0954 -0.1913
 5630TIP3    H138449   2.975   4.983   1.995  0.9823  1.7083  0.3190
 5630TIP3    H238450   2.842   4.971   1.924  0.8577 -3.1741  1.0653
 5631TIP3   OH238451   5.395   4.165   8.581  1.1173  0.5094 -0.5715
 5631TIP3    H138452   5.348   4.208   8.510 -2.1356 -1.0215  0.4431
 5631TIP3    H238453   5.455   4.232   8.614 -1.4699  3.2934 -1.0153
 5632TIP3   OH238454   3.264   0.442   2.139  0.0547 -0.1939  0.4234
 5632TIP3    H138455   3.321   0.366   2.125 -0.4557 -0.4829 -0.1144
 5632TIP3    H238456   3.242   0.439   2.232  1.1569  0.0942  0.7151
 5633TIP3   OH238457   0.484   2.315   0.984  0.1834 -0.1813  0.4413
 5633TIP3    H138458   0.546   2.242   0.993  0.2624  0.0659  2.1953
 5633TIP3    H238459   0.403   2.273   0.954  0.5556 -0.8256  0.3107
 5634TIP3   OH238460   5.360   3.325   8.472  0.2589  0.0451  0.0260
 5634TIP3    H138461   5.305   3.327   8.550  1.0788  0.8056  0.5969
 5634TIP3    H238462   5.326   3.251   8.421 -3.0432  2.0109 -0.9455
 5635TIP3   OH238463   3.679   2.568   1.627  0.3181 -0.7857  0.5433
 5635TIP3    H138464   3.732   2.574   1.706 -1.9506  4.5976  2.1223
 5635TIP3    H238465   3.592   2.544   1.658 -0.4040  0.5157 -0.3418
 5636TIP3   OH238466   5.293   3.618   2.247  0.1420 -0.3701  0.1190
 5636TIP3    H138467   5.255   3.699   2.281 -0.5448  0.9199 -3.3488
 5636TIP3    H238468   5.387   3.628   2.263 -0.0537  0.5680  0.7791
 5637TIP3   OH238469   3.462   6.484   1.733 -0.5535  0.9522 -0.4041
 5637TIP3    H138470   3.527   6.542   1.773  0.6382 -0.3285 -0.3951
 5637TIP3    H238471   3.486   6.483   1.640 -0.4763  0.3917 -0.3812
 5638TIP3   OH238472   5.988   2.840   7.651  0.7286 -0.1401  0.0685
 5638TIP3    H138473   6.023   2.918   7.693 -1.1397 -0.0553  1.5546
 5638TIP3    H238474   5.948   2.871   7.570  2.5562 -0.0244 -0.8457
 5639TIP3   OH238475   6.081   5.091   2.094 -0.2769  0.7029 -0.0026
 5639TIP3    H138476   6.138   5.165   2.077 -0.5817  0.9179 -0.1086
 5639TIP3    H238477   6.140   5.020   2.118  0.0485  0.8598 -0.3212
 5640TIP3   OH238478   6.616   5.088   8.050  0.2450  0.2361  0.4329
 5640TIP3    H138479   6.642   5.086   8.142 -1.5594 -1.1501  0.9899
 5640TIP3    H238480   6.546   5.153   8.046  0.2734  0.2460  0.0611
 5641TIP3   OH238481   3.145   1.027   1.284 -0.2788  0.0046  0.3014
 5641TIP3    H138482   3.058   1.013   1.247 -0.1807  2.5196 -1.1189
 5641TIP3    H238483   3.206   0.996   1.216 -0.0339 -0.8633  0.8954
 5642TIP3   OH238484   0.426   0.203   0.601  0.4052 -0.8208  0.2712
 5642TIP3    H138485   0.467   0.165   0.523  1.8896 -1.1244  1.1385
 5642TIP3    H238486   0.477   0.165   0.674  0.8483  1.5349  1.2601
 5643TIP3   OH238487   1.737   2.119   1.790  0.3037  0.0819 -0.0780
 5643TIP3    H138488   1.678   2.104   1.863  1.3612 -0.6298  0.6580
 5643TIP3    H238489   1.790   2.040   1.784  1.5766  0.9119 -0.3317
 5644TIP3   OH238490   6.404   5.020   8.510  0.4760  0.7460 -0.7071
 5644TIP3    H138491   6.328   4.984   8.555  0.7913 -1.2797 -1.6733
 5644TIP3    H238492   6.368   5.063   8.432  0.2978 -0.6644 -1.4441
 5645TIP3   OH238493   1.604   6.108   1.211  0.4306  0.6763  0.0274
 5645TIP3    H138494   1.515   6.102   1.176  1.3073  0.0227 -2.2190
 5645TIP3    H238495   1.657   6.143   1.140  2.2771 -0.4889  0.7323
 5646TIP3   OH238496   3.674   3.779   6.739 -0.0895 -0.0665  0.4335
 5646TIP3    H138497   3.702   3.690   6.719  0.7319 -0.3373  2.4772
 5646TIP3    H238498   3.591   3.769   6.785  0.7298  0.0608  2.0120
 5647TIP3   OH238499   6.644   5.693   2.092  0.2691 -0.1482  0.5835
 5647TIP3    H138500   6.581   5.627   2.120  0.7145 -0.6873  0.3432
 5647TIP3    H238501   6.660   5.746   2.170  0.1512 -0.5279  0.8668
 5648TIP3   OH238502   4.675   2.750   8.208  0.2350  0.4889  0.4596
 5648TIP3    H138503   4.653   2.669   8.254  1.0093  0.0422  0.0761
 5648TIP3    H238504   4.664   2.819   8.273 -0.7258  0.1174  0.7059
 5649TIP3   OH238505   1.428   0.953   0.127 -0.0887 -0.1847  0.0009
 5649TIP3    H138506   1.448   0.973   0.218  1.0520 -0.5808 -0.1409
 5649TIP3    H238507   1.514   0.936   0.087 -0.6265 -0.6715 -0.9847
 5650TIP3   OH238508   3.598   0.097   0.893 -0.5012 -0.1838 -0.0645
 5650TIP3    H138509   3.518   0.131   0.934 -1.0913  0.6298 -1.7864
 5650TIP3    H238510   3.668   0.151   0.928 -0.9735  0.4275 -0.0537
 5651TIP3   OH238511   5.912   3.342   7.412 -0.1602  0.7668 -0.1355
 5651TIP3    H138512   5.980   3.351   7.345 -0.2749  0.4714 -0.2938
 5651TIP3    H238513   5.870   3.428   7.414  0.3951  1.0414  0.1589
 5652TIP3   OH238514   2.400   1.128   1.350 -0.6772  0.5974  0.3332
 5652TIP3    H138515   2.363   1.211   1.320 -1.3988 -0.2259 -1.1716
 5652TIP3    H238516   2.372   1.065   1.285 -2.3768 -1.3524  2.7601
 5653TIP3   OH238517   6.306   4.906   0.205  0.1235  0.9089  0.3904
 5653TIP3    H138518   6.310   4.901   0.301 -0.2977 -0.2844  0.3634
 5653TIP3    H238519   6.363   4.836   0.175  0.2020  1.2388 -0.2347
 5654TIP3   OH238520   4.522   0.043   0.311 -0.4887 -0.5728 -0.0706
 5654TIP3    H138521   4.510   0.011   0.221  3.4084 -0.9196 -0.6735
 5654TIP3    H238522   4.524   0.138   0.303  1.3205 -0.6121 -0.7413
 5655TIP3   OH238523   2.256   1.484   2.570  0.2700 -0.8426  0.1969
 5655TIP3    H138524   2.342   1.474   2.610  0.7435  0.3707 -0.4841
 5655TIP3    H238525   2.195   1.486   2.645  0.5916 -3.4834  0.6252
 5656TIP3   OH238526   2.642   2.822   2.243  0.2049 -0.1201 -0.4699
 5656TIP3    H138527   2.693   2.862   2.314  0.3795 -0.0441 -0.6366
 5656TIP3    H238528   2.587   2.893   2.209  0.1248 -0.1552 -0.4138
 5657TIP3   OH238529   3.929   1.711   1.770 -0.5102  0.5878 -0.0820
 5657TIP3    H138530   4.013   1.665   1.770  0.1024  1.6117 -1.6703
 5657TIP3    H238531   3.950   1.799   1.737 -1.9748  1.3493  0.8768
 5658TIP3   OH238532   6.189   1.684   2.577 -0.1610  0.2769  0.7942
 5658TIP3    H138533   6.188   1.764   2.524  0.2185 -0.2402 -0.0084
 5658TIP3    H238534   6.114   1.694   2.635  1.2658  2.3399  2.4382
 5659TIP3   OH238535   4.450   3.559   0.920  0.2226  0.0302 -0.5393
 5659TIP3    H138536   4.382   3.619   0.952  0.0955  0.3654 -1.4013
 5659TIP3    H238537   4.517   3.560   0.988 -0.6346 -0.3013  0.3167
 5660TIP3   OH238538   6.747   5.770   7.272  0.2024  0.0815  0.5258
 5660TIP3    H138539   6.802   5.692   7.280  0.4797 -0.2215 -2.8287
 5660TIP3    H238540   6.701   5.759   7.189  0.0827  3.3824  0.0068
 5661TIP3   OH238541   1.611   4.432   0.301  0.3964  0.8083  0.1669
 5661TIP3    H138542   1.662   4.432   0.220 -0.3407  0.9289 -0.3072
 5661TIP3    H238543   1.633   4.350   0.344  1.2964  1.0421  0.1669
 5662TIP3   OH238544   4.354   5.926   0.166 -0.6044  0.4719  0.5588
 5662TIP3    H138545   4.290   5.971   0.111 -0.4833  0.8068  0.6907
 5662TIP3    H238546   4.397   5.996   0.215 -0.0308  0.2609  0.3604
 5663TIP3   OH238547   4.817   4.030   7.600 -0.1345  0.3702 -0.1960
 5663TIP3    H138548   4.881   4.047   7.668  0.2814  1.1500 -0.7621
 5663TIP3    H238549   4.794   3.938   7.611 -0.0375  0.4713  0.9526
 5664TIP3   OH238550   5.033   4.212   8.527 -0.1165 -0.0554 -0.3714
 5664TIP3    H138551   4.976   4.193   8.453  0.5224  1.5400 -1.3038
 5664TIP3    H238552   5.115   4.241   8.488  0.8024 -0.7390  0.9678
 5665TIP3   OH238553   0.806   3.095   8.370  0.4612 -0.3654  0.2350
 5665TIP3    H138554   0.873   3.159   8.342 -0.0078 -0.0142 -0.1073
 5665TIP3    H238555   0.730   3.149   8.392  1.0518 -0.5566  3.0248
 5666TIP3   OH238556   5.617   5.265   1.630 -0.0713 -0.5093 -0.3179
 5666TIP3    H138557   5.667   5.214   1.693 -0.5496 -0.2390  0.2892
 5666TIP3    H238558   5.534   5.282   1.674  0.0944  0.8187 -0.4888
 5667TIP3   OH238559   4.210   6.058   7.808  0.7717  0.0886  0.0837
 5667TIP3    H138560   4.219   5.963   7.800  0.7945  0.1852 -1.1460
 5667TIP3    H238561   4.140   6.069   7.873 -1.4529 -0.8522 -1.9752
 5668TIP3   OH238562   0.773   3.557   0.393  0.5538  0.1272  0.0418
 5668TIP3    H138563   0.747   3.467   0.374  2.5060 -0.5004  0.0857
 5668TIP3    H238564   0.751   3.570   0.485 -2.1095  0.6303 -0.5957
 5669TIP3   OH238565   0.707   3.341   7.968 -0.2018  0.6109  0.0605
 5669TIP3    H138566   0.797   3.355   7.999  0.6106 -1.3668 -1.1998
 5669TIP3    H238567   0.686   3.251   7.993 -0.4623 -0.1877 -2.6312
 5670TIP3   OH238568   6.365   6.564   6.890  0.1780  0.2180 -0.2862
 5670TIP3    H138569   6.390   6.606   6.972  0.2008 -0.8331  0.2682
 5670TIP3    H238570   6.442   6.513   6.864  0.3262  0.8783 -1.2013
 5671TIP3   OH238571   4.479   6.129   7.827 -0.2743  0.2187  0.2061
 5671TIP3    H138572   4.388   6.101   7.817  0.6568 -2.7996 -1.1698
 5671TIP3    H238573   4.500   6.108   7.919 -0.8303  0.5066  0.4032
 5672TIP3   OH238574   1.943   2.551   1.034 -0.4018 -0.2328 -0.1727
 5672TIP3    H138575   1.989   2.499   1.100 -1.1870  0.4044  0.9061
 5672TIP3    H238576   1.854   2.559   1.067 -0.4018  1.4869 -0.4838
 5673TIP3   OH238577   3.612   0.656   0.960  0.5731  0.4733  0.5028
 5673TIP3    H138578   3.661   0.579   0.987  1.6145  1.4601  1.4887
 5673TIP3    H238579   3.624   0.660   0.865  0.8336 -0.3404  0.4940
 5674TIP3   OH238580   6.010   1.448   7.941 -0.1318 -0.7464  0.1466
 5674TIP3    H138581   6.073   1.443   8.014 -0.0999 -1.2587  0.0903
 5674TIP3    H238582   5.939   1.503   7.974 -0.4989 -1.6178  0.8608
 5675TIP3   OH238583   1.106   1.638   0.237 -0.5165  0.5532  0.4257
 5675TIP3    H138584   1.167   1.663   0.168  1.3748 -4.1577 -0.0356
 5675TIP3    H238585   1.021   1.630   0.192  0.0660  0.3652 -0.6839
 5676TIP3   OH238586   4.704   0.640   2.792 -0.3121 -0.1121  0.1216
 5676TIP3    H138587   4.704   0.556   2.746  1.1981 -0.0409 -0.0479
 5676TIP3    H238588   4.782   0.637   2.848 -1.6509  0.1314  2.1104
 5677TIP3   OH238589   3.694   3.738   1.116 -0.2264 -0.2554 -0.3790
 5677TIP3    H138590   3.606   3.747   1.078  0.4250 -2.1935 -2.6175
 5677TIP3    H238591   3.750   3.786   1.055  0.6412 -1.8340 -0.8559
 5678TIP3   OH238592   3.098   1.950   7.515  0.4658  0.1116 -0.3336
 5678TIP3    H138593   3.061   1.867   7.544  1.1555  0.5766  2.1037
 5678TIP3    H238594   3.036   1.983   7.450 -0.2316 -1.8949 -0.7590
 5679TIP3   OH238595   2.004   3.615   3.010 -0.3050  0.0298 -0.3191
 5679TIP3    H138596   2.059   3.666   3.068  0.1587  0.9701 -1.5459
 5679TIP3    H238597   2.062   3.549   2.972 -0.4967 -0.2755 -0.0920
 5680TIP3   OH238598   5.739   3.006   0.765  0.3466  0.4300 -0.6629
 5680TIP3    H138599   5.691   3.011   0.848  0.7857  1.7385 -0.4658
 5680TIP3    H238600   5.828   2.983   0.791  0.8200  2.1539 -0.5971
 5681TIP3   OH238601   1.952   6.101   7.979  0.2949  0.2216  0.1844
 5681TIP3    H138602   1.961   6.109   7.884  1.0516 -0.2743  0.2083
 5681TIP3    H238603   1.984   6.013   7.999 -1.9712 -0.5777  0.6450
 5682TIP3   OH238604   2.237   1.612   0.733  0.0329  0.0943  0.0631
 5682TIP3    H138605   2.177   1.584   0.664 -0.9121  1.2333  0.3822
 5682TIP3    H238606   2.310   1.550   0.729 -0.2112 -0.1226 -1.6514
 5683TIP3   OH238607   1.544   5.624   0.893  0.0195  0.9255  0.0026
 5683TIP3    H138608   1.534   5.611   0.798 -0.8901 -1.7767  0.3837
 5683TIP3    H238609   1.464   5.586   0.931  1.0926  0.4529  1.9169
 5684TIP3   OH238610   0.557   0.823   6.911 -0.4740 -0.3235 -0.0863
 5684TIP3    H138611   0.620   0.878   6.864 -0.2939 -0.9952 -0.6490
 5684TIP3    H238612   0.473   0.842   6.870 -0.4436 -0.3123 -0.1444
 5685TIP3   OH238613   0.980   3.669   1.449  0.0502 -0.2026  0.1493
 5685TIP3    H138614   1.019   3.608   1.511  1.1882 -0.0253 -0.3618
 5685TIP3    H238615   0.945   3.739   1.503  0.8191 -0.1717  0.6257
 5686TIP3   OH238616   6.506   4.743   7.825  0.3172  0.0871  0.0043
 5686TIP3    H138617   6.528   4.801   7.752  0.5492 -2.9911 -2.5848
 5686TIP3    H238618   6.588   4.734   7.874  0.6292  0.8306 -0.3688
 5687TIP3   OH238619   4.776   6.162   8.267 -0.8150  0.9710 -0.1846
 5687TIP3    H138620   4.769   6.071   8.298  1.2832  0.7183 -0.3218
 5687TIP3    H238621   4.699   6.205   8.304 -0.1683 -0.1002  2.6853
 5688TIP3   OH238622   6.720   2.821   1.597 -0.5299  0.3494  0.7396
 5688TIP3    H138623   6.748   2.733   1.620 -1.9365 -0.1004  0.8344
 5688TIP3    H238624   6.676   2.812   1.513  0.3685  1.1872  0.1520
 5689TIP3   OH238625   1.693   6.151   1.485 -0.0933  0.2663 -0.0878
 5689TIP3    H138626   1.686   6.060   1.516 -1.7537  0.4827  0.2633
 5689TIP3    H238627   1.656   6.149   1.397  1.8442  0.2365 -0.9603
 5690TIP3   OH238628   5.938   0.419   8.266 -0.4027  0.3620  0.1659
 5690TIP3    H138629   6.030   0.430   8.243 -0.6850  0.6948 -0.8550
 5690TIP3    H238630   5.892   0.417   8.181 -1.2873 -0.1947  0.6427
 5691TIP3   OH238631   6.218   1.965   1.479 -0.3716 -0.3311  0.7001
 5691TIP3    H138632   6.270   1.951   1.558 -0.8147 -1.1202  0.8598
 5691TIP3    H238633   6.130   1.986   1.511 -0.7487 -1.4252  0.4273
 5692TIP3   OH238634   1.561   2.546   2.398 -0.5290  0.4468 -0.3055
 5692TIP3    H138635   1.548   2.458   2.363  2.2333  0.7342 -2.4706
 5692TIP3    H238636   1.639   2.538   2.453  0.3918  1.6745 -1.3719
 5693TIP3   OH238637   4.546   3.399   0.263  0.2123 -0.1479  0.6235
 5693TIP3    H138638   4.518   3.328   0.321  0.2665  0.1776  1.0455
 5693TIP3    H238639   4.619   3.440   0.308  0.3352  0.0282  0.2668
 5694TIP3   OH238640   0.732   5.953   8.563  0.1975 -0.3575 -0.3461
 5694TIP3    H138641   0.763   6.044   8.564 -1.7279  0.3866 -2.0524
 5694TIP3    H238642   0.644   5.957   8.602  0.0339 -1.4732 -0.5655
 5695TIP3   OH238643   4.636   1.097   1.167  0.4459  0.4378  0.0676
 5695TIP3    H138644   4.725   1.088   1.134  0.2853  0.9553 -0.5215
 5695TIP3    H238645   4.594   1.013   1.148  1.1685 -0.3040  1.5263
 5696TIP3   OH238646   0.925   1.445   8.363  0.0738  0.1857 -0.3575
 5696TIP3    H138647   0.939   1.522   8.419 -0.8086  0.8781 -1.0633
 5696TIP3    H238648   0.970   1.374   8.409  1.7503  1.3022 -0.1790
 5697TIP3   OH238649   0.210   4.254   1.322  0.1144 -0.1443 -1.0750
 5697TIP3    H138650   0.248   4.298   1.398 -1.4751  1.0474 -0.9238
 5697TIP3    H238651   0.214   4.319   1.252  0.5472 -0.8440 -1.7135
 5698TIP3   OH238652   2.549   6.631   0.184  0.1713  0.1695 -0.2870
 5698TIP3    H138653   2.556   6.711   0.236  0.9151 -0.7208  1.0618
 5698TIP3    H238654   2.636   6.620   0.146 -0.1460  0.3925 -1.0877
 5699TIP3   OH238655   1.302   4.421   8.474 -0.0907  0.4451 -0.0414
 5699TIP3    H138656   1.345   4.379   8.399 -1.6643 -1.6887  0.1476
 5699TIP3    H238657   1.275   4.348   8.530 -1.6639  1.8096  1.0989
 5700TIP3   OH238658   3.313   4.471   2.285 -0.2859  0.6821  0.2668
 5700TIP3    H138659   3.338   4.405   2.220 -1.5115  0.2578  0.1934
 5700TIP3    H238660   3.334   4.554   2.244  0.1888  0.3733 -0.1258
 5701TIP3   OH238661   4.412   1.157   8.032 -0.6562 -0.4326  0.4052
 5701TIP3    H138662   4.391   1.085   7.973 -0.5652  0.7928 -1.2011
 5701TIP3    H238663   4.473   1.212   7.982 -0.1141  0.3532  1.8690
 5702TIP3   OH238664   3.390   3.550   8.119  0.0434 -0.5551 -0.0530
 5702TIP3    H138665   3.413   3.483   8.183  0.7546  0.5328  0.8543
 5702TIP3    H238666   3.320   3.509   8.067 -1.2664 -1.1167  2.0172
 5703TIP3   OH238667   0.725   2.530   3.101 -0.3677 -0.0855 -0.5907
 5703TIP3    H138668   0.739   2.624   3.095  0.3130 -0.2702 -3.1636
 5703TIP3    H238669   0.639   2.521   3.143  0.1986  1.5791  1.0399
 5704TIP3   OH238670   6.010   0.444   0.571  0.1005  0.1704 -0.3326
 5704TIP3    H138671   6.069   0.519   0.569 -0.1290  0.3566 -2.1669
 5704TIP3    H238672   6.025   0.403   0.656 -0.0662  2.5111  0.8860
 5705TIP3   OH238673   2.838   0.047   7.083  0.3880 -0.4342  0.1307
 5705TIP3    H138674   2.890   0.123   7.056 -1.4377  0.4953 -0.9669
 5705TIP3    H238675   2.802   0.073   7.168 -2.0283  0.9469 -1.2287
 5706TIP3   OH238676   4.620   4.097   7.828 -0.0277 -0.3731  0.0844
 5706TIP3    H138677   4.612   4.180   7.876  1.4647  0.4917 -1.0905
 5706TIP3    H238678   4.611   4.122   7.736 -2.6797 -1.9739 -0.1943
 5707TIP3   OH238679   0.325   0.592   2.188 -0.1453 -0.6963  0.2194
 5707TIP3    H138680   0.268   0.595   2.265  0.3205  0.3774  0.5356
 5707TIP3    H238681   0.412   0.573   2.224  0.5104  2.0592  0.2438
 5708TIP3   OH238682   2.623   2.959   7.922 -0.3503  0.0913 -0.7634
 5708TIP3    H138683   2.662   2.931   7.840 -0.7211 -0.8546 -0.6362
 5708TIP3    H238684   2.696   2.988   7.976  0.0211 -0.3673 -1.0178
 5709TIP3   OH238685   4.248   2.935   8.030 -0.1502 -0.2305 -0.6498
 5709TIP3    H138686   4.287   3.007   7.982  1.1650 -2.2034 -2.7557
 5709TIP3    H238687   4.169   2.913   7.981  0.7459 -1.7059 -1.5193
 5710TIP3   OH238688   2.871   4.288   2.049  0.5486  0.2091  0.0637
 5710TIP3    H138689   2.791   4.298   1.998  1.0397  0.5068 -0.6635
 5710TIP3    H238690   2.872   4.196   2.076  1.2514 -0.4830 -2.1481
 5711TIP3   OH238691   6.358   4.408   1.769 -0.3231 -0.6627  0.0282
 5711TIP3    H138692   6.443   4.366   1.773  0.0992  0.2457  0.9988
 5711TIP3    H238693   6.336   4.411   1.675  1.0236 -0.2821 -0.2908
 5712TIP3   OH238694   5.019   6.229   0.518 -0.4995 -0.4278 -0.2237
 5712TIP3    H138695   5.067   6.309   0.498  1.7074 -1.6001  0.0228
 5712TIP3    H238696   4.969   6.210   0.439  1.8262 -0.6979 -1.7493
 5713TIP3   OH238697   1.811   6.478   6.556  0.4809 -0.0152  0.6746
 5713TIP3    H138698   1.889   6.495   6.608  0.0022  0.4179  1.2788
 5713TIP3    H238699   1.838   6.491   6.466  0.9823  0.6468  0.9088
 5714TIP3   OH238700   2.249   2.250   0.751 -0.4422  0.0497  0.3971
 5714TIP3    H138701   2.182   2.219   0.812  0.3549  0.2813  1.3992
 5714TIP3    H238702   2.313   2.178   0.747 -0.0114  0.4236  0.5658
 5715TIP3   OH238703   0.061   2.378   1.468 -0.0786 -0.1119 -0.8383
 5715TIP3    H138704   0.073   2.406   1.377  0.0907 -0.7495 -1.0118
 5715TIP3    H238705  -0.002   2.306   1.463 -1.0387  0.6662 -0.3181
 5716TIP3   OH238706   3.368   5.799   0.334 -0.2335  0.0955  0.4306
 5716TIP3    H138707   3.462   5.820   0.338 -0.2376  0.1863 -0.0011
 5716TIP3    H238708   3.364   5.719   0.283 -0.3428 -0.2331  0.9438
 5717TIP3   OH238709   6.090   4.791   1.998  1.0202 -0.2291  0.1672
 5717TIP3    H138710   6.109   4.698   1.989 -1.6859 -0.7150 -1.7627
 5717TIP3    H238711   6.027   4.796   2.070 -0.1001 -0.1539 -0.7876
 5718TIP3   OH238712   6.241   6.075   7.214  0.2569 -0.4957  0.2639
 5718TIP3    H138713   6.205   5.995   7.176  0.2581 -1.1577  1.5905
 5718TIP3    H238714   6.207   6.076   7.304  0.0341  1.1448  0.1731
 5719TIP3   OH238715   3.430   5.790   8.044  0.1560 -0.1240 -0.0035
 5719TIP3    H138716   3.355   5.740   8.077  0.8094 -0.1260  1.5046
 5719TIP3    H238717   3.489   5.798   8.118  1.1506  0.8651 -0.8683
 5720TIP3   OH238718   1.537   5.445   1.226  0.0950  0.5383 -0.1229
 5720TIP3    H138719   1.491   5.431   1.308  0.9104 -0.9895  0.1077
 5720TIP3    H238720   1.566   5.536   1.230  0.5356  0.3586  1.5026
 5721TIP3   OH238721   5.293   3.781   6.888 -0.3876 -0.0117  0.3131
 5721TIP3    H138722   5.281   3.716   6.819 -1.2640 -0.4885  0.9087
 5721TIP3    H238723   5.342   3.735   6.956 -1.4318 -0.2081  0.9451
 5722TIP3   OH238724   5.024   0.083   2.435 -0.1268 -0.2310 -0.1432
 5722TIP3    H138725   5.036   0.013   2.371  0.8421  0.1315 -0.3731
 5722TIP3    H238726   4.930   0.085   2.450 -0.2374 -1.1646 -0.6016
 5723TIP3   OH238727   4.089   3.637   6.696 -0.1635  0.3494  0.2173
 5723TIP3    H138728   4.157   3.679   6.643 -0.8278  0.3020 -0.6990
 5723TIP3    H238729   4.136   3.600   6.771  0.9157 -0.1645 -0.6801
 5724TIP3   OH238730   0.475   2.528   0.302 -0.2068 -0.1685  0.1438
 5724TIP3    H138731   0.496   2.613   0.262  0.4940 -0.2247  0.3916
 5724TIP3    H238732   0.524   2.527   0.384 -0.2869 -0.7758  0.1883
 5725TIP3   OH238733   2.908   6.362   0.889  0.4169  0.0627  0.4592
 5725TIP3    H138734   2.928   6.339   0.979  1.5519  1.4024  0.5791
 5725TIP3    H238735   2.987   6.405   0.856  0.0819 -0.5177 -1.2294
 5726TIP3   OH238736   0.406   5.137   0.353  1.0257  0.0830 -0.2956
 5726TIP3    H138737   0.411   5.112   0.445 -1.9584  0.7132  0.1713
 5726TIP3    H238738   0.391   5.055   0.306 -2.1375  0.1138  0.4394
 5727TIP3   OH238739   5.671   2.311   0.810  0.9696 -0.1090  0.0633
 5727TIP3    H138740   5.719   2.329   0.729  0.6949 -1.4064 -0.4005
 5727TIP3    H238741   5.737   2.318   0.878  1.5412 -0.5246 -0.4336
 5728TIP3   OH238742   0.279   2.483   1.941  0.6806 -0.1280  0.2072
 5728TIP3    H138743   0.264   2.407   1.884 -3.5989  0.3193  0.4266
 5728TIP3    H238744   0.222   2.551   1.906  1.6698  1.8463  2.1738
 5729TIP3   OH238745   4.840   6.534   2.499  0.0096  0.8753 -0.0731
 5729TIP3    H138746   4.913   6.507   2.555 -1.1981 -1.4744  0.5180
 5729TIP3    H238747   4.802   6.609   2.543  0.6787  0.6930  0.8500
 5730TIP3   OH238748   1.533   1.662   7.161  0.9897 -0.0118 -0.3458
 5730TIP3    H138749   1.566   1.670   7.071  0.6648  0.1432 -0.4513
 5730TIP3    H238750   1.473   1.588   7.159 -0.3585  1.0566 -0.6623
 5731TIP3   OH238751   5.820   6.465   7.686 -0.1993 -0.1147  0.4666
 5731TIP3    H138752   5.779   6.383   7.715 -0.7661 -0.6485 -1.7267
 5731TIP3    H238753   5.764   6.534   7.723 -0.6217 -0.7429  1.0267
 5732TIP3   OH238754   5.903   1.551   2.200  0.0228  0.3034  0.0096
 5732TIP3    H138755   5.878   1.473   2.250 -1.0439  1.2250  0.9795
 5732TIP3    H238756   5.874   1.624   2.254 -0.2730  1.3638 -1.5214
 5733TIP3   OH238757   5.263   4.897   7.976 -0.0301 -0.8888 -0.2096
 5733TIP3    H138758   5.241   4.947   7.897  3.0625  0.1359 -0.5831
 5733TIP3    H238759   5.319   4.826   7.944 -0.9247 -2.1022  0.8210
 5734TIP3   OH238760   0.971   6.697   1.458 -0.0433 -0.1962 -0.5018
 5734TIP3    H138761   0.954   6.696   1.552 -1.1166 -0.3043 -0.6783
 5734TIP3    H238762   0.905   6.757   1.423  0.5378  0.0747 -1.1573
 5735TIP3   OH238763   1.204   4.210   1.054 -0.1107 -0.0741 -0.5244
 5735TIP3    H138764   1.247   4.141   1.104  2.5229  1.2727 -0.7479
 5735TIP3    H238765   1.193   4.282   1.115 -0.2970  0.2735 -0.9569
 5736TIP3   OH238766   6.462   1.593   0.489 -0.1343  0.1554  0.2416
 5736TIP3    H138767   6.510   1.522   0.530 -0.4914  0.2062  0.7582
 5736TIP3    H238768   6.511   1.672   0.511 -1.5775  0.4714  2.6075
 5737TIP3   OH238769   4.134   2.794   7.202  0.3809 -0.4580  0.0068
 5737TIP3    H138770   4.078   2.859   7.243  0.4514  0.3708 -1.1478
 5737TIP3    H238771   4.159   2.833   7.118  0.0638 -2.1409 -0.9326
 5738TIP3   OH238772   3.568   5.132   7.372  0.1012 -0.1137 -0.4022
 5738TIP3    H138773   3.564   5.069   7.300  0.7067 -0.6977  0.0595
 5738TIP3    H238774   3.637   5.194   7.346  0.6386 -0.5873 -0.1338
 5739TIP3   OH238775   4.266   0.451   2.142 -0.3062  0.3113 -0.0828
 5739TIP3    H138776   4.290   0.377   2.198  2.8508  0.8285 -0.5815
 5739TIP3    H238777   4.229   0.516   2.202 -4.6494 -2.0351  0.1847
 5740TIP3   OH238778   4.169   3.757   1.755 -0.3567 -0.3484  0.3688
 5740TIP3    H138779   4.155   3.837   1.806 -0.5904 -0.3798  0.3524
 5740TIP3    H238780   4.128   3.774   1.670 -1.2125 -0.8289  0.6801
 5741TIP3   OH238781   2.217   5.381   3.015  0.0081  0.3538  0.5813
 5741TIP3    H138782   2.191   5.360   3.105 -0.4860 -0.3423  0.2909
 5741TIP3    H238783   2.312   5.370   3.013 -0.0022  0.1921  0.9749
 5742TIP3   OH238784   4.963   6.650   1.180  0.5891 -0.6641  0.1506
 5742TIP3    H138785   4.983   6.556   1.172  0.0338 -0.8125  0.4512
 5742TIP3    H238786   4.974   6.684   1.091 -1.4254 -1.4660 -0.4819
 5743TIP3   OH238787   0.855   3.685   2.025  0.2146  0.5311 -0.4245
 5743TIP3    H138788   0.824   3.774   2.038  0.6104  0.4627  1.1568
 5743TIP3    H238789   0.783   3.630   2.054  0.3851  0.3453 -0.3500
 5744TIP3   OH238790   6.364   2.166   2.123  0.3824 -0.0662  0.2577
 5744TIP3    H138791   6.385   2.123   2.205  0.5000 -1.1697 -0.3405
 5744TIP3    H238792   6.271   2.147   2.109  0.0376  1.1360  0.7128
 5745TIP3   OH238793   4.709   0.711   8.416 -0.2558 -0.2374  0.3824
 5745TIP3    H138794   4.641   0.778   8.410 -1.6867 -1.5572  1.1352
 5745TIP3    H238795   4.730   0.690   8.325 -0.3781  0.6330  0.1424
 5746TIP3   OH238796   6.096   1.432   0.570  0.5194 -0.7308  0.1573
 5746TIP3    H138797   6.189   1.410   0.568  0.5583 -0.5246 -1.0123
 5746TIP3    H238798   6.060   1.380   0.642  1.5813 -0.5976  0.8127
 5747TIP3   OH238799   2.455   1.632   2.496 -0.5548 -0.2726  0.0900
 5747TIP3    H138800   2.444   1.599   2.407 -0.7219 -0.1680  0.0713
 5747TIP3    H238801   2.491   1.558   2.545 -0.9363 -0.4900  0.0499
 5748TIP3   OH238802   4.136   4.088   1.141 -0.1059  0.5700 -0.1584
 5748TIP3    H138803   4.144   4.030   1.216 -0.7250  0.5135 -0.1331
 5748TIP3    H238804   4.091   4.166   1.174 -0.1342  0.6627 -0.4077
 5749TIP3   OH238805   6.266   5.736   1.115 -0.1838  0.7827  0.5696
 5749TIP3    H138806   6.268   5.815   1.060  1.2297 -0.3379 -1.1100
 5749TIP3    H238807   6.190   5.686   1.082 -1.0796  1.3983  1.6336
 5750TIP3   OH238808   5.966   6.764   2.509  0.4258 -0.6079  0.0659
 5750TIP3    H138809   5.938   6.732   2.595  1.7483 -1.2659  0.2778
 5750TIP3    H238810   6.034   6.702   2.482  1.0263  0.4077 -0.8104
 5751TIP3   OH238811   1.295   4.732   8.282  0.1990 -0.6607 -0.4971
 5751TIP3    H138812   1.380   4.694   8.306 -0.0275 -0.7315  0.2045
 5751TIP3    H238813   1.271   4.786   8.357 -0.6465 -1.0900 -0.4490
 5752TIP3   OH238814   0.440   3.280   0.564 -0.6502 -0.1130  0.4131
 5752TIP3    H138815   0.388   3.200   0.560 -1.4026  0.3744  0.2863
 5752TIP3    H238816   0.384   3.347   0.525 -0.0064  0.4672  0.4699
 5753TIP3   OH238817   4.190   0.465   0.745  0.3708  0.6293 -0.0154
 5753TIP3    H138818   4.236   0.416   0.812 -0.8457 -3.2184 -1.7039
 5753TIP3    H238819   4.098   0.438   0.753  0.0261  0.7374 -2.5260
 5754TIP3   OH238820   0.386   2.627   2.583 -0.2848  0.1340 -0.0594
 5754TIP3    H138821   0.347   2.602   2.667  2.6909 -0.6579  1.2130
 5754TIP3    H238822   0.350   2.714   2.565 -1.9820 -0.2195  1.3587
 5755TIP3   OH238823   2.172   4.569   0.055  0.0541  0.5551  0.0792
 5755TIP3    H138824   2.118   4.645   0.034  1.2275  0.8288 -2.2960
 5755TIP3    H238825   2.156   4.508  -0.016  1.0963 -0.3426  0.5851
 5756TIP3   OH238826   2.453   2.764   8.022  0.0558  0.2264  0.6221
 5756TIP3    H138827   2.430   2.787   8.111  1.3426 -0.0694  1.0497
 5756TIP3    H238828   2.522   2.826   7.998  0.4877 -0.3933  0.2363
 5757TIP3   OH238829   0.334   5.750   0.244  0.0386 -0.5949 -0.3273
 5757TIP3    H138830   0.415   5.726   0.200  0.4094  1.4034 -0.8700
 5757TIP3    H238831   0.267   5.693   0.205  0.6850 -0.1862 -2.1400
 5758TIP3   OH238832   2.820   2.901   0.951  0.4677 -0.2998  0.7478
 5758TIP3    H138833   2.859   2.836   0.891  0.5934  1.3621 -1.1012
 5758TIP3    H238834   2.726   2.891   0.939  0.4120 -1.3620  1.8942
 5759TIP3   OH238835   4.870   1.258   7.941 -0.1979 -0.3310  0.4826
 5759TIP3    H138836   4.887   1.291   8.030  0.1625  0.1060  0.2526
 5759TIP3    H238837   4.795   1.308   7.911 -0.4123 -0.5827  0.5940
 5760TIP3   OH238838   0.629   0.386   7.675  0.0534 -0.2781 -0.0971
 5760TIP3    H138839   0.564   0.422   7.736 -0.7395 -0.9217 -0.5349
 5760TIP3    H238840   0.659   0.462   7.624 -0.0209  0.0970  0.4141
 5761TIP3   OH238841   3.767   4.272   0.369 -0.1417  0.4961 -0.0231
 5761TIP3    H138842   3.840   4.327   0.397  0.0610  0.3138 -0.1933
 5761TIP3    H238843   3.776   4.267   0.274  0.3675 -0.5716  0.0730
 5762TIP3   OH238844   0.057   1.545   0.453 -0.0902 -0.2235 -0.2490
 5762TIP3    H138845   0.052   1.630   0.409 -0.6063  0.2511  0.6749
 5762TIP3    H238846   0.138   1.506   0.421 -0.6175 -0.0527 -1.8449
 5763TIP3   OH238847   5.659   6.254   8.283 -0.2764  0.0304  0.5929
 5763TIP3    H138848   5.671   6.262   8.377  1.1575 -0.9741  0.5238
 5763TIP3    H238849   5.683   6.164   8.263 -1.2392  0.0140 -0.6554
 5764TIP3   OH238850   4.248   5.387   8.525  0.7061  0.1100 -1.0894
 5764TIP3    H138851   4.180   5.330   8.562  0.3025  0.7336 -0.8517
 5764TIP3    H238852   4.323   5.374   8.582 -0.1958  1.7611  0.5763
 5765TIP3   OH238853   5.184   2.972   7.545 -0.1255 -0.1493  0.5274
 5765TIP3    H138854   5.237   2.910   7.495 -1.6105 -1.9377  1.0386
 5765TIP3    H238855   5.178   3.049   7.488  0.3678 -1.1272 -0.9105
 5766TIP3   OH238856   3.238   1.389   0.900  0.1823 -0.0332 -0.5794
 5766TIP3    H138857   3.250   1.478   0.932  0.5694  0.4796 -2.0734
 5766TIP3    H238858   3.262   1.393   0.808 -0.9088 -1.4357 -0.9625
 5767TIP3   OH238859   2.732   1.622   1.440  0.3121 -0.2695  0.2768
 5767TIP3    H138860   2.751   1.716   1.440  1.0399 -0.3705 -1.3873
 5767TIP3    H238861   2.679   1.608   1.518  0.6309  1.4291  0.8453
 5768TIP3   OH238862   6.641   5.255   8.305  0.3298 -0.2757 -0.4719
 5768TIP3    H138863   6.558   5.276   8.261  0.9346 -0.3740 -1.7010
 5768TIP3    H238864   6.650   5.322   8.373 -1.1295 -0.7270  0.2001
 5769TIP3   OH238865   5.398   0.800   8.436 -0.6318  0.0680  1.3058
 5769TIP3    H138866   5.472   0.823   8.380 -0.5785  1.6140  1.9626
 5769TIP3    H238867   5.335   0.871   8.423 -1.7373 -0.8990  1.2350
 5770TIP3   OH238868   4.852   0.838   7.671 -0.0527 -0.1671 -0.5153
 5770TIP3    H138869   4.789   0.875   7.609  1.1657  2.5173 -0.2856
 5770TIP3    H238870   4.834   0.885   7.753  0.9481 -0.8254  0.0996
 5771TIP3   OH238871   2.764   6.332   1.366  0.0809  0.0614 -0.1465
 5771TIP3    H138872   2.842   6.322   1.420  0.3270 -0.8705 -0.6433
 5771TIP3    H238873   2.795   6.315   1.277 -0.3959  1.1658 -0.5397
 5772TIP3   OH238874   4.803   2.510   8.572  0.6386 -0.0407  0.0132
 5772TIP3    H138875   4.824   2.601   8.590 -0.9353  0.5784 -1.0181
 5772TIP3    H238876   4.814   2.465   8.656  3.1778  0.6941  0.1643
 5773TIP3   OH238877   3.604   2.461   0.529  0.1077  0.7327 -0.2577
 5773TIP3    H138878   3.665   2.392   0.502 -0.1367  1.0972 -1.8377
 5773TIP3    H238879   3.637   2.540   0.487 -0.1130  1.4207  0.8278
 5774TIP3   OH238880   3.352   1.929   2.559 -0.2047  0.2031 -0.2368
 5774TIP3    H138881   3.362   1.955   2.650 -1.4744 -0.5848  0.1410
 5774TIP3    H238882   3.441   1.906   2.531 -0.0669 -1.4674  1.4012
 5775TIP3   OH238883   1.778   3.697   8.155 -0.3334  0.4222  0.3801
 5775TIP3    H138884   1.777   3.692   8.251  0.0103  0.5683  0.3913
 5775TIP3    H238885   1.852   3.642   8.129 -1.4429 -1.0227  0.1054
 5776TIP3   OH238886   6.664   0.668   8.576 -0.7136  0.1329  0.6335
 5776TIP3    H138887   6.589   0.683   8.633 -0.2749  1.3893  0.9198
 5776TIP3    H238888   6.710   0.752   8.575 -0.0732 -0.2044 -0.6423
 5777TIP3   OH238889   2.812   6.671   6.924 -0.2805 -0.0070 -0.5060
 5777TIP3    H138890   2.835   6.589   6.968 -0.2307  0.4728  0.3988
 5777TIP3    H238891   2.812   6.650   6.831  0.9211 -0.7325 -0.3593
 5778TIP3   OH238892   6.847   4.478   1.703  0.3241 -0.5684 -0.0647
 5778TIP3    H138893   6.824   4.569   1.724  1.8305 -0.5462  1.7897
 5778TIP3    H238894   6.810   4.427   1.774  1.8938 -1.0364  0.4613
 5779TIP3   OH238895   3.990   2.585   8.198 -0.4315  0.0430 -0.3025
 5779TIP3    H138896   3.991   2.512   8.261 -0.0073 -1.9170 -2.4208
 5779TIP3    H238897   3.898   2.611   8.193 -0.7700 -1.0787 -0.2448
 5780TIP3   OH238898   1.728   2.387   7.513 -0.0529  0.4882  0.5188
 5780TIP3    H138899   1.778   2.415   7.437 -0.9748  0.3314 -0.1552
 5780TIP3    H238900   1.636   2.403   7.489 -0.5697 -2.1845  0.4571
 5781TIP3   OH238901   3.510   5.890   1.431 -0.0616  0.0083  0.3440
 5781TIP3    H138902   3.487   5.804   1.466 -1.0940 -0.2864 -0.9581
 5781TIP3    H238903   3.606   5.889   1.426 -0.0929 -1.4256 -0.4798
 5782TIP3   OH238904   6.574   1.919   1.434 -0.6476 -0.7217 -0.2163
 5782TIP3    H138905   6.650   1.872   1.400 -1.4398 -1.5000 -0.9491
 5782TIP3    H238906   6.575   1.900   1.528  1.0914  0.7794  0.1289
 5783TIP3   OH238907   5.362   5.809   8.120  0.1917  0.1256  0.1717
 5783TIP3    H138908   5.360   5.714   8.131  0.1684  0.2302  1.0831
 5783TIP3    H238909   5.414   5.841   8.193  2.0387  0.6654 -1.2842
 5784TIP3   OH238910   5.216   2.270   2.009  0.0952  0.2844  0.4639
 5784TIP3    H138911   5.184   2.355   2.039 -0.0264  1.2461 -2.0953
 5784TIP3    H238912   5.308   2.286   1.988 -0.3490  0.3206 -1.6669
 5785TIP3   OH238913   0.685   6.535   1.613 -0.0589 -0.0644  0.1447
 5785TIP3    H138914   0.657   6.447   1.639  0.1773  0.3837  2.0712
 5785TIP3    H238915   0.754   6.520   1.548 -0.0772 -1.3054  0.3823
 5786TIP3   OH238916   5.627   3.013   1.782  0.0225  0.1844 -0.0183
 5786TIP3    H138917   5.561   3.054   1.838  2.0716  0.5665  2.3196
 5786TIP3    H238918   5.661   3.085   1.728 -1.8543 -0.1511 -1.7408
 5787TIP3   OH238919   5.433   1.984   8.225  0.8712 -0.3855  0.8222
 5787TIP3    H138920   5.350   1.995   8.270 -0.1525 -0.1509 -1.0404
 5787TIP3    H238921   5.422   1.905   8.172  2.3117 -1.0947  1.5025
 5788TIP3   OH238922   5.960   5.065   0.648 -0.0430 -0.3783  0.0430
 5788TIP3    H138923   5.931   5.156   0.654  0.8832 -0.1190  0.9443
 5788TIP3    H238924   5.978   5.040   0.738 -0.2352 -1.4498 -0.2018
 5789TIP3   OH238925   2.429   5.915   8.415 -0.7262 -0.5339 -0.4655
 5789TIP3    H138926   2.385   5.928   8.499 -1.2904  1.1166 -0.9706
 5789TIP3    H238927   2.477   5.832   8.425 -1.1096 -0.5798  1.3211
 5790TIP3   OH238928   4.551   3.819   6.534 -0.1680  0.0901 -0.2747
 5790TIP3    H138929   4.577   3.902   6.494 -0.6008 -1.2759 -3.7416
 5790TIP3    H238930   4.456   3.815   6.523 -0.3083 -0.4108  0.9169
 5791TIP3   OH238931   2.429   0.897   1.854  0.0940 -0.0731  0.0028
 5791TIP3    H138932   2.372   0.907   1.930 -0.7128 -3.8145  0.1128
 5791TIP3    H238933   2.391   0.956   1.788 -2.0751 -0.1736  1.0497
 5792TIP3   OH238934   1.324   0.171   0.279  0.2623  0.1888 -0.4429
 5792TIP3    H138935   1.277   0.254   0.273 -0.2863 -0.0264  0.7615
 5792TIP3    H238936   1.344   0.149   0.188 -1.2560  0.6805 -0.9216
 5793TIP3   OH238937   5.639   3.377   0.236 -0.2210 -0.4320 -0.1292
 5793TIP3    H138938   5.667   3.330   0.157  2.9840 -1.3267  1.3760
 5793TIP3    H238939   5.562   3.328   0.266  0.2240 -1.8444 -1.1440
 5794TIP3   OH238940   4.669   1.108   7.128 -0.3201  0.2714  0.0868
 5794TIP3    H138941   4.660   1.017   7.155  1.3827 -0.0187 -0.1929
 5794TIP3    H238942   4.652   1.159   7.208 -0.9466 -0.2912  0.3225
 5795TIP3   OH238943   4.798   0.997   7.899 -0.0259 -0.4116  0.6173
 5795TIP3    H138944   4.819   1.087   7.922  2.5058 -0.7197 -0.2318
 5795TIP3    H238945   4.745   0.966   7.973 -3.8070  2.6076 -0.4728
 5796TIP3   OH238946   4.151   4.135   8.041  0.3243  0.2472 -0.1959
 5796TIP3    H138947   4.198   4.183   7.972 -0.5154  0.7053 -0.4652
 5796TIP3    H238948   4.121   4.055   7.998  1.6268 -0.4933  0.2236
 5797TIP3   OH238949   0.517   3.607   0.907  0.0980  0.1760  0.3393
 5797TIP3    H138950   0.514   3.638   0.816 -1.5091  0.3658  0.4328
 5797TIP3    H238951   0.498   3.513   0.901 -0.0644  0.1990  0.4741
 5798TIP3   OH238952   4.590   4.415   1.407  0.1674  0.0566  0.6629
 5798TIP3    H138953   4.610   4.480   1.474 -1.1464  1.7867 -0.5174
 5798TIP3    H238954   4.494   4.409   1.408  0.2396 -1.5008  0.3929
 5799TIP3   OH238955   1.760   0.875   8.301 -0.1943  0.1665 -0.5653
 5799TIP3    H138956   1.807   0.936   8.244  1.0415 -0.2806 -0.0570
 5799TIP3    H238957   1.762   0.792   8.255 -0.4206  0.1204 -0.4947
 5800TIP3   OH238958   1.491   3.750   1.130  0.0743  0.1739  0.5424
 5800TIP3    H138959   1.465   3.679   1.071  3.4450  0.3016 -1.3488
 5800TIP3    H238960   1.489   3.711   1.217 -1.7291 -1.0629 -0.0028
 5801TIP3   OH238961   5.609   5.330   1.346 -0.1024  0.5088 -0.5180
 5801TIP3    H138962   5.651   5.245   1.335 -2.1326 -0.4364 -1.4548
 5801TIP3    H238963   5.589   5.335   1.439 -1.4336 -0.8042 -0.7024
 5802TIP3   OH238964   4.222   2.910   3.049  0.4948 -0.3350  0.1272
 5802TIP3    H138965   4.287   2.847   3.080  0.1868 -2.2011 -2.6583
 5802TIP3    H238966   4.138   2.868   3.067  0.1413  0.6331  0.8268
 5803TIP3   OH238967   1.347   2.563   2.900 -0.9697  0.0851  0.0472
 5803TIP3    H138968   1.343   2.597   2.810 -0.5743  0.3587  0.1296
 5803TIP3    H238969   1.342   2.641   2.955  0.3967  0.0714  0.2341
 5804TIP3   OH238970   5.570   2.435   1.175 -0.8294 -0.4554 -0.1388
 5804TIP3    H138971   5.570   2.514   1.230 -1.9221 -1.3461  1.1970
 5804TIP3    H238972   5.572   2.469   1.085  0.4957  1.0512  0.4021
 5805TIP3   OH238973   6.402   6.718   7.112 -0.5193 -0.5532 -0.1088
 5805TIP3    H138974   6.438   6.792   7.063 -1.8850 -0.9134 -1.7578
 5805TIP3    H238975   6.311   6.743   7.130 -0.4644 -1.0669  0.9726
 5806TIP3   OH238976   2.955   1.341   1.362  0.3637 -0.0628  0.0862
 5806TIP3    H138977   2.975   1.287   1.438  0.7520  1.1808  0.8813
 5806TIP3    H238978   2.893   1.407   1.394 -1.7533 -1.2252 -1.3348
 5807TIP3   OH238979   1.255   6.085   2.250 -0.2141 -0.1273 -0.2142
 5807TIP3    H138980   1.329   6.026   2.239 -0.1115 -1.1957  4.4455
 5807TIP3    H238981   1.295   6.172   2.258  1.2236 -0.9331  4.9450
 5808TIP3   OH238982   4.561   1.858   1.675 -0.2343  0.2465  0.2032
 5808TIP3    H138983   4.599   1.915   1.608 -2.1437  3.7626  1.8283
 5808TIP3    H238984   4.636   1.833   1.730  0.8123  0.4219 -1.0903
 5809TIP3   OH238985   3.237   0.667   7.346  0.5812 -0.0811 -0.2583
 5809TIP3    H138986   3.239   0.576   7.377 -0.9785 -0.6233 -1.5992
 5809TIP3    H238987   3.255   0.660   7.252  1.9589  1.1775 -0.1121
 5810TIP3   OH238988   3.975   1.158   0.657 -0.0994  0.4781 -0.2465
 5810TIP3    H138989   4.013   1.239   0.693  0.4836 -0.2599  0.8627
 5810TIP3    H238990   3.908   1.133   0.722  0.3949 -0.4400 -0.0864
 5811TIP3   OH238991   2.012   0.487   2.439  0.4207  0.0588  0.5183
 5811TIP3    H138992   2.033   0.507   2.530  1.7217 -1.0432  0.4969
 5811TIP3    H238993   2.089   0.515   2.390  0.1605 -0.3155 -0.1123
 5812TIP3   OH238994   6.824   5.998   1.731 -0.3935 -0.7763 -0.6421
 5812TIP3    H138995   6.795   5.909   1.714 -1.9578 -0.2235 -1.0971
 5812TIP3    H238996   6.769   6.027   1.804 -0.1766 -0.0612 -0.7525
 5813TIP3   OH238997   1.678   6.740   1.323  0.0246 -0.2794 -0.3078
 5813TIP3    H138998   1.611   6.799   1.289  0.5858 -0.2726 -1.4344
 5813TIP3    H238999   1.652   6.654   1.289  0.7459 -0.2270 -1.0167
 5814TIP3   OH239000   0.916   0.751   7.103 -0.2911 -0.0356  0.5212
 5814TIP3    H139001   0.893   0.684   7.039 -1.3025  0.1878  0.6321
 5814TIP3    H239002   1.007   0.774   7.082 -0.6420  0.1372 -0.9230
 5815TIP3   OH239003   2.562   2.243   8.088  0.2180  0.0539 -0.2948
 5815TIP3    H139004   2.570   2.307   8.159  1.2809  0.6111 -0.8904
 5815TIP3    H239005   2.472   2.211   8.095  0.5591 -0.6469  1.9364
 5816TIP3   OH239006   4.193   5.904   0.414  0.2610 -0.3119 -0.0459
 5816TIP3    H139007   4.267   5.939   0.364  0.3019  1.7224  1.3490
 5816TIP3    H239008   4.117   5.951   0.381 -0.0368 -0.5709  0.2733
 5817TIP3   OH239009   1.755   4.591   7.559 -0.3486  0.2797 -0.2430
 5817TIP3    H139010   1.785   4.605   7.649 -0.8114 -0.1640 -0.0091
 5817TIP3    H239011   1.828   4.548   7.515  0.0163  0.8320 -0.1839
 5818TIP3   OH239012   2.996   4.514   1.447 -0.1523  0.0487 -0.1975
 5818TIP3    H139013   3.045   4.596   1.456  0.0226 -0.1874  1.0909
 5818TIP3    H239014   3.021   4.462   1.524 -1.3335 -0.6482 -0.2692
 5819TIP3   OH239015   2.305   0.464   7.296  0.3438  0.0258  0.3982
 5819TIP3    H139016   2.247   0.415   7.236  2.6403 -1.3163 -0.8755
 5819TIP3    H239017   2.282   0.556   7.281 -1.0759 -0.4222 -0.4291
 5820TIP3   OH239018   5.518   1.060   1.034  0.5215  0.6539  0.4242
 5820TIP3    H139019   5.524   0.983   1.091  1.4819  2.0646  2.3405
 5820TIP3    H239020   5.442   1.109   1.067 -1.0147 -0.1425 -1.7395
 5821TIP3   OH239021   4.392   2.566   1.896  0.3995 -0.2786 -0.5442
 5821TIP3    H139022   4.435   2.578   1.811 -1.4253  0.5811 -1.4141
 5821TIP3    H239023   4.432   2.487   1.932  1.1444 -0.7471 -2.2637
 5822TIP3   OH239024   4.372   2.053   1.981  0.2691 -0.0972  0.5112
 5822TIP3    H139025   4.405   1.992   2.046 -0.5032  0.2507  1.2414
 5822TIP3    H239026   4.369   2.001   1.900 -0.4523 -1.0811  1.1281
 5823TIP3   OH239027   2.684   3.612   7.912  0.2657  0.3720  0.3818
 5823TIP3    H139028   2.755   3.552   7.890  0.2526 -0.2115  1.8153
 5823TIP3    H239029   2.606   3.557   7.918 -0.1455  0.8644 -0.2853
 5824TIP3   OH239030   4.323   3.856   0.599  0.0585 -0.4035  0.1658
 5824TIP3    H139031   4.250   3.845   0.539 -0.5635  0.9234  0.6516
 5824TIP3    H239032   4.287   3.834   0.685  0.5083 -0.7126  0.2813
 5825TIP3   OH239033   5.192   2.552   1.070 -0.3940  0.3089 -0.2581
 5825TIP3    H139034   5.156   2.466   1.092  1.2759 -0.6963 -1.1720
 5825TIP3    H239035   5.191   2.601   1.152 -0.3919 -0.9779  0.5342
 5826TIP3   OH239036   5.461   6.759   0.631 -0.1764 -0.3111 -0.4735
 5826TIP3    H139037   5.434   6.746   0.722 -0.5485  0.6394 -0.4336
 5826TIP3    H239038   5.383   6.741   0.579 -0.2678  0.1769 -0.5175
 5827TIP3   OH239039   4.102   3.454   1.554 -0.2159 -0.3092  0.1509
 5827TIP3    H139040   4.180   3.509   1.550 -1.7374  2.0156 -0.3594
 5827TIP3    H239041   4.122   3.386   1.617  1.8028  0.8990  0.8925
 5828TIP3   OH239042   3.401   1.425   8.183 -0.1192  0.3372 -0.5478
 5828TIP3    H139043   3.374   1.511   8.216 -1.8812  0.4120 -1.9924
 5828TIP3    H239044   3.378   1.364   8.253  0.1000  0.9086  0.0319
 5829TIP3   OH239045   0.117   2.006   0.542  0.0444  0.3102  0.5693
 5829TIP3    H139046   0.030   2.012   0.502 -0.3392  1.0617  1.4701
 5829TIP3    H239047   0.166   1.947   0.485 -1.3310 -0.8641  0.5322
 5830TIP3   OH239048   2.957   0.657   0.575 -0.4766  0.5224  0.2150
 5830TIP3    H139049   3.005   0.636   0.495  1.8764  0.9711  1.4100
 5830TIP3    H239050   2.949   0.753   0.573 -1.3656  0.4511  0.0254
 5831TIP3   OH239051   0.196   3.932   1.741  0.5216 -0.2396 -0.3631
 5831TIP3    H139052   0.221   3.966   1.655  0.1908  3.1529  0.7395
 5831TIP3    H239053   0.278   3.902   1.780  0.7222 -1.5341 -1.6654
 5832TIP3   OH239054   6.535   1.516   0.163 -0.1950 -0.3921 -0.3754
 5832TIP3    H139055   6.447   1.529   0.200  0.7846  0.6883  1.7310
 5832TIP3    H239056   6.580   1.459   0.226  1.3843  1.1213 -0.0582
 5833TIP3   OH239057   0.278   4.385   7.802  0.1086 -0.3383 -0.0585
 5833TIP3    H139058   0.200   4.432   7.772 -0.0844 -0.6025  0.0311
 5833TIP3    H239059   0.319   4.352   7.722  1.3426  1.6621 -0.3293
 5834TIP3   OH239060   2.059   2.906   6.956  0.1822 -0.6620 -0.1468
 5834TIP3    H139061   2.129   2.892   7.020 -0.3816  0.2729  0.7008
 5834TIP3    H239062   1.983   2.860   6.992 -0.7058  1.5065  0.9304
 5835TIP3   OH239063   2.308   0.438   0.042  0.1424  0.2382  0.1909
 5835TIP3    H139064   2.251   0.414   0.115 -0.8330  0.4600 -0.4619
 5835TIP3    H239065   2.259   0.506  -0.004  1.5066  1.3323  0.3025
 5836TIP3   OH239066   0.981   2.826   1.286 -0.1334  0.1573 -0.1078
 5836TIP3    H139067   1.038   2.872   1.349 -0.6174  1.7475 -0.7734
 5836TIP3    H239068   0.929   2.896   1.246  1.0472 -0.5835 -3.2127
 5837TIP3   OH239069   1.184   3.762   1.223 -0.3754 -0.0861 -0.6376
 5837TIP3    H139070   1.183   3.713   1.141  1.5900 -0.2113 -0.6185
 5837TIP3    H239071   1.126   3.712   1.281  0.3531 -1.5402 -1.1100
 5838TIP3   OH239072   3.248   3.022   8.212 -0.0510 -0.3436  0.1740
 5838TIP3    H139073   3.191   3.092   8.244  0.1831 -0.6148  1.2101
 5838TIP3    H239074   3.187   2.955   8.180 -0.3594 -0.9056  1.8532
 5839TIP3   OH239075   2.994   0.453   8.437  0.0614 -0.0856 -0.2986
 5839TIP3    H139076   3.025   0.382   8.493  0.2350 -1.0408 -1.5604
 5839TIP3    H239077   3.062   0.463   8.370 -1.3522 -0.8434 -1.9335
 5840TIP3   OH239078   2.072   3.363   1.936 -0.0693 -0.2782  0.7349
 5840TIP3    H139079   2.051   3.344   2.027 -2.7743  0.0328  0.2573
 5840TIP3    H239080   2.111   3.283   1.902  0.3452 -0.6140  1.9718
 5841TIP3   OH239081   6.616   1.420   7.620 -0.2370  0.1872 -0.1437
 5841TIP3    H139082   6.705   1.415   7.655 -0.5903  1.2168  0.9823
 5841TIP3    H239083   6.578   1.498   7.662 -2.0263 -0.8235  0.2248
 5842TIP3   OH239084   6.081   3.507   1.365  0.3286  0.3846 -0.0711
 5842TIP3    H139085   5.991   3.497   1.334  0.1580  0.8811  0.2691
 5842TIP3    H239086   6.076   3.495   1.460  0.4455  1.5310  0.0890
 5843TIP3   OH239087   6.695   6.382   8.530  0.5707  0.2415  0.7010
 5843TIP3    H139088   6.770   6.422   8.575  1.0166 -0.2990  0.4473
 5843TIP3    H239089   6.710   6.288   8.537 -0.6626  0.0797  1.6205
 5844TIP3   OH239090   0.682   5.745   1.719  0.2610 -0.0318 -0.0154
 5844TIP3    H139091   0.670   5.673   1.657 -0.8724 -0.9685  1.2257
 5844TIP3    H239092   0.762   5.724   1.767 -1.2233 -1.7750  1.9067
 5845TIP3   OH239093   0.595   4.286   0.607  0.0257 -0.1975 -0.2144
 5845TIP3    H139094   0.633   4.215   0.659 -0.8653  0.5440  1.5373
 5845TIP3    H239095   0.669   4.337   0.576  0.6240 -1.2849 -0.6121
 5846TIP3   OH239096   5.745   1.186   7.559 -0.5050  0.3093 -0.3289
 5846TIP3    H139097   5.806   1.208   7.629 -0.0561 -0.1757 -0.5577
 5846TIP3    H239098   5.703   1.270   7.537 -1.6482  0.2501  1.4129
 5847TIP3   OH239099   0.852   4.242   1.555  0.0449 -0.0893  0.4246
 5847TIP3    H139100   0.822   4.154   1.578  2.0928 -0.8947  0.1593
 5847TIP3    H239101   0.773   4.286   1.522 -0.4992 -2.7478 -2.2454
 5848TIP3   OH239102   4.292   6.059   7.368 -0.1677  0.0609  0.3502
 5848TIP3    H139103   4.210   6.010   7.380 -0.0758 -0.5070 -1.2045
 5848TIP3    H239104   4.314   6.048   7.276  0.9871  1.2977  0.4432
 5849TIP3   OH239105   3.959   0.014   8.008  0.2000 -0.5124 -0.7530
 5849TIP3    H139106   3.901   0.007   8.084  1.8289  1.3369  0.7590
 5849TIP3    H239107   4.026  -0.053   8.023  0.7712  0.1459 -0.2765
 5850TIP3   OH239108   5.685   0.422   0.411  0.7391  0.2226 -0.5467
 5850TIP3    H139109   5.741   0.365   0.464  0.1540 -0.2853 -0.4595
 5850TIP3    H239110   5.596   0.396   0.435  0.4602 -0.3381 -2.0985
 5851TIP3   OH239111   2.722   3.560   1.905  0.0671  0.3415 -0.3113
 5851TIP3    H139112   2.694   3.639   1.952 -0.3082  0.5522 -0.8911
 5851TIP3    H239113   2.723   3.492   1.973 -0.9847  0.5250 -0.0928
 5852TIP3   OH239114   6.365   0.814   0.374 -0.6111 -0.6622 -0.7882
 5852TIP3    H139115   6.418   0.737   0.393  0.1809 -0.1246 -0.7712
 5852TIP3    H239116   6.371   0.868   0.452 -0.3736 -0.1430 -1.1626
 5853TIP3   OH239117   1.547   3.572   2.925 -0.0057  0.0271  0.1404
 5853TIP3    H139118   1.613   3.599   2.990  0.5845 -0.7485 -0.1236
 5853TIP3    H239119   1.475   3.633   2.938  0.1202 -0.0795  1.5009
 5854TIP3   OH239120   3.305   2.757   7.939  0.3493  0.4776 -0.0384
 5854TIP3    H139121   3.226   2.806   7.961  0.2195  1.0393 -1.6164
 5854TIP3    H239122   3.275   2.690   7.878  0.8169 -0.5040  0.7752
 5855TIP3   OH239123   5.208   0.804   2.191 -0.2042  0.2742 -0.1666
 5855TIP3    H139124   5.147   0.864   2.148 -0.9006 -0.4502 -0.2185
 5855TIP3    H239125   5.232   0.849   2.272 -2.6565 -0.3731  1.0244
 5856TIP3   OH239126   5.220   2.306   0.735 -0.3920 -0.6820  0.8541
 5856TIP3    H139127   5.190   2.252   0.809 -0.1564 -0.6643  0.9624
 5856TIP3    H239128   5.153   2.293   0.668 -1.2294  0.2254  1.4969
 5857TIP3   OH239129   5.118   6.213   7.115  0.0933 -0.0519  0.3191
 5857TIP3    H139130   5.108   6.157   7.037 -0.5127  1.7044 -0.9262
 5857TIP3    H239131   5.122   6.152   7.188 -2.2790 -1.6831 -0.7946
 5858TIP3   OH239132   1.455   4.984   0.215  0.4742  0.5796 -0.4218
 5858TIP3    H139133   1.550   4.999   0.213  0.6382 -0.2093  0.7531
 5858TIP3    H239134   1.445   4.893   0.188  0.2659 -0.0768  1.6878
 5859TIP3   OH239135   3.786   5.294   7.327  0.0899 -0.3497 -0.4336
 5859TIP3    H139136   3.859   5.252   7.370 -0.8404 -1.8076 -0.2139
 5859TIP3    H239137   3.787   5.384   7.360  0.6242 -0.8691  1.0484
 5860TIP3   OH239138   6.719   5.585   1.854 -0.2365  0.0487 -0.3680
 5860TIP3    H139139   6.688   5.620   1.938  0.1396 -0.4408 -0.0163
 5860TIP3    H239140   6.759   5.659   1.810  0.3795  0.1095  0.2821
 5861TIP3   OH239141   2.094   1.285   8.653  0.4499  0.0538  0.4362
 5861TIP3    H139142   2.178   1.257   8.615  0.2232 -1.0430  0.7045
 5861TIP3    H239143   2.066   1.357   8.597  0.6685 -0.8026 -0.8220
 5862TIP3   OH239144   0.451   0.240   8.289  0.1347 -0.2576  0.3396
 5862TIP3    H139145   0.519   0.217   8.225 -0.3151 -1.5462  0.2834
 5862TIP3    H239146   0.411   0.319   8.255  0.3523 -0.5465 -0.6291
 5863TIP3   OH239147   5.945   1.719   2.650  0.5160  0.0879 -0.5187
 5863TIP3    H139148   5.901   1.635   2.638  1.4541 -0.5926  0.6384
 5863TIP3    H239149   5.874   1.783   2.651 -0.1587 -0.6014 -2.0533
 5864TIP3   OH239150   4.111   4.682   0.211 -0.1922  0.1316 -0.1658
 5864TIP3    H139151   4.136   4.709   0.123  0.5688 -1.0865 -0.3515
 5864TIP3    H239152   4.151   4.595   0.222 -0.3334  0.2230  1.3484
 5865TIP3   OH239153   0.971   3.936   7.858 -0.0043 -0.0447 -0.4317
 5865TIP3    H139154   1.010   3.910   7.775  0.1875  1.1068 -0.7184
 5865TIP3    H239155   0.969   3.855   7.910  0.6668 -0.5962 -1.2389
 5866TIP3   OH239156   5.257   2.919   8.531 -0.1323 -0.4396 -0.5766
 5866TIP3    H139157   5.193   2.935   8.601 -0.1407  0.2917 -0.7401
 5866TIP3    H239158   5.255   2.824   8.518 -1.1781 -0.4300 -0.5727
 5867TIP3   OH239159   0.175   5.924   1.242  0.1595  0.1013 -0.1007
 5867TIP3    H139160   0.195   5.844   1.193  0.5794  0.0331  0.1851
 5867TIP3    H239161   0.233   5.922   1.318  0.2027  0.6991 -0.1105
 5868TIP3   OH239162   4.149   3.846   1.296 -0.0518 -0.0600  0.6364
 5868TIP3    H139163   4.169   3.858   1.389  0.4031 -0.0545  0.5376
 5868TIP3    H239164   4.205   3.773   1.269 -0.1738 -0.0522  0.3627
 5869TIP3   OH239165   5.866   5.905   1.403  0.0209  0.0661 -0.2041
 5869TIP3    H139166   5.899   5.923   1.315 -0.5066  0.0552 -0.4022
 5869TIP3    H239167   5.888   5.984   1.453  0.8767 -0.1717 -0.1786
 5870TIP3   OH239168   1.658   6.422   8.513 -0.6114  0.1755  0.9034
 5870TIP3    H139169   1.647   6.423   8.608 -1.6495  2.6324  0.8427
 5870TIP3    H239170   1.705   6.503   8.494 -2.2956  0.8312 -0.8032
 5871TIP3   OH239171   5.107   6.250   1.525 -0.0518 -0.0900  0.0850
 5871TIP3    H139172   5.185   6.228   1.576 -0.9376  0.1748  1.6283
 5871TIP3    H239173   5.130   6.227   1.435  1.2938 -1.3486  0.7025
 5872TIP3   OH239174   1.067   5.662   8.594  0.4770  0.1728  0.5821
 5872TIP3    H139175   1.097   5.657   8.685  0.9743 -0.4639  0.3959
 5872TIP3    H239176   0.972   5.664   8.599  0.5179  1.9172  1.1850
 5873TIP3   OH239177   1.950   2.329   0.749 -0.1165  0.1275 -0.1206
 5873TIP3    H139178   1.955   2.386   0.825 -0.5297  1.6758 -1.2179
 5873TIP3    H239179   1.858   2.303   0.744  0.3506 -2.1204  1.3658
 5874TIP3   OH239180   1.132   5.923   1.144  0.0295  0.2524  0.3586
 5874TIP3    H139181   1.150   6.017   1.148 -0.1026  0.5895 -3.2050
 5874TIP3    H239182   1.213   5.885   1.112 -0.2611 -0.7080  0.7414
 5875TIP3   OH239183   3.663   2.215   0.720 -0.1580  0.3426 -0.3984
 5875TIP3    H139184   3.711   2.186   0.798 -2.4528  0.3511  1.1064
 5875TIP3    H239185   3.655   2.309   0.731  0.3161  0.4818 -1.1652
 5876TIP3   OH239186   5.571   5.502   6.970  1.0899 -0.1190  0.0593
 5876TIP3    H139187   5.614   5.493   6.884  0.6170 -0.6083 -0.1296
 5876TIP3    H239188   5.503   5.568   6.955 -0.3348 -1.6547 -0.4871
 5877TIP3   OH239189   4.567   5.702   8.275  0.1650  0.8402 -0.1325
 5877TIP3    H139190   4.578   5.780   8.220 -0.6912  1.6647  0.8021
 5877TIP3    H239191   4.472   5.692   8.283  0.2252 -1.0412 -1.2110
 5878TIP3   OH239192   1.875   3.791   7.710  0.4401  0.3180  0.4654
 5878TIP3    H139193   1.797   3.734   7.710  0.1440  0.7121  0.9310
 5878TIP3    H239194   1.931   3.755   7.641  0.3517 -0.6721  0.8841
 5879TIP3   OH239195   3.583   0.369   7.815 -0.2742  0.0705  0.2380
 5879TIP3    H139196   3.576   0.365   7.911  1.3684 -3.0915  0.3291
 5879TIP3    H239197   3.676   0.356   7.797 -1.0491 -4.1335 -1.8151
 5880TIP3   OH239198   3.009   1.550   1.615 -0.2419  0.1167  0.4135
 5880TIP3    H139199   3.008   1.607   1.537  1.3308  0.1841  0.4148
 5880TIP3    H239200   2.925   1.567   1.657 -0.2531  1.6754 -0.1467
 5881TIP3   OH239201   3.739   5.153   2.190 -0.3010  0.2463 -0.1730
 5881TIP3    H139202   3.778   5.240   2.203 -2.3521  1.1054  0.6273
 5881TIP3    H239203   3.745   5.111   2.276  1.4981 -0.8292 -0.7602
 5882TIP3   OH239204   2.614   4.839   2.172 -0.0147 -0.6576 -0.3208
 5882TIP3    H139205   2.522   4.858   2.193  0.0656 -0.7414  0.1013
 5882TIP3    H239206   2.623   4.866   2.080 -0.3460 -0.2334 -0.2335
 5883TIP3   OH239207   2.702   2.259   1.545  0.3759  0.0579  0.2652
 5883TIP3    H139208   2.794   2.254   1.571  1.0966  1.3161 -1.8143
 5883TIP3    H239209   2.705   2.275   1.451 -1.9627  1.5255  0.3750
 5884TIP3   OH239210   5.049   5.707   1.669  0.0837 -0.1506 -0.2728
 5884TIP3    H139211   5.020   5.629   1.717 -3.2691  2.2242  2.0049
 5884TIP3    H239212   4.976   5.728   1.611  0.4370  1.8603 -0.0356
 5885TIP3   OH239213   3.541   0.218   2.792  0.1270 -0.1331  0.2133
 5885TIP3    H139214   3.476   0.282   2.820 -0.4320 -0.8125  0.4819
 5885TIP3    H239215   3.491   0.140   2.771  0.7790 -0.3986 -0.3845
 5886TIP3   OH239216   4.054   0.370   1.301 -0.2778  0.2020  0.4629
 5886TIP3    H139217   4.118   0.375   1.230 -1.5891 -2.6116 -1.0750
 5886TIP3    H239218   4.018   0.459   1.307 -1.2109  0.3005 -3.5722
 5887TIP3   OH239219   6.307   3.597   1.796  0.3777 -0.2373  0.1969
 5887TIP3    H139220   6.325   3.687   1.771  1.2760 -0.6527 -0.7340
 5887TIP3    H239221   6.385   3.569   1.845  0.8165 -0.9797 -0.8855
 5888TIP3   OH239222   0.170   0.554   2.423  0.1242  0.4673  0.3118
 5888TIP3    H139223   0.099   0.617   2.430  0.3639  0.8929 -0.8518
 5888TIP3    H239224   0.237   0.586   2.484 -0.2771  0.6059  0.6836
 5889TIP3   OH239225   6.863   4.605   2.794 -0.2642  0.0333  0.3691
 5889TIP3    H139226   6.930   4.546   2.830  0.4401 -0.3262 -1.4624
 5889TIP3    H239227   6.809   4.628   2.870  0.3601 -1.7495  1.4129
 5890TIP3   OH239228   1.670   3.944   7.403 -0.0391 -0.1978  0.1580
 5890TIP3    H139229   1.629   3.906   7.481  0.5056 -0.0323  0.5256
 5890TIP3    H239230   1.621   4.025   7.388 -1.4047 -1.1510 -0.8040
 5891TIP3   OH239231   1.765   5.942   0.734  0.3695  0.0700  0.1897
 5891TIP3    H139232   1.827   5.886   0.780  0.3807 -0.1714 -0.1116
 5891TIP3    H239233   1.680   5.899   0.744  0.1110  0.7893  1.2364
 5892TIP3   OH239234   6.615   0.929   0.146  0.5667  0.4064  0.5843
 5892TIP3    H139235   6.578   1.011   0.114  1.6712  1.4198  1.8089
 5892TIP3    H239236   6.552   0.862   0.118 -0.8592  1.7608  0.3910
 5893TIP3   OH239237   5.336   1.965   1.265 -0.0285  0.2671  0.3786
 5893TIP3    H139238   5.385   2.025   1.208 -0.1950 -0.5171 -0.6243
 5893TIP3    H239239   5.244   1.986   1.250 -0.1226 -0.7697 -0.6144
 5894TIP3   OH239240   2.627   2.542   1.903  0.7296 -0.1304 -0.4751
 5894TIP3    H139241   2.566   2.531   1.831 -0.2563 -1.3605  0.5134
 5894TIP3    H239242   2.683   2.616   1.876 -1.0771  0.9383 -1.4573
 5895TIP3   OH239243   6.575   0.724   2.532  0.3091  0.8241  0.0210
 5895TIP3    H139244   6.506   0.751   2.472  0.3836  0.9721  0.0007
 5895TIP3    H239245   6.589   0.800   2.589  0.1197  0.6261  0.3385
 5896TIP3   OH239246   2.015   2.726   7.177  0.1004  0.0615  0.2460
 5896TIP3    H139247   2.005   2.760   7.267 -0.2001 -1.5192  0.8412
 5896TIP3    H239248   1.936   2.754   7.132 -0.0810  0.2602  0.6804
 5897TIP3   OH239249   5.420   5.119   2.500 -0.0659  0.6171 -0.1300
 5897TIP3    H139250   5.361   5.164   2.560 -1.3926  1.0542 -1.6760
 5897TIP3    H239251   5.404   5.026   2.514  0.0445  0.7028  0.5697
 5898TIP3   OH239252   5.492   2.256   1.375 -0.4058  0.1120 -0.5985
 5898TIP3    H139253   5.400   2.242   1.396 -0.4575 -1.8396 -1.8508
 5898TIP3    H239254   5.492   2.325   1.309 -1.0553 -0.4411 -1.1893
 5899TIP3   OH239255   4.348   2.871   7.057 -0.5296  0.3169 -0.0779
 5899TIP3    H139256   4.332   2.906   7.145  0.2190  1.4453 -0.3715
 5899TIP3    H239257   4.423   2.813   7.067 -0.2119  0.7335 -0.0355
 5900TIP3   OH239258   4.218   2.841   1.957 -0.0405 -0.2341 -0.1265
 5900TIP3    H139259   4.255   2.759   1.923  1.1161  0.6809 -1.1867
 5900TIP3    H239260   4.236   2.905   1.889 -1.7461  0.7364  0.2900
 5901TIP3   OH239261   2.337   1.082   2.092  0.1825  0.6888 -0.2753
 5901TIP3    H139262   2.311   1.163   2.048  0.4561  1.3464  0.7250
 5901TIP3    H239263   2.423   1.102   2.128 -0.9724  1.0227  2.5389
 5902TIP3   OH239264   6.628   0.881   8.128 -0.3318  0.9475 -0.2513
 5902TIP3    H139265   6.719   0.856   8.116 -0.2041  1.0085  0.5739
 5902TIP3    H239266   6.624   0.974   8.104 -0.2866  0.8151 -0.7841
 5903TIP3   OH239267   4.811   4.149   0.036  0.2839 -0.0082  0.2255
 5903TIP3    H139268   4.782   4.079  -0.022  3.5072 -1.3705  0.1133
 5903TIP3    H239269   4.902   4.165   0.012  1.1811  0.7127  3.6176
 5904TIP3   OH239270   5.917   5.205   1.137  1.0830  0.9168 -0.0801
 5904TIP3    H139271   5.849   5.183   1.201  0.7489  2.1267  0.0162
 5904TIP3    H239272   5.992   5.151   1.162  0.1005 -0.6433 -0.3466
 5905TIP3   OH239273   2.418   2.818   1.612 -0.2010  0.1543  0.5575
 5905TIP3    H139274   2.394   2.778   1.696  0.3047 -0.7634  0.2844
 5905TIP3    H239275   2.469   2.895   1.635 -0.7201  0.3437  1.0967
 5906TIP3   OH239276   2.929   5.968   6.293  0.2882  0.8484 -0.5403
 5906TIP3    H139277   2.965   6.021   6.364 -1.0802 -1.1077  1.7803
 5906TIP3    H239278   2.839   5.997   6.284 -0.0975 -0.1688 -0.1334
 5907TIP3   OH239279   4.854   6.040   7.497  0.0034  0.0642  0.1825
 5907TIP3    H139280   4.834   5.958   7.453 -0.4385  1.1509 -1.7832
 5907TIP3    H239281   4.824   6.028   7.587 -0.9908 -1.5495 -0.3351
 5908TIP3   OH239282   1.713   2.243   1.109 -0.2194  0.0958 -0.0650
 5908TIP3    H139283   1.654   2.197   1.168 -1.4598  0.9847 -0.5669
 5908TIP3    H239284   1.701   2.202   1.024 -0.6996  0.7680 -0.3321
 5909TIP3   OH239285   3.036   6.710   0.109  0.2329  0.1947  0.6339
 5909TIP3    H139286   3.101   6.775   0.084  0.7631 -0.6605 -0.2968
 5909TIP3    H239287   3.085   6.627   0.109 -1.1037 -0.6499 -1.2719
 5910TIP3   OH239288   4.839   2.417   0.184 -0.0996 -0.0216 -0.3556
 5910TIP3    H139289   4.852   2.325   0.206  0.8758  0.1067 -0.3519
 5910TIP3    H239290   4.905   2.464   0.236 -0.8058  0.7151 -0.0968
 5911TIP3   OH239291   6.815   1.278   7.820 -0.2718 -0.1758  0.1147
 5911TIP3    H139292   6.835   1.362   7.778 -0.3303 -0.8474 -1.3292
 5911TIP3    H239293   6.899   1.247   7.854 -0.6271  1.5539  2.8715
 5912TIP3   OH239294   1.325   5.412   8.299 -0.2717 -0.1681 -0.2916
 5912TIP3    H139295   1.349   5.422   8.207  0.2478  0.4163 -0.0964
 5912TIP3    H239296   1.374   5.335   8.328 -0.1270 -0.1158 -0.3960
 5913TIP3   OH239297   6.745   4.740   7.990  0.2325 -0.2700  0.2336
 5913TIP3    H139298   6.828   4.787   8.001  0.3778 -0.8559  1.8778
 5913TIP3    H239299   6.722   4.711   8.078 -0.7426 -1.7974 -0.4853
 5914TIP3   OH239300   0.682   0.572   6.920 -0.5287 -0.1670 -0.7438
 5914TIP3    H139301   0.675   0.540   7.010  1.3707  0.3117 -0.3876
 5914TIP3    H239302   0.630   0.653   6.919 -0.5231 -0.1489 -0.0602
 5915TIP3   OH239303   1.927   5.989   7.201 -0.1279 -0.3133 -0.4906
 5915TIP3    H139304   1.953   6.065   7.148 -1.9355  1.2009  0.6551
 5915TIP3    H239305   1.895   6.026   7.283  1.5387 -2.5257  1.3032
 5916TIP3   OH239306   3.818   2.995   1.715  0.4113  0.1136 -0.0872
 5916TIP3    H139307   3.838   2.926   1.652  2.2410  0.3845  0.1468
 5916TIP3    H239308   3.801   2.950   1.797  1.5751 -0.0813  0.0589
 5917TIP3   OH239309   3.267   6.633   1.151 -0.6405 -0.2173  0.1481
 5917TIP3    H139310   3.274   6.646   1.057  1.0708 -0.8756  0.1564
 5917TIP3    H239311   3.318   6.554   1.169 -0.2600  0.3429  1.7205
 5918TIP3   OH239312   0.903   1.950   7.893  0.4271  0.3884 -0.2355
 5918TIP3    H139313   0.992   1.975   7.917  0.1385 -0.3246  1.7502
 5918TIP3    H239314   0.910   1.857   7.872  0.2812  0.5210 -0.8947
 5919TIP3   OH239315   2.985   0.873   8.505 -0.5971  0.1128 -0.0374
 5919TIP3    H139316   2.899   0.830   8.502 -0.3876 -0.6033  2.2198
 5919TIP3    H239317   3.042   0.818   8.453 -1.3502  0.2243 -0.9999
 5920TIP3   OH239318   0.915   0.635   7.365 -0.1490  0.1841 -0.2179
 5920TIP3    H139319   0.885   0.669   7.281  0.3338 -2.0111 -1.3588
 5920TIP3    H239320   0.976   0.700   7.398  0.3967  0.6329 -2.0395
 5921TIP3   OH239321   3.638   2.673   7.771  0.1878 -0.0772  0.1964
 5921TIP3    H139322   3.566   2.633   7.820  0.2907 -1.1517 -0.4971
 5921TIP3    H239323   3.596   2.737   7.714 -0.1889 -0.4826  0.0144
 5922TIP3   OH239324   6.845   0.322   1.453  0.2301 -0.1860 -0.2629
 5922TIP3    H139325   6.762   0.353   1.415 -1.4351 -2.4194  1.3212
 5922TIP3    H239326   6.861   0.238   1.412  0.9351 -0.4550  0.5318
 5923TIP3   OH239327   0.947   3.063   7.884 -0.2655  0.0579  0.1196
 5923TIP3    H139328   0.884   3.022   7.943 -0.9900  0.7005 -0.1954
 5923TIP3    H239329   0.989   3.130   7.939  0.3274 -0.5267  0.3965
 5924TIP3   OH239330   6.267   5.383   8.276 -0.3086  0.2918 -0.4308
 5924TIP3    H139331   6.180   5.377   8.315 -0.9059  0.7309 -1.6463
 5924TIP3    H239332   6.303   5.465   8.310 -1.0907  1.0159 -1.3043
 5925TIP3   OH239333   1.124   0.699   7.924  0.2523 -0.3548  0.0939
 5925TIP3    H139334   1.205   0.750   7.927 -0.5162  0.9108 -0.1554
 5925TIP3    H239335   1.054   0.764   7.922 -0.8054 -1.4296  0.8014
 5926TIP3   OH239336   6.043   0.588   1.155  0.2117  0.2716 -0.0550
 5926TIP3    H139337   6.124   0.602   1.106 -0.8093  0.4867 -1.7540
 5926TIP3    H239338   5.975   0.582   1.088 -1.1291 -0.3736  1.3023
 5927TIP3   OH239339   0.556   4.180   0.343  0.2555  0.1433 -0.1682
 5927TIP3    H139340   0.593   4.222   0.265  0.1967  0.5518  0.0186
 5927TIP3    H239341   0.546   4.252   0.405  0.7460 -0.2571  0.3804
 5928TIP3   OH239342   4.179   6.788   0.574 -0.1541  0.0050  0.1473
 5928TIP3    H139343   4.181   6.776   0.479  0.1161 -0.1478  0.1722
 5928TIP3    H239344   4.144   6.706   0.608  1.1190 -0.5051  0.2761
 5929TIP3   OH239345   3.925   3.846   8.378 -0.0576 -0.0623 -0.2085
 5929TIP3    H139346   3.946   3.939   8.388  1.8814 -0.3632 -1.0741
 5929TIP3    H239347   3.978   3.802   8.443 -2.8271 -0.4724  1.9666
 5930TIP3   OH239348   1.360   2.016   2.070 -0.0049 -0.8704 -0.1301
 5930TIP3    H139349   1.454   2.022   2.058 -0.1167 -0.3560 -0.8071
 5930TIP3    H239350   1.338   1.927   2.043  0.0087 -0.3155 -2.1185
 5931TIP3   OH239351   4.507   6.185   1.238  0.1597 -0.4964 -0.0787
 5931TIP3    H139352   4.530   6.138   1.158  0.1264  0.3679 -0.6136
 5931TIP3    H239353   4.486   6.274   1.208  0.5742 -0.0424  0.9475
 5932TIP3   OH239354   6.183   4.689   0.770 -0.2679  0.3706 -0.2970
 5932TIP3    H139355   6.133   4.691   0.852 -0.7110 -1.0795 -0.5001
 5932TIP3    H239356   6.251   4.755   0.782 -1.4932  1.5622  0.4619
 5933TIP3   OH239357   1.100   1.914   0.073 -0.0609 -0.0878  0.5014
 5933TIP3    H139358   1.094   1.979   0.003 -0.2907  1.1151  1.5904
 5933TIP3    H239359   1.186   1.930   0.112  2.2893 -3.9314 -2.4164
 5934TIP3   OH239360   4.135   6.682   1.827 -0.5924 -0.9668  0.0909
 5934TIP3    H139361   4.073   6.704   1.897 -0.3738 -1.4782  0.4475
 5934TIP3    H239362   4.184   6.608   1.861  1.9692  0.9675  0.8891
 5935TIP3   OH239363   2.300   1.309   8.402 -0.6110  0.4903 -0.0321
 5935TIP3    H139364   2.282   1.394   8.442 -1.9711  0.5495 -0.7411
 5935TIP3    H239365   2.324   1.329   8.312 -0.9052  0.1233 -0.1935
 5936TIP3   OH239366   6.740   5.478   0.650 -0.2737 -0.1668  0.5128
 5936TIP3    H139367   6.715   5.390   0.623  0.5898 -0.1841 -0.2889
 5936TIP3    H239368   6.813   5.464   0.711  0.8544  0.0260 -0.7623
 5937TIP3   OH239369   4.386   2.253   0.359 -0.5125 -0.0172 -0.3984
 5937TIP3    H139370   4.295   2.260   0.387 -0.4350 -1.2950  0.2589
 5937TIP3    H239371   4.398   2.160   0.338  0.9721 -0.1621  0.8471
 5938TIP3   OH239372   6.124   1.740   8.151  0.0867 -0.5468  0.2793
 5938TIP3    H139373   6.182   1.669   8.125 -1.0765 -1.1384 -0.7753
 5938TIP3    H239374   6.071   1.703   8.221 -0.3673 -0.6462 -0.1171
 5939TIP3   OH239375   5.920   1.784   7.697 -0.6848  0.0634 -0.2016
 5939TIP3    H139376   5.916   1.838   7.618 -1.6403  0.1354 -0.1122
 5939TIP3    H239377   5.840   1.805   7.745 -0.6154 -0.7361  0.2886
 5940TIP3   OH239378   6.207   6.375   7.638  0.1297  0.1650 -0.6019
 5940TIP3    H139379   6.178   6.435   7.707  1.1041  0.3226 -0.3162
 5940TIP3    H239380   6.127   6.350   7.592 -0.5750 -0.1715  0.7763
 5941TIP3   OH239381   3.685   4.532   0.861 -0.2750  0.4904 -0.5199
 5941TIP3    H139382   3.760   4.494   0.814 -0.6509 -0.8449 -0.0817
 5941TIP3    H239383   3.720   4.554   0.947 -0.3908 -0.2003 -0.2905
 5942TIP3   OH239384   2.607   3.067   0.208  0.1321  0.1252 -0.1566
 5942TIP3    H139385   2.615   3.002   0.138 -2.3123  1.2156 -1.5702
 5942TIP3    H239386   2.585   3.149   0.164  2.1855  1.7826  1.6523
 5943TIP3   OH239387   6.174   2.103   1.916  0.0314 -0.0872  0.0107
 5943TIP3    H139388   6.254   2.088   1.865 -0.7857 -0.1113 -1.3267
 5943TIP3    H239389   6.118   2.029   1.892  0.1900 -0.9860  2.2116
 5944TIP3   OH239390   1.996   4.254   7.505  0.1279  0.3087  0.2095
 5944TIP3    H139391   2.023   4.191   7.439 -0.8526  1.7927 -1.7087
 5944TIP3    H239392   1.915   4.292   7.471 -0.3356  1.2645  2.1944
 5945TIP3   OH239393   0.841   0.006   2.711  0.3382  0.1599  0.3604
 5945TIP3    H139394   0.788   0.075   2.752 -0.8825 -0.0297 -0.8045
 5945TIP3    H239395   0.922   0.004   2.762 -0.2641  1.3353  1.4277
 5946TIP3   OH239396   2.155   4.453   0.400 -0.2473 -0.6239  0.6822
 5946TIP3    H139397   2.102   4.434   0.477  0.1189 -3.0697  0.4122
 5946TIP3    H239398   2.240   4.481   0.435 -1.3322  2.4947  1.1054
 5947TIP3   OH239399   2.793   6.548   0.113  0.2187 -0.2089 -0.1681
 5947TIP3    H139400   2.855   6.621   0.115  0.8937 -0.7685 -0.4152
 5947TIP3    H239401   2.782   6.524   0.205 -0.3807  0.4999 -0.0390
 5948TIP3   OH239402   6.346   2.291   7.642  0.5540  0.3378 -0.0644
 5948TIP3    H139403   6.412   2.225   7.661  0.5998  0.9754  2.1748
 5948TIP3    H239404   6.366   2.364   7.700 -2.1740  0.5028  0.8381
 5949TIP3   OH239405   0.719   0.995   7.578 -0.1067 -0.4083  0.0873
 5949TIP3    H139406   0.681   1.058   7.517 -0.5235 -1.3003 -0.6031
 5949TIP3    H239407   0.646   0.963   7.629  0.2095  0.1627  0.9200
 5950TIP3   OH239408   0.831   5.377   1.074  0.3576 -0.6239 -0.3800
 5950TIP3    H139409   0.771   5.407   1.006  1.7860 -0.5076 -1.6481
 5950TIP3    H239410   0.843   5.284   1.056 -2.4911 -1.6810  2.3286
 5951TIP3   OH239411   6.530   0.451   1.237  0.1764 -0.2623 -0.2720
 5951TIP3    H139412   6.546   0.392   1.311  1.1822 -1.1334 -1.1606
 5951TIP3    H239413   6.439   0.435   1.212 -0.3084  0.3281  0.9975
 5952TIP3   OH239414   4.303   5.092   1.411 -0.1164  0.3052  0.5104
 5952TIP3    H139415   4.256   5.098   1.328 -0.0952  0.8236  0.5334
 5952TIP3    H239416   4.392   5.122   1.391  0.4836 -1.5004  0.2631
 5953TIP3   OH239417   6.302   2.604   8.165  0.7395  0.0416  0.4346
 5953TIP3    H139418   6.257   2.667   8.221  1.0836  0.5200  0.1795
 5953TIP3    H239419   6.245   2.527   8.166 -0.0011  0.5716  0.2563
 5954TIP3   OH239420   4.277   6.193   0.578  0.0023 -0.3292 -0.4577
 5954TIP3    H139421   4.190   6.218   0.549 -0.3722 -2.2654 -1.0840
 5954TIP3    H239422   4.265   6.111   0.625  1.5597 -0.9392 -1.0553
 5955TIP3   OH239423   6.235   5.106   8.312  0.1079 -0.0046 -0.4019
 5955TIP3    H139424   6.140   5.099   8.328  0.2572  0.1378  0.6479
 5955TIP3    H239425   6.242   5.147   8.227 -0.7914  0.5894 -0.2016
 5956TIP3   OH239426   1.052   6.620   7.177 -0.0187  0.0609 -0.2905
 5956TIP3    H139427   1.146   6.602   7.184 -0.0326 -0.0560 -0.3981
 5956TIP3    H239428   1.042   6.707   7.214  0.2402  0.3760 -0.9470
 5957TIP3   OH239429   2.709   3.405   1.675  0.5019 -0.3102 -0.4110
 5957TIP3    H139430   2.733   3.479   1.731  1.3872 -0.1945 -0.9209
 5957TIP3    H239431   2.753   3.423   1.592 -0.2532 -0.8173 -0.9243
 5958TIP3   OH239432   2.525   4.143   0.483  0.0152  0.0264 -0.0467
 5958TIP3    H139433   2.466   4.196   0.535 -3.4561 -0.6472 -2.8735
 5958TIP3    H239434   2.525   4.185   0.396 -0.5838 -2.8666 -1.5788
 5959TIP3   OH239435   2.895   1.737   7.522 -0.0738  0.0473 -0.1724
 5959TIP3    H139436   2.839   1.772   7.453  0.7617 -0.4183 -1.1074
 5959TIP3    H239437   2.870   1.786   7.600 -2.2066 -0.5378 -0.4033
 5960TIP3   OH239438   6.567   0.034   1.275 -0.2282  0.0365  0.0005
 5960TIP3    H139439   6.645  -0.006   1.313  0.2329  1.3057  0.4248
 5960TIP3    H239440   6.510   0.050   1.350 -0.7088 -0.4480 -0.2517
 5961TIP3   OH239441   2.917   5.264   1.261  0.4454  0.4894  0.0651
 5961TIP3    H139442   2.955   5.187   1.303 -0.2060  0.1197  0.0003
 5961TIP3    H239443   2.989   5.326   1.255  0.6395  0.4147  1.3996
 5962TIP3   OH239444   3.563   3.179   8.289  0.2071  0.1009  0.0602
 5962TIP3    H139445   3.623   3.121   8.335 -0.8265 -1.7397 -0.7836
 5962TIP3    H239446   3.496   3.201   8.353 -0.2809 -1.0258 -0.0327
 5963TIP3   OH239447   6.389   4.412   2.273 -0.0209 -0.0150  0.2971
 5963TIP3    H139448   6.430   4.493   2.243  1.3277 -0.4296  0.9516
 5963TIP3    H239449   6.412   4.346   2.208  0.4306 -0.2611  0.6949
 5964TIP3   OH239450   2.213   4.929   1.673 -0.0755  0.2080 -0.9496
 5964TIP3    H139451   2.127   4.968   1.692  0.0534  0.4071 -0.7748
 5964TIP3    H239452   2.234   4.878   1.751 -1.0536 -1.6848 -1.8495
 5965TIP3   OH239453   3.289   4.083   7.232  0.1916 -0.2870  0.0289
 5965TIP3    H139454   3.204   4.116   7.260  0.5308  0.4206  0.2369
 5965TIP3    H239455   3.312   4.138   7.157  0.8735  0.1294  0.5305
 5966TIP3   OH239456   6.398   0.276   0.733 -0.4576  0.7420  0.4726
 5966TIP3    H139457   6.472   0.250   0.679 -0.8263  0.2688  0.1770
 5966TIP3    H239458   6.437   0.312   0.813  0.0892  0.2950  0.4157
 5967TIP3   OH239459   3.180   1.048   2.878 -0.5932 -0.0467 -0.3548
 5967TIP3    H139460   3.228   0.968   2.898 -0.5983  0.3140  1.2058
 5967TIP3    H239461   3.248   1.109   2.846 -0.2960 -0.1201  0.1219
 5968TIP3   OH239462   4.282   6.296   7.663 -0.2910  0.0545 -0.1866
 5968TIP3    H139463   4.241   6.305   7.749  0.4667  3.5226 -0.0432
 5968TIP3    H239464   4.337   6.219   7.670  1.1890  1.2485  3.1381
 5969TIP3   OH239465   5.575   2.460   8.219 -0.7990 -0.1882 -0.0843
 5969TIP3    H139466   5.508   2.395   8.241 -0.5451  0.0012  1.3515
 5969TIP3    H239467   5.529   2.523   8.164 -1.4664 -0.7276 -0.1683
 5970TIP3   OH239468   2.739   5.736   0.916  0.2129 -0.1948 -0.0749
 5970TIP3    H139469   2.733   5.831   0.911 -1.5993 -0.3203 -1.6532
 5970TIP3    H239470   2.773   5.718   1.003  0.3308  1.8857  0.3539
 5971TIP3   OH239471   3.771   3.253   0.442 -0.0849  0.9814 -1.2191
 5971TIP3    H139472   3.849   3.245   0.496 -0.7904  1.2424 -0.1274
 5971TIP3    H239473   3.781   3.337   0.397 -1.4821  3.0203  1.9192
 5972TIP3   OH239474   2.294   2.378   7.733 -0.7895 -0.0817  0.2626
 5972TIP3    H139475   2.384   2.349   7.748 -0.4306 -0.1953 -1.7780
 5972TIP3    H239476   2.287   2.385   7.637 -3.0073 -0.2642  0.3574
 5973TIP3   OH239477   0.663   1.037   1.519 -0.1251 -0.0675  0.6814
 5973TIP3    H139478   0.604   1.088   1.464  0.9331 -0.5681 -1.0086
 5973TIP3    H239479   0.606   0.978   1.569 -1.0744 -0.8326 -1.2104
 5974TIP3   OH239480   2.930   6.070   1.311 -0.5857 -0.0360  0.8260
 5974TIP3    H139481   3.009   6.017   1.316  0.0451  0.9480  1.8824
 5974TIP3    H239482   2.962   6.159   1.297 -1.5915  0.1652 -0.3746
 5975TIP3   OH239483   0.475   2.232   0.715 -0.5859  0.2080  0.1813
 5975TIP3    H139484   0.523   2.274   0.786 -0.3176  2.1675 -1.0805
 5975TIP3    H239485   0.383   2.245   0.736 -0.5063  0.9498  0.0883
 5976TIP3   OH239486   4.488   1.634   0.095 -0.1652 -0.4599  0.3308
 5976TIP3    H139487   4.510   1.657   0.005 -1.4625  1.5118  0.4473
 5976TIP3    H239488   4.573   1.616   0.136  0.7181  1.2077 -0.6417
 5977TIP3   OH239489   5.008   3.250   1.486 -0.1503  0.4707 -0.0367
 5977TIP3    H139490   4.946   3.311   1.525 -0.6069 -0.4234  0.6574
 5977TIP3    H239491   5.092   3.272   1.527 -0.1852  1.0213 -0.2439
 5978TIP3   OH239492   0.659   6.535   7.932 -0.2630  0.4743 -0.2283
 5978TIP3    H139493   0.584   6.567   7.882 -1.1301  1.0920  1.3949
 5978TIP3    H239494   0.694   6.612   7.975  0.2298 -0.0908  0.4087
 5979TIP3   OH239495   1.012   6.241   0.307 -0.7860 -0.1829 -0.1799
 5979TIP3    H139496   1.049   6.317   0.261 -0.6664 -0.7263 -1.0188
 5979TIP3    H239497   1.035   6.254   0.399 -0.5029  0.6438 -0.3622
 5980TIP3   OH239498   4.058   4.818   1.744  0.5825 -0.0542 -0.4749
 5980TIP3    H139499   4.109   4.824   1.664  1.3693 -1.5864 -0.1255
 5980TIP3    H239500   4.028   4.908   1.761  1.5986  0.5336 -1.6916
 5981TIP3   OH239501   2.046   2.815   1.067 -0.2421  0.9796  0.3753
 5981TIP3    H139502   2.001   2.856   0.993 -0.3502  1.8280  0.8983
 5981TIP3    H239503   1.983   2.752   1.101 -0.0500  0.3041 -0.4749
 5982TIP3   OH239504   3.876   4.826   7.304 -0.5228  0.1033  0.2229
 5982TIP3    H139505   3.926   4.896   7.263 -0.8533  1.7820  2.4957
 5982TIP3    H239506   3.790   4.829   7.261 -0.3901  0.8068 -0.0078
 5983TIP3   OH239507   2.092   3.885   1.004 -0.1348  0.1272  0.1062
 5983TIP3    H139508   2.175   3.909   1.045 -0.1141  0.1962  0.0234
 5983TIP3    H239509   2.103   3.793   0.979  0.9535  0.8758 -2.4589
 5984TIP3   OH239510   2.099   3.361   0.174  0.2683 -0.2427 -0.4811
 5984TIP3    H139511   2.152   3.438   0.158 -1.2088  0.8152 -0.4602
 5984TIP3    H239512   2.022   3.394   0.220  0.3698 -1.9610  1.0407
 5985TIP3   OH239513   1.653   0.718   8.068  0.1560  0.2499 -0.6788
 5985TIP3    H139514   1.604   0.800   8.057 -1.1106 -0.4498 -0.5026
 5985TIP3    H239515   1.676   0.692   7.979  0.0687  0.5144 -0.7805
 5986TIP3   OH239516   0.131   4.847   0.971 -0.1126  0.2962  0.6258
 5986TIP3    H139517   0.159   4.916   1.031 -2.3285 -0.6358  2.8755
 5986TIP3    H239518   0.050   4.881   0.931 -0.8405 -0.6669  1.2269
 5987TIP3   OH239519   3.372   5.376   0.390  0.1532  0.0608 -0.7303
 5987TIP3    H139520   3.430   5.354   0.318 -0.2237  0.4935 -1.1680
 5987TIP3    H239521   3.290   5.404   0.348  0.5960  2.3080 -0.2174
 5988TIP3   OH239522   5.402   2.547   0.703  0.6609  0.4882  0.4972
 5988TIP3    H139523   5.440   2.569   0.619 -1.1762  2.1098  0.0215
 5988TIP3    H239524   5.328   2.490   0.682  0.7399  0.1434  1.1127
 5989TIP3   OH239525   6.814   5.040   8.509 -0.3353 -0.3119 -0.5135
 5989TIP3    H139526   6.809   4.969   8.573 -0.1589 -0.4897 -0.6920
 5989TIP3    H239527   6.907   5.063   8.506 -0.4436  0.1831 -0.1838
 5990TIP3   OH239528   2.944   4.934   0.467 -0.0544 -0.5934 -0.3761
 5990TIP3    H139529   2.876   4.870   0.486  0.8347 -1.3421  0.3607
 5990TIP3    H239530   2.938   4.999   0.537 -0.9444  0.1600 -1.1135
 5991TIP3   OH239531   4.579   6.132   1.845 -0.1752 -0.2430  0.3177
 5991TIP3    H139532   4.635   6.205   1.818  0.6710 -1.6931 -2.1600
 5991TIP3    H239533   4.603   6.116   1.937  0.8121  1.5124  0.3976
 5992TIP3   OH239534   3.072   5.459   0.602 -0.0789  0.3047  0.3334
 5992TIP3    H139535   3.071   5.434   0.510 -3.2381  1.7327 -0.1457
 5992TIP3    H239536   3.064   5.555   0.601  0.5997  0.4227  2.1266
 5993TIP3   OH239537   1.927   1.153   2.793  0.0763 -0.3430  0.2523
 5993TIP3    H139538   1.870   1.212   2.843 -0.4342 -2.3574  2.2058
 5993TIP3    H239539   1.867   1.098   2.744  0.5438  0.4943 -1.3358
 5994TIP3   OH239540   1.835   3.309   8.055  0.7528 -0.4374 -0.2799
 5994TIP3    H139541   1.768   3.370   8.086  1.5435 -0.5854  1.9088
 5994TIP3    H239542   1.803   3.279   7.970 -0.9223  1.0464 -0.2345
 5995TIP3   OH239543   5.238   5.828   7.662 -0.1763  0.0617 -0.0070
 5995TIP3    H139544   5.226   5.823   7.567  0.3753  0.9884 -0.1384
 5995TIP3    H239545   5.202   5.913   7.687 -0.8392 -0.4130  0.7090
 5996TIP3   OH239546   1.765   2.389   0.509 -0.2167  0.0585  0.5592
 5996TIP3    H139547   1.810   2.434   0.438  1.3912 -0.2215  1.3456
 5996TIP3    H239548   1.708   2.326   0.465 -0.5851  1.0998 -0.4925
 5997TIP3   OH239549   1.371   4.795   1.090  0.1086 -0.3544  0.5496
 5997TIP3    H139550   1.395   4.704   1.078 -2.1618 -1.0475  0.7180
 5997TIP3    H239551   1.314   4.815   1.015  1.6421  1.3738 -0.2408
 5998TIP3   OH239552   5.102   1.413   0.315  0.4776 -0.1780  0.4719
 5998TIP3    H139553   5.007   1.416   0.323  0.0188  0.3455 -3.3929
 5998TIP3    H239554   5.125   1.321   0.329 -1.0671 -0.9493 -1.5503
 5999TIP3   OH239555   0.094   0.432   8.127 -0.3376  0.0826  0.1051
 5999TIP3    H139556   0.061   0.364   8.067 -0.8585 -0.6340  1.1553
 5999TIP3    H239557   0.033   0.429   8.201 -0.4482  1.8091  0.1233
 6000TIP3   OH239558   5.123   1.842   7.972 -0.7342 -0.3297  0.0034
 6000TIP3    H139559   5.067   1.843   8.051 -1.8302  0.4636 -0.7488
 6000TIP3    H239560   5.134   1.934   7.950 -1.4559 -0.5713 -1.4599
 6001TIP3   OH239561   6.566   0.811   6.987 -0.0791 -0.1994 -0.3904
 6001TIP3    H139562   6.556   0.888   7.043  3.8277 -0.3950  0.8520
 6001TIP3    H239563   6.575   0.846   6.899  1.6752  0.8837  0.1609
 6002TIP3   OH239564   4.349   0.762   2.155 -0.5238  0.5539  0.6666
 6002TIP3    H139565   4.351   0.852   2.188  1.3767  0.5829  0.5855
 6002TIP3    H239566   4.299   0.714   2.221  0.5122  1.2200  1.9951
 6003TIP3   OH239567   0.162   2.295   1.764 -0.4616 -0.3113  0.2142
 6003TIP3    H139568   0.085   2.258   1.720 -1.2734 -0.5887  1.8251
 6003TIP3    H239569   0.198   2.356   1.700 -0.5466 -1.9957 -1.5451
 6004TIP3   OH239570   1.222   5.803   2.436  0.1959 -0.0813  0.3261
 6004TIP3    H139571   1.316   5.786   2.425  0.3026  0.0605  0.9403
 6004TIP3    H239572   1.182   5.717   2.426  0.4335 -0.2088  0.4444
 6005TIP3   OH239573   1.557   4.456   7.027  0.0765  0.3108  0.5290
 6005TIP3    H139574   1.593   4.440   7.115  0.4278 -0.7363  0.2147
 6005TIP3    H239575   1.607   4.398   6.970 -0.7822  0.2939 -0.2328
 6006TIP3   OH239576   6.549   1.383   7.963 -0.0268 -0.6881 -0.0733
 6006TIP3    H139577   6.537   1.308   7.904 -0.3662 -0.9419  0.3173
 6006TIP3    H239578   6.627   1.360   8.014  0.2220 -0.5030 -0.3663
 6007TIP3   OH239579   6.765   5.450   7.679  0.2020  0.1570 -0.0402
 6007TIP3    H139580   6.745   5.360   7.653  0.2419  0.1043  0.1140
 6007TIP3    H239581   6.860   5.458   7.671  0.0061  0.9172 -2.4537
 6008TIP3   OH239582   4.360   4.371   7.541 -0.3085  0.1490  0.2117
 6008TIP3    H139583   4.437   4.402   7.588  0.3731  2.0309 -1.9484
 6008TIP3    H239584   4.394   4.315   7.471 -0.9798  0.0520 -0.0539
 6009TIP3   OH239585   2.947   5.803   0.257  0.3927 -0.3464  0.4666
 6009TIP3    H139586   3.015   5.784   0.193  0.6150 -1.0699  0.9004
 6009TIP3    H239587   2.990   5.789   0.342 -0.1946 -0.4668  0.7513
 6010TIP3   OH239588   3.153   2.584   0.478  0.3193 -0.3807  0.1091
 6010TIP3    H139589   3.196   2.506   0.442  0.5925  0.0335 -0.4632
 6010TIP3    H239590   3.083   2.548   0.533 -1.1870 -1.0613 -2.0963
 6011TIP3   OH239591   3.393   3.564   7.350  0.3618  0.0678 -0.1292
 6011TIP3    H139592   3.389   3.635   7.414  1.8451 -1.2950  1.5962
 6011TIP3    H239593   3.442   3.601   7.276 -1.5022  1.7111 -0.6457
 6012TIP3   OH239594   0.796   3.576   0.995  0.2821 -0.2011 -0.0231
 6012TIP3    H139595   0.794   3.529   1.078 -0.5696 -0.0018  0.0844
 6012TIP3    H239596   0.703   3.592   0.974  0.5082  0.3750 -0.6528
 6013TIP3   OH239597   5.168   0.684   1.236 -0.2963  0.4003  0.0364
 6013TIP3    H139598   5.181   0.732   1.155 -1.0141 -0.5466 -0.6619
 6013TIP3    H239599   5.180   0.592   1.212  2.3211  0.2293  1.5851
 6014TIP3   OH239600   6.225   0.056   7.972 -0.1881  0.2167  0.5333
 6014TIP3    H139601   6.157  -0.010   7.984  0.1147  0.0648  1.5477
 6014TIP3    H239602   6.273   0.055   8.055  0.0908  1.4102  0.3922
 6015TIP3   OH239603   4.664   4.802   8.398  0.1188 -0.7770 -0.1386
 6015TIP3    H139604   4.583   4.774   8.355  1.5723 -2.1199 -2.2106
 6015TIP3    H239605   4.692   4.725   8.448 -0.1508 -0.1263  1.0334
 6016TIP3   OH239606   4.860   4.198   8.044  0.1069 -0.8512 -0.2859
 6016TIP3    H139607   4.905   4.173   7.963  2.1512  0.3154  0.4203
 6016TIP3    H239608   4.778   4.239   8.015 -0.9844 -3.7110 -1.5880
 6017TIP3   OH239609   2.141   6.413   1.373  0.1698 -0.3774  0.6703
 6017TIP3    H139610   2.049   6.404   1.350  0.0844 -0.8033  1.1713
 6017TIP3    H239611   2.187   6.353   1.314  0.0171 -0.9881  1.1716
 6018TIP3   OH239612   1.388   0.565   2.910 -0.1724  0.2315 -0.2958
 6018TIP3    H139613   1.315   0.623   2.931  0.4898  0.8833  0.2705
 6018TIP3    H239614   1.354   0.506   2.842 -0.4305  2.1907 -1.9442
 6019TIP3   OH239615   3.908   6.412   0.652 -0.5428  0.2043 -0.5982
 6019TIP3    H139616   3.911   6.330   0.603 -0.2519 -0.4290  0.4413
 6019TIP3    H239617   3.816   6.420   0.677 -0.4419 -0.2087 -0.0661
 6020TIP3   OH239618   3.296   4.146   1.148  0.4708  0.1612 -0.0647
 6020TIP3    H139619   3.360   4.089   1.190  0.2173 -0.5081 -0.5623
 6020TIP3    H239620   3.298   4.226   1.199  0.3659 -0.5260  1.0467
 6021TIP3   OH239621   3.639   1.729   1.589 -0.3494 -0.5244  0.4787
 6021TIP3    H139622   3.725   1.730   1.633 -0.4909 -0.1645  0.7556
 6021TIP3    H239623   3.627   1.638   1.563  0.7221 -0.3475 -0.7675
 6022TIP3   OH239624   3.274   0.577   7.088  0.1422 -0.3575 -0.0774
 6022TIP3    H139625   3.226   0.518   7.030 -2.2449  1.5925 -0.2717
 6022TIP3    H239626   3.358   0.592   7.043 -0.5198 -1.0772 -1.6327
 6023TIP3   OH239627   3.117   6.040   7.455 -0.3119 -0.3881 -0.2322
 6023TIP3    H139628   3.093   6.052   7.363  0.2644 -1.0577 -0.4753
 6023TIP3    H239629   3.088   6.121   7.498 -0.5918 -0.0734 -0.9987
 6024TIP3   OH239630   1.557   3.766   1.914  0.0038 -0.1003  0.0012
 6024TIP3    H139631   1.581   3.761   1.821  1.2591 -1.0147  0.3450
 6024TIP3    H239632   1.480   3.710   1.922 -0.0648 -0.0790 -0.4751
 6025TIP3   OH239633   4.162   5.630   1.130  0.2264  0.7508  0.3678
 6025TIP3    H139634   4.194   5.684   1.202 -1.0871  1.1991  0.6493
 6025TIP3    H239635   4.241   5.590   1.093  1.1788  2.3600  0.5454
 6026TIP3   OH239636   1.851   2.234   1.401  0.9595 -0.3365 -0.2557
 6026TIP3    H139637   1.774   2.194   1.440 -0.6644  1.6488 -1.2243
 6026TIP3    H239638   1.887   2.290   1.470 -0.4054  1.1945 -0.7224
 6027TIP3   OH239639   3.560   0.722   0.564  0.5336  0.1199 -0.6248
 6027TIP3    H139640   3.467   0.736   0.585  0.5179 -0.7133 -0.0415
 6027TIP3    H239641   3.604   0.801   0.595  0.6665 -1.4227  3.8864
 6028TIP3   OH239642   6.600   0.177   0.577  0.2804  0.4069  0.3665
 6028TIP3    H139643   6.620   0.098   0.526  1.1818 -0.2456  1.6746
 6028TIP3    H239644   6.682   0.199   0.621 -1.0082 -0.6500  3.6343
 6029TIP3   OH239645   2.742   5.602   0.459 -0.2187  0.3872 -0.3289
 6029TIP3    H139646   2.688   5.582   0.535  1.0103 -1.5876  0.0764
 6029TIP3    H239647   2.800   5.673   0.488  0.9922 -1.0773  1.0038
 6030TIP3   OH239648   2.692   3.705   3.213  0.2237 -0.4434 -0.3283
 6030TIP3    H139649   2.688   3.616   3.247 -0.6432 -0.0338  0.7041
 6030TIP3    H239650   2.616   3.749   3.252 -0.6562  0.1545 -2.5499
 6031TIP3   OH239651   1.580   4.128   8.591  0.2173 -0.0341  0.4541
 6031TIP3    H139652   1.544   4.204   8.545 -0.2332 -0.6003 -0.1487
 6031TIP3    H239653   1.520   4.057   8.570  1.6969 -1.0218 -0.6419
 6032TIP3   OH239654   6.499   5.710   8.424 -0.3063  0.0767 -0.0150
 6032TIP3    H139655   6.491   5.795   8.468 -1.1423 -0.3027  0.5907
 6032TIP3    H239656   6.474   5.646   8.490 -0.9299 -0.5503 -0.8319
 6033TIP3   OH239657   0.509   0.026   0.367 -0.2411  0.2140  0.1946
 6033TIP3    H139658   0.507  -0.069   0.354 -1.1608  0.0796  1.1028
 6033TIP3    H239659   0.488   0.063   0.281 -2.4658 -0.5027  0.3522
 6034TIP3   OH239660   2.711   5.442   8.496  1.0277 -0.1678 -0.7382
 6034TIP3    H139661   2.765   5.390   8.555 -0.7130  0.6141  1.6973
 6034TIP3    H239662   2.659   5.498   8.554  0.5401  2.0297 -3.1168
 6035TIP3   OH239663   1.593   0.297   7.811  0.0700 -0.5325 -0.2274
 6035TIP3    H139664   1.681   0.284   7.775  0.7228 -0.5302  1.2881
 6035TIP3    H239665   1.605   0.292   7.906 -1.3064  1.1174  0.0754
 6036TIP3   OH239666   1.492   6.396   7.756  0.0095 -0.4851  0.1292
 6036TIP3    H139667   1.432   6.324   7.741 -1.2292  1.0315 -2.9568
 6036TIP3    H239668   1.436   6.471   7.777  1.0849  0.2081  0.6723
 6037TIP3   OH239669   4.171   1.867   7.432 -0.1740 -0.4443 -0.5269
 6037TIP3    H139670   4.198   1.778   7.455 -1.4345 -0.7061  0.0517
 6037TIP3    H239671   4.121   1.897   7.509  1.8412  1.5068  0.1270
 6038TIP3   OH239672   3.164   5.932   1.293 -0.0128 -0.2028 -0.1219
 6038TIP3    H139673   3.153   5.838   1.282 -0.2180  0.0357 -2.4366
 6038TIP3    H239674   3.253   5.942   1.326  0.1572 -1.1833 -0.2614
 6039TIP3   OH239675   2.033   2.126   2.126  0.0701 -0.4468 -0.3942
 6039TIP3    H139676   2.119   2.134   2.168  0.3713  0.4271 -1.1463
 6039TIP3    H239677   2.046   2.060   2.058 -0.1274 -1.0426  0.1319
 6040TIP3   OH239678   0.396   5.899   1.413  0.5925 -0.1587  0.3263
 6040TIP3    H139679   0.491   5.896   1.402  0.4716 -1.1739 -0.7152
 6040TIP3    H239680   0.379   5.983   1.455  2.0091 -0.2946  1.2189
 6041TIP3   OH239681   5.523   5.514   7.767  0.0324 -0.3863 -0.3691
 6041TIP3    H139682   5.555   5.596   7.802  0.2496 -1.1908  1.4363
 6041TIP3    H239683   5.594   5.451   7.782 -0.9279 -1.3633  0.3022
 6042TIP3   OH239684   1.109   2.446   8.648  0.3079  0.6431  0.1474
 6042TIP3    H139685   1.094   2.448   8.553 -0.6911 -2.2162  0.1495
 6042TIP3    H239686   1.054   2.516   8.682  0.0648  1.2092 -1.3056
 6043TIP3   OH239687   5.891   0.194   0.508  0.5013  0.4051  0.0605
 6043TIP3    H139688   5.942   0.269   0.540  0.0932  1.0836 -0.8703
 6043TIP3    H239689   5.927   0.120   0.557  0.6768  1.2392  1.2597
 6044TIP3   OH239690   3.748   0.597   0.053 -0.1862  0.2248  0.0654
 6044TIP3    H139691   3.779   0.686   0.072  0.4737  0.0661 -0.2403
 6044TIP3    H239692   3.665   0.609   0.008 -0.9425  0.6495  1.5177
 6045TIP3   OH239693   2.632   0.853   8.380  0.4006 -0.1546 -0.2305
 6045TIP3    H139694   2.647   0.939   8.419 -1.3524 -0.6563  1.7145
 6045TIP3    H239695   2.692   0.794   8.427  1.4302 -0.0842 -1.3970
 6046TIP3   OH239696   5.550   5.001   2.120 -0.9516 -0.0130 -0.4862
 6046TIP3    H139697   5.645   4.993   2.106 -1.0136  0.4399 -1.2372
 6046TIP3    H239698   5.513   4.926   2.075 -1.0759  0.8906 -1.9719
 6047TIP3   OH239699   3.788   2.003   2.676  0.0984  0.2497 -0.5338
 6047TIP3    H139700   3.811   2.058   2.751 -0.1297  0.7439 -0.8195
 6047TIP3    H239701   3.809   2.056   2.600 -0.9140  0.2861 -0.8082
 6048TIP3   OH239702   3.739   6.820   8.164  0.6839  0.0075 -0.6887
 6048TIP3    H139703   3.756   6.738   8.118 -0.8518 -1.4781  1.2267
 6048TIP3    H239704   3.671   6.863   8.112 -0.0891 -1.0129 -0.5535
 6049TIP3   OH239705   6.316   1.501   8.036 -0.3020  0.0720 -0.7813
 6049TIP3    H139706   6.328   1.502   8.131 -1.2531  0.7753 -0.6553
 6049TIP3    H239707   6.394   1.457   8.002 -0.3271 -0.9070  0.3729
 6050TIP3   OH239708   3.472   4.465   0.522  0.7034  0.3658  0.5074
 6050TIP3    H139709   3.444   4.502   0.605 -2.6431  3.1377 -1.5659
 6050TIP3    H239710   3.394   4.423   0.487  2.1997 -1.3359 -0.9653
 6051TIP3   OH239711   6.131   0.332   0.793 -0.1942 -0.1973 -0.4132
 6051TIP3    H139712   6.132   0.254   0.849 -0.6321  0.2159  0.1841
 6051TIP3    H239713   6.200   0.316   0.729 -0.6175 -1.3116 -0.6250
 6052TIP3   OH239714   1.174   5.722   1.388 -0.7293 -0.0660  0.1571
 6052TIP3    H139715   1.172   5.788   1.458 -2.3756  1.2487 -1.0384
 6052TIP3    H239716   1.147   5.770   1.310 -0.5138 -1.8568 -1.0726
 6053TIP3   OH239717   6.059   6.403   7.310 -0.2170 -0.1095 -0.3460
 6053TIP3    H139718   6.066   6.499   7.309 -0.0803 -0.1192 -0.3688
 6053TIP3    H239719   6.125   6.374   7.247 -1.3076 -0.1559 -1.4935
 6054TIP3   OH239720   5.765   2.189   1.240 -0.4140  0.3826 -0.0163
 6054TIP3    H139721   5.693   2.234   1.284  0.2962 -2.0004  4.2284
 6054TIP3    H239722   5.842   2.243   1.258 -0.5430  1.0318 -1.2957
 6055TIP3   OH239723   4.640   2.384   7.782 -0.8674 -0.4514  0.4186
 6055TIP3    H139724   4.720   2.427   7.810 -0.8948 -0.2853  0.2461
 6055TIP3    H239725   4.662   2.291   7.777 -0.5413 -0.3508 -0.1129
 6056TIP3   OH239726   2.979   0.696   6.680  0.4259 -0.3185  0.0184
 6056TIP3    H139727   2.978   0.610   6.639  0.9544 -0.0940 -0.4728
 6056TIP3    H239728   2.993   0.757   6.608  1.0927  0.1083  0.4978
 6057TIP3   OH239729   5.942   5.343   2.235 -0.1762  0.1197 -1.0392
 6057TIP3    H139730   5.956   5.248   2.230  1.3336  0.2334  0.1175
 6057TIP3    H239731   6.028   5.378   2.260 -0.3510  1.9503 -2.8008
 6058TIP3   OH239732   6.569   4.731   7.541  0.2346 -0.2635 -0.6926
 6058TIP3    H139733   6.500   4.665   7.539  0.5973 -0.6244 -2.3460
 6058TIP3    H239734   6.648   4.685   7.512  0.8763  0.4872 -0.1895
 6059TIP3   OH239735   4.064   3.615   8.016 -0.0138 -0.5171 -0.1933
 6059TIP3    H139736   4.126   3.557   8.059  0.8912  0.7181  0.2096
 6059TIP3    H239737   4.003   3.641   8.085  0.2279 -0.1473 -0.1145
 6060TIP3   OH239738   1.792   5.631   0.651 -0.1263  0.1840 -0.4509
 6060TIP3    H139739   1.777   5.674   0.566 -1.5783  0.4725 -0.0856
 6060TIP3    H239740   1.881   5.656   0.675 -0.6389  2.4632 -0.6108
 6061TIP3   OH239741   4.966   5.973   1.538 -0.2845  0.2798 -0.3097
 6061TIP3    H139742   5.017   6.052   1.554  1.9241 -1.3681  1.2940
 6061TIP3    H239743   4.891   5.979   1.598  0.4952  0.6260  0.6377
 6062TIP3   OH239744   2.333   5.886   2.006  0.0650  0.2236  0.5998
 6062TIP3    H139745   2.288   5.940   2.071  1.5152  1.4662  0.6241
 6062TIP3    H239746   2.399   5.944   1.969 -1.0059 -0.2561 -2.3555
 6063TIP3   OH239747   3.672   1.005   1.541 -0.2783  0.2055  0.0295
 6063TIP3    H139748   3.678   1.078   1.479 -0.4508  0.5113  0.3649
 6063TIP3    H239749   3.578   0.997   1.560 -0.3867 -0.8868 -0.9113
 6064TIP3   OH239750   0.189   4.513   8.088 -0.1536  0.3296 -0.2205
 6064TIP3    H139751   0.281   4.500   8.067  0.5590  3.6395  0.3203
 6064TIP3    H239752   0.186   4.515   8.183 -1.3121 -2.2285 -0.1043
 6065TIP3   OH239753   4.346   2.373   1.578  0.0414  0.3055  0.5477
 6065TIP3    H139754   4.309   2.439   1.520 -0.0483 -0.5739 -0.4190
 6065TIP3    H239755   4.427   2.412   1.611  0.0699  0.8360 -0.1468
 6066TIP3   OH239756   5.619   3.355   8.306  0.0016  0.1242  0.0645
 6066TIP3    H139757   5.614   3.450   8.300  0.6905  0.3803  2.4031
 6066TIP3    H239758   5.533   3.328   8.338 -0.0499  0.0104 -0.1701
 6067TIP3   OH239759   2.086   6.398   7.436 -0.0736  0.0310 -0.3167
 6067TIP3    H139760   2.094   6.303   7.447 -0.9483  0.0254  0.4192
 6067TIP3    H239761   1.992   6.413   7.427  0.0382  0.8519 -0.2095
 6068TIP3   OH239762   2.725   1.816   7.334 -0.6897  0.0194  0.1846
 6068TIP3    H139763   2.657   1.882   7.321 -3.1819 -2.2208  0.8343
 6068TIP3    H239764   2.725   1.766   7.252 -0.7422 -0.7507  0.6436
 6069TIP3   OH239765   0.763   2.174   1.855  0.7624 -0.0371 -0.0860
 6069TIP3    H139766   0.691   2.187   1.793 -0.0760 -0.4757  0.7641
 6069TIP3    H239767   0.738   2.225   1.932  0.3401 -1.7527  0.9852
 6070TIP3   OH239768   6.595   6.626   8.474  0.4613 -0.7966  0.6431
 6070TIP3    H139769   6.626   6.535   8.472 -1.0666 -1.3341  0.2657
 6070TIP3    H239770   6.508   6.623   8.434  0.4834  0.8852  0.3893
 6071TIP3   OH239771   1.583   5.090   6.656  0.0835  0.5030  0.2303
 6071TIP3    H139772   1.679   5.090   6.662  0.0198  0.7772  1.4392
 6071TIP3    H239773   1.556   5.170   6.699 -0.7485 -0.1332  0.9287
 6072TIP3   OH239774   0.290   2.113   8.003  0.3193 -0.0482 -0.2729
 6072TIP3    H139775   0.271   2.043   8.066 -0.0570 -1.6688 -2.0683
 6072TIP3    H239776   0.330   2.183   8.055 -0.6060 -1.0154  1.8375
 6073TIP3   OH239777   0.224   6.068   7.738 -0.0795  0.0846  0.4968
 6073TIP3    H139778   0.226   6.067   7.642  0.6214  0.9715  0.4897
 6073TIP3    H239779   0.307   6.108   7.764 -0.4812  0.3263  1.4597
 6074TIP3   OH239780   2.219   4.416   6.656  0.4878 -0.0668  0.5717
 6074TIP3    H139781   2.133   4.425   6.695 -1.4348 -0.0561 -3.2492
 6074TIP3    H239782   2.261   4.501   6.668 -1.4203  1.0622 -0.3966
 6075TIP3   OH239783   1.988   5.137   8.589 -0.4071  0.0142  0.1524
 6075TIP3    H139784   1.919   5.096   8.536  0.2367 -0.5806 -0.2334
 6075TIP3    H239785   1.960   5.228   8.597 -1.6750 -0.3898  0.7116
 6076TIP3   OH239786   1.894   0.639   2.181 -0.4893  0.3565 -0.0336
 6076TIP3    H139787   1.973   0.615   2.230 -1.1684 -0.1512  0.8509
 6076TIP3    H239788   1.900   0.734   2.173  0.0625  0.3569  0.2874
 6077TIP3   OH239789   6.649   0.415   7.348 -0.3607  0.7733 -0.0233
 6077TIP3    H139790   6.624   0.483   7.285  0.2578  0.7813 -0.2714
 6077TIP3    H239791   6.744   0.424   7.355 -0.2301 -0.2954 -0.3268
 6078TIP3   OH239792   5.572   5.506   2.222  0.0894  0.0325  0.2253
 6078TIP3    H139793   5.509   5.435   2.213 -0.0139  0.1097  0.3399
 6078TIP3    H239794   5.545   5.571   2.157  0.4899 -0.2579 -0.2385
 6079TIP3   OH239795   2.376   6.174   2.017 -0.1516 -0.1448  0.0346
 6079TIP3    H139796   2.343   6.186   1.928 -0.9292 -0.8330  0.2196
 6079TIP3    H239797   2.298   6.154   2.069  0.5265 -1.6442  0.5276
 6080TIP3   OH239798   5.889   6.801   8.314 -0.6370 -0.1674 -0.0397
 6080TIP3    H139799   5.874   6.888   8.352 -2.7814 -0.4251 -0.1664
 6080TIP3    H239800   5.889   6.816   8.220  1.3508 -0.0076 -0.0475
 6081TIP3   OH239801   1.981   0.460   8.429 -0.1670 -0.0339 -0.0680
 6081TIP3    H139802   2.039   0.414   8.369  1.5096  1.5156  0.2911
 6081TIP3    H239803   1.932   0.390   8.473  1.5693 -1.4243 -0.2383
 6082TIP3   OH239804   1.438   6.006   0.319  0.0774  0.0823  0.2077
 6082TIP3    H139805   1.347   6.024   0.340 -0.1713 -1.5698  0.6682
 6082TIP3    H239806   1.488   6.043   0.393 -0.2846  0.1013  0.4424
 6083TIP3   OH239807   0.821   4.545   0.112  0.2357 -0.4668  0.1339
 6083TIP3    H139808   0.898   4.510   0.067  0.6274 -0.8157  1.0507
 6083TIP3    H239809   0.857   4.586   0.191 -0.6488 -1.9695  1.3536
 6084TIP3   OH239810   5.730   5.073   0.320  0.0561  0.0109  0.1198
 6084TIP3    H139811   5.688   4.997   0.281  1.2408  0.6312 -2.5501
 6084TIP3    H239812   5.659   5.134   0.337 -0.6478 -0.8275  0.2588
 6085TIP3   OH239813   6.805   4.821   7.163 -0.3159 -0.0486  0.3363
 6085TIP3    H139814   6.798   4.831   7.258  2.2813 -0.0523  0.5993
 6085TIP3    H239815   6.806   4.911   7.129 -3.3214 -0.0263  0.0080
 6086TIP3   OH239816   1.342   5.344   1.407 -0.5850 -0.4611 -0.0900
 6086TIP3    H139817   1.420   5.293   1.431 -0.4204 -0.2514 -0.1794
 6086TIP3    H239818   1.343   5.417   1.469 -0.5531 -0.3028 -0.2801
 6087TIP3   OH239819   4.331   3.589   1.880 -0.8763 -0.2206  0.8981
 6087TIP3    H139820   4.305   3.497   1.886 -1.8385  0.0264  0.6000
 6087TIP3    H239821   4.257   3.633   1.838  0.7367  0.1803 -1.8160
 6088TIP3   OH239822   2.058   1.427   2.762  0.0015 -0.5991 -0.1813
 6088TIP3    H139823   2.001   1.460   2.832 -0.9136 -0.4154 -0.9974
 6088TIP3    H239824   2.021   1.342   2.739  0.3416 -0.6890 -0.4002
 6089TIP3   OH239825   4.840   5.973   7.174  0.1051  0.3021  0.2694
 6089TIP3    H139826   4.841   6.037   7.103  0.1002  0.7600  0.6791
 6089TIP3    H239827   4.930   5.970   7.205  0.5454 -1.3288 -1.0085
 6090TIP3   OH239828   1.520   5.229   0.967 -0.0402  0.1989  0.0850
 6090TIP3    H139829   1.541   5.264   1.053 -0.1810  1.9042 -0.5251
 6090TIP3    H239830   1.551   5.139   0.969  1.9153  0.8307  1.1975
 6091TIP3   OH239831   2.689   6.156   7.372  0.6969 -0.2672 -0.6541
 6091TIP3    H139832   2.628   6.226   7.395 -0.1024 -1.5287  1.3035
 6091TIP3    H239833   2.705   6.168   7.279  0.1767  2.1824 -0.4879
 6092TIP3   OH239834   6.362   4.523   8.134 -0.1072 -0.4887  0.0864
 6092TIP3    H139835   6.266   4.520   8.129 -0.1600  0.4364  0.2119
 6092TIP3    H239836   6.382   4.617   8.142  0.7518 -0.7363  1.1843
 6093TIP3   OH239837   0.517   3.559   1.581 -0.1410 -0.0381 -0.6274
 6093TIP3    H139838   0.459   3.625   1.542 -0.0503  0.1197 -0.4967
 6093TIP3    H239839   0.479   3.475   1.553  1.3666  0.0320 -3.2402
 6094TIP3   OH239840   2.763   0.159   1.109 -0.4075  0.0211 -0.0947
 6094TIP3    H139841   2.710   0.115   1.043  0.2490  0.1115 -0.6897
 6094TIP3    H239842   2.788   0.242   1.068 -0.6103  0.4057  0.5509
 6095TIP3   OH239843   6.138   4.367   7.765 -0.4396 -0.2478  0.7633
 6095TIP3    H139844   6.118   4.458   7.784 -1.2111 -0.6594  2.1324
 6095TIP3    H239845   6.149   4.363   7.670  0.0442  1.3372  0.7315
 6096TIP3   OH239846   2.874   0.639   0.849 -0.1011 -0.2523 -0.6626
 6096TIP3    H139847   2.903   0.628   0.759 -0.0797 -2.8434 -0.4134
 6096TIP3    H239848   2.954   0.639   0.901 -0.1657  0.2303 -0.5577
 6097TIP3   OH239849   5.440   0.639   1.754 -0.1906  0.0200 -0.3045
 6097TIP3    H139850   5.506   0.676   1.695  0.3006 -1.1455 -0.5135
 6097TIP3    H239851   5.366   0.699   1.748 -0.4240 -0.4267 -2.6221
 6098TIP3   OH239852   6.220   5.774   8.209 -0.0750 -0.2964  0.1701
 6098TIP3    H139853   6.273   5.851   8.229 -0.7470  0.2881 -0.2692
 6098TIP3    H239854   6.154   5.772   8.278 -1.4995  0.8888 -1.0895
 6099TIP3   OH239855   6.442   0.735   0.079  0.8536 -0.1677  0.1384
 6099TIP3    H139856   6.410   0.728   0.169  0.5785  1.0692  0.1466
 6099TIP3    H239857   6.364   0.720   0.024  0.7080  0.5789  0.1324
 6100TIP3   OH239858   3.106   5.679   7.141 -0.3921  0.0669  0.5899
 6100TIP3    H139859   3.185   5.651   7.095 -1.3381 -1.6180 -0.1300
 6100TIP3    H239860   3.036   5.672   7.075 -1.1211  1.8234  1.1085
 6101TIP3   OH239861   3.455   2.177   1.885 -1.1359 -0.4973 -0.2800
 6101TIP3    H139862   3.459   2.098   1.831 -1.5297 -1.0619  0.4878
 6101TIP3    H239863   3.481   2.248   1.826  1.2351 -1.4297 -0.4783
 6102TIP3   OH239864   1.650   2.357   0.752 -0.0438  0.5915  0.5642
 6102TIP3    H139865   1.625   2.436   0.799 -4.1161  0.9633 -1.8148
 6102TIP3    H239866   1.675   2.387   0.665 -0.1652 -0.6238  0.0834
 6103TIP3   OH239867   1.551   2.279   8.539 -0.3133  0.1377 -0.0088
 6103TIP3    H139868   1.556   2.229   8.621  2.1143  1.1824  0.5570
 6103TIP3    H239869   1.636   2.266   8.498 -1.6926 -0.9547 -2.8139
 6104TIP3   OH239870   5.291   0.688   7.180  0.0284 -0.1910 -0.0116
 6104TIP3    H139871   5.352   0.752   7.142  0.1682  0.5244  1.3422
 6104TIP3    H239872   5.327   0.603   7.156  1.7922  0.2030  1.0624
 6105TIP3   OH239873   6.577   3.090   0.201 -0.6091 -0.5997  0.4663
 6105TIP3    H139874   6.542   3.007   0.168  0.1808 -1.9931  2.8831
 6105TIP3    H239875   6.535   3.101   0.286  1.8077 -0.3205  1.7130
 6106TIP3   OH239876   2.406   0.441   0.990 -0.2923  0.2541 -0.3810
 6106TIP3    H139877   2.373   0.530   1.004  1.7552  1.1028 -0.6224
 6106TIP3    H239878   2.500   0.447   1.007 -0.3792 -2.3403  1.6036
 6107TIP3   OH239879   1.359   4.246   2.268 -0.2558  0.5720  1.0873
 6107TIP3    H139880   1.423   4.235   2.198 -0.9406 -0.0377  0.5475
 6107TIP3    H239881   1.289   4.299   2.230 -0.3293  0.7899  1.5133
 6108TIP3   OH239882   3.553   2.076   8.406 -0.1359 -0.6015  0.3448
 6108TIP3    H139883   3.478   2.038   8.360  0.2629 -1.6099  0.5053
 6108TIP3    H239884   3.578   2.010   8.470  0.7089 -0.1513  0.4947
 6109TIP3   OH239885   1.119   4.523   0.745  0.3143 -0.5193  0.2105
 6109TIP3    H139886   1.083   4.486   0.826 -1.1000 -0.5562 -0.3977
 6109TIP3    H239887   1.109   4.618   0.756  0.9771 -0.4730  0.4493
 6110TIP3   OH239888   0.397   6.230   0.286 -0.1045 -0.0868 -0.2983
 6110TIP3    H139889   0.423   6.319   0.262 -1.4221 -0.3219 -2.9555
 6110TIP3    H239890   0.473   6.176   0.265 -0.1901  0.1144 -1.1663
 6111TIP3   OH239891   6.347   1.103   0.064 -0.0321 -0.0709 -0.3069
 6111TIP3    H139892   6.397   1.184   0.052 -0.4893  0.1292 -0.8804
 6111TIP3    H239893   6.360   1.055  -0.017 -0.7214 -0.0457 -0.4312
 6112TIP3   OH239894   4.225   0.199   8.138 -0.2221 -0.5151 -0.0128
 6112TIP3    H139895   4.306   0.225   8.180  0.7693  0.5136 -2.4017
 6112TIP3    H239896   4.230   0.103   8.133  1.3595 -0.4098 -1.0137
 6113TIP3   OH239897   6.176   1.431   2.504  0.0697 -0.0308 -0.0749
 6113TIP3    H139898   6.093   1.422   2.457  0.4429  1.7248 -1.1481
 6113TIP3    H239899   6.182   1.524   2.525  0.4623 -0.5696  2.5491
 6114TIP3   OH239900   2.497   4.570   7.142 -0.0796  0.0096  0.4342
 6114TIP3    H139901   2.441   4.589   7.217 -1.1824  1.1602 -0.6322
 6114TIP3    H239902   2.583   4.606   7.166 -0.4675  0.5120  1.0807
 6115TIP3   OH239903   5.711   0.547   2.282 -0.0539 -0.0351 -0.5431
 6115TIP3    H139904   5.740   0.464   2.320  0.9338  0.2961 -0.5503
 6115TIP3    H239905   5.650   0.522   2.213 -1.0223 -0.6862  0.5173
 6116TIP3   OH239906   4.245   4.310   8.634 -0.1228 -0.0169 -0.4381
 6116TIP3    H139907   4.168   4.310   8.690 -1.1264  0.0901 -1.7687
 6116TIP3    H239908   4.310   4.361   8.683 -0.5709 -0.8542  1.0955
 6117TIP3   OH239909   5.041   0.292   7.901  0.1920 -0.2404 -0.3670
 6117TIP3    H139910   4.987   0.363   7.934  1.1688  0.1285  0.5181
 6117TIP3    H239911   4.995   0.212   7.927 -0.4952  0.0614 -0.6457
 6118TIP3   OH239912   6.206   5.048   2.574 -0.1397  0.2676 -0.2497
 6118TIP3    H139913   6.145   5.121   2.586  1.3177  1.2600  1.8187
 6118TIP3    H239914   6.262   5.074   2.502 -0.5824  0.4954 -0.5121
 6119TIP3   OH239915   2.366   4.483   2.286  0.6494 -0.0081  0.3664
 6119TIP3    H139916   2.312   4.412   2.252 -0.5816  0.4709  1.2550
 6119TIP3    H239917   2.378   4.542   2.212 -0.3493  0.0432  0.2319
 6120TIP3   OH239918   0.939   1.269   2.051 -0.0289  0.5348 -1.0446
 6120TIP3    H139919   0.960   1.288   2.143  0.2203  0.4897 -1.0912
 6120TIP3    H239920   1.001   1.321   2.001  0.3873 -0.0825 -1.1765
 6121TIP3   OH239921   5.593   4.333   1.268  0.2252  0.1198 -0.5263
 6121TIP3    H139922   5.583   4.385   1.188 -2.2736  1.0675  0.2991
 6121TIP3    H239923   5.633   4.393   1.331  0.4826 -0.0356 -0.5417
 6122TIP3   OH239924   6.564   4.323   8.069  0.1029 -0.5669 -0.2824
 6122TIP3    H139925   6.510   4.251   8.098 -0.2755 -0.3309 -0.3989
 6122TIP3    H239926   6.539   4.397   8.125 -0.8439 -0.0272 -1.3745
 6123TIP3   OH239927   1.271   3.040   2.290  0.3782 -0.1706  0.1583
 6123TIP3    H139928   1.203   3.085   2.341 -0.6986 -0.6290 -0.8187
 6123TIP3    H239929   1.244   2.949   2.289  1.6641 -0.5799  0.7231
 6124TIP3   OH239930   4.199   3.683   6.961 -0.1793 -0.0979 -0.3108
 6124TIP3    H139931   4.234   3.738   7.032  1.9937  0.3201 -1.5917
 6124TIP3    H239932   4.113   3.720   6.942  0.4174  1.6370  0.1845
 6125TIP3   OH239933   3.788   0.100   1.451 -0.1899  0.0770  0.2575
 6125TIP3    H139934   3.733   0.104   1.372  0.8346 -1.7222 -0.6147
 6125TIP3    H239935   3.781   0.009   1.481  0.3583  0.4423  1.5779
 6126TIP3   OH239936   0.736   3.128   2.168 -0.1743 -0.1416  0.1073
 6126TIP3    H139937   0.819   3.080   2.162  0.4781  0.9779 -0.1776
 6126TIP3    H239938   0.683   3.078   2.230  0.4622 -1.2332 -0.2138
 6127TIP3   OH239939   2.139   6.594   8.020  0.1188 -0.3765  0.2216
 6127TIP3    H139940   2.073   6.629   8.080  0.3690 -0.1056  0.3440
 6127TIP3    H239941   2.143   6.501   8.041 -0.5708 -0.4896 -0.1235
 6128TIP3   OH239942   2.312   1.948   0.157 -0.1963  0.2486 -0.4227
 6128TIP3    H139943   2.274   1.890   0.092 -0.6742  1.0666 -0.8820
 6128TIP3    H239944   2.238   1.995   0.194 -0.3946 -2.1803  2.8154
 6129TIP3   OH239945   6.296   3.325   8.124 -0.2446 -0.7413 -0.4593
 6129TIP3    H139946   6.374   3.277   8.154 -0.1361  0.1496  0.7747
 6129TIP3    H239947   6.323   3.365   8.041  0.7724 -0.1195  0.1481
 6130TIP3   OH239948   0.810   2.969   7.658 -0.3639 -0.7438 -0.1960
 6130TIP3    H139949   0.869   3.004   7.725 -0.1689  2.7925 -1.9380
 6130TIP3    H239950   0.867   2.946   7.585 -0.7663 -2.2007 -0.0736
 6131TIP3   OH239951   2.185   3.134   7.632 -0.4381 -0.3214  0.0102
 6131TIP3    H139952   2.117   3.199   7.649 -0.1913 -0.2616  0.8017
 6131TIP3    H239953   2.240   3.135   7.711  0.5445 -0.2952 -0.6493
 6132TIP3   OH239954   2.189   3.312   3.032  0.1608 -0.3190 -0.1921
 6132TIP3    H139955   2.215   3.399   3.002 -0.9697 -0.1982 -0.8590
 6132TIP3    H239956   2.212   3.311   3.125  1.7465  0.0648 -0.5583
 6133TIP3   OH239957   0.979   4.374   8.252 -0.5731 -0.5949  0.3938
 6133TIP3    H139958   0.918   4.443   8.276 -1.7375 -0.9142 -1.4309
 6133TIP3    H239959   1.056   4.421   8.219 -0.3749 -0.1895  1.4042
 6134TIP3   OH239960   3.150   5.626   1.582  0.0259  0.1891  0.1039
 6134TIP3    H139961   3.103   5.699   1.622 -1.8811 -1.1160  0.3432
 6134TIP3    H239962   3.134   5.552   1.640 -0.4755 -1.0962 -1.6085
 6135TIP3   OH239963   3.195   4.749   2.463 -0.5062 -0.2908  0.3744
 6135TIP3    H139964   3.139   4.729   2.538 -3.2314  1.5477 -0.9898
 6135TIP3    H239965   3.241   4.829   2.488 -0.0901 -0.6303  0.7077
 6136TIP3   OH239966   4.171   6.827   7.669  0.2560 -0.0030 -0.1333
 6136TIP3    H139967   4.083   6.789   7.663 -0.2230  1.1249 -0.5275
 6136TIP3    H239968   4.186   6.866   7.583  0.5694  1.0097  0.3578
 6137TIP3   OH239969   1.620   0.592   2.207 -0.2192  0.0008  0.2008
 6137TIP3    H139970   1.602   0.505   2.172  0.7123 -0.7146  1.4135
 6137TIP3    H239971   1.713   0.606   2.189  0.1262 -0.1164  1.7473
 6138TIP3   OH239972   4.307   3.512   8.572  0.8108 -0.0255  0.1663
 6138TIP3    H139973   4.298   3.418   8.560 -0.7359  0.1714 -0.4772
 6138TIP3    H239974   4.292   3.526   8.665 -1.6332 -0.2125 -0.1241
 6139TIP3   OH239975   3.311   0.816   6.892 -0.5515 -0.0077 -0.5123
 6139TIP3    H139976   3.361   0.805   6.811 -0.4798  1.1216 -0.6412
 6139TIP3    H239977   3.224   0.782   6.871  0.3759 -3.1036  0.0670
 6140TIP3   OH239978   2.903   1.874   8.050  0.0694 -0.3049  0.2970
 6140TIP3    H139979   2.823   1.922   8.075 -0.5667  0.2347 -2.3890
 6140TIP3    H239980   2.871   1.803   7.994  1.4548  0.3553 -1.4272
 6141TIP3   OH239981   2.347   3.554   7.305 -0.2161 -0.1420 -0.2245
 6141TIP3    H139982   2.405   3.615   7.260 -0.7228  0.4956 -0.0225
 6141TIP3    H239983   2.399   3.522   7.378 -0.3585  1.0253  0.4178
 6142TIP3   OH239984   3.343   4.465   0.055 -0.1347 -0.1997 -0.1364
 6142TIP3    H139985   3.282   4.514   0.110 -0.6883 -0.9614 -0.0498
 6142TIP3    H239986   3.429   4.482   0.092  0.0122  2.6713 -1.5496
 6143TIP3   OH239987   4.962   1.106   0.566  0.2764 -0.6656 -0.4519
 6143TIP3    H139988   4.920   1.057   0.637  0.8358 -1.8193 -0.8963
 6143TIP3    H239989   4.987   1.189   0.606 -0.7439 -0.6959  0.3048
 6144TIP3   OH239990   0.634   1.780   7.819 -0.6445  0.0246 -0.1756
 6144TIP3    H139991   0.655   1.819   7.734  1.8123 -2.1916 -0.7046
 6144TIP3    H239992   0.621   1.855   7.877 -2.6488  1.6115 -2.4926
 6145TIP3   OH239993   4.082   3.988   8.651  0.2281 -0.6728 -0.0710
 6145TIP3    H139994   4.068   4.024   8.563  0.5506 -1.3307 -0.3934
 6145TIP3    H239995   4.165   3.942   8.646  1.0451  0.6022  1.0131
 6146TIP3   OH239996   5.631   3.886   0.819 -0.3925  0.4113  0.2532
 6146TIP3    H139997   5.589   3.908   0.736  1.0036 -0.5208 -0.7612
 6146TIP3    H239998   5.702   3.949   0.827 -1.8574  1.9567  1.9334
 6147TIP3   OH239999   0.127   5.931   7.109 -0.2654 -0.0473  0.7976
 6147TIP3    H140000   0.056   5.897   7.163 -1.4247 -0.2833 -0.8213
 6147TIP3    H240001   0.125   5.878   7.030  1.7723 -0.0955  0.7264
 6148TIP3   OH240002   0.151   6.801   1.898 -0.6093 -0.0496  0.1545
 6148TIP3    H140003   0.171   6.876   1.953 -1.4458 -0.3023  0.8339
 6148TIP3    H240004   0.173   6.725   1.953 -1.3536 -0.3045  0.1088
 6149TIP3   OH240005   3.403   5.394   1.671  0.5442 -0.2394  0.0625
 6149TIP3    H140006   3.474   5.430   1.723  0.0678 -1.0811  1.3431
 6149TIP3    H240007   3.363   5.470   1.629  2.0716  0.2550 -0.5390
 6150TIP3   OH240008   5.550   5.122   0.108  0.2292 -0.7307  0.2267
 6150TIP3    H140009   5.503   5.203   0.091  1.4096 -0.2997 -1.2266
 6150TIP3    H240010   5.485   5.064   0.147 -1.7721 -0.4960 -2.5031
 6151TIP3   OH240011   2.477   6.006   0.237 -0.0721  0.3833 -0.3411
 6151TIP3    H140012   2.416   6.080   0.247 -0.5095 -0.0163  0.0227
 6151TIP3    H240013   2.426   5.939   0.193  0.0693 -0.0016  0.0784
 6152TIP3   OH240014   5.606   2.977   7.561 -0.5395  0.3139 -0.3031
 6152TIP3    H140015   5.569   3.062   7.538 -0.2011  0.3233 -0.8173
 6152TIP3    H240016   5.669   2.958   7.492 -1.8650 -1.1685 -1.1924
 6153TIP3   OH240017   6.255   4.547   2.002 -0.4326 -0.5757  0.2256
 6153TIP3    H140018   6.301   4.474   1.961  0.6747 -0.1436  0.6595
 6153TIP3    H240019   6.298   4.626   1.968 -0.8124 -0.1575  0.6815
 6154TIP3   OH240020   3.257   6.752   1.747 -0.1485 -0.1257 -0.3840
 6154TIP3    H140021   3.284   6.705   1.668 -1.7222 -2.4751  0.3771
 6154TIP3    H240022   3.191   6.814   1.717  0.1472 -0.1253 -1.0605
 6155TIP3   OH240023   3.487   3.691   1.829  0.3122  0.0503  0.4584
 6155TIP3    H140024   3.445   3.765   1.874  0.3043  0.5720 -0.3818
 6155TIP3    H240025   3.581   3.706   1.843  0.3346  0.5000 -0.1112
 6156TIP3   OH240026   2.646   0.858   0.981 -0.0596 -0.0848 -0.4959
 6156TIP3    H140027   2.686   0.869   1.067 -1.6230  1.6983  0.0800
 6156TIP3    H240028   2.717   0.870   0.919  0.6379  1.2537  0.5194
 6157TIP3   OH240029   6.507   4.600   1.583  0.3873  0.2811  0.4441
 6157TIP3    H140030   6.547   4.572   1.500 -0.4617  0.7507 -0.1467
 6157TIP3    H240031   6.414   4.585   1.571  0.2074  0.7663  1.1559
 6158TIP3   OH240032   4.232   5.069   1.127 -0.7008  0.3564 -0.0609
 6158TIP3    H140033   4.157   5.128   1.118  0.3886  1.6918 -0.9913
 6158TIP3    H240034   4.274   5.071   1.040 -0.2768 -1.3274  0.0730
 6159TIP3   OH240035   1.091   6.733   7.549 -0.1647 -0.9426 -0.4233
 6159TIP3    H140036   1.032   6.799   7.585  0.7515 -0.2636 -0.0958
 6159TIP3    H240037   1.063   6.721   7.458 -1.6441 -1.6575  0.1045
 6160TIP3   OH240038   5.899   2.134   1.638 -0.2050 -0.2875 -0.7602
 6160TIP3    H140039   5.896   2.039   1.625 -0.9618 -0.4150  0.2193
 6160TIP3    H240040   5.812   2.156   1.673  0.2107  0.6568 -0.2940
 6161TIP3   OH240041   1.479   3.851   8.539  0.4635  0.4399  0.6927
 6161TIP3    H140042   1.388   3.859   8.512  0.2638 -2.2525  0.2048
 6161TIP3    H240043   1.475   3.813   8.627  1.0927  0.3397  0.6864
 6162TIP3   OH240044   2.347   3.534   0.132 -0.2913  0.0036  0.1623
 6162TIP3    H140045   2.393   3.453   0.155  0.3146  0.6393  1.3147
 6162TIP3    H240046   2.374   3.597   0.200 -2.4733  0.5531  0.6076
 6163TIP3   OH240047   2.412   1.757   0.895 -0.6536 -1.2814  0.0550
 6163TIP3    H140048   2.448   1.676   0.929  0.7944 -1.7727 -2.4134
 6163TIP3    H240049   2.343   1.729   0.835  0.0213 -0.7248 -1.0026
 6164TIP3   OH240050   6.414   2.107   1.243 -0.8072  0.3311  0.3136
 6164TIP3    H140051   6.448   2.032   1.292 -2.5436 -1.0042 -0.4232
 6164TIP3    H240052   6.485   2.129   1.182  0.3558  0.3735  1.6208
 6165TIP3   OH240053   5.532   1.939   6.709  0.4513  0.5166  0.6261
 6165TIP3    H140054   5.521   2.007   6.776 -0.3019  0.6595  0.3670
 6165TIP3    H240055   5.544   1.858   6.759  2.9923  1.0046  0.9866
 6166TIP3   OH240056   4.013   1.972   0.634  0.5258  0.2360  0.3245
 6166TIP3    H140057   4.054   2.058   0.645 -0.1424  0.5836  0.1245
 6166TIP3    H240058   4.012   1.958   0.539  0.4978  0.0699  0.3492
 6167TIP3   OH240059   4.328   0.138   8.638 -0.3960 -0.8166 -0.4600
 6167TIP3    H140060   4.288   0.181   8.562 -0.8906  1.9692  1.2298
 6167TIP3    H240061   4.262   0.144   8.707  1.1973 -0.1910  1.1078
 6168TIP3   OH240062   1.172   4.094   0.540 -0.1477 -0.3969 -0.0790
 6168TIP3    H140063   1.106   4.037   0.500 -1.8092  2.5927 -1.9887
 6168TIP3    H240064   1.145   4.102   0.631 -2.4029  0.5672 -0.7621
 6169TIP3   OH240065   4.749   3.325   0.798  0.6137 -0.1815  0.0849
 6169TIP3    H140066   4.833   3.281   0.812  0.3108 -0.8635 -0.1777
 6169TIP3    H240067   4.767   3.417   0.813  0.9776 -0.5149  2.0182
 6170TIP3   OH240068   5.107   2.591   7.934  0.2645  0.0750  0.3211
 6170TIP3    H140069   5.020   2.618   7.962 -0.9904 -0.9923 -2.2590
 6170TIP3    H240070   5.135   2.659   7.873  0.2625 -0.6756 -0.5324
 6171TIP3   OH240071   5.439   2.431   1.929  0.0775 -0.0001  0.5311
 6171TIP3    H140072   5.527   2.417   1.896 -0.3090 -0.3911 -0.3515
 6171TIP3    H240073   5.435   2.524   1.950  0.3344  0.2625 -0.5374
 6172TIP3   OH240074   6.407   0.569   1.006  0.2160  0.1053  0.1289
 6172TIP3    H140075   6.464   0.632   1.050 -0.2066  1.2481 -0.9148
 6172TIP3    H240076   6.365   0.618   0.936  0.4176 -1.5162 -1.2006
 6173TIP3   OH240077   0.921   2.140   7.521 -0.5000 -0.0080  0.1796
 6173TIP3    H140078   0.966   2.222   7.537  1.2614 -0.9081  0.1130
 6173TIP3    H240079   0.843   2.164   7.472  0.0909  1.5979 -0.0116
 6174TIP3   OH240080   5.820   6.782   0.057  0.0103  0.1190 -0.5855
 6174TIP3    H140081   5.746   6.829   0.019  2.6284  3.6667 -1.8084
 6174TIP3    H240082   5.840   6.714  -0.007 -3.0604 -2.1238  0.5902
 6175TIP3   OH240083   0.232   2.731   1.098 -0.8842  0.1576  0.1467
 6175TIP3    H140084   0.275   2.787   1.162 -2.0484 -0.9942  2.0377
 6175TIP3    H240085   0.225   2.785   1.019  1.7380  1.1984  0.5158
 6176TIP3   OH240086   3.735   6.445   1.988  0.2047  0.2379  0.4762
 6176TIP3    H140087   3.691   6.398   2.059  1.2368 -1.2831  0.1538
 6176TIP3    H240088   3.734   6.384   1.914  0.3380  1.2732 -0.4054
 6177TIP3   OH240089   1.093   3.854   7.624 -0.3444  0.5457  0.4402
 6177TIP3    H140090   1.146   3.776   7.640  0.0690  0.4900 -1.0663
 6177TIP3    H240091   1.134   3.896   7.548 -1.9053  0.9855 -0.2114
 6178TIP3   OH240092   2.520   1.655   0.538 -0.2623  0.0071 -0.3375
 6178TIP3    H140093   2.444   1.630   0.487  0.9240 -2.4269 -1.0487
 6178TIP3    H240094   2.512   1.604   0.619 -0.5235  1.4688  0.5872
 6179TIP3   OH240095   4.126   2.189   0.304 -0.4149 -0.1535  0.4635
 6179TIP3    H140096   4.118   2.103   0.346 -0.2331  0.1455  1.1140
 6179TIP3    H240097   4.112   2.171   0.211  0.4398 -1.0134  0.4928
 6180TIP3   OH240098   4.795   0.671   8.163  0.1192  0.2631  0.1608
 6180TIP3    H140099   4.760   0.594   8.117 -0.3900  2.0318 -2.6452
 6180TIP3    H240100   4.889   0.654   8.169 -0.1415 -1.1336  0.8203
 6181TIP3   OH240101   1.112   6.818   2.261 -0.4725 -0.3536 -0.4073
 6181TIP3    H140102   1.150   6.868   2.189  0.3214  1.5170  1.2452
 6181TIP3    H240103   1.113   6.727   2.230 -0.2724  0.3908 -2.7714
 6182TIP3   OH240104   2.028   1.160   0.225  0.1286 -0.6394  0.3852
 6182TIP3    H140105   2.072   1.186   0.144  0.5095 -0.9673  0.4832
 6182TIP3    H240106   2.003   1.069   0.211 -1.8290 -0.0551 -0.2313
 6183TIP3   OH240107   5.946   4.464   8.246 -0.0213 -0.1348  0.0325
 6183TIP3    H140108   5.937   4.548   8.291 -3.1535  0.2169 -1.0167
 6183TIP3    H240109   5.944   4.487   8.152  1.7889 -1.2247 -0.3236
 6184TIP3   OH240110   0.900   6.412   1.328 -0.5594  0.3165  0.2913
 6184TIP3    H140111   0.931   6.480   1.269 -2.1325  1.7720  1.0496
 6184TIP3    H240112   0.914   6.448   1.415  1.5287 -1.7122  0.8884
 6185TIP3   OH240113   1.022   5.345   1.750 -0.0731  0.3108 -0.3615
 6185TIP3    H140114   0.977   5.307   1.825 -0.9515  0.8063 -0.6262
 6185TIP3    H240115   0.952   5.366   1.687  0.5403  0.8912 -0.8740
 6186TIP3   OH240116   1.661   1.946   2.000 -0.6390 -0.6382  0.1178
 6186TIP3    H140117   1.598   1.874   1.999  0.2031 -1.3928  0.0781
 6186TIP3    H240118   1.735   1.912   2.051  1.0889 -0.9517 -2.4381
 6187TIP3   OH240119   5.718   6.773   1.791  0.0079 -0.5410  0.0469
 6187TIP3    H140120   5.786   6.829   1.830 -1.5159  0.2312  1.7576
 6187TIP3    H240121   5.719   6.694   1.844  1.3426 -1.7086 -1.6239
 6188TIP3   OH240122   1.501   0.694   0.015 -0.2067 -0.0163 -0.2121
 6188TIP3    H140123   1.590   0.661   0.004 -0.4932 -0.9959  0.3200
 6188TIP3    H240124   1.497   0.722   0.107 -1.0880 -2.0531  0.4232
 6189TIP3   OH240125   1.874   6.771   1.816 -0.5008  0.1692 -0.2115
 6189TIP3    H140126   1.952   6.820   1.789  1.1375 -2.3656 -0.4497
 6189TIP3    H240127   1.857   6.800   1.905  2.4558 -1.0971  0.8832
 6190TIP3   OH240128   6.746   4.133   1.435 -0.1309 -0.1905  0.0823
 6190TIP3    H140129   6.692   4.199   1.480 -2.1447 -1.2733 -0.6621
 6190TIP3    H240130   6.730   4.052   1.484 -1.9996 -1.2932 -2.1853
 6191TIP3   OH240131   5.378   4.101   1.124  0.1165  0.2681  0.1776
 6191TIP3    H140132   5.354   4.193   1.118  0.4286  0.3233 -0.2401
 6191TIP3    H240133   5.474   4.101   1.122  0.1114 -0.1202 -0.7841
 6192TIP3   OH240134   6.792   6.366   2.215 -0.6266  0.0628  0.2884
 6192TIP3    H140135   6.881   6.387   2.245 -0.7355  2.2189 -0.6903
 6192TIP3    H240136   6.783   6.414   2.133 -2.6330 -0.2881  0.2626
 6193TIP3   OH240137   6.114   6.237   0.384  0.0123  0.0390  0.5281
 6193TIP3    H140138   6.108   6.217   0.291  0.6575 -1.1584  0.7260
 6193TIP3    H240139   6.206   6.260   0.399 -0.3016  1.2987  0.6912
 6194TIP3   OH240140   1.730   4.407   6.689 -0.4327  0.7948  0.0921
 6194TIP3    H140141   1.782   4.411   6.609 -0.0334 -0.0565  0.2999
 6194TIP3    H240142   1.647   4.448   6.665 -0.2022  0.8351 -0.6673
 6195TIP3   OH240143   5.378   0.314   1.603 -0.0014  1.0950 -0.2528
 6195TIP3    H140144   5.313   0.368   1.647  0.0423  1.1816 -0.2940
 6195TIP3    H240145   5.449   0.306   1.666 -0.9026 -0.6994  0.6028
 6196TIP3   OH240146   0.073   0.302   1.950 -0.3503  0.3933  0.7249
 6196TIP3    H140147   0.011   0.230   1.942 -0.4240  0.4776  0.5091
 6196TIP3    H240148   0.082   0.317   2.044 -0.3379  0.1065  0.7688
 6197TIP3   OH240149   0.682   6.264   0.153  0.4643  0.3409 -0.8546
 6197TIP3    H140150   0.709   6.177   0.183  3.3650  0.7657 -1.9821
 6197TIP3    H240151   0.668   6.254   0.059 -1.5286  0.6212 -0.6291
 6198TIP3   OH240152   0.858   1.588   0.140 -0.5720 -0.0483  0.7711
 6198TIP3    H140153   0.819   1.652   0.200 -3.0810 -0.2336 -0.5193
 6198TIP3    H240154   0.802   1.511   0.147 -1.6059  0.2442 -2.4075
 6199TIP3   OH240155   0.856   1.586   1.904  0.5748  0.3154 -0.5710
 6199TIP3    H140156   0.819   1.626   1.826  0.1755 -1.0798 -1.1364
 6199TIP3    H240157   0.780   1.564   1.958  0.8402  1.1450  0.1621
 6200TIP3   OH240158   3.860   3.568   1.606 -0.2699  0.0153  0.3223
 6200TIP3    H140159   3.821   3.485   1.631 -0.3598 -0.0887 -0.1670
 6200TIP3    H240160   3.949   3.546   1.579 -0.9303 -0.2430 -1.8372
 6201TIP3   OH240161   0.987   1.356   1.348 -0.4234  0.8159 -0.0433
 6201TIP3    H140162   1.067   1.395   1.312 -0.3443  0.0508 -0.7153
 6201TIP3    H240163   1.018   1.290   1.409 -0.5543  1.0175  0.2437
 6202TIP3   OH240164   0.993   6.400   7.661  0.4114  0.5166  0.5958
 6202TIP3    H140165   0.986   6.457   7.738  0.8087  0.7960  0.4239
 6202TIP3    H240166   0.908   6.409   7.618 -0.0018 -0.0351  1.2737
 6203TIP3   OH240167   4.518   5.746   6.782  0.8132 -0.2154 -0.0477
 6203TIP3    H140168   4.549   5.820   6.730  1.0496  0.2975  0.8070
 6203TIP3    H240169   4.422   5.756   6.783  0.9052  0.6546  0.8954
 6204TIP3   OH240170   0.571   2.472   8.010 -0.0427  0.4844 -0.0799
 6204TIP3    H140171   0.617   2.525   7.945  2.0913 -0.9399  0.1663
 6204TIP3    H240172   0.489   2.448   7.968  1.0520  0.0263 -2.0814
 6205TIP3   OH240173   2.438   1.432   7.653 -0.2679  0.3986  0.2013
 6205TIP3    H140174   2.491   1.414   7.575  2.5568 -0.3283  2.1013
 6205TIP3    H240175   2.424   1.346   7.692  0.8320  0.9204  1.8856
 6206TIP3   OH240176   6.801   3.040   2.753 -0.2296 -0.1155  0.0850
 6206TIP3    H140177   6.856   3.030   2.675 -0.8161 -0.9941 -0.2317
 6206TIP3    H240178   6.809   2.956   2.800  1.6795  1.0625  2.0467
 6207TIP3   OH240179   3.328   6.800   7.011  0.1783  0.6040  0.0550
 6207TIP3    H140180   3.253   6.856   7.029  0.9230  1.4121  0.7852
 6207TIP3    H240181   3.301   6.713   7.040 -0.8974  0.6210 -0.8371
 6208TIP3   OH240182   5.876   3.979   1.642 -1.0188  0.4399 -0.0219
 6208TIP3    H140183   5.825   3.898   1.644  0.8660 -0.8142  0.9737
 6208TIP3    H240184   5.887   4.003   1.733 -0.6837  1.2386 -0.2648
 6209TIP3   OH240185   4.905   0.594   7.621 -0.8664  0.0628  0.2380
 6209TIP3    H140186   4.879   0.685   7.636  0.9065  0.8912 -1.2842
 6209TIP3    H240187   4.982   0.582   7.676 -0.4659 -0.1523 -0.3567
 6210TIP3   OH240188   6.197   3.629   2.386  0.5325 -0.2683 -0.4295
 6210TIP3    H140189   6.167   3.579   2.461  0.5491  0.5878  0.1544
 6210TIP3    H240190   6.242   3.705   2.423  0.2430  0.3457 -1.2999
 6211TIP3   OH240191   6.608   6.248   1.492 -0.2408  0.5930  0.0895
 6211TIP3    H140192   6.641   6.254   1.582 -0.9871  1.1453  0.3404
 6211TIP3    H240193   6.662   6.310   1.443  0.1131  0.3531  0.1763
 6212TIP3   OH240194   2.472   3.780   1.623 -0.5171  0.0752  0.2299
 6212TIP3    H140195   2.420   3.714   1.576  0.3479  0.0906 -0.7825
 6212TIP3    H240196   2.408   3.844   1.652 -1.2277 -0.5780  0.1523
 6213TIP3   OH240197   6.440   5.606   0.543  0.1405  0.2402 -0.3385
 6213TIP3    H140198   6.487   5.678   0.586  1.1920 -1.0252  0.7170
 6213TIP3    H240199   6.496   5.530   0.557 -1.9468 -1.2238  0.4609
 6214TIP3   OH240200   5.852   0.716   1.407 -0.0702  0.0778 -0.2840
 6214TIP3    H140201   5.942   0.747   1.405  0.1617 -0.6060 -0.7462
 6214TIP3    H240202   5.852   0.645   1.470 -0.2082 -0.1400 -0.5255
 6215TIP3   OH240203   5.715   0.567   8.350 -0.5450 -0.9152  0.0016
 6215TIP3    H140204   5.734   0.634   8.416 -0.9294  1.3345 -2.0172
 6215TIP3    H240205   5.795   0.515   8.345  0.4399  0.4868  0.4556
 6216TIP3   OH240206   0.315   2.713   8.457 -0.2415  0.1159  0.1540
 6216TIP3    H140207   0.293   2.805   8.443  0.0882 -0.0812 -2.0832
 6216TIP3    H240208   0.277   2.668   8.381  0.1592 -1.4978  0.8752
 6217TIP3   OH240209   4.664   6.046   2.072 -0.2307 -0.4659 -0.2301
 6217TIP3    H140210   4.644   5.957   2.100  0.1205  0.1228  2.1383
 6217TIP3    H240211   4.619   6.102   2.136  1.5608  0.9825 -0.1494
 6218TIP3   OH240212   1.000   0.919   8.155  0.3737  0.8095 -0.3270
 6218TIP3    H140213   1.013   0.835   8.199  1.4046  0.0231 -2.0059
 6218TIP3    H240214   0.963   0.976   8.222  0.9255 -0.5925  1.2461
 6219TIP3   OH240215   2.006   4.052   1.867 -0.2836 -0.1082  0.1617
 6219TIP3    H140216   1.997   3.986   1.799  0.9214  1.0326 -1.1648
 6219TIP3    H240217   1.968   4.131   1.829  2.4454  1.1514 -0.1584
 6220TIP3   OH240218   0.249   6.337   1.109  0.4157 -0.4935  0.4360
 6220TIP3    H140219   0.296   6.265   1.150  0.0426  0.1926  2.1770
 6220TIP3    H240220   0.298   6.415   1.134  0.5648 -0.0897 -1.0574
 6221TIP3   OH240221   0.171   2.548   0.240 -0.4296 -0.4963 -1.0100
 6221TIP3    H140222   0.139   2.635   0.216 -0.5947 -0.9889 -2.6982
 6221TIP3    H240223   0.266   2.554   0.232 -0.3501 -0.1807 -0.0114
 6222TIP3   OH240224   2.289   6.752   8.333 -0.2906 -0.1024  0.2049
 6222TIP3    H140225   2.240   6.701   8.268  1.5150  0.6975 -1.8861
 6222TIP3    H240226   2.354   6.690   8.366  0.3523  0.1435 -0.5696
 6223TIP3   OH240227   3.590   1.206   0.511 -0.1470  0.2809  0.0808
 6223TIP3    H140228   3.594   1.266   0.586  2.1319  0.2696  0.0438
 6223TIP3    H240229   3.501   1.213   0.479 -0.0648  3.4623  0.2406
 6224TIP3   OH240230   4.962   1.839   8.187  0.0050 -0.7161  0.2666
 6224TIP3    H140231   4.929   1.929   8.190  2.1962  0.2024 -1.0671
 6224TIP3    H240232   4.886   1.786   8.212 -1.2631  1.4799  1.4857
 6225TIP3   OH240233   6.675   4.651   2.986  0.1694  0.7185 -0.0260
 6225TIP3    H140234   6.611   4.582   3.003  2.2716 -1.0445  1.2052
 6225TIP3    H240235   6.658   4.717   3.053  0.1374 -0.1214  0.8081
 6226TIP3   OH240236   0.659   5.408   1.989 -0.1291  0.4898  0.4162
 6226TIP3    H140237   0.681   5.321   2.024 -1.6649 -0.0910  0.0201
 6226TIP3    H240238   0.619   5.390   1.904 -0.8118  1.5541  0.4954
 6227TIP3   OH240239   3.557   4.882   0.033 -0.1538  0.3786 -0.0612
 6227TIP3    H140240   3.503   4.855  -0.042  1.8655 -0.4956 -1.2743
 6227TIP3    H240241   3.506   4.855   0.110 -1.3699 -0.5662 -1.1523
 6228TIP3   OH240242   0.969   0.977   8.472 -0.2019 -0.1781  0.3037
 6228TIP3    H140243   0.917   0.974   8.553  2.1380  0.4160  1.9512
 6228TIP3    H240244   1.022   0.897   8.475 -0.7627 -0.6205 -1.1544
 6229TIP3   OH240245   4.151   0.559   0.081  0.6656 -0.1862  0.2817
 6229TIP3    H140246   4.218   0.515   0.029  0.6395 -0.4108  0.4369
 6229TIP3    H240247   4.198   0.589   0.159  0.9667  1.1658 -0.3769
 6230TIP3   OH240248   1.545   1.552   7.845  0.0576 -0.0171  0.3233
 6230TIP3    H140249   1.622   1.496   7.846 -0.3077 -0.7054 -2.2336
 6230TIP3    H240250   1.580   1.641   7.853  0.8666 -0.4203  1.5716
 6231TIP3   OH240251   3.292   3.332   0.677 -0.4683  0.3696  0.1177
 6231TIP3    H140252   3.354   3.261   0.695 -0.3375  0.2966 -0.5999
 6231TIP3    H240253   3.321   3.404   0.732 -0.9916 -0.3311  1.3756
 6232TIP3   OH240254   6.695   4.550   0.242 -0.2479  0.4313  0.2167
 6232TIP3    H140255   6.603   4.539   0.215 -0.6885  4.7284 -0.6699
 6232TIP3    H240256   6.746   4.518   0.168 -1.1173  0.3133 -0.3387
 6233TIP3   OH240257   2.698   1.189   7.674 -0.2653  1.0994 -0.7070
 6233TIP3    H140258   2.715   1.211   7.765 -0.2853  2.9421 -1.1108
 6233TIP3    H240259   2.765   1.124   7.652 -0.9191 -0.1607  0.8849
 6234TIP3   OH240260   4.409   1.910   1.201  0.6012  0.7628  0.3672
 6234TIP3    H140261   4.393   1.818   1.179  2.4613  0.2829  0.8201
 6234TIP3    H240262   4.347   1.929   1.271 -0.4398  0.1530 -0.3597
 6235TIP3   OH240263   1.782   1.410   7.847  0.2089 -0.4799 -0.4296
 6235TIP3    H140264   1.799   1.391   7.940  1.8216  0.7422 -0.4328
 6235TIP3    H240265   1.794   1.326   7.803  0.0955 -0.9308  0.3805
 6236TIP3   OH240266   4.940   6.807   0.096  0.1613 -0.1151  0.4710
 6236TIP3    H140267   4.913   6.793   0.187 -0.5895  0.0833  0.2891
 6236TIP3    H240268   4.876   6.758   0.044  0.3007  0.1600  0.0305
 6237TIP3   OH240269   2.472   1.463   0.741 -0.1794 -0.0538  0.4672
 6237TIP3    H140270   2.516   1.450   0.826  1.3715 -0.5557 -0.3659
 6237TIP3    H240271   2.453   1.374   0.711  0.5385  0.0481 -0.3198
 6238TIP3   OH240272   6.412   3.179   7.851 -0.1277  0.0687 -0.0564
 6238TIP3    H140273   6.426   3.273   7.843  0.7516  0.0992  1.3545
 6238TIP3    H240274   6.401   3.164   7.945 -1.5960 -1.0824 -0.3684
 6239TIP3   OH240275   6.605   5.700   7.712  0.4159 -0.1396 -0.7052
 6239TIP3    H140276   6.658   5.759   7.658  1.9884 -0.5934  0.2500
 6239TIP3    H240277   6.652   5.616   7.709 -1.9260 -1.5122 -2.2862
 6240TIP3   OH240278   0.240   5.226   1.349  0.5502  0.6432 -0.2677
 6240TIP3    H140279   0.335   5.222   1.348  0.5192 -2.4638 -2.2768
 6240TIP3    H240280   0.215   5.184   1.431  0.8374  2.2319  0.6805
 6241TIP3   OH240281   4.148   0.898   8.380 -0.6505  0.0245  0.2099
 6241TIP3    H140282   4.198   0.977   8.365 -0.4356 -0.0639  0.4467
 6241TIP3    H240283   4.151   0.885   8.475 -0.0906 -0.6464  0.1112
 6242TIP3   OH240284   4.877   3.917   2.304  0.2377  0.6189 -0.7344
 6242TIP3    H140285   4.851   4.002   2.340  1.0441  2.0340 -3.2470
 6242TIP3    H240286   4.802   3.891   2.250 -0.4825 -0.8908  0.9161
 6243TIP3   OH240287   1.795   2.159   8.365  0.1962  0.3057 -0.8716
 6243TIP3    H140288   1.832   2.229   8.312  1.3388  0.3157 -0.0814
 6243TIP3    H240289   1.766   2.094   8.301 -1.3655  1.6764 -1.6506
 6244TIP3   OH240290   2.304   5.573   1.306 -0.3387 -0.5522  0.0380
 6244TIP3    H140291   2.262   5.658   1.318  1.3825  0.2776  0.4928
 6244TIP3    H240292   2.396   5.594   1.292 -0.1731 -2.2429 -1.8412
 6245TIP3   OH240293   5.005   2.354   7.158  0.4788 -0.0938 -0.0682
 6245TIP3    H140294   5.063   2.386   7.089 -1.9022  0.1681 -2.0814
 6245TIP3    H240295   4.963   2.432   7.193 -0.6351 -0.4727 -0.5266
 6246TIP3   OH240296   6.715   1.051   1.571  0.0737 -0.3540  0.0980
 6246TIP3    H140297   6.717   1.145   1.554 -1.9131 -0.2119  0.4812
 6246TIP3    H240298   6.679   1.043   1.659  0.3555 -1.4718  0.1253
 6247TIP3   OH240299   3.417   3.099   7.299 -0.3435  0.5730 -0.5360
 6247TIP3    H140300   3.382   3.184   7.326 -0.5839  0.7742 -1.4583
 6247TIP3    H240301   3.343   3.054   7.258 -0.7616 -0.8877  1.6523
 6248TIP3   OH240302   4.498   4.053   0.578  0.1827  0.4429 -0.2997
 6248TIP3    H140303   4.462   3.965   0.576 -0.9289  0.8530  0.4850
 6248TIP3    H240304   4.429   4.107   0.617  1.4053  1.3770  0.6833
 6249TIP3   OH240305   4.826   3.263   0.370  0.6471  0.1465 -0.5135
 6249TIP3    H140306   4.866   3.198   0.428  0.5884  0.4532 -0.1185
 6249TIP3    H240307   4.741   3.282   0.411 -0.3485 -1.1927 -1.8461
 6250TIP3   OH240308   3.903   5.080   1.790  0.1253 -0.2232 -0.1021
 6250TIP3    H140309   3.992   5.088   1.823 -0.0441 -1.6349  0.7422
 6250TIP3    H240310   3.866   5.168   1.800  1.4422  0.4247 -0.6056
 6251TIP3   OH240311   3.837   0.903   2.516  0.1989  0.2018  0.7183
 6251TIP3    H140312   3.856   0.812   2.495 -1.9668  0.1827 -1.6320
 6251TIP3    H240313   3.887   0.954   2.453 -0.4499  0.5102  0.4397
 6252TIP3   OH240314   6.142   0.315   0.351  0.2723  0.0269 -0.6553
 6252TIP3    H140315   6.100   0.379   0.409  0.1673 -0.9410  0.3887
 6252TIP3    H240316   6.235   0.330   0.363  0.3286 -1.6158  1.5657
 6253TIP3   OH240317   0.113   2.080   0.228  0.0815  0.0446 -0.3246
 6253TIP3    H140318   0.038   2.048   0.179  0.7112 -0.9786 -0.6325
 6253TIP3    H240319   0.076   2.146   0.287 -1.2847 -1.4005  0.4959
 6254TIP3   OH240320   4.179   0.872   1.172 -0.1589  0.0815 -0.2866
 6254TIP3    H140321   4.270   0.844   1.178 -0.3388 -0.6650 -0.8677
 6254TIP3    H240322   4.148   0.875   1.262  0.7258  1.3551  0.0037
 6255TIP3   OH240323   3.056   6.026   8.521  0.1751 -0.2020  0.2481
 6255TIP3    H140324   3.070   6.036   8.615  0.0511 -1.5226  0.4295
 6255TIP3    H240325   2.979   6.080   8.502 -0.8277 -1.2420  1.2361
 6256TIP3   OH240326   0.390   1.270   7.444  0.3195 -0.4185  0.3068
 6256TIP3    H140327   0.400   1.239   7.354  1.4980  1.4364 -0.2496
 6256TIP3    H240328   0.309   1.321   7.443 -0.2744 -1.3296  0.6058
 6257TIP3   OH240329   5.320   2.823   6.851 -0.5757  0.5574  0.2398
 6257TIP3    H140330   5.258   2.857   6.786 -0.5115  0.9084  0.3623
 6257TIP3    H240331   5.372   2.899   6.877 -0.1776  0.2920  0.2321
 6258TIP3   OH240332   5.823   4.246   8.344  0.2965  0.3962  0.5714
 6258TIP3    H140333   5.750   4.279   8.397  0.5737  0.8685  0.6630
 6258TIP3    H240334   5.893   4.309   8.358  0.5099  0.3005 -0.0362
 6259TIP3   OH240335   2.313   5.183   7.834  0.0429 -0.4060  0.4943
 6259TIP3    H140336   2.297   5.261   7.780 -0.4841 -0.5596  0.4144
 6259TIP3    H240337   2.359   5.215   7.911 -0.7546  0.0950  0.7788
 6260TIP3   OH240338   3.592   4.222   7.652  0.0591  0.2613 -0.3035
 6260TIP3    H140339   3.555   4.206   7.566  0.4904 -1.2170 -0.2256
 6260TIP3    H240340   3.683   4.248   7.636  0.6150 -1.5392 -0.2550
 6261TIP3   OH240341   1.781   2.076   0.886  0.1065  0.9646  0.2150
 6261TIP3    H140342   1.866   2.113   0.863  1.4859 -1.9596  0.1347
 6261TIP3    H240343   1.740   2.056   0.802  1.8728 -2.7236  0.0425
 6262TIP3   OH240344   4.189   5.952   6.864 -0.0267 -0.2811  0.2500
 6262TIP3    H140345   4.166   6.015   6.796 -1.8422 -0.5402  0.5965
 6262TIP3    H240346   4.200   5.869   6.818  1.4535  0.0612 -0.0732
 6263TIP3   OH240347   2.058   2.876   8.477  0.0057 -0.0108  0.6547
 6263TIP3    H140348   2.148   2.880   8.443 -0.7221 -0.1140 -1.4727
 6263TIP3    H240349   2.008   2.839   8.404 -1.9792  1.2595  1.3209
 6264TIP3   OH240350   0.389   0.537   1.026  0.2532  0.0396  0.3217
 6264TIP3    H140351   0.441   0.468   1.068  1.3461  0.9322  0.5167
 6264TIP3    H240352   0.298   0.513   1.042  0.6211 -1.1784  0.6515
 6265TIP3   OH240353   6.794   1.883   0.908 -0.2280 -0.3232  0.7750
 6265TIP3    H140354   6.874   1.897   0.857 -3.1367 -0.6365 -4.6012
 6265TIP3    H240355   6.805   1.797   0.947  1.5752 -0.9163 -0.8906
 6266TIP3   OH240356   5.747   4.803   1.842 -0.2356 -0.1832 -0.4272
 6266TIP3    H140357   5.693   4.771   1.914 -0.8818  1.0123 -0.3489
 6266TIP3    H240358   5.782   4.886   1.873 -0.0923  0.0908 -1.2866
 6267TIP3   OH240359   0.935   3.694   2.764 -0.0299 -0.2455  0.0257
 6267TIP3    H140360   1.015   3.699   2.710  0.2772  0.1573  0.5101
 6267TIP3    H240361   0.864   3.702   2.701  0.3356  0.8813 -0.2718
 6268TIP3   OH240362   1.343   0.003   8.091 -0.0154 -0.0940 -0.2461
 6268TIP3    H140363   1.322   0.041   8.006  1.8556  1.9162  0.0932
 6268TIP3    H240364   1.293   0.055   8.154  0.8569  0.3806  0.0704
 6269TIP3   OH240365   5.715   4.089   2.640  0.4083 -0.2362 -0.4910
 6269TIP3    H140366   5.717   4.185   2.637  0.9522 -0.2585 -0.8654
 6269TIP3    H240367   5.801   4.065   2.674  0.8242 -0.6410 -1.7817
 6270TIP3   OH240368   5.869   0.688   0.735  0.3624 -0.2545 -0.9780
 6270TIP3    H140369   5.880   0.749   0.809 -1.1865 -1.3034  0.1663
 6270TIP3    H240370   5.882   0.601   0.774  0.6485 -0.7724 -2.1977
 6271TIP3   OH240371   6.371   2.947   7.716  0.2770 -0.6510 -0.2530
 6271TIP3    H140372   6.380   2.888   7.791  0.0829 -0.9980 -0.5021
 6271TIP3    H240373   6.403   3.032   7.748  1.1039 -1.0262 -0.0726
 6272TIP3   OH240374   4.007   1.888   7.173  0.1081  0.4805 -0.6639
 6272TIP3    H140375   3.953   1.819   7.212 -1.8599  2.4628  0.2643
 6272TIP3    H240376   4.085   1.891   7.228 -0.9974  0.7831  0.9363
 6273TIP3   OH240377   2.722   2.370   0.156 -0.7407  0.1897 -0.0720
 6273TIP3    H140378   2.769   2.447   0.188  1.3221 -0.0302 -2.3249
 6273TIP3    H240379   2.736   2.304   0.224 -0.7717  1.1565  0.9163
 6274TIP3   OH240380   0.382   3.579   2.231  0.2127  0.3830 -0.1006
 6274TIP3    H140381   0.329   3.511   2.273 -0.0721 -0.3132 -1.4897
 6274TIP3    H240382   0.326   3.657   2.230 -0.1032  0.1581  0.0394
 6275TIP3   OH240383   0.438   3.562   0.479  0.7835 -0.1710  0.4364
 6275TIP3    H140384   0.444   3.601   0.392  0.7590 -0.2543  0.3971
 6275TIP3    H240385   0.365   3.607   0.521 -0.9364 -1.9130 -0.5097
 6276TIP3   OH240386   2.196   3.892   7.625 -0.4063 -0.2606  0.6086
 6276TIP3    H140387   2.162   3.822   7.569 -0.8421  0.0266  0.5102
 6276TIP3    H240388   2.119   3.926   7.671 -0.0668 -0.4394  1.3262
 6277TIP3   OH240389   3.373   5.945   2.159 -0.2027  0.0821 -0.0471
 6277TIP3    H140390   3.285   5.936   2.123 -0.4615  1.0553  0.3071
 6277TIP3    H240391   3.363   6.005   2.232  0.4758 -1.1200  1.0808
 6278TIP3   OH240392   6.805   3.971   7.100 -0.3738  0.2138 -0.3776
 6278TIP3    H140393   6.796   4.059   7.064  0.8665  0.5846  0.1420
 6278TIP3    H240394   6.855   3.922   7.034 -2.1583 -0.4980 -1.2423
 6279TIP3   OH240395   3.990   6.101   1.530 -0.2062  0.3918  0.1243
 6279TIP3    H140396   4.005   6.112   1.624  1.0234  1.9334 -0.2079
 6279TIP3    H240397   4.055   6.158   1.489 -2.6751  2.1204 -1.6401
 6280TIP3   OH240398   6.861   6.403   1.052 -0.1195 -0.1287  0.4180
 6280TIP3    H140399   6.933   6.351   1.088  0.0328 -1.6845 -1.9273
 6280TIP3    H240400   6.897   6.491   1.042  0.1234  0.1320  2.9874
 6281TIP3   OH240401   2.317   5.892   7.072 -0.4844 -0.5500 -0.0324
 6281TIP3    H140402   2.247   5.838   7.035  1.2624 -2.6339 -0.5030
 6281TIP3    H240403   2.333   5.959   7.006 -2.6629  0.6187  0.5332
 6282TIP3   OH240404   4.594   6.476   0.814  0.6078  0.0065  0.1248
 6282TIP3    H140405   4.544   6.497   0.734  0.5077 -0.1262  0.1508
 6282TIP3    H240406   4.668   6.424   0.782 -0.1992 -1.2901  0.2507
 6283TIP3   OH240407   6.815   6.585   2.027  0.7266 -0.3176 -0.1429
 6283TIP3    H140408   6.722   6.567   2.010  1.0314 -0.6526 -1.5825
 6283TIP3    H240409   6.814   6.665   2.080 -0.3696  0.3593 -1.1275
 6284TIP3   OH240410   1.618   0.381   2.002  0.2175  0.4672 -0.3054
 6284TIP3    H140411   1.560   0.386   1.925  0.8275  2.4904 -0.7035
 6284TIP3    H240412   1.570   0.327   2.064 -0.3310 -1.1877 -2.0634
 6285TIP3   OH240413   2.076   4.818   7.130  0.0051  0.4080  0.1251
 6285TIP3    H140414   2.157   4.845   7.087 -0.4643  0.9061 -0.4638
 6285TIP3    H240415   2.008   4.828   7.062 -0.1277 -2.9194 -0.4089
 6286TIP3   OH240416   4.029   6.241   7.127  0.3505  0.1101  0.2626
 6286TIP3    H140417   4.118   6.207   7.132 -0.4627 -2.3145 -0.5988
 6286TIP3    H240418   4.039   6.325   7.081  2.0313 -0.9636 -1.5039
 6287TIP3   OH240419   3.079   4.475   7.647  1.0792  0.0833  0.5065
 6287TIP3    H140420   3.130   4.526   7.709  0.3748 -0.4308  1.5327
 6287TIP3    H240421   3.116   4.497   7.561  0.4643  2.6776  0.8486
 6288TIP3   OH240422   4.039   3.201   8.198  0.6701  0.7295 -0.0613
 6288TIP3    H140423   3.971   3.236   8.255  0.2274 -0.4182  0.1358
 6288TIP3    H240424   3.994   3.178   8.117  0.8145 -0.0324  0.0666
 6289TIP3   OH240425   4.264   4.779   0.771  0.4305  0.3608 -0.5618
 6289TIP3    H140426   4.274   4.874   0.765 -0.3551  0.4162 -1.0989
 6289TIP3    H240427   4.171   4.763   0.751  0.3294 -0.4363  0.4835
 6290TIP3   OH240428   4.334   3.417   7.858  0.0252 -0.0670 -0.0572
 6290TIP3    H140429   4.332   3.480   7.785 -2.1853  1.1811  0.9807
 6290TIP3    H240430   4.425   3.419   7.889  0.0801  2.5546 -0.1508
 6291TIP3   OH240431   4.337   3.459   6.870  0.6614 -0.0287  0.2353
 6291TIP3    H140432   4.257   3.411   6.890  0.3520 -0.2678 -1.4367
 6291TIP3    H240433   4.316   3.550   6.891 -0.6335  0.1590 -1.6372
 6292TIP3   OH240434   5.576   3.876   8.462  0.6228 -0.2042  0.5170
 6292TIP3    H140435   5.527   3.940   8.514 -1.7153 -0.4201 -1.2322
 6292TIP3    H240436   5.666   3.908   8.463 -0.0341  1.8161  1.6197
 6293TIP3   OH240437   0.201   6.845   8.549  0.1735 -0.3300 -0.2175
 6293TIP3    H140438   0.184   6.757   8.515  0.6942 -0.8213  0.7421
 6293TIP3    H240439   0.284   6.870   8.509  0.4665 -0.6447  0.1864
 6294TIP3   OH240440   1.024   3.534   7.833 -0.2025 -0.3108  0.5800
 6294TIP3    H140441   1.107   3.530   7.786 -0.4701  1.5488 -0.1476
 6294TIP3    H240442   1.031   3.465   7.899  1.3430 -1.1042 -0.3382
 6295TIP3   OH240443   2.578   5.627   8.654  0.0295  0.0012  0.3194
 6295TIP3    H140444   2.582   5.700   8.716 -0.0011  0.1473  0.1541
 6295TIP3    H240445   2.486   5.622   8.629  0.2748  1.0094 -0.9450
 6296TIP3   OH240446   6.406   1.888   7.453  0.3453  0.0789  0.0978
 6296TIP3    H140447   6.337   1.825   7.432  0.6174 -0.2340  0.1350
 6296TIP3    H240448   6.359   1.970   7.469 -0.0879 -0.3014  0.8519
 6297TIP3   OH240449   4.010   1.052   1.701  0.3265  0.1892 -0.6670
 6297TIP3    H140450   4.051   0.973   1.737  0.0855  0.6959  0.8099
 6297TIP3    H240451   4.084   1.103   1.666  0.7267  0.1424  0.0767
 6298TIP3   OH240452   4.688   5.539   0.895  0.0473  0.3225 -0.1020
 6298TIP3    H140453   4.727   5.489   0.967 -0.1678  0.0450 -0.1785
 6298TIP3    H240454   4.635   5.475   0.847  0.0758  0.5383 -0.4236
 6299TIP3   OH240455   2.480   1.368   7.373  0.3315  0.8456  0.1866
 6299TIP3    H140456   2.480   1.291   7.317  0.4897 -2.1603  3.9114
 6299TIP3    H240457   2.573   1.392   7.381  0.2399  1.9119 -1.4166
 6300TIP3   OH240458   3.130   2.157   0.569  0.4224 -0.9315  0.9084
 6300TIP3    H140459   3.132   2.235   0.625  0.5237 -0.9846  0.9789
 6300TIP3    H240460   3.123   2.084   0.631 -0.6174 -0.9291  0.8116
 6301TIP3   OH240461   3.376   5.100   1.689 -0.2998  0.3071 -0.3690
 6301TIP3    H140462   3.429   5.086   1.767 -0.9594 -1.6422 -0.2220
 6301TIP3    H240463   3.379   5.195   1.675 -1.6694  1.0251  3.0964
 6302TIP3   OH240464   5.156   1.529   7.706 -0.0728  0.6365  0.0387
 6302TIP3    H140465   5.115   1.458   7.656  3.0272  0.4265 -2.5176
 6302TIP3    H240466   5.233   1.489   7.745  1.4331  2.3926 -0.9759
 6303TIP3   OH240467   3.201   6.799   2.971 -0.2534 -0.2196 -0.0618
 6303TIP3    H140468   3.133   6.766   2.913 -1.3802  2.4967 -0.4373
 6303TIP3    H240469   3.252   6.859   2.917 -0.7335  1.6482  1.4670
 6304TIP3   OH240470   0.193   2.623   8.224  0.2670  0.6478  0.7755
 6304TIP3    H140471   0.110   2.669   8.210 -0.6331 -0.6756  1.4759
 6304TIP3    H240472   0.183   2.541   8.174  0.5375 -0.1747  2.0212
 6305TIP3   OH240473   5.101   4.372   1.471 -0.9685  0.4221  0.1298
 6305TIP3    H140474   5.109   4.332   1.384 -2.6309 -0.8501  0.5096
 6305TIP3    H240475   5.184   4.352   1.514  0.0343  1.3888 -1.2470
 6306TIP3   OH240476   5.289   3.244   2.190 -0.5016  0.0873 -0.1847
 6306TIP3    H140477   5.302   3.262   2.097  1.4896  1.0184  0.2236
 6306TIP3    H240478   5.291   3.149   2.197 -0.0455  0.0252 -1.0306
 6307TIP3   OH240479   1.205   3.029   7.678  0.1844 -0.0366  0.0198
 6307TIP3    H140480   1.138   2.994   7.737 -0.0399 -0.5945 -0.5525
 6307TIP3    H240481   1.160   3.095   7.626  0.1190 -0.2827 -0.2395
 6308TIP3   OH240482   0.490   0.821   1.576  0.0283 -0.3206 -0.1640
 6308TIP3    H140483   0.466   0.751   1.636 -0.3653 -0.6822 -0.7352
 6308TIP3    H240484   0.449   0.797   1.493 -1.4923  1.3783  0.0187
 6309TIP3   OH240485   1.631   1.115   2.001 -0.4494  0.4237 -0.6535
 6309TIP3    H140486   1.687   1.126   2.078 -1.1206 -1.1383  0.0930
 6309TIP3    H240487   1.680   1.057   1.944 -0.2146  1.1021 -1.1512
 6310TIP3   OH240488   3.459   2.737   8.286  0.2261  0.2614 -0.8001
 6310TIP3    H140489   3.425   2.800   8.350  2.5737  0.2405  0.5808
 6310TIP3    H240490   3.490   2.792   8.213  0.8107  0.6126 -0.3029
 6311TIP3   OH240491   5.213   6.852   0.010 -0.3123 -0.0305  0.2563
 6311TIP3    H140492   5.254   6.806   0.083  0.4087  2.1385  1.2893
 6311TIP3    H240493   5.124   6.869   0.041 -1.1075 -1.9824 -0.7514
 6312TIP3   OH240494   2.712   5.903   1.816  0.1661  0.0819 -0.1458
 6312TIP3    H140495   2.694   5.850   1.894  0.5801 -1.2039 -0.8860
 6312TIP3    H240496   2.653   5.978   1.823 -1.0523 -0.9035  0.5192
 6313TIP3   OH240497   1.673   1.020   0.636  0.1820 -0.1066 -0.4706
 6313TIP3    H140498   1.638   1.060   0.716 -0.4372 -1.6991  0.0852
 6313TIP3    H240499   1.741   1.081   0.607  1.3284 -0.0899  1.9949
 6314TIP3   OH240500   0.289   6.248   1.958 -0.8170 -0.7319  0.1462
 6314TIP3    H140501   0.262   6.304   1.885  0.5734  0.0039  0.1582
 6314TIP3    H240502   0.273   6.159   1.926 -1.8997 -0.3784 -0.3532
 6315TIP3   OH240503   6.765   4.356   1.925 -0.4967 -0.2372  0.2111
 6315TIP3    H140504   6.697   4.398   1.978 -0.7167 -1.3611  0.8561
 6315TIP3    H240505   6.811   4.300   1.987  0.9897  0.4497 -0.2407
 6316TIP3   OH240506   1.157   2.916   0.881 -0.0019 -0.1348  0.1329
 6316TIP3    H140507   1.211   2.908   0.802  0.6768 -0.1933  0.5924
 6316TIP3    H240508   1.134   2.826   0.903  1.3788 -0.3055  1.0469
 6317TIP3   OH240509   3.916   3.181   7.726 -0.9477 -0.1226 -0.5296
 6317TIP3    H140510   3.850   3.201   7.659 -1.5097  0.4483  0.1795
 6317TIP3    H240511   3.944   3.266   7.758  0.5719 -0.3335 -1.2064
 6318TIP3   OH240512   0.552   0.515   1.900  0.4526 -0.0665 -0.1796
 6318TIP3    H140513   0.542   0.592   1.844 -1.3045 -0.6456 -0.7473
 6318TIP3    H240514   0.485   0.527   1.968 -0.7152 -1.6672 -1.0028
 6319TIP3   OH240515   3.448   6.576   0.130 -0.0503  0.4521  0.6967
 6319TIP3    H140516   3.423   6.596   0.220  0.9158 -0.1540  1.1195
 6319TIP3    H240517   3.482   6.487   0.135 -0.5320  0.2017 -0.3828
 6320TIP3   OH240518   4.060   2.270   2.665 -0.4156 -0.1116 -0.2237
 6320TIP3    H140519   3.976   2.281   2.620  0.1647  0.7501 -1.1141
 6320TIP3    H240520   4.079   2.356   2.701 -0.9105 -0.7881  1.8260
 6321TIP3   OH240521   4.496   2.163   0.999  0.1054  0.0309 -0.0260
 6321TIP3    H140522   4.456   2.146   1.084 -1.4599  2.1428 -0.2661
 6321TIP3    H240523   4.538   2.080   0.976  0.5229 -0.6270  2.7300
 6322TIP3   OH240524   1.901   2.710   0.639  0.1604 -0.0855  0.2617
 6322TIP3    H140525   1.978   2.738   0.590  0.7275 -0.7963  0.7209
 6322TIP3    H240526   1.930   2.633   0.688 -0.8281 -0.3322  0.4918
 6323TIP3   OH240527   4.530   0.226   1.067 -0.0740  0.5673  0.3716
 6323TIP3    H140528   4.611   0.228   1.015  0.2937  1.3904  0.9555
 6323TIP3    H240529   4.534   0.142   1.113  0.7562  0.8667  0.8605
 6324TIP3   OH240530   5.772   6.617   8.044 -0.3262  0.0861 -0.1819
 6324TIP3    H140531   5.720   6.591   8.120 -1.1177  2.6206  0.2458
 6324TIP3    H240532   5.863   6.613   8.075 -0.4294 -1.4992  0.0000
 6325TIP3   OH240533   5.281   6.316   0.190 -0.0766  0.2041 -0.7541
 6325TIP3    H140534   5.275   6.242   0.129 -3.0478 -0.7402  0.4950
 6325TIP3    H240535   5.215   6.378   0.160  0.1832  0.8963  0.0486
 6326TIP3   OH240536   3.496   3.850   2.757 -0.6339  0.1230 -0.2551
 6326TIP3    H140537   3.477   3.773   2.703  1.3232 -3.8316  4.0540
 6326TIP3    H240538   3.587   3.871   2.738 -0.0791 -0.9919  1.0326
 6327TIP3   OH240539   4.076   2.959   7.611  0.2607  0.3917  0.2954
 6327TIP3    H140540   4.166   2.986   7.594 -0.1897  1.6302 -0.2892
 6327TIP3    H240541   4.031   3.039   7.637 -1.0900  0.1836 -1.2360
 6328TIP3   OH240542   1.922   1.472   1.891  0.4699 -0.0816 -0.0194
 6328TIP3    H140543   1.961   1.390   1.860  0.4978  0.9631 -3.0212
 6328TIP3    H240544   1.828   1.462   1.873 -0.0274 -0.5337  2.3863
 6329TIP3   OH240545   6.148   5.945   0.406  0.0008 -0.3852  0.0305
 6329TIP3    H140546   6.168   5.925   0.497 -0.5643  1.5597  0.6229
 6329TIP3    H240547   6.096   6.025   0.409 -1.0764 -0.9398 -1.9403
 6330TIP3   OH240548   2.367   3.971   7.173 -0.5218  0.0882 -0.0998
 6330TIP3    H140549   2.360   3.921   7.092 -0.9800 -0.3630  0.2061
 6330TIP3    H240550   2.456   4.004   7.174  0.1095 -1.5540  0.1662
 6331TIP3   OH240551   4.003   0.291   7.166 -0.1868 -0.8597  0.5877
 6331TIP3    H140552   3.941   0.266   7.098 -0.6213  2.1961 -0.2727
 6331TIP3    H240553   4.070   0.222   7.163  0.0850 -0.6286 -3.3250
 6332TIP3   OH240554   4.655   6.630   1.246  0.7465  0.1033 -0.2471
 6332TIP3    H140555   4.740   6.654   1.209 -0.4974  1.4944 -2.4220
 6332TIP3    H240556   4.633   6.547   1.203  1.5731 -1.0716  1.4400
 6333TIP3   OH240557   2.878   5.682   2.160 -0.4406 -0.1632  0.0379
 6333TIP3    H140558   2.938   5.748   2.126 -0.9779  0.0322 -0.5445
 6333TIP3    H240559   2.853   5.714   2.247  0.6654 -0.4933  0.4918
 6334TIP3   OH240560   1.752   3.480   2.415  0.6285  0.2283  0.5404
 6334TIP3    H140561   1.767   3.528   2.497 -1.0472 -2.6904  2.7804
 6334TIP3    H240562   1.657   3.472   2.409  0.7866 -1.2246 -0.6358
 6335TIP3   OH240563   6.301   0.558   7.273 -0.1508 -0.2276 -0.2548
 6335TIP3    H140564   6.371   0.546   7.209 -1.4811  1.1151 -2.0395
 6335TIP3    H240565   6.315   0.487   7.337  2.4553 -0.3399 -0.8425
 6336TIP3   OH240566   2.169   6.315   0.170  0.0307  0.0186 -0.0941
 6336TIP3    H140567   2.083   6.358   0.168 -0.9810 -1.8542  0.3771
 6336TIP3    H240568   2.215   6.355   0.243 -0.2464  1.3953 -0.6571
 6337TIP3   OH240569   0.570   4.482   2.638  0.5020 -0.1060  0.0851
 6337TIP3    H140570   0.643   4.540   2.660 -0.9304  2.6485 -1.8434
 6337TIP3    H240571   0.492   4.532   2.661 -0.8262 -1.3617 -1.4731
 6338TIP3   OH240572   1.226   6.382   1.230 -0.2535  0.4257 -0.0644
 6338TIP3    H140573   1.183   6.323   1.168 -0.2213 -0.1060  0.4211
 6338TIP3    H240574   1.217   6.469   1.190  1.7482 -0.1461 -1.9666
 6339TIP3   OH240575   1.046   2.331   7.768 -0.0935 -0.4598  0.1910
 6339TIP3    H140576   0.950   2.333   7.771 -0.0840 -0.0939  0.2117
 6339TIP3    H240577   1.069   2.388   7.695  0.0982 -0.8162 -0.0281
 6340TIP3   OH240578   0.778   2.944   8.087 -0.0323 -0.4133  0.1350
 6340TIP3    H140579   0.761   3.020   8.142  0.0827  0.2369 -0.7019
 6340TIP3    H240580   0.770   2.869   8.145  2.8412  0.3646  1.7430
 6341TIP3   OH240581   1.126   4.427   1.513  0.3301  0.0682  0.1961
 6341TIP3    H140582   1.182   4.366   1.466  0.1474 -0.4418  0.6369
 6341TIP3    H240583   1.040   4.385   1.516 -0.1920  0.9997 -0.7901
 6342TIP3   OH240584   1.495   3.143   2.438  0.1456  0.5084 -0.7995
 6342TIP3    H140585   1.532   3.063   2.477  0.3832  0.9409 -0.1358
 6342TIP3    H240586   1.424   3.111   2.382 -0.0079 -0.1363 -0.2438
 6343TIP3   OH240587   6.548   0.016   6.874  0.2595 -0.2500  0.1488
 6343TIP3    H140588   6.557   0.106   6.904 -0.7243 -0.5585  1.4634
 6343TIP3    H240589   6.634  -0.023   6.889  1.5946  1.1301 -3.0188
 6344TIP3   OH240590   3.483   0.038   7.557  0.1102 -0.6194 -0.1534
 6344TIP3    H140591   3.554   0.033   7.621 -0.8429 -1.4592  0.8918
 6344TIP3    H240592   3.409  -0.006   7.600 -1.5164  1.5551 -0.5595
 6345TIP3   OH240593   1.245   6.001   7.081  0.3822 -0.0911  0.3245
 6345TIP3    H140594   1.153   5.982   7.099  0.2083 -0.2206 -0.6466
 6345TIP3    H240595   1.251   6.097   7.087  0.3405 -0.1307  1.0681
 6346TIP3   OH240596   5.332   2.533   6.744  0.0716 -0.2546  0.2535
 6346TIP3    H140597   5.369   2.462   6.692 -1.2742  0.3881 -1.6838
 6346TIP3    H240598   5.387   2.609   6.725  0.3511 -0.3086  0.8161
 6347TIP3   OH240599   2.269   2.074   8.400  0.9053 -0.2490  0.0374
 6347TIP3    H140600   2.191   2.116   8.436  0.0041  0.4817 -2.5337
 6347TIP3    H240601   2.263   1.983   8.428  0.9538  0.4877  2.6619
 6348TIP3   OH240602   0.776   3.937   2.087  0.1354 -0.1701 -0.7376
 6348TIP3    H140603   0.715   3.977   2.149  1.8526  1.0592  0.2490
 6348TIP3    H240604   0.808   4.009   2.034  1.4039 -0.6227 -0.6179
 6349TIP3   OH240605   3.858   5.765   1.191 -0.1513  0.3611 -0.1882
 6349TIP3    H140606   3.924   5.749   1.123  0.1931 -0.0526  0.2392
 6349TIP3    H240607   3.816   5.680   1.204 -0.6082  0.5684 -0.2853
 6350TIP3   OH240608   5.472   1.020   2.790  0.4029  0.0648  0.1393
 6350TIP3    H140609   5.526   1.099   2.797  0.4636  0.0222  0.1482
 6350TIP3    H240610   5.427   1.029   2.706 -1.5012  1.3267  1.2151
 6351TIP3   OH240611   5.527   4.417   0.036  0.1307 -0.1316  0.1416
 6351TIP3    H140612   5.497   4.482  -0.027  0.7005  0.3698  0.3815
 6351TIP3    H240613   5.471   4.431   0.113 -0.4113 -0.5915 -0.1634
 6352TIP3   OH240614   0.878   0.791   7.659  0.2566 -0.2834 -0.0080
 6352TIP3    H140615   0.890   0.829   7.746 -1.4874  1.5863 -0.5053
 6352TIP3    H240616   0.845   0.863   7.606  1.4144 -1.3312 -2.2917
 6353TIP3   OH240617   0.856   5.354   8.211  0.4052 -0.1772 -0.0625
 6353TIP3    H140618   0.930   5.392   8.164  0.8976  1.2537  1.7518
 6353TIP3    H240619   0.787   5.421   8.205  0.5485  0.1193  1.3799
 6354TIP3   OH240620   4.373   5.141   2.360 -0.6329  0.5990 -0.0784
 6354TIP3    H140621   4.459   5.147   2.320 -0.0970  0.2496  0.9888
 6354TIP3    H240622   4.364   5.049   2.385 -1.2951  0.6412 -0.1436
 6355TIP3   OH240623   5.602   5.656   1.783  0.2757  0.1435  0.4230
 6355TIP3    H140624   5.517   5.686   1.815 -1.8308 -2.7774 -1.8714
 6355TIP3    H240625   5.611   5.696   1.697  0.1285 -1.1845 -0.2461
 6356TIP3   OH240626   0.835   0.309   0.359  0.3443  0.3401 -0.0089
 6356TIP3    H140627   0.797   0.301   0.447 -0.3545  1.4414 -0.1824
 6356TIP3    H240628   0.918   0.262   0.365 -0.8445 -1.8287  0.4909
 6357TIP3   OH240629   2.231   4.652   1.444  0.7956  0.3033 -0.1040
 6357TIP3    H140630   2.210   4.622   1.356  1.1761  3.4799 -1.3786
 6357TIP3    H240631   2.170   4.724   1.460  0.6741 -0.2541  2.3281
 6358TIP3   OH240632   1.231   0.580   8.129 -0.5975 -0.3660 -0.1422
 6358TIP3    H140633   1.201   0.623   8.209 -2.9035 -2.1170  0.0312
 6358TIP3    H240634   1.196   0.634   8.058 -0.9071 -0.3113  0.0510
 6359TIP3   OH240635   5.941   5.459   1.993  0.2415  0.4828  0.7364
 6359TIP3    H140636   5.989   5.415   2.063 -1.1960  0.5252  1.8113
 6359TIP3    H240637   5.873   5.396   1.969 -0.5105  1.2599  0.7854
 6360TIP3   OH240638   2.487   2.417   8.310 -0.4354 -0.2568  0.1378
 6360TIP3    H140639   2.425   2.389   8.377 -1.4081 -0.2166 -0.7311
 6360TIP3    H240640   2.472   2.511   8.301 -0.9064 -0.4032 -0.7199
 6361TIP3   OH240641   0.626   6.440   8.555  0.0599  0.1583 -0.1461
 6361TIP3    H140642   0.537   6.418   8.580  0.5770 -0.9614  0.8010
 6361TIP3    H240643   0.641   6.391   8.474 -0.4234  0.9537 -0.7289
 6362TIP3   OH240644   4.014   2.906   0.233 -0.0321 -0.0677  0.4119
 6362TIP3    H140645   4.006   2.817   0.199  1.8762  0.5359 -1.9211
 6362TIP3    H240646   4.061   2.897   0.316  1.6237 -1.1739 -0.5888
 6363TIP3   OH240647   5.837   4.049   2.352 -0.0703 -0.2736  0.3553
 6363TIP3    H140648   5.903   3.980   2.345  0.0002 -0.0520 -1.8222
 6363TIP3    H240649   5.802   4.040   2.441  0.7078 -2.3808  0.5000
 6364TIP3   OH240650   1.395   2.749   0.385 -0.4439  0.4804 -0.0094
 6364TIP3    H140651   1.484   2.747   0.350 -0.7876  0.1227 -0.8794
 6364TIP3    H240652   1.404   2.796   0.468  0.3489  1.6178 -0.6957
 6365TIP3   OH240653   1.927   3.816   1.731  0.0067  0.1735  0.0512
 6365TIP3    H140654   1.844   3.826   1.683  1.6995  0.0370 -3.1437
 6365TIP3    H240655   1.954   3.726   1.714  1.1550  0.4178  0.4997
 6366TIP3   OH240656   0.001   4.701   2.550  0.2503 -0.3060  0.4082
 6366TIP3    H140657   0.008   4.656   2.635  1.3566 -0.2445  0.3599
 6366TIP3    H240658   0.007   4.794   2.571 -1.2865 -0.1879  0.4287
 6367TIP3   OH240659   0.392   2.925   6.501 -1.1751  0.1117  0.1461
 6367TIP3    H140660   0.478   2.884   6.515 -1.6114 -0.6195  0.7974
 6367TIP3    H240661   0.404   2.981   6.424 -1.2196 -3.2740 -2.5693
 6368TIP3   OH240662   1.539   3.630   1.352 -0.2257  0.3442 -0.4946
 6368TIP3    H140663   1.559   3.536   1.360  2.1215  0.8754  0.6520
 6368TIP3    H240664   1.535   3.662   1.442  2.1083  1.8862 -0.8599
 6369TIP3   OH240665   6.691   3.782   0.052  0.0646 -0.5982  0.3283
 6369TIP3    H140666   6.615   3.839   0.039  0.8527  0.0728 -1.8192
 6369TIP3    H240667   6.765   3.843   0.060  0.5571 -1.2668  0.9494
 6370TIP3   OH240668   2.945   0.470   6.491 -0.4946 -0.4538 -0.1044
 6370TIP3    H140669   2.887   0.408   6.446 -0.2056  0.2453 -1.4838
 6370TIP3    H240670   3.033   0.441   6.469 -0.3494 -0.0098 -0.1046
 6371TIP3   OH240671   5.586   5.216   0.826 -0.1376 -0.5515 -0.3175
 6371TIP3    H140672   5.602   5.123   0.811  2.2726 -0.1108 -0.9045
 6371TIP3    H240673   5.558   5.222   0.917 -3.2132 -2.0752 -1.0121
 6372TIP3   OH240674   1.108   2.463   1.461  0.0827  0.2258  0.1450
 6372TIP3    H140675   1.049   2.533   1.489 -0.0541  0.2795 -0.2699
 6372TIP3    H240676   1.119   2.408   1.539 -4.0859 -2.3689 -0.7726
 6373TIP3   OH240677   3.209   1.798   2.022  0.6698 -0.4797  0.2925
 6373TIP3    H140678   3.217   1.735   1.951  1.6110 -0.6048  0.4964
 6373TIP3    H240679   3.118   1.791   2.051  0.9653 -2.3819  0.8814
 6374TIP3   OH240680   5.714   4.624   2.102 -0.8574 -0.1318  0.1731
 6374TIP3    H140681   5.743   4.542   2.063 -0.5456  0.8362 -1.7838
 6374TIP3    H240682   5.794   4.663   2.137 -0.3695  0.8075 -1.8580
 6375TIP3   OH240683   1.488   2.290   2.349 -0.0154  0.2193 -0.7104
 6375TIP3    H140684   1.437   2.284   2.268  0.1489 -3.8194 -0.7116
 6375TIP3    H240685   1.550   2.217   2.344 -1.2269 -1.4332  3.7838
 6376TIP3   OH240686   5.833   3.270   1.382 -0.1947  0.4117  0.3951
 6376TIP3    H140687   5.889   3.193   1.376  0.5499  0.9881 -0.4057
 6376TIP3    H240688   5.863   3.315   1.462 -0.1102  0.2678  0.4452
 6377TIP3   OH240689   1.690   1.744   8.309  0.5764 -0.1464  0.1979
 6377TIP3    H140690   1.679   1.825   8.260  2.0222 -0.6579 -1.0735
 6377TIP3    H240691   1.772   1.756   8.358  0.2131 -0.4104  0.8812
 6378TIP3   OH240692   1.484   0.254   0.570  0.0041  0.2577  0.2631
 6378TIP3    H140693   1.453   0.168   0.599  1.9881 -1.2390 -1.6924
 6378TIP3    H240694   1.406   0.299   0.539 -1.0409 -0.9571  1.0434
 6379TIP3   OH240695   2.576   5.861   7.179  0.4185 -0.1706  0.2492
 6379TIP3    H140696   2.549   5.784   7.230  1.3400  0.7642  2.2746
 6379TIP3    H240697   2.497   5.889   7.134  0.4417 -3.3403 -2.0858
 6380TIP3   OH240698   0.146   1.634   8.436 -0.3329  0.0212 -0.0756
 6380TIP3    H140699   0.230   1.592   8.455 -0.3443  1.1279  2.9579
 6380TIP3    H240700   0.094   1.565   8.394  1.7813 -0.9113 -1.3299
 6381TIP3   OH240701   0.031   5.214   7.895 -0.1829  0.0802 -0.5214
 6381TIP3    H140702  -0.018   5.134   7.874  1.1507 -0.8095 -0.3651
 6381TIP3    H240703   0.047   5.209   7.989  0.7956  0.0029 -0.6850
 6382TIP3   OH240704   5.403   2.886   0.098 -0.4200 -0.2449 -0.4866
 6382TIP3    H140705   5.378   2.796   0.122  2.2095 -1.8370 -3.0083
 6382TIP3    H240706   5.351   2.905   0.020  0.0183 -0.1534 -0.7604
 6383TIP3   OH240707   1.472   5.647   0.607 -0.0062 -0.6826 -0.8480
 6383TIP3    H140708   1.418   5.726   0.611  0.0215 -0.5536 -2.3137
 6383TIP3    H240709   1.414   5.579   0.572  0.2523 -1.0457 -0.5879
 6384TIP3   OH240710   3.908   3.714   6.962 -0.2367  0.2078  0.4118
 6384TIP3    H140711   3.893   3.622   6.943 -0.4878  0.1484  0.8930
 6384TIP3    H240712   3.843   3.736   7.029  0.7494  0.3739  1.3325
 6385TIP3   OH240713   4.676   4.998   8.587 -0.1553 -0.2383 -0.2559
 6385TIP3    H140714   4.738   5.065   8.560  0.0737  0.7013  2.2738
 6385TIP3    H240715   4.658   4.947   8.508  1.1294  1.6238 -1.8284
 6386TIP3   OH240716   5.673   4.190   7.222  0.4587 -0.0844  0.1733
 6386TIP3    H140717   5.597   4.143   7.187 -0.9009  0.9474  1.6028
 6386TIP3    H240718   5.733   4.197   7.147 -1.4237  0.2344 -1.3921
 6387TIP3   OH240719   4.516   6.275   1.538 -0.1336  0.4991 -0.7190
 6387TIP3    H140720   4.597   6.247   1.581  0.3613  0.7221 -1.4893
 6387TIP3    H240721   4.510   6.220   1.459 -2.0288 -1.2714  0.5380
 6388TIP3   OH240722   4.633   4.226   7.578  0.4709  0.0386 -0.6063
 6388TIP3    H140723   4.708   4.167   7.587  0.0875 -0.5808 -1.4048
 6388TIP3    H240724   4.648   4.271   7.495  0.4637  0.6557 -0.2792
 6389TIP3   OH240725   6.497   1.749   1.703  0.1746  0.2059 -0.0815
 6389TIP3    H140726   6.444   1.678   1.739  1.0712  0.3706  1.6636
 6389TIP3    H240727   6.587   1.728   1.727  0.5269  1.5836 -0.0658
 6390TIP3   OH240728   3.987   2.884   1.343  0.5138  0.0969  0.2022
 6390TIP3    H140729   4.017   2.973   1.363  1.4145  0.1947 -1.4181
 6390TIP3    H240730   3.993   2.837   1.427 -0.4728  1.6569  1.2148
 6391TIP3   OH240731   4.473   5.662   2.154  0.7246  0.2303 -0.1958
 6391TIP3    H140732   4.490   5.595   2.088  3.3644 -0.1749  0.7829
 6391TIP3    H240733   4.431   5.616   2.226 -2.3456  0.7059 -1.4895
 6392TIP3   OH240734   5.502   4.446   0.604  0.1336 -0.2430  0.2491
 6392TIP3    H140735   5.557   4.445   0.526  0.3194 -0.0369  0.3742
 6392TIP3    H240736   5.538   4.377   0.660 -0.3369 -0.7571 -0.0715
 6393TIP3   OH240737   0.053   5.337   0.805 -0.1998  0.6815  0.9216
 6393TIP3    H140738  -0.014   5.283   0.846  1.2576 -0.0345  2.4774
 6393TIP3    H240739   0.102   5.374   0.878  0.7445  1.6424 -0.1665
 6394TIP3   OH240740   4.864   5.762   0.909 -0.1857  0.1720 -0.7098
 6394TIP3    H140741   4.807   5.690   0.936  0.2021  0.0375 -0.2186
 6394TIP3    H240742   4.826   5.839   0.951 -0.5844  0.2515 -1.2115
 6395TIP3   OH240743   6.660   1.679   7.950 -0.0224 -0.1623  0.2428
 6395TIP3    H140744   6.588   1.730   7.913  0.1174 -1.6638 -2.3856
 6395TIP3    H240745   6.641   1.589   7.923  0.2311 -1.4679  3.8690
 6396TIP3   OH240746   1.552   5.129   7.579  0.0309  0.4605 -0.0494
 6396TIP3    H140747   1.512   5.047   7.609  1.1834  0.7762  2.6019
 6396TIP3    H240748   1.627   5.142   7.638  0.8991  2.5581 -1.5105
 6397TIP3   OH240749   5.232   1.503   1.193  0.6531 -0.9068  0.4360
 6397TIP3    H140750   5.239   1.467   1.282 -0.3033 -0.3289  0.7576
 6397TIP3    H240751   5.164   1.570   1.200  0.4592 -0.9687 -0.7750
 6398TIP3   OH240752   0.444   1.222   8.508 -0.2885  0.1978 -0.1718
 6398TIP3    H140753   0.524   1.199   8.556 -1.1240 -2.9756 -0.0351
 6398TIP3    H240754   0.475   1.249   8.421  1.0031  1.6791  0.6857
 6399TIP3   OH240755   3.248   3.599   8.374 -0.2969 -0.1063 -0.0758
 6399TIP3    H140756   3.163   3.615   8.415  0.1630  0.3499  0.7324
 6399TIP3    H240757   3.228   3.587   8.281 -1.4370 -1.7391  0.3340
 6400TIP3   OH240758   0.271   1.345   0.684 -0.0980 -0.2723  0.2859
 6400TIP3    H140759   0.306   1.427   0.719  0.2481 -0.2486 -0.1060
 6400TIP3    H240760   0.193   1.371   0.636 -0.5153 -0.2914  0.9333
 6401TIP3   OH240761   5.936   2.682   0.598 -0.0173 -0.4706 -0.0085
 6401TIP3    H140762   5.981   2.749   0.650 -0.9162  0.4807 -0.4065
 6401TIP3    H240763   6.001   2.612   0.588  0.2451 -0.6389  2.2367
 6402TIP3   OH240764   1.158   5.126   1.591 -0.2736 -0.0480  0.4078
 6402TIP3    H140765   1.082   5.180   1.611 -0.7457 -0.0797 -1.1706
 6402TIP3    H240766   1.181   5.085   1.674 -3.3661 -1.8020  0.5237
 6403TIP3   OH240767   1.055   3.459   1.188  0.1776  0.0984  0.9862
 6403TIP3    H140768   1.094   3.396   1.248  0.1087 -0.5753  0.3403
 6403TIP3    H240769   0.990   3.506   1.241 -0.1027 -0.6941  1.3568
 6404TIP3   OH240770   5.423   4.012   2.539 -0.1795  0.4698 -0.7148
 6404TIP3    H140771   5.479   4.065   2.596 -2.3547  0.6292  1.4346
 6404TIP3    H240772   5.415   4.063   2.458  0.6926  1.6520 -0.0791
 6405TIP3   OH240773   6.237   2.367   2.682  0.1597 -0.0228 -0.5210
 6405TIP3    H140774   6.178   2.443   2.680 -0.7581 -0.5833  2.0345
 6405TIP3    H240775   6.323   2.404   2.703  0.0852  0.4618 -1.0353
 6406TIP3   OH240776   2.508   6.294   1.527  0.4426 -0.0375  0.2280
 6406TIP3    H140777   2.593   6.310   1.485 -0.7058  1.3550 -1.7495
 6406TIP3    H240778   2.509   6.349   1.606  0.0084  3.1370 -1.7910
 6407TIP3   OH240779   4.209   1.433   1.848 -0.6046 -0.3658 -0.1991
 6407TIP3    H140780   4.208   1.491   1.772 -0.4713  1.0556  0.8486
 6407TIP3    H240781   4.293   1.388   1.843 -0.3390  0.1663 -0.5747
 6408TIP3   OH240782   2.134   2.740   6.741 -0.5339 -0.0672  0.4027
 6408TIP3    H140783   2.185   2.808   6.698 -0.6416 -2.3415 -3.8428
 6408TIP3    H240784   2.081   2.787   6.805  1.0975  3.4577 -0.5981
 6409TIP3   OH240785   0.815   2.221   8.585  0.3191 -0.9057  0.7708
 6409TIP3    H140786   0.825   2.310   8.551 -0.8085 -1.1672 -0.3038
 6409TIP3    H240787   0.728   2.194   8.558 -0.1015 -1.6753  2.7061
 6410TIP3   OH240788   0.866   6.642   6.915  0.0643 -0.3471  0.0360
 6410TIP3    H140789   0.943   6.621   6.968  0.3143  1.3655  0.4249
 6410TIP3    H240790   0.898   6.704   6.850 -0.9018  0.1069 -0.0286
 6411TIP3   OH240791   1.396   5.211   7.077  0.4445  0.5200  0.6625
 6411TIP3    H140792   1.423   5.120   7.091 -0.5197  0.5263  2.8552
 6411TIP3    H240793   1.455   5.242   7.008  0.6194 -1.8196 -0.3557
 6412TIP3   OH240794   1.854   1.208   0.951 -0.5298  0.5574 -0.1728
 6412TIP3    H140795   1.782   1.151   0.979 -1.1843  0.6370 -1.6098
 6412TIP3    H240796   1.826   1.296   0.977 -1.6664  0.7825 -1.9736
 6413TIP3   OH240797   0.597   4.018   7.906 -0.5273  0.3729  0.1159
 6413TIP3    H140798   0.587   3.985   7.817  2.2262 -1.7349  0.4791
 6413TIP3    H240799   0.667   4.083   7.901 -0.8196  0.7458  0.6561
 6414TIP3   OH240800   4.341   4.466   8.065 -0.2807 -0.3085  0.5906
 6414TIP3    H140801   4.259   4.513   8.081 -1.2827 -1.6478 -0.4647
 6414TIP3    H240802   4.335   4.387   8.119  1.3650  0.6379  2.2987
 6415TIP3   OH240803   6.109   1.355   0.291  0.0498  0.2798 -0.5619
 6415TIP3    H140804   6.186   1.412   0.296  0.5486 -0.3338 -1.0062
 6415TIP3    H240805   6.076   1.349   0.380  1.6230 -0.9288 -0.0247
 6416TIP3   OH240806   4.108   5.436   1.752  0.9643 -0.4558 -0.3027
 6416TIP3    H140807   4.123   5.375   1.679 -1.5556 -0.7578 -0.6595
 6416TIP3    H240808   4.080   5.380   1.824 -0.2430  0.1578 -0.2794
 6417TIP3   OH240809   2.627   6.123   8.262  0.6686 -0.2685 -0.6199
 6417TIP3    H140810   2.575   6.062   8.313 -1.3912  2.1219  0.3678
 6417TIP3    H240811   2.619   6.092   8.171 -3.4306  0.4498 -0.6701
 6418TIP3   OH240812   0.058   1.851   1.770 -0.0539 -0.1730  0.0862
 6418TIP3    H140813   0.138   1.824   1.816  1.9028 -3.7770 -4.5748
 6418TIP3    H240814   0.004   1.773   1.766 -0.4240  0.1219 -2.8550
 6419TIP3   OH240815   6.810   4.809   8.662 -0.3276  0.4919  0.0282
 6419TIP3    H140816   6.734   4.751   8.659 -0.8073  1.0265  1.3310
 6419TIP3    H240817   6.881   4.752   8.694 -0.9325  0.7195  1.8745
 6420TIP3   OH240818   1.025   5.608   0.913  0.6074  0.0659  0.7996
 6420TIP3    H140819   0.949   5.653   0.875  0.3195 -1.1921 -0.2081
 6420TIP3    H240820   0.987   5.535   0.963  1.0999 -2.2972 -1.9805
 6421TIP3   OH240821   6.192   5.506   0.648  0.3845 -0.1301 -0.5107
 6421TIP3    H140822   6.176   5.447   0.575  0.5293 -0.3573 -0.3617
 6421TIP3    H240823   6.287   5.519   0.649  0.6470 -1.7807  0.8832
 6422TIP3   OH240824   0.018   4.446   1.436  0.2375 -0.8740 -0.1110
 6422TIP3    H140825   0.008   4.463   1.529 -1.7326 -2.4690  0.0473
 6422TIP3    H240826   0.053   4.357   1.431  0.7042 -0.6642 -0.9090
 6423TIP3   OH240827   3.581   1.514   2.565 -0.3981  0.2102  0.1421
 6423TIP3    H140828   3.590   1.609   2.569 -0.3145  0.1694  1.0896
 6423TIP3    H240829   3.671   1.482   2.567 -0.2207  0.1744 -3.3161
 6424TIP3   OH240830   0.923   2.216   2.313  0.2916 -0.3793 -0.4971
 6424TIP3    H140831   1.000   2.268   2.335  0.8979 -0.3099 -2.5790
 6424TIP3    H240832   0.921   2.148   2.380  1.8890 -0.0981 -0.1090
 6425TIP3   OH240833   3.792   5.950   7.143  0.1429  0.3642  0.2569
 6425TIP3    H140834   3.731   5.979   7.075 -0.3786 -2.9109 -0.8667
 6425TIP3    H240835   3.871   5.927   7.095 -0.3240 -2.2677  0.6144
 6426TIP3   OH240836   1.271   4.220   0.016  0.1264 -0.2476 -0.1323
 6426TIP3    H140837   1.344   4.231   0.076 -0.5698 -0.3357  0.7574
 6426TIP3    H240838   1.248   4.127   0.024 -2.5529  0.4639  2.6402
 6427TIP3   OH240839   5.064   1.539   8.033 -0.9691  0.7118  0.7723
 6427TIP3    H140840   5.063   1.556   8.127 -3.4500  1.1735  0.7332
 6427TIP3    H240841   4.973   1.517   8.012 -0.1439 -1.0357 -1.2523
 6428TIP3   OH240842   6.573   5.786   8.137  0.2597  0.3143  0.0887
 6428TIP3    H140843   6.507   5.762   8.201  0.0479  0.6698  0.0049
 6428TIP3    H240844   6.533   5.768   8.052  0.6194 -0.3656  0.0535
 6429TIP3   OH240845   5.739   5.076   1.303 -0.2482  0.3303 -0.6310
 6429TIP3    H140846   5.676   5.031   1.246 -0.4922  0.3222 -0.3570
 6429TIP3    H240847   5.749   5.018   1.378  1.9063 -0.8367 -1.7409
 6430TIP3   OH240848   1.670   0.649   1.844 -0.7629 -0.0805  0.2602
 6430TIP3    H140849   1.721   0.606   1.912  3.2330  0.3669 -2.0930
 6430TIP3    H240850   1.691   0.742   1.854 -0.1072 -0.0012 -1.4388
 6431TIP3   OH240851   2.820   5.582   7.250 -0.3066  0.3963 -0.6751
 6431TIP3    H140852   2.884   5.640   7.292  1.0566 -0.9262 -0.8447
 6431TIP3    H240853   2.836   5.496   7.289 -2.2163  0.0619 -0.5030
 6432TIP3   OH240854   6.038   2.299   2.108  0.4539  0.0455 -0.7157
 6432TIP3    H140855   6.058   2.217   2.064  0.8143 -0.2675  0.0173
 6432TIP3    H240856   6.096   2.300   2.185 -0.7683  0.1544  0.2430
 6433TIP3   OH240857   1.066   3.086   2.449  0.3084  0.0236 -0.2568
 6433TIP3    H140858   1.023   3.153   2.502 -2.3414  0.7308 -3.0197
 6433TIP3    H240859   1.006   3.012   2.451  1.0646 -0.6176 -0.7903
 6434TIP3   OH240860   2.330   2.918   1.107  0.4022  0.5502  0.2933
 6434TIP3    H140861   2.247   2.887   1.070  0.6945  0.8706 -0.6564
 6434TIP3    H240862   2.382   2.839   1.120  0.2231  0.4156  0.1979
 6435TIP3   OH240863   1.774   4.693   2.035  0.3139 -0.6663 -0.1236
 6435TIP3    H140864   1.726   4.611   2.022  1.0304 -0.9988 -0.7565
 6435TIP3    H240865   1.787   4.698   2.130  0.6012 -1.4938 -0.1118
 6436TIP3   OH240866   1.279   1.638   7.997 -0.4683  0.3635  0.4897
 6436TIP3    H140867   1.300   1.547   7.977 -2.7091  0.2441 -1.9558
 6436TIP3    H240868   1.350   1.668   8.053  0.5815 -2.7322  1.0115
 6437TIP3   OH240869   0.296   4.960   1.773  0.5291 -0.5783  0.3099
 6437TIP3    H140870   0.380   4.977   1.730  0.3983 -0.1213  0.2255
 6437TIP3    H240871   0.281   4.866   1.762  1.1061 -0.6887  0.4645
 6438TIP3   OH240872   1.298   2.343   0.441 -0.3726  0.1818 -0.0895
 6438TIP3    H140873   1.330   2.408   0.504  3.8551 -1.6951  0.0690
 6438TIP3    H240874   1.316   2.381   0.355  0.3339  0.0199 -0.0197
 6439TIP3   OH240875   2.254   1.363   7.936  0.2767  0.1684  0.4957
 6439TIP3    H140876   2.315   1.308   7.888 -0.4936 -0.5429  0.3050
 6439TIP3    H240877   2.293   1.371   8.023 -0.3031 -1.9784  1.0272
 6440TIP3   OH240878   1.619   2.647   2.962  0.7369  0.2089  0.3728
 6440TIP3    H140879   1.643   2.554   2.960  0.3940  0.0679  1.9324
 6440TIP3    H240880   1.534   2.649   3.006  1.1283  1.3319  1.1081
 6441TIP3   OH240881   1.908   1.404   0.277 -0.0028  0.0706 -0.0437
 6441TIP3    H140882   1.940   1.320   0.245  0.6634  0.1029  0.5082
 6441TIP3    H240883   1.940   1.468   0.214 -1.3084 -0.1709 -0.9853
 6442TIP3   OH240884   2.972   5.531   7.565  0.2460  1.1160 -0.8088
 6442TIP3    H140885   2.983   5.607   7.509  1.5935  1.1733 -0.4859
 6442TIP3    H240886   2.981   5.456   7.505 -0.4824  1.1840 -1.0202
 6443TIP3   OH240887   3.089   2.474   0.088  0.5548 -0.0459 -0.1554
 6443TIP3    H140888   3.085   2.565   0.117  0.5328  0.8736 -2.7448
 6443TIP3    H240889   3.009   2.462   0.037  0.4775 -1.5787  0.2900
 6444TIP3   OH240890   4.422   1.490   6.688 -0.4012 -0.1028 -0.1705
 6444TIP3    H140891   4.485   1.424   6.658  0.6390  0.1321  1.3875
 6444TIP3    H240892   4.475   1.556   6.732 -1.7578 -0.0827  1.5330
 6445TIP3   OH240893   0.540   2.189   1.419 -0.3298  0.5883  0.4092
 6445TIP3    H140894   0.521   2.252   1.350 -0.9861 -0.7725 -0.6966
 6445TIP3    H240895   0.621   2.146   1.390  0.3618  1.2073  1.3755
 6446TIP3   OH240896   3.080   1.609   2.431 -0.1668  0.4127  0.0747
 6446TIP3    H140897   3.085   1.513   2.432 -2.2669  0.2573  0.0119
 6446TIP3    H240898   2.988   1.628   2.449  0.0624  2.4064 -0.6664
 6447TIP3   OH240899   5.646   2.843   8.080  0.2863 -0.3006  0.2100
 6447TIP3    H140900   5.731   2.860   8.120  1.2015  0.7812 -1.9987
 6447TIP3    H240901   5.596   2.923   8.094  0.0779 -0.4638  0.4144
 6448TIP3   OH240902   4.809   5.286   0.949  0.6225  0.2846 -0.7831
 6448TIP3    H140903   4.877   5.229   0.914  1.8200  1.6671 -0.8077
 6448TIP3    H240904   4.759   5.313   0.872 -0.3061 -1.1402 -0.7046
 6449TIP3   OH240905   1.984   0.444   1.058  0.3026 -0.2054 -1.0434
 6449TIP3    H140906   2.047   0.431   1.129  0.8583  0.7838 -1.3399
 6449TIP3    H240907   1.964   0.355   1.027  1.8697 -0.5274 -1.2232
 6450TIP3   OH240908   3.935   3.208   2.404 -0.9526  0.6634  0.2958
 6450TIP3    H140909   3.862   3.147   2.416 -1.8586  1.4333 -1.0065
 6450TIP3    H240910   3.905   3.267   2.335  0.6737  1.3920  0.1791
 6451TIP3   OH240911   4.975   5.170   1.643  0.4299  0.0585  0.2758
 6451TIP3    H140912   4.970   5.078   1.670 -1.6017  0.5939  1.9829
 6451TIP3    H240913   5.051   5.174   1.586 -0.0101 -2.8941 -0.7020
 6452TIP3   OH240914   4.940   2.288   8.432 -0.1382 -0.9040  0.8828
 6452TIP3    H140915   4.880   2.256   8.499  1.1288  0.3946  2.7333
 6452TIP3    H240916   4.915   2.379   8.417  2.0205  0.0518  2.5886
 6453TIP3   OH240917   0.935   4.430   7.944  0.3416 -0.6274 -0.1537
 6453TIP3    H140918   0.999   4.410   8.012 -0.7079 -0.4509  0.9251
 6453TIP3    H240919   0.878   4.354   7.941 -1.3245  0.4826  1.2216
 6454TIP3   OH240920   6.723   3.244   1.027 -0.5097 -0.0818 -0.4254
 6454TIP3    H140921   6.746   3.153   1.009 -1.1372 -0.3197 -0.0612
 6454TIP3    H240922   6.691   3.243   1.117 -0.4131  0.5192 -0.3816
 6455TIP3   OH240923   3.742   4.329   2.076  0.2767  0.2326  0.0264
 6455TIP3    H140924   3.730   4.363   2.165 -0.4306  2.3111 -0.7946
 6455TIP3    H240925   3.654   4.323   2.040  0.4691 -1.6075 -0.2369
 6456TIP3   OH240926   5.068   6.113   8.061 -0.2996  0.5973 -0.4019
 6456TIP3    H140927   4.994   6.115   8.001  0.1561 -0.0492 -1.0092
 6456TIP3    H240928   5.069   6.023   8.095  1.5335 -0.1328 -2.1550
 6457TIP3   OH240929   2.668   4.798   0.955  0.2315 -0.4512 -0.3990
 6457TIP3    H140930   2.729   4.870   0.965  0.1276 -0.2269 -1.3045
 6457TIP3    H240931   2.722   4.722   0.934  0.4856 -1.0030  1.9476
 6458TIP3   OH240932   0.779   0.945   0.032 -0.0225 -0.2862 -0.3100
 6458TIP3    H140933   0.714   0.891   0.077 -0.4055 -0.9588 -1.6191
 6458TIP3    H240934   0.863   0.914   0.065 -0.2798 -1.0548 -0.3603
 6459TIP3   OH240935   4.032   5.865   7.061 -0.3709 -0.5115 -0.1266
 6459TIP3    H140936   4.072   5.778   7.063 -1.5743 -1.1241 -1.2444
 6459TIP3    H240937   4.091   5.917   7.006  0.3923 -0.5737  0.6023
 6460TIP3   OH240938   5.315   6.657   1.816 -0.3753 -0.0746  0.3524
 6460TIP3    H140939   5.294   6.618   1.900 -1.4654  3.7587  2.0810
 6460TIP3    H240940   5.247   6.625   1.757 -1.5461 -0.3624  1.8005
 6461TIP3   OH240941   0.308   4.173   8.007  0.7208 -1.1617 -0.3048
 6461TIP3    H140942   0.280   4.237   7.941  1.4233 -1.4041 -0.8548
 6461TIP3    H240943   0.335   4.097   7.955  1.3094 -1.3505  0.2661
 6462TIP3   OH240944   6.530   1.468   1.497 -0.4698  0.3784 -0.4008
 6462TIP3    H140945   6.600   1.518   1.456  0.4137 -0.1831  0.3865
 6462TIP3    H240946   6.449   1.506   1.461  0.2361  0.2436 -2.2258
 6463TIP3   OH240947   4.899   1.326   8.566 -0.1496  0.5219 -0.2589
 6463TIP3    H140948   4.904   1.421   8.555 -0.4498  1.1758  3.6337
 6463TIP3    H240949   4.988   1.296   8.550  0.0570  1.5208 -1.1134
 6464TIP3   OH240950   3.702   0.460   2.372  0.8505  0.3817 -0.7412
 6464TIP3    H140951   3.748   0.376   2.368 -0.9629 -0.7103  0.2084
 6464TIP3    H240952   3.614   0.439   2.403  0.5127  2.7201  0.1399
 6465TIP3   OH240953   1.987   4.507   6.791 -0.3605  0.3364  0.7170
 6465TIP3    H140954   1.990   4.600   6.768 -0.1157  0.2895  0.5537
 6465TIP3    H240955   1.899   4.479   6.766  0.1438  0.0923 -0.9445
 6466TIP3   OH240956   4.654   1.570   1.336  0.0183  0.0076  0.4550
 6466TIP3    H140957   4.571   1.592   1.377 -0.2294 -1.4189  0.7787
 6466TIP3    H240958   4.699   1.515   1.401  0.7576 -0.1086 -0.1368
 6467TIP3   OH240959   1.062   6.179   1.651  0.3110 -0.0610  0.2812
 6467TIP3    H140960   1.058   6.273   1.633  2.0227  0.6861  3.0489
 6467TIP3    H240961   0.984   6.162   1.705 -0.5375 -0.5219 -1.0310
 6468TIP3   OH240962   3.038   5.449   2.223 -0.5539  0.0948 -0.6324
 6468TIP3    H140963   2.964   5.505   2.199 -0.4336 -0.2490 -1.8641
 6468TIP3    H240964   3.044   5.457   2.318 -0.2927  2.4711 -0.7911
 6469TIP3   OH240965   4.112   6.487   0.893 -0.3081 -0.3044  0.5265
 6469TIP3    H140966   4.073   6.402   0.874 -1.2642 -0.1743  1.8111
 6469TIP3    H240967   4.122   6.528   0.807  0.0978 -1.6729 -0.0951
 6470TIP3   OH240968   4.445   0.657   1.110 -0.5308  0.3381 -0.3196
 6470TIP3    H140969   4.488   0.724   1.162 -0.6523  1.2446 -1.3638
 6470TIP3    H240970   4.400   0.705   1.041 -2.1620 -0.6782 -0.0177
 6471TIP3   OH240971   1.696   6.504   0.629  0.0550 -0.0030 -0.4348
 6471TIP3    H140972   1.781   6.482   0.668 -0.3960  1.0015  1.2108
 6471TIP3    H240973   1.709   6.491   0.535  1.7118 -0.8689 -0.1220
 6472TIP3   OH240974   1.408   2.575   8.196  0.3033  0.4955 -0.0392
 6472TIP3    H140975   1.409   2.662   8.157  0.6546 -0.2174 -1.7060
 6472TIP3    H240976   1.501   2.554   8.208  0.3112 -0.4125 -1.5001
 6473TIP3   OH240977   2.716   3.328   8.525 -0.0975  0.3380  0.0314
 6473TIP3    H140978   2.701   3.422   8.518  2.9298  1.3073  3.3649
 6473TIP3    H240979   2.638   3.294   8.570 -0.2452  1.7167  0.8667
 6474TIP3   OH240980   0.192   3.164   0.975  0.0812 -0.3806  0.5692
 6474TIP3    H140981   0.182   3.138   0.883 -1.1472 -1.2689  0.9309
 6474TIP3    H240982   0.102   3.174   1.007  0.4966  1.3903  1.2862
 6475TIP3   OH240983   4.463   0.997   6.934  0.0957 -0.2196 -0.3234
 6475TIP3    H140984   4.432   0.957   7.015  1.6583 -1.7053 -0.4072
 6475TIP3    H240985   4.544   1.042   6.958 -1.4106  2.7717 -0.3118
 6476TIP3   OH240986   4.618   1.244   8.381 -0.1657  0.4400  0.1152
 6476TIP3    H140987   4.696   1.189   8.381  0.6030  1.4816  0.5350
 6476TIP3    H240988   4.558   1.203   8.442  0.2169 -0.1536  0.0956
 6477TIP3   OH240989   1.472   2.050   7.227 -0.4347  0.1411 -0.1354
 6477TIP3    H140990   1.501   2.018   7.142  2.9267 -0.7316  1.1897
 6477TIP3    H240991   1.468   1.972   7.282  1.8057  1.1356  1.5808
 6478TIP3   OH240992   2.645   0.281   0.787 -0.3344 -0.5664 -0.0065
 6478TIP3    H140993   2.689   0.206   0.828 -0.2461 -0.2023  0.5770
 6478TIP3    H240994   2.553   0.256   0.784 -0.3553 -0.5573  0.5063
 6479TIP3   OH240995   5.839   3.306   8.172  0.0002 -0.0559  0.3506
 6479TIP3    H140996   5.764   3.342   8.219 -0.4748 -0.3613 -0.1571
 6479TIP3    H240997   5.802   3.276   8.088  0.4809 -1.1896  0.5284
 6480TIP3   OH240998   3.403   0.589   7.840  0.3432  0.9460 -0.7463
 6480TIP3    H140999   3.337   0.592   7.771  1.3393  0.6919 -1.7525
 6480TIP3    H241000   3.459   0.515   7.817 -0.1583 -0.0893  1.1820
 6481TIP3   OH241001   2.560   1.927   1.073 -0.1079  0.1645 -0.5951
 6481TIP3    H141002   2.525   1.867   1.008  0.3363 -0.5749 -0.1670
 6481TIP3    H241003   2.606   1.994   1.022 -0.3054 -0.0532 -1.0649
 6482TIP3   OH241004   5.560   5.123   7.027 -0.4592 -0.4998 -0.7251
 6482TIP3    H141005   5.607   5.108   6.945  0.4748  1.4596 -0.6221
 6482TIP3    H241006   5.481   5.172   7.001 -0.5899 -0.6119 -0.5423
 6483TIP3   OH241007   5.003   5.885   8.583  0.0687 -0.6074 -0.4273
 6483TIP3    H141008   5.010   5.857   8.674 -0.3573  0.4753 -0.0398
 6483TIP3    H241009   5.091   5.875   8.547  0.2651 -0.9191  0.1444
 6484TIP3   OH241010   6.145   2.814   0.425 -0.2979 -0.0297 -0.2272
 6484TIP3    H141011   6.100   2.809   0.341 -0.2057 -1.8234 -0.2095
 6484TIP3    H241012   6.182   2.727   0.438  0.4242  0.4584  1.2779
 6485TIP3   OH241013   4.540   2.176   8.430  0.5540  0.0400  0.0596
 6485TIP3    H141014   4.545   2.229   8.350 -1.4349 -0.4829 -0.4710
 6485TIP3    H241015   4.510   2.237   8.497 -0.5113 -0.0929 -0.2678
 6486TIP3   OH241016   6.110   3.074   8.185 -0.5173 -0.2696  0.1883
 6486TIP3    H141017   6.070   3.018   8.119 -0.5346 -0.6242  0.4981
 6486TIP3    H241018   6.171   3.016   8.231  1.9627  0.7079 -1.6469
 6487TIP3   OH241019   2.076   4.826   7.631  0.1473 -0.2036  0.3761
 6487TIP3    H141020   2.004   4.782   7.676  0.4930 -0.3525  0.7930
 6487TIP3    H241021   2.048   4.830   7.539  0.4093 -1.9742  0.1707
 6488TIP3   OH241022   1.748   4.037   0.545 -0.3219 -0.4639 -0.7845
 6488TIP3    H141023   1.700   3.959   0.571  0.1114 -0.8530 -1.1350
 6488TIP3    H241024   1.707   4.065   0.463 -2.1147  1.1363  0.5582
 6489TIP3   OH241025   0.621   6.299   7.738 -0.0488 -0.6683 -0.2436
 6489TIP3    H141026   0.533   6.313   7.704  0.0657 -2.2445 -1.2935
 6489TIP3    H241027   0.675   6.365   7.693 -0.4501 -0.5994 -0.6256
 6490TIP3   OH241028   4.974   0.374   2.859  0.4012  0.6644 -0.0343
 6490TIP3    H141029   4.900   0.401   2.806  1.9144  0.5861 -2.3474
 6490TIP3    H241030   5.051   0.404   2.810  1.9441 -0.7045  1.4021
 6491TIP3   OH241031   6.481   2.590   8.358  0.1319 -0.1398  0.1237
 6491TIP3    H141032   6.436   2.571   8.276  1.0142 -0.0778 -0.3904
 6491TIP3    H241033   6.507   2.682   8.350  1.2113 -0.4448 -0.0295
 6492TIP3   OH241034   5.730   2.994   7.149  0.2976 -0.4507 -0.6321
 6492TIP3    H141035   5.634   2.999   7.146  0.2730 -1.2584 -2.1266
 6492TIP3    H241036   5.748   2.903   7.173  0.7062 -0.2489 -0.1499
 6493TIP3   OH241037   2.901   1.371   6.789  0.0136  0.0245 -0.1278
 6493TIP3    H141038   2.815   1.405   6.761  0.6078  1.7378 -0.0190
 6493TIP3    H241039   2.880   1.300   6.849 -1.3269 -0.1154 -0.7092
 6494TIP3   OH241040   3.562   4.348   8.421  0.2512 -0.0527  0.3089
 6494TIP3    H141041   3.480   4.334   8.373 -0.6247  0.9656  1.4575
 6494TIP3    H241042   3.591   4.260   8.444  0.9862 -0.6468 -2.4693
 6495TIP3   OH241043   0.882   1.479   2.312  0.1122 -0.4333  0.1006
 6495TIP3    H141044   0.955   1.430   2.350  0.5415  0.8626  0.9988
 6495TIP3    H241045   0.851   1.535   2.383 -0.2915  0.6816 -0.9293
 6496TIP3   OH241046   0.218   4.090   0.788  0.4905  0.0918  0.6273
 6496TIP3    H141047   0.133   4.048   0.802  0.1732  0.7678  0.7410
 6496TIP3    H241048   0.281   4.018   0.797  0.0229 -0.2040  1.7507
 6497TIP3   OH241049   0.091   5.458   8.312 -0.3496 -0.4473 -0.5211
 6497TIP3    H141050   0.068   5.374   8.271 -1.3011  0.6100 -2.3188
 6497TIP3    H241051   0.007   5.497   8.335  0.1430 -0.5576  1.6097
 6498TIP3   OH241052   2.968   1.855   2.608 -0.0561 -0.1312 -0.1644
 6498TIP3    H141053   2.924   1.926   2.655  0.2307  0.8474 -1.3300
 6498TIP3    H241054   2.978   1.785   2.673  0.0837  1.0752  1.1440
 6499TIP3   OH241055   2.682   6.601   7.261  0.2842 -0.3079 -0.0653
 6499TIP3    H141056   2.723   6.673   7.309  1.1949 -1.0804  0.3618
 6499TIP3    H241057   2.605   6.640   7.219  0.6232  0.8470  0.3509
 6500TIP3   OH241058   1.614   6.637   1.573  0.0568 -0.0392  0.4668
 6500TIP3    H141059   1.582   6.566   1.517 -1.8391 -0.2583  1.7571
 6500TIP3    H241060   1.672   6.687   1.516  1.0286 -2.2688 -0.6609
 6501TIP3   OH241061   1.030   1.700   8.089  0.3634  0.0342  0.0924
 6501TIP3    H141062   1.119   1.682   8.062 -0.3753  1.3624 -3.8905
 6501TIP3    H241063   1.031   1.792   8.117  0.0832  0.5199 -1.3722
 6502TIP3   OH241064   3.566   2.384   2.694 -0.0196  0.4386 -0.2512
 6502TIP3    H141065   3.541   2.432   2.773  0.8129  1.4447 -0.5738
 6502TIP3    H241066   3.536   2.294   2.710 -0.1826  0.7020  1.0434
 6503TIP3   OH241067   5.341   2.607   2.293  0.3433 -0.0032 -0.9279
 6503TIP3    H141068   5.397   2.684   2.302  0.7876 -0.3972 -0.1882
 6503TIP3    H241069   5.252   2.641   2.300  0.5565  0.2898  0.8255
 6504TIP3   OH241070   3.331   0.554   0.332 -0.3729 -0.0075  0.5570
 6504TIP3    H141071   3.388   0.608   0.276  1.6492 -2.2662  0.2510
 6504TIP3    H241072   3.331   0.600   0.416  0.0581  1.2247 -0.0780
 6505TIP3   OH241073   1.677   2.548   1.856  0.0668 -0.1703 -0.4370
 6505TIP3    H141074   1.588   2.515   1.839 -1.3661  2.5910  1.0455
 6505TIP3    H241075   1.720   2.476   1.902 -1.7293 -1.2340 -0.2943
 6506TIP3   OH241076   6.847   2.986   1.001 -0.1275 -0.3261  0.1280
 6506TIP3    H141077   6.938   2.986   0.971 -0.2332 -0.4569 -0.1998
 6506TIP3    H241078   6.812   2.903   0.969 -0.5982  0.0925 -0.4740
 6507TIP3   OH241079   3.833   6.166   7.313 -0.1484  0.4689  0.2481
 6507TIP3    H141080   3.834   6.071   7.320 -0.6250  0.5306  1.3959
 6507TIP3    H241081   3.871   6.185   7.228 -1.1596 -0.8004 -0.5140
 6508TIP3   OH241082   5.771   2.419   8.398 -0.0338 -0.1382  0.0559
 6508TIP3    H141083   5.722   2.371   8.465  1.0515  0.7800  1.5741
 6508TIP3    H241084   5.703   2.456   8.341 -1.0725 -0.0104  1.3124
 6509TIP3   OH241085   4.434   6.264   7.003 -0.0025  0.1808  0.0311
 6509TIP3    H141086   4.354   6.316   7.009  0.0024  0.1705  0.1787
 6509TIP3    H241087   4.503   6.324   7.033  0.0898  0.2975 -0.4024
 6510TIP3   OH241088   6.836   5.847   1.057 -0.0743 -0.1841 -0.0939
 6510TIP3    H141089   6.880   5.898   1.124  0.2149  0.3725 -0.6913
 6510TIP3    H241090   6.817   5.763   1.099  0.3836  0.0396  0.5781
 6511TIP3   OH241091   1.760   3.660   0.541 -0.4564 -0.1048  0.0612
 6511TIP3    H141092   1.823   3.718   0.585  0.1113 -0.7816  0.1699
 6511TIP3    H241093   1.754   3.583   0.599 -0.9576 -0.2897 -0.2289
 6512TIP3   OH241094   5.843   4.420   0.892 -0.5300  0.3568 -0.4261
 6512TIP3    H141095   5.939   4.424   0.897 -0.5666 -0.2317  1.9988
 6512TIP3    H241096   5.824   4.330   0.865 -0.4385  0.6158 -1.4225
 6513TIP3   OH241097   0.805   6.869   1.317  0.1688  0.1678  0.4483
 6513TIP3    H141098   0.747   6.925   1.369 -1.4953 -0.2903 -0.8231
 6513TIP3    H241099   0.810   6.912   1.232  0.3850 -0.6579  0.0333
 6514TIP3   OH241100   6.607   1.277   0.917 -0.6783  0.3713  0.0955
 6514TIP3    H141101   6.524   1.291   0.962 -1.4106  1.3736 -1.4485
 6514TIP3    H241102   6.665   1.239   0.983 -2.4814 -0.7903  1.1053
 6515TIP3   OH241103   3.256   0.726   0.556  0.2300  0.3469 -0.0374
 6515TIP3    H141104   3.218   0.679   0.630  0.4506 -0.6939 -0.5582
 6515TIP3    H241105   3.201   0.803   0.545 -1.7019 -1.0473 -0.7064
 6516TIP3   OH241106   0.181   1.423   7.378  0.1005 -0.1294  0.1706
 6516TIP3    H141107   0.157   1.475   7.455 -2.4104 -0.7387 -0.1195
 6516TIP3    H241108   0.230   1.484   7.323 -0.3150  1.0873  1.0838
 6517TIP3   OH241109   3.029   6.252   7.674 -0.1217  0.5019  0.9468
 6517TIP3    H141110   3.034   6.168   7.720 -0.1954 -0.0172  0.0235
 6517TIP3    H241111   3.110   6.298   7.699  0.9206 -0.6833 -0.1493
 6518TIP3   OH241112   0.407   4.568   0.175 -0.0717 -0.0600 -0.2653
 6518TIP3    H141113   0.341   4.564   0.245  1.4540 -2.2202  1.1913
 6518TIP3    H241114   0.376   4.505   0.110 -0.3898  0.3380 -0.5038
 6519TIP3   OH241115   2.763   5.056   1.020 -1.0416  0.2949 -0.0955
 6519TIP3    H141116   2.847   5.092   0.992  0.1641 -2.1202  0.0989
 6519TIP3    H241117   2.750   5.090   1.108  0.8895 -0.9482  0.7478
 6520TIP3   OH241118   2.313   5.114   8.270  0.3753  0.0526 -0.1352
 6520TIP3    H141119   2.394   5.152   8.303  0.6583 -1.5950  1.2067
 6520TIP3    H241120   2.246   5.181   8.285  0.8256  0.0392  2.2689
 6521TIP3   OH241121   5.232   0.874   7.681 -0.5936  0.4361  0.1570
 6521TIP3    H141122   5.185   0.812   7.737 -1.1775  2.3246  1.8930
 6521TIP3    H241123   5.324   0.847   7.687 -0.6026  0.6720  2.2592
 6522TIP3   OH241124   2.528   3.368   1.345  0.8193 -0.0412 -0.2213
 6522TIP3    H141125   2.500   3.289   1.299  2.7429 -1.4054  0.8187
 6522TIP3    H241126   2.623   3.361   1.350  0.9707  1.9108  0.7122
 6523TIP3   OH241127   6.582   6.604   1.325  0.0484 -0.2693  0.0850
 6523TIP3    H141128   6.630   6.526   1.299  3.4219  1.8838 -0.7345
 6523TIP3    H241129   6.534   6.630   1.247  0.0837 -0.6965 -0.0826
 6524TIP3   OH241130   4.994   1.487   1.498 -0.5014  0.3895  0.5530
 6524TIP3    H141131   5.041   1.541   1.562  0.6849  1.1858 -0.9297
 6524TIP3    H241132   5.063   1.437   1.454 -0.5579  3.3172 -3.3370
 6525TIP3   OH241133   4.990   5.100   2.573  0.7727 -0.1589 -0.1791
 6525TIP3    H141134   5.001   5.006   2.567  1.2489 -0.1334  0.2500
 6525TIP3    H241135   4.896   5.114   2.558  0.4331 -0.8294  1.1283
 6526TIP3   OH241136   1.129   3.321   8.506  0.3021 -0.0416 -0.2037
 6526TIP3    H141137   1.152   3.322   8.599  1.5910 -1.0644 -0.4858
 6526TIP3    H241138   1.138   3.230   8.479  1.1730  0.4165 -1.6144
 6527TIP3   OH241139   1.616   1.196   2.483 -0.2339 -0.2735 -0.1803
 6527TIP3    H141140   1.652   1.240   2.561 -1.5714 -1.0287  0.9179
 6527TIP3    H241141   1.538   1.247   2.462 -2.6313 -2.7236  1.9688
 6528TIP3   OH241142   6.852   6.845   0.485 -0.5877  0.2412 -0.0915
 6528TIP3    H141143   6.831   6.757   0.454 -0.0024 -0.5665  1.6896
 6528TIP3    H241144   6.940   6.862   0.453 -0.4882 -0.0472  0.0276
 6529TIP3   OH241145   2.558   5.258   8.353 -0.3779  0.1406  1.1087
 6529TIP3    H141146   2.642   5.215   8.337 -0.7471 -0.5272  0.9185
 6529TIP3    H241147   2.580   5.350   8.366  0.3272  0.0672  0.5010
 6530TIP3   OH241148   1.014   6.451   1.589  0.0794 -0.4927 -0.8627
 6530TIP3    H141149   1.060   6.524   1.547  0.7931 -0.3965  0.0553
 6530TIP3    H241150   0.984   6.487   1.673 -2.2095 -0.3793 -1.6538
 6531TIP3   OH241151   0.006   0.898   2.615  0.4448  0.5131  0.1042
 6531TIP3    H141152   0.021   0.873   2.524  1.8340  2.6727 -0.3182
 6531TIP3    H241153  -0.027   0.818   2.656  1.4324 -1.0006 -1.8807
 6532TIP3   OH241154   6.685   6.258   0.642  0.1552 -0.2153  0.0029
 6532TIP3    H141155   6.644   6.322   0.700  0.8664 -1.0522  1.4911
 6532TIP3    H241156   6.722   6.310   0.571 -4.3281  0.5470 -2.1101
 6533TIP3   OH241157   5.863   4.002   1.935 -0.3114 -0.5139  0.4226
 6533TIP3    H141158   5.788   3.943   1.927 -0.5787  0.0262 -1.9047
 6533TIP3    H241159   5.830   4.076   1.987 -0.9799 -0.8996  0.5590
 6534TIP3   OH241160   4.898   2.097   7.099 -0.2905  0.3202 -0.0617
 6534TIP3    H141161   4.823   2.144   7.064 -0.2769  1.0053  0.7893
 6534TIP3    H241162   4.959   2.166   7.127  0.3426 -0.2201 -0.0764
 6535TIP3   OH241163   5.811   5.703   1.950 -0.7526 -0.2304  0.7190
 6535TIP3    H141164   5.738   5.718   1.891  0.3449  1.6946 -0.2319
 6535TIP3    H241165   5.859   5.629   1.911  0.5228  1.6287 -1.4883
 6536TIP3   OH241166   1.713   5.910   2.629 -0.1476 -0.1398  0.2697
 6536TIP3    H141167   1.705   5.895   2.723 -2.1474 -1.0806  0.0038
 6536TIP3    H241168   1.724   5.822   2.592 -2.6783 -0.1742 -0.5886
 6537TIP3   OH241169   1.646   3.438   8.290 -0.0040  0.2579 -0.0817
 6537TIP3    H141170   1.661   3.518   8.341 -2.1459 -0.2890  1.5807
 6537TIP3    H241171   1.706   3.374   8.327  0.1982  0.5312  0.0657
 6538TIP3   OH241172   0.412   1.184   7.163  0.4668  0.6452 -0.8738
 6538TIP3    H141173   0.420   1.259   7.104  0.2736  1.9515  0.7175
 6538TIP3    H241174   0.391   1.110   7.104  1.0075  1.7317 -2.5049
 6539TIP3   OH241175   6.598   0.141   7.333  0.2136  0.6968  0.0543
 6539TIP3    H141176   6.612   0.235   7.343 -0.3072  0.8499 -0.6264
 6539TIP3    H241177   6.550   0.132   7.251  1.5861 -0.2745 -0.6801
 6540TIP3   OH241178   2.686   2.736   8.328  0.2923  0.5817  0.0627
 6540TIP3    H141179   2.708   2.692   8.246 -0.1311  1.1489 -0.3690
 6540TIP3    H241180   2.591   2.742   8.327  0.3020  0.8623  0.4529
 6541TIP3   OH241181   6.699   5.578   2.540 -0.4734 -0.5638 -0.0607
 6541TIP3    H141182   6.645   5.655   2.560  1.1339  0.3129  1.0732
 6541TIP3    H241183   6.728   5.547   2.626  0.6089 -1.1684 -0.6286
 6542TIP3   OH241184   1.046   5.667   0.220 -0.1935 -0.0898  0.4130
 6542TIP3    H141185   0.988   5.733   0.181 -0.2537 -0.0525  0.5672
 6542TIP3    H241186   1.049   5.689   0.313 -0.6755 -0.6578  0.5603
 6543TIP3   OH241187   0.311   5.396   0.471 -0.1040  0.0994  0.1108
 6543TIP3    H141188   0.220   5.375   0.447 -0.3718  0.8637  0.4255
 6543TIP3    H241189   0.359   5.314   0.457 -1.4034 -1.2672  2.8267
 6544TIP3   OH241190   0.588   4.167   1.755 -0.2088 -0.4221  0.3085
 6544TIP3    H141191   0.571   4.123   1.672  1.6769  0.3206 -0.5408
 6544TIP3    H241192   0.615   4.255   1.730  1.2846 -0.4496  1.6211
 6545TIP3   OH241193   4.089   1.029   7.733  0.5957 -0.0191 -0.8222
 6545TIP3    H141194   4.036   1.030   7.653 -0.3752  2.1350 -0.2124
 6545TIP3    H241195   4.098   0.936   7.754 -3.1823 -0.5212 -0.8152
 6546TIP3   OH241196   4.881   2.571   0.705 -0.1773  0.6100 -0.1407
 6546TIP3    H141197   4.786   2.583   0.711 -0.2840 -0.4858  0.5809
 6546TIP3    H241198   4.913   2.591   0.793  0.1919  0.3871 -0.2264
 6547TIP3   OH241199   4.599   0.339   8.660 -0.2552  0.6085 -0.5813
 6547TIP3    H141200   4.613   0.290   8.579  1.9758 -1.5735  0.9422
 6547TIP3    H241201   4.657   0.414   8.654  1.0339 -0.3382 -0.4915
 6548TIP3   OH241202   6.528   6.016   0.928  0.3380 -0.1146 -0.2501
 6548TIP3    H141203   6.576   6.068   0.992  0.2233 -2.3553  1.8140
 6548TIP3    H241204   6.590   6.000   0.857  2.2312 -1.6772  1.6448
 6549TIP3   OH241205   3.089   5.872   0.805 -0.2417 -0.0519  0.3108
 6549TIP3    H141206   3.149   5.888   0.878 -0.8936 -1.7841  1.2782
 6549TIP3    H241207   3.018   5.934   0.818  0.6305  1.0628 -0.0569
 6550TIP3   OH241208   4.946   3.465   0.194  0.0584  0.0330 -0.3681
 6550TIP3    H141209   4.904   3.393   0.241 -0.2838  1.2620  1.3232
 6550TIP3    H241210   4.874   3.512   0.152  0.3347 -0.8818 -1.9177
 6551TIP3   OH241211   2.020   1.066   7.229 -0.4120  0.1294  0.7283
 6551TIP3    H141212   2.113   1.044   7.221 -0.3320  0.7337 -0.0457
 6551TIP3    H241213   1.975   1.001   7.176 -0.2621  1.0736 -0.5993
 6552TIP3   OH241214   0.997   6.509   1.034  0.4764  0.0908 -0.5248
 6552TIP3    H141215   1.021   6.429   0.987 -1.1774 -0.5039 -0.4060
 6552TIP3    H241216   0.935   6.554   0.976  0.7499  0.8853 -0.2224
 6553TIP3   OH241217   6.503   6.510   0.251  0.1506  0.0707  0.3705
 6553TIP3    H141218   6.559   6.562   0.195 -0.2074  1.0993  0.9314
 6553TIP3    H241219   6.463   6.445   0.193  2.1109 -0.8708  0.0219
 6554TIP3   OH241220   0.589   0.554   2.242  0.5714 -0.3456  0.5799
 6554TIP3    H141221   0.614   0.570   2.333  0.3370 -2.5842  1.0927
 6554TIP3    H241222   0.647   0.611   2.191  0.3414  1.3508  2.1239
 6555TIP3   OH241223   0.498   3.070   3.191 -0.5779 -0.2651  0.8506
 6555TIP3    H141224   0.444   2.994   3.169 -0.7588 -1.0237  3.5932
 6555TIP3    H241225   0.511   3.115   3.107 -1.2073 -2.8039 -0.7256
 6556TIP3   OH241226   5.476   3.400   1.336 -0.0447 -0.2429  0.2812
 6556TIP3    H141227   5.489   3.464   1.266  2.1732  0.9837  1.6901
 6556TIP3    H241228   5.535   3.328   1.313  0.9971  0.3408  1.0177
 6557TIP3   OH241229   3.510   6.150   7.259 -0.7822 -0.1791 -0.3283
 6557TIP3    H141230   3.604   6.152   7.277 -0.8218 -1.6389  0.1186
 6557TIP3    H241231   3.485   6.243   7.255  0.3326  0.2355  1.3055
 6558TIP3   OH241232   0.295   1.576   7.734  0.3840 -0.0508  0.1106
 6558TIP3    H141233   0.284   1.666   7.766 -0.9738 -0.2384  0.2509
 6558TIP3    H241234   0.370   1.542   7.781  0.9737  1.0349 -0.0059
 6559TIP3   OH241235   2.692   0.108   7.698  0.0866  0.0901 -0.1615
 6559TIP3    H141236   2.667   0.190   7.657 -0.9115  0.5459  1.2775
 6559TIP3    H241237   2.787   0.115   7.710 -0.2391  1.9928  1.8572
 6560TIP3   OH241238   2.018   3.981   7.815 -0.0344  0.0290 -0.0843
 6560TIP3    H141239   2.046   3.979   7.907 -1.8225 -0.4576  0.4978
 6560TIP3    H241240   1.994   3.890   7.796 -1.3174  0.4234 -0.4597
 6561TIP3   OH241241   4.952   3.424   7.341 -0.2787 -0.2586  0.0508
 6561TIP3    H141242   4.958   3.384   7.428  0.9859 -0.3038 -0.0307
 6561TIP3    H241243   4.957   3.518   7.358  1.9552 -0.3091 -0.0580
 6562TIP3   OH241244   0.440   6.377   0.726  0.3697 -0.0619  0.1976
 6562TIP3    H141245   0.463   6.322   0.801  0.1728 -2.5015 -1.3930
 6562TIP3    H241246   0.345   6.385   0.730  0.5759  2.6389  1.9487
 6563TIP3   OH241247   1.384   4.813   2.389  0.2100  0.3843  0.1164
 6563TIP3    H141248   1.437   4.882   2.350 -1.0566  1.2067 -0.2079
 6563TIP3    H241249   1.438   4.778   2.460  1.1627  1.2109 -0.1795
 6564TIP3   OH241250   0.313   3.260   6.948  0.0069 -0.3451 -0.0548
 6564TIP3    H141251   0.333   3.189   6.888 -1.1197 -1.2873  0.6458
 6564TIP3    H241252   0.366   3.334   6.917  2.0533 -1.7634 -0.1569
 6565TIP3   OH241253   4.446   5.900   2.618 -0.2683  0.3535 -0.4913
 6565TIP3    H141254   4.488   5.947   2.545  0.0091 -0.5082 -0.9030
 6565TIP3    H241255   4.402   5.826   2.577  0.6295 -0.6556  0.2902
 6566TIP3   OH241256   0.134   3.500   1.728  0.2261  0.4953  0.4635
 6566TIP3    H141257   0.157   3.581   1.773  2.1760  0.0212  0.4043
 6566TIP3    H241258   0.157   3.430   1.789 -1.4148 -0.0683  0.5070
 6567TIP3   OH241259   2.977   2.289   1.385 -1.4011 -0.2003  0.3819
 6567TIP3    H141260   3.071   2.304   1.396 -1.1506 -1.3042 -0.0988
 6567TIP3    H241261   2.939   2.376   1.375 -0.1906  0.1816 -1.2016
 6568TIP3   OH241262   0.924   4.168   1.999  0.5105  0.1805 -0.6474
 6568TIP3    H141263   0.956   4.227   2.068 -2.6369  0.3167  0.8750
 6568TIP3    H241264   0.856   4.218   1.954 -0.5117 -1.4171 -0.9630
 6569TIP3   OH241265   4.673   3.163   2.559 -0.4283  0.7046 -0.2642
 6569TIP3    H141266   4.672   3.083   2.612 -1.4562  0.5940 -0.4287
 6569TIP3    H241267   4.633   3.229   2.616 -2.5866  0.3261 -1.2484
 6570TIP3   OH241268   1.635   3.155   1.105 -0.8737 -0.1483  0.1775
 6570TIP3    H141269   1.579   3.225   1.139  1.9669  1.2338  2.4304
 6570TIP3    H241270   1.677   3.193   1.028 -1.7661 -0.6339 -0.5769
 6571TIP3   OH241271   4.702   2.341   0.925  0.3053 -0.6052 -0.1581
 6571TIP3    H141272   4.657   2.406   0.871  1.6429  0.7179  0.2674
 6571TIP3    H241273   4.631   2.288   0.961 -0.7552 -0.1175 -1.4216
 6572TIP3   OH241274   2.045   4.885   2.167 -0.4152  0.3986  0.1170
 6572TIP3    H141275   2.006   4.971   2.151  0.4928  0.5356 -1.6232
 6572TIP3    H241276   2.029   4.868   2.259 -1.9683  1.7457  0.1325
 6573TIP3   OH241277   2.022   1.117   1.185  0.7146 -0.4401 -0.2152
 6573TIP3    H141278   1.971   1.143   1.109 -0.0245  0.0635  0.4363
 6573TIP3    H241279   2.109   1.095   1.150  0.5016  0.1496 -1.1394
 6574TIP3   OH241280   1.958   5.740   7.624 -0.4283 -0.2816  0.0239
 6574TIP3    H141281   1.896   5.739   7.696 -0.8960 -1.2998 -0.3841
 6574TIP3    H241282   1.979   5.833   7.613 -1.5322  0.0402  0.4510
 6575TIP3   OH241283   4.172   0.588   1.515  0.2362 -0.3752 -0.4805
 6575TIP3    H141284   4.230   0.664   1.524  1.2498 -0.9550 -1.8072
 6575TIP3    H241285   4.108   0.614   1.449  0.4184 -0.5571 -0.7334
 6576TIP3   OH241286   3.264   1.920   7.731  0.3583 -0.3332 -0.3100
 6576TIP3    H141287   3.347   1.964   7.714  0.0517  0.9694  1.2679
 6576TIP3    H241288   3.207   1.947   7.659  1.7983 -2.8701 -2.5550
 6577TIP3   OH241289   5.290   4.525   2.037  0.2071 -0.3177 -0.3324
 6577TIP3    H141290   5.203   4.547   2.070 -0.5433 -1.6642 -1.3500
 6577TIP3    H241291   5.274   4.465   1.965  2.0344 -1.3130  0.0472
 6578TIP3   OH241292   2.328   1.655   1.826 -0.0644  0.4141 -0.4369
 6578TIP3    H141293   2.268   1.635   1.898 -0.7211  0.5238 -0.9385
 6578TIP3    H241294   2.333   1.750   1.824 -0.4102  0.4266 -0.8203
 6579TIP3   OH241295   2.420   4.853   6.528 -0.1114 -0.0026  0.3678
 6579TIP3    H141296   2.428   4.856   6.432  0.9852 -2.4333  0.3109
 6579TIP3    H241297   2.459   4.936   6.557  3.3264 -0.9040 -1.1836
 6580TIP3   OH241298   1.593   2.102   0.083  0.1338 -0.1631 -0.8564
 6580TIP3    H141299   1.588   2.089   0.178 -1.9533  3.3321 -0.2987
 6580TIP3    H241300   1.605   2.014   0.047  1.5640 -1.5658  2.6124
 6581TIP3   OH241301   1.605   4.965   8.570 -0.0584  0.3924  0.3209
 6581TIP3    H141302   1.627   4.893   8.629  2.1411  2.6242  2.4573
 6581TIP3    H241303   1.675   4.965   8.505 -0.8601 -0.2238 -0.5771
 6582TIP3   OH241304   3.893   0.598   2.199  0.0970  0.4816 -0.2021
 6582TIP3    H141305   3.916   0.648   2.277 -0.1761 -0.4407  0.4907
 6582TIP3    H241306   3.803   0.570   2.214 -0.1576  0.7862 -1.1247
 6583TIP3   OH241307   4.550   6.039   1.007  0.3392 -0.1140 -0.5158
 6583TIP3    H141308   4.509   6.087   0.935 -1.1781 -0.8066 -0.1380
 6583TIP3    H241309   4.491   5.967   1.025  0.9971 -0.2994  1.0415
 6584TIP3   OH241310   4.227   6.336   7.406  0.6734 -0.4069  0.1795
 6584TIP3    H141311   4.267   6.252   7.383 -0.2911 -0.9279  0.3225
 6584TIP3    H241312   4.236   6.340   7.502  1.9016  0.2899  0.0494
 6585TIP3   OH241313   1.416   6.452   1.423 -0.1760 -0.3275  0.1997
 6585TIP3    H141314   1.347   6.449   1.356  0.2985  1.7018 -0.4628
 6585TIP3    H241315   1.375   6.494   1.498  0.9011  3.4133 -1.1090
 6586TIP3   OH241316   1.234   1.921   1.079 -0.1623 -0.3329 -0.3487
 6586TIP3    H141317   1.151   1.956   1.046 -0.2255  0.1530  0.3108
 6586TIP3    H241318   1.296   1.994   1.072 -0.2657 -0.0916  0.9145
 6587TIP3   OH241319   5.239   1.418   0.076  0.1903 -0.0714  0.0201
 6587TIP3    H141320   5.177   1.409   0.148 -1.4296 -2.1387 -1.4979
 6587TIP3    H241321   5.259   1.328   0.050  0.9435  0.5885 -1.8926
 6588TIP3   OH241322   6.424   3.869   7.430  0.2738  0.5486  0.3142
 6588TIP3    H141323   6.337   3.864   7.391 -0.1142 -0.0253  1.2021
 6588TIP3    H241324   6.482   3.834   7.363 -0.4829 -1.2724  0.5350
 6589TIP3   OH241325   4.904   3.146   8.101  0.6637 -0.4256  0.7052
 6589TIP3    H141326   4.937   3.070   8.149  1.4309  0.1975  1.1652
 6589TIP3    H241327   4.827   3.174   8.151 -0.0176 -1.2849  0.1702
 6590TIP3   OH241328   3.010   1.136   0.396  0.3348 -0.3858  0.4164
 6590TIP3    H141329   2.924   1.104   0.425 -0.2214  0.3294 -0.3863
 6590TIP3    H241330   3.004   1.231   0.404  0.9375 -0.3116  0.0251
 6591TIP3   OH241331   6.691   5.775   1.641  0.0380 -1.0645  0.0627
 6591TIP3    H141332   6.618   5.780   1.580  0.7734  0.4399 -0.7435
 6591TIP3    H241333   6.769   5.763   1.586  0.8239  1.2671  0.5454
 6592TIP3   OH241334   1.969   6.206   0.426 -0.1191  0.3089 -0.1713
 6592TIP3    H141335   2.056   6.244   0.435 -0.7487  1.6653  0.5979
 6592TIP3    H241336   1.916   6.276   0.387 -0.8751 -0.4922 -0.6336
 6593TIP3   OH241337   1.299   3.495   2.829 -0.6589  0.5645  0.2875
 6593TIP3    H141338   1.336   3.419   2.784 -0.3310  0.4638  0.7259
 6593TIP3    H241339   1.341   3.570   2.786  0.2178  0.4462  0.9163
 6594TIP3   OH241340   1.423   5.972   2.579 -0.2001  0.2174 -0.3434
 6594TIP3    H141341   1.465   5.893   2.545  0.8020  0.6647 -0.1786
 6594TIP3    H241342   1.452   5.977   2.670 -2.4787 -0.7082  0.5091
 6595TIP3   OH241343   6.431   5.760   1.765 -0.3280 -0.5878 -0.2349
 6595TIP3    H141344   6.360   5.783   1.825 -0.2712 -0.6702 -0.1343
 6595TIP3    H241345   6.501   5.729   1.823 -0.4364 -1.0894 -0.3755
 6596TIP3   OH241346   4.832   6.372   8.516 -0.1751 -0.7625  0.0027
 6596TIP3    H141347   4.816   6.399   8.425 -1.8661  1.1210  0.7775
 6596TIP3    H241348   4.768   6.303   8.532  1.0153 -2.0505 -0.5834
 6597TIP3   OH241349   4.056   5.305   1.988  0.0832  0.5319  0.0556
 6597TIP3    H141350   4.139   5.264   2.014  0.3912  2.0758  1.6796
 6597TIP3    H241351   4.006   5.312   2.069  0.3444  3.9178  0.0731
 6598TIP3   OH241352   5.193   3.638   1.430  0.5487  0.1871 -0.3039
 6598TIP3    H141353   5.148   3.672   1.507  0.3325 -1.3181  0.2777
 6598TIP3    H241354   5.209   3.714   1.374 -0.6040  1.0817  0.5671
 6599TIP3   OH241355   1.146   5.627   1.723  0.0152 -0.0975  0.1455
 6599TIP3    H141356   1.137   5.575   1.643  0.4073  0.4587 -0.2734
 6599TIP3    H241357   1.064   5.612   1.770  0.2990 -1.4344  0.2568
 6600TIP3   OH241358   5.210   6.536   0.969  0.3377 -0.5561  0.7094
 6600TIP3    H141359   5.245   6.476   0.903 -0.5917 -0.3741  0.0484
 6600TIP3    H241360   5.150   6.481   1.021 -0.3629 -0.2608  0.2266
 6601TIP3   OH241361   4.873   3.894   0.560  0.0636  0.0135  0.1359
 6601TIP3    H141362   4.782   3.869   0.576  0.0784  0.7267  1.4712
 6601TIP3    H241363   4.868   3.971   0.504 -0.2376  0.9577  1.4190
 6602TIP3   OH241364   5.366   4.073   1.979 -0.3061  0.0209  0.2524
 6602TIP3    H141365   5.332   4.091   1.891 -1.8400  1.7590  1.1259
 6602TIP3    H241366   5.288   4.049   2.030 -0.2207  3.0210  2.0605
 6603TIP3   OH241367   1.076   4.147   1.756  0.7611 -0.3136 -0.1219
 6603TIP3    H141368   1.035   4.193   1.684  1.8867  0.4959 -0.2807
 6603TIP3    H241369   1.047   4.193   1.834 -0.5763 -1.2823 -0.0158
 6604TIP3   OH241370   0.552   3.159   8.143 -0.2294  0.3065  0.5550
 6604TIP3    H141371   0.531   3.127   8.231 -0.4129 -1.0551  0.0445
 6604TIP3    H241372   0.476   3.133   8.090 -1.1398  3.0045  0.3758
 6605TIP3   OH241373   2.609   0.738   0.423 -0.3110 -0.2943  0.4962
 6605TIP3    H141374   2.562   0.658   0.446 -0.5245 -0.3280 -0.0434
 6605TIP3    H241375   2.634   0.776   0.507  0.1921 -1.1594  0.7581
 6606TIP3   OH241376   6.138   1.632   1.719  0.5289 -0.7224 -0.1909
 6606TIP3    H141377   6.078   1.623   1.644  1.1379  0.8379 -0.9118
 6606TIP3    H241378   6.094   1.586   1.790 -1.1457 -0.3420 -0.9211
 6607TIP3   OH241379   2.430   1.747   2.751  0.1518  0.3208  0.4477
 6607TIP3    H141380   2.500   1.811   2.741 -0.1131  1.0534  2.6615
 6607TIP3    H241381   2.408   1.721   2.662  0.1777  3.4298 -0.5807
 6608TIP3   OH241382   4.340   1.244   6.861 -0.3332 -0.5604 -0.0600
 6608TIP3    H141383   4.354   1.254   6.767  0.3991 -1.0132 -0.0027
 6608TIP3    H241384   4.354   1.151   6.878 -0.8558 -0.5545  0.4359
 6609TIP3   OH241385   2.093   1.975   1.904  0.2299 -0.0352 -0.2742
 6609TIP3    H141386   2.054   1.909   1.847  0.5955 -1.0293  0.5943
 6609TIP3    H241387   2.118   2.046   1.846 -1.8729  0.1778 -1.0168
 6610TIP3   OH241388   2.517   6.630   1.634  0.0843  0.1150 -0.0438
 6610TIP3    H141389   2.522   6.703   1.696 -2.2179 -0.9181  1.5285
 6610TIP3    H241390   2.607   6.612   1.611  0.8512  2.2352  0.9762
 6611TIP3   OH241391   6.710   0.120   1.943 -0.8084 -0.1382 -0.0811
 6611TIP3    H141392   6.686   0.098   2.033  0.0143 -0.6902  0.0105
 6611TIP3    H241393   6.650   0.068   1.889 -0.5389 -0.6937  0.1479
 6612TIP3   OH241394   3.749   2.250   8.313 -0.6434 -0.3772 -0.3604
 6612TIP3    H141395   3.755   2.210   8.227 -1.3247 -1.3962  0.0455
 6612TIP3    H241396   3.710   2.182   8.368 -0.9325  0.5215  0.5714
 6613TIP3   OH241397   4.344   3.642   7.608  0.2051  0.0171 -0.4959
 6613TIP3    H141398   4.326   3.709   7.674  0.6125 -0.0027 -0.3614
 6613TIP3    H241399   4.331   3.687   7.524 -1.2680 -0.2127 -0.4226
 6614TIP3   OH241400   0.648   5.171   2.189  0.2404 -0.0530 -0.7155
 6614TIP3    H141401   0.650   5.237   2.258 -3.9624 -0.5881  0.1992
 6614TIP3    H241402   0.660   5.088   2.235  1.0453 -0.2173 -1.2054
 6615TIP3   OH241403   0.294   6.848   8.200  0.3514 -0.3548 -0.0822
 6615TIP3    H141404   0.282   6.827   8.293  0.2479 -0.8992 -0.2155
 6615TIP3    H241405   0.349   6.926   8.200  1.4323 -1.0945  0.4101
 6616TIP3   OH241406   3.778   5.098   8.225  0.4960  0.3289 -0.7554
 6616TIP3    H141407   3.803   5.128   8.312 -2.1858  0.7267 -0.0248
 6616TIP3    H241408   3.730   5.172   8.187  0.8501 -0.1597 -2.2387
 6617TIP3   OH241409   4.352   3.267   0.954 -0.1148 -0.2090 -0.1572
 6617TIP3    H141410   4.442   3.237   0.939 -0.2161 -0.7324  0.2400
 6617TIP3    H241411   4.355   3.361   0.938  0.1530 -0.4523 -1.7156
 6618TIP3   OH241412   2.617   6.423   7.509  0.2647 -0.4988  0.4144
 6618TIP3    H141413   2.637   6.500   7.456  1.2919  0.1207  1.6685
 6618TIP3    H241414   2.523   6.410   7.497  0.2294  0.4471 -0.4637
 6619TIP3   OH241415   2.294   0.996   0.087  0.0953  0.1900 -0.1678
 6619TIP3    H141416   2.292   0.991  -0.009  1.4198 -0.2980 -0.1845
 6619TIP3    H241417   2.231   0.930   0.115 -1.3557  1.2854 -0.6884
 6620TIP3   OH241418   6.013   5.475   7.778 -0.2453 -0.0941 -0.0766
 6620TIP3    H141419   5.932   5.454   7.824 -0.6402 -0.4545 -0.9301
 6620TIP3    H241420   6.051   5.390   7.755  0.3019  0.0722  0.1723
 6621TIP3   OH241421   6.010   1.048   8.157  0.6254  0.0945  0.2434
 6621TIP3    H141422   5.997   0.955   8.142  0.8140  0.1091 -0.0247
 6621TIP3    H241423   5.992   1.061   8.250 -0.4411 -0.0238  0.0660
 6622TIP3   OH241424   4.486   0.212   2.053 -0.0014  0.5034  0.1497
 6622TIP3    H141425   4.415   0.255   2.006  1.3280  1.1548 -1.3633
 6622TIP3    H241426   4.494   0.126   2.011 -0.4443  0.0872  0.8988
 6623TIP3   OH241427   1.963   1.177   6.796 -0.0341 -0.3154  0.2746
 6623TIP3    H141428   1.900   1.231   6.845  0.1920 -0.2399  0.4847
 6623TIP3    H241429   2.048   1.201   6.832  0.2430  0.5122 -0.9003
 6624TIP3   OH241430   2.927   0.013   8.550 -0.3050 -0.1234 -0.1999
 6624TIP3    H141431   2.934   0.056   8.464  0.7500  0.1887  0.0243
 6624TIP3    H241432   2.917  -0.080   8.529 -1.3932  0.0773 -0.6702
 6625TIP3   OH241433   2.453   4.152   3.079 -0.2419 -0.4700  0.0166
 6625TIP3    H141434   2.520   4.152   3.146 -0.6318 -0.1760  0.4133
 6625TIP3    H241435   2.407   4.069   3.090  1.4073 -1.6956 -1.6573
 6626TIP3   OH241436   5.514   1.234   8.172  0.2105  0.0935 -0.7393
 6626TIP3    H141437   5.523   1.231   8.267  2.2258 -0.0474 -0.8830
 6626TIP3    H241438   5.533   1.145   8.143 -0.8227  0.0303 -1.2646
 6627TIP3   OH241439   2.974   5.922   2.737 -0.4384  0.1949  0.4523
 6627TIP3    H141440   2.972   5.850   2.800 -2.3174  0.3628  0.6185
 6627TIP3    H241441   2.967   6.001   2.790  1.4435  0.5605  0.2568
 6628TIP3   OH241442   4.669   2.063   0.232 -0.3540  0.6626 -0.3337
 6628TIP3    H141443   4.668   2.059   0.328  0.2858 -0.6044 -0.3503
 6628TIP3    H241444   4.578   2.079   0.207 -0.4534  1.4419  0.4858
 6629TIP3   OH241445   2.266   3.037   2.661 -0.7647 -0.2155 -0.0213
 6629TIP3    H141446   2.231   3.020   2.749  0.2257 -0.4270  0.3403
 6629TIP3    H241447   2.315   3.119   2.671  0.8052 -1.1361  0.0587
 6630TIP3   OH241448   0.354   2.585   0.017 -0.1384 -0.2700  0.9516
 6630TIP3    H141449   0.372   2.666   0.064 -2.2503  1.0720 -0.3774
 6630TIP3    H241450   0.328   2.613  -0.071 -1.0418 -2.3678  0.4837
 6631TIP3   OH241451   6.398   6.287   8.372 -0.5079 -0.3996 -0.2283
 6631TIP3    H141452   6.349   6.205   8.375  0.9543 -1.3090 -0.1341
 6631TIP3    H241453   6.345   6.349   8.421 -1.5272 -1.3514 -0.1016
 6632TIP3   OH241454   1.319   1.753   1.445  0.3736 -0.3669  0.1374
 6632TIP3    H141455   1.227   1.766   1.425 -0.1152 -3.4639 -0.0440
 6632TIP3    H241456   1.364   1.769   1.361  0.1261  1.6194  0.3377
 6633TIP3   OH241457   5.297   1.163   1.169  0.0980 -0.3935  0.2179
 6633TIP3    H141458   5.206   1.149   1.142 -0.3999  2.2485  0.2027
 6633TIP3    H241459   5.290   1.208   1.254  1.3780 -0.1223  0.2004
 6634TIP3   OH241460   4.124   5.601   0.067 -0.2789 -0.1906  0.0259
 6634TIP3    H141461   4.079   5.536   0.012  0.6490  0.0440 -1.0563
 6634TIP3    H241462   4.072   5.681   0.057 -2.1708 -0.9839  2.3650
 6635TIP3   OH241463   4.547   1.924   8.572 -0.1321 -0.0390  0.4381
 6635TIP3    H141464   4.559   2.015   8.546  0.3674 -0.8063 -2.4212
 6635TIP3    H241465   4.479   1.926   8.639  1.3640  2.5846  2.0651
 6636TIP3   OH241466   3.002   0.422   0.144 -0.6763  0.2134  0.0752
 6636TIP3    H141467   3.067   0.383   0.086  0.4084 -0.2991  1.5789
 6636TIP3    H241468   2.922   0.372   0.127  0.0446 -1.0123  0.1737
 6637TIP3   OH241469   0.433   1.534   1.156  0.0546  0.2447 -0.8151
 6637TIP3    H141470   0.484   1.514   1.234 -1.3363 -0.1634  0.0233
 6637TIP3    H241471   0.416   1.449   1.115 -2.6027 -0.0463  0.6660
 6638TIP3   OH241472   6.054   4.256   0.800  0.1981 -0.1587 -0.1720
 6638TIP3    H141473   6.077   4.241   0.892  1.4584  1.0641 -0.2465
 6638TIP3    H241474   6.134   4.292   0.761 -0.4394 -0.2786 -1.6614
 6639TIP3   OH241475   0.141   6.292   2.876 -0.8479  0.2829  0.7110
 6639TIP3    H141476   0.086   6.366   2.904 -0.3438  0.8586  0.2197
 6639TIP3    H241477   0.160   6.244   2.956 -1.7965  0.2599  0.9348
 6640TIP3   OH241478   6.601   3.094   1.638 -0.2886  0.5890 -0.3620
 6640TIP3    H141479   6.658   3.023   1.609 -2.7130 -1.8928  0.5593
 6640TIP3    H241480   6.554   3.121   1.559 -0.0705  0.4574 -0.5363
 6641TIP3   OH241481   5.594   0.876   0.827  0.4375  0.3323 -0.0972
 6641TIP3    H141482   5.543   0.822   0.888  0.8542 -0.5364 -0.5016
 6641TIP3    H241483   5.614   0.956   0.876 -1.5542  0.8326 -0.0146
 6642TIP3   OH241484   4.758   4.609   8.608  0.2214 -0.3483  0.1290
 6642TIP3    H141485   4.778   4.553   8.533 -0.7821 -2.2947  1.2279
 6642TIP3    H241486   4.773   4.553   8.684 -1.1971  0.7616  1.2810
 6643TIP3   OH241487   1.533   6.106   0.571 -0.5274  0.2350  0.6609
 6643TIP3    H141488   1.492   6.184   0.608 -1.5252  0.2468 -0.4263
 6643TIP3    H241489   1.594   6.077   0.639  1.0063  2.8136  0.5149
 6644TIP3   OH241490   6.644   2.350   1.789  0.0325 -0.6492 -0.1360
 6644TIP3    H141491   6.555   2.382   1.796  0.1759 -0.2114 -0.3139
 6644TIP3    H241492   6.636   2.255   1.800 -0.5105 -0.6675 -0.6237
 6645TIP3   OH241493   5.561   6.557   0.408 -0.9499 -0.0187  0.8614
 6645TIP3    H141494   5.622   6.585   0.477  0.9962 -1.3720 -0.2339
 6645TIP3    H241495   5.566   6.627   0.342  3.1698 -2.1260 -1.4202
 6646TIP3   OH241496   1.587   5.091   7.938 -0.5932  0.2866  0.2694
 6646TIP3    H141497   1.529   5.080   8.013 -0.2785 -0.5807  0.3955
 6646TIP3    H241498   1.541   5.050   7.865  0.1915 -1.1272  0.5427
 6647TIP3   OH241499   6.335   0.310   2.228 -0.0318  0.5661  0.3693
 6647TIP3    H141500   6.373   0.322   2.315 -0.1940 -1.2214  0.7270
 6647TIP3    H241501   6.280   0.232   2.236  0.3168  0.0792 -1.4382
 6648TIP3   OH241502   0.308   6.599   2.043 -0.6639 -0.6116 -0.3754
 6648TIP3    H141503   0.324   6.648   2.124 -1.4861  1.3498 -1.3191
 6648TIP3    H241504   0.284   6.511   2.072  1.0337 -0.5576  1.4103
 6649TIP3   OH241505   6.852   1.493   8.229  0.5423  0.2669  0.3355
 6649TIP3    H141506   6.842   1.400   8.251  0.7843 -0.0548 -0.8363
 6649TIP3    H241507   6.893   1.493   8.142  1.8778  1.4927  0.9364
 6650TIP3   OH241508   0.495   4.308   7.223  0.0509 -0.2004  0.0600
 6650TIP3    H141509   0.473   4.289   7.314 -2.3081 -0.6782 -0.5495
 6650TIP3    H241510   0.514   4.222   7.185 -1.8361 -0.3873 -0.5530
 6651TIP3   OH241511   1.500   1.733   1.964 -0.0560  0.0537  0.3505
 6651TIP3    H141512   1.430   1.694   2.017 -0.5884  0.9422  0.3268
 6651TIP3    H241513   1.458   1.753   1.880  0.2775  0.3973  0.2642
 6652TIP3   OH241514   1.067   0.350   8.177 -0.3183  0.0190 -0.3932
 6652TIP3    H141515   1.091   0.327   8.087 -2.4646 -0.1745 -0.9701
 6652TIP3    H241516   1.111   0.433   8.193  3.5667 -1.8590 -0.0375
 6653TIP3   OH241517   2.132   0.103   1.067 -0.0105 -0.0618  0.8425
 6653TIP3    H141518   2.056   0.144   1.026  1.4843  3.8842  1.6200
 6653TIP3    H241519   2.195   0.093   0.996  1.0530  2.9110  1.2362
 6654TIP3   OH241520   4.045   6.169   1.773  0.3750  0.0371 -0.0038
 6654TIP3    H141521   4.046   6.126   1.858  1.4313  0.1246  0.0390
 6654TIP3    H241522   4.137   6.188   1.754 -0.0952  3.1180  0.3979
 6655TIP3   OH241523   6.147   6.072   7.467 -0.4931 -0.3516 -0.4988
 6655TIP3    H141524   6.156   6.044   7.558 -0.3510 -1.0445 -0.7210
 6655TIP3    H241525   6.091   6.149   7.471 -1.0341 -0.7622  0.1112
 6656TIP3   OH241526   3.161   6.454   1.564  0.4021 -0.1362 -0.0988
 6656TIP3    H141527   3.171   6.547   1.547  0.2486 -0.2894 -1.0966
 6656TIP3    H241528   3.241   6.414   1.528 -0.4036 -0.5803 -1.4761
 6657TIP3   OH241529   6.250   4.943   7.788  0.5103  0.1689  0.1681
 6657TIP3    H141530   6.243   4.875   7.721 -2.0008  0.4101  0.0943
 6657TIP3    H241531   6.314   5.005   7.753  0.7002 -0.7034 -1.0928
 6658TIP3   OH241532   1.886   4.234   7.764 -0.5794  0.2500 -0.1263
 6658TIP3    H141533   1.929   4.236   7.678 -2.0384  0.2299 -0.8920
 6658TIP3    H241534   1.908   4.147   7.799 -1.3033 -0.4017 -1.2205
 6659TIP3   OH241535   3.645   4.524   8.654 -0.6338  1.1668 -0.0930
 6659TIP3    H141536   3.615   4.477   8.576  0.0259  1.7410 -0.7060
 6659TIP3    H241537   3.585   4.599   8.661 -0.5513  1.2398 -0.1768
 6660TIP3   OH241538   0.615   5.831   0.861  0.3235  0.1019 -0.2873
 6660TIP3    H141539   0.688   5.866   0.810 -1.9994  2.6397 -2.1765
 6660TIP3    H241540   0.537   5.869   0.821 -1.9553 -0.6693  2.9541
 6661TIP3   OH241541   1.782   5.187   7.765  0.3188 -0.1541 -0.1070
 6661TIP3    H141542   1.866   5.142   7.772 -0.3916 -1.3062  2.0371
 6661TIP3    H241543   1.727   5.144   7.830 -1.1396  2.3199  0.4012
 6662TIP3   OH241544   6.338   4.747   2.444 -0.2008  0.5431 -0.0327
 6662TIP3    H141545   6.384   4.710   2.368 -1.9353  0.4768 -1.1008
 6662TIP3    H241546   6.245   4.733   2.425 -0.6671 -0.1592  2.4823
 6663TIP3   OH241547   6.097   4.405   1.058  0.6619 -0.1090  0.6992
 6663TIP3    H141548   6.080   4.495   1.086  1.2519  0.2026  0.0877
 6663TIP3    H241549   6.185   4.386   1.089  1.9923  0.7983 -2.1346
 6664TIP3   OH241550   0.774   4.962   0.641 -0.1547  0.1222 -0.4638
 6664TIP3    H141551   0.789   4.933   0.551 -0.5684  1.6675 -1.0555
 6664TIP3    H241552   0.763   5.057   0.635  1.4369  0.5027  1.4194
 6665TIP3   OH241553   4.446   2.093   2.295  0.4202  0.0505  0.0501
 6665TIP3    H141554   4.453   2.012   2.344  0.3632 -0.5807 -0.9495
 6665TIP3    H241555   4.354   2.119   2.303  0.1262 -0.7081 -0.7137
 6666TIP3   OH241556   3.091   1.917   2.359  0.3832 -0.0147  0.2798
 6666TIP3    H141557   3.048   1.987   2.310  0.2968 -1.2132 -1.4136
 6666TIP3    H241558   3.032   1.900   2.433 -1.5953 -0.9251 -1.4331
 6667TIP3   OH241559   5.739   4.653   0.154 -0.4609  0.7003 -0.2691
 6667TIP3    H141560   5.782   4.671   0.070  0.2521 -0.0599 -0.0834
 6667TIP3    H241561   5.799   4.688   0.220  0.3746 -1.1401  0.0347
 6668TIP3   OH241562   3.045   4.849   0.766  0.0966  0.4262 -0.7700
 6668TIP3    H141563   3.078   4.902   0.693  0.5991 -0.2330 -1.0397
 6668TIP3    H241564   3.015   4.912   0.830  1.9023  1.0963 -0.5135
 6669TIP3   OH241565   2.296   6.777   0.051 -0.4883 -0.3004 -0.3584
 6669TIP3    H141566   2.344   6.837  -0.007 -1.5432  0.4260 -0.5279
 6669TIP3    H241567   2.354   6.763   0.125  1.5589 -2.4573 -2.2155
 6670TIP3   OH241568   5.528   6.848   0.329 -0.1560 -0.0110 -0.1858
 6670TIP3    H141569   5.619   6.876   0.317  0.2128 -1.3571 -0.6510
 6670TIP3    H241570   5.525   6.818   0.420 -0.1940  0.1862 -0.1194
 6671TIP3   OH241571   0.398   0.486   7.461 -0.2187 -0.4157  0.3843
 6671TIP3    H141572   0.485   0.525   7.472 -0.6099  0.7039 -0.3604
 6671TIP3    H241573   0.356   0.539   7.393 -1.4108 -1.0753  0.5786
 6672TIP3   OH241574   1.426   5.752   7.857 -0.2468 -0.5531 -0.2040
 6672TIP3    H141575   1.435   5.807   7.779 -0.3690 -0.5668 -0.2274
 6672TIP3    H241576   1.448   5.664   7.826  0.8661 -0.3751  0.0373
 6673TIP3   OH241577   2.443   1.242   0.014  0.2825 -0.2577 -0.1053
 6673TIP3    H141578   2.423   1.149   0.023 -3.3225  0.4235  0.6244
 6673TIP3    H241579   2.396   1.284   0.087  3.2366  2.0523  0.6990
 6674TIP3   OH241580   2.797   2.682   6.954  0.3625 -0.1380  0.2467
 6674TIP3    H141581   2.774   2.589   6.950 -0.7623  0.0147  2.0535
 6674TIP3    H241582   2.891   2.684   6.938  0.4547 -1.6164  0.4273
 6675TIP3   OH241583   6.195   1.916   2.388  0.4884 -0.1028  0.1937
 6675TIP3    H141584   6.169   2.001   2.423  1.6597  0.7073 -0.8234
 6675TIP3    H241585   6.278   1.932   2.345  0.3328 -1.6048 -0.7427
 6676TIP3   OH241586   0.261   6.598   8.028 -0.5871 -0.2955 -0.3008
 6676TIP3    H141587   0.333   6.575   7.969  0.6728 -0.9786  1.4170
 6676TIP3    H241588   0.271   6.693   8.042 -0.0663 -0.3718 -0.1406
 6677TIP3   OH241589   0.356   2.280   0.281 -0.1177  0.7247  0.3622
 6677TIP3    H141590   0.407   2.361   0.275 -1.0379  1.1986 -2.2344
 6677TIP3    H241591   0.324   2.279   0.371  1.1202  2.4848  0.8819
 6678TIP3   OH241592   3.143   1.347   2.374  0.5068 -0.1764 -0.1275
 6678TIP3    H141593   3.175   1.318   2.288  1.2416  0.2969 -0.0209
 6678TIP3    H241594   3.089   1.274   2.405  0.2589 -0.3646 -0.9770
 6679TIP3   OH241595   3.940   6.459   1.639  0.0923  0.3530  0.2961
 6679TIP3    H141596   3.965   6.420   1.722 -1.5154 -2.1501 -0.2696
 6679TIP3    H241597   3.907   6.546   1.661  0.2146 -0.0515  2.1826
 6680TIP3   OH241598   1.000   6.385   6.914  0.1545 -0.5153 -0.2760
 6680TIP3    H141599   0.952   6.460   6.879  0.2748  0.2386  1.0861
 6680TIP3    H241600   0.933   6.319   6.930 -0.0950 -0.3380 -0.5848
 6681TIP3   OH241601   1.957   2.543   6.764  0.2620 -0.1838 -0.2059
 6681TIP3    H141602   1.886   2.597   6.730  1.3053  1.8177  0.6301
 6681TIP3    H241603   2.035   2.598   6.758  1.5989 -1.9938 -0.2776
 6682TIP3   OH241604   1.604   0.117   1.758 -0.3721 -0.0714  0.4311
 6682TIP3    H141605   1.522   0.165   1.767  0.7896  2.0945  0.1803
 6682TIP3    H241606   1.584   0.029   1.791 -2.4440  0.7336  1.5385
 6683TIP3   OH241607   3.350   3.270   8.456  0.2442 -0.0460 -0.1458
 6683TIP3    H141608   3.363   3.333   8.527  3.1925  0.9864 -1.4442
 6683TIP3    H241609   3.272   3.302   8.410  0.5828  1.5693  0.3330
 6684TIP3   OH241610   0.597   4.648   6.800 -0.5181  0.3150 -0.1956
 6684TIP3    H141611   0.530   4.585   6.827 -0.3814 -0.1388 -0.8933
 6684TIP3    H241612   0.672   4.628   6.856 -0.5618  0.0225 -0.2403
 6685TIP3   OH241613   6.500   1.223   2.121  0.1315 -0.5147  0.6997
 6685TIP3    H141614   6.407   1.230   2.101  0.4298 -0.1245 -0.6561
 6685TIP3    H241615   6.528   1.144   2.077  0.6877  0.0258  0.0651
 6686TIP3   OH241616   6.030   4.967   7.503 -0.3572  0.4879  0.4963
 6686TIP3    H141617   5.955   5.026   7.488  0.9493  1.6792 -1.9511
 6686TIP3    H241618   6.106   5.017   7.471  0.8346 -2.4929 -1.7489
 6687TIP3   OH241619   3.195   1.973   1.762  0.7426 -0.1239  0.3349
 6687TIP3    H141620   3.228   1.934   1.843  0.0766 -0.9880  0.2021
 6687TIP3    H241621   3.227   1.916   1.693 -1.6229 -1.4695  0.2543
 6688TIP3   OH241622   6.118   4.638   0.134  0.8992  0.2049 -0.0457
 6688TIP3    H141623   6.062   4.625   0.211  0.3821 -0.9232 -0.5747
 6688TIP3    H241624   6.130   4.733   0.129  0.2703  0.3613  0.9473
 6689TIP3   OH241625   0.638   3.754   8.328  0.1655 -0.1299 -0.1520
 6689TIP3    H141626   0.550   3.731   8.357  0.2948  0.5795  0.8255
 6689TIP3    H241627   0.639   3.849   8.324  1.3327 -0.0526  1.3305
 6690TIP3   OH241628   4.511   5.957   7.573  0.5366  0.4678  0.1906
 6690TIP3    H141629   4.531   6.038   7.526  3.9351  0.2622  1.0173
 6690TIP3    H241630   4.451   5.909   7.514 -2.0083  3.6688 -0.0827
 6691TIP3   OH241631   1.255   5.961   8.208 -0.0353  0.6746 -0.1538
 6691TIP3    H141632   1.244   5.992   8.298  1.5003 -1.7813  0.9732
 6691TIP3    H241633   1.317   6.022   8.168  0.8208  0.6594  1.1082
 6692TIP3   OH241634   1.730   6.610   2.311  0.1802  0.6804  0.6289
 6692TIP3    H141635   1.683   6.527   2.324 -1.3388  1.6804  1.7677
 6692TIP3    H241636   1.726   6.654   2.396  2.8860  1.0098  0.6694
 6693TIP3   OH241637   4.598   0.190   0.524  0.0410 -0.2429  0.3764
 6693TIP3    H141638   4.540   0.138   0.469  0.0624  0.2454 -0.1095
 6693TIP3    H241639   4.549   0.270   0.542  0.1165 -0.3097  0.9004
 6694TIP3   OH241640   2.250   1.521   7.454 -0.2775 -0.4287  0.2966
 6694TIP3    H141641   2.318   1.583   7.427 -1.3343  1.6694  2.0759
 6694TIP3    H241642   2.288   1.435   7.438  2.5875  0.6461  0.6919
 6695TIP3   OH241643   0.953   2.330   0.181  0.0226  0.1130 -0.4529
 6695TIP3    H141644   1.042   2.345   0.148 -0.3528  1.8204 -0.7555
 6695TIP3    H241645   0.908   2.284   0.110 -0.1259  1.7331 -1.4372
 6696TIP3   OH241646   0.932   1.973   1.058 -0.0319  0.5100 -0.2058
 6696TIP3    H141647   0.875   2.027   1.002 -0.8953 -1.1799 -1.0223
 6696TIP3    H241648   0.891   1.887   1.057  1.5118 -0.2640  0.7924
 6697TIP3   OH241649   0.050   5.860   6.817 -0.6863 -0.1683 -0.0730
 6697TIP3    H141650  -0.036   5.902   6.817 -1.0728 -0.9231  0.8752
 6697TIP3    H241651   0.034   5.772   6.849  0.2929 -0.6719 -0.8852
 6698TIP3   OH241652   4.781   5.723   7.884 -0.4400  0.7609 -0.2097
 6698TIP3    H141653   4.820   5.766   7.960 -0.4620  0.0255  0.2290
 6698TIP3    H241654   4.704   5.678   7.919  0.5350 -1.0767 -0.2899
 6699TIP3   OH241655   4.467   3.503   2.378  0.3444  0.0047 -0.0900
 6699TIP3    H141656   4.484   3.416   2.344 -0.1901  0.2050 -0.8800
 6699TIP3    H241657   4.431   3.488   2.466  0.9705 -0.5360  0.0799
 6700TIP3   OH241658   5.793   4.884   7.295 -0.1605  0.1364 -0.1014
 6700TIP3    H141659   5.859   4.860   7.360  0.8783  2.4776 -0.2074
 6700TIP3    H241660   5.773   4.801   7.250  0.2952 -1.2246  2.0525
 6701TIP3   OH241661   4.105   2.912   6.620  0.3523  0.0564 -0.3806
 6701TIP3    H141662   4.177   2.918   6.683  2.9938  0.9478 -3.2228
 6701TIP3    H241663   4.125   2.979   6.554 -1.8972 -1.1635 -2.4596
 6702TIP3   OH241664   4.918   5.531   0.728  0.1790  0.5971  0.1102
 6702TIP3    H141665   4.828   5.511   0.704 -0.0878  0.6975  0.9806
 6702TIP3    H241666   4.911   5.604   0.789  0.6848 -0.5634  1.6477
 6703TIP3   OH241667   6.588   6.837   0.972  0.3281 -0.0304  0.5040
 6703TIP3    H141668   6.650   6.904   1.004  0.1624  0.4242 -0.1034
 6703TIP3    H241669   6.522   6.831   1.041 -0.4461  1.4948 -0.0434
 6704TIP3   OH241670   2.142   5.286   2.577 -0.2398 -0.4544  0.0351
 6704TIP3    H141671   2.152   5.360   2.637  1.0655 -1.6431  1.3632
 6704TIP3    H241672   2.055   5.251   2.596 -0.8486  0.6602 -0.5682
 6705TIP3   OH241673   6.513   3.520   1.973  0.1231  0.6786 -0.0615
 6705TIP3    H141674   6.541   3.430   1.957 -1.5881  0.3625 -1.5773
 6705TIP3    H241675   6.514   3.529   2.069  2.2730 -0.2545  0.0617
 6706TIP3   OH241676   6.282   1.015   6.914  0.2568 -1.0010 -0.4153
 6706TIP3    H141677   6.203   1.041   6.868 -1.4121 -1.7654  1.8458
 6706TIP3    H241678   6.353   1.032   6.852 -1.7197 -1.0614 -2.8187
 6707TIP3   OH241679   6.823   3.061   0.090  0.5208 -0.7571 -0.3824
 6707TIP3    H141680   6.792   3.004   0.020 -1.1424 -0.2596 -0.1092
 6707TIP3    H241681   6.743   3.086   0.137  1.4811 -0.2189  1.0302
 6708TIP3   OH241682   0.086   6.368   0.434  0.5222  0.1655 -0.4662
 6708TIP3    H141683   0.072   6.330   0.520  0.6590 -1.6031 -1.1843
 6708TIP3    H241684   0.154   6.434   0.447 -0.0200  0.4949  0.8977
 6709TIP3   OH241685   6.450   6.744   0.481  0.2224 -0.2147  0.4584
 6709TIP3    H141686   6.410   6.795   0.411  0.4183 -0.1239  0.4127
 6709TIP3    H241687   6.462   6.657   0.442  0.0975 -0.2351  0.4635
 6710TIP3   OH241688   5.162   6.870   1.101 -0.2871 -0.4317  0.5541
 6710TIP3    H141689   5.235   6.932   1.106 -0.6139 -0.0755  1.1796
 6710TIP3    H241690   5.190   6.796   1.155 -0.3651 -0.3158  0.7560
 6711TIP3   OH241691   6.575   3.556   0.120  0.7822 -0.0336 -0.1403
 6711TIP3    H141692   6.615   3.517   0.198 -0.1017 -0.5851  0.0598
 6711TIP3    H241693   6.613   3.644   0.115 -0.8997  0.9839  2.3581
 6712TIP3   OH241694   4.015   6.499   7.314  0.2449  0.0066  0.2427
 6712TIP3    H141695   4.063   6.552   7.251  1.2746 -0.4189  0.6305
 6712TIP3    H241696   4.078   6.431   7.340 -0.2381  0.0159  1.5069
 6713TIP3   OH241697   6.493   4.050   7.157 -0.0690 -0.1040 -0.4172
 6713TIP3    H141698   6.548   3.977   7.128  2.4339  1.9447 -1.2073
 6713TIP3    H241699   6.542   4.129   7.132 -2.1973  1.8831  1.1942
 6714TIP3   OH241700   5.392   3.347   7.058  0.2443 -0.0949  0.1244
 6714TIP3    H141701   5.467   3.405   7.039  0.0239  0.1217 -0.0942
 6714TIP3    H241702   5.321   3.407   7.078 -0.6520 -0.1617 -2.4148
 6715TIP3   OH241703   4.172   4.384   1.814  0.0276  0.6280  0.0780
 6715TIP3    H141704   4.123   4.334   1.880  0.2188  0.3966  0.0478
 6715TIP3    H241705   4.165   4.331   1.734  0.3763  0.5633  0.0905
 6716TIP3   OH241706   6.125   4.917   8.647  0.1132  0.1174 -0.3192
 6716TIP3    H141707   6.075   4.995   8.624  0.2652  0.0573 -0.8753
 6716TIP3    H241708   6.178   4.943   8.722  0.3439  0.6234 -0.6546
 6717TIP3   OH241709   3.737   6.695   0.367  0.3455 -0.1957 -0.4370
 6717TIP3    H141710   3.707   6.721   0.280 -1.3428 -0.3608  0.0590
 6717TIP3    H241711   3.832   6.691   0.360  0.1883 -1.5771 -2.6746
 6718TIP3   OH241712   6.566   6.510   1.808  0.6265  0.5446  0.1789
 6718TIP3    H141713   6.529   6.574   1.747 -1.2198  0.2819  0.9740
 6718TIP3    H241714   6.518   6.523   1.889  0.9286 -1.1590  0.6731
 6719TIP3   OH241715   3.752   5.557   1.576 -0.3908 -0.1589  0.0947
 6719TIP3    H141716   3.716   5.536   1.663  1.2185 -2.8134  0.2103
 6719TIP3    H241717   3.780   5.648   1.584  0.7118 -0.6244  2.7815
 6720TIP3   OH241718   1.016   2.301   0.549  0.8019 -0.6191 -0.0712
 6720TIP3    H141719   0.954   2.237   0.513 -0.4272  1.1655 -1.3178
 6720TIP3    H241720   1.097   2.287   0.500  0.0569 -0.2047 -1.4785
 6721TIP3   OH241721   2.132   2.526   0.651  0.4333  0.4125 -0.0592
 6721TIP3    H141722   2.162   2.558   0.736  2.1157 -0.3687 -0.3227
 6721TIP3    H241723   2.114   2.433   0.665 -0.1256  0.4764 -0.3473
 6722TIP3   OH241724   4.598   2.754   7.952 -0.0188  0.0672  0.4685
 6722TIP3    H141725   4.603   2.734   8.046  0.4558  2.9022  1.1615
 6722TIP3    H241726   4.683   2.729   7.918  0.6500  1.0709  1.3261
 6723TIP3   OH241727   5.865   5.896   1.122 -1.0489 -0.1052  0.1457
 6723TIP3    H141728   5.770   5.887   1.128 -1.2809  0.2992 -2.1343
 6723TIP3    H241729   5.894   5.818   1.074 -0.1491 -0.4137  1.1395
 6724TIP3   OH241730   1.175   2.363   2.767  0.2510 -0.5457  0.0228
 6724TIP3    H141731   1.263   2.362   2.728  0.0167  1.4507 -0.6789
 6724TIP3    H241732   1.187   2.330   2.856  2.1029  1.4645  0.6132
 6725TIP3   OH241733   5.720   2.840   0.431  0.2238 -0.3644  0.2768
 6725TIP3    H141734   5.803   2.793   0.445  0.5314  0.3750  1.0141
 6725TIP3    H241735   5.727   2.873   0.342  1.2081  0.5860  0.6747
 6726TIP3   OH241736   3.383   2.614   1.288  0.2725  0.0319 -0.2393
 6726TIP3    H141737   3.476   2.617   1.307  0.4134  1.3192 -0.9828
 6726TIP3    H241738   3.363   2.701   1.252 -1.1463 -0.3177 -0.3644
 6727TIP3   OH241739   5.478   1.834   0.060 -0.7800  0.4808  0.7366
 6727TIP3    H141740   5.446   1.745   0.048 -0.3421  0.4976 -0.8352
 6727TIP3    H241741   5.400   1.889   0.052 -0.5792  0.4826 -2.4720
 6728TIP3   OH241742   3.741   4.123   8.384 -0.3128  0.6613  0.5560
 6728TIP3    H141743   3.806   4.145   8.317 -0.1737  0.3213  0.5761
 6728TIP3    H241744   3.785   4.141   8.467  0.0615 -0.3444  0.5956
 6729TIP3   OH241745   2.427   1.111   7.267  0.0747  0.1377  0.0175
 6729TIP3    H141746   2.495   1.139   7.206 -0.7399  1.4244 -0.3435
 6729TIP3    H241747   2.369   1.056   7.215  0.7552 -0.8603  0.2948
 6730TIP3   OH241748   3.322   6.783   8.655  0.4623  0.0674  0.4897
 6730TIP3    H141749   3.347   6.702   8.701  0.6088 -1.0071 -1.3790
 6730TIP3    H241750   3.398   6.804   8.601 -0.3091  0.3222 -0.5292
 6731TIP3   OH241751   5.008   3.310   2.202  0.4467  0.4864 -0.5223
 6731TIP3    H141752   4.957   3.256   2.262 -0.8191  2.6900  0.5408
 6731TIP3    H241753   5.093   3.268   2.196 -0.8179 -2.2289 -0.7442
 6732TIP3   OH241754   2.501   4.823   7.279  0.5500  0.5439 -0.2731
 6732TIP3    H141755   2.534   4.836   7.190 -0.5170  0.8689 -0.6239
 6732TIP3    H241756   2.534   4.898   7.328 -1.2524  1.9479 -1.0837
 6733TIP3   OH241757   1.633   0.604   7.109 -0.4664  0.5838 -0.0409
 6733TIP3    H141758   1.632   0.516   7.072 -2.1960 -0.7340  2.8003
 6733TIP3    H241759   1.552   0.644   7.076 -0.6234  0.3978  0.1102
 6734TIP3   OH241760   3.741   4.097   1.414 -0.0977 -0.7093  0.4244
 6734TIP3    H141761   3.727   4.006   1.440  1.6401 -1.1424 -0.0147
 6734TIP3    H241762   3.836   4.108   1.418 -0.1173  0.4913 -1.4704
 6735TIP3   OH241763   2.098   1.746   1.576 -0.0843  0.5660  0.6431
 6735TIP3    H141764   2.139   1.678   1.630 -2.3526 -1.7616 -0.3563
 6735TIP3    H241765   2.008   1.751   1.609 -0.5599  1.5428 -0.7431
 6736TIP3   OH241766   2.610   1.364   1.258  0.8261 -0.5335 -0.2023
 6736TIP3    H141767   2.667   1.307   1.310  1.2283 -0.1525 -0.2179
 6736TIP3    H241768   2.535   1.380   1.315  1.1819 -0.2624  0.1938
 6737TIP3   OH241769   2.672   1.378   2.376  0.7408 -0.4346 -0.0436
 6737TIP3    H141770   2.599   1.431   2.346  1.1523  1.4800  2.0262
 6737TIP3    H241771   2.633   1.317   2.440  0.8369  0.2149  0.6502
 6738TIP3   OH241772   1.425   4.709   0.186  0.2554 -0.0924  0.0220
 6738TIP3    H141773   1.424   4.634   0.127 -0.8808 -0.3998  0.4104
 6738TIP3    H241774   1.440   4.672   0.273 -3.3081 -0.3020  0.6863
 6739TIP3   OH241775   4.014   4.381   7.336  0.5384 -0.1229 -0.2408
 6739TIP3    H141776   4.032   4.325   7.412  0.6115  0.6742  0.3373
 6739TIP3    H241777   4.075   4.350   7.269  2.3711  0.8729  0.8826
 6740TIP3   OH241778   3.422   4.893   0.977 -0.4654  0.4553 -0.2301
 6740TIP3    H141779   3.479   4.925   0.906  0.1023  1.3694  0.6085
 6740TIP3    H241780   3.402   4.972   1.028 -0.0202 -0.3390  1.2086
 6741TIP3   OH241781   5.818   4.656   1.630  0.0495 -0.1362  0.0714
 6741TIP3    H141782   5.865   4.602   1.693 -0.8322 -0.8194  0.1656
 6741TIP3    H241783   5.767   4.717   1.684  0.6126  0.4403 -0.0269
 6742TIP3   OH241784   2.262   5.044   0.096  0.1527 -0.3315 -0.0475
 6742TIP3    H141785   2.326   5.042   0.025 -0.4188 -1.4709 -0.5596
 6742TIP3    H241786   2.188   5.094   0.061  0.0051 -0.6158 -0.1497
 6743TIP3   OH241787   3.795   3.812   0.472 -0.5803 -0.4479 -0.3178
 6743TIP3    H141788   3.711   3.852   0.452 -0.4901 -1.0188 -2.0048
 6743TIP3    H241789   3.797   3.807   0.567 -1.6609  1.2115 -0.1735
 6744TIP3   OH241790   0.436   5.439   2.870 -0.0387 -0.6420 -0.6089
 6744TIP3    H141791   0.342   5.424   2.859 -0.2131 -0.1876  0.2291
 6744TIP3    H241792   0.453   5.422   2.962  0.7278 -0.8146 -0.7721
 6745TIP3   OH241793   5.395   1.485   7.900  0.1378  0.5753  0.1315
 6745TIP3    H141794   5.390   1.392   7.878 -0.8142  0.1902  1.7619
 6745TIP3    H241795   5.467   1.491   7.963  0.0143  0.8907  0.2447
 6746TIP3   OH241796   0.594   3.471   8.215 -0.5640 -0.0244 -0.3101
 6746TIP3    H141797   0.599   3.408   8.143 -0.1693  0.9653 -1.1732
 6746TIP3    H241798   0.600   3.556   8.172  0.7186  0.5692  0.9864
 6747TIP3   OH241799   6.502   0.766   1.891  0.1393  0.3763  0.1121
 6747TIP3    H141800   6.595   0.765   1.868  0.4779 -1.0701  1.3499
 6747TIP3    H241801   6.467   0.685   1.854  0.2112 -0.8738  2.5777
 6748TIP3   OH241802   1.171   2.062   1.710  0.0018  0.6354  0.1796
 6748TIP3    H141803   1.172   1.979   1.758 -0.0897  0.4945 -0.0603
 6748TIP3    H241804   1.083   2.068   1.672  0.3455  0.3176 -0.7016
 6749TIP3   OH241805   1.222   1.555   2.722 -0.4070  0.1855  0.4267
 6749TIP3    H141806   1.183   1.589   2.641  1.5258  2.4088  0.3312
 6749TIP3    H241807   1.147   1.528   2.775 -1.8749  1.1312 -1.0531
 6750TIP3   OH241808   4.408   1.989   0.269  0.0851  0.1936  0.0679
 6750TIP3    H141809   4.394   1.986   0.175 -1.0374  1.2849  0.1755
 6750TIP3    H241810   4.348   1.923   0.305  1.1701 -0.8785 -0.0151
 6751TIP3   OH241811   4.824   6.043   1.039  0.1596 -0.3862 -0.1198
 6751TIP3    H141812   4.729   6.036   1.028 -0.2914  2.4790  0.9598
 6751TIP3    H241813   4.840   6.015   1.129  0.2291 -0.2812 -0.0985
 6752TIP3   OH241814   6.779   2.129   6.969  0.8794  0.5275 -0.0169
 6752TIP3    H141815   6.798   2.193   7.037  0.5287  0.7674 -0.1436
 6752TIP3    H241816   6.685   2.111   6.979  0.8803  0.3781 -0.2779
 6753TIP3   OH241817   3.329   6.711   2.528 -0.7357 -0.3864 -0.4485
 6753TIP3    H141818   3.369   6.625   2.530  0.4525  0.1650  0.8215
 6753TIP3    H241819   3.375   6.757   2.457 -2.7547 -1.3785 -2.5216
 6754TIP3   OH241820   3.158   2.201   6.745  0.3958 -0.0464 -0.3557
 6754TIP3    H141821   3.152   2.165   6.834 -0.4129 -0.5575 -0.6015
 6754TIP3    H241822   3.218   2.275   6.753 -0.4427  0.5538  0.8428
 6755TIP3   OH241823   4.846   0.468   2.376  0.1641  0.4155 -0.0987
 6755TIP3    H141824   4.933   0.434   2.355  1.1020  2.0023  1.0028
 6755TIP3    H241825   4.847   0.559   2.346 -0.7030  0.7829  0.9135
 6756TIP3   OH241826   4.839   5.658   0.453 -0.9045 -0.1344  0.4494
 6756TIP3    H141827   4.785   5.580   0.459 -0.0406 -0.8883 -1.1675
 6756TIP3    H241828   4.819   5.695   0.367  0.5127  0.0495  0.1853
 6757TIP3   OH241829   3.676   0.778   7.776 -0.1047  0.9288  0.0523
 6757TIP3    H141830   3.594   0.733   7.755  1.8445 -2.7205 -0.5660
 6757TIP3    H241831   3.693   0.834   7.701 -1.9742  1.7232  0.1859
 6758TIP3   OH241832   1.986   4.679   0.277  0.0565  0.2122  0.5402
 6758TIP3    H141833   2.040   4.605   0.250 -3.0044 -1.7034 -0.9605
 6758TIP3    H241834   1.977   4.732   0.197 -1.6616 -0.5137  0.2035
 6759TIP3   OH241835   5.253   4.939   2.819  0.1782  0.5580  0.4602
 6759TIP3    H141836   5.338   4.981   2.824 -0.1266  1.2856 -0.3078
 6759TIP3    H241837   5.265   4.855   2.863  0.9675  1.1551  1.4154
 6760TIP3   OH241838   0.404   3.892   0.774 -0.2188 -0.0400  0.2953
 6760TIP3    H141839   0.442   3.902   0.687 -2.1080  0.1182 -0.5446
 6760TIP3    H241840   0.475   3.853   0.826  1.2630  0.7568 -1.0347
 6761TIP3   OH241841   4.312   2.643   0.130  0.5587 -0.2815 -0.5594
 6761TIP3    H141842   4.241   2.691   0.174  0.2875 -1.1783  0.0101
 6761TIP3    H241843   4.280   2.629   0.041  0.4406  0.1846 -0.5904
 6762TIP3   OH241844   5.727   2.990   7.828  0.0356  0.2970 -0.2069
 6762TIP3    H141845   5.684   2.951   7.904 -1.0511  1.9773  0.0987
 6762TIP3    H241846   5.681   2.953   7.753  0.5837 -0.7658 -0.0309
 6763TIP3   OH241847   3.211   4.863   7.247  0.0581  0.5292 -0.6294
 6763TIP3    H141848   3.239   4.935   7.190  1.2179  1.4818  1.0486
 6763TIP3    H241849   3.245   4.784   7.205  1.9825  1.3258 -0.6446
 6764TIP3   OH241850   3.677   6.847   2.044 -0.1578  0.2355  0.4938
 6764TIP3    H141851   3.727   6.829   2.124  0.8516 -0.9604 -0.3656
 6764TIP3    H241852   3.589   6.865   2.075 -0.1275 -1.5990  1.8373
 6765TIP3   OH241853   3.952   6.325   2.094  0.1815  0.0565 -0.1619
 6765TIP3    H141854   4.003   6.392   2.137 -1.5214  0.3898  1.4575
 6765TIP3    H241855   3.878   6.372   2.055 -0.3827 -0.7197 -0.0616
 6766TIP3   OH241856   3.320   4.835   8.147  0.3008  0.1426  0.0975
 6766TIP3    H141857   3.412   4.853   8.169  0.8818 -0.5132 -1.5969
 6766TIP3    H241858   3.312   4.861   8.056 -1.7751  2.0661  0.7497
 6767TIP3   OH241859   4.487   1.379   7.299  0.1687 -0.2679  0.0303
 6767TIP3    H141860   4.575   1.390   7.335  0.2365 -1.5323  0.3013
 6767TIP3    H241861   4.500   1.387   7.204  0.9444 -2.2685 -0.0982
 6768TIP3   OH241862   6.823   2.551   1.678 -0.1136 -0.1090  0.1703
 6768TIP3    H141863   6.751   2.493   1.703 -0.9537  0.3155 -1.1604
 6768TIP3    H241864   6.860   2.511   1.600  1.1711 -0.3608  0.8784
 6769TIP3   OH241865   3.666   0.110   8.589  0.0216 -0.5644 -0.2601
 6769TIP3    H141866   3.582   0.109   8.544  0.2318  0.7259 -0.7392
 6769TIP3    H241867   3.703   0.196   8.567  0.9399 -0.6472  0.8888
 6770TIP3   OH241868   2.355   3.252   8.061  0.1903  0.5386  0.3676
 6770TIP3    H141869   2.298   3.281   7.990 -2.1980 -0.9479  1.5146
 6770TIP3    H241870   2.390   3.168   8.032 -1.2942 -0.3865  1.0725
 6771TIP3   OH241871   0.656   4.823   7.782  0.1330  0.1544 -0.5118
 6771TIP3    H141872   0.598   4.888   7.822 -0.0181 -1.1848  1.6384
 6771TIP3    H241873   0.731   4.874   7.751 -0.4043  1.4784  0.2740
 6772TIP3   OH241874   2.219   4.640   2.461  0.3511  0.7627 -0.2545
 6772TIP3    H141875   2.188   4.578   2.527  1.6744  0.4551  0.1120
 6772TIP3    H241876   2.251   4.585   2.390  3.1331  0.8849  0.7882
 6773TIP3   OH241877   2.332   6.738   1.861 -0.2986  0.0069  0.2516
 6773TIP3    H141878   2.296   6.653   1.888 -0.3969 -0.2537 -0.6589
 6773TIP3    H241879   2.261   6.778   1.811 -0.5802  1.0266  1.4210
 6774TIP3   OH241880   6.579   1.033   1.940  0.0686 -0.1552 -0.0708
 6774TIP3    H141881   6.674   1.017   1.936  0.1003 -0.8214  2.1059
 6774TIP3    H241882   6.540   0.946   1.934 -0.3690  0.0456 -0.1767
 6775TIP3   OH241883   2.977   3.622   1.767 -0.2083 -0.0993  0.2154
 6775TIP3    H141884   3.022   3.545   1.802 -0.0104  0.3669  1.0078
 6775TIP3    H241885   2.897   3.628   1.819 -1.2815 -1.0001 -1.2737
 6776TIP3   OH241886   5.179   3.650   0.153 -0.1204 -0.2785  0.0582
 6776TIP3    H141887   5.092   3.610   0.160 -0.3223  0.4921  3.1623
 6776TIP3    H241888   5.237   3.588   0.196  0.5602  0.0976 -0.3097
 6777TIP3   OH241889   2.122   0.334   7.143 -0.0495 -0.1787  0.0930
 6777TIP3    H141890   2.146   0.323   7.051  1.4557 -0.4511  0.4880
 6777TIP3    H241891   2.027   0.333   7.143 -0.1979  2.3531 -1.7791
 6778TIP3   OH241892   0.083   3.841   7.914 -0.0145 -0.4042  0.4344
 6778TIP3    H141893   0.145   3.858   7.985 -0.9213  0.2941  1.0891
 6778TIP3    H241894   0.033   3.922   7.905  0.8719 -0.0540 -1.8625
 6779TIP3   OH241895   2.028   4.857   2.443  0.1787 -0.0469  0.4857
 6779TIP3    H141896   1.954   4.836   2.500  0.2993 -1.4019  0.1636
 6779TIP3    H241897   2.089   4.785   2.456  2.8823  2.4135  3.0498
 6780TIP3   OH241898   3.053   3.857   8.248 -0.1417  0.2744  0.1290
 6780TIP3    H141899   3.024   3.793   8.183 -0.4388  0.2920  0.2471
 6780TIP3    H241900   3.146   3.869   8.229  0.8350 -2.7519  2.1816
 6781TIP3   OH241901   5.824   2.939   8.262  0.3202  0.3230  0.0064
 6781TIP3    H141902   5.892   2.955   8.196 -1.5627  0.2329 -2.0806
 6781TIP3    H241903   5.797   3.027   8.289 -0.5953  0.4616 -1.2542
 6782TIP3   OH241904   3.111   2.150   7.012  0.2436 -0.0809  0.3496
 6782TIP3    H141905   3.178   2.202   7.058 -0.3326 -0.0201  1.1329
 6782TIP3    H241906   3.114   2.064   7.054  1.7027 -0.9637 -1.4263
 6783TIP3   OH241907   2.593   0.685   1.637  0.0196 -0.4036  0.1628
 6783TIP3    H141908   2.535   0.609   1.635  0.2534 -0.5828  0.1257
 6783TIP3    H241909   2.582   0.720   1.725  2.6830 -2.6752  1.5745
 6784TIP3   OH241910   3.570   5.542   7.957  0.3590 -0.6176  0.1462
 6784TIP3    H141911   3.480   5.542   7.992  0.2262  1.5169 -0.0074
 6784TIP3    H241912   3.625   5.547   8.035  0.1413  1.9125  0.2318
 6785TIP3   OH241913   2.620   0.681   7.961  0.0684  0.0286  0.5522
 6785TIP3    H141914   2.595   0.674   7.868  0.9919 -2.4338  0.4355
 6785TIP3    H241915   2.562   0.620   8.006  0.1958  0.5894  1.4935
 6786TIP3   OH241916   3.875   4.298   8.566  0.1010 -0.2446 -0.1944
 6786TIP3    H141917   3.856   4.240   8.639 -1.7241 -2.6013 -2.3361
 6786TIP3    H241918   3.826   4.378   8.584 -0.4047 -0.8239  1.0715
 6787TIP3   OH241919   2.907   4.906   1.631  0.2767 -0.3663 -0.0442
 6787TIP3    H141920   2.937   4.815   1.631 -0.1113 -0.5441 -1.9900
 6787TIP3    H241921   2.982   4.956   1.663  2.3598 -0.9392 -3.4716
 6788TIP3   OH241922   2.407   1.732   3.242  0.3048  0.2822  0.3643
 6788TIP3    H141923   2.351   1.696   3.173 -0.4809  1.0936  0.5582
 6788TIP3    H241924   2.460   1.657   3.271 -1.0535 -0.6562  0.5432
 6789TIP3   OH241925   1.283   3.689   1.881  0.0529  0.2784 -0.1135
 6789TIP3    H141926   1.219   3.681   1.952  1.5861 -0.9498  1.2192
 6789TIP3    H241927   1.241   3.746   1.816 -2.0876  0.0628  0.9991
 6790TIP3   OH241928   4.811   0.532   0.625 -0.0360 -0.0642 -0.6303
 6790TIP3    H141929   4.748   0.487   0.568 -0.6189 -0.7604  0.5329
 6790TIP3    H241930   4.882   0.557   0.566 -1.1664  0.3143 -1.8823
 6791TIP3   OH241931   1.725   6.822   2.565  0.0300  0.5011  0.8492
 6791TIP3    H141932   1.787   6.868   2.622 -1.8306  2.3371  1.4847
 6791TIP3    H241933   1.698   6.887   2.501 -0.6260 -0.5187  0.0535
 6792TIP3   OH241934   0.687   2.677   8.156  0.1440  0.2530 -0.6032
 6792TIP3    H141935   0.615   2.714   8.207 -0.5134  1.9689 -2.6357
 6792TIP3    H241936   0.649   2.599   8.115 -0.1869  0.4533 -0.6838
 6793TIP3   OH241937   5.466   3.086   8.103  0.5128  0.3124  0.2096
 6793TIP3    H141938   5.417   3.106   8.183  0.3073  1.1545 -0.1136
 6793TIP3    H241939   5.399   3.062   8.039  0.7123 -0.8336  0.4113
 6794TIP3   OH241940   3.127   0.122   1.713 -0.0289  0.2970 -0.3847
 6794TIP3    H141941   3.102   0.161   1.630 -0.7228  0.0308 -0.3101
 6794TIP3    H241942   3.146   0.196   1.770 -0.4503  0.5077 -0.5141
 6795TIP3   OH241943   3.216   1.259   2.111 -0.2490 -0.2137 -0.2475
 6795TIP3    H141944   3.173   1.211   2.040  0.5479  0.2954 -1.0879
 6795TIP3    H241945   3.285   1.309   2.068 -0.3061  0.7764  0.7764
 6796TIP3   OH241946   5.186   6.715   0.579 -0.0025  0.7580  0.3114
 6796TIP3    H141947   5.092   6.721   0.566 -0.0811  1.8769  1.2308
 6796TIP3    H241948   5.202   6.625   0.608 -0.6103  0.1781 -1.0732
 6797TIP3   OH241949   5.738   3.676   0.123 -0.1745  0.3657 -0.1899
 6797TIP3    H141950   5.739   3.634   0.209  2.0959  2.5990  1.0284
 6797TIP3    H241951   5.646   3.686   0.101 -0.9152  1.4633  2.9489
 6798TIP3   OH241952   0.691   2.185   7.379  1.1530 -0.3023  0.7002
 6798TIP3    H141953   0.718   2.250   7.314  2.0612  1.8845  3.0968
 6798TIP3    H241954   0.624   2.133   7.334  1.9289  0.8861 -2.0279
 6799TIP3   OH241955   1.795   1.968   7.352  0.4620 -0.7419 -0.1216
 6799TIP3    H141956   1.844   1.906   7.297  0.3707  1.3261 -2.7782
 6799TIP3    H241957   1.819   2.054   7.316 -0.4792  0.6980  2.4817
 6800TIP3   OH241958   1.204   3.501   0.681 -0.4365  0.0476 -0.6011
 6800TIP3    H141959   1.199   3.583   0.633 -0.6689  0.1189 -0.4554
 6800TIP3    H241960   1.113   3.476   0.696 -0.3736  0.2219  0.1236
 6801TIP3   OH241961   3.992   4.311   1.216  0.2205  0.3045 -0.2260
 6801TIP3    H141962   3.898   4.313   1.197  0.0359 -2.0854  0.0628
 6801TIP3    H241963   3.998   4.298   1.311  0.6999 -2.2564 -0.5356
 6802TIP3   OH241964   0.954   0.893   7.887 -0.6936  0.5058 -0.3087
 6802TIP3    H141965   0.971   0.911   7.979 -0.6258  0.9370 -0.4053
 6802TIP3    H241966   0.974   0.975   7.842 -2.7602  0.9645 -0.4766
 6803TIP3   OH241967   3.111   4.870   1.938  0.1514  0.0620 -0.6720
 6803TIP3    H141968   3.118   4.933   1.865  0.8890  1.1831  0.3320
 6803TIP3    H241969   3.187   4.812   1.926 -0.8037 -1.0092 -1.8887
 6804TIP3   OH241970   5.826   0.379   7.995  0.0270 -0.2415 -0.6913
 6804TIP3    H141971   5.908   0.359   7.950  0.1228 -0.2219 -0.5292
 6804TIP3    H241972   5.789   0.293   8.017 -0.2345 -0.2566 -1.1850
 6805TIP3   OH241973   0.895   2.929   8.586 -0.2089 -0.0633 -0.1894
 6805TIP3    H141974   0.863   2.993   8.523  0.2718 -0.4912 -0.8805
 6805TIP3    H241975   0.844   2.946   8.665  0.8244  2.0750  0.0985
 6806TIP3   OH241976   4.803   1.366   0.272  0.2494  0.1539 -0.3505
 6806TIP3    H141977   4.805   1.273   0.247 -0.0864  0.4295 -1.4860
 6806TIP3    H241978   4.761   1.409   0.197  0.4938  1.2350  0.1264
 6807TIP3   OH241979   5.214   1.349   0.956 -0.2081 -0.0458  0.4760
 6807TIP3    H141980   5.239   1.374   1.045  1.9490 -1.4470  0.3242
 6807TIP3    H241981   5.198   1.433   0.912  0.7742  0.7875  1.6277
 6808TIP3   OH241982   0.724   3.124   0.043  0.3204 -0.4209 -0.3795
 6808TIP3    H141983   0.701   3.203  -0.006  0.1127 -0.1288  0.1837
 6808TIP3    H241984   0.732   3.153   0.134 -0.0293 -1.0970 -0.1223
 6809TIP3   OH241985   4.202   1.877   1.438 -0.1508  0.1561  0.2908
 6809TIP3    H141986   4.243   1.962   1.453  0.6567 -0.5453  2.5074
 6809TIP3    H241987   4.110   1.896   1.420  0.1730  1.5112 -0.0100
 6810TIP3   OH241988   1.334   0.340   8.000  0.6576  0.3965  0.4793
 6810TIP3    H141989   1.393   0.264   8.000  0.3837  0.1710  1.8154
 6810TIP3    H241990   1.392   0.415   8.012  0.9314  0.4254 -0.8631
 6811TIP3   OH241991   5.093   0.818   1.000 -0.3047  0.0337 -0.8257
 6811TIP3    H141992   5.079   0.765   0.922 -3.9502 -0.6741  0.1655
 6811TIP3    H241993   5.089   0.908   0.968  1.5496 -0.1920 -1.8525
 6812TIP3   OH241994   5.175   3.899   2.599  0.2921  0.3156 -0.4471
 6812TIP3    H141995   5.265   3.926   2.582  0.8790 -0.2621  1.4821
 6812TIP3    H241996   5.179   3.850   2.682 -2.0963  2.0406  0.8375
 6813TIP3   OH241997   3.465   4.422   7.786  0.2192  0.0467  0.0388
 6813TIP3    H141998   3.465   4.500   7.730  0.6003  1.9850  2.6003
 6813TIP3    H241999   3.514   4.356   7.735  0.5421  1.6804 -1.8811
 6814TIP3   OH242000   4.619   2.952   6.700 -0.0718 -0.3021 -0.3038
 6814TIP3    H142001   4.666   3.026   6.738 -0.3015 -0.4772  0.3391
 6814TIP3    H242002   4.528   2.966   6.724 -0.0002 -1.2277  0.5706
 6815TIP3   OH242003   4.089   0.575   7.947  0.1179 -0.0382  0.2909
 6815TIP3    H142004   4.084   0.604   8.038  2.1575  0.2125  0.3732
 6815TIP3    H242005   4.085   0.480   7.952 -1.4860  0.0212  0.4707
 6816TIP3   OH242006   0.713   2.507   1.908 -0.1112  0.4438 -1.3315
 6816TIP3    H142007   0.772   2.447   1.955 -0.5332 -0.1285 -1.5261
 6816TIP3    H242008   0.741   2.594   1.937 -0.2928  0.1142 -0.0962
 6817TIP3   OH242009   3.327   4.336   6.885  0.1037 -0.7818 -0.2729
 6817TIP3    H142010   3.373   4.277   6.826  0.0473  0.1782 -1.3137
 6817TIP3    H242011   3.323   4.420   6.837  0.6942  0.2323  1.3788
 6818TIP3   OH242012   2.188   5.682   1.771 -0.4050 -0.1554 -0.4412
 6818TIP3    H142013   2.244   5.623   1.722 -0.1603 -0.0132 -0.3349
 6818TIP3    H242014   2.239   5.706   1.848 -0.2633  0.6460 -0.7696
 6819TIP3   OH242015   2.188   1.262   0.818  0.5956  0.4744  0.0097
 6819TIP3    H142016   2.247   1.315   0.873  0.1883  1.7665 -0.7564
 6819TIP3    H242017   2.119   1.323   0.792  0.1556 -0.4285 -0.9803
 6820TIP3   OH242018   6.315   4.689   8.565  0.7973 -0.2176  0.0157
 6820TIP3    H142019   6.274   4.648   8.641  1.7245  1.6937  1.6587
 6820TIP3    H242020   6.271   4.774   8.558  0.5717 -0.4540 -1.7614
 6821TIP3   OH242021   2.017   2.983   2.502 -0.2219  0.3824  0.5938
 6821TIP3    H142022   2.045   2.896   2.473  0.3384  1.2145 -1.6152
 6821TIP3    H242023   2.096   3.022   2.539 -0.5131 -0.0762  1.7353
 6822TIP3   OH242024   4.271   5.705   2.537  0.0251 -0.1693 -0.3033
 6822TIP3    H142025   4.346   5.650   2.561  0.3331  0.7119  0.8938
 6822TIP3    H242026   4.217   5.650   2.480  1.6038 -0.8051 -1.2424
 6823TIP3   OH242027   5.234   0.298   8.532 -0.2478 -0.7403 -0.0489
 6823TIP3    H142028   5.294   0.255   8.471  0.3177  1.0288 -0.7795
 6823TIP3    H242029   5.257   0.390   8.529 -3.5984  0.2004 -1.0851
 6824TIP3   OH242030   5.608   0.964   8.606  0.0359  0.4086  0.7260
 6824TIP3    H142031   5.552   0.912   8.548 -0.3256  1.3755  0.1928
 6824TIP3    H242032   5.588   0.932   8.694 -1.5790  0.9230  0.5800
 6825TIP3   OH242033   6.822   4.000   0.108 -0.4851 -0.2381  0.2350
 6825TIP3    H142034   6.833   4.044   0.192  1.5502 -0.4270  0.1218
 6825TIP3    H242035   6.780   4.065   0.052 -1.4534  0.0414  1.2486
 6826TIP3   OH242036   4.083   3.422   2.542  0.1261 -0.6169  0.5179
 6826TIP3    H142037   4.091   3.353   2.476 -1.3534 -0.5831  0.2764
 6826TIP3    H242038   4.156   3.405   2.603 -2.1561 -4.6699  2.5811
 6827TIP3   OH242039   1.853   5.577   1.332 -0.2612  0.0072 -0.2929
 6827TIP3    H142040   1.920   5.558   1.267 -0.9734 -2.6174 -0.3767
 6827TIP3    H242041   1.883   5.657   1.375  2.5051 -0.6394 -0.8445
 6828TIP3   OH242042   0.717   0.746   2.091 -0.1488 -0.0400  0.5496
 6828TIP3    H142043   0.675   0.795   2.020  0.4222  0.7334  0.7358
 6828TIP3    H242044   0.673   0.777   2.171  0.6152  0.6156  0.7247
 6829TIP3   OH242045   0.173   2.832   7.386 -0.1418  0.1314 -0.1089
 6829TIP3    H142046   0.229   2.909   7.380 -1.1968  1.1244  1.7536
 6829TIP3    H242047   0.152   2.810   7.295  2.2250  0.4519 -0.7840
 6830TIP3   OH242048   0.278   1.754   1.041 -0.0807  0.1646  0.0119
 6830TIP3    H142049   0.346   1.815   1.011  1.1271 -0.1913  1.9055
 6830TIP3    H242050   0.211   1.811   1.079 -0.3497  0.4584 -0.8858
 6831TIP3   OH242051   3.382   1.312   7.761  0.9508 -0.1851  0.0083
 6831TIP3    H142052   3.450   1.362   7.715  0.6827 -0.6577 -0.9403
 6831TIP3    H242053   3.391   1.223   7.727 -2.4360  0.3850 -3.0196
 6832TIP3   OH242054   3.087   0.937   0.251  0.5956 -0.7587  0.2222
 6832TIP3    H142055   3.005   0.888   0.251  0.9217 -1.3166  0.0304
 6832TIP3    H242056   3.068   1.016   0.302  0.1789 -1.2770  0.8835
 6833TIP3   OH242057   4.374   4.154   0.266  0.0742 -0.0162  0.4983
 6833TIP3    H142058   4.431   4.218   0.223  0.8849 -0.6204  0.6493
 6833TIP3    H242059   4.398   4.070   0.226  0.1511 -0.4464  1.4234
 6834TIP3   OH242060   2.959   2.369   1.723  0.1275 -0.0604 -0.4710
 6834TIP3    H142061   2.882   2.362   1.780  0.2576  0.3869 -0.2306
 6834TIP3    H242062   2.984   2.461   1.729  1.7962 -0.5469  0.9607
 6835TIP3   OH242063   2.709   0.905   1.886 -0.2533 -0.0992  0.0440
 6835TIP3    H142064   2.746   0.882   1.800  1.8413  0.0540  0.8518
 6835TIP3    H242065   2.619   0.930   1.867 -0.3132 -1.5417 -1.9034
 6836TIP3   OH242066   4.636   0.875   0.616  0.1678  0.3218  0.2114
 6836TIP3    H142067   4.635   0.959   0.571 -0.4577 -0.2501 -0.8664
 6836TIP3    H242068   4.727   0.847   0.613  0.2158  0.5314 -0.2283
 6837TIP3   OH242069   3.373   2.214   1.427 -0.9889 -0.3328  0.4353
 6837TIP3    H142070   3.454   2.206   1.477 -1.6853 -2.6975  1.3114
 6837TIP3    H242071   3.304   2.208   1.494 -1.9227  0.7013 -0.3960
 6838TIP3   OH242072   2.574   2.928   7.340 -0.6044 -0.3471 -0.4576
 6838TIP3    H142073   2.653   2.899   7.295  2.4435 -0.7118  4.3074
 6838TIP3    H242074   2.570   3.022   7.322  1.9943  0.0123  0.3318
 6839TIP3   OH242075   5.048   4.143   2.565 -0.0629  0.4237  0.3166
 6839TIP3    H142076   5.106   4.211   2.599  2.1117  0.4096 -2.9080
 6839TIP3    H242077   5.091   4.061   2.586 -0.9430  0.1780  1.2341
 6840TIP3   OH242078   1.260   4.677   3.144 -0.0284  0.2981  0.4468
 6840TIP3    H142079   1.269   4.613   3.073  1.6146  0.0943  0.8098
 6840TIP3    H242080   1.209   4.748   3.106 -1.5025 -1.0002 -0.1081
 6841TIP3   OH242081   1.379   1.541   1.044 -0.3796 -0.2401 -0.2405
 6841TIP3    H142082   1.418   1.599   1.110  1.6135 -2.5607  0.8076
 6841TIP3    H242083   1.445   1.537   0.975 -1.8836  1.1246 -1.8561
 6842TIP3   OH242084   6.639   2.630   1.095  0.1028  0.2810 -0.5653
 6842TIP3    H142085   6.668   2.690   1.027 -1.4455  1.9589  0.1860
 6842TIP3    H242086   6.544   2.624   1.083 -0.0152 -0.4494  0.6142
 6843TIP3   OH242087   5.886   3.790   0.491 -0.0089 -0.2716 -0.3713
 6843TIP3    H142088   5.938   3.737   0.431  1.6814  1.1134 -0.1842
 6843TIP3    H242089   5.824   3.728   0.529  1.7655 -2.0976 -0.2770
 6844TIP3   OH242090   1.455   3.091   7.847  0.6171  0.7056 -0.2642
 6844TIP3    H142091   1.514   3.060   7.778 -0.2433 -0.1145 -0.6510
 6844TIP3    H242092   1.372   3.048   7.828  0.3353  0.5684  1.2280
 6845TIP3   OH242093   4.448   5.430   8.184  0.2387 -0.5592  0.3387
 6845TIP3    H142094   4.442   5.338   8.159 -2.5919 -1.0582  2.3663
 6845TIP3    H242095   4.465   5.428   8.279 -1.6215  0.9135  0.7604
 6846TIP3   OH242096   4.162   0.787   7.788  0.5588  0.5122  0.1500
 6846TIP3    H142097   4.218   0.744   7.723 -1.9471 -0.3802 -1.6038
 6846TIP3    H242098   4.116   0.715   7.831 -0.5018  1.2545  0.2849
 6847TIP3   OH242099   6.597   0.971   8.391 -0.3695  0.0134  0.3948
 6847TIP3    H142100   6.619   0.939   8.304  0.4578 -1.2081  1.0372
 6847TIP3    H242101   6.629   1.061   8.393  0.0494 -0.1160 -0.3949
 6848TIP3   OH242102   4.824   4.829   0.106  0.8535 -0.0507 -0.0177
 6848TIP3    H142103   4.836   4.747   0.058 -1.2522  0.3033 -1.2808
 6848TIP3    H242104   4.751   4.872   0.062 -1.8654 -0.0474  3.9678
 6849TIP3   OH242105   6.541   4.748   7.077 -0.6955 -0.3161 -0.1172
 6849TIP3    H142106   6.543   4.714   6.987  0.1914 -0.6152  0.0069
 6849TIP3    H242107   6.633   4.751   7.103 -0.9002  0.3933  0.5512
 6850TIP3   OH242108   2.169   3.907   0.616 -0.3783  0.6071 -0.3373
 6850TIP3    H142109   2.157   3.839   0.549 -3.4759 -0.6670  1.3228
 6850TIP3    H242110   2.251   3.883   0.659  0.2726 -0.1218 -1.8988
 6851TIP3   OH242111   5.931   3.338   0.564 -0.5128  0.1101 -0.1190
 6851TIP3    H142112   5.954   3.371   0.477 -0.8764 -0.7099 -0.5386
 6851TIP3    H242113   5.972   3.399   0.624 -0.8397  1.1016 -0.8654
 6852TIP3   OH242114   0.384   6.160   2.406 -0.0042  0.4010 -0.2766
 6852TIP3    H142115   0.310   6.179   2.463 -1.7620 -3.0744 -1.1031
 6852TIP3    H242116   0.458   6.147   2.465 -0.5007  1.8596  0.7310
 6853TIP3   OH242117   0.589   3.276   1.377 -0.4169  0.2860  0.0598
 6853TIP3    H142118   0.678   3.282   1.411  0.0553  1.2080 -1.2926
 6853TIP3    H242119   0.535   3.262   1.455  0.4525  3.7511  1.4667
 6854TIP3   OH242120   1.460   6.320   8.380  0.1890  0.0524 -0.0742
 6854TIP3    H142121   1.393   6.358   8.435  1.1345  0.5600  0.7623
 6854TIP3    H242122   1.542   6.335   8.427  0.8137 -1.2600 -0.6644
 6855TIP3   OH242123   2.200   3.943   2.464  0.1689  0.2507  0.2786
 6855TIP3    H142124   2.231   3.854   2.445  0.0687  0.6656 -2.2485
 6855TIP3    H242125   2.105   3.938   2.452  0.3889  1.1879 -2.7449
 6856TIP3   OH242126   1.250   6.390   2.834 -0.5109  0.0480 -0.0399
 6856TIP3    H142127   1.263   6.479   2.799 -0.0440  0.4607  1.1373
 6856TIP3    H242128   1.155   6.378   2.834 -0.5660  0.4131 -0.5026
 6857TIP3   OH242129   0.655   4.654   1.088  0.0942 -0.0854  0.6983
 6857TIP3    H142130   0.678   4.563   1.107  1.7833  0.5880  2.1964
 6857TIP3    H242131   0.564   4.650   1.060  0.0616 -2.2170  0.9195
 6858TIP3   OH242132   3.546   5.152   0.501  0.1725 -0.2269 -0.8495
 6858TIP3    H142133   3.551   5.221   0.435 -1.7773 -0.4816 -1.3332
 6858TIP3    H242134   3.584   5.075   0.459  0.2426 -0.0247 -1.1568
 6859TIP3   OH242135   6.710   3.274   0.738  0.5522 -0.1040 -0.4340
 6859TIP3    H142136   6.681   3.246   0.825  1.7194 -2.1183 -0.6306
 6859TIP3    H242137   6.676   3.363   0.729 -1.0498 -0.4531  1.3877
 6860TIP3   OH242138   3.907   3.838   8.107  0.2650 -0.1754 -0.5367
 6860TIP3    H142139   3.840   3.775   8.081 -0.2876 -0.2616  1.0402
 6860TIP3    H242140   3.899   3.846   8.202  1.5580  0.8815 -0.4745
 6861TIP3   OH242141   0.150   3.175   0.695 -0.0924 -0.0451 -0.7915
 6861TIP3    H142142   0.054   3.166   0.694 -0.1255 -0.4309  1.2945
 6861TIP3    H242143   0.165   3.267   0.717 -0.0845 -0.6644  2.1347
 6862TIP3   OH242144   0.473   5.566   8.636 -0.1581 -0.5258 -0.2043
 6862TIP3    H142145   0.512   5.607   8.560  0.0398 -0.8971 -0.3063
 6862TIP3    H242146   0.387   5.537   8.607  0.7311 -2.5961 -0.9386
 6863TIP3   OH242147   2.427   0.945   7.861  0.1743  0.7978  0.5490
 6863TIP3    H142148   2.459   0.889   7.790  0.1494  0.2885  0.9290
 6863TIP3    H242149   2.476   0.915   7.938  1.4495  2.4811  0.4320
 6864TIP3   OH242150   2.811   6.613   1.464 -0.2016  0.5226 -0.1797
 6864TIP3    H142151   2.885   6.627   1.404  1.0916 -0.4323  1.1008
 6864TIP3    H242152   2.798   6.518   1.463 -0.4800  0.5466  0.6855
 6865TIP3   OH242153   1.666   2.740   0.300 -0.4707  0.4625  0.0605
 6865TIP3    H142154   1.716   2.659   0.298 -0.6191  0.3810 -0.9603
 6865TIP3    H242155   1.732   2.810   0.292 -0.5118  0.3405 -1.8703
 6866TIP3   OH242156   3.000   4.404   8.503  0.1662  0.3815 -0.3348
 6866TIP3    H142157   2.988   4.418   8.597  1.4122  0.4170 -0.1723
 6866TIP3    H242158   3.014   4.491   8.467  0.7447  0.2669 -0.3927
 6867TIP3   OH242159   3.684   2.989   1.320 -1.1778  0.2702  0.2906
 6867TIP3    H142160   3.692   2.895   1.332 -2.4445 -0.5261 -3.6459
 6867TIP3    H242161   3.773   3.023   1.328 -0.7140 -1.2206  1.8037
 6868TIP3   OH242162   5.421   5.230   1.863 -0.3390 -0.6121 -0.6945
 6868TIP3    H142163   5.378   5.149   1.890 -1.4226  0.0768 -0.2984
 6868TIP3    H242164   5.358   5.299   1.883  1.5308  0.6276  1.3797
 6869TIP3   OH242165   3.152   0.625   1.663 -0.4399 -0.5708 -0.3074
 6869TIP3    H142166   3.086   0.616   1.731 -1.8757 -0.6325 -1.6601
 6869TIP3    H242167   3.207   0.547   1.672 -1.6230 -1.4141 -0.2755
 6870TIP3   OH242168   4.550   0.549   2.471  0.0246  0.4614  0.6395
 6870TIP3    H142169   4.555   0.639   2.503 -0.3778  1.0491 -0.8768
 6870TIP3    H242170   4.626   0.540   2.413 -0.1034 -0.0998  0.5518
 6871TIP3   OH242171   5.003   3.403   1.045 -0.3304  0.2736  0.3396
 6871TIP3    H142172   5.000   3.342   0.972 -1.4359  0.0846  0.5140
 6871TIP3    H242173   5.093   3.399   1.077 -0.3855 -1.2611  0.3548
 6872TIP3   OH242174   2.559   5.177   0.317 -0.4758 -0.5153 -0.7724
 6872TIP3    H142175   2.507   5.097   0.308  0.0272 -0.6483 -3.5706
 6872TIP3    H242176   2.591   5.176   0.407 -3.1194 -1.7665  0.2460
 6873TIP3   OH242177   5.237   0.766   0.486  0.2896  0.0504  0.7434
 6873TIP3    H142178   5.325   0.747   0.453  0.4675 -0.0092  1.2437
 6873TIP3    H242179   5.246   0.765   0.581 -0.1874  0.3571  0.7976
 6874TIP3   OH242180   1.212   5.050   8.247  0.2450 -0.1308 -0.3773
 6874TIP3    H142181   1.118   5.057   8.232  0.0367 -0.0481  0.8540
 6874TIP3    H242182   1.224   5.081   8.337  1.4203 -0.3760 -0.4366
 6875TIP3   OH242183   3.103   5.660   1.314 -0.0422  0.5017  0.1819
 6875TIP3    H142184   3.170   5.617   1.262 -0.2198 -0.6657  0.8828
 6875TIP3    H242185   3.124   5.637   1.405 -1.7949 -0.5314  0.3720
 6876TIP3   OH242186   1.442   3.172   8.572 -0.1865 -0.4550 -0.3691
 6876TIP3    H142187   1.396   3.185   8.488  0.6964 -0.4383 -0.8612
 6876TIP3    H242188   1.435   3.257   8.616 -0.4163 -0.3795 -0.5440
 6877TIP3   OH242189   2.619   0.349   7.592  0.8347 -0.0767 -0.3412
 6877TIP3    H142190   2.647   0.401   7.517  1.1545  0.8035  0.3667
 6877TIP3    H242191   2.608   0.413   7.663  0.6400 -0.8961  0.3880
 6878TIP3   OH242192   1.532   3.536   0.021  0.1508 -0.4534  0.0154
 6878TIP3    H142193   1.579   3.599   0.075 -2.7841  0.8761  1.2559
 6878TIP3    H242194   1.556   3.557  -0.069  1.4551  0.4851  0.5673
 6879TIP3   OH242195   3.471   0.079   0.298  0.1209  0.5136 -0.8328
 6879TIP3    H142196   3.450   0.024   0.373 -0.6999 -2.0089 -2.7393
 6879TIP3    H242197   3.566   0.072   0.288  0.3726  1.6835  0.4895
 6880TIP3   OH242198   5.501   0.145   7.812 -0.4667  0.0270  1.0024
 6880TIP3    H142199   5.529   0.203   7.882  2.4540 -0.9581  0.8105
 6880TIP3    H242200   5.548   0.177   7.735 -2.4210  0.1531 -0.2135
 6881TIP3   OH242201   0.199   5.909   0.021 -0.6040 -0.5242 -0.5142
 6881TIP3    H142202   0.224   5.849   0.092 -0.1624 -0.1735 -0.3713
 6881TIP3    H242203   0.162   5.985   0.067  1.2315  0.4462 -0.5626
 6882TIP3   OH242204   4.752   2.299   1.623 -0.2745 -0.1136 -0.7532
 6882TIP3    H142205   4.721   2.243   1.695  1.0304  0.5126  0.3441
 6882TIP3    H242206   4.733   2.388   1.651  1.5544  0.2336 -0.4655
 6883TIP3   OH242207   0.483   1.963   1.048 -0.3403  0.7524 -0.2113
 6883TIP3    H142208   0.548   1.965   0.978 -0.5268 -0.5675 -0.4490
 6883TIP3    H242209   0.533   1.946   1.127 -0.3953 -0.4006 -0.4134
 6884TIP3   OH242210   1.726   3.882   1.140 -0.0119  0.7140 -0.3422
 6884TIP3    H142211   1.643   3.836   1.128  0.2613  0.0087  0.3247
 6884TIP3    H242212   1.773   3.868   1.058  0.0526 -0.2037 -0.1634
 6885TIP3   OH242213   2.011   5.604   1.052 -0.4195  0.0880 -0.2759
 6885TIP3    H142214   2.005   5.697   1.073 -1.0092 -0.0446  0.1681
 6885TIP3    H242215   1.922   5.570   1.066 -0.5376 -0.2722 -1.7721
 6886TIP3   OH242216   5.507   6.652   2.495 -0.3056  0.1783 -0.0240
 6886TIP3    H142217   5.590   6.607   2.481 -0.3991  0.2234 -0.7748
 6886TIP3    H242218   5.441   6.583   2.485 -0.4051  0.3198 -0.3562
 6887TIP3   OH242219   2.412   6.864   7.707  0.5666 -0.1850  0.2570
 6887TIP3    H142220   2.500   6.834   7.684  0.7110  0.2776  0.1887
 6887TIP3    H242221   2.355   6.788   7.692  0.4272  0.4193 -2.9200
 6888TIP3   OH242222   3.341   0.615   1.311  0.0452  0.4273 -0.5087
 6888TIP3    H142223   3.322   0.692   1.365  0.5945  0.6639 -0.6447
 6888TIP3    H242224   3.335   0.541   1.372 -0.6254  0.5597 -0.4074
 6889TIP3   OH242225   2.385   4.895   2.466 -0.2141  0.0249 -0.9527
 6889TIP3    H142226   2.389   4.801   2.487 -1.9837  0.0862 -0.1498
 6889TIP3    H242227   2.338   4.898   2.382  0.8960  0.1548 -1.5894
 6890TIP3   OH242228   4.259   1.350   7.458 -0.0499  0.6100 -0.0860
 6890TIP3    H142229   4.328   1.306   7.407 -1.2223 -0.8729 -0.4582
 6890TIP3    H242230   4.249   1.295   7.535 -0.2972  1.2517  0.3417
 6891TIP3   OH242231   3.506   3.386   1.806 -0.0696  0.0405  0.0762
 6891TIP3    H142232   3.598   3.381   1.832  0.2194  0.4736 -0.8064
 6891TIP3    H242233   3.483   3.478   1.816 -0.9471 -0.3393  1.9792
 6892TIP3   OH242234   5.606   3.626   8.358 -0.3680  0.6626  0.3003
 6892TIP3    H142235   5.668   3.650   8.289  0.4004 -0.0071  0.7438
 6892TIP3    H242236   5.594   3.707   8.408  0.8243  0.6092  0.7190
 6893TIP3   OH242237   1.967   0.931   2.192  0.0635 -0.4587  0.2685
 6893TIP3    H142238   1.888   0.932   2.246 -0.3033 -1.0432 -0.2444
 6893TIP3    H242239   1.991   1.024   2.183 -1.0208 -0.2114 -0.2292
 6894TIP3   OH242240   0.251   4.429   7.151  0.0241 -0.2931  0.0668
 6894TIP3    H142241   0.165   4.405   7.186 -1.5923  1.7252 -2.1977
 6894TIP3    H242242   0.313   4.379   7.205 -2.4673 -1.2065  2.3547
 6895TIP3   OH242243   3.993   4.474   2.827 -0.4163 -0.2483  0.5334
 6895TIP3    H142244   3.992   4.565   2.798 -0.6703 -1.1063 -2.5165
 6895TIP3    H242245   4.054   4.430   2.767 -1.9877 -2.4816  0.4436
 6896TIP3   OH242246   4.018   3.285   0.882  0.5063  0.3460 -0.1182
 6896TIP3    H142247   4.057   3.357   0.931  0.0117 -0.5263  1.6203
 6896TIP3    H242248   4.090   3.250   0.830  1.0444  1.3040 -0.0436
 6897TIP3   OH242249   6.152   6.282   1.725  0.2978  0.1991  0.0638
 6897TIP3    H142250   6.236   6.308   1.688  0.1108  1.5597  0.5073
 6897TIP3    H242251   6.093   6.278   1.650  0.1903  1.7727  0.0314
 6898TIP3   OH242252   0.284   1.682   2.331 -0.8294 -0.6300 -0.3994
 6898TIP3    H142253   0.283   1.613   2.398 -0.3097 -0.7151 -0.4764
 6898TIP3    H242254   0.373   1.716   2.333 -1.1135  0.1334 -0.2763
 6899TIP3   OH242255   5.982   5.185   2.501  0.7527 -0.0489  0.6150
 6899TIP3    H142256   5.892   5.217   2.505  0.8932  0.2680  1.5558
 6899TIP3    H242257   6.035   5.263   2.485  1.0152  0.0834  1.9873
 6900TIP3   OH242258   4.058   3.600   0.675  0.1566  0.1410  0.1324
 6900TIP3    H142259   3.976   3.590   0.723 -0.3374  1.1442 -0.4870
 6900TIP3    H242260   4.032   3.610   0.583  0.9568  0.6055 -0.0560
 6901TIP3   OH242261   4.810   3.785   6.591 -0.0447 -0.3288  0.2983
 6901TIP3    H142262   4.834   3.694   6.570  0.6643  0.1011 -0.8425
 6901TIP3    H242263   4.715   3.786   6.583 -0.3623 -1.6042  3.0195
 6902TIP3   OH242264   4.515   0.851   1.937 -0.4074  0.8848 -0.5854
 6902TIP3    H142265   4.468   0.833   2.018  1.9733  0.1627  0.7347
 6902TIP3    H242266   4.506   0.946   1.925  0.7660  1.3479  1.6385
 6903TIP3   OH242267   5.266   6.128   8.651  0.3481  0.1538 -0.1496
 6903TIP3    H142268   5.293   6.036   8.652  0.3908  0.1627  0.8711
 6903TIP3    H242269   5.192   6.130   8.589 -0.1684 -0.7276  0.4066
 6904TIP3   OH242270   2.118   2.738   2.484 -0.2086  1.0035 -0.2418
 6904TIP3    H142271   2.188   2.761   2.422  0.9505  0.4256  0.8014
 6904TIP3    H242272   2.149   2.657   2.525 -1.8344  0.3599 -0.2357
 6905TIP3   OH242273   0.884   1.338   1.048 -0.6489  0.2781  0.1379
 6905TIP3    H142274   0.940   1.262   1.066  0.1425  0.4997 -1.2989
 6905TIP3    H242275   0.945   1.411   1.037 -1.3815  1.0620  1.0976
 6906TIP3   OH242276   3.059   3.853   7.169 -0.0086 -0.3768  0.1198
 6906TIP3    H142277   3.140   3.888   7.207 -0.0673 -0.6909  0.5522
 6906TIP3    H242278   3.011   3.930   7.139  2.1093 -0.2969 -3.6872
 6907TIP3   OH242279   3.037   1.052   8.315 -0.6083  0.1958  0.1648
 6907TIP3    H142280   3.126   1.020   8.329 -0.5885  1.3269  3.2708
 6907TIP3    H242281   2.991   1.035   8.397 -2.7605  1.2977 -0.7177
 6908TIP3   OH242282   3.912   5.350   2.228 -0.4497  0.4409  0.4986
 6908TIP3    H142283   3.885   5.440   2.246 -1.1679  0.4453 -0.5417
 6908TIP3    H242284   3.995   5.340   2.275 -0.1955  1.7523  0.3648
 6909TIP3   OH242285   2.007   4.080   2.165  0.0653 -0.2461 -0.0356
 6909TIP3    H142286   1.972   4.104   2.080  1.8794 -1.1474 -1.0862
 6909TIP3    H242287   2.084   4.027   2.146 -0.0850 -1.3928  2.1721
 6910TIP3   OH242288   5.046   1.070   0.890  0.2149 -0.0917 -0.6668
 6910TIP3    H142289   5.125   1.116   0.862 -0.0999 -0.6586 -2.6456
 6910TIP3    H242290   4.987   1.139   0.922  1.4461  0.3387  0.8164
 6911TIP3   OH242291   3.155   6.710   0.659  0.0089 -0.1598  0.6212
 6911TIP3    H142292   3.150   6.678   0.569  0.0924  1.9511 -0.2009
 6911TIP3    H242293   3.243   6.747   0.667 -0.0806 -0.0995  1.4981
 6912TIP3   OH242294   0.401   2.587   7.224 -0.3236  0.3986  0.3978
 6912TIP3    H142295   0.342   2.549   7.159  1.8874  1.3698 -2.3867
 6912TIP3    H242296   0.474   2.525   7.230 -0.4383  0.3695  1.9561
 6913TIP3   OH242297   4.703   4.705   1.295 -0.1399 -0.0229  0.2308
 6913TIP3    H142298   4.698   4.620   1.339 -0.9437 -0.9020 -1.4565
 6913TIP3    H242299   4.787   4.742   1.324  0.1945 -1.3533  1.0615
 6914TIP3   OH242300   2.805   2.329   7.965  0.0409 -0.0485 -0.0361
 6914TIP3    H142301   2.720   2.287   7.982  0.9330 -2.4318 -0.9647
 6914TIP3    H242302   2.837   2.356   8.051 -1.3435  0.2814  0.4000
 6915TIP3   OH242303   4.564   4.603   0.391  0.1336 -0.2821  0.1627
 6915TIP3    H142304   4.537   4.632   0.304  0.6969 -2.2648 -0.7269
 6915TIP3    H242305   4.510   4.527   0.410 -0.1507  0.2561  1.6826
 6916TIP3   OH242306   1.335   0.839   7.219 -1.2911 -0.1037  0.2048
 6916TIP3    H142307   1.422   0.874   7.201 -0.8474 -0.9936  0.5633
 6916TIP3    H242308   1.332   0.756   7.171 -2.7576  0.9089 -1.5959
 6917TIP3   OH242309   4.659   2.284   2.267  0.2936 -0.1917 -0.0986
 6917TIP3    H142310   4.630   2.193   2.272 -1.7224  0.3330 -1.3475
 6917TIP3    H242311   4.631   2.314   2.181  1.5260  1.4466  0.0140
 6918TIP3   OH242312   1.667   3.963   7.749 -0.1744  0.6122 -0.5000
 6918TIP3    H142313   1.615   3.915   7.814 -1.5386  0.1651 -1.8526
 6918TIP3    H242314   1.751   3.918   7.749 -1.0534 -1.1418 -0.9467
 6919TIP3   OH242315   5.627   3.267   8.641  0.5259  0.3219 -0.5097
 6919TIP3    H142316   5.555   3.301   8.587 -1.7539 -0.8367  1.6071
 6919TIP3    H242317   5.665   3.197   8.588 -2.8548 -2.0766 -0.1499
 6920TIP3   OH242318   4.252   1.688   2.111  0.1328 -0.3866 -0.3663
 6920TIP3    H142319   4.227   1.778   2.129  0.0693 -0.5061  0.1648
 6920TIP3    H242320   4.320   1.694   2.045 -0.8159 -0.0183 -1.3458
 6921TIP3   OH242321   5.159   6.492   1.660 -0.1154 -0.7180 -0.4567
 6921TIP3    H142322   5.151   6.566   1.599  1.9406  0.3228  0.4205
 6921TIP3    H242323   5.121   6.418   1.613  0.0886  0.3484 -2.4148
 6922TIP3   OH242324   2.861   1.809   0.939  0.5886  0.3091  0.3154
 6922TIP3    H142325   2.856   1.718   0.910  0.6146  1.2308 -2.9774
 6922TIP3    H242326   2.941   1.813   0.992  0.1211 -1.7162  1.2506
 6923TIP3   OH242327   4.804   2.661   7.776 -0.5215 -0.5547 -0.3065
 6923TIP3    H142328   4.794   2.625   7.688  0.2541 -0.5014 -0.4183
 6923TIP3    H242329   4.889   2.705   7.775 -1.6686  1.8011 -0.3661
 6924TIP3   OH242330   4.501   6.004   8.099 -0.2769  0.2061 -0.1437
 6924TIP3    H142331   4.508   6.054   8.180  1.1694 -0.3450  0.0883
 6924TIP3    H242332   4.591   5.982   8.076 -0.8180 -1.6502 -0.6444
 6925TIP3   OH242333   6.480   4.949   1.967 -0.5551  0.0406 -0.0998
 6925TIP3    H142334   6.477   4.860   1.932  1.4411  0.0188 -0.3289
 6925TIP3    H242335   6.410   4.953   2.031 -0.6883 -1.6951 -0.1091
 6926TIP3   OH242336   6.609   5.185   8.642 -0.5166  0.1504 -0.6551
 6926TIP3    H142337   6.687   5.163   8.592 -0.2060 -0.5155  0.1021
 6926TIP3    H242338   6.539   5.135   8.600 -1.2357  3.0861 -3.3132
 6927TIP3   OH242339   6.256   0.521   1.362 -0.1787  0.1981 -0.3010
 6927TIP3    H142340   6.163   0.514   1.339 -0.2188 -2.0419  0.3849
 6927TIP3    H242341   6.286   0.431   1.372  1.3179  0.8906  2.5142
 6928TIP3   OH242342   2.119   1.870   7.532  0.7080  0.0481 -0.3377
 6928TIP3    H142343   2.171   1.945   7.503  0.3715  0.5684  0.3806
 6928TIP3    H242344   2.083   1.896   7.616 -1.0980 -0.1013 -1.0057
 6929TIP3   OH242345   4.007   4.264   2.017 -0.1176  0.4147  0.0947
 6929TIP3    H142346   3.913   4.262   2.038 -0.1624  1.7318  0.1003
 6929TIP3    H242347   4.050   4.243   2.099 -0.4043 -0.0934  0.1199
 6930TIP3   OH242348   3.317   3.733   2.263  0.1819  0.2504 -0.1828
 6930TIP3    H142349   3.369   3.777   2.195  1.4827  1.4561  1.4990
 6930TIP3    H242350   3.228   3.766   2.250  0.2285 -0.1439 -1.7474
 6931TIP3   OH242351   5.797   6.842   7.888 -0.2225  0.2080 -0.1231
 6931TIP3    H142352   5.801   6.772   7.952  0.4200  0.1995 -0.1655
 6931TIP3    H242353   5.742   6.909   7.928  1.8088  1.0959  1.3434
 6932TIP3   OH242354   4.372   0.372   7.900  0.2142 -0.3976 -1.1258
 6932TIP3    H142355   4.373   0.373   7.805  2.3577 -0.7682 -1.1600
 6932TIP3    H242356   4.352   0.282   7.924 -0.0241 -0.3727 -1.2373
 6933TIP3   OH242357   4.716   3.646   8.418  0.1154 -0.3274 -0.0245
 6933TIP3    H142358   4.734   3.733   8.453 -1.8894  0.2603 -0.3309
 6933TIP3    H242359   4.746   3.651   8.327 -1.3744  0.6040 -0.5100
 6934TIP3   OH242360   4.826   2.521   6.840  0.1824  0.2685 -0.8070
 6934TIP3    H142361   4.759   2.586   6.817 -0.3687 -0.3742 -1.0685
 6934TIP3    H242362   4.858   2.489   6.756  1.2873  1.0220 -0.6925
 6935TIP3   OH242363   2.494   6.469   0.610 -0.4597  0.0745 -0.0844
 6935TIP3    H142364   2.586   6.495   0.617  0.0104 -0.8656 -1.9917
 6935TIP3    H242365   2.451   6.509   0.686  1.7963 -0.7123  1.6937
 6936TIP3   OH242366   4.410   4.922   7.677  0.9128  0.2240  0.7044
 6936TIP3    H142367   4.435   5.011   7.701  1.6826  0.9596 -2.3630
 6936TIP3    H242368   4.485   4.869   7.702  1.5174  0.8799  0.3447
 6937TIP3   OH242369   3.796   3.393   1.907  0.8572 -0.3484  0.1302
 6937TIP3    H142370   3.836   3.477   1.926  0.7048  0.1614 -1.6136
 6937TIP3    H242371   3.846   3.359   1.833  1.9577 -2.5746  1.7889
 6938TIP3   OH242372   4.407   5.418   1.488  0.0246 -0.1304  0.5366
 6938TIP3    H142373   4.493   5.411   1.529  0.5480 -0.4066 -0.5659
 6938TIP3    H242374   4.389   5.512   1.487 -0.8811 -0.2065  3.0962
 6939TIP3   OH242375   6.350   2.391   1.779 -0.2395 -0.4373 -0.1891
 6939TIP3    H142376   6.361   2.345   1.696 -2.0014 -1.7545  0.2408
 6939TIP3    H242377   6.321   2.478   1.754 -0.4018 -0.7075 -0.9718
 6940TIP3   OH242378   5.608   2.233   8.561  0.4249 -0.0301  0.0172
 6940TIP3    H142379   5.624   2.161   8.500  0.7307  0.1596 -0.1256
 6940TIP3    H242380   5.620   2.195   8.647  2.9652  0.3856 -0.0733
 6941TIP3   OH242381   4.096   2.499   2.138  0.2746 -0.8173 -0.3483
 6941TIP3    H142382   4.072   2.581   2.181  3.6532  0.3269 -0.3089
 6941TIP3    H242383   4.084   2.516   2.045  0.4819 -0.4397 -0.3075
 6942TIP3   OH242384   2.522   1.996   7.558  0.2919 -0.0449  0.3494
 6942TIP3    H142385   2.496   1.958   7.642 -0.9945 -0.6640 -0.3025
 6942TIP3    H242386   2.443   2.041   7.527  1.2166  1.5305  0.1952
 6943TIP3   OH242387   4.350   3.565   1.596 -0.2348  0.0092 -0.1021
 6943TIP3    H142388   4.421   3.626   1.576 -1.0676  0.9532 -0.2388
 6943TIP3    H242389   4.364   3.541   1.688 -0.7991  1.6811  0.4669
 6944TIP3   OH242390   4.384   2.706   8.309 -0.1897  0.0623 -0.8934
 6944TIP3    H142391   4.344   2.793   8.308  0.5660  0.4134 -1.1176
 6944TIP3    H242392   4.478   2.722   8.302 -0.0607 -0.7847 -1.2683
 6945TIP3   OH242393   3.216   0.498   6.448 -0.2883  0.0110 -0.0544
 6945TIP3    H142394   3.191   0.590   6.456 -0.2068  0.0725 -0.4740
 6945TIP3    H242395   3.311   0.497   6.459 -0.2415  0.0298 -0.4233
 6946TIP3   OH242396   3.075   0.582   1.052 -0.0015  0.5196 -0.7896
 6946TIP3    H142397   3.161   0.568   1.093 -0.7377 -1.4574  0.2016
 6946TIP3    H242398   3.014   0.585   1.125 -0.7608  2.7236 -1.4217
 6947TIP3   OH242399   4.135   6.526   0.573  0.5175  0.1328 -0.7460
 6947TIP3    H142400   4.124   6.522   0.478 -1.7572  1.7495 -0.6443
 6947TIP3    H242401   4.060   6.477   0.607  2.1601 -1.8104  0.2975
 6948TIP3   OH242402   4.745   1.325   0.742  0.0590  0.1564 -0.4791
 6948TIP3    H142403   4.677   1.274   0.787 -0.1890 -0.9830 -2.0779
 6948TIP3    H242404   4.826   1.300   0.787 -0.1974 -0.8534 -0.5562
 6949TIP3   OH242405   5.585   3.144   0.941  0.3833 -0.0535 -0.7934
 6949TIP3    H142406   5.492   3.126   0.930  0.5128 -0.0151 -2.0432
 6949TIP3    H242407   5.601   3.131   1.035 -0.6830 -0.9338 -0.7159
 6950TIP3   OH242408   5.339   2.471   1.681  0.5234 -0.0453 -0.4585
 6950TIP3    H142409   5.253   2.507   1.701  0.0165 -0.3668 -1.9404
 6950TIP3    H242410   5.370   2.434   1.763 -0.4907  0.6062  0.2304
 6951TIP3   OH242411   0.180   6.604   8.432  0.5264 -0.4921  0.3554
 6951TIP3    H142412   0.124   6.549   8.487  1.4271 -2.8405 -0.9209
 6951TIP3    H242413   0.149   6.589   8.343  1.7054 -0.0499 -0.1578
 6952TIP3   OH242414   3.689   1.243   7.384 -0.6906 -0.9154 -0.0050
 6952TIP3    H142415   3.628   1.288   7.442 -2.0313  1.7286 -3.2129
 6952TIP3    H242416   3.762   1.218   7.442 -2.5552  0.1451  3.0413
 6953TIP3   OH242417   2.099   4.602   2.192  0.0047  0.8037  0.1347
 6953TIP3    H142418   2.160   4.591   2.119 -0.2762 -0.0253  0.0120
 6953TIP3    H242419   2.062   4.689   2.179  0.0043  0.6934 -0.6776
 6954TIP3   OH242420   6.342   3.438   2.251  0.0816 -0.3987 -0.1092
 6954TIP3    H142421   6.292   3.499   2.305 -1.1520 -1.6096  0.1561
 6954TIP3    H242422   6.430   3.439   2.289  0.1739  1.4179 -0.2955
 6955TIP3   OH242423   2.051   6.697   8.628  0.6497 -0.4347  0.2811
 6955TIP3    H142424   2.134   6.741   8.647  0.6688 -0.7288  0.9305
 6955TIP3    H242425   2.062   6.662   8.540 -0.3346  3.0613 -1.4018
 6956TIP3   OH242426   1.132   3.533   7.025  0.3862 -0.2472 -0.1034
 6956TIP3    H142427   1.045   3.494   7.016  0.3651 -0.7590  1.9559
 6956TIP3    H242428   1.117   3.616   7.070  0.8659  0.2802 -0.8712
 6957TIP3   OH242429   1.416   4.959   6.495  0.1256 -0.2325  0.0003
 6957TIP3    H142430   1.487   5.009   6.533  0.0946 -0.6206  0.5872
 6957TIP3    H242431   1.340   4.981   6.549 -0.1158 -0.1132 -0.3858
 6958TIP3   OH242432   2.153   0.815   7.625  0.1086 -0.1501  0.1085
 6958TIP3    H142433   2.181   0.725   7.642 -0.8864 -1.0002 -2.2664
 6958TIP3    H242434   2.122   0.813   7.534 -0.7386  2.4095  0.2728
 6959TIP3   OH242435   1.900   3.052   8.136 -0.1109 -0.2096  0.2661
 6959TIP3    H142436   1.875   3.145   8.138  1.3093  0.2074  0.2192
 6959TIP3    H242437   1.890   3.026   8.045 -2.9494 -0.8605  0.6897
 6960TIP3   OH242438   4.166   5.326   2.354  0.0948 -0.2146  0.1486
 6960TIP3    H142439   4.170   5.417   2.324 -1.9007 -0.7321 -1.9472
 6960TIP3    H242440   4.253   5.291   2.338  0.2400  0.7158 -1.2156
 6961TIP3   OH242441   4.123   0.288   8.539  0.5950  0.0774 -0.3176
 6961TIP3    H142442   4.087   0.203   8.563  0.0668 -0.1862 -1.9043
 6961TIP3    H242443   4.052   0.331   8.491  0.3661  1.9862  1.5787
 6962TIP3   OH242444   5.008   4.498   0.006 -0.2590 -0.0496 -0.0968
 6962TIP3    H142445   5.071   4.427   0.012 -0.9838 -0.6958  0.0036
 6962TIP3    H242446   4.944   4.479   0.074 -1.1532  0.0081 -0.9087
 6963TIP3   OH242447   1.318   4.562   7.270 -0.0463 -0.6042 -0.2048
 6963TIP3    H142448   1.402   4.573   7.315  1.0059 -0.6633 -2.0138
 6963TIP3    H242449   1.323   4.624   7.196 -1.8014 -0.2895 -0.1026
 6964TIP3   OH242450   1.111   3.660   2.552 -0.2448  0.1056 -0.0517
 6964TIP3    H142451   1.200   3.654   2.516  1.1946  1.6567  2.8821
 6964TIP3    H242452   1.089   3.571   2.576  1.7460 -0.0089  1.6605
 6965TIP3   OH242453   2.135   5.500   8.004  0.1054 -0.2958  0.0299
 6965TIP3    H142454   2.068   5.473   7.941 -0.9174 -0.5524  1.1831
 6965TIP3    H242455   2.095   5.485   8.090  1.1903  0.6851  0.7485
 6966TIP3   OH242456   3.023   3.605   8.148 -0.4528  0.1132 -0.0319
 6966TIP3    H142457   2.936   3.568   8.136 -0.7053  0.8228 -0.4320
 6966TIP3    H242458   3.076   3.565   8.079 -0.0399 -1.5459  1.1777
 6967TIP3   OH242459   1.674   4.545   0.696 -1.2706 -0.0075 -0.1165
 6967TIP3    H142460   1.685   4.450   0.696  1.5633  0.2006  1.5246
 6967TIP3    H242461   1.753   4.577   0.652 -0.0404  1.6081  2.9793
 6968TIP3   OH242462   5.373   3.541   8.142 -0.1162 -0.0746  0.3431
 6968TIP3    H142463   5.444   3.597   8.172  0.0324 -0.0030 -0.1393
 6968TIP3    H242464   5.306   3.601   8.111 -1.1709 -0.0659  2.4543
 6969TIP3   OH242465   4.846   1.866   7.861  0.1911  0.1177 -0.3515
 6969TIP3    H142466   4.812   1.883   7.949  1.0816  1.3411 -0.2240
 6969TIP3    H242467   4.939   1.888   7.867  0.3894 -0.3696 -1.4494
 6970TIP3   OH242468   0.426   4.242   1.964  0.1969 -0.2733  0.0925
 6970TIP3    H142469   0.460   4.324   2.000 -1.8872  1.1217 -0.9483
 6970TIP3    H242470   0.488   4.220   1.895 -0.0703  1.3529 -0.7210
 6971TIP3   OH242471   4.941   0.775   1.541  0.0175  0.2505  0.1932
 6971TIP3    H142472   4.919   0.855   1.587 -1.1327  0.0332  0.0458
 6971TIP3    H242473   4.902   0.785   1.454  0.5663 -0.1312 -0.1094
 6972TIP3   OH242474   0.047   6.813   0.851  0.2457  0.4926  0.1295
 6972TIP3    H142475  -0.020   6.766   0.802  2.0884 -2.4111  0.1684
 6972TIP3    H242476   0.127   6.801   0.800  2.0238 -1.7214  3.0971
 6973TIP3   OH242477   5.583   0.027   8.627  0.0919  0.1365 -0.5342
 6973TIP3    H142478   5.535   0.103   8.658 -0.1522 -0.0585 -0.4251
 6973TIP3    H242479   5.522  -0.017   8.567 -0.4162 -0.8778  0.6742
 6974TIP3   OH242480   6.435   0.309   2.501 -0.2630  0.2348 -0.2496
 6974TIP3    H142481   6.514   0.258   2.521 -1.4270 -1.6826 -0.2702
 6974TIP3    H242482   6.419   0.361   2.579 -0.7542 -1.8153  1.0841
 6975TIP3   OH242483   6.522   1.304   8.496  0.0883  0.4558  0.4317
 6975TIP3    H142484   6.565   1.228   8.535  1.4684  0.4595 -1.0103
 6975TIP3    H242485   6.578   1.378   8.521 -0.5087  0.8218  0.6981
 6976TIP3   OH242486   1.113   1.615   2.457  0.0392 -0.3749 -0.2110
 6976TIP3    H142487   1.025   1.627   2.494  0.8991  0.7651  1.5549
 6976TIP3    H242488   1.115   1.523   2.430 -1.3400 -0.6922  0.6655
 6977TIP3   OH242489   0.369   4.187   2.774 -0.2723  0.0201  0.1297
 6977TIP3    H142490   0.419   4.187   2.693 -1.4203 -0.5546 -0.6050
 6977TIP3    H242491   0.435   4.194   2.843  0.8213 -0.8544 -0.7890
 6978TIP3   OH242492   1.444   2.858   8.390  0.0569 -0.4163  0.6046
 6978TIP3    H142493   1.520   2.917   8.382  0.7969 -1.4587 -0.3320
 6978TIP3    H242494   1.390   2.879   8.315 -1.0187  0.8752  1.6929
 6979TIP3   OH242495   1.695   1.573   0.352  0.0626  0.1359 -0.1103
 6979TIP3    H142496   1.773   1.543   0.305 -0.0554 -0.0404 -0.1921
 6979TIP3    H242497   1.728   1.600   0.437  0.3502  0.8673 -0.4392
 6980TIP3   OH242498   3.850   3.341   2.184  0.3343 -0.1430 -0.1505
 6980TIP3    H142499   3.936   3.326   2.146 -0.0973 -0.0604 -1.2109
 6980TIP3    H242500   3.808   3.404   2.124  0.1454  1.1473  1.2646
 6981TIP3   OH242501   3.945   2.792   6.866 -0.2339 -0.0084  0.7741
 6981TIP3    H142502   3.866   2.774   6.814 -0.7508  0.3982  1.3960
 6981TIP3    H242503   4.001   2.841   6.806 -1.1975  1.2427  0.8483
 6982TIP3   OH242504   5.220   3.913   8.126  0.6867  0.1562  0.7113
 6982TIP3    H142505   5.280   3.944   8.193  0.5844 -0.1603  0.9542
 6982TIP3    H242506   5.153   3.865   8.174 -0.3915  1.4625  0.5567
 6983TIP3   OH242507   3.246   1.071   6.829  0.3361  0.5812 -0.3275
 6983TIP3    H142508   3.275   0.992   6.874 -0.7361  0.6412  0.4942
 6983TIP3    H242509   3.151   1.063   6.824  0.1539  2.0707  0.2604
 6984TIP3   OH242510   3.548   2.188   7.026 -0.4351 -0.4130  0.5143
 6984TIP3    H142511   3.619   2.219   6.970 -1.6444 -0.9554 -1.4543
 6984TIP3    H242512   3.532   2.260   7.087  0.4379  0.5571 -0.3652
 6985TIP3   OH242513   0.662   2.641   2.548  0.4099 -0.3483 -0.6870
 6985TIP3    H142514   0.677   2.705   2.618  1.1773  0.2730 -1.3939
 6985TIP3    H242515   0.569   2.619   2.556  0.5741 -0.6456  0.8076
 6986TIP3   OH242516   0.234   0.887   1.048  0.0807 -0.5346  0.0365
 6986TIP3    H142517   0.299   0.951   1.020  0.3015 -0.2222  1.2167
 6986TIP3    H242518   0.248   0.812   0.989  0.7861 -0.0659 -0.4124
 6987TIP3   OH242519   4.662   1.952   8.055 -0.8326  0.2139  0.1207
 6987TIP3    H142520   4.684   1.979   8.144  1.0726 -0.3175 -0.1542
 6987TIP3    H242521   4.619   1.867   8.065  0.7673 -0.5966  0.4833
 6988TIP3   OH242522   1.890   0.720   1.491 -0.3583  0.1390 -0.2870
 6988TIP3    H142523   1.943   0.697   1.415  0.8947  0.6939  0.3892
 6988TIP3    H242524   1.895   0.816   1.495 -0.5880  0.1265  0.3667
 6989TIP3   OH242525   3.154   4.265   0.222  0.4343  0.1802 -0.5710
 6989TIP3    H142526   3.191   4.270   0.134  0.2088 -0.0072 -0.6788
 6989TIP3    H242527   3.092   4.192   0.218  0.0513  0.4891 -0.3979
 6990TIP3   OH242528   3.496   4.424   1.774 -0.3709  0.3901 -0.1096
 6990TIP3    H142529   3.559   4.366   1.732 -1.1690  0.0047 -0.8133
 6990TIP3    H242530   3.463   4.373   1.848  0.5671  0.8245  0.6286
 6991TIP3   OH242531   1.661   5.004   7.314 -0.2057  0.4109  0.1628
 6991TIP3    H142532   1.600   4.967   7.378 -0.9426  1.4822  0.0977
 6991TIP3    H242533   1.717   5.062   7.364  0.4435 -0.1781  0.1331
 6992TIP3   OH242534   2.870   5.383   0.757  0.2331  0.1820 -0.7115
 6992TIP3    H142535   2.882   5.454   0.693  0.9950  0.7578  0.0507
 6992TIP3    H242536   2.800   5.414   0.814 -2.2365 -1.3939 -2.6737
 6993TIP3   OH242537   2.188   1.183   6.951  0.6270 -0.1491 -0.6047
 6993TIP3    H142538   2.174   1.092   6.978  1.8618 -0.6020 -1.4019
 6993TIP3    H242539   2.282   1.196   6.959  0.4434  1.1351 -0.3307
 6994TIP3   OH242540   3.655   4.639   8.276 -0.3845  0.8121 -0.1511
 6994TIP3    H142541   3.749   4.636   8.257 -0.4253 -0.7193 -0.2810
 6994TIP3    H242542   3.617   4.574   8.217 -1.2425 -0.0403  1.2971
 6995TIP3   OH242543   5.488   6.819   1.671  0.6509 -0.1145  0.1654
 6995TIP3    H142544   5.422   6.788   1.733  1.4539  0.2896  1.2487
 6995TIP3    H242545   5.571   6.791   1.709  1.0877 -1.7819 -1.8234
 6996TIP3   OH242546   0.795   0.743   0.315  0.0471  0.5257  0.1205
 6996TIP3    H142547   0.719   0.801   0.321 -0.4441 -0.1062  0.0958
 6996TIP3    H242548   0.761   0.662   0.276  0.6261  0.0532  0.5698
 6997TIP3   OH242549   2.336   4.416   8.155 -0.0302  0.0335  0.0556
 6997TIP3    H142550   2.326   4.321   8.145  0.6463 -0.1141  0.6588
 6997TIP3    H242551   2.429   4.428   8.176 -0.0879  0.8414 -0.1220
 6998TIP3   OH242552   4.560   2.500   1.333  0.0326  0.1245 -0.0389
 6998TIP3    H142553   4.492   2.566   1.326  0.6241  0.9066  1.2923
 6998TIP3    H242554   4.587   2.501   1.425  0.2587 -1.7767 -0.0327
 6999TIP3   OH242555   3.368   4.080   1.816 -0.2616 -0.7575  0.2908
 6999TIP3    H142556   3.325   4.165   1.830 -0.9128 -1.0638  0.1845
 6999TIP3    H242557   3.406   4.087   1.728  0.8986 -0.0761  0.8187
 7000TIP3   OH242558   5.613   6.564   8.265 -0.2212  0.8507 -0.3135
 7000TIP3    H142559   5.566   6.581   8.347  0.6583  1.6256  0.0460
 7000TIP3    H242560   5.636   6.471   8.270 -0.0632  0.9193  0.3895
 7001TIP3   OH242561   1.285   4.287   7.752 -1.0740 -0.7069  0.1206
 7001TIP3    H142562   1.274   4.341   7.674 -0.5325 -1.9019 -0.8202
 7001TIP3    H242563   1.380   4.277   7.761 -1.0191  0.8928  2.0161
 7002TIP3   OH242564   0.570   5.449   2.644 -0.0663  0.4057  0.5220
 7002TIP3    H142565   0.529   5.449   2.730 -0.6589 -0.0237  0.2464
 7002TIP3    H242566   0.661   5.424   2.661 -0.7446 -2.1359  0.7771
 7003TIP3   OH242567   5.001   6.389   1.165  0.1810  0.1487 -0.6136
 7003TIP3    H142568   5.047   6.309   1.191  0.7536  0.1695 -1.5102
 7003TIP3    H242569   4.943   6.361   1.094 -2.1250 -0.1163  1.2485
 7004TIP3   OH242570   0.230   2.541   0.517 -0.1332  0.0129 -0.1384
 7004TIP3    H142571   0.217   2.453   0.552  1.4009 -0.0539  0.3440
 7004TIP3    H242572   0.228   2.531   0.422 -3.6196  0.0759 -0.1891
 7005TIP3   OH242573   5.700   4.305   8.077  0.2357 -0.6203  0.2985
 7005TIP3    H142574   5.699   4.372   8.145 -0.8757 -0.1778 -0.1243
 7005TIP3    H242575   5.759   4.238   8.110  0.4129 -0.0022  1.2898
 7006TIP3   OH242576   3.953   1.380   0.066  0.8762  0.2855 -0.3636
 7006TIP3    H142577   3.858   1.373   0.054  0.5708  2.0257  0.6203
 7006TIP3    H242578   3.966   1.373   0.160  1.3709  2.6988 -0.1714
 7007TIP3   OH242579   3.303   2.862   0.382 -0.2072 -0.0942  0.7741
 7007TIP3    H142580   3.296   2.771   0.354 -0.8767  0.0594  0.4279
 7007TIP3    H242581   3.361   2.903   0.319 -2.2305  0.4154 -0.8798
 7008TIP3   OH242582   3.544   2.810   1.054  0.7423 -0.3722 -0.7890
 7008TIP3    H142583   3.523   2.873   0.985  0.1118  0.8317  0.4604
 7008TIP3    H242584   3.639   2.804   1.053  1.1005  2.8348  0.8787
 7009TIP3   OH242585   4.791   3.152   2.311 -0.2798  0.2035  0.2567
 7009TIP3    H142586   4.801   3.063   2.278 -0.0442  0.1082  0.5904
 7009TIP3    H242587   4.741   3.143   2.392  1.3216  0.1870  1.2784
 7010TIP3   OH242588   6.574   5.857   0.218  0.1338  0.3559  0.0033
 7010TIP3    H142589   6.579   5.891   0.307 -0.6202  0.5099 -0.0108
 7010TIP3    H242590   6.481   5.840   0.203  0.5047 -2.3684  0.2489
 7011TIP3   OH242591   6.224   0.073   2.257  0.3419  0.7689  0.4056
 7011TIP3    H142592   6.135   0.054   2.229  0.0054  2.4078  0.2787
 7011TIP3    H242593   6.244   0.006   2.323  0.1781 -1.5385 -1.7354
 7012TIP3   OH242594   3.624   1.803   2.508 -0.0202 -0.5080  0.0986
 7012TIP3    H142595   3.685   1.871   2.536  1.2707 -2.0364  1.1538
 7012TIP3    H242596   3.662   1.768   2.428 -1.0753  0.4540 -0.8664
 7013TIP3   OH242597   0.178   3.295   7.631 -0.2141  0.0684 -0.3369
 7013TIP3    H142598   0.173   3.224   7.694  2.7663 -1.2016 -1.3814
 7013TIP3    H242599   0.234   3.361   7.672  1.0510 -0.3980 -1.2439
 7014TIP3   OH242600   4.088   2.937   8.564  0.0531 -0.2674  0.9295
 7014TIP3    H142601   4.110   2.901   8.478 -0.3276 -0.0182  0.7244
 7014TIP3    H242602   4.171   2.971   8.598  0.1109  0.0825  0.4458
 7015TIP3   OH242603   4.159   0.189   0.472  0.3644  0.1978 -0.0131
 7015TIP3    H142604   4.175   0.097   0.494 -0.9496  0.1916  1.0396
 7015TIP3    H242605   4.066   0.192   0.449  0.2301  1.3796  0.6224
 7016TIP3   OH242606   4.338   4.457   1.523  0.0594  0.1168 -0.1393
 7016TIP3    H142607   4.359   4.521   1.590 -1.2139  0.5254 -0.0937
 7016TIP3    H242608   4.262   4.494   1.478  1.2084  0.1350 -2.1947
 7017TIP3   OH242609   4.592   6.395   1.072  0.3705 -0.5783  0.6201
 7017TIP3    H142610   4.679   6.358   1.058  0.1531 -0.1699 -2.3202
 7017TIP3    H242611   4.573   6.443   0.992 -2.2413  0.0604  1.5346
 7018TIP3   OH242612   6.187   3.748   2.040  0.3880 -0.1517 -0.0225
 7018TIP3    H142613   6.149   3.689   2.105  1.5994  0.6845  1.5145
 7018TIP3    H242614   6.251   3.695   1.993  1.4728 -0.1066  1.3490
 7019TIP3   OH242615   0.799   2.745   0.992  0.5915  0.8388 -0.3195
 7019TIP3    H142616   0.739   2.670   0.996  1.9770 -0.3993 -1.5701
 7019TIP3    H242617   0.876   2.716   1.041  1.7381  0.8240 -2.0796
 7020TIP3   OH242618   2.816   2.835   1.218 -0.1392  0.1718 -0.0469
 7020TIP3    H142619   2.902   2.795   1.232 -0.7649 -1.5026 -0.6769
 7020TIP3    H242620   2.813   2.854   1.124 -0.7650 -0.5954 -0.1948
 7021TIP3   OH242621   3.161   3.411   7.997  0.1669  0.3166 -0.1025
 7021TIP3    H142622   3.251   3.378   8.000  0.4760  0.7905 -2.3030
 7021TIP3    H242623   3.119   3.359   7.929 -2.1171 -1.7501  2.6507
 7022TIP3   OH242624   2.265   2.290   0.471  0.0496  0.5798 -0.1210
 7022TIP3    H142625   2.280   2.281   0.565 -0.8184 -1.1553 -0.0972
 7022TIP3    H242626   2.339   2.246   0.431 -0.5018 -0.3057 -0.1907
 7023TIP3   OH242627   2.647   5.043   1.645 -0.6108 -0.5211 -0.0625
 7023TIP3    H142628   2.739   5.023   1.658 -0.8526 -0.9523  1.1119
 7023TIP3    H242629   2.624   5.001   1.562  0.0474 -1.0792  0.0399
 7024TIP3   OH242630   0.846   4.408   0.433 -0.0583 -0.4161 -0.6622
 7024TIP3    H142631   0.875   4.495   0.408 -0.9308  0.3460  0.8199
 7024TIP3    H242632   0.842   4.359   0.351  0.2825  0.9827 -1.5467
 7025TIP3   OH242633   5.596   5.122   7.614 -0.3043  0.3725 -0.4445
 7025TIP3    H142634   5.665   5.131   7.547  0.6377 -2.3033  0.0502
 7025TIP3    H242635   5.644   5.102   7.694 -1.6211 -0.5233  0.1345
 7026TIP3   OH242636   1.438   5.116   1.654  0.4889 -0.1003 -0.1340
 7026TIP3    H142637   1.407   5.197   1.694  1.4892 -0.2471  1.0272
 7026TIP3    H242638   1.412   5.122   1.562 -0.5790  0.9400  0.2122
 7027TIP3   OH242639   2.166   4.442   1.624 -1.0228  0.3455  0.4631
 7027TIP3    H142640   2.179   4.458   1.531 -0.3908 -0.2210  0.4507
 7027TIP3    H242641   2.103   4.370   1.627 -0.1636 -0.4182  0.4511
 7028TIP3   OH242642   5.726   1.624   8.570 -0.1764  0.6890  0.2085
 7028TIP3    H142643   5.631   1.626   8.587 -0.1402  2.8243  0.4679
 7028TIP3    H242644   5.751   1.534   8.586 -2.0513  0.2264  0.8403
 7029TIP3   OH242645   3.325   1.786   7.941 -0.0334  0.0076 -0.1440
 7029TIP3    H142646   3.279   1.842   7.879 -1.4274 -0.1136  0.7423
 7029TIP3    H242647   3.417   1.790   7.914 -0.3067  1.6117 -0.9302
 7030TIP3   OH242648   3.890   0.615   7.631 -0.2168 -0.0454  0.4426
 7030TIP3    H142649   3.954   0.642   7.566 -0.2984  1.6441  0.9880
 7030TIP3    H242650   3.880   0.693   7.687 -0.6424 -1.2080  2.0510
 7031TIP3   OH242651   0.931   5.221   2.377  0.7966  0.1515  0.5979
 7031TIP3    H142652   0.884   5.139   2.393  0.4235  0.1234 -0.5463
 7031TIP3    H242653   0.963   5.247   2.463 -0.0591 -0.6017  1.1683
 7032TIP3   OH242654   0.180   0.968   1.587  0.2058 -0.3168 -0.9806
 7032TIP3    H142655   0.252   0.906   1.576 -0.3615 -1.2875  0.5459
 7032TIP3    H242656   0.134   0.965   1.503  1.5948 -0.0725 -1.7994
 7033TIP3   OH242657   4.773   3.013   1.584 -0.3600  0.1243  0.4761
 7033TIP3    H142658   4.801   2.975   1.667 -0.7357 -0.7418  0.2134
 7033TIP3    H242659   4.743   3.101   1.607  0.3910  0.2190  1.1131
 7034TIP3   OH242660   3.460   4.812   6.963  0.3769 -0.4164  0.4510
 7034TIP3    H142661   3.509   4.733   6.988  1.7184  0.7201  1.6290
 7034TIP3    H242662   3.517   4.884   6.989 -1.4517  0.9751  0.7923
 7035TIP3   OH242663   5.298   2.821   1.893 -0.0482 -0.1325  0.4753
 7035TIP3    H142664   5.289   2.874   1.814  3.3623 -0.1785 -0.1104
 7035TIP3    H242665   5.244   2.743   1.877 -1.2049  0.8806 -0.7666
 7036TIP3   OH242666   0.046   5.743   8.530 -0.0282 -0.2087 -0.2309
 7036TIP3    H142667   0.117   5.785   8.579 -0.7559  0.4349  0.3022
 7036TIP3    H242668   0.052   5.782   8.443 -0.4818  0.7836  0.1613
 7037TIP3   OH242669   3.591   3.157   1.515  0.6467 -0.4925 -0.2621
 7037TIP3    H142670   3.597   3.074   1.467 -0.0488 -2.9690  3.5093
 7037TIP3    H242671   3.651   3.146   1.588  0.3973  2.3369  0.4766
 7038TIP3   OH242672   0.615   1.095   7.334  0.2112 -0.0888 -0.2520
 7038TIP3    H142673   0.649   1.011   7.303  0.3335 -0.2165  0.2108
 7038TIP3    H242674   0.549   1.120   7.269 -0.6198 -1.0916  0.1694
 7039TIP3   OH242675   3.670   3.396   8.179 -0.5187 -0.3842  0.3356
 7039TIP3    H142676   3.622   3.317   8.206 -1.1686 -1.0589 -2.3754
 7039TIP3    H242677   3.675   3.388   8.083  3.0027  0.8626  0.2945
 7040TIP3   OH242678   3.864   3.374   2.727  0.2720 -0.1238 -0.3577
 7040TIP3    H142679   3.910   3.345   2.649 -0.9186 -1.9503 -0.4555
 7040TIP3    H242680   3.780   3.407   2.695 -0.3062 -1.0782  0.1401
 7041TIP3   OH242681   2.513   1.669   1.281  0.0882  0.1526  0.4836
 7041TIP3    H142682   2.595   1.679   1.330 -0.4959  0.2624  1.4607
 7041TIP3    H242683   2.455   1.735   1.317  0.0849  1.2077 -1.3778
 7042TIP3   OH242684   5.387   5.872   0.045  0.7149  0.8394  0.1798
 7042TIP3    H142685   5.341   5.794   0.016  0.0083  1.2205  0.2413
 7042TIP3    H242686   5.464   5.839   0.092  0.6590  0.1979 -0.1698
 7043TIP3   OH242687   6.128   2.476   0.598 -1.2406  0.3731 -0.5913
 7043TIP3    H142688   6.165   2.442   0.680 -3.0309  1.1260  0.5993
 7043TIP3    H242689   6.130   2.402   0.538 -0.0449 -0.2509  0.1651
 7044TIP3   OH242690   2.881   2.469   8.541  0.6732 -0.3268 -0.0700
 7044TIP3    H142691   2.811   2.510   8.591 -2.4553 -2.4169 -2.3097
 7044TIP3    H242692   2.915   2.539   8.485 -1.0129  0.3917 -0.2638
 7045TIP3   OH242693   0.433   1.077   1.355 -0.3239 -0.7796 -0.6118
 7045TIP3    H142694   0.342   1.050   1.371 -0.4264 -1.3917 -1.9967
 7045TIP3    H242695   0.471   1.003   1.308  0.4260  0.1074 -1.4423
 7046TIP3   OH242696   4.951   2.718   0.006  0.0053 -0.2244 -0.4443
 7046TIP3    H142697   5.001   2.799   0.015  0.1742 -0.3999  0.2578
 7046TIP3    H242698   4.978   2.664   0.080 -1.3587 -0.2545  0.0630
 7047TIP3   OH242699   0.908   5.670   7.763 -0.1366  0.3313  0.2766
 7047TIP3    H142700   0.969   5.646   7.833 -2.6080 -2.4002  1.7443
 7047TIP3    H242701   0.881   5.759   7.784  0.1270  0.0230  2.1156
 7048TIP3   OH242702   2.524   3.570   2.520 -0.8516 -0.0097 -0.0530
 7048TIP3    H142703   2.567   3.518   2.588  0.7212  0.0344 -0.9562
 7048TIP3    H242704   2.527   3.515   2.441 -1.6074  0.3932 -0.3816
 7049TIP3   OH242705   1.552   6.772   8.221  0.2140 -0.0616 -0.0627
 7049TIP3    H142706   1.536   6.678   8.215 -0.6701  0.0771  0.0738
 7049TIP3    H242707   1.477   6.813   8.178  0.6804  0.5858 -0.2887
 7050TIP3   OH242708   3.165   6.742   7.412  0.7890  0.0459  0.2632
 7050TIP3    H142709   3.138   6.651   7.425  2.2304 -0.3159  0.9234
 7050TIP3    H242710   3.113   6.772   7.336  0.1557 -1.2455  0.1562
 7051TIP3   OH242711   5.342   0.178   2.079  0.6719 -0.0291  0.2734
 7051TIP3    H142712   5.372   0.135   2.159  1.4579 -0.6836 -0.3573
 7051TIP3    H242713   5.422   0.193   2.028  0.2499  0.8746 -0.1612
 7052TIP3   OH242714   1.893   6.306   8.565  0.5003  0.3693  0.0767
 7052TIP3    H142715   1.925   6.259   8.488 -2.4860 -0.9536 -0.5198
 7052TIP3    H242716   1.805   6.335   8.540 -0.3779  0.3273  2.8264
 7053TIP3   OH242717   3.254   0.397   7.396  0.1015  0.3016  0.7818
 7053TIP3    H142718   3.218   0.313   7.367  0.9590  0.3095 -0.3607
 7053TIP3    H242719   3.318   0.373   7.462  2.0003 -0.1771 -1.1261
 7054LIG     O142720   1.760   6.735   6.375 -0.1587  0.1821 -0.2079
 7054LIG     O242721   1.558   6.863   6.490  0.5876 -0.0017 -0.0137
 7054LIG     O342722   1.947   6.880   6.573  0.4467 -0.4221 -0.5895
 7054LIG     O442723   1.347   6.826   6.601 -0.6723  0.2077 -0.0098
 7054LIG     O542724   1.701   6.838   6.741 -0.6827  0.1185  0.7761
 7054LIG     O642725   1.532   6.885   6.981  0.4008 -0.3720  0.4918
 7054LIG     O742726   1.237   6.842   6.960 -0.1719  0.2084 -0.2898
 7054LIG     O842727   1.114   6.988   6.684  0.5459  0.7049  0.2953
 7054LIG     O942728   1.028   6.780   6.720  0.1381 -0.0127 -0.0746
 7054LIG      N42729   1.741   6.942   5.908  0.0098  0.2463 -0.1775
 7054LIG     C142730   1.697   6.823   6.173  0.1250 -1.0270  0.1468
 7054LIG     C242731   1.587   6.921   6.097 -0.8080  0.0690 -0.3022
 7054LIG     C342732   1.645   6.741   6.287  0.4582  0.1895  0.3550
 7054LIG     C442733   1.675   7.018   6.013  0.5183 -0.8810  0.1213
 7054LIG     C542734   1.795   6.751   6.068  0.5068 -1.0011  0.0868
 7054LIG     C642735   1.800   6.909   6.235  0.2363 -0.7888 -0.8115
 7054LIG     C742736   1.770   7.110   6.095  0.2119  0.1791 -0.0305
 7054LIG     C842737   1.848   6.852   5.961  0.2864  0.1573  0.5237
 7054LIG     C942738   1.524   6.804   6.365 -0.3105  0.4809  0.7692
 7054LIG    C1042739   1.838   7.043   6.209  0.4422  0.0063 -0.2884
 7054LIG    C1142740   1.497   6.984   6.195  0.5643 -1.5873 -0.1467
 7054LIG    C1242741   1.830   6.855   6.361 -0.4777  0.8712  0.2058
 7054LIG    C1342742   1.467   6.934   6.315  0.0246 -0.1233  0.5057
 7054LIG    C1442743   1.776   7.011   5.783 -0.7496 -0.0790  0.3963
 7054LIG    C1542744   1.926   7.114   6.292 -0.1789 -0.4889 -0.4929
 7054LIG    C1642745   1.918   6.930   6.446 -0.1529 -0.2662  0.2964
 7054LIG    C1742746   1.956   7.062   6.419 -0.2730 -0.2669 -0.1343
 7054LIG    C1842747   1.494   6.813   6.611  1.3018  0.0290  0.0891
 7054LIG    C1942748   1.562   6.872   6.735  0.0657  0.0710 -0.7166
 7054LIG    C2042749   1.481   6.826   6.863  0.4260  0.4248 -0.6062
 7054LIG    C2142750   1.326   6.861   6.849  0.2311  0.2143  0.6017
 7054LIG    C2242751   1.272   6.796   6.721  0.4360  0.2693  0.1340
 7054LIG    C2342752   1.128   6.847   6.704  0.1514 -0.1278  0.8047
 7054LIG     H142753   1.527   6.854   6.032 -2.4469  1.9980 -0.8599
 7054LIG     H242754   1.619   6.635   6.265 -1.4876  0.4963  1.0055
 7054LIG     H342755   1.607   7.088   5.958  3.3877  1.7873 -0.3311
 7054LIG     H442756   1.735   6.672   6.018  0.7034 -0.0123 -1.7956
 7054LIG     H542757   1.876   6.698   6.124  0.4974  1.2670  2.4156
 7054LIG     H642758   1.707   7.193   6.134  0.3596  0.1112  0.3546
 7054LIG     H742759   1.844   7.154   6.025 -0.1977 -2.1459 -2.0745
 7054LIG     H842760   1.932   6.899   6.018  0.8643 -2.4194  1.9749
 7054LIG     H942761   1.887   6.792   5.876  1.5242  1.5337  0.0763
 7054LIG    H1042762   1.438   6.734   6.381  1.0586 -0.6459  4.1558
 7054LIG    H1142763   1.439   7.071   6.161  0.9122 -0.5768  1.7060
 7054LIG    H1242764   1.389   6.980   6.377  0.6839 -1.8950  2.7983
 7054LIG    H1342765   1.824   6.937   5.715 -0.5606  0.6164 -0.2422
 7054LIG    H1442766   1.851   7.092   5.796  1.2668 -1.7249 -0.3052
 7054LIG    H1542767   1.686   7.052   5.732 -0.1594  1.4432  0.5388
 7054LIG    H1642768   1.948   7.219   6.286 -0.5945 -0.3081  0.6985
 7054LIG    H1742769   2.036   7.104   6.478 -1.2716  0.8797  0.4376
 7054LIG    H1842770   1.511   6.703   6.613 -0.0832 -0.1936  0.5132
 7054LIG    H1942771   1.557   6.983   6.736 -0.0720  0.0701 -1.0487
 7054LIG    H2042772   1.486   6.715   6.863  4.1958  0.4417 -1.6995
 7054LIG    H2142773   1.993   6.951   6.620  2.0005 -0.7591 -1.5308
 7054LIG    H2242774   1.335   6.970   6.830 -0.6997 -0.1891 -2.8930
 7054LIG    H2342775   1.260   6.685   6.728  0.4569  0.2990  0.6869
 7054LIG    H2442776   1.737   6.842   6.652 -0.5075 -3.3937  0.5255
 7054LIG    H2542777   1.469   6.852   7.045 -0.0372  1.8841  1.3175
 7054LIG    H2642778   1.253   6.924   7.008  0.0297 -0.7727  1.3889
 7054LIG    H2742779   1.020   6.998   6.698 -0.1847 -0.9584 -2.5880
   6.87095   6.87095   8.66514
