Title
42779
    1SAPS     N    1   5.185   3.908   7.229 -0.2094  0.2180 -0.3002
    1SAPS   HN1    2   5.209   3.929   7.130  0.8321  0.2788 -0.0459
    1SAPS   HN2    3   5.152   3.810   7.231  3.4418 -1.1591 -0.1377
    1SAPS   HN3    4   5.116   3.973   7.273  1.1852  2.5657 -1.4044
    1SAPS   C12    5   5.322   3.927   7.285  0.0850  0.2991 -0.6020
    1SAPS  H12A    6   5.351   4.027   7.256  0.7766  0.6625  1.2062
    1SAPS   C13    7   5.328   3.933   7.442 -0.1449  0.6117 -0.0188
    1SAPS  O13A    8   5.221   3.942   7.508  0.0692  0.2095  0.0392
    1SAPS  O13B    9   5.437   3.965   7.489 -0.0042  0.3268  0.0545
    1SAPS   C11   10   5.423   3.831   7.230 -0.1642  0.6911  0.6685
    1SAPS  H11A   11   5.385   3.729   7.253  0.5026  0.9733  3.2729
    1SAPS  H11B   12   5.526   3.845   7.271 -0.2254  0.9325  0.7401
    1SAPS     P   13   5.528   3.769   7.002  0.1757 -0.0789 -0.0762
    1SAPS   O13   14   5.597   3.857   6.906  0.2619 -0.2259  0.5938
    1SAPS   O14   15   5.628   3.697   7.092 -0.7364 -0.1768  0.3829
    1SAPS   O12   16   5.428   3.856   7.086  0.2841  0.7145  0.0149
    1SAPS   O11   17   5.434   3.668   6.931  0.3311 -0.0075 -0.6214
    1SAPS    C1   18   5.377   3.694   6.801  0.7548 -0.1834 -0.1328
    1SAPS    HA   19   5.281   3.637   6.805  0.1861  0.7716  0.0183
    1SAPS    HB   20   5.352   3.801   6.790 -0.2743 -0.4802 -0.8654
    1SAPS    C2   21   5.469   3.643   6.680 -0.0848  0.3590 -0.1223
    1SAPS    HS   22   5.564   3.698   6.697 -0.4806  0.0075  4.5247
    1SAPS   O21   23   5.399   3.651   6.553  0.6059  0.4480  0.0238
    1SAPS   C21   24   5.415   3.768   6.493  0.3203  0.3664 -0.2624
    1SAPS   O22   25   5.504   3.849   6.526  0.2562  0.1728  0.5916
    1SAPS   C22   26   5.326   3.775   6.364  0.0455  0.3870  0.1102
    1SAPS   H2R   27   5.296   3.672   6.334  3.0842 -0.4036 -0.5915
    1SAPS   H2S   28   5.231   3.825   6.393 -1.4711 -2.7635  1.0147
    1SAPS    C3   29   5.525   3.500   6.711  0.0224  0.2972 -0.4979
    1SAPS    HX   30   5.433   3.443   6.735  0.2344 -0.3763 -1.2485
    1SAPS    HY   31   5.566   3.500   6.814 -2.4638  2.3902  0.5932
    1SAPS   O31   32   5.595   3.434   6.607  0.0914 -0.4666  0.3339
    1SAPS   C31   33   5.719   3.484   6.587 -0.5940  0.3165 -0.5724
    1SAPS   O32   34   5.768   3.581   6.647 -0.4381  0.4537  0.0955
    1SAPS   C32   35   5.794   3.404   6.472  0.0207  0.1289 -0.0280
    1SAPS   H2X   36   5.723   3.339   6.418 -0.0801 -0.5262  0.8687
    1SAPS   H2Y   37   5.869   3.344   6.528  1.8639  2.6624  0.4031
    1SAPS   C23   38   5.408   3.841   6.252  0.3383 -0.0348 -0.1160
    1SAPS   H3R   39   5.508   3.795   6.236  0.2465  0.3954 -2.1768
    1SAPS   H3S   40   5.423   3.948   6.279 -1.5564  0.8180 -2.1446
    1SAPS   C24   41   5.331   3.847   6.115 -0.1459  0.4295 -1.2573
    1SAPS   H4R   42   5.248   3.919   6.134  1.1871  2.0347 -1.3360
    1SAPS   H4S   43   5.276   3.750   6.111 -1.1939  0.9516  0.0408
    1SAPS   C25   44   5.405   3.889   5.991 -0.3573 -0.6371 -0.4254
    1SAPS   H5R   45   5.477   3.971   6.005 -0.0419 -1.2787  2.5059
    1SAPS   C26   46   5.399   3.832   5.868  0.1445 -0.2143  0.5560
    1SAPS   H6R   47   5.449   3.888   5.788 -2.1521  1.2661  0.0768
    1SAPS   C27   48   5.312   3.723   5.815  0.3563  0.2323  0.7663
    1SAPS   H7R   49   5.277   3.670   5.906  1.4081  0.5788  1.3938
    1SAPS   H7S   50   5.367   3.644   5.759 -1.0175  0.2902 -0.7091
    1SAPS   C28   51   5.198   3.773   5.723  0.2424 -0.6201  0.2144
    1SAPS   H8R   52   5.110   3.808   5.777 -0.8044  1.3033 -2.5318
    1SAPS   C29   53   5.193   3.788   5.592 -0.5248 -0.1898  1.0461
    1SAPS   H9R   54   5.094   3.818   5.553 -0.4129 -0.4758  0.5350
    1SAPS  C210   55   5.295   3.742   5.488  0.7735 -0.1147 -0.4541
    1SAPS  H10R   56   5.265   3.659   5.420 -2.3796  0.5644 -0.0442
    1SAPS  H10S   57   5.380   3.694   5.541  1.4404 -1.6468 -2.7275
    1SAPS  C211   58   5.339   3.867   5.409 -0.1531 -0.3161 -0.4162
    1SAPS  H11R   59   5.425   3.923   5.450 -3.1749  2.6881  2.5503
    1SAPS  C212   60   5.275   3.911   5.299 -0.1697 -0.4764 -0.3071
    1SAPS  H12R   61   5.325   3.995   5.247  1.1874 -1.3005 -0.3814
    1SAPS  C213   62   5.159   3.851   5.229 -0.4385 -0.5181  0.2850
    1SAPS  H13R   63   5.113   3.768   5.287  0.5424 -1.4467 -0.2234
    1SAPS  H13S   64   5.195   3.798   5.138  0.3727 -0.8161  0.7757
    1SAPS  C214   65   5.056   3.956   5.191  0.1958  0.0322 -0.0069
    1SAPS  H14R   66   5.069   4.052   5.242 -0.7706 -0.1666  0.6488
    1SAPS  C215   67   4.963   3.938   5.095  0.0215  0.9473  0.1339
    1SAPS  H15R   68   4.893   4.022   5.086  0.4374  1.8707  3.7542
    1SAPS  C216   69   4.935   3.816   5.005  0.0075 -0.0086 -0.1385
    1SAPS  H16R   70   4.861   3.746   5.050  0.2958 -0.6366 -0.6179
    1SAPS  H16S   71   5.033   3.766   4.987  0.5238  1.5545 -1.8659
    1SAPS  C217   72   4.863   3.849   4.871 -1.3498 -0.5834  0.4384
    1SAPS  H17R   73   4.893   3.774   4.794  0.6678  1.1965 -0.5983
    1SAPS  H17S   74   4.899   3.946   4.832  2.3579 -2.1691 -0.5529
    1SAPS  C218   75   4.710   3.853   4.871  0.7439  0.6476 -0.2374
    1SAPS  H18R   76   4.664   3.918   4.948 -1.5023 -0.6611 -0.4100
    1SAPS  H18S   77   4.677   3.748   4.878  1.4327  0.4787  0.8225
    1SAPS  C219   78   4.665   3.914   4.739  0.6641 -0.1862 -0.0164
    1SAPS  H19R   79   4.702   3.846   4.659  1.3994 -0.2810  0.3925
    1SAPS  H19S   80   4.711   4.012   4.714 -0.9524  0.1374 -1.9217
    1SAPS  C220   81   4.512   3.922   4.721 -0.1248  0.0235 -0.0815
    1SAPS  H20R   82   4.466   3.823   4.699 -1.4622  0.5347  0.2822
    1SAPS  H20S   83   4.486   3.971   4.625  0.8294 -0.9389 -0.8513
    1SAPS  H20T   84   4.471   3.959   4.817  0.1485 -3.3544  1.4947
    1SAPS   C33   85   5.862   3.493   6.371  0.3226 -0.3127  0.6860
    1SAPS   H3X   86   5.922   3.577   6.413  0.4323  0.2006 -0.4481
    1SAPS   H3Y   87   5.784   3.529   6.300  0.2956 -0.2140  0.7652
    1SAPS   C34   88   5.969   3.416   6.288 -0.0862  0.3482  0.8506
    1SAPS   H4X   89   5.933   3.315   6.258  0.8038 -0.0015  0.9517
    1SAPS   H4Y   90   6.050   3.399   6.362 -0.5672 -1.1291  1.0672
    1SAPS   C35   91   6.031   3.488   6.170  0.3706 -0.3766 -0.4491
    1SAPS   H5X   92   5.950   3.545   6.119  0.8175 -0.9869 -1.9004
    1SAPS   H5Y   93   6.062   3.421   6.087  0.1411 -2.8464  1.3408
    1SAPS   C36   94   6.135   3.591   6.206 -0.5388 -0.0625 -0.2236
    1SAPS   H6X   95   6.235   3.547   6.186  0.5558  2.2971 -0.3859
    1SAPS   H6Y   96   6.114   3.601   6.315  1.0175 -2.2317  0.3274
    1SAPS   C37   97   6.132   3.716   6.120 -0.1662  0.1379 -0.5648
    1SAPS   H7X   98   6.212   3.785   6.156 -0.2883 -1.2057  2.6817
    1SAPS   H7Y   99   6.038   3.771   6.143  0.3521  0.1556  1.7753
    1SAPS   C38  100   6.140   3.697   5.969 -0.4450 -0.1542 -0.1838
    1SAPS   H8X  101   6.107   3.789   5.915  0.4193 -0.5954 -1.5213
    1SAPS   H8Y  102   6.086   3.609   5.927  1.4262 -1.2672 -0.3817
    1SAPS   C39  103   6.289   3.673   5.937  0.8408 -0.0277  0.9947
    1SAPS   H9X  104   6.327   3.582   5.989  3.2986 -1.3875 -2.7716
    1SAPS   H9Y  105   6.351   3.755   5.979  0.0908  1.0490  0.0678
    1SAPS  C310  106   6.314   3.675   5.788  0.1125 -0.6968 -0.0314
    1SAPS  H10X  107   6.276   3.770   5.747 -1.0635 -1.3024 -0.3890
    1SAPS  H10Y  108   6.251   3.595   5.744  1.5478 -1.0446 -1.5589
    1SAPS  C311  109   6.457   3.632   5.750 -0.0370 -0.2443 -0.2836
    1SAPS  H11X  110   6.492   3.532   5.785  0.8843 -0.4504 -1.7363
    1SAPS  H11Y  111   6.527   3.700   5.803 -1.1087  0.6467  0.0278
    1SAPS  C312  112   6.468   3.638   5.599 -0.6030 -0.4850  0.3728
    1SAPS  H12X  113   6.408   3.552   5.563 -1.1385  0.9509 -2.3943
    1SAPS  H12Y  114   6.576   3.631   5.575 -1.0795  1.3518 -2.6808
    1SAPS  C313  115   6.405   3.763   5.532  0.5113 -0.6888 -0.9120
    1SAPS  H13X  116   6.432   3.852   5.593 -1.0352 -0.1255 -0.9799
    1SAPS  H13Y  117   6.294   3.754   5.537  0.3811  0.4274 -1.4528
    1SAPS  C314  118   6.462   3.775   5.389 -0.4590 -0.2850 -0.1331
    1SAPS  H14X  119   6.563   3.821   5.382 -0.0205 -1.2911 -0.7414
    1SAPS  H14Y  120   6.389   3.842   5.339  0.8260  2.1359  1.0383
    1SAPS  C315  121   6.488   3.643   5.315 -0.3361 -0.0595 -0.7453
    1SAPS  H15X  122   6.397   3.579   5.326 -0.2935 -0.3524 -1.9683
    1SAPS  H15Y  123   6.582   3.602   5.358 -0.3507  0.5886 -0.0769
    1SAPS  C316  124   6.497   3.663   5.166  0.7950 -0.0246  0.4999
    1SAPS  H16X  125   6.588   3.725   5.150  1.7491 -1.3097  0.7693
    1SAPS  H16Y  126   6.409   3.717   5.125  1.3637  0.1879 -0.4737
    1SAPS  C317  127   6.509   3.534   5.086 -0.9405 -0.0912  0.1741
    1SAPS  H17X  128   6.608   3.489   5.108 -0.9837  0.0609  0.6930
    1SAPS  H17Y  129   6.525   3.563   4.980  1.7812  1.1852  0.8254
    1SAPS  C318  130   6.401   3.426   5.091 -0.2150 -0.6002 -0.4859
    1SAPS  H18X  131   6.369   3.403   5.195  0.9305  0.6844  0.1737
    1SAPS  H18Y  132   6.448   3.331   5.057 -0.6416 -1.5173  1.3418
    1SAPS  H18Z  133   6.311   3.469   5.042  0.4501 -0.0162 -1.2226
    2SAPS     N  134   1.713   6.638   7.495  0.2661  0.3705  0.2417
    2SAPS   HN1  135   1.629   6.577   7.504  0.6145  0.0381  1.5523
    2SAPS   HN2  136   1.771   6.594   7.422  0.0256  0.7080 -0.1583
    2SAPS   HN3  137   1.765   6.640   7.585 -1.8274  0.5873  1.5320
    2SAPS   C12  138   1.691   6.779   7.458 -0.5791 -0.1507  0.1036
    2SAPS  H12A  139   1.602   6.823   7.499 -0.6389 -0.1557 -0.0193
    2SAPS   C13  140   1.812   6.872   7.495  0.2930  0.6196 -0.2569
    2SAPS  O13A  141   1.923   6.814   7.522 -0.0399  0.3269  0.1967
    2SAPS  O13B  142   1.796   6.991   7.495 -0.4255  0.7658  0.0805
    2SAPS   C11  143   1.678   6.774   7.301 -0.6604 -0.5682 -0.2605
    2SAPS  H11A  144   1.779   6.743   7.268 -0.6369  0.1482 -0.8970
    2SAPS  H11B  145   1.662   6.878   7.265  2.0318  0.7621  2.0092
    2SAPS     P  146   1.448   6.710   7.183 -0.3609  0.0479  1.0853
    2SAPS   O13  147   1.348   6.599   7.201  0.2088 -0.5481  0.2853
    2SAPS   O14  148   1.401   6.846   7.220 -0.0737  0.3824 -0.7741
    2SAPS   O12  149   1.584   6.673   7.257  0.9683 -0.3038 -0.0085
    2SAPS   O11  150   1.481   6.709   7.025  0.7471  0.3588  0.0902
    2SAPS    C1  151   1.617   6.701   6.987  0.2764  0.0759 -0.1932
    2SAPS    HA  152   1.676   6.776   7.043  0.3444 -0.1097 -0.0180
    2SAPS    HB  153   1.667   6.610   7.026 -1.8151  0.1759  3.0812
    2SAPS    C2  154   1.644   6.715   6.834  0.1177 -0.3738  0.1398
    2SAPS    HS  155   1.742   6.763   6.814 -0.1919 -0.7950 -2.8664
    2SAPS   O21  156   1.541   6.794   6.774  0.0008 -0.2072  0.3468
    2SAPS   C21  157   1.537   6.921   6.782 -0.1035  0.3252 -0.2629
    2SAPS   O22  158   1.610   6.997   6.847  0.7102  0.2961  0.4014
    2SAPS   C22  159   1.405   6.963   6.709 -0.7552  0.8936  0.3696
    2SAPS   H2R  160   1.389   6.916   6.610 -1.5283 -0.7107  1.2074
    2SAPS   H2S  161   1.329   6.930   6.783  2.8886 -3.1205  2.8089
    2SAPS    C3  162   1.632   6.565   6.775  0.2835 -0.7505 -0.8340
    2SAPS    HX  163   1.529   6.537   6.808  0.7896 -1.2617  0.3877
    2SAPS    HY  164   1.712   6.509   6.828  0.3131  0.4268  0.4410
    2SAPS   O31  165   1.649   6.563   6.635  0.6189 -0.6848  0.6074
    2SAPS   C31  166   1.713   6.453   6.583  0.0069 -0.7691  0.2144
    2SAPS   O32  167   1.772   6.373   6.653 -0.3736  0.2742 -0.1821
    2SAPS   C32  168   1.699   6.440   6.435  0.2750  0.0247  0.5422
    2SAPS   H2X  169   1.603   6.489   6.409 -0.8422 -2.0301  0.6740
    2SAPS   H2Y  170   1.692   6.334   6.403 -1.6120  0.1536  0.4381
    2SAPS   C23  171   1.404   7.116   6.676  0.8208  0.3418  0.4467
    2SAPS   H3R  172   1.402   7.174   6.771  0.1935  3.3827 -1.2858
    2SAPS   H3S  173   1.316   7.137   6.611  1.4054 -2.3268 -1.3519
    2SAPS   C24  174   1.529   7.151   6.589  0.2502 -0.1085  0.6435
    2SAPS   H4R  175   1.525   7.110   6.486 -1.0579  0.7896  0.3014
    2SAPS   H4S  176   1.613   7.112   6.651 -0.3068 -0.5308  1.1506
    2SAPS   C25  177   1.551   7.295   6.582 -0.4728 -0.6458  0.1826
    2SAPS   H5R  178   1.555   7.331   6.687 -1.2513 -1.1029  0.3740
    2SAPS   C26  179   1.552   7.373   6.473 -0.0485  0.0232 -0.2611
    2SAPS   H6R  180   1.573   7.479   6.490 -1.2074  0.6638 -2.4108
    2SAPS   C27  181   1.558   7.335   6.327 -0.2801 -0.2230  0.0243
    2SAPS   H7R  182   1.648   7.271   6.316 -0.2119  0.2136 -2.6135
    2SAPS   H7S  183   1.574   7.430   6.272  0.1997 -0.3203 -0.0059
    2SAPS   C28  184   1.433   7.262   6.274  0.0939 -0.3737  0.0577
    2SAPS   H8R  185   1.365   7.224   6.353  0.1532  0.4648  0.5312
    2SAPS   C29  186   1.405   7.244   6.141  0.0272  0.2471 -0.1445
    2SAPS   H9R  187   1.315   7.188   6.111  1.5040 -2.4902  0.2135
    2SAPS  C210  188   1.484   7.296   6.022  0.6668 -0.8227  1.0901
    2SAPS  H10R  189   1.488   7.228   5.935 -1.9710  0.1204  0.1284
    2SAPS  H10S  190   1.589   7.294   6.058  1.0889 -3.0452 -0.0873
    2SAPS  C211  191   1.438   7.429   5.979  0.2741 -0.0551 -0.2692
    2SAPS  H11R  192   1.387   7.486   6.058 -1.4060 -0.0977 -1.2748
    2SAPS  C212  193   1.443   7.482   5.858 -0.0940 -0.6255  0.0925
    2SAPS  H12R  194   1.396   7.582   5.850 -1.2318 -1.1321  0.2132
    2SAPS  C213  195   1.501   7.428   5.732  0.0295 -0.7065  0.1224
    2SAPS  H13R  196   1.561   7.335   5.747  0.3141 -0.6837 -0.7852
    2SAPS  H13S  197   1.568   7.505   5.686 -1.1907  1.0261  1.1401
    2SAPS  C214  198   1.392   7.378   5.633 -0.0965 -0.2614 -0.1587
    2SAPS  H14R  199   1.301   7.335   5.679  1.8285 -1.9238  2.3783
    2SAPS  C215  200   1.401   7.388   5.498  0.4653 -0.0767  0.4701
    2SAPS  H15R  201   1.315   7.357   5.438  1.1282 -0.4725 -0.2955
    2SAPS  C216  202   1.521   7.441   5.428 -0.3540 -0.1732 -0.5442
    2SAPS  H16R  203   1.607   7.393   5.480  0.9533  1.4498 -1.1002
    2SAPS  H16S  204   1.536   7.550   5.448  2.7781 -0.1326 -2.3408
    2SAPS  C217  205   1.525   7.419   5.277 -0.0736  0.1085  0.0071
    2SAPS  H17R  206   1.509   7.310   5.267  0.1730  0.0269  0.4775
    2SAPS  H17S  207   1.632   7.432   5.250 -0.0556 -0.2855 -0.1231
    2SAPS  C218  208   1.452   7.512   5.175  0.6372  0.0493  0.2808
    2SAPS  H18R  209   1.501   7.611   5.167  1.1842 -0.2134  0.3252
    2SAPS  H18S  210   1.344   7.518   5.200  0.5317  0.8553 -0.3597
    2SAPS  C219  211   1.446   7.441   5.044  0.6283 -0.8910  0.2970
    2SAPS  H19R  212   1.401   7.343   5.072  0.7571 -1.2939 -0.8381
    2SAPS  H19S  213   1.547   7.420   5.003  0.8578  1.7887 -0.6967
    2SAPS  C220  214   1.363   7.507   4.931  0.2097  0.6872  0.0799
    2SAPS  H20R  215   1.259   7.476   4.954  0.0473  2.4235  2.0392
    2SAPS  H20S  216   1.390   7.469   4.830  0.4997  0.4307  0.2514
    2SAPS  H20T  217   1.369   7.617   4.939  1.4601  0.5601  1.3401
    2SAPS   C33  218   1.811   6.491   6.344 -0.7740  0.3906  0.3815
    2SAPS   H3X  219   1.906   6.442   6.375 -0.0487  2.1343  1.0466
    2SAPS   H3Y  220   1.834   6.599   6.359 -1.7229  1.2712 -3.3769
    2SAPS   C34  221   1.788   6.450   6.196  0.0786 -0.5569  0.0555
    2SAPS   H4X  222   1.752   6.346   6.180 -0.1225 -1.0441  2.9897
    2SAPS   H4Y  223   1.886   6.466   6.146 -0.5665  0.1674 -1.0167
    2SAPS   C35  224   1.682   6.535   6.125  0.0390  0.0686  0.2198
    2SAPS   H5X  225   1.712   6.641   6.138  2.5272 -0.3178 -1.6043
    2SAPS   H5Y  226   1.581   6.527   6.172 -0.1999 -0.6585 -0.3912
    2SAPS   C36  227   1.685   6.517   5.963  0.7970 -0.0608 -0.2657
    2SAPS   H6X  228   1.622   6.442   5.912  0.6632 -0.7731  0.9164
    2SAPS   H6Y  229   1.790   6.488   5.937 -0.3847 -2.3244 -3.0321
    2SAPS   C37  230   1.646   6.651   5.906 -0.2180 -0.9068 -0.4857
    2SAPS   H7X  231   1.718   6.728   5.939  1.9258 -3.0979  0.2329
    2SAPS   H7Y  232   1.547   6.675   5.950 -0.0829 -1.6555  0.2491
    2SAPS   C38  233   1.650   6.647   5.752  0.7347  0.5380  0.0878
    2SAPS   H8X  234   1.596   6.563   5.704  1.9142  0.3833 -1.0318
    2SAPS   H8Y  235   1.749   6.610   5.716  0.9370  1.6698 -0.5347
    2SAPS   C39  236   1.613   6.783   5.692 -0.4856  0.0396 -0.4005
    2SAPS   H9X  237   1.686   6.861   5.721  0.0739 -0.9368  0.9140
    2SAPS   H9Y  238   1.510   6.805   5.727 -0.2206  0.4025  0.1656
    2SAPS  C310  239   1.605   6.768   5.531  0.3194 -0.1497 -0.8251
    2SAPS  H10X  240   1.507   6.721   5.507 -0.5776  1.1824  0.1127
    2SAPS  H10Y  241   1.676   6.699   5.480 -0.4061 -0.5970 -1.2465
    2SAPS  C311  242   1.621   6.910   5.470  0.1977 -0.6346 -0.1476
    2SAPS  H11X  243   1.725   6.942   5.493 -0.6163  2.0507  0.1531
    2SAPS  H11Y  244   1.546   6.971   5.524  0.1709  0.9437 -1.8582
    2SAPS  C312  245   1.600   6.925   5.325 -0.6366  0.2916 -0.1414
    2SAPS  H12X  246   1.671   6.866   5.263 -4.1533 -2.9523 -1.4625
    2SAPS  H12Y  247   1.617   7.030   5.293 -1.7193  0.2253 -0.9827
    2SAPS  C313  248   1.456   6.886   5.282 -1.0357 -0.3115  0.0323
    2SAPS  H13X  249   1.376   6.919   5.351 -0.4761  1.1049  0.0361
    2SAPS  H13Y  250   1.449   6.777   5.262  2.1393 -0.3262 -1.6528
    2SAPS  C314  251   1.414   6.957   5.147 -0.7521 -0.8983  0.3667
    2SAPS  H14X  252   1.468   6.909   5.063  1.9342  2.0950  0.1958
    2SAPS  H14Y  253   1.469   7.053   5.157  0.0280 -1.5360  2.9747
    2SAPS  C315  254   1.265   6.956   5.133  0.2229  0.1710 -0.0188
    2SAPS  H15X  255   1.214   7.005   5.218 -3.1803 -3.5496  0.4055
    2SAPS  H15Y  256   1.216   6.857   5.118 -1.7606  1.1676 -0.4497
    2SAPS  C316  257   1.226   7.053   5.018  0.5465 -0.9024  0.3108
    2SAPS  H16X  258   1.247   7.006   4.920 -1.2561  2.4693 -1.9170
    2SAPS  H16Y  259   1.282   7.149   5.022  1.0525 -1.2289  1.9062
    2SAPS  C317  260   1.076   7.077   5.006  0.1685 -0.0286  0.5210
    2SAPS  H17X  261   1.028   7.115   5.099 -1.3348 -0.4969 -0.0280
    2SAPS  H17Y  262   1.035   6.974   4.995  2.1242 -0.7551 -0.3444
    2SAPS  C318  263   1.040   7.163   4.886  0.4755  0.9797  0.4751
    2SAPS  H18X  264   0.931   7.164   4.862  0.5155  2.3056  0.2380
    2SAPS  H18Y  265   1.096   7.125   4.798 -1.1819 -0.7253  0.1045
    2SAPS  H18Z  266   1.062   7.269   4.912 -0.2474  1.1851  0.2787
    3SAPS     N  267   6.406   4.982   7.035  0.3210 -0.7542 -0.3849
    3SAPS   HN1  268   6.490   4.921   7.036  0.5206 -0.4841 -0.6010
    3SAPS   HN2  269   6.323   4.920   7.023  0.2205 -0.9014  0.9723
    3SAPS   HN3  270   6.428   5.029   6.945  1.0643  0.3701  0.3639
    3SAPS   C12  271   6.404   5.072   7.153 -0.7149 -0.6214 -0.5773
    3SAPS  H12A  272   6.322   5.140   7.139  0.3648  0.8808  0.2162
    3SAPS   C13  273   6.390   4.998   7.291 -0.8066 -0.3823 -0.2837
    3SAPS  O13A  274   6.378   4.871   7.300  0.2128  0.1158 -0.3447
    3SAPS  O13B  275   6.379   5.074   7.391  1.4760  0.4370  0.9838
    3SAPS   C11  276   6.538   5.146   7.164  0.0423  0.3998 -0.1207
    3SAPS  H11A  277   6.619   5.080   7.202 -0.4041 -0.6748 -1.0186
    3SAPS  H11B  278   6.527   5.230   7.237 -0.9966 -0.7835  1.1348
    3SAPS     P  279   6.687   5.308   7.023  0.4130 -0.3959 -0.3586
    3SAPS   O13  280   6.647   5.419   7.113  0.4288 -0.2448 -0.2616
    3SAPS   O14  281   6.813   5.242   7.055 -0.0033 -0.2798  0.3805
    3SAPS   O12  282   6.572   5.203   7.035 -0.4613  0.2316  0.0821
    3SAPS   O11  283   6.685   5.361   6.881  0.2249  0.3358  0.6500
    3SAPS    C1  284   6.610   5.311   6.763 -0.8652 -0.7844 -0.8166
    3SAPS    HA  285   6.677   5.319   6.675  0.4122  0.4614  0.2280
    3SAPS    HB  286   6.591   5.203   6.781 -0.0738 -0.7440  0.3365
    3SAPS    C2  287   6.483   5.395   6.733  0.4933  0.7337 -0.4778
    3SAPS    HS  288   6.431   5.414   6.829  0.4882 -1.2601 -0.0350
    3SAPS   O21  289   6.400   5.319   6.641 -0.2745 -0.5314  0.4149
    3SAPS   C21  290   6.347   5.211   6.688  0.3538  0.0417  0.4500
    3SAPS   O22  291   6.340   5.178   6.802  0.3548 -0.0329 -0.9066
    3SAPS   C22  292   6.285   5.136   6.571 -0.1716  0.9661 -0.3088
    3SAPS   H2R  293   6.235   5.206   6.501  2.0264  1.9600 -0.9634
    3SAPS   H2S  294   6.369   5.090   6.514  1.2112  1.7445  1.0122
    3SAPS    C3  295   6.515   5.540   6.671 -0.0444  0.1857  0.3064
    3SAPS    HX  296   6.603   5.578   6.728  1.4369 -1.8159 -0.5239
    3SAPS    HY  297   6.433   5.610   6.697  2.2039  4.5877 -3.1313
    3SAPS   O31  298   6.539   5.523   6.528  0.8797  0.2138 -0.0544
    3SAPS   C31  299   6.428   5.553   6.455 -0.9352 -0.2272  0.2633
    3SAPS   O32  300   6.326   5.598   6.499 -0.3535 -0.3828  0.2499
    3SAPS   C32  301   6.460   5.533   6.308 -0.6905 -0.4615 -0.1801
    3SAPS   H2X  302   6.434   5.429   6.278 -0.9109 -0.3559 -0.3660
    3SAPS   H2Y  303   6.566   5.562   6.293 -0.8323  0.4146  0.4331
    3SAPS   C23  304   6.179   5.027   6.620  0.2935 -0.7181  0.0050
    3SAPS   H3R  305   6.095   5.081   6.668  1.2718 -1.0130  2.2105
    3SAPS   H3S  306   6.228   4.970   6.702  3.7503  5.1855  2.7266
    3SAPS   C24  307   6.123   4.936   6.505  0.7025  0.8736  0.1440
    3SAPS   H4R  308   6.077   4.994   6.422 -3.3809 -1.5341  0.4015
    3SAPS   H4S  309   6.037   4.877   6.543  1.0542  0.1726 -0.1204
    3SAPS   C25  310   6.229   4.844   6.462  0.1057 -0.4030  0.0949
    3SAPS   H5R  311   6.246   4.770   6.542  0.0526  0.2632  0.7345
    3SAPS   C26  312   6.301   4.827   6.349 -0.1503  1.1259 -0.1379
    3SAPS   H6R  313   6.387   4.759   6.344 -0.0547  1.3263 -1.4138
    3SAPS   C27  314   6.294   4.919   6.230  0.2117  0.5737 -0.1394
    3SAPS   H7R  315   6.349   5.008   6.267  0.3622 -0.1256  1.3881
    3SAPS   H7S  316   6.189   4.954   6.223 -0.3130 -1.1707 -1.7624
    3SAPS   C28  317   6.342   4.879   6.092 -0.1873  0.3207 -0.7765
    3SAPS   H8R  318   6.309   4.777   6.067  0.8456  0.0565 -1.1221
    3SAPS   C29  319   6.427   4.939   6.007 -0.0693  0.0453  0.4638
    3SAPS   H9R  320   6.445   4.883   5.914 -1.3697  1.6602 -0.8275
    3SAPS  C210  321   6.509   5.066   6.014 -0.3334 -0.2080  0.2817
    3SAPS  H10R  322   6.601   5.047   5.955 -0.7993  2.0200 -1.2870
    3SAPS  H10S  323   6.544   5.084   6.117 -2.2088 -0.8210  1.0787
    3SAPS  C211  324   6.431   5.191   5.970 -0.7582 -0.2748  0.5282
    3SAPS  H11R  325   6.388   5.240   6.058 -0.5334  0.1808  0.3896
    3SAPS  C212  326   6.425   5.258   5.849  0.0886 -0.0588 -0.0514
    3SAPS  H12R  327   6.347   5.334   5.832  1.2816  1.0317 -0.8477
    3SAPS  C213  328   6.474   5.207   5.721  0.1762  0.1434  0.2754
    3SAPS  H13R  329   6.396   5.133   5.694  2.2478 -2.0553 -0.0309
    3SAPS  H13S  330   6.569   5.150   5.715  0.6866  0.9454  0.5608
    3SAPS  C214  331   6.483   5.322   5.621 -0.0420  0.4559 -0.2290
    3SAPS  H14R  332   6.565   5.391   5.649  0.0374  0.4134 -0.3571
    3SAPS  C215  333   6.427   5.326   5.502  0.4751  0.4858  1.1386
    3SAPS  H15R  334   6.460   5.408   5.438  0.6902  0.2589  0.9544
    3SAPS  C216  335   6.326   5.236   5.440 -0.6146 -0.4683  0.4083
    3SAPS  H16R  336   6.229   5.285   5.419 -0.1195 -0.4076 -2.1196
    3SAPS  H16S  337   6.290   5.161   5.514  1.4721 -2.1547 -0.1587
    3SAPS  C217  338   6.368   5.158   5.312  0.1274 -0.1349 -0.0991
    3SAPS  H17R  339   6.411   5.232   5.242  2.9466 -0.7144  0.9111
    3SAPS  H17S  340   6.267   5.127   5.276 -0.0180  1.3552 -1.0691
    3SAPS  C218  341   6.468   5.049   5.338  0.1564  0.1748 -0.5775
    3SAPS  H18R  342   6.560   5.089   5.387 -0.4299  1.8012 -0.7336
    3SAPS  H18S  343   6.499   5.020   5.236 -0.0902 -0.1040 -0.5719
    3SAPS  C219  344   6.406   4.925   5.412  0.0286 -0.3695  0.2860
    3SAPS  H19R  345   6.354   4.951   5.506  1.1270  1.1935  0.4998
    3SAPS  H19S  346   6.319   4.898   5.348 -0.1122 -1.9086  1.0691
    3SAPS  C220  347   6.500   4.798   5.416 -0.3972 -0.6837 -0.3050
    3SAPS  H20R  348   6.526   4.778   5.310  0.8171  1.3721 -0.4482
    3SAPS  H20S  349   6.455   4.706   5.459 -2.8986 -0.6503 -2.5755
    3SAPS  H20T  350   6.590   4.830   5.472 -1.5041  2.3963 -0.0721
    3SAPS   C33  351   6.375   5.622   6.212  0.1881  0.3949 -0.7635
    3SAPS   H3X  352   6.279   5.643   6.263  2.6288  4.2239  2.9262
    3SAPS   H3Y  353   6.368   5.571   6.113  0.9222 -3.2861  0.9009
    3SAPS   C34  354   6.420   5.773   6.214  0.1648  1.1067  0.1321
    3SAPS   H4X  355   6.518   5.794   6.167 -0.1300  0.5045 -0.8003
    3SAPS   H4Y  356   6.414   5.813   6.317  0.9554  0.6005  0.3782
    3SAPS   C35  357   6.342   5.869   6.120 -0.3814  0.4160  0.1284
    3SAPS   H5X  358   6.233   5.869   6.140 -0.3625  1.4915  0.2736
    3SAPS   H5Y  359   6.360   5.970   6.161  1.6024 -0.2285  0.9331
    3SAPS   C36  360   6.374   5.866   5.968  0.3405 -0.3839 -0.1318
    3SAPS   H6X  361   6.305   5.794   5.918 -0.5016 -0.0162  0.4685
    3SAPS   H6Y  362   6.478   5.827   5.964  0.1504 -0.8010 -1.4290
    3SAPS   C37  363   6.362   6.002   5.903  0.1112 -0.2889  0.0260
    3SAPS   H7X  364   6.417   6.076   5.965 -0.7887 -0.3938  0.9849
    3SAPS   H7Y  365   6.261   6.049   5.897 -0.3216 -1.1239  0.5879
    3SAPS   C38  366   6.428   6.002   5.761  0.1166  0.2428 -0.3115
    3SAPS   H8X  367   6.531   5.961   5.759 -0.0050 -0.1261  0.5515
    3SAPS   H8Y  368   6.443   6.110   5.739 -0.3799  0.7828  1.7689
    3SAPS   C39  369   6.350   5.931   5.648 -0.1742 -0.0812  0.0721
    3SAPS   H9X  370   6.241   5.942   5.666  0.0351 -0.5763  1.9491
    3SAPS   H9Y  371   6.367   5.821   5.645  1.0761  0.1217 -1.2897
    3SAPS  C310  372   6.371   5.985   5.503 -0.3138 -0.6136 -0.3459
    3SAPS  H10X  373   6.359   6.095   5.513  0.3714 -0.6722  1.3129
    3SAPS  H10Y  374   6.293   5.950   5.431  0.2113 -0.1433 -1.1661
    3SAPS  C311  375   6.508   5.941   5.454  0.0117 -0.8116  0.3069
    3SAPS  H11X  376   6.501   5.830   5.458 -0.6683 -0.7855  0.0375
    3SAPS  H11Y  377   6.581   5.967   5.533  1.1324  0.1797 -1.0180
    3SAPS  C312  378   6.549   5.995   5.320  0.3944  0.3436 -0.2264
    3SAPS  H12X  379   6.655   5.962   5.311  0.5283  0.7942 -0.3076
    3SAPS  H12Y  380   6.549   6.106   5.327 -0.0067  0.4496 -1.7412
    3SAPS  C313  381   6.462   5.948   5.205  0.0082 -0.2496  0.6043
    3SAPS  H13X  382   6.361   5.993   5.203  0.1407  0.2575 -3.3065
    3SAPS  H13Y  383   6.451   5.839   5.222  0.0945 -0.1277  1.4863
    3SAPS  C314  384   6.523   5.956   5.064 -0.1017 -0.0643 -0.4516
    3SAPS  H14X  385   6.455   5.906   4.992 -2.8431  2.5696  0.1118
    3SAPS  H14Y  386   6.624   5.910   5.074 -0.2739  0.0996  3.8505
    3SAPS  C315  387   6.550   6.102   5.032 -0.2574  0.2944  0.1632
    3SAPS  H15X  388   6.626   6.104   4.951 -0.4547  2.4711 -0.0158
    3SAPS  H15Y  389   6.603   6.142   5.121 -1.5058  0.0249  1.0600
    3SAPS  C316  390   6.433   6.196   4.996 -0.1004  0.7948 -0.5959
    3SAPS  H16X  391   6.472   6.297   5.020  1.0637  0.6445 -1.7394
    3SAPS  H16Y  392   6.346   6.176   5.062  0.2949 -3.5608 -1.0725
    3SAPS  C317  393   6.400   6.193   4.841  0.5126  0.0197 -0.2643
    3SAPS  H17X  394   6.303   6.247   4.831  0.6312  0.4422  0.7116
    3SAPS  H17Y  395   6.366   6.088   4.824 -0.2296  0.0036  1.0979
    3SAPS  C318  396   6.499   6.240   4.737  0.5467  0.1457 -0.3286
    3SAPS  H18X  397   6.457   6.246   4.635  0.7158 -0.9980 -0.4898
    3SAPS  H18Y  398   6.577   6.160   4.736  0.9309  0.4427  1.7736
    3SAPS  H18Z  399   6.553   6.334   4.761  2.1618 -0.0315 -2.8540
    4SAPS     N  400   5.461   2.347   7.279  0.4303 -0.4291 -0.3333
    4SAPS   HN1  401   5.387   2.285   7.319 -1.3258  0.9494 -1.2870
    4SAPS   HN2  402   5.442   2.446   7.304 -1.0221 -0.2475 -1.9778
    4SAPS   HN3  403   5.472   2.338   7.176  2.0291 -2.9060 -0.0352
    4SAPS   C12  404   5.595   2.312   7.350  0.3204 -0.3810  0.2441
    4SAPS  H12A  405   5.565   2.333   7.452  1.3868  0.4501  0.4038
    4SAPS   C13  406   5.633   2.158   7.332  0.1944 -0.4310  0.0333
    4SAPS  O13A  407   5.546   2.078   7.287  0.0454 -0.4348  0.5481
    4SAPS  O13B  408   5.723   2.124   7.414  0.3202  0.3347 -0.3499
    4SAPS   C11  409   5.713   2.404   7.306  0.4326  0.7627 -0.5343
    4SAPS  H11A  410   5.728   2.389   7.197  1.8876 -0.0556 -0.2501
    4SAPS  H11B  411   5.808   2.363   7.345  0.0602 -1.4985 -1.8274
    4SAPS     P  412   5.760   2.650   7.265  0.4046  0.2796 -0.4782
    4SAPS   O13  413   5.709   2.782   7.294  0.3188 -0.1178  0.0386
    4SAPS   O14  414   5.908   2.635   7.271 -0.5786 -0.4731 -0.8456
    4SAPS   O12  415   5.690   2.539   7.350  0.2791  0.2803  0.0215
    4SAPS   O11  416   5.699   2.605   7.120 -0.2766  0.3819  0.4265
    4SAPS    C1  417   5.799   2.607   7.014  0.0222 -0.0805 -0.6230
    4SAPS    HA  418   5.903   2.591   7.049  0.6406  1.0907 -1.8481
    4SAPS    HB  419   5.770   2.517   6.956 -0.4513 -0.6210  0.4259
    4SAPS    C2  420   5.802   2.736   6.934  0.4313  0.1452  0.0946
    4SAPS    HS  421   5.871   2.807   6.985 -1.0207  1.3253  0.4906
    4SAPS   O21  422   5.664   2.784   6.917 -0.3750  0.2617 -0.4461
    4SAPS   C21  423   5.655   2.916   6.920  0.1795  0.2477 -0.3133
    4SAPS   O22  424   5.745   2.995   6.932 -0.9087 -0.3628 -0.5228
    4SAPS   C22  425   5.507   2.957   6.904  0.0706  0.3041  0.4254
    4SAPS   H2R  426   5.452   2.880   6.845  1.0087  0.7124 -1.0315
    4SAPS   H2S  427   5.466   2.977   7.006  1.2555  1.3619  0.7235
    4SAPS    C3  428   5.866   2.687   6.803  0.1952 -0.2755  0.5887
    4SAPS    HX  429   5.801   2.605   6.768 -2.6572  2.0014  0.1458
    4SAPS    HY  430   5.969   2.654   6.828 -0.9475 -3.7158  1.2746
    4SAPS   O31  431   5.861   2.797   6.703  0.1668 -0.3528 -0.8883
    4SAPS   C31  432   5.962   2.888   6.716  0.2305 -0.3838  0.1319
    4SAPS   O32  433   6.046   2.881   6.804 -0.0803  0.3574  0.2167
    4SAPS   C32  434   5.946   3.006   6.614  0.2742 -0.2059 -0.1174
    4SAPS   H2X  435   6.043   3.061   6.612  1.2722 -1.8852 -1.4366
    4SAPS   H2Y  436   5.864   3.072   6.650  1.7324  1.4405  0.3478
    4SAPS   C23  437   5.502   3.090   6.826  0.3322  0.4169  0.7027
    4SAPS   H3R  438   5.563   3.086   6.734  1.3537 -0.1742  1.3865
    4SAPS   H3S  439   5.553   3.170   6.885  3.0074 -1.2209  0.7620
    4SAPS   C24  440   5.360   3.151   6.788 -0.1318  0.3190 -0.3385
    4SAPS   H4R  441   5.381   3.254   6.751  0.3856 -0.2479 -1.7004
    4SAPS   H4S  442   5.291   3.172   6.871 -0.1997  2.5420 -0.8878
    4SAPS   C25  443   5.292   3.079   6.680  0.3192  0.7927 -0.0266
    4SAPS   H5R  444   5.233   2.990   6.709 -0.2872  1.4065  0.6955
    4SAPS   C26  445   5.295   3.096   6.541  0.2510  0.0055  0.3987
    4SAPS   H6R  446   5.235   3.030   6.477  0.6859  2.2160 -2.5161
    4SAPS   C27  447   5.368   3.201   6.461  0.1562  0.2455  0.2338
    4SAPS   H7R  448   5.403   3.283   6.527 -0.6435  0.9487 -0.1926
    4SAPS   H7S  449   5.302   3.240   6.381 -0.3352 -0.5782  0.2255
    4SAPS   C28  450   5.492   3.133   6.406 -0.1266 -0.3823 -0.3886
    4SAPS   H8R  451   5.536   3.045   6.455  0.0573  0.2404  0.5828
    4SAPS   C29  452   5.539   3.158   6.282  0.8574 -1.2464  0.4117
    4SAPS   H9R  453   5.631   3.108   6.251  1.0590 -0.6780  0.0867
    4SAPS  C210  454   5.490   3.273   6.191  0.3142  1.3871  0.9875
    4SAPS  H10R  455   5.380   3.262   6.174  0.3292  2.5953 -0.0746
    4SAPS  H10S  456   5.535   3.264   6.090 -1.7864  0.7825  0.0300
    4SAPS  C211  457   5.517   3.410   6.242  0.4122 -0.1001  0.1980
    4SAPS  H11R  458   5.510   3.424   6.351 -0.1249  0.3910  0.1101
    4SAPS  C212  459   5.547   3.512   6.152  0.1348  0.0618 -0.9384
    4SAPS  H12R  460   5.577   3.613   6.185  3.0959 -1.4251  1.4474
    4SAPS  C213  461   5.554   3.492   6.003 -0.1146 -0.1343 -0.8711
    4SAPS  H13R  462   5.546   3.591   5.952  0.1312 -0.0851 -0.8183
    4SAPS  H13S  463   5.457   3.451   5.969 -0.6882  1.8357 -1.7730
    4SAPS  C214  464   5.666   3.412   5.937  0.1558 -0.4745 -0.7234
    4SAPS  H14R  465   5.746   3.385   6.007 -0.3127  0.8836  0.3749
    4SAPS  C215  466   5.679   3.383   5.802  0.5764  0.4797 -0.8606
    4SAPS  H15R  467   5.753   3.316   5.756  0.8019 -0.7136  1.1218
    4SAPS  C216  468   5.575   3.435   5.706 -0.2104  1.4385  0.2835
    4SAPS  H16R  469   5.582   3.544   5.688  2.2609  1.3100  0.1449
    4SAPS  H16S  470   5.471   3.425   5.744 -0.0534  2.1654  0.9357
    4SAPS  C217  471   5.586   3.365   5.573 -0.2781 -0.0052 -0.1841
    4SAPS  H17R  472   5.686   3.376   5.527 -1.3851  2.6224 -2.1882
    4SAPS  H17S  473   5.514   3.419   5.508 -0.1248 -0.0058 -0.3518
    4SAPS  C218  474   5.548   3.214   5.581  0.4632 -0.5379 -0.6224
    4SAPS  H18R  475   5.447   3.212   5.627 -0.0047  0.6708 -1.5457
    4SAPS  H18S  476   5.620   3.158   5.645 -1.0945 -2.3155 -0.3435
    4SAPS  C219  477   5.548   3.154   5.443  0.6914  0.0187 -0.3462
    4SAPS  H19R  478   5.477   3.202   5.372  1.7238  0.9126 -0.7962
    4SAPS  H19S  479   5.497   3.057   5.458 -1.2669  1.1526  0.7966
    4SAPS  C220  480   5.689   3.135   5.383 -0.0051 -0.0315  0.3581
    4SAPS  H20R  481   5.756   3.094   5.461 -0.1281  0.6105  0.8094
    4SAPS  H20S  482   5.730   3.237   5.366  1.6472 -0.5901  0.8618
    4SAPS  H20T  483   5.688   3.069   5.293  0.5300  1.6063 -0.9018
    4SAPS   C33  484   5.908   2.944   6.474 -0.2078 -0.4048  0.3098
    4SAPS   H3X  485   5.857   3.027   6.421 -1.6203 -1.6106 -0.3073
    4SAPS   H3Y  486   5.841   2.856   6.489 -1.8495  1.0226  1.9287
    4SAPS   C34  487   6.025   2.895   6.389  0.0212 -0.3470  0.3825
    4SAPS   H4X  488   6.097   2.824   6.434  1.1797  0.6554  0.1809
    4SAPS   H4Y  489   6.095   2.981   6.373 -1.1226  1.0048  2.2187
    4SAPS   C35  490   5.966   2.850   6.257  0.4500  0.4430 -0.0312
    4SAPS   H5X  491   5.875   2.788   6.274 -0.2989  1.8256  1.2315
    4SAPS   H5Y  492   6.037   2.786   6.201  0.1593 -0.0209  0.1256
    4SAPS   C36  493   5.937   2.963   6.161  0.3906 -0.2743  0.3072
    4SAPS   H6X  494   6.020   3.035   6.147 -0.4002  1.3955  3.3127
    4SAPS   H6Y  495   5.854   3.019   6.209 -0.5684 -1.6771  0.3290
    4SAPS   C37  496   5.892   2.915   6.022 -0.5415 -0.0841 -0.6125
    4SAPS   H7X  497   5.786   2.884   6.034 -0.5723  0.5719  1.0731
    4SAPS   H7Y  498   5.953   2.824   6.003  1.4200  0.6265  1.8171
    4SAPS   C38  499   5.905   3.027   5.913 -0.7410  0.4011 -0.0482
    4SAPS   H8X  500   5.859   3.117   5.958 -1.6402 -0.6727  1.2910
    4SAPS   H8Y  501   5.841   3.004   5.826  1.6672  0.2113 -1.8882
    4SAPS   C39  502   6.049   3.041   5.877  0.5923  0.0373 -0.2437
    4SAPS   H9X  503   6.084   2.937   5.859  0.6378 -0.1025  0.6532
    4SAPS   H9Y  504   6.104   3.078   5.966  2.5059  1.5229 -1.9447
    4SAPS  C310  505   6.067   3.132   5.756  0.7724 -0.4421  0.5741
    4SAPS  H10X  506   5.995   3.110   5.675 -0.2160 -1.3511  1.6674
    4SAPS  H10Y  507   6.163   3.113   5.703  0.4952  1.9548 -0.9228
    4SAPS  C311  508   6.057   3.276   5.803 -0.4881  0.2622  0.5801
    4SAPS  H11X  509   6.146   3.296   5.866  0.3005 -1.4248  0.0579
    4SAPS  H11Y  510   5.965   3.295   5.862 -2.0688 -1.1281 -1.2862
    4SAPS  C312  511   6.055   3.376   5.679 -0.3640  0.5417 -0.2878
    4SAPS  H12X  512   6.074   3.476   5.723 -0.7211  0.6226 -0.3190
    4SAPS  H12Y  513   5.959   3.376   5.624 -1.3987 -1.5426  1.3513
    4SAPS  C313  514   6.167   3.346   5.572 -0.1441 -0.1001  0.0927
    4SAPS  H13X  515   6.164   3.244   5.528  2.5945 -0.0488 -0.4126
    4SAPS  H13Y  516   6.263   3.347   5.628 -0.9982  1.5897  1.6141
    4SAPS  C314  517   6.188   3.450   5.463  0.6494  0.3991  0.1399
    4SAPS  H14X  518   6.275   3.430   5.398  0.2857 -1.3597  0.1584
    4SAPS  H14Y  519   6.199   3.547   5.516 -1.9818  0.2936  1.0418
    4SAPS  C315  520   6.074   3.456   5.364  0.1435  0.1077  1.4005
    4SAPS  H15X  521   5.975   3.482   5.408 -1.0176 -1.6702  0.0070
    4SAPS  H15Y  522   6.060   3.355   5.322 -0.4296  0.4082  0.8555
    4SAPS  C316  523   6.110   3.566   5.265  0.3693 -0.3144  0.2081
    4SAPS  H16X  524   6.216   3.550   5.236  0.3491  0.1223 -0.1312
    4SAPS  H16Y  525   6.101   3.658   5.327  1.3478 -0.7079  0.9558
    4SAPS  C317  526   6.033   3.549   5.137  0.6788 -0.1163  0.1691
    4SAPS  H17X  527   5.928   3.565   5.170  0.7539  1.0178 -0.0955
    4SAPS  H17Y  528   6.050   3.443   5.110  0.9095  0.0175 -0.2093
    4SAPS  C318  529   6.076   3.639   5.018 -0.0505 -0.7542 -0.0640
    4SAPS  H18X  530   6.176   3.604   4.985  1.0837  0.2763  2.1007
    4SAPS  H18Y  531   6.078   3.746   5.049  0.9748  0.2558 -3.1922
    4SAPS  H18Z  532   6.003   3.630   4.935 -0.0481 -1.5890  0.0225
    5SAPS     N  533   6.224   6.524   6.691  0.3393 -0.0327  0.4386
    5SAPS   HN1  534   6.283   6.609   6.696 -1.3811  1.2349  0.1186
    5SAPS   HN2  535   6.168   6.528   6.603 -0.2420 -1.0424  0.7500
    5SAPS   HN3  536   6.151   6.525   6.765  1.6952  1.0045  1.8379
    5SAPS   C12  537   6.289   6.391   6.676 -0.1071 -0.0471 -0.1570
    5SAPS  H12A  538   6.350   6.362   6.760  0.1509 -0.0378 -0.3402
    5SAPS   C13  539   6.192   6.273   6.657 -0.4755 -0.0147 -0.0322
    5SAPS  O13A  540   6.067   6.272   6.647  0.3054 -0.2079 -0.0723
    5SAPS  O13B  541   6.254   6.163   6.646 -0.3743 -0.0362  0.9473
    5SAPS   C11  542   6.385   6.404   6.547 -0.0986  0.3305 -0.5005
    5SAPS  H11A  543   6.326   6.439   6.459  2.4259 -1.8046 -3.2346
    5SAPS  H11B  544   6.413   6.301   6.517 -0.9062 -0.0804  0.1037
    5SAPS     P  545   6.635   6.416   6.620 -0.4301 -0.1665  0.0020
    5SAPS   O13  546   6.730   6.520   6.662  0.7094 -0.3497 -0.1936
    5SAPS   O14  547   6.604   6.300   6.709 -0.3703  1.2090 -0.5127
    5SAPS   O12  548   6.502   6.490   6.571 -0.1270  0.5326 -0.1442
    5SAPS   O11  549   6.685   6.347   6.482  0.6118 -0.1067  0.1748
    5SAPS    C1  550   6.736   6.423   6.372 -0.0072 -0.4168 -0.5359
    5SAPS    HA  551   6.815   6.491   6.412  1.4938 -2.0217 -0.6238
    5SAPS    HB  552   6.778   6.352   6.297 -2.3045 -1.9166 -0.4974
    5SAPS    C2  553   6.641   6.507   6.296 -0.1639 -0.0897 -0.2199
    5SAPS    HS  554   6.603   6.585   6.365  1.1934 -1.3839  2.1002
    5SAPS   O21  555   6.536   6.430   6.249 -0.2241  0.2774 -0.2567
    5SAPS   C21  556   6.421   6.483   6.220 -0.4924 -0.2241 -0.2040
    5SAPS   O22  557   6.387   6.594   6.260  0.3841  0.2725 -0.8699
    5SAPS   C22  558   6.342   6.387   6.131  0.1167 -0.3414 -0.3140
    5SAPS   H2R  559   6.321   6.424   6.029  1.9699  0.4937 -0.4356
    5SAPS   H2S  560   6.408   6.299   6.114  0.8360  0.2939 -0.8722
    5SAPS    C3  561   6.706   6.578   6.171 -0.1187  0.2969  0.1578
    5SAPS    HX  562   6.643   6.643   6.107 -2.5993 -1.7043  0.4276
    5SAPS    HY  563   6.737   6.500   6.098 -1.1025 -0.5896  0.6586
    5SAPS   O31  564   6.831   6.642   6.207 -0.3774  0.0489 -0.6167
    5SAPS   C31  565   6.821   6.768   6.245 -0.1547  0.5954 -0.2940
    5SAPS   O32  566   6.716   6.822   6.268  0.6083  0.3510 -0.1155
    5SAPS   C32  567   6.964   6.814   6.271 -0.7296 -0.3292 -0.1024
    5SAPS   H2X  568   7.034   6.772   6.196 -0.0567 -1.8584  1.3004
    5SAPS   H2Y  569   7.006   6.767   6.363 -2.1245  0.2136  0.8442
    5SAPS   C23  570   6.214   6.330   6.202  0.1498  0.0514  0.5691
    5SAPS   H3R  571   6.157   6.418   6.240  0.0049 -0.7552  2.3296
    5SAPS   H3S  572   6.254   6.260   6.278 -1.2325 -0.4523  0.8540
    5SAPS   C24  573   6.113   6.251   6.115  0.3738  0.4401  0.3503
    5SAPS   H4R  574   6.167   6.162   6.077 -0.4470  0.0406  0.1146
    5SAPS   H4S  575   6.089   6.324   6.034 -0.0123 -0.7452 -0.6223
    5SAPS   C25  576   5.982   6.198   6.165  0.4954 -0.2941  0.0081
    5SAPS   H5R  577   5.952   6.231   6.266 -1.1508 -2.7031  0.4016
    5SAPS   C26  578   5.898   6.110   6.108 -0.3040 -0.4767 -0.0008
    5SAPS   H6R  579   5.805   6.085   6.160 -1.2819  2.5075 -0.1572
    5SAPS   C27  580   5.919   6.043   5.978 -0.7434  0.3193  0.2625
    5SAPS   H7R  581   5.901   5.934   5.992  3.7696 -0.6315  0.3865
    5SAPS   H7S  582   6.028   6.043   5.954 -0.5048 -0.3894  1.2922
    5SAPS   C28  583   5.836   6.112   5.875  0.0319 -0.4653  0.5021
    5SAPS   H8R  584   5.759   6.181   5.912  0.1679 -0.2238  0.3312
    5SAPS   C29  585   5.852   6.095   5.743 -0.6613  0.5137 -0.3056
    5SAPS   H9R  586   5.797   6.159   5.672 -0.4995 -0.4666 -1.3525
    5SAPS  C210  587   5.960   6.004   5.674 -0.3139  0.8664 -0.7326
    5SAPS  H10R  588   6.048   5.975   5.735  1.5559  1.0173 -3.2085
    5SAPS  H10S  589   6.002   6.078   5.604 -0.1036 -1.2512 -2.9633
    5SAPS  C211  590   5.894   5.890   5.596  0.3861 -0.1572 -0.4354
    5SAPS  H11R  591   5.820   5.835   5.655 -0.0882  2.0524  1.1410
    5SAPS  C212  592   5.909   5.862   5.465 -0.0049  0.6215  0.1166
    5SAPS  H12R  593   5.844   5.785   5.422  0.2225  0.7656 -0.4966
    5SAPS  C213  594   5.985   5.944   5.361  0.0156  0.5207 -0.1813
    5SAPS  H13R  595   6.084   5.899   5.339  0.2518  1.5474 -1.3253
    5SAPS  H13S  596   5.998   6.050   5.393 -1.8054  0.7891 -0.2351
    5SAPS  C214  597   5.910   5.945   5.229  0.3490 -0.5125  0.7336
    5SAPS  H14R  598   5.802   5.949   5.247  0.4713  0.4971  1.2694
    5SAPS  C215  599   5.954   5.951   5.097 -0.2132 -0.2169 -0.2873
    5SAPS  H15R  600   5.876   5.951   5.019 -0.0318 -0.8125 -0.4757
    5SAPS  C216  601   6.106   5.943   5.039 -0.7039 -0.1774 -0.0045
    5SAPS  H16R  602   6.178   5.905   5.115  0.3507 -0.7788 -1.2746
    5SAPS  H16S  603   6.128   6.049   5.018  0.5251 -0.2406  0.8586
    5SAPS  C217  604   6.132   5.869   4.906  0.0520  0.4725  0.1556
    5SAPS  H17R  605   6.103   5.763   4.920  0.4592  0.5033  1.3676
    5SAPS  H17S  606   6.242   5.869   4.888  0.1406  2.9018  0.3755
    5SAPS  C218  607   6.057   5.935   4.791  0.1993 -0.0436  1.0044
    5SAPS  H18R  608   6.074   6.045   4.779  2.4225 -0.6275 -3.1434
    5SAPS  H18S  609   5.947   5.927   4.802  0.2054 -0.6983  0.6151
    5SAPS  C219  610   6.094   5.878   4.649  0.2633  0.7370  0.6349
    5SAPS  H19R  611   6.154   5.789   4.676  0.3717  0.3647 -0.7648
    5SAPS  H19S  612   6.167   5.940   4.594 -0.2017  0.9182  0.2170
    5SAPS  C220  613   5.981   5.835   4.555 -0.4908  0.0859 -0.7720
    5SAPS  H20R  614   5.912   5.920   4.537  1.4019  1.6024 -1.3008
    5SAPS  H20S  615   5.916   5.764   4.610 -0.3992  1.2376  0.8965
    5SAPS  H20T  616   6.009   5.783   4.461  1.5221  1.2037 -0.8504
    5SAPS   C33  617   6.973   6.969   6.275  0.2864 -0.3907  0.2299
    5SAPS   H3X  618   6.907   7.004   6.357  3.1884 -3.3167  4.2569
    5SAPS   H3Y  619   6.935   7.022   6.185  0.9504 -1.4977 -0.7402
    5SAPS   C34  620   7.107   7.031   6.306  0.0226 -0.1122  0.3302
    5SAPS   H4X  621   7.185   7.008   6.230  0.4113 -2.5265  1.3531
    5SAPS   H4Y  622   7.136   6.991   6.405 -1.0585  0.1175  0.7553
    5SAPS   C35  623   7.116   7.183   6.340 -0.4877 -0.6263  0.3679
    5SAPS   H5X  624   7.212   7.207   6.389 -1.4760 -1.0375  2.6371
    5SAPS   H5Y  625   7.032   7.199   6.411 -1.1672 -0.8544 -0.3728
    5SAPS   C36  626   7.090   7.276   6.221  0.2461  0.0622  0.0235
    5SAPS   H6X  627   7.072   7.382   6.250 -1.6409 -0.0492 -0.6007
    5SAPS   H6Y  628   7.000   7.241   6.166 -0.6160  1.5501  0.4329
    5SAPS   C37  629   7.206   7.276   6.126  0.0144  0.0285  0.0380
    5SAPS   H7X  630   7.231   7.171   6.096 -1.0093 -0.2423  0.1095
    5SAPS   H7Y  631   7.292   7.330   6.171  0.2690 -0.0147 -0.3875
    5SAPS   C38  632   7.186   7.344   5.994  0.3726 -0.0841  0.0290
    5SAPS   H8X  633   7.113   7.274   5.950  0.7586  0.9457 -2.3998
    5SAPS   H8Y  634   7.272   7.335   5.925 -0.3401 -3.3628 -0.5914
    5SAPS   C39  635   7.117   7.485   6.002  0.2385  0.3290 -0.1209
    5SAPS   H9X  636   7.179   7.550   6.067 -0.3318 -0.6358  1.4588
    5SAPS   H9Y  637   7.020   7.472   6.056 -0.6952  2.8831 -1.0603
    5SAPS  C310  638   7.079   7.550   5.869 -0.1136  0.6643 -0.1296
    5SAPS  H10X  639   7.006   7.633   5.881  0.1934  0.7473  1.3453
    5SAPS  H10Y  640   7.021   7.474   5.813  2.3675 -3.9496  2.9365
    5SAPS  C311  641   7.192   7.617   5.802 -0.5213 -0.0821  0.0038
    5SAPS  H11X  642   7.269   7.542   5.775  0.0051  0.7912 -1.0147
    5SAPS  H11Y  643   7.254   7.681   5.868  1.8640  0.9576 -3.0400
    5SAPS  C312  644   7.154   7.700   5.681 -0.4569 -0.0025 -0.2192
    5SAPS  H12X  645   7.103   7.790   5.722  2.5646  1.2497  1.1249
    5SAPS  H12Y  646   7.086   7.643   5.614  0.5729 -1.5393 -0.0132
    5SAPS  C313  647   7.271   7.750   5.596  0.2473 -0.7903 -0.0671
    5SAPS  H13X  648   7.340   7.666   5.573  0.8122 -0.7087  1.2404
    5SAPS  H13Y  649   7.328   7.829   5.651 -1.2483  1.0988 -1.1184
    5SAPS  C314  650   7.222   7.810   5.460  0.4218  0.0382 -0.1453
    5SAPS  H14X  651   7.150   7.886   5.498 -0.4038 -0.2017 -1.1726
    5SAPS  H14Y  652   7.166   7.732   5.405  0.1269  1.8704 -2.6563
    5SAPS  C315  653   7.316   7.889   5.376  0.7171  0.0571  0.1918
    5SAPS  H15X  654   7.401   7.821   5.352  1.7822  1.9338 -1.7829
    5SAPS  H15Y  655   7.358   7.978   5.427  0.0011 -1.0063  2.7562
    5SAPS  C316  656   7.258   7.938   5.233 -0.9176 -0.2496  0.0498
    5SAPS  H16X  657   7.332   8.001   5.180  1.3673 -1.8900  1.1470
    5SAPS  H16Y  658   7.165   7.998   5.241 -0.2007  0.9923 -0.6284
    5SAPS  C317  659   7.236   7.827   5.122  0.2600  0.1255 -0.0676
    5SAPS  H17X  660   7.154   7.761   5.157 -0.1731  1.2336  1.0516
    5SAPS  H17Y  661   7.328   7.764   5.115  0.8736  0.9777  0.1971
    5SAPS  C318  662   7.195   7.863   4.978  0.0880  0.3967 -0.2981
    5SAPS  H18X  663   7.107   7.928   4.996  0.2220  0.0523  1.8183
    5SAPS  H18Y  664   7.163   7.770   4.925 -0.9860  0.5021  0.1445
    5SAPS  H18Z  665   7.280   7.913   4.928 -2.0365  2.1268 -2.4285
    6SAPS     N  666   2.644   0.513   7.303 -0.0601 -0.4390  0.5853
    6SAPS   HN1  667   2.637   0.444   7.226 -2.1551 -1.1074  1.3123
    6SAPS   HN2  668   2.549   0.555   7.313  0.4076  0.6391  0.7145
    6SAPS   HN3  669   2.703   0.593   7.273 -0.5228  0.2205  1.3955
    6SAPS   C12  670   2.693   0.438   7.418  0.3212  0.0880  0.1143
    6SAPS  H12A  671   2.794   0.404   7.398  0.1831  0.5508 -1.4663
    6SAPS   C13  672   2.694   0.509   7.557  0.0105  0.3289  0.5876
    6SAPS  O13A  673   2.684   0.638   7.570  0.2740 -0.2269 -0.5483
    6SAPS  O13B  674   2.698   0.434   7.659 -0.3086  0.4456 -0.4726
    6SAPS   C11  675   2.586   0.327   7.437  0.4006 -0.2569 -0.3475
    6SAPS  H11A  676   2.483   0.364   7.450  0.8554  1.1198 -0.5358
    6SAPS  H11B  677   2.615   0.264   7.524  4.2812  2.9510  1.0153
    6SAPS     P  678   2.510   0.120   7.294 -0.3025 -0.2563 -0.0867
    6SAPS   O13  679   2.596   0.002   7.333 -0.3244 -0.1884 -0.1967
    6SAPS   O14  680   2.382   0.133   7.361  0.2500 -0.4633 -0.1978
    6SAPS   O12  681   2.586   0.252   7.308 -0.8194 -0.3705  0.0116
    6SAPS   O11  682   2.475   0.117   7.146 -0.7212 -0.0584  0.1041
    6SAPS    C1  683   2.491   0.224   7.053  0.0970 -0.4563 -0.1935
    6SAPS    HA  684   2.422   0.206   6.968  0.0578  1.5313 -0.6246
    6SAPS    HB  685   2.472   0.325   7.093  0.9266  0.1850 -1.3566
    6SAPS    C2  686   2.630   0.213   6.981  0.5545  1.4151  0.6051
    6SAPS    HS  687   2.712   0.226   7.054  1.0268  2.6677 -0.1045
    6SAPS   O21  688   2.652   0.305   6.876  0.2052 -0.2441  0.1654
    6SAPS   C21  689   2.668   0.428   6.922 -0.5787  0.4756  0.2936
    6SAPS   O22  690   2.647   0.465   7.034  0.6275 -0.4528  0.0875
    6SAPS   C22  691   2.715   0.516   6.808 -0.9126  0.1283  0.7527
    6SAPS   H2R  692   2.648   0.520   6.719 -0.0446 -2.4325 -0.0898
    6SAPS   H2S  693   2.717   0.614   6.859 -0.4487  0.1485  0.7003
    6SAPS    C3  694   2.653   0.063   6.926 -0.0097  0.2205  0.6071
    6SAPS    HX  695   2.638  -0.000   7.016  0.1465  0.6061  0.9068
    6SAPS    HY  696   2.758   0.052   6.891 -0.0061 -0.4670  0.8182
    6SAPS   O31  697   2.559   0.023   6.824  0.6019  0.1250 -0.6990
    6SAPS   C31  698   2.565  -0.105   6.774  0.1506 -0.9168 -0.6682
    6SAPS   O32  699   2.653  -0.179   6.803  0.1422  0.7318  0.6939
    6SAPS   C32  700   2.447  -0.134   6.691  0.2987  0.6491  1.0368
    6SAPS   H2X  701   2.427  -0.046   6.626 -0.0139 -0.0191  0.1963
    6SAPS   H2Y  702   2.360  -0.148   6.758  0.2988 -0.2116  0.8736
    6SAPS   C23  703   2.866   0.486   6.781  0.1711 -0.7724 -0.0172
    6SAPS   H3R  704   2.912   0.455   6.877  0.3049 -0.3208  0.0691
    6SAPS   H3S  705   2.920   0.578   6.747 -2.2065  0.4933 -0.5967
    6SAPS   C24  706   2.894   0.362   6.688  0.3088 -0.0223 -0.2872
    6SAPS   H4R  707   2.851   0.271   6.734 -2.2671  2.3812  2.5581
    6SAPS   H4S  708   3.004   0.350   6.676  0.2521 -2.4672  1.0261
    6SAPS   C25  709   2.835   0.384   6.551 -0.0346 -0.3553 -0.8423
    6SAPS   H5R  710   2.884   0.469   6.501  0.2488  0.5764  0.9339
    6SAPS   C26  711   2.734   0.313   6.495  0.4812  0.1948 -0.2249
    6SAPS   H6R  712   2.703   0.346   6.394  2.4484  2.2070 -0.2589
    6SAPS   C27  713   2.645   0.211   6.566 -0.6784  0.5552 -0.2814
    6SAPS   H7R  714   2.697   0.186   6.661  0.4859 -0.4025 -1.1395
    6SAPS   H7S  715   2.646   0.112   6.515  2.2957  0.2832  0.1217
    6SAPS   C28  716   2.506   0.251   6.605  0.4300  0.0256 -0.0832
    6SAPS   H8R  717   2.489   0.258   6.713  1.1245  0.2430  0.0136
    6SAPS   C29  718   2.403   0.272   6.522 -0.0326  1.0807  0.0970
    6SAPS   H9R  719   2.302   0.300   6.557 -0.0653  1.0776  0.0051
    6SAPS  C210  720   2.414   0.251   6.365 -0.7414  0.4050  0.1676
    6SAPS  H10R  721   2.523   0.262   6.345 -0.5104 -1.7197  0.0201
    6SAPS  H10S  722   2.349   0.320   6.307 -2.1203 -1.7263 -0.9196
    6SAPS  C211  723   2.388   0.113   6.312  0.2878  0.7850  1.1990
    6SAPS  H11R  724   2.327   0.049   6.378 -0.6941  0.5240  0.0722
    6SAPS  C212  725   2.400   0.075   6.183  0.0866  0.0249  0.4410
    6SAPS  H12R  726   2.375  -0.027   6.149  1.2766 -0.5826  1.3008
    6SAPS  C213  727   2.462   0.164   6.077  0.3668 -0.2156 -0.4230
    6SAPS  H13R  728   2.562   0.125   6.047  0.2139 -1.1820  0.2442
    6SAPS  H13S  729   2.470   0.271   6.106  0.7012 -0.7677  1.7400
    6SAPS  C214  730   2.390   0.158   5.944 -0.5120 -0.6810  0.0809
    6SAPS  H14R  731   2.320   0.075   5.932 -0.1978 -1.3723  2.4808
    6SAPS  C215  732   2.394   0.258   5.847  0.0832  0.0205 -0.7406
    6SAPS  H15R  733   2.338   0.243   5.753 -0.2579  1.2802 -0.7507
    6SAPS  C216  734   2.457   0.391   5.850  0.1806 -0.5632 -0.4128
    6SAPS  H16R  735   2.490   0.418   5.953  0.2245 -1.9436 -0.0350
    6SAPS  H16S  736   2.382   0.467   5.821  0.8202 -0.8009 -2.8783
    6SAPS  C217  737   2.591   0.412   5.775  0.0780 -0.3198  0.3471
    6SAPS  H17R  738   2.627   0.515   5.753  0.2149 -0.3791  0.2943
    6SAPS  H17S  739   2.569   0.365   5.677 -1.0616 -1.5044  1.1398
    6SAPS  C218  740   2.703   0.308   5.816 -0.9406 -0.6096  0.0117
    6SAPS  H18R  741   2.776   0.281   5.737 -1.6682 -0.9131 -0.5703
    6SAPS  H18S  742   2.646   0.218   5.847 -1.9691  0.2547  0.7017
    6SAPS  C219  743   2.771   0.357   5.946 -0.1921  0.5440  0.0038
    6SAPS  H19R  744   2.706   0.427   6.003 -1.5949 -0.1659 -0.6591
    6SAPS  H19S  745   2.859   0.417   5.916 -0.6268  1.2929  0.2142
    6SAPS  C220  746   2.828   0.251   6.050 -0.3844  0.6410  0.7224
    6SAPS  H20R  747   2.893   0.173   6.005  0.5539  0.2951  2.5967
    6SAPS  H20S  748   2.735   0.196   6.076 -1.1411  1.4327 -0.2249
    6SAPS  H20T  749   2.874   0.291   6.143  1.6183  1.2703 -0.4868
    6SAPS   C33  750   2.459  -0.254   6.597 -0.3315 -0.3475 -0.4105
    6SAPS   H3X  751   2.358  -0.292   6.573  0.2459 -2.2992  0.0173
    6SAPS   H3Y  752   2.510  -0.339   6.647  0.5125  1.2065  1.5229
    6SAPS   C34  753   2.524  -0.211   6.466  0.2045  0.6255 -1.0235
    6SAPS   H4X  754   2.627  -0.174   6.479  0.8762 -0.8909 -1.7325
    6SAPS   H4Y  755   2.459  -0.131   6.424 -0.1043  0.2306 -1.3068
    6SAPS   C35  756   2.534  -0.325   6.367 -0.3982  0.7257  0.5329
    6SAPS   H5X  757   2.596  -0.302   6.278 -1.0880 -1.0273 -0.4530
    6SAPS   H5Y  758   2.432  -0.348   6.330 -0.0100 -0.3493  0.0992
    6SAPS   C36  759   2.593  -0.458   6.419  0.3903  0.2292  0.0552
    6SAPS   H6X  760   2.514  -0.508   6.479  0.2649 -0.9325 -1.0338
    6SAPS   H6Y  761   2.678  -0.430   6.484  1.1365  0.8188 -1.1477
    6SAPS   C37  762   2.641  -0.543   6.302  0.6080  1.0529  0.6655
    6SAPS   H7X  763   2.665  -0.641   6.348 -2.3530  0.0287  0.2361
    6SAPS   H7Y  764   2.724  -0.483   6.258  2.5498 -0.6209  1.8889
    6SAPS   C38  765   2.542  -0.560   6.183 -0.5707 -0.2344 -0.0363
    6SAPS   H8X  766   2.537  -0.474   6.113  1.1715 -1.0808 -1.2550
    6SAPS   H8Y  767   2.449  -0.579   6.242 -0.2517 -1.5997  0.0471
    6SAPS   C39  768   2.588  -0.677   6.087  0.0035 -0.2554 -0.8714
    6SAPS   H9X  769   2.605  -0.766   6.152 -1.8918 -1.1632 -1.5326
    6SAPS   H9Y  770   2.687  -0.663   6.038 -0.6061  0.1734 -2.0158
    6SAPS  C310  771   2.495  -0.713   5.971 -1.5318  0.4406 -0.1941
    6SAPS  H10X  772   2.395  -0.744   6.009 -0.2908 -3.0162  0.6549
    6SAPS  H10Y  773   2.552  -0.791   5.916 -0.1932  0.8101  0.5907
    6SAPS  C311  774   2.484  -0.600   5.876  0.1428 -0.1565  0.1070
    6SAPS  H11X  775   2.579  -0.556   5.838 -0.6120  0.9644 -0.5403
    6SAPS  H11Y  776   2.442  -0.515   5.935 -3.3367 -0.4020 -1.7985
    6SAPS  C312  777   2.380  -0.619   5.768 -0.1575  1.0494 -0.1119
    6SAPS  H12X  778   2.277  -0.636   5.806 -0.7436  2.5495 -0.9516
    6SAPS  H12Y  779   2.407  -0.714   5.717 -1.0710  1.1185 -0.7541
    6SAPS  C313  780   2.378  -0.501   5.674  0.9491  0.1136  0.2210
    6SAPS  H13X  781   2.477  -0.492   5.626  1.1024  2.0596  0.7970
    6SAPS  H13Y  782   2.373  -0.408   5.734  0.1538 -0.9048  1.8100
    6SAPS  C314  783   2.258  -0.503   5.568 -0.3263 -0.4161 -0.1132
    6SAPS  H14X  784   2.272  -0.416   5.500 -0.1900 -1.4239 -1.4188
    6SAPS  H14Y  785   2.168  -0.500   5.633 -0.1329 -1.1575  0.2015
    6SAPS  C315  786   2.281  -0.630   5.482 -0.2151 -0.7848  0.0907
    6SAPS  H15X  787   2.281  -0.723   5.542  2.2522 -0.6302  0.4249
    6SAPS  H15Y  788   2.374  -0.623   5.421 -1.2008 -2.9517 -1.8293
    6SAPS  C316  789   2.171  -0.621   5.376  0.0543 -0.2376  0.2730
    6SAPS  H16X  790   2.202  -0.674   5.283 -0.6247  2.9850 -1.9393
    6SAPS  H16Y  791   2.152  -0.513   5.358 -0.8129  0.1514  3.0482
    6SAPS  C317  792   2.045  -0.687   5.424 -0.1677  0.1232  0.5492
    6SAPS  H17X  793   2.023  -0.619   5.509  3.1651  1.3071  0.6258
    6SAPS  H17Y  794   2.066  -0.791   5.457  0.0604  0.2553  0.8256
    6SAPS  C318  795   1.933  -0.678   5.328  0.7201 -0.9933  0.1579
    6SAPS  H18X  796   1.905  -0.571   5.314  3.1478 -0.4992 -1.5960
    6SAPS  H18Y  797   1.847  -0.729   5.376 -1.4865  3.5570  1.6190
    6SAPS  H18Z  798   1.956  -0.727   5.231  0.9048 -2.5256  0.9510
    7SAPS     N  799   5.377   6.789   7.067 -0.2079  0.4969  0.0315
    7SAPS   HN1  800   5.411   6.762   6.973 -3.1491  2.8849 -1.9264
    7SAPS   HN2  801   5.400   6.713   7.135 -4.3760 -0.8407  0.1755
    7SAPS   HN3  802   5.274   6.796   7.066 -0.4497 -1.6953  1.6060
    7SAPS   C12  803   5.452   6.917   7.107 -0.0305  0.1455 -0.3985
    7SAPS  H12A  804   5.411   6.950   7.201  0.3897  2.1047 -0.8405
    7SAPS   C13  805   5.608   6.896   7.127  0.5650 -0.3632 -0.7390
    7SAPS  O13A  806   5.664   6.784   7.126  0.5004  0.1985  0.4408
    7SAPS  O13B  807   5.670   6.993   7.176  0.1827 -0.3606  0.1534
    7SAPS   C11  808   5.422   7.036   7.008  0.3461 -0.5068 -0.1519
    7SAPS  H11A  809   5.485   7.032   6.917  0.0866  2.4173 -0.5443
    7SAPS  H11B  810   5.466   7.126   7.055  2.1352  0.3393 -3.1546
    7SAPS     P  811   5.222   7.158   6.895  0.1037  0.3167 -0.5782
    7SAPS   O13  812   5.095   7.175   6.968  1.0338 -0.4823  0.2278
    7SAPS   O14  813   5.307   7.279   6.884  0.1664 -0.6994  0.3269
    7SAPS   O12  814   5.289   7.039   6.982  0.4385  0.4882  0.2299
    7SAPS   O11  815   5.195   7.085   6.762  0.1500 -0.0819 -0.0832
    7SAPS    C1  816   5.296   7.051   6.665  0.2944 -0.3878 -0.2437
    7SAPS    HA  817   5.397   7.071   6.707  0.9900 -1.1357 -1.4892
    7SAPS    HB  818   5.301   6.942   6.644  1.0663 -0.1909 -1.1980
    7SAPS    C2  819   5.279   7.131   6.531  0.4881  0.3459 -0.4606
    7SAPS    HS  820   5.244   7.236   6.541  0.5028  0.2352  0.8520
    7SAPS   O21  821   5.191   7.046   6.453 -0.3443 -0.0166 -0.5136
    7SAPS   C21  822   5.061   7.086   6.470 -0.3604  0.7245 -0.4613
    7SAPS   O22  823   5.025   7.192   6.522 -0.7605  0.2065 -0.2838
    7SAPS   C22  824   4.968   6.981   6.414 -0.2665 -0.3875 -0.0429
    7SAPS   H2R  825   4.974   6.878   6.455 -0.4573 -0.8140 -1.0554
    7SAPS   H2S  826   4.869   7.017   6.451  0.5188  3.1512 -1.0280
    7SAPS    C3  827   5.421   7.143   6.461  0.3908 -0.1694 -0.4827
    7SAPS    HX  828   5.470   7.044   6.455  1.3964  0.0092  2.9012
    7SAPS    HY  829   5.479   7.201   6.535  0.2806 -2.1175  1.2011
    7SAPS   O31  830   5.402   7.209   6.328 -0.6933  0.1628  0.0977
    7SAPS   C31  831   5.516   7.224   6.262  0.1470  0.0598  0.1289
    7SAPS   O32  832   5.629   7.186   6.304  0.9577 -0.2963  0.2056
    7SAPS   C32  833   5.490   7.288   6.128  0.4537  0.2390  0.0365
    7SAPS   H2X  834   5.418   7.372   6.134  2.1492  1.6804  1.5911
    7SAPS   H2Y  835   5.434   7.214   6.067 -0.2356  0.3187  0.5692
    7SAPS   C23  836   4.954   6.978   6.256 -0.1026  0.2539 -0.0796
    7SAPS   H3R  837   4.862   6.917   6.235 -0.6792  0.4964  1.6064
    7SAPS   H3S  838   5.042   6.922   6.218  0.5275  1.6280 -0.6865
    7SAPS   C24  839   4.934   7.117   6.189 -0.8249 -0.1073 -0.0997
    7SAPS   H4R  840   4.856   7.172   6.248 -0.5547  0.5759 -0.3662
    7SAPS   H4S  841   4.885   7.103   6.091  1.8274  0.4373 -1.5936
    7SAPS   C25  842   5.068   7.194   6.168 -0.2698 -0.0988 -0.2227
    7SAPS   H5R  843   5.130   7.200   6.259  0.4607  0.4652 -0.7465
    7SAPS   C26  844   5.113   7.250   6.055 -0.9441 -0.2798  0.0048
    7SAPS   H6R  845   5.217   7.285   6.048 -0.5495 -1.2754  0.7061
    7SAPS   C27  846   5.042   7.242   5.917  0.0064  0.8227 -0.6368
    7SAPS   H7R  847   5.096   7.319   5.857 -1.1608  0.7506 -1.8263
    7SAPS   H7S  848   4.935   7.267   5.933 -0.8930 -1.1662 -2.9106
    7SAPS   C28  849   5.057   7.106   5.848 -0.1309  0.8995 -0.0052
    7SAPS   H8R  850   5.072   7.019   5.914  0.0489  0.4132 -0.6736
    7SAPS   C29  851   5.046   7.090   5.713 -1.6169 -0.3843 -0.4675
    7SAPS   H9R  852   5.069   6.993   5.666 -0.8405 -0.9650  1.0459
    7SAPS  C210  853   5.017   7.200   5.612 -0.3382  0.0137  0.7467
    7SAPS  H10R  854   5.108   7.235   5.558  0.0426 -1.8396  0.1088
    7SAPS  H10S  855   4.964   7.288   5.655 -0.7556  1.5830 -2.5794
    7SAPS  C211  856   4.915   7.150   5.509 -0.6803  0.0052  0.0769
    7SAPS  H11R  857   4.817   7.129   5.555  0.4745  0.4990  2.9944
    7SAPS  C212  858   4.940   7.124   5.381 -0.3266 -0.0743  0.0764
    7SAPS  H12R  859   4.852   7.074   5.338 -0.9287  0.6869  0.3981
    7SAPS  C213  860   5.063   7.166   5.297  0.5395  0.6025 -0.2485
    7SAPS  H13R  861   5.153   7.192   5.357  0.1030  1.1323  0.1848
    7SAPS  H13S  862   5.027   7.265   5.262 -2.5006  0.8858  3.0915
    7SAPS  C214  863   5.100   7.078   5.177  0.3970 -0.1957 -0.4525
    7SAPS  H14R  864   5.160   6.988   5.196 -0.9244 -1.5332 -2.1814
    7SAPS  C215  865   5.065   7.099   5.049 -0.1892 -0.2487 -0.1626
    7SAPS  H15R  866   5.098   7.032   4.968 -0.1584  0.4829 -0.7743
    7SAPS  C216  867   4.982   7.211   5.004  0.4552 -0.4929  0.6870
    7SAPS  H16R  868   5.001   7.308   5.054  2.5899  0.3512 -1.5231
    7SAPS  H16S  869   4.873   7.192   4.996  0.3018  0.6834 -0.5155
    7SAPS  C217  870   5.019   7.225   4.852  0.5549 -0.9699  0.8532
    7SAPS  H17R  871   4.944   7.161   4.801 -2.5471  0.8341  2.8375
    7SAPS  H17S  872   5.124   7.199   4.827  0.6127  1.7677 -2.5320
    7SAPS  C218  873   4.991   7.368   4.805  0.1941 -0.7808 -0.4586
    7SAPS  H18R  874   5.054   7.442   4.858 -1.4012 -0.8108  1.6381
    7SAPS  H18S  875   4.887   7.396   4.833 -0.1505 -2.1817 -0.2759
    7SAPS  C219  876   5.005   7.382   4.655  0.1692 -0.5568 -0.2947
    7SAPS  H19R  877   4.948   7.293   4.623  1.2617 -1.1059 -0.7618
    7SAPS  H19S  878   5.109   7.370   4.617 -0.0677 -1.2390 -0.7543
    7SAPS  C220  879   4.928   7.508   4.605  0.6180 -0.0752  0.0324
    7SAPS  H20R  880   4.827   7.505   4.651  1.2237 -1.5362  1.3697
    7SAPS  H20S  881   4.934   7.510   4.494  2.8512  0.2178  0.1154
    7SAPS  H20T  882   4.975   7.598   4.650  1.0022 -0.4313  0.3452
    7SAPS   C33  883   5.613   7.313   6.042 -0.2177  0.2962  1.3508
    7SAPS   H3X  884   5.670   7.217   6.042 -2.8155 -1.4566 -2.2531
    7SAPS   H3Y  885   5.681   7.390   6.086  0.8078  0.0934  0.1820
    7SAPS   C34  886   5.577   7.353   5.892 -0.6735  0.2657  0.1858
    7SAPS   H4X  887   5.553   7.461   5.880 -0.5389  0.4062  1.1268
    7SAPS   H4Y  888   5.488   7.297   5.856 -0.3327  0.4320 -0.9548
    7SAPS   C35  889   5.697   7.316   5.798  0.1358 -0.2276 -0.3075
    7SAPS   H5X  890   5.706   7.205   5.793  2.7222 -0.2396  2.0644
    7SAPS   H5Y  891   5.785   7.346   5.859 -0.3584 -1.9319  1.3588
    7SAPS   C36  892   5.694   7.382   5.660 -0.1665 -0.7424 -0.4139
    7SAPS   H6X  893   5.687   7.493   5.668  0.1482 -0.6746 -1.0415
    7SAPS   H6Y  894   5.598   7.356   5.612 -0.4183  1.5503 -1.2871
    7SAPS   C37  895   5.802   7.332   5.572 -0.3923  0.6026  0.4173
    7SAPS   H7X  896   5.786   7.225   5.548 -0.3976  0.7564 -0.2746
    7SAPS   H7Y  897   5.898   7.346   5.626 -1.1479 -1.6325  2.5113
    7SAPS   C38  898   5.810   7.412   5.438  0.7193  0.5446  0.0362
    7SAPS   H8X  899   5.823   7.519   5.465 -1.4767  0.7071  0.6468
    7SAPS   H8Y  900   5.706   7.401   5.400  0.1154 -0.5258  1.8593
    7SAPS   C39  901   5.922   7.352   5.351  0.6232 -0.1339  0.5064
    7SAPS   H9X  902   5.904   7.243   5.334 -0.7197  0.1199  0.1887
    7SAPS   H9Y  903   6.019   7.369   5.401  0.5084  1.9275  0.0920
    7SAPS  C310  904   5.927   7.413   5.215  0.3305 -0.1481 -0.1216
    7SAPS  H10X  905   5.961   7.518   5.223  1.1217 -0.3964 -0.1205
    7SAPS  H10Y  906   5.822   7.419   5.177  0.1960 -1.5464 -0.0285
    7SAPS  C311  907   6.021   7.339   5.121  0.4836  0.3546 -0.6689
    7SAPS  H11X  908   5.969   7.250   5.079 -0.9822 -0.0076  1.7072
    7SAPS  H11Y  909   6.103   7.305   5.187 -0.8945 -0.2148  0.8255
    7SAPS  C312  910   6.088   7.420   5.004  0.4959  0.3914  0.2131
    7SAPS  H12X  911   6.139   7.501   5.061  0.2825 -0.7826  2.1519
    7SAPS  H12Y  912   6.013   7.469   4.938  0.2071  0.5139  0.6237
    7SAPS  C313  913   6.181   7.340   4.921 -0.5982  0.1940 -0.0440
    7SAPS  H13X  914   6.126   7.270   4.854 -1.6058  0.3736  0.5703
    7SAPS  H13Y  915   6.235   7.277   4.994 -1.5360 -0.7811 -0.1547
    7SAPS  C314  916   6.280   7.417   4.838  0.7929 -0.6438  0.1118
    7SAPS  H14X  917   6.347   7.474   4.906 -0.1407 -0.0809  0.5849
    7SAPS  H14Y  918   6.229   7.479   4.761 -1.2476 -1.8750  0.4075
    7SAPS  C315  919   6.360   7.317   4.756 -0.0964  0.0603 -0.1548
    7SAPS  H15X  920   6.428   7.376   4.691 -0.3893  0.3941 -0.1593
    7SAPS  H15Y  921   6.302   7.259   4.681  1.8074 -2.2342 -0.0035
    7SAPS  C316  922   6.453   7.227   4.837  0.2308 -0.7677 -0.5140
    7SAPS  H16X  923   6.387   7.171   4.907 -1.5013  1.1574 -0.5091
    7SAPS  H16Y  924   6.523   7.290   4.895  1.4220 -2.7913  0.3515
    7SAPS  C317  925   6.535   7.138   4.750 -0.6553 -0.8084 -0.1153
    7SAPS  H17X  926   6.561   7.185   4.653  1.1839  0.2681  0.8573
    7SAPS  H17Y  927   6.473   7.050   4.722  1.2797 -1.5331 -2.4086
    7SAPS  C318  928   6.669   7.094   4.812  0.1212 -0.0332 -1.1414
    7SAPS  H18X  929   6.728   7.015   4.760  1.3230 -1.3725  1.9796
    7SAPS  H18Y  930   6.640   7.055   4.912 -1.8268 -1.7966 -2.3081
    7SAPS  H18Z  931   6.732   7.181   4.839 -0.6756  0.4123 -0.6882
    8SAPS     N  932   5.031   6.585   6.828 -0.2799 -0.5748  0.1547
    8SAPS   HN1  933   5.130   6.554   6.827 -0.3122 -0.6541 -0.5480
    8SAPS   HN2  934   4.975   6.542   6.752 -1.1177 -1.5089  1.2665
    8SAPS   HN3  935   5.042   6.688   6.816  0.0189 -0.5441  0.6683
    8SAPS   C12  936   4.988   6.556   6.967  0.2613  0.3162 -0.0770
    8SAPS  H12A  937   5.023   6.456   6.985  0.8294  0.2690 -1.3221
    8SAPS   C13  938   5.030   6.654   7.077  0.2097 -0.3996 -0.3750
    8SAPS  O13A  939   5.099   6.753   7.052  0.2006 -0.4411  0.6397
    8SAPS  O13B  940   5.013   6.614   7.197 -0.5483 -0.4938  0.7789
    8SAPS   C11  941   4.823   6.551   6.978  0.0080 -0.0213  0.1396
    8SAPS  H11A  942   4.776   6.644   6.940  1.9777  1.1224  0.4052
    8SAPS  H11B  943   4.795   6.556   7.086  0.8362 -2.5628  0.5364
    8SAPS     P  944   4.717   6.418   6.787  0.1276 -0.6638  0.0550
    8SAPS   O13  945   4.816   6.459   6.689  0.5447 -0.0661 -0.4334
    8SAPS   O14  946   4.649   6.288   6.774 -0.1946 -0.5634  0.0822
    8SAPS   O12  947   4.782   6.423   6.928  0.4595 -0.1550  0.3082
    8SAPS   O11  948   4.602   6.530   6.800  0.1664  0.3728 -0.2153
    8SAPS    C1  949   4.475   6.486   6.853 -0.2489 -0.0079  1.2798
    8SAPS    HA  950   4.484   6.406   6.929  0.0242 -1.3298 -0.0965
    8SAPS    HB  951   4.427   6.574   6.903 -1.9200  0.5725 -1.1714
    8SAPS    C2  952   4.369   6.448   6.739  0.2437  0.0255 -0.4394
    8SAPS    HS  953   4.411   6.352   6.704 -1.6089 -0.8063 -0.5121
    8SAPS   O21  954   4.354   6.554   6.646 -0.3223  0.1125 -0.5492
    8SAPS   C21  955   4.430   6.551   6.537  0.8818  0.1960  0.2892
    8SAPS   O22  956   4.501   6.456   6.503  0.2997  0.7077  0.0812
    8SAPS   C22  957   4.450   6.687   6.471 -0.5316  0.5046 -0.4561
    8SAPS   H2R  958   4.503   6.742   6.552  0.2014  2.0998 -1.9418
    8SAPS   H2S  959   4.515   6.676   6.382  0.0872 -0.5805  0.1058
    8SAPS    C3  960   4.235   6.399   6.806 -0.3899  0.7421  0.1679
    8SAPS    HX  961   4.204   6.463   6.892 -1.3689 -0.4390  0.7253
    8SAPS    HY  962   4.245   6.294   6.841 -0.3350  0.3038 -1.1026
    8SAPS   O31  963   4.135   6.385   6.703 -0.0162  0.2104  0.1612
    8SAPS   C31  964   4.038   6.470   6.699  0.0165 -0.3634  0.4638
    8SAPS   O32  965   4.019   6.569   6.774 -0.5297 -0.2216 -0.3551
    8SAPS   C32  966   3.950   6.420   6.583  0.7381 -0.4060  0.0193
    8SAPS   H2X  967   3.875   6.357   6.636  0.0224 -1.6484 -2.3570
    8SAPS   H2Y  968   3.997   6.355   6.506 -2.0029 -1.2063 -1.0822
    8SAPS   C23  969   4.315   6.760   6.444 -0.6471  0.5464  0.2285
    8SAPS   H3R  970   4.343   6.867   6.435  0.1707  0.3178 -0.0352
    8SAPS   H3S  971   4.252   6.740   6.534 -0.3243 -1.1811  0.1164
    8SAPS   C24  972   4.258   6.725   6.307  1.1245  0.5430 -0.4467
    8SAPS   H4R  973   4.331   6.748   6.226  1.3943  1.1193 -0.0460
    8SAPS   H4S  974   4.174   6.795   6.289  1.1100  1.9513  3.9807
    8SAPS   C25  975   4.190   6.594   6.290 -0.1209  0.1481  0.1074
    8SAPS   H5R  976   4.127   6.562   6.374  1.1503 -2.0425  0.3057
    8SAPS   C26  977   4.188   6.513   6.185 -0.0475  0.1019 -0.0015
    8SAPS   H6R  978   4.146   6.413   6.202 -0.5412  0.0566 -1.3966
    8SAPS   C27  979   4.267   6.524   6.060  0.1533 -0.6223  0.3866
    8SAPS   H7R  980   4.267   6.426   6.009 -0.6525 -1.1718  1.3984
    8SAPS   H7S  981   4.372   6.548   6.087  0.9158 -1.8834 -1.3329
    8SAPS   C28  982   4.211   6.636   5.975 -1.0711 -0.2713 -0.6228
    8SAPS   H8R  983   4.186   6.732   6.024  0.3185 -0.6485  0.9352
    8SAPS   C29  984   4.192   6.626   5.843  0.2295  0.1473 -0.0941
    8SAPS   H9R  985   4.166   6.717   5.787  0.0694 -0.0304 -0.3096
    8SAPS  C210  986   4.216   6.504   5.755 -0.3452 -0.3843 -0.7326
    8SAPS  H10R  987   4.164   6.419   5.805 -0.5300 -0.1318 -0.4958
    8SAPS  H10S  988   4.322   6.473   5.743 -0.2925 -0.8394  0.7310
    8SAPS  C211  989   4.140   6.528   5.623  0.8896 -0.3372 -0.5939
    8SAPS  H11R  990   4.043   6.576   5.643  1.0127 -0.7782  1.2675
    8SAPS  C212  991   4.166   6.486   5.503  0.2927 -0.7687 -0.0182
    8SAPS  H12R  992   4.083   6.506   5.434  0.3379 -2.9234 -0.7902
    8SAPS  C213  993   4.274   6.403   5.450 -0.0057 -0.9347 -0.0469
    8SAPS  H13R  994   4.349   6.366   5.524  1.1953 -0.6697 -1.0885
    8SAPS  H13S  995   4.328   6.470   5.380  0.1436 -2.7618 -1.7435
    8SAPS  C214  996   4.214   6.286   5.378  0.4656  0.4025  0.8231
    8SAPS  H14R  997   4.242   6.192   5.429  1.3023 -0.3187 -0.8806
    8SAPS  C215  998   4.139   6.277   5.275  0.2166  0.5899  0.1784
    8SAPS  H15R  999   4.104   6.180   5.237 -0.6744 -0.2448  2.8969
    8SAPS  C216 1000   4.112   6.392   5.181  0.5539  0.3103 -0.5343
    8SAPS  H16R 1001   4.193   6.466   5.199  0.9816 -0.4418  0.6798
    8SAPS  H16S 1002   4.021   6.443   5.217 -1.9473 -3.7120 -0.5953
    8SAPS  C217 1003   4.119   6.374   5.031  0.6234  0.7308 -0.3811
    8SAPS  H17R 1004   4.091   6.274   4.993  1.8118  0.8185 -1.5641
    8SAPS  H17S 1005   4.222   6.392   4.993  1.1106  2.2492  1.5021
    8SAPS  C218 1006   4.027   6.476   4.969 -0.8695 -0.1168 -0.2694
    8SAPS  H18R 1007   4.061   6.574   5.008 -0.4120  0.4813 -2.0623
    8SAPS  H18S 1008   3.920   6.449   4.984 -0.6811 -1.0461 -0.5240
    8SAPS  C219 1009   4.043   6.490   4.811 -0.2070  0.2534  0.1017
    8SAPS  H19R 1010   3.943   6.509   4.768  0.3024 -2.1770 -2.4463
    8SAPS  H19S 1011   4.062   6.389   4.769  1.0452  0.7721 -0.6465
    8SAPS  C220 1012   4.142   6.592   4.754 -0.4573  0.1362 -1.0362
    8SAPS  H20R 1013   4.248   6.570   4.775 -0.7634 -0.7755 -0.3690
    8SAPS  H20S 1014   4.109   6.694   4.786 -1.2458 -0.3175 -0.3423
    8SAPS  H20T 1015   4.144   6.590   4.643  0.7822 -2.0324 -1.0065
    8SAPS   C33 1016   3.867   6.533   6.518 -0.1235 -0.5074 -0.1094
    8SAPS   H3X 1017   3.931   6.614   6.477 -0.1509 -0.8809 -0.9178
    8SAPS   H3Y 1018   3.798   6.571   6.596 -0.6653 -0.6923 -0.4926
    8SAPS   C34 1019   3.757   6.493   6.415  0.2295  0.7373 -0.5279
    8SAPS   H4X 1020   3.693   6.582   6.395  0.5033  0.7971 -1.1473
    8SAPS   H4Y 1021   3.694   6.410   6.456  2.0642 -1.3190 -1.6886
    8SAPS   C35 1022   3.812   6.422   6.285  0.4929 -0.3377  0.2496
    8SAPS   H5X 1023   3.803   6.311   6.287 -0.1340 -0.2858  0.3439
    8SAPS   H5Y 1024   3.919   6.445   6.268  0.5046  0.1117  0.9259
    8SAPS   C36 1025   3.735   6.472   6.158 -0.3565  0.5740  0.0668
    8SAPS   H6X 1026   3.742   6.583   6.156 -2.1445  0.7495  1.1746
    8SAPS   H6Y 1027   3.628   6.446   6.173 -0.0285 -0.5451  0.6735
    8SAPS   C37 1028   3.782   6.405   6.025 -0.0915 -0.7688  0.3319
    8SAPS   H7X 1029   3.761   6.296   6.014 -0.8683 -0.3744 -3.1758
    8SAPS   H7Y 1030   3.893   6.412   6.027 -0.1701  0.6926  0.1507
    8SAPS   C38 1031   3.726   6.481   5.903  0.5207 -0.6471  0.1501
    8SAPS   H8X 1032   3.760   6.586   5.912  2.3870 -0.9578 -2.2757
    8SAPS   H8Y 1033   3.615   6.473   5.907  0.5560 -0.6296  3.0717
    8SAPS   C39 1034   3.778   6.434   5.765 -0.1455 -0.0477  0.3779
    8SAPS   H9X 1035   3.738   6.330   5.763 -1.3242  0.3750  1.0138
    8SAPS   H9Y 1036   3.888   6.433   5.751 -0.0808 -0.9927  0.8738
    8SAPS  C310 1037   3.709   6.505   5.651  0.2794  0.0073  0.1551
    8SAPS  H10X 1038   3.743   6.610   5.642 -1.3991  0.6049  0.5008
    8SAPS  H10Y 1039   3.599   6.506   5.667 -0.4889  0.4453 -4.0026
    8SAPS  C311 1040   3.721   6.426   5.526 -0.1585 -0.3036 -0.0288
    8SAPS  H11X 1041   3.672   6.326   5.528  1.3022 -1.1019 -1.7779
    8SAPS  H11Y 1042   3.827   6.405   5.504 -0.7189 -3.2118 -0.2850
    8SAPS  C312 1043   3.650   6.491   5.406  0.0781  0.6427 -0.2875
    8SAPS  H12X 1044   3.694   6.593   5.410 -1.8670  1.5013  1.0658
    8SAPS  H12Y 1045   3.545   6.510   5.439  0.4457  0.2841  1.1612
    8SAPS  C313 1046   3.665   6.423   5.267 -0.1136  0.6331 -0.0788
    8SAPS  H13X 1047   3.613   6.329   5.295  0.2289  0.9587  1.8004
    8SAPS  H13Y 1048   3.770   6.398   5.240 -0.4628  1.0869 -1.9679
    8SAPS  C314 1049   3.598   6.489   5.150  0.0307  0.2952  0.3421
    8SAPS  H14X 1050   3.487   6.495   5.158 -0.1647 -1.9485  0.0409
    8SAPS  H14Y 1051   3.616   6.425   5.060 -0.6073  0.0593  0.3756
    8SAPS  C315 1052   3.644   6.630   5.103  0.0600  0.2715 -0.3528
    8SAPS  H15X 1053   3.734   6.664   5.157 -0.7673  0.1620  1.1520
    8SAPS  H15Y 1054   3.559   6.697   5.128  1.1006  1.5272 -0.0909
    8SAPS  C316 1055   3.670   6.648   4.948 -0.2333  0.3779  0.3140
    8SAPS  H16X 1056   3.762   6.591   4.922 -1.1009 -0.1936 -1.6738
    8SAPS  H16Y 1057   3.696   6.750   4.911 -2.3209  1.1308  0.7757
    8SAPS  C317 1058   3.561   6.601   4.859  0.1309  0.0696 -1.2090
    8SAPS  H17X 1059   3.478   6.659   4.905 -0.0360 -1.3737  0.3918
    8SAPS  H17Y 1060   3.534   6.496   4.883  2.3584 -0.0773  1.0067
    8SAPS  C318 1061   3.594   6.622   4.720 -0.6995  0.0444 -0.0355
    8SAPS  H18X 1062   3.675   6.554   4.686  0.3737  0.2825  1.9083
    8SAPS  H18Y 1063   3.633   6.724   4.702  1.9232 -0.5417  1.7954
    8SAPS  H18Z 1064   3.508   6.620   4.650 -1.1825 -0.5639  0.5631
    9SAPS     N 1065   2.192   6.772   7.421  0.3039 -0.6823 -0.5837
    9SAPS   HN1 1066   2.264   6.848   7.424 -0.2296 -0.1247  2.7258
    9SAPS   HN2 1067   2.177   6.749   7.321  1.0985  1.4787 -1.2764
    9SAPS   HN3 1068   2.101   6.807   7.457  2.0150  1.4433  2.1904
    9SAPS   C12 1069   2.236   6.659   7.487 -0.4445 -0.2108 -0.0947
    9SAPS  H12A 1070   2.321   6.623   7.431 -2.7409 -2.1432 -2.6041
    9SAPS   C13 1071   2.275   6.685   7.632  0.2132 -0.6129  0.6755
    9SAPS  O13A 1072   2.299   6.805   7.669 -0.8519  0.5338  0.1667
    9SAPS  O13B 1073   2.314   6.589   7.700 -0.5136  0.3554  0.4165
    9SAPS   C11 1074   2.133   6.548   7.474 -0.2427 -0.0115  0.1531
    9SAPS  H11A 1075   2.036   6.581   7.516 -1.1050 -0.1421 -1.6298
    9SAPS  H11B 1076   2.171   6.456   7.523  0.8226 -0.9972 -2.3047
    9SAPS     P 1077   1.996   6.423   7.304  0.0517  0.1936  0.1838
    9SAPS   O13 1078   2.036   6.296   7.371 -0.0494 -0.3673  0.2019
    9SAPS   O14 1079   1.867   6.482   7.344  0.1399 -0.6894  0.2745
    9SAPS   O12 1080   2.112   6.521   7.332  0.3391 -0.0211  0.6356
    9SAPS   O11 1081   2.002   6.406   7.149 -0.3900  0.6417  0.5578
    9SAPS    C1 1082   2.005   6.511   7.059  1.3594 -0.0566 -0.0354
    9SAPS    HA 1083   1.948   6.481   6.968  0.2936  2.8621 -0.4544
    9SAPS    HB 1084   1.956   6.603   7.098 -1.6814 -0.3539 -2.7482
    9SAPS    C2 1085   2.154   6.534   7.012 -0.1516  0.1095  0.0065
    9SAPS    HS 1086   2.220   6.510   7.098 -0.9848 -1.5971  0.2260
    9SAPS   O21 1087   2.172   6.666   6.957  0.0528  0.3890  0.0375
    9SAPS   C21 1088   2.162   6.757   7.044 -0.0553  0.1552 -0.5300
    9SAPS   O22 1089   2.164   6.737   7.165 -0.2599  0.4992  0.9383
    9SAPS   C22 1090   2.152   6.889   6.980 -0.3414 -0.4186 -0.1721
    9SAPS   H2R 1091   2.188   6.969   7.048  0.5809  0.6700 -1.8500
    9SAPS   H2S 1092   2.216   6.891   6.889 -0.5919  0.7714 -0.3505
    9SAPS    C3 1093   2.202   6.426   6.913 -0.1960 -0.1912  0.0354
    9SAPS    HX 1094   2.181   6.326   6.956 -2.7537  0.0484 -0.4995
    9SAPS    HY 1095   2.310   6.448   6.914 -0.5918  2.2476  2.8568
    9SAPS   O31 1096   2.148   6.432   6.777 -0.3373 -0.2983 -0.0697
    9SAPS   C31 1097   2.207   6.350   6.690  0.0817 -0.1018  0.6157
    9SAPS   O32 1098   2.312   6.287   6.707  0.5007 -0.7063 -0.3956
    9SAPS   C32 1099   2.112   6.339   6.566 -0.5064  0.1503 -0.0195
    9SAPS   H2X 1100   2.097   6.441   6.523 -1.0929 -0.2849 -0.8599
    9SAPS   H2Y 1101   2.018   6.305   6.614 -1.6996  0.0171 -2.3394
    9SAPS   C23 1102   2.012   6.934   6.927 -0.1268 -0.5453  0.0456
    9SAPS   H3R 1103   1.986   7.033   6.969  2.2538  0.2944 -0.2812
    9SAPS   H3S 1104   1.928   6.876   6.969  0.5619  0.2733  2.7387
    9SAPS   C24 1105   2.001   6.936   6.773  0.8879 -0.0979  0.0622
    9SAPS   H4R 1106   2.080   7.007   6.741  0.0186  1.4369  1.1469
    9SAPS   H4S 1107   1.904   6.985   6.747  0.6527  0.0755  1.2120
    9SAPS   C25 1108   2.015   6.804   6.697 -0.5920  0.5693 -0.9004
    9SAPS   H5R 1109   2.071   6.727   6.754 -0.5098  1.2703 -0.0150
    9SAPS   C26 1110   2.020   6.793   6.566  0.0217  0.1015  0.2635
    9SAPS   H6R 1111   2.042   6.697   6.517  0.7456 -0.2410  1.2382
    9SAPS   C27 1112   2.000   6.908   6.466 -0.1673 -0.6759  0.1702
    9SAPS   H7R 1113   2.094   6.965   6.446 -0.1804 -0.7186 -0.0138
    9SAPS   H7S 1114   1.934   6.985   6.512 -0.8645 -1.9569  1.3730
    9SAPS   C28 1115   1.950   6.865   6.330 -0.1699  0.3608  0.1114
    9SAPS   H8R 1116   2.030   6.827   6.264 -0.5326 -0.4631  0.1310
    9SAPS   C29 1117   1.829   6.874   6.279  0.6572  0.1963  0.0616
    9SAPS   H9R 1118   1.806   6.842   6.177 -0.8286 -0.2617  0.5105
    9SAPS  C210 1119   1.713   6.930   6.362  0.1140 -0.5371  1.3950
    9SAPS  H10R 1120   1.650   6.999   6.302 -0.9440 -2.1578  0.5708
    9SAPS  H10S 1121   1.755   6.995   6.442 -0.6377 -0.9889  2.1791
    9SAPS  C211 1122   1.615   6.832   6.426 -0.3127 -0.5768 -0.2674
    9SAPS  H11R 1123   1.650   6.802   6.525 -0.1774  0.7188  0.0965
    9SAPS  C212 1124   1.498   6.789   6.372 -0.0900 -0.3187  0.9399
    9SAPS  H12R 1125   1.434   6.725   6.434  0.9617 -1.1316  1.2189
    9SAPS  C213 1126   1.444   6.839   6.234 -0.4538 -0.8157 -1.0468
    9SAPS  H13R 1127   1.413   6.760   6.163 -0.1783 -0.0337 -2.0519
    9SAPS  H13S 1128   1.525   6.893   6.182  0.9042 -0.2420  1.4822
    9SAPS  C214 1129   1.321   6.919   6.265  0.3931  1.3088 -0.1637
    9SAPS  H14R 1130   1.320   7.026   6.291  0.7597  1.0511  0.9534
    9SAPS  C215 1131   1.196   6.860   6.269 -0.1671  0.0517 -0.2658
    9SAPS  H15R 1132   1.107   6.921   6.289 -0.0131  0.1273  0.1995
    9SAPS  C216 1133   1.157   6.712   6.232  0.0152 -0.3801 -0.2731
    9SAPS  H16R 1134   1.068   6.678   6.290 -0.7445 -0.0045 -1.1885
    9SAPS  H16S 1135   1.241   6.641   6.245  2.0622  1.9275 -0.0965
    9SAPS  C217 1136   1.112   6.706   6.080 -0.0665 -0.6471 -0.2308
    9SAPS  H17R 1137   1.023   6.771   6.086 -0.7079 -1.6173  3.3463
    9SAPS  H17S 1138   1.073   6.604   6.060 -0.1242 -0.7412  0.3440
    9SAPS  C218 1139   1.198   6.770   5.967  0.1894 -0.5177  0.3299
    9SAPS  H18R 1140   1.303   6.746   5.996  0.8827  1.0977 -0.6942
    9SAPS  H18S 1141   1.193   6.880   5.983 -2.5078 -0.6244  0.6361
    9SAPS  C219 1142   1.159   6.729   5.825 -0.3656  0.1044 -0.2499
    9SAPS  H19R 1143   1.193   6.790   5.739 -0.5502  0.0519 -0.3610
    9SAPS  H19S 1144   1.048   6.730   5.828 -0.3600 -0.8339  1.3129
    9SAPS  C220 1145   1.212   6.590   5.783 -0.3669  0.0363 -0.1823
    9SAPS  H20R 1146   1.172   6.562   5.683  0.3627  3.6313 -1.6220
    9SAPS  H20S 1147   1.184   6.509   5.855  0.7108  0.6071  0.9052
    9SAPS  H20T 1148   1.321   6.574   5.779 -0.6007 -1.6647 -0.8695
    9SAPS   C33 1149   2.162   6.235   6.457  0.6011  0.2280  0.2370
    9SAPS   H3X 1150   2.145   6.130   6.491 -1.2619 -0.0086 -1.2413
    9SAPS   H3Y 1151   2.272   6.242   6.452  0.7858 -2.3085 -1.0262
    9SAPS   C34 1152   2.081   6.250   6.327 -0.3879  0.1529  0.2939
    9SAPS   H4X 1153   2.093   6.339   6.262  1.9761 -0.5691 -0.3487
    9SAPS   H4Y 1154   1.972   6.239   6.344 -0.6629  0.2093 -1.3139
    9SAPS   C35 1155   2.107   6.132   6.234  0.4071  0.4903 -0.1146
    9SAPS   H5X 1156   2.081   6.036   6.284 -1.6235  1.5970  1.0935
    9SAPS   H5Y 1157   2.211   6.120   6.195 -0.6672 -1.1586 -2.7436
    9SAPS   C36 1158   2.033   6.163   6.100 -0.3954  0.2253 -0.0891
    9SAPS   H6X 1159   2.069   6.265   6.072 -0.2286  0.3388  0.5269
    9SAPS   H6Y 1160   1.926   6.180   6.122 -0.7191 -2.2512  0.5148
    9SAPS   C37 1161   2.053   6.059   5.996  0.3504  0.3899 -0.3609
    9SAPS   H7X 1162   2.006   5.967   6.036 -0.4627  0.3100 -1.4527
    9SAPS   H7Y 1163   2.158   6.041   5.963  0.2278  1.1722 -1.2224
    9SAPS   C38 1164   1.984   6.099   5.868  0.5065  0.2515 -0.0553
    9SAPS   H8X 1165   1.982   6.011   5.800 -0.9272  0.2241 -0.0114
    9SAPS   H8Y 1166   2.051   6.178   5.829  0.1934  1.0667  1.0222
    9SAPS   C39 1167   1.839   6.152   5.875  0.6556 -0.0108  0.6392
    9SAPS   H9X 1168   1.828   6.247   5.931 -3.1556 -0.2120  0.5101
    9SAPS   H9Y 1169   1.773   6.076   5.921  0.5693  0.1845  0.8374
    9SAPS  C310 1170   1.791   6.166   5.730 -0.0709 -0.3604  0.1604
    9SAPS  H10X 1171   1.817   6.074   5.673  0.1802 -0.0321 -0.2623
    9SAPS  H10Y 1172   1.850   6.248   5.682  1.3579 -0.3433  1.8276
    9SAPS  C311 1173   1.638   6.188   5.714 -0.1589 -0.6786  0.3715
    9SAPS  H11X 1174   1.614   6.279   5.773  1.2094  0.0002 -0.0766
    9SAPS  H11Y 1175   1.595   6.100   5.767 -3.7983 -0.4529 -1.8429
    9SAPS  C312 1176   1.598   6.190   5.566 -0.5522 -0.7335  0.9558
    9SAPS  H12X 1177   1.640   6.098   5.520 -0.5898  0.7723 -2.3423
    9SAPS  H12Y 1178   1.639   6.281   5.518 -1.9196 -0.8470 -0.5015
    9SAPS  C313 1179   1.448   6.176   5.536  0.3474 -0.2848 -0.0485
    9SAPS  H13X 1180   1.400   6.254   5.598 -0.6632  1.4583 -2.8469
    9SAPS  H13Y 1181   1.405   6.077   5.562  0.7060 -0.9193 -1.7358
    9SAPS  C314 1182   1.406   6.201   5.386  0.3139 -0.1382 -0.8194
    9SAPS  H14X 1183   1.297   6.186   5.396  0.1155  0.7719 -1.4671
    9SAPS  H14Y 1184   1.456   6.120   5.328  1.7178  0.3135 -0.2756
    9SAPS  C315 1185   1.432   6.345   5.330 -0.0161 -0.5768  0.5092
    9SAPS  H15X 1186   1.394   6.339   5.226 -1.5529  1.9719  0.8575
    9SAPS  H15Y 1187   1.540   6.370   5.335 -0.2027  0.4830 -0.4861
    9SAPS  C316 1188   1.362   6.465   5.400 -0.3447  0.4499  0.5517
    9SAPS  H16X 1189   1.395   6.559   5.352  0.4423 -0.2374 -0.2674
    9SAPS  H16Y 1190   1.391   6.468   5.508 -2.1993  0.6484  1.0830
    9SAPS  C317 1191   1.207   6.461   5.400 -0.0454 -0.3494  0.2861
    9SAPS  H17X 1192   1.173   6.547   5.462 -2.7713 -0.8536 -0.3675
    9SAPS  H17Y 1193   1.173   6.367   5.450  0.7446 -0.6222  0.3218
    9SAPS  C318 1194   1.146   6.459   5.260  0.2155  0.2223 -0.1192
    9SAPS  H18X 1195   1.036   6.456   5.268  0.3490 -1.8643  2.1667
    9SAPS  H18Y 1196   1.172   6.372   5.196  0.7960 -1.0280  1.7264
    9SAPS  H18Z 1197   1.171   6.553   5.206  0.7849  0.9260  1.2981
   10SAPS     N 1198   2.719   1.243   7.369  0.8566 -0.0868 -0.2062
   10SAPS   HN1 1199   2.732   1.336   7.414 -0.4252 -0.6753  1.4608
   10SAPS   HN2 1200   2.808   1.213   7.325 -0.4814 -1.4018 -2.2130
   10SAPS   HN3 1201   2.653   1.242   7.288  0.5502  3.6944 -0.1868
   10SAPS   C12 1202   2.679   1.138   7.464 -0.0812 -0.2736  0.3352
   10SAPS  H12A 1203   2.763   1.134   7.532 -1.0452  3.4458  2.0311
   10SAPS   C13 1204   2.550   1.169   7.537 -0.2565 -0.9532 -0.1348
   10SAPS  O13A 1205   2.482   1.271   7.512 -0.3452  0.2770 -0.8682
   10SAPS  O13B 1206   2.519   1.090   7.624  0.1281 -0.1745 -0.5423
   10SAPS   C11 1207   2.664   1.003   7.396  0.0215 -0.0823 -0.3047
   10SAPS  H11A 1208   2.569   0.991   7.341 -0.8139  2.3473  0.4649
   10SAPS  H11B 1209   2.669   0.926   7.476 -2.1920 -1.1517 -1.1353
   10SAPS     P 1210   2.797   0.857   7.225 -0.4287 -0.2765  0.4348
   10SAPS   O13 1211   2.910   0.899   7.139 -0.1206  0.2835 -0.2662
   10SAPS   O14 1212   2.814   0.736   7.309 -0.0785  0.0681  0.9482
   10SAPS   O12 1213   2.778   0.984   7.317 -0.1910  0.3914 -0.2952
   10SAPS   O11 1214   2.664   0.840   7.144 -0.4077  0.4293  0.1284
   10SAPS    C1 1215   2.608   0.942   7.064  0.1240  0.1471 -0.2940
   10SAPS    HA 1216   2.509   0.971   7.105 -0.1251  1.6719 -1.8969
   10SAPS    HB 1217   2.669   1.033   7.078  1.1375 -0.6387  0.5739
   10SAPS    C2 1218   2.579   0.903   6.918 -0.6323  0.3307  0.4911
   10SAPS    HS 1219   2.516   0.972   6.859 -0.3056 -0.5676 -0.9701
   10SAPS   O21 1220   2.516   0.769   6.906 -0.1127  0.3999  0.5132
   10SAPS   C21 1221   2.389   0.760   6.954  0.4502 -0.3676 -0.1349
   10SAPS   O22 1222   2.324   0.855   6.987  0.1114 -0.6695  0.1432
   10SAPS   C22 1223   2.336   0.620   6.963  0.4521 -0.7602  0.1870
   10SAPS   H2R 1224   2.409   0.565   7.026  1.1984  1.3870  1.2893
   10SAPS   H2S 1225   2.237   0.635   7.011  0.0941 -1.1938 -0.4010
   10SAPS    C3 1226   2.723   0.908   6.842 -0.5149  0.5037  1.0010
   10SAPS    HX 1227   2.784   0.850   6.914 -1.6208 -2.7273 -0.4812
   10SAPS    HY 1228   2.766   1.010   6.832  0.6625 -0.1761 -1.6635
   10SAPS   O31 1229   2.722   0.846   6.709 -0.1887 -0.1440 -0.2382
   10SAPS   C31 1230   2.850   0.845   6.650  0.2459  0.0884 -0.4866
   10SAPS   O32 1231   2.952   0.850   6.717  0.6303  0.2085  0.5965
   10SAPS   C32 1232   2.845   0.843   6.491  0.1235  0.5662 -0.8717
   10SAPS   H2X 1233   2.790   0.935   6.464  1.7761  1.3720 -1.5979
   10SAPS   H2Y 1234   2.790   0.749   6.465  1.6249 -0.5365 -0.2039
   10SAPS   C23 1235   2.327   0.542   6.827 -0.2259 -0.4308  0.7298
   10SAPS   H3R 1236   2.317   0.432   6.839  1.7197 -0.5648  1.5568
   10SAPS   H3S 1237   2.424   0.561   6.777 -1.2730 -0.0297 -1.2588
   10SAPS   C24 1238   2.229   0.609   6.730 -0.4446  0.1605  0.5551
   10SAPS   H4R 1239   2.239   0.563   6.630  1.6514  1.6109  0.0132
   10SAPS   H4S 1240   2.250   0.718   6.723 -0.4246  0.1278  0.0705
   10SAPS   C25 1241   2.091   0.604   6.775  0.0540  0.2480  0.1326
   10SAPS   H5R 1242   2.070   0.636   6.878 -2.3421  0.2040 -0.2737
   10SAPS   C26 1243   1.986   0.547   6.702 -0.0805 -0.5806  0.8084
   10SAPS   H6R 1244   1.887   0.558   6.749  0.5856 -1.2133  2.4227
   10SAPS   C27 1245   1.978   0.500   6.562 -0.0486 -0.0369 -0.4319
   10SAPS   H7R 1246   1.881   0.446   6.559 -1.2969  1.8585  2.2322
   10SAPS   H7S 1247   2.058   0.424   6.550  2.0112  1.8917  0.4611
   10SAPS   C28 1248   1.990   0.599   6.448  0.0152  0.1365 -0.7753
   10SAPS   H8R 1249   2.019   0.700   6.479 -0.0788 -0.7290  2.5209
   10SAPS   C29 1250   1.966   0.579   6.320 -0.0751  0.7641 -0.1167
   10SAPS   H9R 1251   1.975   0.664   6.250 -0.8228  0.8556 -0.1064
   10SAPS  C210 1252   1.927   0.449   6.249 -0.8821 -0.4518  0.0403
   10SAPS  H10R 1253   1.862   0.461   6.159  1.6631  1.3480 -1.6923
   10SAPS  H10S 1254   1.878   0.385   6.325 -1.1905  1.0559  1.1707
   10SAPS  C211 1255   2.052   0.385   6.201 -0.6532 -0.6383  0.0824
   10SAPS  H11R 1256   2.098   0.320   6.276 -0.3514  1.2688  1.6530
   10SAPS  C212 1257   2.100   0.376   6.074 -0.1855 -0.2379 -0.0773
   10SAPS  H12R 1258   2.193   0.319   6.063 -0.7644 -0.8087 -2.4859
   10SAPS  C213 1259   2.060   0.452   5.951  0.0096 -0.2319  0.3884
   10SAPS  H13R 1260   2.143   0.444   5.877 -0.1746  1.9457 -0.1389
   10SAPS  H13S 1261   2.057   0.562   5.967  1.7245 -0.1871  0.6174
   10SAPS  C214 1262   1.925   0.423   5.890  0.9653  0.8692 -0.2131
   10SAPS  H14R 1263   1.845   0.495   5.912 -0.3117 -0.9576  1.4804
   10SAPS  C215 1264   1.880   0.304   5.830  0.0189 -0.9841  0.5472
   10SAPS  H15R 1265   1.772   0.289   5.815 -0.4924  0.7195  2.0606
   10SAPS  C216 1266   1.973   0.185   5.812  0.2007 -0.1189 -0.2491
   10SAPS  H16R 1267   2.077   0.223   5.809  0.5861 -1.1799 -1.0792
   10SAPS  H16S 1268   1.950   0.140   5.713 -0.5958  1.9073 -1.0459
   10SAPS  C217 1269   1.963   0.083   5.920  0.0112  0.2148 -0.3507
   10SAPS  H17R 1270   1.858   0.060   5.948  0.6596  0.3604  2.4837
   10SAPS  H17S 1271   1.995   0.125   6.018 -1.1673 -0.5635  0.3901
   10SAPS  C218 1272   2.039  -0.044   5.882  0.1013 -0.2917  0.0205
   10SAPS  H18R 1273   2.141  -0.012   5.852  0.0655 -0.2169 -0.0212
   10SAPS  H18S 1274   1.988  -0.111   5.809  1.6838 -2.1752  0.5629
   10SAPS  C219 1275   2.074  -0.130   6.003  0.2758 -0.2607 -0.4356
   10SAPS  H19R 1276   1.981  -0.164   6.053 -0.1995 -0.4224 -1.3948
   10SAPS  H19S 1277   2.119  -0.055   6.071 -0.0598 -0.5502  0.1111
   10SAPS  C220 1278   2.176  -0.242   5.972 -0.3034  0.5110 -0.3415
   10SAPS  H20R 1279   2.275  -0.204   5.940  0.2915 -0.6875  0.0152
   10SAPS  H20S 1280   2.134  -0.300   5.888 -0.7281 -0.1247  0.2993
   10SAPS  H20T 1281   2.193  -0.301   6.065  0.6003  2.4714  0.8084
   10SAPS   C33 1282   2.971   0.852   6.404  0.5257 -0.1493 -0.0243
   10SAPS   H3X 1283   3.051   0.824   6.475 -0.4810 -2.1588  0.3861
   10SAPS   H3Y 1284   2.990   0.954   6.365  0.1531  0.0844  0.3988
   10SAPS   C34 1285   2.980   0.756   6.285  0.9110 -0.3907 -0.8305
   10SAPS   H4X 1286   2.952   0.654   6.320 -0.3898  0.5593  1.0647
   10SAPS   H4Y 1287   3.085   0.746   6.251  1.0366  2.7502 -1.6922
   10SAPS   C35 1288   2.890   0.794   6.165  0.1271 -0.0045 -0.5007
   10SAPS   H5X 1289   2.913   0.900   6.141  0.3756 -0.1113 -0.7368
   10SAPS   H5Y 1290   2.785   0.786   6.200 -0.3320 -1.3539 -2.0601
   10SAPS   C36 1291   2.923   0.718   6.033 -0.1244  0.4124 -0.3427
   10SAPS   H6X 1292   2.898   0.612   6.051 -1.3552  0.5309 -1.2019
   10SAPS   H6Y 1293   3.033   0.716   6.018  0.5104  1.3492  3.2082
   10SAPS   C37 1294   2.848   0.770   5.911  0.5199  0.0696  0.1443
   10SAPS   H7X 1295   2.880   0.876   5.895  0.5403 -0.1725 -1.6881
   10SAPS   H7Y 1296   2.739   0.784   5.923  0.6775  2.0962 -0.4219
   10SAPS   C38 1297   2.867   0.703   5.771  0.4370  1.0413 -0.0364
   10SAPS   H8X 1298   2.778   0.723   5.707  0.5710 -1.3087 -1.0482
   10SAPS   H8Y 1299   2.866   0.592   5.768 -0.4255  1.0291 -3.7307
   10SAPS   C39 1300   2.992   0.747   5.688  0.7607  0.4680  0.3509
   10SAPS   H9X 1301   3.083   0.716   5.744 -0.1782 -0.9148  1.1765
   10SAPS   H9Y 1302   2.994   0.858   5.695  2.8835  0.4807  0.2310
   10SAPS  C310 1303   2.998   0.703   5.542 -0.7122  0.9249 -0.7848
   10SAPS  H10X 1304   2.976   0.595   5.558 -0.5160  1.2055  1.8756
   10SAPS  H10Y 1305   3.106   0.707   5.515 -0.0407  0.0712  1.4687
   10SAPS  C311 1306   2.898   0.770   5.447  0.1148 -0.0107 -0.1325
   10SAPS  H11X 1307   2.908   0.878   5.471 -0.0708 -0.4233  1.9413
   10SAPS  H11Y 1308   2.793   0.748   5.472  0.2706  0.7835  1.3041
   10SAPS  C312 1309   2.938   0.721   5.308  0.6069 -0.5785  0.5057
   10SAPS  H12X 1310   2.924   0.611   5.308 -0.9523 -0.4026  0.8934
   10SAPS  H12Y 1311   3.046   0.739   5.290  0.5353 -1.5748 -1.0743
   10SAPS  C313 1312   2.848   0.788   5.203  0.2775 -0.3316 -0.1583
   10SAPS  H13X 1313   2.833   0.896   5.224  0.3492 -0.1381 -1.0457
   10SAPS  H13Y 1314   2.745   0.745   5.214 -0.2801  1.4363  2.4959
   10SAPS  C314 1315   2.887   0.755   5.053  0.0768 -0.1398  0.0028
   10SAPS  H14X 1316   2.997   0.750   5.038  0.2541  3.9704 -1.1576
   10SAPS  H14Y 1317   2.859   0.845   4.995 -0.4240 -0.3813 -0.1381
   10SAPS  C315 1318   2.814   0.636   4.996  0.2573  0.1192  0.0596
   10SAPS  H15X 1319   2.823   0.635   4.885 -0.1420  0.9940  0.0116
   10SAPS  H15Y 1320   2.708   0.653   5.024  0.2242 -0.1164  0.0809
   10SAPS  C316 1321   2.876   0.509   5.055  0.1374  0.2266 -0.4023
   10SAPS  H16X 1322   2.850   0.503   5.163 -2.4213 -0.6493 -1.0117
   10SAPS  H16Y 1323   2.985   0.524   5.039  0.2136 -1.2639 -1.4838
   10SAPS  C317 1324   2.839   0.388   4.971  0.3474  0.4010  0.3379
   10SAPS  H17X 1325   2.882   0.301   5.025  1.8297  0.7575 -0.2158
   10SAPS  H17Y 1326   2.879   0.393   4.868 -0.7286  0.0714 -0.1127
   10SAPS  C318 1327   2.688   0.361   4.956  0.1175 -0.3382 -0.2439
   10SAPS  H18X 1328   2.632   0.371   5.051  2.4206 -3.5839  1.6503
   10SAPS  H18Y 1329   2.676   0.257   4.919  0.0049 -0.2739 -0.3890
   10SAPS  H18Z 1330   2.650   0.432   4.880 -0.3933  0.3495  0.6271
   11SAPS     N 1331   3.060   2.583   2.316 -0.0864 -0.1081 -0.1293
   11SAPS   HN1 1332   3.115   2.649   2.258  0.5904  0.5949  1.2696
   11SAPS   HN2 1333   3.047   2.635   2.405  1.1372 -0.9929  0.6101
   11SAPS   HN3 1334   3.126   2.505   2.335  2.2193  1.6810 -0.4516
   11SAPS   C12 1335   2.936   2.540   2.255  0.0279  0.2419 -0.5622
   11SAPS  H12A 1336   2.876   2.628   2.233  0.4549  0.0522 -2.7100
   11SAPS   C13 1337   2.957   2.466   2.120 -0.3239 -0.1319 -0.0059
   11SAPS  O13A 1338   3.075   2.449   2.080  0.0005 -0.2149 -0.0788
   11SAPS  O13B 1339   2.856   2.441   2.047  0.0090  0.1551  0.1371
   11SAPS   C11 1340   2.864   2.451   2.354  0.8122 -0.2039  0.4580
   11SAPS  H11A 1341   2.907   2.348   2.356 -0.3723 -0.8171 -1.9043
   11SAPS  H11B 1342   2.765   2.444   2.305  1.3220  0.5762 -0.7093
   11SAPS     P 1343   2.757   2.441   2.594  0.7225  0.0582  0.0948
   11SAPS   O13 1344   2.633   2.523   2.596  0.2644 -0.2445 -0.7923
   11SAPS   O14 1345   2.734   2.296   2.568 -0.3166 -0.0082 -0.2836
   11SAPS   O12 1346   2.846   2.509   2.483 -0.1532 -0.0647  0.3551
   11SAPS   O11 1347   2.850   2.468   2.723  0.9047  1.0484  0.5798
   11SAPS    C1 1348   2.990   2.457   2.709 -0.2056  0.3941 -0.7447
   11SAPS    HA 1349   3.039   2.455   2.609  0.7855 -1.6780 -0.2847
   11SAPS    HB 1350   3.030   2.543   2.766 -2.6551  0.2647  1.3729
   11SAPS    C2 1351   3.039   2.317   2.775 -0.1459 -0.3515 -0.2947
   11SAPS    HS 1352   3.008   2.236   2.705 -2.3224 -1.2696  1.6205
   11SAPS   O21 1353   2.977   2.293   2.903  0.6710  0.7458 -0.0631
   11SAPS   C21 1354   2.998   2.170   2.947  0.4532 -0.6187 -0.6242
   11SAPS   O22 1355   3.030   2.079   2.875  0.6533 -0.3304  0.1453
   11SAPS   C22 1356   2.959   2.159   3.095  0.0112 -0.3949 -0.1476
   11SAPS   H2R 1357   2.855   2.123   3.102  0.6947 -2.3809  0.4712
   11SAPS   H2S 1358   3.017   2.069   3.125 -1.6298 -0.9979  1.3934
   11SAPS    C3 1359   3.192   2.309   2.776 -0.0841 -0.0207 -0.1340
   11SAPS    HX 1360   3.232   2.341   2.677 -0.6186 -0.5675 -0.5288
   11SAPS    HY 1361   3.234   2.208   2.797 -1.3535 -0.6336 -0.4630
   11SAPS   O31 1362   3.238   2.410   2.858  0.2065  0.1954 -0.3764
   11SAPS   C31 1363   3.304   2.382   2.965 -0.5260  0.7625 -0.0903
   11SAPS   O32 1364   3.326   2.267   3.003  0.0015  0.1461 -0.7660
   11SAPS   C32 1365   3.371   2.502   3.027  0.0448 -0.0099  0.2208
   11SAPS   H2X 1366   3.414   2.561   2.944 -0.7095  0.8330  0.4047
   11SAPS   H2Y 1367   3.453   2.461   3.090 -2.2060 -2.6682  1.6826
   11SAPS   C23 1368   2.991   2.296   3.164 -0.0746  0.1253  0.9501
   11SAPS   H3R 1369   2.894   2.351   3.166  0.3130  0.7881  2.6554
   11SAPS   H3S 1370   3.069   2.361   3.117 -1.4694  0.7048 -0.6758
   11SAPS   C24 1371   3.033   2.291   3.308  0.5683  0.1991 -0.1920
   11SAPS   H4R 1372   2.974   2.222   3.372 -0.7498  1.0697 -0.4205
   11SAPS   H4S 1373   3.007   2.386   3.361  2.2096 -0.4892  1.9825
   11SAPS   C25 1374   3.175   2.246   3.328 -0.4773  0.1964 -0.2703
   11SAPS   H5R 1375   3.208   2.174   3.251  0.6825 -0.5200  0.8432
   11SAPS   C26 1376   3.259   2.275   3.433 -0.2692 -0.9824 -0.4149
   11SAPS   H6R 1377   3.358   2.229   3.446 -0.2126 -0.5977  0.5685
   11SAPS   C27 1378   3.219   2.379   3.540 -0.2226 -0.2349 -0.5101
   11SAPS   H7R 1379   3.117   2.353   3.576  0.6698 -0.8594  1.7243
   11SAPS   H7S 1380   3.229   2.476   3.487  2.6191 -0.3750 -0.3821
   11SAPS   C28 1381   3.326   2.379   3.653 -0.0091 -0.0754 -0.5615
   11SAPS   H8R 1382   3.356   2.279   3.688  0.0896 -0.3751 -1.4953
   11SAPS   C29 1383   3.390   2.491   3.701  0.0013 -0.1037  0.3090
   11SAPS   H9R 1384   3.463   2.479   3.782 -2.1769 -0.0260  2.3750
   11SAPS  C210 1385   3.363   2.636   3.668  0.3944  0.1620 -0.5896
   11SAPS  H10R 1386   3.292   2.674   3.745 -0.5502 -0.3874 -1.1790
   11SAPS  H10S 1387   3.289   2.649   3.587 -1.7794 -0.6696  1.1545
   11SAPS  C211 1388   3.487   2.718   3.643 -0.0282 -0.1524 -0.7180
   11SAPS  H11R 1389   3.507   2.725   3.535  2.5298  0.4499 -0.2710
   11SAPS  C212 1390   3.570   2.782   3.736  0.0689 -0.0442 -0.3469
   11SAPS  H12R 1391   3.667   2.808   3.691  0.5870 -1.5031 -0.1343
   11SAPS  C213 1392   3.543   2.808   3.884  0.0989 -0.1912  0.0219
   11SAPS  H13R 1393   3.591   2.904   3.913 -0.3104  0.1747 -0.5113
   11SAPS  H13S 1394   3.598   2.731   3.943  1.4516  1.9817  1.7475
   11SAPS  C214 1395   3.397   2.805   3.938 -0.7278 -0.1596  0.1369
   11SAPS  H14R 1396   3.313   2.845   3.879 -1.9849  2.3804  3.3839
   11SAPS  C215 1397   3.359   2.790   4.060 -0.0371  0.4253 -0.0293
   11SAPS  H15R 1398   3.256   2.813   4.090  0.3419 -0.4766  2.2426
   11SAPS  C216 1399   3.450   2.757   4.183  0.3768 -0.2980  0.3534
   11SAPS  H16R 1400   3.549   2.718   4.152  0.5980  0.7507 -0.3346
   11SAPS  H16S 1401   3.401   2.676   4.242  2.5503 -1.4840  0.6336
   11SAPS  C217 1402   3.479   2.878   4.265  0.4615 -0.5896 -0.3816
   11SAPS  H17R 1403   3.506   2.966   4.204  1.0301 -1.8900 -2.0963
   11SAPS  H17S 1404   3.564   2.849   4.330  0.1454 -1.4532 -0.3365
   11SAPS  C218 1405   3.361   2.913   4.364 -0.1721  1.0168  0.0537
   11SAPS  H18R 1406   3.345   2.828   4.434  2.0977  0.0463 -0.5400
   11SAPS  H18S 1407   3.267   2.916   4.304 -0.8949 -2.0348  0.8678
   11SAPS  C219 1408   3.399   3.033   4.455 -0.0220  0.3158  0.4265
   11SAPS  H19R 1409   3.423   3.107   4.376 -0.8745  0.5288  0.3658
   11SAPS  H19S 1410   3.494   3.026   4.513 -0.1013  3.5250  1.1583
   11SAPS  C220 1411   3.293   3.095   4.543 -0.2270  0.0725 -0.3954
   11SAPS  H20R 1412   3.316   3.196   4.583  0.8463 -0.4482  0.3378
   11SAPS  H20S 1413   3.263   3.027   4.626  0.2993 -0.2170 -0.4414
   11SAPS  H20T 1414   3.201   3.109   4.481 -2.2650 -0.9213  2.2288
   11SAPS   C33 1415   3.268   2.582   3.117  1.2549 -0.2812 -0.1473
   11SAPS   H3X 1416   3.227   2.517   3.198 -1.6344  0.9936 -0.4778
   11SAPS   H3Y 1417   3.183   2.602   3.049  1.1336 -3.0466 -0.9368
   11SAPS   C34 1418   3.313   2.713   3.181 -0.4745 -0.5969 -0.0564
   11SAPS   H4X 1419   3.363   2.771   3.101  1.9392  1.0188  2.4394
   11SAPS   H4Y 1420   3.404   2.687   3.240 -0.2731 -0.5368 -0.3382
   11SAPS   C35 1421   3.205   2.782   3.261  0.2465  0.5615  0.0823
   11SAPS   H5X 1422   3.162   2.709   3.332 -0.6507  2.3620  1.4583
   11SAPS   H5Y 1423   3.121   2.816   3.198  0.9270 -0.7883 -1.6622
   11SAPS   C36 1424   3.250   2.904   3.343  0.5008  0.2357  0.2094
   11SAPS   H6X 1425   3.251   2.988   3.270  0.4244  0.7122  0.7566
   11SAPS   H6Y 1426   3.356   2.879   3.368  0.6974  0.2636 -0.5486
   11SAPS   C37 1427   3.150   2.926   3.457 -0.7772  0.0317  0.1881
   11SAPS   H7X 1428   3.147   2.837   3.524  0.6479 -0.7241 -0.7096
   11SAPS   H7Y 1429   3.043   2.922   3.427 -0.9533 -0.5656  0.8594
   11SAPS   C38 1430   3.178   3.062   3.529 -0.2743  0.2965  0.0767
   11SAPS   H8X 1431   3.185   3.135   3.447  0.8016 -0.4380 -0.5034
   11SAPS   H8Y 1432   3.281   3.061   3.570  0.0093  0.6711 -0.6178
   11SAPS   C39 1433   3.072   3.110   3.631  0.1028  0.8533  0.6321
   11SAPS   H9X 1434   2.967   3.101   3.597  0.0040  1.7409  0.6970
   11SAPS   H9Y 1435   3.094   3.217   3.650 -1.6373  1.3450  0.0025
   11SAPS  C310 1436   3.082   3.030   3.760 -0.2059  0.0200 -0.3757
   11SAPS  H10X 1437   3.188   3.015   3.787 -0.6787  0.9982  2.3531
   11SAPS  H10Y 1438   3.052   2.927   3.730  3.6528 -0.8065 -1.9023
   11SAPS  C311 1439   3.009   3.087   3.879  0.7103 -0.4176  0.2942
   11SAPS  H11X 1440   2.900   3.094   3.859  0.9482 -0.4986 -1.1047
   11SAPS  H11Y 1441   3.039   3.191   3.903  0.6097  0.2975 -2.3525
   11SAPS  C312 1442   3.034   3.008   4.013 -0.0005 -0.7992 -0.2052
   11SAPS  H12X 1443   3.141   3.022   4.038  0.6134 -2.4339 -1.7074
   11SAPS  H12Y 1444   3.016   2.900   3.991  0.3003 -1.1831  1.3220
   11SAPS  C313 1445   2.952   3.051   4.140  0.1243 -0.0916  0.9971
   11SAPS  H13X 1446   2.845   3.030   4.121  0.1184  1.1261 -0.5044
   11SAPS  H13Y 1447   2.959   3.161   4.158 -1.0475 -0.3299  3.3728
   11SAPS  C314 1448   2.991   2.983   4.273 -0.0437  0.2029 -0.1923
   11SAPS  H14X 1449   2.918   3.010   4.352  1.2421  1.2612  0.6853
   11SAPS  H14Y 1450   3.091   3.020   4.303 -0.0275 -0.4426  0.5895
   11SAPS  C315 1451   2.999   2.832   4.258 -0.2052 -1.2185 -0.2428
   11SAPS  H15X 1452   3.093   2.801   4.208  1.3233  0.9809  1.0886
   11SAPS  H15Y 1453   2.915   2.786   4.202 -0.2271 -0.5458 -0.7647
   11SAPS  C316 1454   2.989   2.775   4.400  0.1319  0.1111  0.2329
   11SAPS  H16X 1455   2.883   2.791   4.429  0.4214 -1.1544  2.1336
   11SAPS  H16Y 1456   3.072   2.809   4.465 -0.1242  0.1893  0.5180
   11SAPS  C317 1457   3.022   2.617   4.403 -0.5525 -0.5140 -0.2330
   11SAPS  H17X 1458   2.958   2.567   4.326 -0.5836 -2.8549  1.1886
   11SAPS  H17Y 1459   2.985   2.577   4.500  0.6687  0.7084  0.7560
   11SAPS  C318 1460   3.164   2.566   4.385  0.1583 -0.8302 -0.1014
   11SAPS  H18X 1461   3.170   2.463   4.426  2.8755  0.4262  3.1906
   11SAPS  H18Y 1462   3.222   2.640   4.445 -0.8019  1.3644 -1.7482
   11SAPS  H18Z 1463   3.205   2.576   4.283 -1.0880 -0.5229 -0.5993
   12SAPS     N 1464   5.367   0.694   1.958 -0.3445 -0.3613 -0.8024
   12SAPS   HN1 1465   5.409   0.620   1.898 -1.0816 -0.1212 -1.6252
   12SAPS   HN2 1466   5.329   0.749   1.879  0.5075 -2.3118 -2.6860
   12SAPS   HN3 1467   5.447   0.743   2.004 -1.7047 -0.5194  1.9134
   12SAPS   C12 1468   5.268   0.641   2.061 -0.0609 -0.7376  0.0405
   12SAPS  H12A 1469   5.169   0.630   2.019 -1.2118  1.6363  1.8865
   12SAPS   C13 1470   5.320   0.508   2.121 -0.2376 -0.3981 -0.3006
   12SAPS  O13A 1471   5.428   0.451   2.084  0.3570  0.4383  0.3824
   12SAPS  O13B 1472   5.242   0.448   2.202  0.1294  0.7551 -0.1591
   12SAPS   C11 1473   5.245   0.753   2.171  0.1879 -0.0027 -0.9640
   12SAPS  H11A 1474   5.335   0.783   2.228  0.2178 -0.8925 -0.5266
   12SAPS  H11B 1475   5.177   0.712   2.249  0.7246  0.8574 -0.0315
   12SAPS     P 1476   5.037   0.922   2.131 -0.7733  0.1714 -0.2746
   12SAPS   O13 1477   5.044   1.063   2.081  0.2314 -0.3163 -0.2844
   12SAPS   O14 1478   4.938   0.826   2.075 -0.5113 -0.2771 -0.4900
   12SAPS   O12 1479   5.188   0.863   2.097  0.2962  0.2817 -0.1444
   12SAPS   O11 1480   5.018   0.923   2.290 -0.2435  0.3063  0.0115
   12SAPS    C1 1481   5.127   0.984   2.364  0.1090  0.2635  0.0303
   12SAPS    HA 1482   5.231   0.966   2.329 -0.5067 -0.5658 -1.4320
   12SAPS    HB 1483   5.127   1.094   2.348 -1.0065  0.3409  0.5104
   12SAPS    C2 1484   5.102   0.954   2.517 -0.3612 -0.3011  0.1098
   12SAPS    HS 1485   5.195   0.986   2.567 -1.1394  1.0933  0.7162
   12SAPS   O21 1486   5.071   0.816   2.550  0.0550  0.0809 -0.5032
   12SAPS   C21 1487   5.185   0.736   2.538  0.1124 -0.3401 -0.3272
   12SAPS   O22 1488   5.294   0.780   2.511  0.3128  0.2324 -0.2232
   12SAPS   C22 1489   5.144   0.602   2.572  0.9353 -0.1653  0.2593
   12SAPS   H2R 1490   5.052   0.596   2.633  0.6873  1.7016  0.1322
   12SAPS   H2S 1491   5.130   0.545   2.478  0.0733  2.5796 -1.4054
   12SAPS    C3 1492   4.979   1.045   2.557  0.2639 -0.9579  0.1526
   12SAPS    HX 1493   4.894   1.008   2.497  0.3661  2.9918 -2.8443
   12SAPS    HY 1494   5.010   1.150   2.539  0.1077 -1.1493 -1.3746
   12SAPS   O31 1495   4.957   1.024   2.694 -0.0497  0.4676 -0.0931
   12SAPS   C31 1496   4.851   1.095   2.739  0.1227 -0.8471  0.5882
   12SAPS   O32 1497   4.773   1.151   2.668  0.0958 -0.6288  0.0537
   12SAPS   C32 1498   4.842   1.078   2.895  0.3584 -0.3747  0.5479
   12SAPS   H2X 1499   4.740   1.045   2.920 -0.5290  1.7674 -0.0465
   12SAPS   H2Y 1500   4.842   1.183   2.932  0.6301  0.6733 -2.1269
   12SAPS   C23 1501   5.253   0.527   2.647  0.1228  0.5190 -0.3322
   12SAPS   H3R 1502   5.343   0.559   2.590 -0.0702  1.8434  0.0618
   12SAPS   H3S 1503   5.240   0.418   2.661 -2.7339  0.9198  0.6143
   12SAPS   C24 1504   5.254   0.574   2.797  0.0490 -0.1403 -0.2623
   12SAPS   H4R 1505   5.162   0.533   2.844  0.5365  0.5184  1.3305
   12SAPS   H4S 1506   5.247   0.685   2.802  2.2764  0.0675 -0.6951
   12SAPS   C25 1507   5.379   0.517   2.861 -0.2961 -0.8552  0.3061
   12SAPS   H5R 1508   5.412   0.417   2.830  1.4504 -0.3392  0.3770
   12SAPS   C26 1509   5.447   0.571   2.960 -0.0666 -0.3187  0.1400
   12SAPS   H6R 1510   5.528   0.514   3.007  0.6661  0.0616 -0.6361
   12SAPS   C27 1511   5.425   0.709   3.023  0.3737  0.3685  0.6834
   12SAPS   H7R 1512   5.362   0.694   3.114 -0.6045 -0.9985 -0.1900
   12SAPS   H7S 1513   5.363   0.775   2.959  1.1151  0.3510 -0.0656
   12SAPS   C28 1514   5.562   0.773   3.048  0.5672  0.2452  0.5097
   12SAPS   H8R 1515   5.632   0.778   2.963  0.3322  3.0295  0.3963
   12SAPS   C29 1516   5.612   0.814   3.169  0.6176  0.1009 -0.4315
   12SAPS   H9R 1517   5.718   0.843   3.164  0.2845  1.1382 -2.6929
   12SAPS  C210 1518   5.550   0.812   3.308 -0.5132 -0.0994  0.0060
   12SAPS  H10R 1519   5.606   0.893   3.360  0.0048  0.0530 -0.7716
   12SAPS  H10S 1520   5.592   0.728   3.368  1.3271  0.4373 -0.4495
   12SAPS  C211 1521   5.405   0.832   3.325 -0.5721  0.0995 -0.0307
   12SAPS  H11R 1522   5.352   0.885   3.244  1.2344  0.5838 -0.9322
   12SAPS  C212 1523   5.337   0.814   3.442  0.2572 -0.7325  0.0700
   12SAPS  H12R 1524   5.231   0.844   3.446  0.5880  0.4215  0.5231
   12SAPS  C213 1525   5.398   0.755   3.562 -0.2364  0.0707 -0.3629
   12SAPS  H13R 1526   5.508   0.737   3.560 -0.0722  0.8914  0.4703
   12SAPS  H13S 1527   5.356   0.655   3.588  0.7747 -1.0566 -2.7310
   12SAPS  C214 1528   5.365   0.854   3.669  0.0643  0.1727 -0.1117
   12SAPS  H14R 1529   5.415   0.951   3.665 -0.4587  0.5176  1.1377
   12SAPS  C215 1530   5.306   0.837   3.787 -0.2516  0.6014  0.5566
   12SAPS  H15R 1531   5.304   0.932   3.843 -0.6055  2.6645 -2.6830
   12SAPS  C216 1532   5.252   0.707   3.845  0.1265  0.0647  0.0049
   12SAPS  H16R 1533   5.247   0.622   3.774  1.8582  0.4025 -0.5915
   12SAPS  H16S 1534   5.144   0.726   3.859  0.1650  1.3623 -1.3051
   12SAPS  C217 1535   5.317   0.663   3.981  0.0972 -0.3475 -0.4058
   12SAPS  H17R 1536   5.317   0.751   4.048  1.3356 -0.8767  0.3235
   12SAPS  H17S 1537   5.424   0.635   3.966 -0.0605 -2.0376  1.2016
   12SAPS  C218 1538   5.241   0.552   4.051 -0.1749  0.4953  0.6338
   12SAPS  H18R 1539   5.241   0.467   3.979 -0.0022 -1.7016  3.0551
   12SAPS  H18S 1540   5.138   0.576   4.083 -0.4558 -1.0146  0.9629
   12SAPS  C219 1541   5.302   0.502   4.183  0.1248 -0.4775  0.4434
   12SAPS  H19R 1542   5.392   0.441   4.160  0.3562 -0.7978  2.1162
   12SAPS  H19S 1543   5.220   0.429   4.201  0.5846 -1.9612 -2.7245
   12SAPS  C220 1544   5.306   0.602   4.294  0.4418  0.1775 -0.1753
   12SAPS  H20R 1545   5.203   0.604   4.337  0.8633  0.5439  0.8629
   12SAPS  H20S 1546   5.341   0.704   4.267  3.2608 -0.4244  0.9043
   12SAPS  H20T 1547   5.368   0.579   4.383  1.2999  1.3985 -0.4436
   12SAPS   C33 1548   4.934   0.973   2.965  0.3878  0.2774  0.1690
   12SAPS   H3X 1549   5.038   1.011   2.954  0.6209  0.2153  1.8918
   12SAPS   H3Y 1550   4.925   0.878   2.907  0.5768  0.3751 -0.0230
   12SAPS   C34 1551   4.896   0.955   3.111  0.2892 -0.3149  0.4180
   12SAPS   H4X 1552   4.801   0.898   3.115  0.6359 -0.9494 -0.1929
   12SAPS   H4Y 1553   4.871   1.055   3.154 -1.4612 -0.8315  0.6690
   12SAPS   C35 1554   4.991   0.879   3.205 -0.8016 -0.2660  0.7516
   12SAPS   H5X 1555   4.935   0.858   3.298 -2.1135  2.4067  0.6416
   12SAPS   H5Y 1556   5.081   0.943   3.221  0.9845 -2.2374 -0.7540
   12SAPS   C36 1557   5.028   0.743   3.134  0.3697  0.2428  0.1649
   12SAPS   H6X 1558   5.090   0.760   3.043 -1.1968  0.8647 -0.8327
   12SAPS   H6Y 1559   4.939   0.699   3.084  0.8688  0.2732 -0.7738
   12SAPS   C37 1560   5.085   0.640   3.239 -0.3271 -0.0111  0.2199
   12SAPS   H7X 1561   5.019   0.642   3.329 -2.2170  1.3339 -1.1147
   12SAPS   H7Y 1562   5.186   0.669   3.274  0.0361 -1.2371  0.2239
   12SAPS   C38 1563   5.086   0.495   3.187 -0.5588  0.5378  0.0325
   12SAPS   H8X 1564   5.143   0.492   3.092  0.4107 -0.3246  0.6201
   12SAPS   H8Y 1565   4.981   0.464   3.169 -0.5872  0.6707 -0.0339
   12SAPS   C39 1566   5.163   0.391   3.277 -0.1345 -0.1618  0.2235
   12SAPS   H9X 1567   5.128   0.288   3.254  1.9078 -0.3463 -2.6514
   12SAPS   H9Y 1568   5.152   0.420   3.384 -0.5831 -1.4032  0.5344
   12SAPS  C310 1569   5.310   0.379   3.241 -0.3743  0.1873 -0.2399
   12SAPS  H10X 1570   5.349   0.482   3.252 -1.6011  0.8466 -1.6494
   12SAPS  H10Y 1571   5.317   0.349   3.134 -4.3521 -0.0535 -0.5658
   12SAPS  C311 1572   5.391   0.281   3.325 -0.3001 -0.5212 -0.2234
   12SAPS  H11X 1573   5.469   0.243   3.255  1.0155  1.6239  0.0051
   12SAPS  H11Y 1574   5.320   0.196   3.340 -1.4495 -0.0626 -2.5658
   12SAPS  C312 1575   5.448   0.333   3.460 -0.1352 -0.1390 -0.1487
   12SAPS  H12X 1576   5.506   0.420   3.422 -0.5866 -0.7952 -2.4947
   12SAPS  H12Y 1577   5.508   0.252   3.507 -1.8758 -0.0341  2.4980
   12SAPS  C313 1578   5.343   0.373   3.571  0.0907  0.6741  0.2638
   12SAPS  H13X 1579   5.285   0.454   3.521  1.1325  1.6725  0.6310
   12SAPS  H13Y 1580   5.384   0.417   3.664  0.7895 -0.0930  0.3274
   12SAPS  C314 1581   5.251   0.253   3.617 -0.4329 -0.2628  0.2716
   12SAPS  H14X 1582   5.320   0.171   3.645 -0.2881  0.8940  3.7700
   12SAPS  H14Y 1583   5.186   0.225   3.531 -0.9454  0.3305  0.4622
   12SAPS  C315 1584   5.156   0.302   3.732  0.1046  0.8762 -0.2215
   12SAPS  H15X 1585   5.216   0.367   3.799 -0.2239  2.2047 -1.1682
   12SAPS  H15Y 1586   5.116   0.208   3.775 -0.1926 -0.0191 -2.3120
   12SAPS  C316 1587   5.044   0.392   3.689 -0.2032 -0.5689 -0.1361
   12SAPS  H16X 1588   4.978   0.330   3.625 -1.4944 -1.4804  1.9671
   12SAPS  H16Y 1589   5.091   0.474   3.630 -2.2437  0.6710 -0.1539
   12SAPS  C317 1590   4.962   0.464   3.796  1.0295  0.2061 -0.2051
   12SAPS  H17X 1591   5.025   0.534   3.856  0.5120 -0.9980  1.8217
   12SAPS  H17Y 1592   4.935   0.394   3.877  1.6731  0.9106  0.6509
   12SAPS  C318 1593   4.833   0.537   3.744  0.0507 -0.0233 -0.4892
   12SAPS  H18X 1594   4.743   0.477   3.767 -1.3094  1.9471 -0.4193
   12SAPS  H18Y 1595   4.851   0.577   3.642  1.5413 -0.4525 -0.4079
   12SAPS  H18Z 1596   4.826   0.623   3.814 -1.9801 -0.2263 -0.3866
   13SAPS     N 1597   5.191   6.183   2.305 -0.0632 -0.0258  0.2003
   13SAPS   HN1 1598   5.238   6.134   2.384  0.5992  1.0751  0.5163
   13SAPS   HN2 1599   5.263   6.238   2.253  2.1770 -2.5055  0.4109
   13SAPS   HN3 1600   5.124   6.241   2.358  1.8028  1.1869  1.3607
   13SAPS   C12 1601   5.133   6.080   2.212  0.0101 -0.3080 -0.7881
   13SAPS  H12A 1602   5.061   6.125   2.146 -0.5207  0.1991  0.1208
   13SAPS   C13 1603   5.250   6.012   2.143  0.7782 -0.5717 -0.4889
   13SAPS  O13A 1604   5.367   6.028   2.174  0.0437 -0.4451 -0.0466
   13SAPS  O13B 1605   5.217   5.945   2.039 -0.2673 -0.2763  0.4159
   13SAPS   C11 1606   5.043   5.975   2.276  0.5276  0.6911 -1.1279
   13SAPS  H11A 1607   5.108   5.914   2.342  0.3148  0.0191 -1.5176
   13SAPS  H11B 1608   5.012   5.903   2.197 -0.7545 -1.5472  1.2553
   13SAPS     P 1609   4.812   5.939   2.390  0.2655 -0.4512 -0.1964
   13SAPS   O13 1610   4.738   6.002   2.502  0.2335  0.1502  0.1350
   13SAPS   O14 1611   4.732   5.887   2.278  0.1256  0.4656  0.2318
   13SAPS   O12 1612   4.932   6.034   2.344 -0.3781 -0.2023  0.6191
   13SAPS   O11 1613   4.897   5.821   2.455  0.3006  0.5416  0.4176
   13SAPS    C1 1614   4.966   5.838   2.581  0.0237 -0.4214  0.1956
   13SAPS    HA 1615   5.056   5.773   2.588 -0.2806 -0.6852  1.9063
   13SAPS    HB 1616   5.005   5.942   2.584  2.4424 -1.3018  1.3868
   13SAPS    C2 1617   4.871   5.803   2.700  0.3588  0.4644 -0.2460
   13SAPS    HS 1618   4.779   5.864   2.684  0.4222  0.2923 -1.3354
   13SAPS   O21 1619   4.946   5.828   2.818  0.2728  0.0160  0.3218
   13SAPS   C21 1620   4.874   5.883   2.912  0.4675 -0.5157 -0.7982
   13SAPS   O22 1621   4.754   5.892   2.920  0.0139 -0.7064 -0.1927
   13SAPS   C22 1622   4.964   5.935   3.016 -0.2081 -0.3155  0.2611
   13SAPS   H2R 1623   5.006   5.855   3.081  2.2415  1.0892  0.5135
   13SAPS   H2S 1624   5.044   5.996   2.969 -0.3736 -0.0351  0.3445
   13SAPS    C3 1625   4.827   5.652   2.691  0.3951 -0.3448 -0.0005
   13SAPS    HX 1626   4.920   5.591   2.690  0.0476 -0.9215 -2.3777
   13SAPS    HY 1627   4.774   5.637   2.595 -0.5846  0.2338  0.4327
   13SAPS   O31 1628   4.743   5.611   2.801  0.0398 -0.0171 -0.0323
   13SAPS   C31 1629   4.623   5.565   2.772  0.9030  0.3446 -0.4541
   13SAPS   O32 1630   4.579   5.524   2.669 -0.2487  0.7264 -0.2954
   13SAPS   C32 1631   4.542   5.543   2.903  0.4862  0.0267 -0.4724
   13SAPS   H2X 1632   4.435   5.534   2.876  0.4995 -0.2358 -0.4374
   13SAPS   H2Y 1633   4.563   5.628   2.972 -0.7954  0.4123 -0.5286
   13SAPS   C23 1634   4.899   6.013   3.123  0.5769 -0.5770  0.0342
   13SAPS   H3R 1635   4.848   5.949   3.198 -1.5569 -1.3147 -1.9286
   13SAPS   H3S 1636   4.827   6.085   3.079 -0.1552 -1.0138  0.5056
   13SAPS   C24 1637   5.014   6.098   3.192 -0.2279  0.2048  0.0882
   13SAPS   H4R 1638   5.085   6.139   3.117 -0.7244  0.9165  0.0023
   13SAPS   H4S 1639   5.071   6.026   3.256 -3.1346 -2.3757 -0.0081
   13SAPS   C25 1640   4.954   6.211   3.278  0.3718 -0.3375  0.5989
   13SAPS   H5R 1641   4.882   6.276   3.228 -1.2604 -1.8819  0.8349
   13SAPS   C26 1642   4.980   6.233   3.407 -0.2854 -0.7570 -0.1745
   13SAPS   H6R 1643   4.930   6.320   3.453 -0.7118 -0.8284 -0.5044
   13SAPS   C27 1644   5.069   6.155   3.502 -0.0060  0.1968 -0.0150
   13SAPS   H7R 1645   5.093   6.217   3.591 -1.0181  0.3951  0.1408
   13SAPS   H7S 1646   5.165   6.131   3.452  1.8346  1.9501  2.4364
   13SAPS   C28 1647   5.011   6.020   3.535 -0.4669  0.0022 -0.9077
   13SAPS   H8R 1648   4.970   5.952   3.459 -1.7508 -0.8361  0.4854
   13SAPS   C29 1649   5.010   5.979   3.668 -0.0827  1.0350 -0.1277
   13SAPS   H9R 1650   4.965   5.881   3.691  2.6845 -0.6610 -1.4131
   13SAPS  C210 1651   5.083   6.045   3.782  1.0610  0.3105 -0.1120
   13SAPS  H10R 1652   5.167   6.113   3.758  1.4861  0.5443  1.8496
   13SAPS  H10S 1653   5.124   5.968   3.851  0.0322  0.2348  0.4383
   13SAPS  C211 1654   4.991   6.133   3.865  0.7435  0.0563  0.2688
   13SAPS  H11R 1655   4.887   6.129   3.828  1.2484  1.1685 -1.4001
   13SAPS  C212 1656   5.025   6.217   3.960  0.1544 -0.2696 -0.0652
   13SAPS  H12R 1657   4.937   6.273   3.995  0.7076  1.4034 -1.2031
   13SAPS  C213 1658   5.156   6.240   4.027 -0.7090 -0.4093 -0.1565
   13SAPS  H13R 1659   5.128   6.322   4.096 -3.5315 -0.1229 -1.4971
   13SAPS  H13S 1660   5.227   6.270   3.947 -0.5042 -1.8010 -0.5340
   13SAPS  C214 1661   5.211   6.129   4.113 -0.3314 -0.2649  0.6092
   13SAPS  H14R 1662   5.128   6.065   4.148 -2.6503  1.8918 -0.6272
   13SAPS  C215 1663   5.339   6.112   4.142 -0.2036 -0.1868  0.3813
   13SAPS  H15R 1664   5.369   6.018   4.191 -0.7697 -0.7426 -0.3006
   13SAPS  C216 1665   5.442   6.207   4.085 -0.0325 -0.2280 -0.2958
   13SAPS  H16R 1666   5.519   6.231   4.161 -0.6233  1.9431 -0.3133
   13SAPS  H16S 1667   5.410   6.300   4.033  0.6720  1.0185  1.4151
   13SAPS  C217 1668   5.524   6.135   3.975  0.1327 -0.0988 -0.1944
   13SAPS  H17R 1669   5.462   6.105   3.887 -2.3855 -5.1523  2.8306
   13SAPS  H17S 1670   5.550   6.034   4.011 -1.6667 -1.9993 -3.6319
   13SAPS  C218 1671   5.652   6.224   3.937 -0.1697 -0.4021  0.1595
   13SAPS  H18R 1672   5.714   6.212   4.029 -3.5090 -1.2439  2.4544
   13SAPS  H18S 1673   5.620   6.328   3.914 -1.8479 -1.0886 -0.7458
   13SAPS  C219 1674   5.737   6.162   3.819 -0.1327 -0.7281 -0.5447
   13SAPS  H19R 1675   5.674   6.166   3.727  0.9067  1.4793 -1.2261
   13SAPS  H19S 1676   5.753   6.056   3.850 -1.1958 -0.9539 -0.7250
   13SAPS  C220 1677   5.872   6.227   3.791 -0.8413  1.0159  0.2686
   13SAPS  H20R 1678   5.935   6.228   3.883 -0.0366  0.4868 -0.2670
   13SAPS  H20S 1679   5.854   6.328   3.749  1.2977  1.6619  0.8123
   13SAPS  H20T 1680   5.940   6.181   3.717 -0.6850  1.5574  0.0691
   13SAPS   C33 1681   4.585   5.411   2.982  0.6368 -0.9167 -0.5085
   13SAPS   H3X 1682   4.692   5.415   3.011  0.3453 -1.5774  0.7529
   13SAPS   H3Y 1683   4.572   5.320   2.919  0.5886 -0.0872 -1.7226
   13SAPS   C34 1684   4.520   5.395   3.118  0.0381  0.9022  0.3981
   13SAPS   H4X 1685   4.416   5.360   3.103 -0.0341 -0.6259  3.5711
   13SAPS   H4Y 1686   4.510   5.495   3.165  2.0990  1.9360 -1.1968
   13SAPS   C35 1687   4.587   5.308   3.230 -0.2173  0.1541  0.5746
   13SAPS   H5X 1688   4.696   5.327   3.242 -0.3073 -0.3985  2.6091
   13SAPS   H5Y 1689   4.569   5.201   3.210 -0.8719  0.6161 -1.5853
   13SAPS   C36 1690   4.523   5.340   3.364 -0.2242  0.2449 -0.2396
   13SAPS   H6X 1691   4.416   5.311   3.366 -0.1751 -0.0359 -1.2115
   13SAPS   H6Y 1692   4.532   5.447   3.393 -1.0331  0.0444  0.8227
   13SAPS   C37 1693   4.577   5.248   3.472  0.6699  0.2530 -0.2316
   13SAPS   H7X 1694   4.686   5.261   3.485  0.3697  2.2481  0.5768
   13SAPS   H7Y 1695   4.559   5.146   3.432 -0.8216  0.9873 -1.5726
   13SAPS   C38 1696   4.509   5.274   3.606 -0.1554  0.0732 -0.4018
   13SAPS   H8X 1697   4.409   5.229   3.619  0.6146 -2.1078 -1.5439
   13SAPS   H8Y 1698   4.500   5.384   3.598 -2.3249 -0.1625 -2.3384
   13SAPS   C39 1699   4.600   5.224   3.720  0.2962 -0.0685  0.1238
   13SAPS   H9X 1700   4.694   5.280   3.701  0.3832 -0.9951 -2.6175
   13SAPS   H9Y 1701   4.640   5.121   3.712  1.7868  0.4707  0.3572
   13SAPS  C310 1702   4.544   5.245   3.863 -1.6336  0.5354 -0.5621
   13SAPS  H10X 1703   4.459   5.174   3.863  0.2149 -1.8192 -0.7814
   13SAPS  H10Y 1704   4.497   5.345   3.872 -1.1184  0.6993  0.4648
   13SAPS  C311 1705   4.645   5.225   3.978  0.1938 -0.8929  0.6001
   13SAPS  H11X 1706   4.727   5.299   3.967 -0.7485 -0.2387 -3.9934
   13SAPS  H11Y 1707   4.691   5.124   3.971 -1.1089 -1.4937  0.4429
   13SAPS  C312 1708   4.573   5.228   4.113 -1.1172 -0.5943  0.4475
   13SAPS  H12X 1709   4.519   5.133   4.127 -1.0538 -0.7139 -0.0967
   13SAPS  H12Y 1710   4.505   5.315   4.127 -0.9018 -0.0055 -1.7404
   13SAPS  C313 1711   4.679   5.229   4.226 -0.1294  0.5850 -0.3673
   13SAPS  H13X 1712   4.743   5.320   4.217  0.9573 -0.1372 -0.1215
   13SAPS  H13Y 1713   4.751   5.146   4.209 -2.5786 -1.2764 -2.3384
   13SAPS  C314 1714   4.628   5.224   4.374 -0.1785  0.8496 -0.3162
   13SAPS  H14X 1715   4.586   5.121   4.383  0.7546  0.3860 -1.0573
   13SAPS  H14Y 1716   4.548   5.297   4.398 -2.6299 -1.5728 -0.5697
   13SAPS  C315 1717   4.741   5.243   4.487  0.0008  0.6338 -0.0496
   13SAPS  H15X 1718   4.811   5.158   4.469 -1.3500 -0.4707 -0.3047
   13SAPS  H15Y 1719   4.687   5.224   4.582 -1.2079  2.0402 -0.4152
   13SAPS  C316 1720   4.797   5.382   4.489 -0.7473  0.2618  0.3866
   13SAPS  H16X 1721   4.829   5.408   4.386 -0.8201  0.1378  0.3317
   13SAPS  H16Y 1722   4.887   5.400   4.551 -2.4960 -1.8170  3.8463
   13SAPS  C317 1723   4.687   5.490   4.509 -0.1246  0.4601 -0.2513
   13SAPS  H17X 1724   4.622   5.493   4.419 -2.8511 -0.5018  1.5676
   13SAPS  H17Y 1725   4.737   5.589   4.518 -3.1605  2.2190 -1.1663
   13SAPS  C318 1726   4.603   5.476   4.632  0.0691  0.1864  0.2948
   13SAPS  H18X 1727   4.564   5.575   4.663  1.1340  1.4757 -2.1902
   13SAPS  H18Y 1728   4.660   5.428   4.715  0.6516  0.9896  0.3737
   13SAPS  H18Z 1729   4.512   5.417   4.610  0.3063 -0.6912  1.5587
   14SAPS     N 1730   4.565   6.525   2.351 -0.1546  0.4129 -0.3631
   14SAPS   HN1 1731   4.617   6.607   2.388 -0.2619  0.6929 -0.8295
   14SAPS   HN2 1732   4.493   6.560   2.284 -0.5993  2.6663  1.1675
   14SAPS   HN3 1733   4.518   6.471   2.426  0.5626 -1.3822 -1.1535
   14SAPS   C12 1734   4.656   6.436   2.275 -0.2256 -0.1253  0.0382
   14SAPS  H12A 1735   4.602   6.347   2.247  2.0801 -1.4034 -0.6493
   14SAPS   C13 1736   4.716   6.506   2.156  0.0248  0.4547 -0.0727
   14SAPS  O13A 1737   4.689   6.629   2.142 -0.8431  0.1297 -0.0547
   14SAPS  O13B 1738   4.793   6.432   2.080 -0.3343 -0.3136 -0.3007
   14SAPS   C11 1739   4.780   6.380   2.362  0.5665 -0.4794 -0.7230
   14SAPS  H11A 1740   4.845   6.311   2.306  1.2048  0.0656 -0.6684
   14SAPS  H11B 1741   4.730   6.317   2.439  0.4986 -0.1585 -0.4968
   14SAPS     P 1742   4.987   6.468   2.492  0.1623 -0.4236  0.0582
   14SAPS   O13 1743   5.065   6.355   2.444  0.3610 -0.1673  0.3886
   14SAPS   O14 1744   5.061   6.600   2.487 -0.1176 -0.6363 -0.4767
   14SAPS   O12 1745   4.852   6.488   2.413 -0.4540 -0.7503 -0.1397
   14SAPS   O11 1746   4.938   6.448   2.638  0.2892  0.4072  0.4895
   14SAPS    C1 1747   4.825   6.515   2.704  0.1203  0.1100 -0.5512
   14SAPS    HA 1748   4.774   6.590   2.640 -1.7711 -0.6432  0.0098
   14SAPS    HB 1749   4.750   6.441   2.739  0.2538  1.0846  1.9856
   14SAPS    C2 1750   4.871   6.569   2.846 -0.3015 -0.3294  0.2175
   14SAPS    HS 1751   4.785   6.583   2.914 -1.2351  2.7817 -1.4165
   14SAPS   O21 1752   4.936   6.696   2.812 -0.1258  0.0037 -0.1834
   14SAPS   C21 1753   4.841   6.798   2.813 -0.1683 -0.0507  0.4631
   14SAPS   O22 1754   4.732   6.781   2.863 -0.1836  0.3101 -0.3475
   14SAPS   C22 1755   4.894   6.924   2.750  0.1811 -0.0455  0.1104
   14SAPS   H2R 1756   5.003   6.907   2.735  0.7346  3.3746 -0.5698
   14SAPS   H2S 1757   4.852   6.946   2.650 -0.2743  0.0750  0.3230
   14SAPS    C3 1758   4.968   6.466   2.917 -0.7405 -0.5559 -0.3844
   14SAPS    HX 1759   5.051   6.425   2.854 -0.5304 -1.5869  0.5292
   14SAPS    HY 1760   4.911   6.374   2.941  0.2809 -0.8816  0.8764
   14SAPS   O31 1761   5.014   6.524   3.039 -0.2251 -0.7689  0.1264
   14SAPS   C31 1762   5.141   6.560   3.037  0.6635  0.5115 -1.0329
   14SAPS   O32 1763   5.214   6.563   2.941  0.2493  0.5379  0.0346
   14SAPS   C32 1764   5.181   6.618   3.170  0.3302 -0.1817 -0.2097
   14SAPS   H2X 1765   5.162   6.537   3.244  4.7452 -0.8308  0.4539
   14SAPS   H2Y 1766   5.115   6.704   3.198  0.8980  0.2149 -0.0674
   14SAPS   C23 1767   4.866   7.043   2.835 -0.1591  0.3184  0.7151
   14SAPS   H3R 1768   4.772   7.042   2.894 -0.2925 -0.1865  0.4999
   14SAPS   H3S 1769   4.860   7.130   2.767 -2.4187  0.3725  0.9140
   14SAPS   C24 1770   4.974   7.066   2.945  0.6524 -0.2777  0.2923
   14SAPS   H4R 1771   4.942   7.162   2.990  0.4171  0.7010 -1.8432
   14SAPS   H4S 1772   5.075   7.081   2.902  1.2332  0.0592  1.7187
   14SAPS   C25 1773   4.975   6.960   3.056 -0.0658  0.3081 -0.3192
   14SAPS   H5R 1774   5.036   6.872   3.032  2.0153  2.5591 -4.2907
   14SAPS   C26 1775   4.900   6.962   3.170 -0.2995 -0.8320 -0.4491
   14SAPS   H6R 1776   4.909   6.875   3.237  1.1218  0.0841  0.6053
   14SAPS   C27 1777   4.800   7.067   3.203  0.8312  0.4396 -0.1947
   14SAPS   H7R 1778   4.700   7.024   3.184  0.6527  0.6488  0.2560
   14SAPS   H7S 1779   4.808   7.165   3.151 -0.4374  0.7462  0.1645
   14SAPS   C28 1780   4.814   7.115   3.346  0.1283  0.8967 -1.1873
   14SAPS   H8R 1781   4.918   7.133   3.377  0.6085 -1.7110 -1.0122
   14SAPS   C29 1782   4.720   7.117   3.444 -0.4272  0.5414  0.0546
   14SAPS   H9R 1783   4.767   7.136   3.541  1.0931 -0.8098 -0.3710
   14SAPS  C210 1784   4.573   7.071   3.438  0.4919 -0.2713  0.7947
   14SAPS  H10R 1785   4.565   6.988   3.511  1.1748 -2.9389 -1.9195
   14SAPS  H10S 1786   4.550   7.029   3.337 -3.7974  2.4929  0.3314
   14SAPS  C211 1787   4.462   7.176   3.453 -0.2445 -0.0804 -0.3208
   14SAPS  H11R 1788   4.499   7.279   3.453  3.0665 -1.0515  3.5307
   14SAPS  C212 1789   4.335   7.146   3.476  0.4666 -0.3769 -0.5307
   14SAPS  H12R 1790   4.265   7.230   3.491  1.1240  0.2834 -1.1006
   14SAPS  C213 1791   4.276   7.002   3.472 -0.0716  0.8870 -1.0085
   14SAPS  H13R 1792   4.310   6.938   3.556 -1.7971  0.9766 -0.2062
   14SAPS  H13S 1793   4.303   6.953   3.376 -1.1547 -0.3080 -0.7273
   14SAPS  C214 1794   4.121   7.003   3.483 -0.1966  0.7517  0.8843
   14SAPS  H14R 1795   4.078   6.984   3.384 -2.2254 -0.0908  1.8800
   14SAPS  C215 1796   4.040   7.035   3.580 -0.0694 -0.1175 -0.0641
   14SAPS  H15R 1797   3.931   7.018   3.579 -0.1148 -0.3828  2.3037
   14SAPS  C216 1798   4.087   7.073   3.718  0.0162 -0.2283  0.5877
   14SAPS  H16R 1799   4.177   7.137   3.712  0.5091 -0.8319  1.2875
   14SAPS  H16S 1800   4.127   6.991   3.782 -0.4386  2.5302  4.8201
   14SAPS  C217 1801   3.979   7.133   3.813 -0.2652 -0.2570  0.2713
   14SAPS  H17R 1802   3.890   7.066   3.817 -0.1924 -0.3443  0.4684
   14SAPS  H17S 1803   3.936   7.216   3.753 -0.1162 -1.1493 -1.1148
   14SAPS  C218 1804   4.027   7.189   3.952  0.6925  0.2005  0.3152
   14SAPS  H18R 1805   3.944   7.253   3.988 -1.7724 -1.4952 -1.9889
   14SAPS  H18S 1806   4.110   7.254   3.915  0.1229  0.1726 -1.0444
   14SAPS  C219 1807   4.068   7.079   4.050 -0.2775  0.0069 -0.1234
   14SAPS  H19R 1808   4.149   7.018   4.003  0.6045  1.1626 -0.1442
   14SAPS  H19S 1809   3.989   7.007   4.079 -1.8657  1.2883 -1.1383
   14SAPS  C220 1810   4.115   7.152   4.177  0.8886 -0.3296 -0.4435
   14SAPS  H20R 1811   4.028   7.209   4.218  0.6368 -0.2288 -1.0969
   14SAPS  H20S 1812   4.199   7.221   4.152  0.7316  1.1118  2.5515
   14SAPS  H20T 1813   4.147   7.077   4.252  0.5485  1.8646  2.0668
   14SAPS   C33 1814   5.326   6.655   3.180 -0.4996 -0.5998  0.3527
   14SAPS   H3X 1815   5.356   6.726   3.100  1.3139 -2.2259 -0.4804
   14SAPS   H3Y 1816   5.382   6.563   3.152 -0.3413 -0.1363 -0.9218
   14SAPS   C34 1817   5.362   6.713   3.318 -0.5780 -0.3590 -0.1810
   14SAPS   H4X 1818   5.335   6.647   3.403  0.0230 -2.6828 -1.6999
   14SAPS   H4Y 1819   5.313   6.812   3.329 -0.5070 -0.1906 -1.3150
   14SAPS   C35 1820   5.517   6.748   3.338 -0.6089 -0.5278  0.2423
   14SAPS   H5X 1821   5.541   6.837   3.276 -2.8764  0.9552  1.3379
   14SAPS   H5Y 1822   5.577   6.657   3.316  1.7622  1.1838 -0.7661
   14SAPS   C36 1823   5.540   6.784   3.486 -0.0483  0.0320  0.1876
   14SAPS   H6X 1824   5.520   6.691   3.544  1.4024 -0.5297 -0.1600
   14SAPS   H6Y 1825   5.462   6.856   3.518  0.2383 -0.6169  2.5707
   14SAPS   C37 1826   5.686   6.828   3.511  0.5289 -0.1130  0.7222
   14SAPS   H7X 1827   5.717   6.908   3.441  0.5479  0.3421  1.2442
   14SAPS   H7Y 1828   5.754   6.745   3.483  0.9271  0.8700 -1.4658
   14SAPS   C38 1829   5.699   6.889   3.650  0.0609 -0.3976  0.2497
   14SAPS   H8X 1830   5.627   6.973   3.654 -0.9536 -1.2788  1.4243
   14SAPS   H8Y 1831   5.800   6.931   3.668  0.3743 -1.4289  1.0278
   14SAPS   C39 1832   5.657   6.800   3.762  0.0338 -0.4688  0.2442
   14SAPS   H9X 1833   5.548   6.782   3.755 -0.0182  0.4904 -2.7196
   14SAPS   H9Y 1834   5.688   6.864   3.847 -0.4948  0.2052 -0.0651
   14SAPS  C310 1835   5.744   6.673   3.767 -0.0986 -0.0162 -0.1103
   14SAPS  H10X 1836   5.820   6.691   3.688 -0.8039  0.9564 -0.5868
   14SAPS  H10Y 1837   5.688   6.590   3.719  1.1446 -0.2555 -1.1941
   14SAPS  C311 1838   5.780   6.613   3.909  0.1365  0.1223 -0.0101
   14SAPS  H11X 1839   5.859   6.677   3.954  1.5467 -0.2894 -1.7917
   14SAPS  H11Y 1840   5.820   6.510   3.893  0.8698  0.3456  0.3338
   14SAPS  C312 1841   5.657   6.608   4.003  0.4594 -0.2980 -0.7490
   14SAPS  H12X 1842   5.580   6.544   3.954 -0.9454  0.1226  0.7965
   14SAPS  H12Y 1843   5.614   6.709   4.019  1.6899  0.7071 -3.3360
   14SAPS  C313 1844   5.682   6.541   4.138  0.0518  0.0388  0.3553
   14SAPS  H13X 1845   5.773   6.591   4.178  0.1103  1.8709 -1.8913
   14SAPS  H13Y 1846   5.700   6.431   4.138  3.3606  0.4525  0.6992
   14SAPS  C314 1847   5.557   6.559   4.225 -0.0800  0.0211  0.4812
   14SAPS  H14X 1848   5.476   6.499   4.177 -0.7745  2.9066 -2.2742
   14SAPS  H14Y 1849   5.512   6.661   4.228 -1.4250 -0.4007 -2.0942
   14SAPS  C315 1850   5.569   6.530   4.373 -0.5452 -0.2911  0.8427
   14SAPS  H15X 1851   5.647   6.583   4.431  1.2128 -0.7602 -1.0140
   14SAPS  H15Y 1852   5.600   6.424   4.379 -1.3100 -0.6342 -0.6344
   14SAPS  C316 1853   5.430   6.543   4.448 -0.9665  0.1431  0.1180
   14SAPS  H16X 1854   5.400   6.646   4.475 -1.6515  0.1725 -0.7195
   14SAPS  H16Y 1855   5.463   6.501   4.545 -1.0690  1.6282  0.8273
   14SAPS  C317 1856   5.318   6.447   4.398  0.3991 -0.0166 -1.2404
   14SAPS  H17X 1857   5.358   6.343   4.399 -0.0896 -0.4472  4.0480
   14SAPS  H17Y 1858   5.279   6.478   4.299  1.5794 -0.2787 -1.8027
   14SAPS  C318 1859   5.200   6.462   4.499 -0.1043 -0.0035 -0.1817
   14SAPS  H18X 1860   5.122   6.384   4.484 -1.3338  1.0153  0.6431
   14SAPS  H18Y 1861   5.146   6.558   4.487 -1.6870 -0.4277  2.6264
   14SAPS  H18Z 1862   5.231   6.450   4.605  0.2878  1.7002 -0.0791
   15SAPS     N 1863   4.035   6.798   2.284 -0.1523  0.2358  0.0923
   15SAPS   HN1 1864   4.012   6.817   2.184  0.8358  2.7061  0.2761
   15SAPS   HN2 1865   3.974   6.719   2.315  0.9668 -0.5205  0.4283
   15SAPS   HN3 1866   4.014   6.886   2.335  1.3234  0.6051  0.0984
   15SAPS   C12 1867   4.178   6.751   2.300  0.5596 -0.1828  0.1021
   15SAPS  H12A 1868   4.173   6.706   2.398 -1.3781 -3.6625 -1.4217
   15SAPS   C13 1869   4.216   6.631   2.211  0.3118  0.5707 -0.2841
   15SAPS  O13A 1870   4.131   6.568   2.144  0.1515 -0.3000  0.2282
   15SAPS  O13B 1871   4.336   6.591   2.218  0.5346  0.4189 -0.3771
   15SAPS   C11 1872   4.278   6.872   2.282  0.0421  0.4243  0.5206
   15SAPS  H11A 1873   4.265   6.913   2.180 -1.3724  0.0821  0.5431
   15SAPS  H11B 1874   4.379   6.832   2.306 -0.0449  1.6186  3.3474
   15SAPS     P 1875   4.317   7.104   2.398 -0.1348  0.4179  0.1987
   15SAPS   O13 1876   4.354   7.141   2.259 -0.4468  0.4187  0.5009
   15SAPS   O14 1877   4.238   7.202   2.474 -0.2277 -0.2909 -0.1704
   15SAPS   O12 1878   4.243   6.964   2.388 -0.3284  0.1054 -0.8418
   15SAPS   O11 1879   4.441   7.054   2.477  0.2276  0.2798 -0.9305
   15SAPS    C1 1880   4.437   7.002   2.609  0.0962  0.3542 -0.3454
   15SAPS    HA 1881   4.352   6.933   2.626  1.0290 -1.2511 -1.8492
   15SAPS    HB 1882   4.528   6.950   2.645  0.5223  1.2202 -0.1467
   15SAPS    C2 1883   4.426   7.109   2.724 -0.1656 -0.7708  0.6321
   15SAPS    HS 1884   4.329   7.159   2.702  1.0056  1.0251 -0.7714
   15SAPS   O21 1885   4.536   7.207   2.718 -0.2514 -0.2098 -0.1329
   15SAPS   C21 1886   4.509   7.333   2.746 -0.5426 -0.4127  0.3372
   15SAPS   O22 1887   4.398   7.379   2.770  0.4463  0.6747 -0.2185
   15SAPS   C22 1888   4.641   7.414   2.764 -0.0073  0.0953  0.1883
   15SAPS   H2R 1889   4.700   7.345   2.827 -1.3834 -0.3819  1.0148
   15SAPS   H2S 1890   4.690   7.427   2.666 -0.3374 -1.8908 -0.2742
   15SAPS    C3 1891   4.418   7.057   2.865  0.2274 -0.3036  0.3805
   15SAPS    HX 1892   4.515   7.013   2.896 -0.1393 -1.0627  0.4542
   15SAPS    HY 1893   4.347   6.972   2.865  0.3694 -0.4254  0.6770
   15SAPS   O31 1894   4.391   7.149   2.973 -0.0064  0.0698  0.4943
   15SAPS   C31 1895   4.254   7.178   2.982 -0.6360  0.1262 -0.3606
   15SAPS   O32 1896   4.170   7.144   2.904 -0.1045  1.1745  0.0708
   15SAPS   C32 1897   4.220   7.262   3.105 -0.0174 -0.2978 -0.1467
   15SAPS   H2X 1898   4.272   7.359   3.084 -1.1673  0.8505  1.9860
   15SAPS   H2Y 1899   4.267   7.214   3.194 -0.9152 -0.4646  0.2493
   15SAPS   C23 1900   4.618   7.545   2.828  0.4089 -0.5878 -0.8320
   15SAPS   H3R 1901   4.519   7.589   2.806  1.7950  2.4151 -1.6082
   15SAPS   H3S 1902   4.691   7.615   2.782  1.1323 -0.6582  0.1877
   15SAPS   C24 1903   4.642   7.554   2.980 -0.0075 -0.0159 -0.3303
   15SAPS   H4R 1904   4.609   7.655   3.013  1.0525  0.7406 -1.4472
   15SAPS   H4S 1905   4.753   7.548   2.981  0.1836  2.5139 -0.0395
   15SAPS   C25 1906   4.576   7.437   3.067 -0.0972  0.1821 -0.0183
   15SAPS   H5R 1907   4.604   7.334   3.041 -1.8736 -0.6969  1.2839
   15SAPS   C26 1908   4.501   7.454   3.181 -0.4172  0.3402 -0.1582
   15SAPS   H6R 1909   4.459   7.373   3.242  0.8942  1.1066  1.8745
   15SAPS   C27 1910   4.480   7.587   3.248  0.1787  0.0915 -0.4425
   15SAPS   H7R 1911   4.532   7.664   3.186  1.7021 -1.2487 -0.8948
   15SAPS   H7S 1912   4.532   7.592   3.346 -0.6895  0.1206  0.0260
   15SAPS   C28 1913   4.338   7.631   3.261  0.6356 -0.2279 -0.5047
   15SAPS   H8R 1914   4.278   7.635   3.170  0.3793  1.6992 -0.3011
   15SAPS   C29 1915   4.292   7.689   3.370  0.3015  0.5927 -0.2366
   15SAPS   H9R 1916   4.183   7.703   3.368 -0.2648 -2.6776  0.5016
   15SAPS  C210 1917   4.358   7.705   3.512 -0.0873  0.0153  0.5646
   15SAPS  H10R 1918   4.382   7.814   3.522  1.4243 -0.3644  1.4436
   15SAPS  H10S 1919   4.449   7.644   3.527 -1.0204 -1.0908  1.9095
   15SAPS  C211 1920   4.262   7.677   3.619 -0.3143 -0.0680  0.4621
   15SAPS  H11R 1921   4.173   7.742   3.626  1.1205  1.9415  1.1842
   15SAPS  C212 1922   4.289   7.587   3.721  0.5233  0.4027  0.5698
   15SAPS  H12R 1923   4.209   7.571   3.795 -0.7098  0.5139 -0.6746
   15SAPS  C213 1924   4.415   7.503   3.745 -0.0198  0.7845 -0.0823
   15SAPS  H13R 1925   4.502   7.567   3.769  1.2805 -0.9020 -0.0781
   15SAPS  H13S 1926   4.436   7.450   3.649  0.4198 -0.4926  0.6957
   15SAPS  C214 1927   4.385   7.399   3.855 -0.1648  0.0084  0.3231
   15SAPS  H14R 1928   4.372   7.299   3.811  0.9337 -0.8242  1.8038
   15SAPS  C215 1929   4.380   7.424   3.989  1.2361  0.3451  0.4880
   15SAPS  H15R 1930   4.376   7.336   4.056  0.2436  0.1644  0.2023
   15SAPS  C216 1931   4.381   7.561   4.053 -0.7381 -0.2337 -0.1978
   15SAPS  H16R 1932   4.386   7.639   3.975  0.1775 -2.0163 -2.0146
   15SAPS  H16S 1933   4.472   7.576   4.114 -0.2131  0.7210 -1.1828
   15SAPS  C217 1934   4.262   7.576   4.145 -0.1513 -0.8474 -0.2023
   15SAPS  H17R 1935   4.246   7.480   4.200 -0.5257 -0.8648 -0.3379
   15SAPS  H17S 1936   4.165   7.583   4.091 -0.0498 -2.8764 -0.7497
   15SAPS  C218 1937   4.275   7.689   4.251 -0.6022  0.1620 -0.1907
   15SAPS  H18R 1938   4.326   7.777   4.207  1.4850 -0.8912 -0.0375
   15SAPS  H18S 1939   4.338   7.662   4.339 -2.1093 -1.6429  0.4049
   15SAPS  C219 1940   4.137   7.722   4.310 -0.3768 -0.4482  0.5858
   15SAPS  H19R 1941   4.109   7.640   4.380  0.5479 -3.0256 -1.8588
   15SAPS  H19S 1942   4.066   7.723   4.225 -0.1932 -1.9292  0.3802
   15SAPS  C220 1943   4.130   7.855   4.384  0.3939  0.1675  0.3923
   15SAPS  H20R 1944   4.177   7.925   4.312  1.5520  0.5860  1.5089
   15SAPS  H20S 1945   4.184   7.852   4.481  1.9896 -0.1549 -0.4574
   15SAPS  H20T 1946   4.025   7.880   4.408  0.0911  0.7644 -1.4220
   15SAPS   C33 1947   4.069   7.280   3.145  0.5301  1.1374 -0.0169
   15SAPS   H3X 1948   4.012   7.185   3.150 -0.1091  1.4927 -0.4204
   15SAPS   H3Y 1949   4.011   7.335   3.068  0.5166 -0.9153 -1.5535
   15SAPS   C34 1950   4.043   7.356   3.277  0.5596 -0.1202 -0.6102
   15SAPS   H4X 1951   4.103   7.450   3.270  0.1389  0.1843 -0.2024
   15SAPS   H4Y 1952   4.087   7.305   3.365 -0.4463  0.2944  0.1460
   15SAPS   C35 1953   3.891   7.381   3.297 -0.1193 -0.0718  0.8444
   15SAPS   H5X 1954   3.834   7.288   3.284 -1.0271  0.4487  1.0367
   15SAPS   H5Y 1955   3.854   7.453   3.221 -1.2056 -0.2025  1.2407
   15SAPS   C36 1956   3.852   7.442   3.427  0.5748 -0.2998 -0.2209
   15SAPS   H6X 1957   3.889   7.377   3.509 -0.7052 -0.1006  0.5480
   15SAPS   H6Y 1958   3.741   7.443   3.434  0.5417 -2.2281 -0.0108
   15SAPS   C37 1959   3.904   7.583   3.433  0.2433  0.0657 -0.4515
   15SAPS   H7X 1960   3.873   7.645   3.347  2.7147  0.3400 -1.2052
   15SAPS   H7Y 1961   4.015   7.578   3.439  0.3503  1.9257 -0.2628
   15SAPS   C38 1962   3.853   7.659   3.556  0.1374 -0.1680 -0.0121
   15SAPS   H8X 1963   3.744   7.674   3.542 -0.3262 -2.4186  0.6785
   15SAPS   H8Y 1964   3.915   7.751   3.556 -0.6805  0.3992  0.4586
   15SAPS   C39 1965   3.884   7.568   3.678 -0.3735 -0.8508  0.4481
   15SAPS   H9X 1966   3.994   7.554   3.680 -0.2063  0.4437  1.6875
   15SAPS   H9Y 1967   3.820   7.478   3.679 -1.3956 -0.2193  3.8779
   15SAPS  C310 1968   3.848   7.638   3.814 -1.3058 -0.0978  0.2896
   15SAPS  H10X 1969   3.753   7.694   3.807 -0.2906  1.8014  0.8198
   15SAPS  H10Y 1970   3.918   7.723   3.834 -1.3749  0.3020 -1.0629
   15SAPS  C311 1971   3.841   7.541   3.932 -0.2246  0.5257 -0.0946
   15SAPS  H11X 1972   3.920   7.463   3.919 -1.1653 -0.2607 -1.3502
   15SAPS  H11Y 1973   3.749   7.481   3.918 -0.8828  1.2675  0.9044
   15SAPS  C312 1974   3.842   7.610   4.068 -1.0650 -0.1779 -0.1734
   15SAPS  H12X 1975   3.928   7.680   4.071 -0.3707 -1.0053 -0.1060
   15SAPS  H12Y 1976   3.844   7.544   4.157  0.8760  0.0451 -0.0018
   15SAPS  C313 1977   3.724   7.707   4.087 -1.3207  0.5882  0.0288
   15SAPS  H13X 1978   3.633   7.645   4.073 -1.0404  0.3911 -0.9998
   15SAPS  H13Y 1979   3.718   7.779   4.003 -2.7421  0.7538  0.2441
   15SAPS  C314 1980   3.728   7.766   4.224  0.4103 -0.4553  0.7394
   15SAPS  H14X 1981   3.818   7.829   4.240 -0.5162  0.9837  0.4624
   15SAPS  H14Y 1982   3.715   7.679   4.292  0.4908 -2.5725 -1.7937
   15SAPS  C315 1983   3.616   7.868   4.260  0.4551 -0.8698 -0.0150
   15SAPS  H15X 1984   3.515   7.825   4.245 -0.1415  0.5918 -0.3111
   15SAPS  H15Y 1985   3.630   7.950   4.187 -1.8203 -0.8374 -0.4712
   15SAPS  C316 1986   3.637   7.913   4.408  0.0708  0.1969  0.4278
   15SAPS  H16X 1987   3.612   8.021   4.416 -0.0071  0.2175 -0.0602
   15SAPS  H16Y 1988   3.745   7.921   4.433  0.0550  0.9110  0.2958
   15SAPS  C317 1989   3.555   7.827   4.511  0.1307 -0.1318  0.1085
   15SAPS  H17X 1990   3.585   7.720   4.509 -0.4506 -0.2831 -0.6495
   15SAPS  H17Y 1991   3.448   7.833   4.483 -0.9689 -2.2095  3.2992
   15SAPS  C318 1992   3.542   7.875   4.658 -0.8543 -0.1700 -0.0059
   15SAPS  H18X 1993   3.459   7.819   4.707 -0.0881 -0.1163  1.3809
   15SAPS  H18Y 1994   3.534   7.986   4.664 -1.3816 -0.2229  0.3788
   15SAPS  H18Z 1995   3.639   7.847   4.702  1.6031  3.9015 -2.1908
   16SAPS     N 1996   6.668   0.701   2.298 -0.0010  0.3324  0.7407
   16SAPS   HN1 1997   6.653   0.738   2.394  0.0521  0.5152  0.6792
   16SAPS   HN2 1998   6.671   0.773   2.224  1.0729  0.0445  0.4900
   16SAPS   HN3 1999   6.607   0.618   2.286  2.2911 -1.4405  0.5999
   16SAPS   C12 2000   6.799   0.619   2.295  0.6822 -0.3246 -0.0159
   16SAPS  H12A 2001   6.788   0.525   2.347  0.3130 -0.7940 -0.9124
   16SAPS   C13 2002   6.838   0.588   2.143 -0.2293  0.2504  0.4693
   16SAPS  O13A 2003   6.765   0.630   2.045  0.3220  0.5243 -0.1660
   16SAPS  O13B 2004   6.932   0.508   2.139 -0.3126 -0.0169  0.6582
   16SAPS   C11 2005   6.916   0.704   2.354 -0.1072 -0.0981 -0.1983
   16SAPS  H11A 2006   6.916   0.802   2.301 -0.2220 -1.2677 -2.4704
   16SAPS  H11B 2007   7.010   0.646   2.342  1.0969  1.6498  0.3466
   16SAPS     P 2008   7.011   0.764   2.596  0.2906  0.2516  0.0488
   16SAPS   O13 2009   7.139   0.703   2.551  0.1469  0.4278 -0.2894
   16SAPS   O14 2010   6.995   0.907   2.619  0.5679 -0.0415 -0.6157
   16SAPS   O12 2011   6.895   0.732   2.492  0.4622  0.6798 -0.2979
   16SAPS   O11 2012   6.962   0.681   2.717  0.6969 -0.2738  0.1381
   16SAPS    C1 2013   6.819   0.672   2.766  0.4137  0.2195  0.1748
   16SAPS    HA 2014   6.748   0.745   2.721  2.2472  1.0332 -1.5520
   16SAPS    HB 2015   6.773   0.575   2.734  0.9881 -0.4508  1.3093
   16SAPS    C2 2016   6.814   0.689   2.920 -0.1803  0.2729 -0.4857
   16SAPS    HS 2017   6.718   0.647   2.956  0.1884 -0.7763 -0.7118
   16SAPS   O21 2018   6.824   0.823   2.952 -0.2832  0.0733  1.0344
   16SAPS   C21 2019   6.723   0.886   2.988  0.4785  0.1061  0.1507
   16SAPS   O22 2020   6.605   0.848   2.967  0.3929 -0.1644 -0.3262
   16SAPS   C22 2021   6.759   1.002   3.086 -0.1594 -0.0390  0.8032
   16SAPS   H2R 2022   6.826   1.068   3.027 -2.7290 -0.4658 -2.9638
   16SAPS   H2S 2023   6.660   1.051   3.095 -1.1706 -1.8344  0.0498
   16SAPS    C3 2024   6.928   0.611   2.991  1.0741 -0.4280  0.9827
   16SAPS    HX 2025   7.029   0.638   2.953  0.6706  0.8642  0.8045
   16SAPS    HY 2026   6.905   0.510   2.951 -0.2617  0.4675 -0.6262
   16SAPS   O31 2027   6.916   0.622   3.137 -0.1707  0.2229  0.3905
   16SAPS   C31 2028   7.028   0.603   3.202 -0.2916 -0.0925 -0.4759
   16SAPS   O32 2029   7.141   0.579   3.156  0.3774  0.7412 -0.0860
   16SAPS   C32 2030   6.999   0.624   3.350 -0.0496  0.6760  0.2994
   16SAPS   H2X 2031   7.034   0.540   3.414 -0.9220 -1.5596 -1.9729
   16SAPS   H2Y 2032   6.888   0.621   3.359 -0.2973 -2.5429 -1.9399
   16SAPS   C23 2033   6.814   0.951   3.220  0.5331 -0.2513  0.2092
   16SAPS   H3R 2034   6.904   1.009   3.248  0.2692  0.7849 -1.0144
   16SAPS   H3S 2035   6.853   0.848   3.203  2.5573  0.6805 -1.0437
   16SAPS   C24 2036   6.710   0.969   3.326 -0.1234  0.0512  0.2107
   16SAPS   H4R 2037   6.671   1.073   3.323 -0.1183  0.1122  1.6921
   16SAPS   H4S 2038   6.762   0.962   3.424 -0.3545  0.1474  0.3417
   16SAPS   C25 2039   6.593   0.869   3.321 -0.5293 -0.2432  0.0961
   16SAPS   H5R 2040   6.545   0.864   3.222 -1.5909  1.6472  0.4835
   16SAPS   C26 2041   6.536   0.786   3.419 -0.6032 -0.3309 -0.0795
   16SAPS   H6R 2042   6.468   0.709   3.380 -1.2343  0.8430 -1.4114
   16SAPS   C27 2043   6.575   0.786   3.563  0.0206  0.1201  0.5276
   16SAPS   H7R 2044   6.618   0.886   3.585 -1.8887  1.4035 -1.2174
   16SAPS   H7S 2045   6.645   0.703   3.588 -0.4931 -0.0368  1.4612
   16SAPS   C28 2046   6.453   0.782   3.645 -0.6224  0.1167 -0.6014
   16SAPS   H8R 2047   6.393   0.874   3.661 -0.8677 -0.1655  0.1831
   16SAPS   C29 2048   6.403   0.663   3.703  0.5100  0.7059 -1.1030
   16SAPS   H9R 2049   6.318   0.671   3.773  1.0786 -0.6332 -0.2227
   16SAPS  C210 2050   6.453   0.524   3.678 -0.5359  0.5270 -0.1873
   16SAPS  H10R 2051   6.461   0.461   3.769  2.5998  0.3423 -0.4959
   16SAPS  H10S 2052   6.552   0.534   3.630 -1.8409  0.7333 -3.0613
   16SAPS  C211 2053   6.356   0.450   3.583  0.0775 -0.2558  0.4336
   16SAPS  H11R 2054   6.388   0.460   3.478 -0.2389  0.5589  0.4056
   16SAPS  C212 2055   6.247   0.383   3.617 -0.0440 -0.1463 -0.0581
   16SAPS  H12R 2056   6.181   0.328   3.549 -0.5416 -0.4340  0.6444
   16SAPS  C213 2057   6.198   0.364   3.761 -0.6857  0.1728 -0.3435
   16SAPS  H13R 2058   6.274   0.390   3.838  1.7579  0.3615 -2.6272
   16SAPS  H13S 2059   6.176   0.257   3.776 -0.7544  0.1458 -0.6327
   16SAPS  C214 2060   6.071   0.442   3.783  0.1585  0.2076  0.1076
   16SAPS  H14R 2061   6.005   0.450   3.696 -0.3377  1.7256  0.5888
   16SAPS  C215 2062   6.049   0.513   3.894  0.1949  0.3552  0.2284
   16SAPS  H15R 2063   5.948   0.555   3.907  1.3687  3.0607  1.6227
   16SAPS  C216 2064   6.146   0.524   4.011 -0.6877 -0.1349 -0.0060
   16SAPS  H16R 2065   6.253   0.527   3.982 -0.0903 -1.1668  1.9636
   16SAPS  H16S 2066   6.136   0.431   4.071 -0.5918 -0.4857 -0.5230
   16SAPS  C217 2067   6.115   0.640   4.103  0.3678  0.3949 -0.3979
   16SAPS  H17R 2068   6.018   0.633   4.157  1.4265 -0.7550  1.4787
   16SAPS  H17S 2069   6.112   0.734   4.043 -3.1186  2.2696  2.2975
   16SAPS  C218 2070   6.227   0.659   4.203 -0.0317  0.6803 -0.2079
   16SAPS  H18R 2071   6.187   0.742   4.265 -1.2591  0.0058 -0.0590
   16SAPS  H18S 2072   6.314   0.692   4.143  0.5933 -0.3129  0.1298
   16SAPS  C219 2073   6.247   0.544   4.292 -0.5535  0.3679  0.2537
   16SAPS  H19R 2074   6.314   0.471   4.241  0.4546 -0.0792  2.1334
   16SAPS  H19S 2075   6.148   0.500   4.318 -0.1676 -0.8223 -0.2260
   16SAPS  C220 2076   6.313   0.573   4.429  0.1134 -0.4959  0.4012
   16SAPS  H20R 2077   6.335   0.483   4.490 -0.1623 -1.2225 -0.5539
   16SAPS  H20S 2078   6.246   0.633   4.494  1.3752  1.0518  0.3264
   16SAPS  H20T 2079   6.408   0.630   4.416  0.9120 -1.9634 -0.4198
   16SAPS   C33 2080   7.072   0.753   3.400  0.3255  0.0677  0.2057
   16SAPS   H3X 2081   7.087   0.820   3.313 -0.8142 -1.6258 -1.3767
   16SAPS   H3Y 2082   7.167   0.720   3.447  1.0048  0.0276 -1.1692
   16SAPS   C34 2083   6.992   0.814   3.513 -0.0278  0.2478 -0.2234
   16SAPS   H4X 2084   6.885   0.812   3.483 -0.5479 -2.7581  1.4774
   16SAPS   H4Y 2085   7.010   0.923   3.526 -0.2394  0.3743 -0.9296
   16SAPS   C35 2086   7.001   0.745   3.648  0.1227 -0.7596 -0.3422
   16SAPS   H5X 2087   6.990   0.635   3.642  0.5706 -0.7361 -2.1110
   16SAPS   H5Y 2088   6.929   0.788   3.721  0.6893 -0.9099  0.3263
   16SAPS   C36 2089   7.143   0.772   3.703  0.2798 -0.1069 -0.2393
   16SAPS   H6X 2090   7.163   0.880   3.689 -0.9829  0.5530  2.2699
   16SAPS   H6Y 2091   7.218   0.713   3.646 -1.0717 -2.3530  0.1346
   16SAPS   C37 2092   7.161   0.745   3.857  0.1228  1.2265  0.1852
   16SAPS   H7X 2093   7.136   0.638   3.878  0.8428  1.3866  2.0340
   16SAPS   H7Y 2094   7.080   0.795   3.914 -1.0555  0.5119 -0.7912
   16SAPS   C38 2095   7.293   0.803   3.914  0.2662  0.1678  0.0380
   16SAPS   H8X 2096   7.303   0.910   3.887 -0.1659 -0.3843 -2.5967
   16SAPS   H8Y 2097   7.382   0.746   3.880  1.5174  0.5616  2.4662
   16SAPS   C39 2098   7.303   0.803   4.068  0.2995 -0.5616  0.1542
   16SAPS   H9X 2099   7.241   0.884   4.114  0.9864 -0.1010  0.2912
   16SAPS   H9Y 2100   7.408   0.824   4.097 -0.0172  0.5076  0.5670
   16SAPS  C310 2101   7.280   0.664   4.127  0.3260  0.0657  0.3754
   16SAPS  H10X 2102   7.360   0.591   4.098 -0.4489  0.0809 -2.0522
   16SAPS  H10Y 2103   7.190   0.626   4.075  2.0212  0.3008 -3.0940
   16SAPS  C311 2104   7.263   0.666   4.275  0.1473  0.2109 -0.5479
   16SAPS  H11X 2105   7.180   0.736   4.297  0.7394  0.6530  0.3327
   16SAPS  H11Y 2106   7.355   0.699   4.327 -0.5426 -0.4177  1.1400
   16SAPS  C312 2107   7.214   0.529   4.332  0.4299 -0.6339  0.1393
   16SAPS  H12X 2108   7.270   0.445   4.286  1.6184  0.0281  0.3626
   16SAPS  H12Y 2109   7.105   0.529   4.310  0.1076  0.4116  1.6115
   16SAPS  C313 2110   7.240   0.522   4.479  0.0371 -0.1555 -0.9915
   16SAPS  H13X 2111   7.205   0.613   4.531  0.2802 -0.1117 -0.9027
   16SAPS  H13Y 2112   7.348   0.509   4.503 -0.3850 -0.5869  0.8279
   16SAPS  C314 2113   7.174   0.400   4.548  0.6944 -0.1459 -0.0719
   16SAPS  H14X 2114   7.206   0.299   4.515  0.8796 -0.4939  1.1315
   16SAPS  H14Y 2115   7.064   0.398   4.533  0.7265 -2.7479 -0.4756
   16SAPS  C315 2116   7.191   0.402   4.702  0.8004  0.4549  0.3509
   16SAPS  H15X 2117   7.120   0.333   4.752  1.2374 -0.7753 -0.6764
   16SAPS  H15Y 2118   7.182   0.507   4.736  1.1710  0.2946  0.9556
   16SAPS  C316 2119   7.334   0.359   4.748  0.3327 -1.1724 -0.5637
   16SAPS  H16X 2120   7.344   0.370   4.858  0.8615 -0.3101 -0.6844
   16SAPS  H16Y 2121   7.419   0.413   4.702  1.2453 -1.2035  1.0055
   16SAPS  C317 2122   7.364   0.205   4.715 -0.1941  0.3191 -0.3580
   16SAPS  H17X 2123   7.458   0.170   4.763  0.3019 -0.8203 -2.0984
   16SAPS  H17Y 2124   7.380   0.196   4.606  0.2170  0.4419 -0.3113
   16SAPS  C318 2125   7.262   0.107   4.768  0.5117  0.7271 -0.4621
   16SAPS  H18X 2126   7.161   0.119   4.722 -0.5179 -2.3565  0.7030
   16SAPS  H18Y 2127   7.249   0.117   4.878 -1.0208 -1.4902 -0.3751
   16SAPS  H18Z 2128   7.293   0.006   4.734  0.9771  0.5171  0.5644
   17SAPS     N 2129   2.714   3.313   2.744  0.3446 -0.2351 -0.2690
   17SAPS   HN1 2130   2.811   3.331   2.710  0.0813 -0.0627 -0.9285
   17SAPS   HN2 2131   2.646   3.365   2.686 -1.1059  0.6571  2.1001
   17SAPS   HN3 2132   2.702   3.357   2.838 -0.0122 -1.4923  0.3003
   17SAPS   C12 2133   2.668   3.169   2.733 -0.6861  0.3240  0.0989
   17SAPS  H12A 2134   2.697   3.116   2.823 -0.5837 -1.6249 -1.0369
   17SAPS   C13 2135   2.518   3.167   2.705  0.4604  0.6184  0.5160
   17SAPS  O13A 2136   2.448   3.268   2.705  0.5692  0.1606  0.1904
   17SAPS  O13B 2137   2.468   3.060   2.664 -0.1730  0.0958  0.2373
   17SAPS   C11 2138   2.741   3.101   2.618 -0.5638 -0.6473 -0.2618
   17SAPS  H11A 2139   2.741   3.170   2.532  3.8864 -0.2044 -0.1852
   17SAPS  H11B 2140   2.693   3.008   2.582 -1.9700  0.7067 -2.0544
   17SAPS     P 2141   2.947   2.973   2.718 -0.1009  0.1710 -0.5305
   17SAPS   O13 2142   2.907   2.846   2.657 -0.5000  0.1824  0.5140
   17SAPS   O14 2143   3.098   2.985   2.715 -0.4879  0.1986 -0.0246
   17SAPS   O12 2144   2.880   3.091   2.642 -0.2755 -0.1649  0.2276
   17SAPS   O11 2145   2.897   2.977   2.866  0.4374  0.0712  0.4805
   17SAPS    C1 2146   2.935   2.865   2.961 -0.5162 -0.7227  0.5097
   17SAPS    HA 2147   3.014   2.794   2.928  0.4466  0.5601 -0.0789
   17SAPS    HB 2148   2.971   2.910   3.057  1.7776 -2.4054  0.5246
   17SAPS    C2 2149   2.813   2.781   2.976  0.2853  0.2218  0.4074
   17SAPS    HS 2150   2.780   2.756   2.873  0.7136 -0.1544  0.3573
   17SAPS   O21 2151   2.704   2.846   3.046 -0.2876  0.1223  0.4628
   17SAPS   C21 2152   2.599   2.887   2.981 -0.5206 -0.1114  0.4329
   17SAPS   O22 2153   2.571   2.862   2.864 -0.1362  0.4836  0.3449
   17SAPS   C22 2154   2.521   2.979   3.075  0.0490  0.0215 -0.0664
   17SAPS   H2R 2155   2.594   3.051   3.117 -0.6569  0.9177 -0.3269
   17SAPS   H2S 2156   2.456   3.043   3.012  0.1506  0.4522  0.2609
   17SAPS    C3 2157   2.841   2.643   3.035  0.6954 -0.1162 -0.1698
   17SAPS    HX 2158   2.911   2.589   2.966  0.1734 -0.1479 -0.6772
   17SAPS    HY 2159   2.742   2.593   3.030  0.2684  0.4703  1.8648
   17SAPS   O31 2160   2.900   2.651   3.168  0.4436  0.0984  0.1497
   17SAPS   C31 2161   2.809   2.637   3.270 -0.5852 -0.2606 -0.2853
   17SAPS   O32 2162   2.690   2.614   3.253 -0.8606  0.2299 -0.0015
   17SAPS   C32 2163   2.868   2.695   3.403  0.1014  0.2329  0.0855
   17SAPS   H2X 2164   2.852   2.803   3.387  2.4445  0.4768 -1.0703
   17SAPS   H2Y 2165   2.977   2.672   3.400  0.2599 -0.0436  3.5558
   17SAPS   C23 2166   2.443   2.910   3.192  0.4965 -0.2165 -0.2862
   17SAPS   H3R 2167   2.515   2.844   3.245  1.0159 -2.3261 -3.3688
   17SAPS   H3S 2168   2.353   2.854   3.159  0.1915 -0.7069  1.2774
   17SAPS   C24 2169   2.391   3.014   3.288 -0.2309 -0.2406 -0.7433
   17SAPS   H4R 2170   2.359   3.103   3.230  0.9366  0.8845  0.2763
   17SAPS   H4S 2171   2.464   3.052   3.363 -2.1184 -0.1791  1.1570
   17SAPS   C25 2172   2.278   2.955   3.367  0.0209  0.0600  0.3487
   17SAPS   H5R 2173   2.220   2.869   3.330 -0.6802  0.5243  0.3532
   17SAPS   C26 2174   2.228   3.008   3.475  0.5609 -0.5455 -0.0866
   17SAPS   H6R 2175   2.143   2.952   3.517 -1.4334  0.6933 -2.2116
   17SAPS   C27 2176   2.253   3.152   3.530  0.1481  1.0516  0.2471
   17SAPS   H7R 2177   2.159   3.196   3.569 -0.8348 -3.5982  4.0412
   17SAPS   H7S 2178   2.289   3.213   3.444 -1.7637 -0.7684 -1.9814
   17SAPS   C28 2179   2.364   3.172   3.626 -0.6456  0.4347 -0.0419
   17SAPS   H8R 2180   2.460   3.125   3.599 -0.8493  0.6073 -1.0685
   17SAPS   C29 2181   2.356   3.226   3.753  0.2476  0.3747  1.3491
   17SAPS   H9R 2182   2.452   3.223   3.807  2.0379  0.0758 -1.6380
   17SAPS  C210 2183   2.238   3.303   3.819 -0.4912 -0.0455 -0.4901
   17SAPS  H10R 2184   2.209   3.374   3.739 -0.6502 -0.4079 -0.7614
   17SAPS  H10S 2185   2.277   3.362   3.905  0.0121  0.8686 -1.3280
   17SAPS  C211 2186   2.134   3.203   3.863 -0.0021 -0.5400 -0.1968
   17SAPS  H11R 2187   2.081   3.158   3.778  1.4486 -1.1362 -0.8166
   17SAPS  C212 2188   2.100   3.165   3.989  0.7141  0.0086 -0.4662
   17SAPS  H12R 2189   2.015   3.095   3.990  0.1430  0.6083 -2.0726
   17SAPS  C213 2190   2.168   3.221   4.114 -0.3403  0.7363 -0.6323
   17SAPS  H13R 2191   2.105   3.298   4.164  0.4592  0.1471  1.3812
   17SAPS  H13S 2192   2.259   3.278   4.087 -0.0379  0.0886 -0.9943
   17SAPS  C214 2193   2.206   3.104   4.204 -0.1401  0.1084 -0.0773
   17SAPS  H14R 2194   2.294   3.057   4.158  0.2797 -0.0508  0.8749
   17SAPS  C215 2195   2.161   3.068   4.321  0.6416  0.0587 -0.4463
   17SAPS  H15R 2196   2.219   2.992   4.375  0.5440 -0.1548 -0.6396
   17SAPS  C216 2197   2.035   3.123   4.392 -0.3326  0.1378  0.3982
   17SAPS  H16R 2198   1.952   3.093   4.325  0.3896 -1.8735  0.3225
   17SAPS  H16S 2199   2.025   3.232   4.408  2.3539  0.9410 -2.4199
   17SAPS  C217 2200   2.020   3.064   4.529 -0.1908  0.6877 -0.5042
   17SAPS  H17R 2201   2.016   2.953   4.521 -0.3063  0.4862  1.7486
   17SAPS  H17S 2202   1.920   3.102   4.557 -0.1912  0.1433  0.2574
   17SAPS  C218 2203   2.135   3.114   4.628  0.5025 -0.0367  0.4609
   17SAPS  H18R 2204   2.135   3.224   4.616 -2.0398 -0.1190 -1.2447
   17SAPS  H18S 2205   2.229   3.074   4.585 -0.6957 -1.4039 -1.0248
   17SAPS  C219 2206   2.120   3.062   4.776  0.1436 -0.4867 -0.1687
   17SAPS  H19R 2207   2.196   3.113   4.839 -0.6540 -0.5239  0.8544
   17SAPS  H19S 2208   2.146   2.954   4.775  0.9876 -0.2896  0.3743
   17SAPS  C220 2209   1.984   3.078   4.847 -0.9677  0.1983 -0.7417
   17SAPS  H20R 2210   1.993   3.042   4.952  0.2508  3.3162  0.3448
   17SAPS  H20S 2211   1.895   3.027   4.805 -0.9080  0.1817 -0.8494
   17SAPS  H20T 2212   1.949   3.183   4.842 -1.4286  0.1335  0.7556
   17SAPS   C33 2213   2.801   2.645   3.535  0.0450  0.6551  0.0654
   17SAPS   H3X 2214   2.866   2.684   3.616  0.7947 -1.4181  0.5142
   17SAPS   H3Y 2215   2.807   2.534   3.543  2.2444  0.7914  1.0968
   17SAPS   C34 2216   2.657   2.701   3.553 -0.0022 -0.0152  0.3494
   17SAPS   H4X 2217   2.609   2.676   3.650 -0.9004 -0.6050 -0.2381
   17SAPS   H4Y 2218   2.594   2.660   3.471  1.1226 -0.4717 -0.3072
   17SAPS   C35 2219   2.632   2.854   3.559 -0.3507  0.8732 -0.0706
   17SAPS   H5X 2220   2.524   2.868   3.579 -0.9668 -2.5537 -0.4775
   17SAPS   H5Y 2221   2.662   2.906   3.465  1.2201  1.0983  0.5184
   17SAPS   C36 2222   2.686   2.924   3.683 -0.3568  0.1437 -0.0208
   17SAPS   H6X 2223   2.667   3.030   3.660  1.8732  0.4460 -0.6919
   17SAPS   H6Y 2224   2.797   2.920   3.680 -0.3177  1.4614 -0.5442
   17SAPS   C37 2225   2.613   2.877   3.808  1.1159  0.3436 -0.2572
   17SAPS   H7X 2226   2.658   2.777   3.828  2.0445  0.9576  0.8570
   17SAPS   H7Y 2227   2.505   2.873   3.783  1.0777  2.4153 -0.6106
   17SAPS   C38 2228   2.648   2.959   3.932  0.2537  0.1628  0.2830
   17SAPS   H8X 2229   2.632   3.068   3.916  0.0768 -0.1644 -2.0787
   17SAPS   H8Y 2230   2.756   2.947   3.957  0.3417  0.4739  0.0467
   17SAPS   C39 2231   2.567   2.931   4.059  0.1798 -0.1995 -0.4114
   17SAPS   H9X 2232   2.456   2.930   4.051 -0.0160 -2.2444  1.4134
   17SAPS   H9Y 2233   2.594   2.997   4.144 -3.1260 -3.3190  3.4887
   17SAPS  C310 2234   2.605   2.794   4.134  0.3267  0.0838  0.3043
   17SAPS  H10X 2235   2.700   2.760   4.088  0.5915  1.3853 -0.1540
   17SAPS  H10Y 2236   2.520   2.723   4.123 -0.4977  1.1924 -0.6320
   17SAPS  C311 2237   2.653   2.806   4.287  0.2234 -0.7333 -0.0681
   17SAPS  H11X 2238   2.718   2.896   4.286 -1.2750  0.4290 -2.7975
   17SAPS  H11Y 2239   2.708   2.712   4.306  0.8803 -1.0484 -3.0663
   17SAPS  C312 2240   2.533   2.830   4.373 -0.1984 -0.8560 -0.5168
   17SAPS  H12X 2241   2.460   2.748   4.386 -0.6832 -0.3349  0.0932
   17SAPS  H12Y 2242   2.468   2.918   4.352 -0.6339 -1.6267 -2.5514
   17SAPS  C313 2243   2.587   2.862   4.512  0.0822  0.1902 -0.0228
   17SAPS  H13X 2244   2.641   2.960   4.513 -0.6206  0.5937 -0.5030
   17SAPS  H13Y 2245   2.658   2.784   4.546  0.1781  1.1597  2.1999
   17SAPS  C314 2246   2.478   2.856   4.617 -0.5515 -0.2798  0.2391
   17SAPS  H14X 2247   2.402   2.777   4.603 -0.8296 -0.3966  2.1464
   17SAPS  H14Y 2248   2.420   2.951   4.620  1.8889  1.3390 -0.2126
   17SAPS  C315 2249   2.529   2.835   4.763 -0.1865  0.3453  0.4115
   17SAPS  H15X 2250   2.557   2.728   4.768  3.9607  1.2983  1.1846
   17SAPS  H15Y 2251   2.447   2.870   4.829 -0.2209 -1.4748  1.3939
   17SAPS  C316 2252   2.658   2.918   4.787  0.4346 -0.1956 -0.6284
   17SAPS  H16X 2253   2.636   3.025   4.772 -0.3729 -0.5702 -2.4634
   17SAPS  H16Y 2254   2.741   2.904   4.714 -0.4442  0.7130 -1.8482
   17SAPS  C317 2255   2.716   2.882   4.925 -0.1114  0.4995 -0.6295
   17SAPS  H17X 2256   2.716   2.772   4.936  0.3443  0.3413 -2.0342
   17SAPS  H17Y 2257   2.638   2.911   4.999  1.6884 -0.8117  1.8982
   17SAPS  C318 2258   2.843   2.956   4.957  0.2625  0.5836 -0.2321
   17SAPS  H18X 2259   2.918   2.962   4.875 -1.9955 -0.1311 -2.4767
   17SAPS  H18Y 2260   2.880   2.910   5.052 -1.0447  0.9210  0.4764
   17SAPS  H18Z 2261   2.825   3.064   4.975  1.2968  0.6965  0.2154
   18SAPS     N 2262   6.030   4.134   2.541 -0.9135  0.3444 -0.2372
   18SAPS   HN1 2263   5.952   4.129   2.609  0.4262 -0.2963  1.3394
   18SAPS   HN2 2264   6.033   4.040   2.497  1.4993 -0.7081  1.8675
   18SAPS   HN3 2265   6.121   4.154   2.589  0.0775  0.4071 -2.0778
   18SAPS   C12 2266   5.992   4.238   2.436 -0.1888 -0.3155  0.6627
   18SAPS  H12A 2267   6.023   4.336   2.470 -1.1324  0.5924 -1.0140
   18SAPS   C13 2268   6.047   4.211   2.290  0.0199 -0.0706 -0.0935
   18SAPS  O13A 2269   6.127   4.119   2.265  0.4798  0.5357 -0.1069
   18SAPS  O13B 2270   6.007   4.284   2.198 -0.0759  0.6870 -0.2807
   18SAPS   C11 2271   5.838   4.242   2.417  0.0036 -0.2883 -0.7417
   18SAPS  H11A 2272   5.806   4.144   2.376  0.0109  0.1368 -1.8066
   18SAPS  H11B 2273   5.813   4.329   2.352  0.4707  0.3345 -0.1117
   18SAPS     P 2274   5.627   4.251   2.556 -0.0572 -0.1898  0.2997
   18SAPS   O13 2275   5.574   4.371   2.475 -0.4604  0.6910  0.0470
   18SAPS   O14 2276   5.587   4.114   2.526  1.1688  0.3320  0.3213
   18SAPS   O12 2277   5.785   4.257   2.546 -0.4319  0.3687  0.1591
   18SAPS   O11 2278   5.617   4.290   2.712  0.3883  1.0505  0.4402
   18SAPS    C1 2279   5.642   4.423   2.753 -0.5367 -1.1912  0.5974
   18SAPS    HA 2280   5.600   4.490   2.675  0.0286 -2.5593 -0.9382
   18SAPS    HB 2281   5.579   4.427   2.844 -1.2804 -2.8231  0.1860
   18SAPS    C2 2282   5.796   4.466   2.793 -0.7581 -0.2955  0.5281
   18SAPS    HS 2283   5.849   4.459   2.696 -1.4960  0.9442  0.0065
   18SAPS   O21 2284   5.848   4.374   2.888 -0.2515 -0.2341  0.2667
   18SAPS   C21 2285   5.982   4.360   2.903  0.2759  0.1528 -0.1220
   18SAPS   O22 2286   6.064   4.420   2.833  0.0861  0.2695  0.4865
   18SAPS   C22 2287   6.018   4.277   3.021  0.4557  0.2521 -0.0373
   18SAPS   H2R 2288   6.074   4.349   3.084 -0.0581  0.9199 -0.3240
   18SAPS   H2S 2289   5.943   4.231   3.088  3.0170 -1.4185  1.8696
   18SAPS    C3 2290   5.807   4.612   2.851  0.0020 -0.0232  0.3149
   18SAPS    HX 2291   5.783   4.684   2.770 -1.3612 -1.2311 -0.4045
   18SAPS    HY 2292   5.912   4.633   2.881  0.7581  0.4940 -2.4299
   18SAPS   O31 2293   5.710   4.628   2.956 -0.1274 -0.2463  0.2007
   18SAPS   C31 2294   5.754   4.611   3.082 -0.6460 -0.3567 -0.2681
   18SAPS   O32 2295   5.872   4.589   3.113  0.6928  0.0963 -0.2976
   18SAPS   C32 2296   5.640   4.637   3.170 -0.4164 -0.4071  0.2584
   18SAPS   H2X 2297   5.549   4.595   3.123 -1.4151  1.1785  0.6940
   18SAPS   H2Y 2298   5.623   4.746   3.182  1.7409  0.1624 -1.1483
   18SAPS   C23 2299   6.105   4.159   2.974  0.1567 -0.2730 -0.3004
   18SAPS   H3R 2300   6.195   4.187   2.914 -0.8642  1.9544 -0.8949
   18SAPS   H3S 2301   6.054   4.093   2.901  2.0618 -0.8206 -1.2101
   18SAPS   C24 2302   6.139   4.062   3.097 -0.1409 -0.6522  1.0592
   18SAPS   H4R 2303   6.192   3.974   3.054  0.6099  1.0459 -1.7502
   18SAPS   H4S 2304   6.048   4.007   3.127 -0.5327 -0.7901 -0.3000
   18SAPS   C25 2305   6.204   4.125   3.214  0.1529  0.5706  0.0794
   18SAPS   H5R 2306   6.307   4.163   3.207  0.4442  0.1511  1.7745
   18SAPS   C26 2307   6.147   4.144   3.333  0.2410  0.2997 -0.4784
   18SAPS   H6R 2308   6.213   4.159   3.420  0.3426 -0.9229 -0.3240
   18SAPS   C27 2309   6.004   4.101   3.372 -0.2482 -0.5439  0.0786
   18SAPS   H7R 2310   6.004   4.017   3.445 -2.2886  1.1063  2.1187
   18SAPS   H7S 2311   5.947   4.089   3.278 -0.5574  0.2557  0.1575
   18SAPS   C28 2312   5.939   4.208   3.455  0.2238 -0.0274  0.9379
   18SAPS   H8R 2313   5.869   4.272   3.400 -0.4905 -2.7763 -1.6638
   18SAPS   C29 2314   5.950   4.234   3.583 -0.1089 -0.6610 -0.1880
   18SAPS   H9R 2315   5.886   4.317   3.619 -0.9174 -0.0130 -2.8242
   18SAPS  C210 2316   6.026   4.150   3.675 -0.0289 -0.3704 -0.9082
   18SAPS  H10R 2317   6.088   4.206   3.749 -1.7827 -0.5999  0.8354
   18SAPS  H10S 2318   6.108   4.097   3.622 -1.3891  0.2042 -3.7622
   18SAPS  C211 2319   5.942   4.044   3.743 -0.6667  0.2779 -0.1215
   18SAPS  H11R 2320   5.933   3.946   3.693 -0.9614  1.2204 -1.9859
   18SAPS  C212 2321   5.880   4.051   3.861  0.2520 -0.8141 -0.1841
   18SAPS  H12R 2322   5.812   3.968   3.888 -0.8997  0.0184 -0.4467
   18SAPS  C213 2323   5.861   4.177   3.944 -0.5189  0.7165  0.3275
   18SAPS  H13R 2324   5.761   4.189   3.989  0.5889 -1.4825  3.8159
   18SAPS  H13S 2325   5.882   4.264   3.879 -0.0784  0.2467 -0.1792
   18SAPS  C214 2326   5.962   4.201   4.050 -0.0478  0.5052 -0.3021
   18SAPS  H14R 2327   6.064   4.221   4.014 -0.0515  1.5261  0.2058
   18SAPS  C215 2328   5.937   4.221   4.180 -0.2888 -0.8305  0.3347
   18SAPS  H15R 2329   6.018   4.256   4.246  0.9553 -2.5718 -0.2063
   18SAPS  C216 2330   5.800   4.234   4.245 -0.6548 -0.4816  0.4279
   18SAPS  H16R 2331   5.722   4.178   4.189 -1.4709  1.1588 -0.1126
   18SAPS  H16S 2332   5.774   4.341   4.250  2.6583  0.5556 -1.2118
   18SAPS  C217 2333   5.802   4.174   4.389  0.6688  0.2061 -0.2911
   18SAPS  H17R 2334   5.848   4.246   4.461 -0.6745  1.0368 -0.2235
   18SAPS  H17S 2335   5.865   4.083   4.390  1.5157  0.7751 -0.5498
   18SAPS  C218 2336   5.654   4.128   4.424 -0.0403  0.9087  0.3875
   18SAPS  H18R 2337   5.617   4.066   4.340 -1.0572  1.1172  0.6633
   18SAPS  H18S 2338   5.585   4.215   4.426 -1.3511 -0.0536 -0.8086
   18SAPS  C219 2339   5.636   4.041   4.548 -0.2484  0.1587 -0.8121
   18SAPS  H19R 2340   5.533   4.051   4.590  0.1421 -0.7071  0.3975
   18SAPS  H19S 2341   5.701   4.091   4.624 -2.2394 -1.1816  1.9674
   18SAPS  C220 2342   5.677   3.890   4.532  0.1701  0.0958 -0.2290
   18SAPS  H20R 2343   5.769   3.883   4.471  0.5645 -2.1467  0.5328
   18SAPS  H20S 2344   5.593   3.839   4.482 -2.0872  2.8825  0.4388
   18SAPS  H20T 2345   5.693   3.842   4.631  0.2563  0.5065 -0.0411
   18SAPS   C33 2346   5.654   4.564   3.309  0.3957 -0.7921  1.1907
   18SAPS   H3X 2347   5.679   4.457   3.294  1.9904 -0.1310 -1.4643
   18SAPS   H3Y 2348   5.547   4.570   3.342  0.6688 -0.0755  2.0037
   18SAPS   C34 2349   5.745   4.636   3.405  0.2668  0.1369  0.1655
   18SAPS   H4X 2350   5.731   4.746   3.404  5.5391  1.0622 -0.9307
   18SAPS   H4Y 2351   5.852   4.622   3.378 -0.2662  0.4135 -2.2848
   18SAPS   C35 2352   5.726   4.599   3.552  0.6303 -0.0134  0.8356
   18SAPS   H5X 2353   5.725   4.490   3.570  2.1936 -0.1376  0.3073
   18SAPS   H5Y 2354   5.628   4.641   3.584 -0.2105 -1.7084  0.5914
   18SAPS   C36 2355   5.840   4.654   3.634 -0.4481 -0.4690 -0.4687
   18SAPS   H6X 2356   5.837   4.765   3.634 -4.3135 -0.3983  1.2489
   18SAPS   H6Y 2357   5.919   4.609   3.571  1.0515  1.5731 -0.1612
   18SAPS   C37 2358   5.843   4.602   3.780 -0.3586  0.0537 -0.1921
   18SAPS   H7X 2359   5.815   4.495   3.778 -0.3706  0.0298  0.8548
   18SAPS   H7Y 2360   5.766   4.661   3.835 -0.5719 -1.0813  0.7672
   18SAPS   C38 2361   5.977   4.614   3.848  0.2719 -0.3839 -0.4654
   18SAPS   H8X 2362   6.032   4.706   3.819  2.2040 -1.2314  0.3187
   18SAPS   H8Y 2363   6.039   4.528   3.816  0.3018  0.1325 -1.8788
   18SAPS   C39 2364   5.958   4.621   3.998 -0.1825  0.1084  0.0409
   18SAPS   H9X 2365   5.875   4.556   4.033 -0.2320 -0.4279 -1.0123
   18SAPS   H9Y 2366   5.935   4.728   4.014 -1.6789 -0.4844  2.4222
   18SAPS  C310 2367   6.084   4.612   4.073 -0.9784 -0.1556 -0.4041
   18SAPS  H10X 2368   6.152   4.691   4.035  0.8118 -1.0711  0.7067
   18SAPS  H10Y 2369   6.131   4.513   4.049  1.8574  0.7045  1.1369
   18SAPS  C311 2370   6.054   4.623   4.221  0.5652 -0.3364  0.0910
   18SAPS  H11X 2371   5.961   4.569   4.247 -0.2640  1.2746  0.6280
   18SAPS  H11Y 2372   6.026   4.731   4.222 -2.0097 -0.9232 -1.0331
   18SAPS  C312 2373   6.172   4.580   4.307 -0.3084  0.1674  0.0175
   18SAPS  H12X 2374   6.182   4.648   4.394  0.1950  2.0186 -1.4168
   18SAPS  H12Y 2375   6.260   4.593   4.240  0.4810 -1.1809  0.7566
   18SAPS  C313 2376   6.189   4.423   4.340  0.8810 -0.1697 -0.4818
   18SAPS  H13X 2377   6.183   4.361   4.248  1.6192 -1.7496  0.5079
   18SAPS  H13Y 2378   6.108   4.405   4.413  2.3702  0.7460  1.4993
   18SAPS  C314 2379   6.327   4.400   4.401  0.7357 -1.0782  0.0454
   18SAPS  H14X 2380   6.401   4.466   4.351 -0.2663 -0.2715 -0.4346
   18SAPS  H14Y 2381   6.352   4.293   4.380  1.4420 -1.0572  0.7658
   18SAPS  C315 2382   6.333   4.443   4.551 -0.4210  0.0069 -0.0629
   18SAPS  H15X 2383   6.250   4.395   4.608 -1.0196  0.1349 -0.8082
   18SAPS  H15Y 2384   6.317   4.553   4.557  2.5937  0.5993 -1.3184
   18SAPS  C316 2385   6.461   4.419   4.621 -1.0929  0.3714 -0.2561
   18SAPS  H16X 2386   6.546   4.451   4.557  0.8252 -1.5890  1.1663
   18SAPS  H16Y 2387   6.470   4.311   4.644 -1.3024  0.6129  1.0455
   18SAPS  C317 2388   6.484   4.497   4.761  0.3872  0.4988  1.0036
   18SAPS  H17X 2389   6.379   4.493   4.797  0.8145 -0.0269  2.2253
   18SAPS  H17Y 2390   6.522   4.601   4.747 -1.6738  1.0891 -0.7627
   18SAPS  C318 2391   6.582   4.415   4.853  0.5342  0.7346 -0.0715
   18SAPS  H18X 2392   6.687   4.431   4.822  0.6111  0.0465 -0.1850
   18SAPS  H18Y 2393   6.570   4.304   4.851  0.1606  0.7793 -0.9599
   18SAPS  H18Z 2394   6.570   4.449   4.958 -1.7221 -0.8082  0.2579
   19SAPS     N 2395   6.270   2.973   2.956 -0.0190 -0.0272  0.9201
   19SAPS   HN1 2396   6.282   3.072   2.988  4.4023 -0.4226  1.0843
   19SAPS   HN2 2397   6.178   2.943   2.918 -0.0566 -0.4463  1.3385
   19SAPS   HN3 2398   6.294   2.917   3.040  1.5397  0.5903  0.9167
   19SAPS   C12 2399   6.380   2.937   2.862 -0.1436 -0.1599 -0.4439
   19SAPS  H12A 2400   6.382   2.832   2.838  0.3207 -0.0150 -1.0541
   19SAPS   C13 2401   6.385   3.005   2.713  0.1923  0.0548 -0.5311
   19SAPS  O13A 2402   6.286   3.073   2.686 -0.4237  0.3196  0.1079
   19SAPS  O13B 2403   6.478   2.982   2.633  0.6901  0.3050 -0.6030
   19SAPS   C11 2404   6.514   2.974   2.929  0.4240  0.3724  0.6944
   19SAPS  H11A 2405   6.511   3.084   2.944  0.8258  0.6216 -0.8268
   19SAPS  H11B 2406   6.590   2.954   2.850 -0.5522  1.1452 -0.4990
   19SAPS     P 2407   6.668   2.925   3.121 -0.1668 -0.2433  0.0053
   19SAPS   O13 2408   6.718   2.795   3.158 -0.1783 -0.6217 -0.2499
   19SAPS   O14 2409   6.757   3.011   3.040 -0.0618  0.1052  0.3784
   19SAPS   O12 2410   6.529   2.903   3.054  0.3167  0.1001 -0.3877
   19SAPS   O11 2411   6.637   3.009   3.251  0.3309  0.3609  0.0173
   19SAPS    C1 2412   6.535   3.112   3.236 -0.0471 -0.3356  0.6222
   19SAPS    HA 2413   6.557   3.179   3.150 -0.3326 -1.2542 -0.1810
   19SAPS    HB 2414   6.441   3.058   3.212  0.7263 -0.9244 -1.2915
   19SAPS    C2 2415   6.500   3.194   3.368 -0.5921  0.6341  0.5662
   19SAPS    HS 2416   6.594   3.249   3.387  0.7389 -0.8077 -1.4421
   19SAPS   O21 2417   6.485   3.086   3.465 -0.9318 -0.2962  0.0095
   19SAPS   C21 2418   6.502   3.127   3.587 -0.0561 -0.4945  0.4427
   19SAPS   O22 2419   6.537   3.243   3.616  0.0594  0.5327 -0.3816
   19SAPS   C22 2420   6.507   3.006   3.679  0.2010  0.3949  0.3590
   19SAPS   H2R 2421   6.409   2.953   3.685  0.2260  0.4454  1.2843
   19SAPS   H2S 2422   6.580   2.937   3.632  0.0163 -1.7065  2.9134
   19SAPS    C3 2423   6.383   3.294   3.356  0.3966 -0.4414 -0.1334
   19SAPS    HX 2424   6.293   3.236   3.323  0.4832 -0.8561  0.3406
   19SAPS    HY 2425   6.405   3.353   3.265  1.5381 -0.6617 -0.0169
   19SAPS   O31 2426   6.338   3.369   3.472  0.1350 -0.1220 -0.3688
   19SAPS   C31 2427   6.419   3.472   3.513  0.0436 -0.2793  0.0833
   19SAPS   O32 2428   6.518   3.509   3.459  0.0329  0.2048 -0.3199
   19SAPS   C32 2429   6.358   3.538   3.633  0.2845 -0.6733  0.2354
   19SAPS   H2X 2430   6.264   3.485   3.662  0.5539 -0.5248  1.4397
   19SAPS   H2Y 2431   6.335   3.647   3.628  0.4388 -0.6409  0.2236
   19SAPS   C23 2432   6.552   3.049   3.821 -0.2119  0.2524 -0.8396
   19SAPS   H3R 2433   6.496   2.990   3.897  0.7192 -0.5056 -0.7229
   19SAPS   H3S 2434   6.531   3.156   3.840 -0.1768  0.1119  0.0305
   19SAPS   C24 2435   6.702   3.039   3.840  0.1474  0.2353 -0.4875
   19SAPS   H4R 2436   6.762   3.120   3.793  1.2174 -0.8830 -1.0957
   19SAPS   H4S 2437   6.745   2.949   3.791 -1.9616 -0.3132 -1.4498
   19SAPS   C25 2438   6.745   3.043   3.982 -0.1675 -0.4913  0.3774
   19SAPS   H5R 2439   6.726   3.141   4.027 -1.5522 -1.4744  2.0431
   19SAPS   C26 2440   6.819   2.962   4.057  0.0466 -0.0676  0.5512
   19SAPS   H6R 2441   6.844   2.990   4.160 -0.8778  1.5564  0.3544
   19SAPS   C27 2442   6.872   2.826   4.016 -1.1371  0.4568  0.2129
   19SAPS   H7R 2443   6.797   2.790   3.941 -2.4990  0.6512  1.4358
   19SAPS   H7S 2444   6.872   2.770   4.112  0.9921  1.0736  0.6193
   19SAPS   C28 2445   7.010   2.841   3.959 -0.3581  0.5464 -0.4899
   19SAPS   H8R 2446   7.016   2.863   3.852 -1.2884  1.7973 -0.3004
   19SAPS   C29 2447   7.124   2.815   4.027 -0.2483 -0.2347  0.4853
   19SAPS   H9R 2448   7.214   2.834   3.967 -0.5163 -0.9160 -0.1387
   19SAPS  C210 2449   7.141   2.751   4.170  0.5564 -0.2373 -0.2412
   19SAPS  H10R 2450   7.050   2.695   4.200  0.2356  0.9120  1.0280
   19SAPS  H10S 2451   7.153   2.832   4.245 -1.2223  1.1175 -1.3317
   19SAPS  C211 2452   7.267   2.671   4.175  0.6459  0.3654 -0.4989
   19SAPS  H11R 2453   7.251   2.563   4.164  0.3737  0.0552  2.2678
   19SAPS  C212 2454   7.387   2.712   4.223  0.1902 -0.3738 -0.1035
   19SAPS  H12R 2455   7.464   2.634   4.228 -0.0185 -0.5345  0.7701
   19SAPS  C213 2456   7.418   2.852   4.271 -0.1950 -0.4876  0.0331
   19SAPS  H13R 2457   7.376   2.855   4.374 -1.6808  0.2671 -0.5730
   19SAPS  H13S 2458   7.357   2.928   4.218  1.8037 -0.1179 -1.8993
   19SAPS  C214 2459   7.565   2.885   4.270  0.3286  0.3313  0.1026
   19SAPS  H14R 2460   7.622   2.812   4.329 -1.6958  0.1039  1.9072
   19SAPS  C215 2461   7.622   2.994   4.216 -0.0144  0.0263  0.4210
   19SAPS  H15R 2462   7.731   3.003   4.222  0.1045 -0.9526 -0.1454
   19SAPS  C216 2463   7.553   3.103   4.141  0.2805  0.0053 -0.7197
   19SAPS  H16R 2464   7.458   3.072   4.091 -0.5973  0.6115  0.5296
   19SAPS  H16S 2465   7.617   3.133   4.056  2.3407 -2.0622 -0.0032
   19SAPS  C217 2466   7.517   3.222   4.232  0.5146  0.0816 -0.5347
   19SAPS  H17R 2467   7.439   3.279   4.178 -0.4877 -0.8558 -0.1310
   19SAPS  H17S 2468   7.604   3.291   4.241  0.8274 -0.2720 -0.7939
   19SAPS  C218 2469   7.451   3.189   4.362 -0.5138 -0.5347 -0.9753
   19SAPS  H18R 2470   7.517   3.150   4.442  0.6648  3.4069  0.2108
   19SAPS  H18S 2471   7.371   3.114   4.344 -1.3778  0.1136  0.0739
   19SAPS  C219 2472   7.390   3.315   4.426  0.1405  0.1388  0.0573
   19SAPS  H19R 2473   7.304   3.348   4.364  0.2310 -2.4581 -1.6003
   19SAPS  H19S 2474   7.465   3.396   4.416 -1.0077  1.3897  1.1890
   19SAPS  C220 2475   7.355   3.296   4.572 -0.4424 -0.0709  0.4027
   19SAPS  H20R 2476   7.253   3.253   4.585  0.5773 -2.2194  1.9817
   19SAPS  H20S 2477   7.352   3.393   4.626  0.0041 -0.2352  0.7217
   19SAPS  H20T 2478   7.426   3.225   4.619 -0.0646 -1.4001 -1.9764
   19SAPS   C33 2479   6.466   3.532   3.742 -0.5908 -0.0333  0.9785
   19SAPS   H3X 2480   6.534   3.619   3.730 -0.9021 -0.0905 -1.8440
   19SAPS   H3Y 2481   6.537   3.446   3.748  2.9466  2.7508  2.9834
   19SAPS   C34 2482   6.403   3.547   3.872 -0.4291 -0.0681  0.7144
   19SAPS   H4X 2483   6.309   3.489   3.863 -0.9061  0.9014 -0.9037
   19SAPS   H4Y 2484   6.370   3.651   3.889 -2.6061 -0.0298 -2.7620
   19SAPS   C35 2485   6.483   3.493   3.985 -0.4696  0.2894 -0.5048
   19SAPS   H5X 2486   6.593   3.505   3.978 -0.1191  0.1836  3.1937
   19SAPS   H5Y 2487   6.468   3.384   3.969 -1.8411  0.5975 -1.6071
   19SAPS   C36 2488   6.416   3.526   4.120 -0.0598 -0.2315  0.3365
   19SAPS   H6X 2489   6.308   3.510   4.098 -0.2795 -0.5535  1.5803
   19SAPS   H6Y 2490   6.425   3.632   4.152 -2.6895 -0.4167  1.9689
   19SAPS   C37 2491   6.452   3.444   4.241  0.0693 -0.1081  0.7454
   19SAPS   H7X 2492   6.554   3.454   4.285  0.6483 -1.7843 -0.0985
   19SAPS   H7Y 2493   6.437   3.337   4.213 -0.1978 -0.7976  3.3076
   19SAPS   C38 2494   6.351   3.477   4.350 -0.3201 -0.5023  0.0734
   19SAPS   H8X 2495   6.347   3.405   4.435  0.3713 -0.2314  0.3407
   19SAPS   H8Y 2496   6.248   3.475   4.308  0.3403  1.3879 -1.7975
   19SAPS   C39 2497   6.362   3.616   4.418  0.0111 -0.0075 -0.1297
   19SAPS   H9X 2498   6.264   3.639   4.464  1.0961  4.2407  0.4549
   19SAPS   H9Y 2499   6.364   3.695   4.340 -0.7626  0.5061  0.3545
   19SAPS  C310 2500   6.477   3.620   4.520  0.3730  0.0902  0.0424
   19SAPS  H10X 2501   6.553   3.681   4.466  1.3315 -1.6306 -0.6152
   19SAPS  H10Y 2502   6.513   3.521   4.554  0.5078  1.0863  3.1584
   19SAPS  C311 2503   6.442   3.700   4.647  0.2549 -0.8627 -0.0429
   19SAPS  H11X 2504   6.365   3.633   4.691 -1.8037 -0.3205 -2.5527
   19SAPS  H11Y 2505   6.399   3.793   4.604  3.1188  2.0954  2.9392
   19SAPS  C312 2506   6.569   3.736   4.730 -0.3866 -0.1052 -0.2972
   19SAPS  H12X 2507   6.655   3.764   4.665 -0.3207 -0.3644 -0.3230
   19SAPS  H12Y 2508   6.605   3.647   4.786  0.6471 -0.0255 -0.8096
   19SAPS  C313 2509   6.545   3.849   4.835 -0.4233  0.5053 -0.1874
   19SAPS  H13X 2510   6.504   3.803   4.927 -1.4859  1.3966 -0.1883
   19SAPS  H13Y 2511   6.459   3.915   4.809 -1.2154 -0.8758 -1.2085
   19SAPS  C314 2512   6.679   3.914   4.878  0.6470  0.1145 -0.4763
   19SAPS  H14X 2513   6.722   3.949   4.782  0.0450 -2.3203 -1.7135
   19SAPS  H14Y 2514   6.750   3.834   4.909  0.2900 -0.5395 -1.3054
   19SAPS  C315 2515   6.671   4.023   4.983  0.9801  0.2531 -0.6522
   19SAPS  H15X 2516   6.626   3.975   5.072  2.0027  0.1415 -0.1902
   19SAPS  H15Y 2517   6.604   4.107   4.954 -0.0608 -0.7096 -1.1031
   19SAPS  C316 2518   6.806   4.087   5.015 -0.4841 -0.3610  0.3392
   19SAPS  H16X 2519   6.813   4.183   4.958  1.2138 -0.7078 -0.0862
   19SAPS  H16Y 2520   6.881   4.017   4.973 -0.2880 -0.1239  0.2891
   19SAPS  C317 2521   6.830   4.120   5.158  0.3634 -0.2371 -0.2096
   19SAPS  H17X 2522   6.733   4.156   5.201  1.3037  0.4345  1.4482
   19SAPS  H17Y 2523   6.903   4.200   5.180  0.2194  0.1198 -0.9885
   19SAPS  C318 2524   6.884   3.995   5.230 -0.3535 -0.5927  0.4321
   19SAPS  H18X 2525   6.921   4.030   5.329 -0.2192 -0.0556  0.1976
   19SAPS  H18Y 2526   6.974   3.959   5.175 -0.8402  0.4605 -1.1195
   19SAPS  H18Z 2527   6.803   3.919   5.236  0.2059 -1.1805  0.6209
   20SAPS     N 2528   6.518   3.736   2.726 -0.0987  0.0769  0.0683
   20SAPS   HN1 2529   6.483   3.693   2.814 -1.7203 -0.0718 -0.6035
   20SAPS   HN2 2530   6.519   3.840   2.732 -0.3576  0.1170 -0.5240
   20SAPS   HN3 2531   6.465   3.687   2.651 -0.0768  0.5299 -0.2469
   20SAPS   C12 2532   6.658   3.697   2.703 -0.1959 -0.3668 -0.1645
   20SAPS  H12A 2533   6.656   3.590   2.716 -0.7415 -0.3024  0.3324
   20SAPS   C13 2534   6.710   3.726   2.559 -0.3745 -0.2008  0.1276
   20SAPS  O13A 2535   6.633   3.786   2.474 -0.1986 -0.0275  0.0138
   20SAPS  O13B 2536   6.824   3.680   2.525  0.5441  0.0292  0.3717
   20SAPS   C11 2537   6.761   3.770   2.808  0.5254 -0.7224  0.4995
   20SAPS  H11A 2538   6.863   3.742   2.775  0.6703  1.4521 -1.1130
   20SAPS  H11B 2539   6.750   3.721   2.907 -2.5221  1.3364  1.3516
   20SAPS     P 2540   6.855   4.001   2.892 -0.2446 -0.0583  0.0278
   20SAPS   O13 2541   6.981   3.955   2.829 -0.0888  0.3627 -0.5490
   20SAPS   O14 2542   6.825   4.144   2.890  0.0454 -0.4022  0.4628
   20SAPS   O12 2543   6.743   3.915   2.816 -0.1841 -0.0433 -0.1197
   20SAPS   O11 2544   6.858   3.965   3.044  0.1332  0.2897  0.1642
   20SAPS    C1 2545   6.913   3.844   3.098  0.0529 -0.2525 -0.4271
   20SAPS    HA 2546   6.830   3.779   3.133 -0.4253  0.8271  0.5215
   20SAPS    HB 2547   6.976   3.791   3.024 -0.5783 -1.0657 -0.3944
   20SAPS    C2 2548   7.013   3.882   3.204  0.7004 -0.0218 -0.2067
   20SAPS    HS 2549   7.075   3.793   3.229  1.7622  0.4398 -1.1156
   20SAPS   O21 2550   6.939   3.929   3.315 -0.1496 -0.7926  0.9485
   20SAPS   C21 2551   6.895   3.842   3.397 -0.6068  0.5403  0.6759
   20SAPS   O22 2552   6.894   3.723   3.373  0.4081 -0.7182 -0.3765
   20SAPS   C22 2553   6.846   3.903   3.530 -0.1848 -0.6747 -0.1882
   20SAPS   H2R 2554   6.769   3.981   3.510 -0.6048 -1.0244  0.0694
   20SAPS   H2S 2555   6.787   3.823   3.578 -1.3127 -0.0403 -0.4856
   20SAPS    C3 2556   7.120   3.977   3.157 -0.9918 -0.1938  0.1844
   20SAPS    HX 2557   7.069   4.068   3.120 -1.9870  0.8798  3.8307
   20SAPS    HY 2558   7.184   3.927   3.081 -1.4585  0.2114 -0.4781
   20SAPS   O31 2559   7.205   4.018   3.272  0.6245  0.0632 -0.0756
   20SAPS   C31 2560   7.299   4.108   3.246  0.2323  0.0563 -0.8126
   20SAPS   O32 2561   7.324   4.155   3.141  0.0426 -0.7744  0.5786
   20SAPS   C32 2562   7.373   4.148   3.379 -0.6875 -0.6081 -0.2476
   20SAPS   H2X 2563   7.436   4.058   3.396  0.2586 -0.0396 -0.6137
   20SAPS   H2Y 2564   7.295   4.160   3.457 -0.9688  3.4271 -0.9323
   20SAPS   C23 2565   6.960   3.932   3.637 -0.3174  0.0357 -0.2155
   20SAPS   H3R 2566   7.009   4.030   3.614  3.2622 -1.7809 -1.1759
   20SAPS   H3S 2567   7.040   3.856   3.627 -1.1175 -1.2649  2.4691
   20SAPS   C24 2568   6.902   3.947   3.779  0.0913 -0.8624 -0.6851
   20SAPS   H4R 2569   6.823   4.024   3.769 -0.0721 -0.7476  1.1100
   20SAPS   H4S 2570   6.983   3.981   3.847 -1.6027 -1.4477  1.7442
   20SAPS   C25 2571   6.850   3.818   3.839  0.2259  0.1934  0.2558
   20SAPS   H5R 2572   6.869   3.728   3.778 -1.9047 -0.2690  0.1927
   20SAPS   C26 2573   6.769   3.804   3.942 -0.3908  0.7921 -0.0898
   20SAPS   H6R 2574   6.729   3.709   3.980  1.5123  0.1716  0.4390
   20SAPS   C27 2575   6.732   3.926   4.024 -0.3265  0.0181 -0.0052
   20SAPS   H7R 2576   6.669   3.995   3.963 -0.7039 -0.1473  0.1993
   20SAPS   H7S 2577   6.822   3.987   4.047  1.7252 -2.5830 -0.6631
   20SAPS   C28 2578   6.651   3.881   4.146 -0.5361 -0.9272 -0.6958
   20SAPS   H8R 2579   6.608   3.780   4.148 -4.5203  0.6065 -0.5661
   20SAPS   C29 2580   6.626   3.953   4.259  0.8691 -0.1288 -0.0214
   20SAPS   H9R 2581   6.560   3.913   4.338  0.5169  0.0107 -0.2482
   20SAPS  C210 2582   6.678   4.097   4.271  0.0290 -0.5188 -0.0662
   20SAPS  H10R 2583   6.614   4.149   4.197 -1.6849 -0.9781  1.0318
   20SAPS  H10S 2584   6.782   4.122   4.240 -0.4061 -0.9319 -1.9511
   20SAPS  C211 2585   6.650   4.138   4.413  0.4075  0.0094 -0.4044
   20SAPS  H11R 2586   6.554   4.186   4.437 -0.6015 -1.0868 -2.0113
   20SAPS  C212 2587   6.743   4.142   4.507  0.3163  0.3056 -0.5770
   20SAPS  H12R 2588   6.703   4.161   4.608 -1.2826 -3.8818 -0.1912
   20SAPS  C213 2589   6.883   4.086   4.500 -0.5375 -0.0269  0.0349
   20SAPS  H13R 2590   6.901   4.034   4.403  1.5998  0.1630  0.2836
   20SAPS  H13S 2591   6.895   4.006   4.577  0.8156  0.0930 -0.0318
   20SAPS  C214 2592   6.974   4.203   4.500  0.1837 -0.3118 -0.6352
   20SAPS  H14R 2593   6.965   4.270   4.413  0.6238 -0.7888 -1.0550
   20SAPS  C215 2594   7.049   4.239   4.606  0.4615 -0.5439 -0.4845
   20SAPS  H15R 2595   7.111   4.329   4.604  0.7771 -0.7694 -1.3774
   20SAPS  C216 2596   7.044   4.170   4.740 -0.0029  0.5702  0.1182
   20SAPS  H16R 2597   7.033   4.059   4.732  0.0272  0.6144 -0.6154
   20SAPS  H16S 2598   6.957   4.211   4.795 -0.7305 -0.1797 -0.4606
   20SAPS  C217 2599   7.169   4.198   4.828  0.1124  0.0568 -0.4656
   20SAPS  H17R 2600   7.182   4.308   4.838  0.3874 -0.0979  1.3830
   20SAPS  H17S 2601   7.262   4.161   4.781 -0.3782 -1.0507 -0.5970
   20SAPS  C218 2602   7.165   4.135   4.971  0.3447  0.9787  0.2896
   20SAPS  H18R 2603   7.162   4.024   4.965  1.5826  0.6319  3.7096
   20SAPS  H18S 2604   7.081   4.174   5.033  0.2353  0.1675  0.6660
   20SAPS  C219 2605   7.289   4.159   5.061 -0.0586  0.4949 -0.5045
   20SAPS  H19R 2606   7.297   4.267   5.085  0.1085  0.2712  0.4953
   20SAPS  H19S 2607   7.379   4.131   5.002  0.2505 -0.0266  0.2042
   20SAPS  C220 2608   7.280   4.090   5.202  0.1025 -0.4510 -0.4807
   20SAPS  H20R 2609   7.199   4.144   5.256  0.2279 -0.3770 -0.3630
   20SAPS  H20S 2610   7.370   4.099   5.268 -0.2237 -0.5168 -0.0195
   20SAPS  H20T 2611   7.254   3.983   5.204  1.1371 -0.7299  1.4171
   20SAPS   C33 2612   7.484   4.263   3.374  0.1494  0.7124 -0.2964
   20SAPS   H3X 2613   7.438   4.364   3.362  0.4817  1.7481  4.9431
   20SAPS   H3Y 2614   7.548   4.244   3.285 -1.4698 -1.3028 -1.1134
   20SAPS   C34 2615   7.574   4.250   3.503  0.3673 -0.6278  0.2279
   20SAPS   H4X 2616   7.595   4.145   3.535  3.6751 -0.5239 -1.2645
   20SAPS   H4Y 2617   7.517   4.304   3.582 -3.6270  0.3401 -3.0010
   20SAPS   C35 2618   7.719   4.304   3.481  0.2162 -0.0849  1.0471
   20SAPS   H5X 2619   7.713   4.408   3.443  3.0655 -1.1688 -3.0285
   20SAPS   H5Y 2620   7.768   4.242   3.402  2.2229 -0.9525  2.8652
   20SAPS   C36 2621   7.813   4.302   3.599 -0.4508  0.2454  0.5181
   20SAPS   H6X 2622   7.898   4.369   3.573 -0.8863  0.9004  0.7379
   20SAPS   H6Y 2623   7.847   4.197   3.600 -1.6668 -0.1607  0.3734
   20SAPS   C37 2624   7.765   4.339   3.736 -0.3153  0.0987  0.8283
   20SAPS   H7X 2625   7.833   4.312   3.819  0.0333 -1.2569  0.1320
   20SAPS   H7Y 2626   7.667   4.286   3.749 -1.0977  1.5868  1.2196
   20SAPS   C38 2627   7.747   4.489   3.752  0.3030  0.6846 -0.6976
   20SAPS   H8X 2628   7.668   4.521   3.679 -1.6592  0.3674  1.1882
   20SAPS   H8Y 2629   7.841   4.545   3.737  0.2473  0.4783 -1.9306
   20SAPS   C39 2630   7.687   4.509   3.893 -0.4597  0.5281 -0.5444
   20SAPS   H9X 2631   7.606   4.435   3.912  0.3270  0.1228  1.6070
   20SAPS   H9Y 2632   7.643   4.611   3.887  0.0160  0.6333 -2.9887
   20SAPS  C310 2633   7.786   4.508   4.005  0.2658  0.0294 -0.3410
   20SAPS  H10X 2634   7.850   4.598   3.987 -2.2143  1.9427 -0.2028
   20SAPS  H10Y 2635   7.849   4.417   3.996  0.9617  0.5473 -0.8073
   20SAPS  C311 2636   7.715   4.520   4.143 -0.1950  0.2076 -0.1594
   20SAPS  H11X 2637   7.632   4.446   4.139 -0.3532  0.4487 -2.1864
   20SAPS  H11Y 2638   7.674   4.621   4.165 -0.1050  1.1539 -3.7786
   20SAPS  C312 2639   7.809   4.478   4.259 -0.9192  0.6401 -0.1931
   20SAPS  H12X 2640   7.839   4.374   4.235 -1.1040 -0.0128  2.1634
   20SAPS  H12Y 2641   7.742   4.461   4.346 -3.3182 -0.7861 -2.1779
   20SAPS  C313 2642   7.929   4.578   4.297 -0.2232  0.7621  0.6810
   20SAPS  H13X 2643   7.986   4.603   4.205 -0.6992  0.5016  0.3145
   20SAPS  H13Y 2644   7.986   4.520   4.373  0.7642  1.9338  0.8693
   20SAPS  C314 2645   7.885   4.709   4.362 -0.1777 -0.0334 -0.3676
   20SAPS  H14X 2646   7.776   4.713   4.339 -0.1411 -1.4207 -0.8644
   20SAPS  H14Y 2647   7.929   4.801   4.319 -0.0973 -0.1131 -0.4555
   20SAPS  C315 2648   7.905   4.715   4.517  0.7632  0.0611 -0.6406
   20SAPS  H15X 2649   7.832   4.642   4.558  0.4448 -0.5451 -2.2286
   20SAPS  H15Y 2650   7.881   4.814   4.562  1.5435  0.2087 -0.5330
   20SAPS  C316 2651   8.045   4.675   4.563  0.5977 -0.5998 -0.1946
   20SAPS  H16X 2652   8.119   4.728   4.499 -0.1784  0.7597 -0.0244
   20SAPS  H16Y 2653   8.054   4.565   4.554  1.1902 -0.6172  0.5124
   20SAPS  C317 2654   8.063   4.710   4.708  0.1791  0.4834  0.2990
   20SAPS  H17X 2655   8.033   4.814   4.729  0.8809  0.7693 -0.0681
   20SAPS  H17Y 2656   8.172   4.706   4.730 -0.0912 -2.2876  1.6058
   20SAPS  C318 2657   8.000   4.601   4.802 -0.2760  0.0067 -0.3798
   20SAPS  H18X 2658   8.071   4.516   4.810  0.2718  0.4601 -0.3287
   20SAPS  H18Y 2659   7.907   4.558   4.758 -0.0782 -1.5228  0.6051
   20SAPS  H18Z 2660   7.985   4.626   4.910 -2.4794 -0.6311 -0.4827
   21CHL1    C3 2661   3.515   4.495   6.924 -0.2896  0.7680 -0.0293
   21CHL1    H3 2662   3.412   4.501   6.966  0.7204 -0.2639  2.8483
   21CHL1    O3 2663   3.601   4.530   7.029 -0.1660 -0.0951  0.0091
   21CHL1   H3' 2664   3.691   4.529   6.995 -0.0836 -0.7449  0.2311
   21CHL1    C4 2665   3.544   4.352   6.884 -0.0456  0.2466 -0.2999
   21CHL1   H4A 2666   3.655   4.350   6.883  0.0084 -0.7229  2.0952
   21CHL1   H4B 2667   3.501   4.289   6.965  0.1618 -0.0199 -0.3997
   21CHL1    C5 2668   3.488   4.303   6.756  0.1310 -0.3088  0.1248
   21CHL1    C6 2669   3.418   4.186   6.743 -0.8299  0.0347 -0.0592
   21CHL1    H6 2670   3.410   4.119   6.829 -0.3296 -0.8801 -0.7094
   21CHL1    C7 2671   3.376   4.133   6.607  0.1248 -0.2070 -0.0277
   21CHL1   H7A 2672   3.396   4.024   6.591 -2.0573 -0.9691  1.9456
   21CHL1   H7B 2673   3.266   4.143   6.603  0.0520 -1.1041 -0.5614
   21CHL1    C8 2674   3.447   4.205   6.490  0.1325  1.4015 -0.5326
   21CHL1    H8 2675   3.550   4.163   6.493  0.3320  1.9678  1.5502
   21CHL1   C14 2676   3.368   4.176   6.363  0.1175  0.0189 -0.0574
   21CHL1   H14 2677   3.269   4.214   6.397  0.7056  0.7899  0.8340
   21CHL1   C15 2678   3.342   4.033   6.325  0.3929 -0.0427  0.4845
   21CHL1  H15A 2679   3.438   3.978   6.334  1.4548  1.7428  0.6184
   21CHL1  H15B 2680   3.264   3.981   6.383 -0.0270 -0.3078 -0.2983
   21CHL1   C16 2681   3.318   4.034   6.178  0.3727  0.4747  0.2004
   21CHL1  H16A 2682   3.395   3.969   6.130  1.3392  2.5910 -1.2539
   21CHL1  H16B 2683   3.212   3.999   6.167  1.0795 -2.4652  1.6158
   21CHL1   C17 2684   3.343   4.174   6.122 -0.6930  0.5394 -0.4956
   21CHL1   H17 2685   3.242   4.219   6.113 -0.7968 -0.0987 -3.9141
   21CHL1   C13 2686   3.426   4.244   6.233  0.2195  0.5235  0.8116
   21CHL1   C18 2687   3.578   4.200   6.217 -0.2268  1.5317  0.3462
   21CHL1  H18A 2688   3.641   4.220   6.307  2.0439  0.2839 -0.8616
   21CHL1  H18B 2689   3.587   4.091   6.196  2.0328  1.3882  1.6260
   21CHL1  H18C 2690   3.619   4.263   6.136  0.8762  0.3639 -0.0332
   21CHL1   C12 2691   3.406   4.395   6.255 -0.7620 -0.1153 -0.8028
   21CHL1  H12A 2692   3.430   4.457   6.166  1.8546  0.4104  0.1652
   21CHL1  H12B 2693   3.299   4.408   6.283 -0.9301  0.0925 -1.5061
   21CHL1   C11 2694   3.498   4.434   6.375 -0.4303 -0.1076 -0.5576
   21CHL1  H11A 2695   3.608   4.419   6.364  0.0581  1.7465  1.2213
   21CHL1  H11B 2696   3.475   4.542   6.380  3.0807  0.6814  1.4950
   21CHL1    C9 2697   3.449   4.359   6.512 -0.1749 -0.8558  0.0494
   21CHL1    H9 2698   3.345   4.393   6.529 -0.5748 -2.1757  0.3596
   21CHL1   C10 2699   3.524   4.402   6.646  0.2352 -0.1637  0.5760
   21CHL1   C19 2700   3.677   4.412   6.602  0.3751 -0.0477 -0.2719
   21CHL1  H19A 2701   3.678   4.497   6.531 -1.1976  0.4260  0.2347
   21CHL1  H19B 2702   3.745   4.432   6.688  0.0377  1.6989 -0.3800
   21CHL1  H19C 2703   3.708   4.322   6.545 -0.8375  0.6792 -2.1628
   21CHL1    C1 2704   3.469   4.546   6.684  0.2851 -0.6722  0.1528
   21CHL1   H1A 2705   3.478   4.608   6.592  0.1537 -0.4685  0.2741
   21CHL1   H1B 2706   3.364   4.522   6.708 -0.0606  1.0383  0.5136
   21CHL1    C2 2707   3.537   4.602   6.811 -0.0068 -0.3027  0.1396
   21CHL1   H2A 2708   3.474   4.689   6.838 -0.3617 -0.3525 -0.5080
   21CHL1   H2B 2709   3.643   4.630   6.790 -0.4919 -0.3672 -2.9095
   21CHL1   C20 2710   3.404   4.164   5.981  0.2065 -0.1361  0.3081
   21CHL1   H20 2711   3.505   4.118   5.990  0.9368  1.0576 -1.3002
   21CHL1   C21 2712   3.417   4.307   5.930  0.0566  0.5238  0.7513
   21CHL1  H21A 2713   3.325   4.369   5.924  0.8751  1.6408 -2.1722
   21CHL1  H21B 2714   3.468   4.306   5.831  0.5850 -0.7109  1.0247
   21CHL1  H21C 2715   3.487   4.369   5.991 -1.2031  2.9505 -0.1363
   21CHL1   C22 2716   3.320   4.082   5.885  0.0567  0.2909 -0.4153
   21CHL1  H22A 2717   3.293   3.987   5.936 -0.5162  0.6239 -0.0905
   21CHL1  H22B 2718   3.224   4.137   5.875 -1.1974 -1.7464 -0.1917
   21CHL1   C23 2719   3.386   4.055   5.747  0.8295  0.7735 -0.1132
   21CHL1  H23A 2720   3.393   4.151   5.693  1.2022  0.5147 -0.5221
   21CHL1  H23B 2721   3.487   4.017   5.772  0.6203 -0.0690 -0.5144
   21CHL1   C24 2722   3.320   3.946   5.664  0.1640  0.0014  0.1657
   21CHL1  H24A 2723   3.336   3.848   5.714 -1.2628 -0.4528 -0.2142
   21CHL1  H24B 2724   3.211   3.960   5.650  0.3939  1.1441 -0.6493
   21CHL1   C25 2725   3.380   3.943   5.521  0.2850 -0.3118  0.2058
   21CHL1   H25 2726   3.490   3.953   5.536  0.1005  1.1005  0.7911
   21CHL1   C26 2727   3.342   3.805   5.446 -0.1768 -0.6713 -0.6205
   21CHL1  H26A 2728   3.236   3.782   5.468 -0.1155  0.2778  0.7923
   21CHL1  H26B 2729   3.362   3.829   5.339 -1.3466 -1.7781 -1.1181
   21CHL1  H26C 2730   3.412   3.722   5.467  1.5490  1.1843  1.5723
   21CHL1   C27 2731   3.336   4.062   5.426 -0.3632 -0.0834  0.4955
   21CHL1  H27A 2732   3.338   4.167   5.462 -2.8536  1.1155 -2.4272
   21CHL1  H27B 2733   3.401   4.063   5.336 -0.7348 -0.0965  0.2255
   21CHL1  H27C 2734   3.229   4.044   5.404 -0.2103  0.7876 -1.1229
   22CHL1    C3 2735   5.350   4.527   6.360  0.8394  0.1887  0.3614
   22CHL1    H3 2736   5.323   4.430   6.314 -0.3634  0.5043  0.3642
   22CHL1    O3 2737   5.333   4.511   6.499 -0.6722 -0.2327 -0.8688
   22CHL1   H3' 2738   5.248   4.469   6.514  1.0061 -3.4596  0.7103
   22CHL1    C4 2739   5.491   4.563   6.324 -0.1069  0.3982  0.5170
   22CHL1   H4A 2740   5.504   4.658   6.380  0.1455  0.0528  1.0590
   22CHL1   H4B 2741   5.549   4.480   6.370 -0.6775 -1.1976 -1.5005
   22CHL1    C5 2742   5.508   4.584   6.175  0.9218 -0.2715 -0.0124
   22CHL1    C6 2743   5.601   4.516   6.103 -0.8824 -0.2424 -0.0870
   22CHL1    H6 2744   5.666   4.450   6.163 -0.4420  0.0308 -0.2561
   22CHL1    C7 2745   5.631   4.524   5.959 -1.1098 -0.0269  0.6874
   22CHL1   H7A 2746   5.737   4.553   5.941 -1.2308 -0.3306 -0.6268
   22CHL1   H7B 2747   5.622   4.425   5.910  0.0046  1.1863 -2.2404
   22CHL1    C8 2748   5.545   4.630   5.886  0.1874  0.2234 -1.4904
   22CHL1    H8 2749   5.585   4.728   5.920 -0.9436 -0.6277  2.9643
   22CHL1   C14 2750   5.553   4.615   5.739  0.2740 -0.4034 -0.0806
   22CHL1   H14 2751   5.499   4.520   5.717 -1.4646  0.4141  0.4594
   22CHL1   C15 2752   5.689   4.612   5.667  0.7691 -0.1500  0.4658
   22CHL1  H15A 2753   5.755   4.684   5.721  0.0827  0.5751  0.3646
   22CHL1  H15B 2754   5.734   4.511   5.677 -0.0065 -0.4148  1.4897
   22CHL1   C16 2755   5.658   4.655   5.526  1.1469 -0.3847  0.2494
   22CHL1  H16A 2756   5.723   4.738   5.489  1.6076 -0.5875  0.5855
   22CHL1  H16B 2757   5.674   4.572   5.455 -0.5390 -1.3203  0.9034
   22CHL1   C17 2758   5.506   4.697   5.517 -0.0688 -0.1517 -0.1570
   22CHL1   H17 2759   5.450   4.606   5.487 -1.9070  0.4801  1.1694
   22CHL1   C13 2760   5.467   4.728   5.669 -0.0668 -0.1624  0.1241
   22CHL1   C18 2761   5.520   4.865   5.693  0.1898 -0.5790 -0.6950
   22CHL1  H18A 2762   5.455   4.945   5.651 -3.1908 -1.1787  2.8470
   22CHL1  H18B 2763   5.512   4.882   5.803  2.4464 -1.7246 -0.3077
   22CHL1  H18C 2764   5.628   4.876   5.669  0.4420 -0.7991  0.2672
   22CHL1   C12 2765   5.321   4.714   5.713 -0.3265 -0.4470 -0.4055
   22CHL1  H12A 2766   5.265   4.797   5.665  1.5901  0.2016 -1.6447
   22CHL1  H12B 2767   5.290   4.613   5.681 -2.1559  0.3501 -1.2361
   22CHL1   C11 2768   5.304   4.731   5.868 -0.3423  0.0995 -0.6835
   22CHL1  H11A 2769   5.315   4.834   5.906 -0.9527  0.0461 -0.3409
   22CHL1  H11B 2770   5.204   4.691   5.898  0.6451 -0.8318  1.6320
   22CHL1    C9 2771   5.405   4.646   5.947 -0.5680  0.3432 -0.4995
   22CHL1    H9 2772   5.375   4.540   5.941  1.4272 -0.3266  0.6197
   22CHL1   C10 2773   5.399   4.671   6.103 -0.5362 -0.0044  0.2744
   22CHL1   C19 2774   5.421   4.825   6.133  0.1100  0.6407  0.1046
   22CHL1  H19A 2775   5.414   4.856   6.240 -0.3951  3.8160 -0.7735
   22CHL1  H19B 2776   5.526   4.849   6.105  0.1767  2.0586  1.4423
   22CHL1  H19C 2777   5.354   4.900   6.086  0.4482  2.4170  2.2863
   22CHL1    C1 2778   5.262   4.628   6.150 -0.2915  0.5050  0.0222
   22CHL1   H1A 2779   5.186   4.691   6.100  0.2730  0.6238 -0.7106
   22CHL1   H1B 2780   5.248   4.524   6.116 -3.1235  0.5419  0.8006
   22CHL1    C2 2781   5.247   4.630   6.301 -0.4763  0.1808 -0.3390
   22CHL1   H2A 2782   5.147   4.594   6.331 -0.0616 -1.1059 -0.4378
   22CHL1   H2B 2783   5.269   4.728   6.351 -0.2302 -0.2143  0.3469
   22CHL1   C20 2784   5.479   4.807   5.415  0.0927 -0.0988  0.2161
   22CHL1   H20 2785   5.525   4.905   5.441 -0.2501 -0.0470  0.6432
   22CHL1   C21 2786   5.324   4.821   5.406  0.0365 -0.3818 -0.7902
   22CHL1  H21A 2787   5.315   4.844   5.297  2.0377 -3.3199 -1.6969
   22CHL1  H21B 2788   5.280   4.905   5.465 -0.4480  0.0369 -1.7180
   22CHL1  H21C 2789   5.276   4.728   5.440  0.9231 -0.3344  0.6467
   22CHL1   C22 2790   5.539   4.782   5.273 -0.3839 -0.2314  0.2047
   22CHL1  H22A 2791   5.497   4.863   5.209  0.4583  0.7547  0.8656
   22CHL1  H22B 2792   5.649   4.794   5.281 -0.4872  0.0113  1.6884
   22CHL1   C23 2793   5.511   4.650   5.208 -0.1072 -0.8519 -0.4336
   22CHL1  H23A 2794   5.571   4.563   5.245 -2.2022 -1.8259  0.8587
   22CHL1  H23B 2795   5.403   4.624   5.216 -0.3771 -0.2291 -1.8240
   22CHL1   C24 2796   5.535   4.663   5.053 -0.3533 -0.0757 -0.3759
   22CHL1  H24A 2797   5.474   4.749   5.018 -1.8318 -0.6939  0.5846
   22CHL1  H24B 2798   5.642   4.686   5.035  0.1539 -0.5965  1.6517
   22CHL1   C25 2799   5.494   4.535   4.981 -0.5784  1.0131 -0.5491
   22CHL1   H25 2800   5.384   4.526   4.991 -0.9084  2.0407 -2.6927
   22CHL1   C26 2801   5.513   4.561   4.831 -0.3760  0.5122 -0.6375
   22CHL1  H26A 2802   5.521   4.467   4.773 -6.8143 -0.9966  0.1581
   22CHL1  H26B 2803   5.422   4.610   4.789  1.2569  3.8184 -0.6175
   22CHL1  H26C 2804   5.600   4.627   4.811 -0.2021 -0.0951 -2.0453
   22CHL1   C27 2805   5.562   4.401   5.030 -0.7288 -1.2606 -0.5789
   22CHL1  H27A 2806   5.517   4.357   5.122  0.8691  0.1163  0.9435
   22CHL1  H27B 2807   5.553   4.334   4.941  0.8032  0.6031 -2.2133
   22CHL1  H27C 2808   5.671   4.411   5.050 -1.1461 -2.0557  2.6295
   23CHL1    C3 2809   2.962   4.650   6.517 -0.0454 -1.1259  0.1837
   23CHL1    H3 2810   3.059   4.698   6.491 -0.8228 -0.6681 -2.1146
   23CHL1    O3 2811   2.947   4.682   6.656  0.1730  0.3764 -0.2384
   23CHL1   H3' 2812   2.851   4.679   6.663 -0.2474 -1.0793 -4.0265
   23CHL1    C4 2813   2.864   4.724   6.424  0.0859  0.1047  0.0743
   23CHL1   H4A 2814   2.762   4.684   6.444  0.5216 -0.7772  0.6026
   23CHL1   H4B 2815   2.865   4.833   6.443 -5.3417  0.4379  0.1557
   23CHL1    C5 2816   2.907   4.686   6.277  0.0792  0.3701  0.0586
   23CHL1    C6 2817   2.933   4.784   6.192 -0.9441  0.3566  0.0325
   23CHL1    H6 2818   2.917   4.885   6.233 -1.4715  1.0692 -1.8197
   23CHL1    C7 2819   2.950   4.763   6.045  0.6507  0.1155 -0.4024
   23CHL1   H7A 2820   2.904   4.853   6.000 -1.2575 -0.3493  0.5489
   23CHL1   H7B 2821   3.057   4.784   6.021 -0.2777  2.5819 -2.8403
   23CHL1    C8 2822   2.918   4.624   5.997  0.5445  0.6035 -0.3605
   23CHL1    H8 2823   2.807   4.622   5.987  0.3763 -1.5020  1.2270
   23CHL1   C14 2824   2.990   4.592   5.866  0.2123  0.2024 -0.2552
   23CHL1   H14 2825   3.095   4.576   5.897  0.7285 -2.8080 -2.9860
   23CHL1   C15 2826   2.993   4.695   5.763 -0.2132 -0.5860  0.2177
   23CHL1  H15A 2827   2.893   4.741   5.749  0.2067  0.3320  0.1378
   23CHL1  H15B 2828   3.075   4.767   5.784 -0.0335 -0.3297 -1.2594
   23CHL1   C16 2829   3.038   4.619   5.634 -0.0418 -0.8194 -1.3583
   23CHL1  H16A 2830   2.970   4.626   5.547 -0.0916  0.7873 -1.2185
   23CHL1  H16B 2831   3.138   4.664   5.615 -0.6938  0.5688 -1.6537
   23CHL1   C17 2832   3.042   4.471   5.681  0.5688  0.0998  0.0889
   23CHL1   H17 2833   3.142   4.441   5.719  0.6917 -0.4403 -0.6369
   23CHL1   C13 2834   2.946   4.464   5.803 -0.2477  0.7823 -0.2273
   23CHL1   C18 2835   2.802   4.472   5.740 -0.1815 -0.2423 -0.0344
   23CHL1  H18A 2836   2.732   4.492   5.824 -0.7139  3.0623 -1.0991
   23CHL1  H18B 2837   2.791   4.550   5.662  0.8477 -1.5304 -1.5192
   23CHL1  H18C 2838   2.780   4.373   5.694 -1.2179 -1.4643  2.8434
   23CHL1   C12 2839   2.956   4.346   5.901  0.2995  0.0495  0.0110
   23CHL1  H12A 2840   2.905   4.254   5.866  0.2948 -0.1267  0.4721
   23CHL1  H12B 2841   3.063   4.317   5.908  0.2804  0.2071  1.3323
   23CHL1   C11 2842   2.915   4.373   6.043 -0.2051  0.1292 -0.1774
   23CHL1  H11A 2843   2.806   4.354   6.045  0.1652 -2.2346  0.1936
   23CHL1  H11B 2844   2.959   4.288   6.098 -0.4628 -0.0562 -0.2576
   23CHL1    C9 2845   2.958   4.513   6.099  0.7185 -0.1634  0.0287
   23CHL1    H9 2846   3.069   4.525   6.106  0.4938  1.8374  0.9791
   23CHL1   C10 2847   2.903   4.542   6.238  0.5272 -0.1669 -0.3883
   23CHL1   C19 2848   2.756   4.493   6.260 -0.2573 -0.0400 -0.3397
   23CHL1  H19A 2849   2.718   4.512   6.363  2.2438 -1.4536  0.9355
   23CHL1  H19B 2850   2.681   4.546   6.197 -0.3473 -0.1881 -0.3572
   23CHL1  H19C 2851   2.747   4.383   6.253 -2.8383  0.1100 -0.2215
   23CHL1    C1 2852   2.994   4.474   6.340 -0.2941  0.1507 -0.7201
   23CHL1   H1A 2853   2.990   4.363   6.342  2.6712 -0.0589  2.0536
   23CHL1   H1B 2854   3.098   4.507   6.317 -1.7392  3.0706 -3.9963
   23CHL1    C2 2855   2.970   4.504   6.488  0.1269 -0.4346 -0.6461
   23CHL1   H2A 2856   3.049   4.453   6.548  1.0242 -1.3369 -2.5118
   23CHL1   H2B 2857   2.872   4.459   6.518  1.1102 -1.0883  1.8990
   23CHL1   C20 2858   3.018   4.382   5.553  0.4445 -0.4343 -1.3644
   23CHL1   H20 2859   2.916   4.404   5.515 -0.2565  1.5037  1.3117
   23CHL1   C21 2860   3.016   4.232   5.585 -0.2243 -0.2322 -0.0679
   23CHL1  H21A 2861   2.991   4.169   5.497 -0.9388  1.9111 -1.4850
   23CHL1  H21B 2862   2.936   4.209   5.659 -0.2996 -4.3651 -1.1560
   23CHL1  H21C 2863   3.117   4.209   5.626 -0.5583  1.5908  1.9916
   23CHL1   C22 2864   3.121   4.414   5.445  0.2738  0.2753  0.6538
   23CHL1  H22A 2865   3.120   4.524   5.429  2.3216  0.3455  0.7759
   23CHL1  H22B 2866   3.219   4.398   5.495  0.9526  0.7101 -0.4778
   23CHL1   C23 2867   3.103   4.348   5.308  0.0487 -0.0213  0.6192
   23CHL1  H23A 2868   3.113   4.239   5.328 -0.9261 -0.5357 -1.4797
   23CHL1  H23B 2869   3.008   4.366   5.253 -0.2501 -3.0296 -0.0231
   23CHL1   C24 2870   3.226   4.373   5.209  0.7127 -0.6916 -0.1596
   23CHL1  H24A 2871   3.199   4.460   5.146  1.8161 -2.1030 -2.7334
   23CHL1  H24B 2872   3.314   4.381   5.276  0.0385 -1.8375  0.8977
   23CHL1   C25 2873   3.246   4.253   5.108  0.4051 -0.6271 -0.0018
   23CHL1   H25 2874   3.248   4.163   5.174  1.5274  0.2163  1.1814
   23CHL1   C26 2875   3.143   4.241   4.993  0.2408  0.0012 -0.0258
   23CHL1  H26A 2876   3.163   4.148   4.936 -1.8059 -0.9373  0.6732
   23CHL1  H26B 2877   3.041   4.225   5.035 -0.2677 -0.3903 -1.3829
   23CHL1  H26C 2878   3.145   4.333   4.930  1.8050 -0.7604 -1.1231
   23CHL1   C27 2879   3.388   4.262   5.044 -0.4123 -0.1493  0.1494
   23CHL1  H27A 2880   3.391   4.170   4.981 -2.4822  0.3191 -0.7094
   23CHL1  H27B 2881   3.394   4.353   4.981 -0.9512 -0.2442 -0.0389
   23CHL1  H27C 2882   3.478   4.259   5.110 -1.6746  0.2629  1.9449
   24CHL1    C3 2883   4.751   5.431   6.456  0.2216  0.2926 -0.7879
   24CHL1    H3 2884   4.793   5.532   6.472  0.8434 -0.1911  0.8607
   24CHL1    O3 2885   4.716   5.371   6.585 -0.4731  0.2864  0.0904
   24CHL1   H3' 2886   4.784   5.310   6.613  0.2489  0.4915 -1.1296
   24CHL1    C4 2887   4.623   5.454   6.376 -0.2172  0.3333 -0.5687
   24CHL1   H4A 2888   4.570   5.357   6.383  0.9970 -0.2880  4.9446
   24CHL1   H4B 2889   4.559   5.526   6.431  0.3885 -1.9425  3.5757
   24CHL1    C5 2890   4.637   5.487   6.231  0.2018 -0.0961  0.4627
   24CHL1    C6 2891   4.588   5.596   6.168 -0.4823  0.6623  0.4987
   24CHL1    H6 2892   4.515   5.656   6.224 -0.4399 -0.1008  1.3887
   24CHL1    C7 2893   4.612   5.635   6.023  0.1475 -0.0064 -0.3974
   24CHL1   H7A 2894   4.532   5.686   5.965  0.4119 -0.2189 -0.9542
   24CHL1   H7B 2895   4.692   5.712   6.020 -0.9206  1.1131 -2.9195
   24CHL1    C8 2896   4.664   5.518   5.941 -0.4256  0.2349  0.0144
   24CHL1    H8 2897   4.587   5.440   5.920  1.3770 -2.3826  2.4842
   24CHL1   C14 2898   4.712   5.564   5.798 -0.0657 -0.3266  0.3183
   24CHL1   H14 2899   4.781   5.648   5.819 -0.0239 -0.5328  1.0506
   24CHL1   C15 2900   4.615   5.627   5.696  0.9471  0.1849 -0.2347
   24CHL1  H15A 2901   4.511   5.593   5.678  0.7861  0.4160  0.2357
   24CHL1  H15B 2902   4.618   5.737   5.712  0.1091  0.0119  1.2904
   24CHL1   C16 2903   4.684   5.615   5.555  0.7464 -0.0459 -0.4661
   24CHL1  H16A 2904   4.611   5.566   5.488 -0.3792  2.6386 -1.3438
   24CHL1  H16B 2905   4.715   5.712   5.510 -0.5012  1.6778  2.1579
   24CHL1   C17 2906   4.810   5.520   5.574 -0.3923  0.0849 -0.6112
   24CHL1   H17 2907   4.893   5.593   5.589 -0.9180  0.6341 -0.3239
   24CHL1   C13 2908   4.782   5.459   5.719 -0.7533  0.4946  0.3670
   24CHL1   C18 2909   4.681   5.343   5.693  0.1137  0.1998 -0.3452
   24CHL1  H18A 2910   4.732   5.267   5.629  1.3353  1.3763 -0.8088
   24CHL1  H18B 2911   4.639   5.310   5.791 -0.9259  3.5850  0.4621
   24CHL1  H18C 2912   4.599   5.380   5.628  0.0297 -1.5652 -1.3273
   24CHL1   C12 2913   4.902   5.399   5.798 -0.1511 -0.1812  0.4380
   24CHL1  H12A 2914   4.959   5.319   5.745  1.6733  0.2426  1.6636
   24CHL1  H12B 2915   4.980   5.478   5.809  0.8429 -1.3239  2.0035
   24CHL1   C11 2916   4.854   5.341   5.933  0.0898 -0.9583 -0.0867
   24CHL1  H11A 2917   4.795   5.252   5.902  1.1057 -1.6110 -0.2159
   24CHL1  H11B 2918   4.946   5.303   5.982  0.4544 -2.4484 -1.7832
   24CHL1    C9 2919   4.781   5.450   6.016  0.2448 -0.4370 -0.1966
   24CHL1    H9 2920   4.856   5.530   6.031  0.0661 -0.2702 -0.1917
   24CHL1   C10 2921   4.745   5.398   6.155  0.6519 -0.6152 -0.1540
   24CHL1   C19 2922   4.677   5.258   6.138 -0.5046  0.1841  0.3932
   24CHL1  H19A 2923   4.623   5.223   6.228 -0.8836 -2.7310 -0.8562
   24CHL1  H19B 2924   4.616   5.273   6.046  1.2823  1.3898 -0.6803
   24CHL1  H19C 2925   4.761   5.185   6.130 -1.0805 -0.6820  1.8802
   24CHL1    C1 2926   4.879   5.386   6.235 -0.2014 -0.5288  0.2606
   24CHL1   H1A 2927   4.943   5.307   6.189  1.8527  1.3705 -0.3168
   24CHL1   H1B 2928   4.938   5.480   6.238 -1.2027  0.1674 -1.0361
   24CHL1    C2 2929   4.849   5.345   6.380  0.4367 -0.0603 -0.2478
   24CHL1   H2A 2930   4.947   5.339   6.433 -0.7585 -2.5897  1.9251
   24CHL1   H2B 2931   4.795   5.248   6.377 -0.0523  0.1728  0.6554
   24CHL1   C20 2932   4.848   5.437   5.449 -1.4914  0.1002  0.1588
   24CHL1   H20 2933   4.760   5.373   5.423 -0.1150 -1.2246 -1.4527
   24CHL1   C21 2934   4.965   5.348   5.469  0.1900 -1.0199  0.3640
   24CHL1  H21A 2935   4.998   5.297   5.377  4.8020 -0.0953  1.2728
   24CHL1  H21B 2936   4.940   5.268   5.543 -0.9500 -1.0430 -0.0225
   24CHL1  H21C 2937   5.057   5.405   5.493  0.1214  1.0321 -3.5326
   24CHL1   C22 2938   4.876   5.532   5.328 -0.4460  0.9779  0.2976
   24CHL1  H22A 2939   4.790   5.598   5.306 -0.9545  0.0507 -0.6011
   24CHL1  H22B 2940   4.964   5.596   5.348  0.3694 -0.0396  0.0547
   24CHL1   C23 2941   4.924   5.459   5.200  0.4100  0.0942  0.3249
   24CHL1  H23A 2942   5.014   5.395   5.216  0.2802 -0.1384  0.1315
   24CHL1  H23B 2943   4.850   5.390   5.153  1.4206 -1.8419  1.4508
   24CHL1   C24 2944   4.956   5.566   5.088  0.2271  0.1238  0.3556
   24CHL1  H24A 2945   4.861   5.615   5.057  1.4275  2.0172 -0.4774
   24CHL1  H24B 2946   5.023   5.648   5.121  0.9946  0.4068 -1.7834
   24CHL1   C25 2947   5.033   5.512   4.963  0.3627 -0.8386 -0.0575
   24CHL1   H25 2948   5.100   5.437   5.010  0.7275  0.8386  2.2889
   24CHL1   C26 2949   4.928   5.460   4.860  0.2734 -0.1432  0.0205
   24CHL1  H26A 2950   4.872   5.377   4.909  0.8272 -0.7012 -0.2706
   24CHL1  H26B 2951   4.857   5.538   4.825  1.8849  1.2891 -0.1779
   24CHL1  H26C 2952   4.964   5.419   4.764 -0.6261 -1.3080  0.1564
   24CHL1   C27 2953   5.124   5.619   4.898 -0.2486 -0.1845 -0.6532
   24CHL1  H27A 2954   5.073   5.714   4.873 -1.4190 -0.8665 -0.9201
   24CHL1  H27B 2955   5.200   5.640   4.977 -0.8649  0.7550 -0.2932
   24CHL1  H27C 2956   5.166   5.591   4.799  1.4537  1.7905 -0.5669
   25CHL1    C3 2957   6.057   0.348   6.300 -0.4211  0.0012 -0.0392
   25CHL1    H3 2958   6.018   0.244   6.306 -0.8066  0.1998  1.5779
   25CHL1    O3 2959   6.061   0.396   6.434 -0.6896  0.6998  0.0870
   25CHL1   H3' 2960   5.969   0.420   6.452 -0.0746  1.9870  1.7837
   25CHL1    C4 2961   6.212   0.353   6.264  0.0286 -0.0311  0.0157
   25CHL1   H4A 2962   6.257   0.453   6.275 -0.9411  0.3196  1.0249
   25CHL1   H4B 2963   6.267   0.287   6.334  2.7639  1.4188 -0.6507
   25CHL1    C5 2964   6.237   0.292   6.133  0.2369  0.2802  0.2204
   25CHL1    C6 2965   6.316   0.185   6.122  0.1716 -0.2423  0.1678
   25CHL1    H6 2966   6.378   0.153   6.208  1.6110  0.0096 -0.7371
   25CHL1    C7 2967   6.356   0.122   5.988  0.4081  0.4772 -0.0104
   25CHL1   H7A 2968   6.462   0.089   5.987  0.1670 -0.6158 -3.9278
   25CHL1   H7B 2969   6.298   0.028   5.975 -0.8514  1.4290 -1.7303
   25CHL1    C8 2970   6.315   0.209   5.867  0.0655  0.1734 -0.1589
   25CHL1    H8 2971   6.391   0.289   5.856  1.2053 -1.0771 -1.9740
   25CHL1   C14 2972   6.308   0.131   5.741 -0.1659  0.1739  0.5511
   25CHL1   H14 2973   6.220   0.063   5.747  1.1928 -1.9979 -1.9632
   25CHL1   C15 2974   6.429   0.039   5.697 -0.2117 -0.2123  0.4416
   25CHL1  H15A 2975   6.521   0.101   5.711  0.4395 -1.1203  0.2764
   25CHL1  H15B 2976   6.442  -0.052   5.759 -0.8764  0.2707  1.3125
   25CHL1   C16 2977   6.414   0.009   5.554 -0.3664 -0.0511 -0.1261
   25CHL1  H16A 2978   6.504   0.014   5.490 -0.5891  3.5185 -0.3387
   25CHL1  H16B 2979   6.380  -0.096   5.540 -0.5188 -0.3552  2.1810
   25CHL1   C17 2980   6.314   0.114   5.502  0.4502  0.3140  0.0715
   25CHL1   H17 2981   6.218   0.059   5.493 -1.3142  2.8955  1.6632
   25CHL1   C13 2982   6.284   0.214   5.614  0.3603 -0.1048  0.6067
   25CHL1   C18 2983   6.385   0.334   5.603 -0.7872  0.7740  0.4206
   25CHL1  H18A 2984   6.486   0.300   5.572 -0.8273 -0.2224  1.3478
   25CHL1  H18B 2985   6.348   0.408   5.527 -1.0235 -0.1215 -0.3611
   25CHL1  H18C 2986   6.398   0.393   5.696 -1.0946  1.8282 -0.1831
   25CHL1   C12 2987   6.137   0.260   5.626 -0.0459  0.0046  0.4608
   25CHL1  H12A 2988   6.107   0.326   5.542 -1.2967 -0.2770  0.6647
   25CHL1  H12B 2989   6.068   0.173   5.628  0.7366 -0.6517 -0.5490
   25CHL1   C11 2990   6.128   0.346   5.755 -0.1952  0.1960 -0.3838
   25CHL1  H11A 2991   6.185   0.439   5.738 -1.8106  1.6357  1.6014
   25CHL1  H11B 2992   6.020   0.368   5.767 -0.2378  0.1689 -0.6847
   25CHL1    C9 2993   6.174   0.277   5.884  0.6219 -0.1019 -0.9479
   25CHL1    H9 2994   6.100   0.195   5.902 -0.5166  0.5568 -2.4485
   25CHL1   C10 2995   6.168   0.366   6.016  0.2527  0.0703  0.0104
   25CHL1   C19 2996   6.227   0.504   5.993 -0.1334  0.0729 -0.2439
   25CHL1  H19A 2997   6.326   0.493   5.944 -0.2320  2.6253 -1.1881
   25CHL1  H19B 2998   6.166   0.552   5.914 -1.1970 -0.4847  0.2223
   25CHL1  H19C 2999   6.233   0.566   6.084  0.6511  1.3996 -1.1614
   25CHL1    C1 3000   6.016   0.390   6.055 -0.4068 -0.1993  0.0799
   25CHL1   H1A 3001   5.967   0.454   5.978  0.6407 -0.7226 -1.0370
   25CHL1   H1B 3002   5.961   0.293   6.049  0.0254 -0.3707 -1.4426
   25CHL1    C2 3003   5.986   0.436   6.202  0.4722 -0.7782  0.1311
   25CHL1   H2A 3004   5.877   0.429   6.222  0.0613 -0.7721 -1.8302
   25CHL1   H2B 3005   6.024   0.540   6.208  1.0716 -1.0470  1.1473
   25CHL1   C20 3006   6.342   0.160   5.360  0.3953  0.2902 -0.6685
   25CHL1   H20 3007   6.432   0.224   5.359 -0.5108  1.6083 -1.0745
   25CHL1   C21 3008   6.240   0.258   5.300  0.6247  0.2634 -0.3142
   25CHL1  H21A 3009   6.224   0.353   5.355 -1.5059 -0.0678 -0.2857
   25CHL1  H21B 3010   6.144   0.208   5.280  0.6234 -0.9465  2.3776
   25CHL1  H21C 3011   6.279   0.289   5.200 -0.0356  1.6335 -0.1694
   25CHL1   C22 3012   6.336   0.040   5.263 -0.1595 -0.0966 -0.3637
   25CHL1  H22A 3013   6.419  -0.027   5.294 -0.4007  0.0657  0.7055
   25CHL1  H22B 3014   6.249  -0.027   5.279 -0.1566 -0.4583 -1.7655
   25CHL1   C23 3015   6.346   0.060   5.115  0.3031 -0.1845  0.4738
   25CHL1  H23A 3016   6.250   0.109   5.086 -0.1775 -0.6286  1.3026
   25CHL1  H23B 3017   6.433   0.125   5.092  0.3433 -1.2400 -2.8749
   25CHL1   C24 3018   6.354  -0.073   5.039  0.2905 -0.2204 -0.6657
   25CHL1  H24A 3019   6.379  -0.158   5.106 -2.7345 -0.2739  0.5567
   25CHL1  H24B 3020   6.255  -0.103   4.996 -0.0121 -0.5074  0.2106
   25CHL1   C25 3021   6.445  -0.077   4.916  0.2918 -0.6863  0.6490
   25CHL1   H25 3022   6.432   0.017   4.858 -0.6971 -1.2266 -0.0318
   25CHL1   C26 3023   6.585  -0.077   4.967 -0.1840 -0.3150 -0.1831
   25CHL1  H26A 3024   6.650  -0.096   4.879  0.3728  2.3365 -0.4037
   25CHL1  H26B 3025   6.606   0.019   5.018  0.8743  0.7668 -2.5402
   25CHL1  H26C 3026   6.601  -0.159   5.041 -1.9149  0.2958  0.9239
   25CHL1   C27 3027   6.416  -0.202   4.831  0.3150  0.2299  0.2280
   25CHL1  H27A 3028   6.465  -0.209   4.732 -1.0660 -0.3884 -0.4486
   25CHL1  H27B 3029   6.449  -0.298   4.877  5.1119  1.8818  0.7080
   25CHL1  H27C 3030   6.307  -0.202   4.808 -0.0553 -1.3537  1.7142
   26CHL1    C3 3031   5.756   4.061   6.327  0.6622  0.2008 -0.4259
   26CHL1    H3 3032   5.645   4.057   6.317  0.2581  0.7965  2.7150
   26CHL1    O3 3033   5.786   4.065   6.466  0.2544  0.4273 -0.2428
   26CHL1   H3' 3034   5.867   4.014   6.470 -0.0183 -0.0322 -0.4963
   26CHL1    C4 3035   5.822   3.935   6.266  0.1456 -0.1704  0.1733
   26CHL1   H4A 3036   5.930   3.939   6.292  0.0503  2.5089  0.3521
   26CHL1   H4B 3037   5.777   3.844   6.313  0.8301  0.0398  1.2635
   26CHL1    C5 3038   5.823   3.943   6.112  0.6881  0.2331  0.0255
   26CHL1    C6 3039   5.786   3.840   6.042  0.6912  0.3963 -0.0954
   26CHL1    H6 3040   5.756   3.754   6.105 -0.7173  1.6300  1.0044
   26CHL1    C7 3041   5.777   3.826   5.889  0.3488  0.8935 -0.0895
   26CHL1   H7A 3042   5.816   3.729   5.849 -1.4281  0.3373 -0.5848
   26CHL1   H7B 3043   5.669   3.836   5.861 -0.1584  0.7893  1.7185
   26CHL1    C8 3044   5.848   3.943   5.811 -0.0864 -0.1843 -0.7170
   26CHL1    H8 3045   5.955   3.912   5.812 -0.3711 -1.1943  0.5794
   26CHL1   C14 3046   5.804   3.964   5.671  0.0745  0.1857 -0.1740
   26CHL1   H14 3047   5.698   3.996   5.677  0.5145  1.4232  1.5003
   26CHL1   C15 3048   5.799   3.829   5.589  1.0428  0.8314 -0.5231
   26CHL1  H15A 3049   5.888   3.765   5.602 -2.5540 -4.6704  0.4064
   26CHL1  H15B 3050   5.704   3.772   5.598 -0.9926  3.9674 -0.6907
   26CHL1   C16 3051   5.813   3.875   5.447 -0.1642  0.7892  0.2352
   26CHL1  H16A 3052   5.918   3.856   5.418 -0.1755 -1.0969  1.2276
   26CHL1  H16B 3053   5.744   3.831   5.373 -0.6143  2.6197 -0.4927
   26CHL1   C17 3054   5.818   4.032   5.450 -0.4770 -0.0725  0.2411
   26CHL1   H17 3055   5.710   4.058   5.443 -0.0808  1.1954 -2.3528
   26CHL1   C13 3056   5.878   4.070   5.593 -0.6752  0.0138 -0.6265
   26CHL1   C18 3057   6.041   4.037   5.598  0.6084 -0.2631 -0.4600
   26CHL1  H18A 3058   6.079   4.037   5.702 -0.5060  0.7239 -0.0334
   26CHL1  H18B 3059   6.055   3.934   5.559  0.2193 -0.3669 -0.3314
   26CHL1  H18C 3060   6.097   4.115   5.542  1.6789 -0.1090  0.7965
   26CHL1   C12 3061   5.849   4.204   5.664 -0.6202 -0.3790 -0.2870
   26CHL1  H12A 3062   5.899   4.290   5.614 -1.8854 -0.7027 -2.2536
   26CHL1  H12B 3063   5.742   4.232   5.670 -0.2228  1.4388 -0.9665
   26CHL1   C11 3064   5.894   4.199   5.810 -0.3622 -0.1732  0.2358
   26CHL1  H11A 3065   6.005   4.193   5.809 -0.1212  2.5406 -2.0460
   26CHL1  H11B 3066   5.880   4.290   5.872 -0.6308 -0.1399  0.1262
   26CHL1    C9 3067   5.830   4.081   5.884 -0.9363  0.1901  0.1906
   26CHL1    H9 3068   5.719   4.089   5.876 -0.8986  0.3598 -0.2272
   26CHL1   C10 3069   5.857   4.080   6.040 -0.1233  0.4874 -0.2176
   26CHL1   C19 3070   6.009   4.091   6.052 -0.3227 -0.1096  0.4098
   26CHL1  H19A 3071   6.073   4.018   5.997  2.3199  2.4223 -0.1390
   26CHL1  H19B 3072   6.040   4.195   6.026 -1.1573  0.0851  0.1543
   26CHL1  H19C 3073   6.031   4.078   6.160 -0.7150  2.5069  0.8841
   26CHL1    C1 3074   5.783   4.194   6.108 -0.0614 -0.0090 -0.5815
   26CHL1   H1A 3075   5.805   4.298   6.074  1.6615  0.2542  1.1431
   26CHL1   H1B 3076   5.675   4.183   6.085 -0.0990 -1.5593  0.2252
   26CHL1    C2 3077   5.796   4.189   6.267  0.1280 -0.0626  0.4152
   26CHL1   H2A 3078   5.728   4.272   6.297  0.3239  0.9942 -1.8614
   26CHL1   H2B 3079   5.903   4.208   6.293  0.8865 -1.7994 -1.2002
   26CHL1   C20 3080   5.899   4.073   5.333 -0.2704 -0.2653  1.3884
   26CHL1   H20 3081   6.007   4.047   5.347 -1.1659 -4.6238  1.6729
   26CHL1   C21 3082   5.889   4.231   5.323  0.3897  0.1909  0.0538
   26CHL1  H21A 3083   5.942   4.289   5.401  1.3266 -2.4462  1.5185
   26CHL1  H21B 3084   5.781   4.252   5.312  0.7917  2.8401  0.5524
   26CHL1  H21C 3085   5.937   4.271   5.231  1.3318  0.1878  0.5285
   26CHL1   C22 3086   5.858   4.010   5.199 -0.3494 -0.1412  0.3660
   26CHL1  H22A 3087   5.919   4.060   5.121  0.3566 -1.0791  0.2985
   26CHL1  H22B 3088   5.887   3.903   5.190  0.5209  0.0089  1.2645
   26CHL1   C23 3089   5.704   4.016   5.165 -0.0857 -0.4880  0.2642
   26CHL1  H23A 3090   5.633   4.007   5.250  1.7844  0.9108  2.0396
   26CHL1  H23B 3091   5.691   4.120   5.130  2.9363 -0.6929 -1.9045
   26CHL1   C24 3092   5.669   3.926   5.046  0.5503 -0.6575 -0.6334
   26CHL1  H24A 3093   5.724   3.965   4.958  0.0642 -2.6264 -1.8844
   26CHL1  H24B 3094   5.682   3.817   5.064 -0.1108 -1.0596 -2.4074
   26CHL1   C25 3095   5.515   3.933   5.011  0.1326  0.5710 -0.3777
   26CHL1   H25 3096   5.456   3.899   5.099 -1.1022  1.8060 -0.6780
   26CHL1   C26 3097   5.456   4.074   4.978 -0.8037 -0.1897 -0.1337
   26CHL1  H26A 3098   5.526   4.111   4.900  0.6920 -3.5446 -0.5545
   26CHL1  H26B 3099   5.352   4.071   4.941 -1.2992  0.8862  1.0943
   26CHL1  H26C 3100   5.462   4.149   5.061 -0.7613 -1.4484  1.0355
   26CHL1   C27 3101   5.482   3.831   4.905  0.4948 -0.2044  0.1173
   26CHL1  H27A 3102   5.526   3.733   4.932  0.5381  0.1532  1.3792
   26CHL1  H27B 3103   5.373   3.837   4.886  0.3447 -0.8471  0.7517
   26CHL1  H27C 3104   5.531   3.870   4.813  0.3097  2.4760  1.0757
   27CHL1    C3 3105   4.131   2.969   6.820 -0.5699 -0.1793  0.0851
   27CHL1    H3 3106   4.134   2.860   6.801  2.0159 -0.2979  0.8539
   27CHL1    O3 3107   4.124   2.990   6.959  0.1045 -0.2580  0.1580
   27CHL1   H3' 3108   4.056   2.933   6.996  1.7297 -0.1918  3.7029
   27CHL1    C4 3109   4.260   3.031   6.756  0.4186  1.0899 -0.4205
   27CHL1   H4A 3110   4.275   3.138   6.782 -1.0449  1.2530 -0.1314
   27CHL1   H4B 3111   4.347   2.980   6.802  1.1348  2.2104 -0.5063
   27CHL1    C5 3112   4.259   3.006   6.607  1.1398 -0.7540 -0.2565
   27CHL1    C6 3113   4.364   2.958   6.544  0.3463 -0.3404 -0.6951
   27CHL1    H6 3114   4.456   2.929   6.597 -0.5362  0.6908  1.5448
   27CHL1    C7 3115   4.374   2.956   6.395 -0.4509 -0.8622  0.0422
   27CHL1   H7A 3116   4.482   2.976   6.377 -0.3083  2.0574  3.1366
   27CHL1   H7B 3117   4.367   2.852   6.358  0.9416 -1.0757  0.2943
   27CHL1    C8 3118   4.274   3.051   6.315  0.0890 -0.3109 -0.0800
   27CHL1    H8 3119   4.305   3.156   6.330 -2.8187  0.9028 -1.8025
   27CHL1   C14 3120   4.265   3.018   6.169 -0.6675 -0.5834 -0.4316
   27CHL1   H14 3121   4.223   2.916   6.160 -1.5395 -0.3154  0.3902
   27CHL1   C15 3122   4.391   3.016   6.091 -0.1224 -0.2737  0.2145
   27CHL1  H15A 3123   4.445   3.108   6.122 -1.3863  0.2710  0.8256
   27CHL1  H15B 3124   4.465   2.935   6.109 -0.7858 -0.8396  0.4044
   27CHL1   C16 3125   4.343   3.019   5.943  0.3883 -0.1473  0.4979
   27CHL1  H16A 3126   4.391   3.091   5.873 -0.3237 -1.0480 -0.9687
   27CHL1  H16B 3127   4.365   2.924   5.890 -3.1101 -1.6210  1.4239
   27CHL1   C17 3128   4.194   3.038   5.946 -0.4458  0.1532 -0.0106
   27CHL1   H17 3129   4.159   2.933   5.937 -0.0707  0.0224  0.0112
   27CHL1   C13 3130   4.169   3.099   6.083  0.2797 -0.0280 -0.1977
   27CHL1   C18 3131   4.202   3.247   6.092 -0.1017 -0.0529  0.2578
   27CHL1  H18A 3132   4.118   3.313   6.061 -1.1047 -1.5649 -0.3487
   27CHL1  H18B 3133   4.230   3.276   6.196 -0.2125 -0.0670  0.2908
   27CHL1  H18C 3134   4.294   3.275   6.035 -1.1338  0.5896 -1.1375
   27CHL1   C12 3135   4.030   3.075   6.150 -0.0460  0.0671 -0.1826
   27CHL1  H12A 3136   3.964   3.143   6.094  1.1119  0.3274 -1.2685
   27CHL1  H12B 3137   3.982   2.976   6.134  0.4590 -0.5794  1.8907
   27CHL1   C11 3138   4.029   3.102   6.304  0.2378  0.3893  0.6805
   27CHL1  H11A 3139   4.047   3.212   6.313  1.8292  0.3004 -0.8817
   27CHL1  H11B 3140   3.927   3.077   6.341  0.0348 -1.5199 -1.0116
   27CHL1    C9 3141   4.140   3.033   6.384  0.7023  0.3845 -0.7854
   27CHL1    H9 3142   4.115   2.925   6.374  3.0502 -0.1069 -2.3025
   27CHL1   C10 3143   4.135   3.066   6.538 -0.2998  0.2613 -0.0765
   27CHL1   C19 3144   4.136   3.217   6.558  0.2310 -0.6106 -0.8206
   27CHL1  H19A 3145   4.047   3.261   6.507  1.3735 -0.1021 -2.4545
   27CHL1  H19B 3146   4.139   3.249   6.664  1.1131  1.3518 -1.3915
   27CHL1  H19C 3147   4.219   3.278   6.515 -0.1139 -0.2509 -0.9869
   27CHL1    C1 3148   4.007   3.004   6.605 -0.1609  0.1252 -0.0915
   27CHL1   H1A 3149   3.919   3.044   6.551  0.3165  1.3835  0.0334
   27CHL1   H1B 3150   4.009   2.894   6.586 -0.7824  0.3052 -1.2570
   27CHL1    C2 3151   4.004   3.023   6.754  0.0346  0.1040  0.2031
   27CHL1   H2A 3152   3.918   2.968   6.798 -1.6917  0.9536 -1.9476
   27CHL1   H2B 3153   3.991   3.130   6.779  1.1828  0.4294 -0.4917
   27CHL1   C20 3154   4.124   3.115   5.826  0.3542  0.0108 -0.2921
   27CHL1   H20 3155   4.023   3.145   5.860 -1.4153 -4.9288 -0.4561
   27CHL1   C21 3156   4.102   3.015   5.715  0.0691  0.1867 -0.0361
   27CHL1  H21A 3157   4.040   3.050   5.630  0.3368  1.9598  0.4580
   27CHL1  H21B 3158   4.056   2.930   5.769  1.2087  0.2363  1.0738
   27CHL1  H21C 3159   4.199   2.973   5.681 -0.2525 -0.0926 -0.6214
   27CHL1   C22 3160   4.190   3.238   5.771  0.0149  0.4814  0.0558
   27CHL1  H22A 3161   4.212   3.315   5.847 -3.3908  0.6911  0.9792
   27CHL1  H22B 3162   4.283   3.200   5.722 -0.6533 -0.2510 -0.6851
   27CHL1   C23 3163   4.121   3.297   5.650 -0.4819  0.2321 -0.2973
   27CHL1  H23A 3164   4.128   3.235   5.557  2.3378  0.2401 -0.1718
   27CHL1  H23B 3165   4.011   3.295   5.668 -0.5188 -0.4937 -0.5305
   27CHL1   C24 3166   4.154   3.444   5.608 -0.0928  1.2094 -0.4891
   27CHL1  H24A 3167   4.121   3.516   5.686 -2.4386 -0.6338  0.3617
   27CHL1  H24B 3168   4.264   3.455   5.604 -0.0314  1.3172  1.1089
   27CHL1   C25 3169   4.095   3.483   5.474  0.1547 -0.6823 -0.1533
   27CHL1   H25 3170   3.990   3.450   5.480  0.7708 -3.0398 -1.1350
   27CHL1   C26 3171   4.102   3.630   5.454 -0.4891 -0.8887 -0.3458
   27CHL1  H26A 3172   4.065   3.680   5.547 -0.6296 -0.1397 -0.7972
   27CHL1  H26B 3173   4.207   3.667   5.450  0.2015 -2.6001  0.7406
   27CHL1  H26C 3174   4.042   3.668   5.369  0.2122  0.1663 -0.3822
   27CHL1   C27 3175   4.169   3.414   5.365  0.2775 -1.0916  0.1691
   27CHL1  H27A 3176   4.270   3.458   5.358 -0.6973  1.5771  1.2956
   27CHL1  H27B 3177   4.110   3.428   5.271 -1.4036  0.5290  1.3966
   27CHL1  H27C 3178   4.176   3.306   5.392 -2.6354 -1.1371  1.0864
   28CHL1    C3 3179   6.583   4.862   6.630  0.2502 -0.2658 -0.1166
   28CHL1    H3 3180   6.478   4.867   6.594 -0.7808  0.1275  2.6930
   28CHL1    O3 3181   6.567   4.905   6.767 -0.2608  0.4564 -0.0404
   28CHL1   H3' 3182   6.656   4.901   6.803 -0.5524  1.6045  0.8741
   28CHL1    C4 3183   6.628   4.716   6.625 -1.1295  0.0284  0.5699
   28CHL1   H4A 3184   6.729   4.704   6.670 -0.2934 -3.2360 -1.7996
   28CHL1   H4B 3185   6.559   4.648   6.679  0.0235 -1.4475  0.2225
   28CHL1    C5 3186   6.650   4.688   6.475 -0.1270  0.4089  0.4312
   28CHL1    C6 3187   6.588   4.589   6.409  1.0939 -0.4015  0.2646
   28CHL1    H6 3188   6.511   4.539   6.470 -0.8226  0.3307 -1.4314
   28CHL1    C7 3189   6.593   4.550   6.266 -0.9386 -0.1183  0.2456
   28CHL1   H7A 3190   6.616   4.444   6.242 -1.7721  0.0716 -1.5466
   28CHL1   H7B 3191   6.505   4.578   6.205  0.1530 -0.8515 -1.7434
   28CHL1    C8 3192   6.721   4.615   6.207  0.3181 -0.7238 -0.0700
   28CHL1    H8 3193   6.806   4.553   6.243 -0.1608 -1.6754 -0.5518
   28CHL1   C14 3194   6.722   4.602   6.054 -0.3033 -0.1430 -0.3358
   28CHL1   H14 3195   6.637   4.668   6.024  0.6412  0.6004 -1.4510
   28CHL1   C15 3196   6.713   4.465   5.990 -0.0069 -0.3676 -0.5415
   28CHL1  H15A 3197   6.787   4.400   6.042 -2.6195 -1.1218  2.5702
   28CHL1  H15B 3198   6.610   4.422   5.995 -0.8674  1.5081 -1.2139
   28CHL1   C16 3199   6.752   4.490   5.844  0.1393  0.5066  0.0083
   28CHL1  H16A 3200   6.825   4.413   5.813  1.4061  1.1313  1.3527
   28CHL1  H16B 3201   6.659   4.488   5.782 -0.5024  1.0568  0.9256
   28CHL1   C17 3202   6.821   4.627   5.831  0.1235  0.1684 -1.0626
   28CHL1   H17 3203   6.749   4.702   5.793  0.5782  1.1621 -0.0142
   28CHL1   C13 3204   6.848   4.667   5.983  0.2597 -0.2498 -0.2943
   28CHL1   C18 3205   6.980   4.600   6.027  0.6677  0.0439  0.0050
   28CHL1  H18A 3206   6.990   4.583   6.136  2.4561  1.3289  0.0676
   28CHL1  H18B 3207   6.993   4.499   5.982 -0.1382 -0.7990  1.5616
   28CHL1  H18C 3208   7.056   4.671   5.989 -1.6015  0.7972 -3.5868
   28CHL1   C12 3209   6.837   4.822   6.013  0.8046 -0.7275 -0.1402
   28CHL1  H12A 3210   6.917   4.871   5.954  0.1701  1.1790  0.4978
   28CHL1  H12B 3211   6.736   4.850   5.975  0.7413 -0.1808  0.4045
   28CHL1   C11 3212   6.848   4.844   6.165  0.4872 -0.0237  0.3635
   28CHL1  H11A 3213   6.947   4.812   6.205  0.7111  0.5439  0.2653
   28CHL1  H11B 3214   6.830   4.950   6.189 -0.1230 -0.1193  0.3272
   28CHL1    C9 3215   6.741   4.766   6.244  0.4423 -0.1941 -0.7615
   28CHL1    H9 3216   6.640   4.798   6.212  0.9320  0.4964 -1.6515
   28CHL1   C10 3217   6.748   4.789   6.400  0.3104  0.3597  1.1103
   28CHL1   C19 3218   6.896   4.779   6.442  0.8194  0.1385  0.4474
   28CHL1  H19A 3219   6.897   4.766   6.552  1.6615 -0.0496  0.4255
   28CHL1  H19B 3220   6.939   4.689   6.394  4.4420  2.1677 -0.5598
   28CHL1  H19C 3221   6.961   4.865   6.415 -1.2843  0.8975 -2.8335
   28CHL1    C1 3222   6.696   4.937   6.423 -0.1558 -0.5532  0.3591
   28CHL1   H1A 3223   6.769   5.009   6.382 -0.4248  0.0540  0.9124
   28CHL1   H1B 3224   6.596   4.940   6.373 -0.5630  0.4870  1.2066
   28CHL1    C2 3225   6.669   4.967   6.565  0.5899  0.3924 -0.4655
   28CHL1   H2A 3226   6.629   5.070   6.578  1.3172  0.4350  1.9673
   28CHL1   H2B 3227   6.767   4.957   6.617  0.9082 -3.6146 -1.4977
   28CHL1   C20 3228   6.942   4.634   5.735 -0.1015 -0.1879  0.4924
   28CHL1   H20 3229   7.027   4.576   5.774 -1.0184 -1.0677  1.2234
   28CHL1   C21 3230   6.982   4.780   5.716  0.5056  0.1192  0.4888
   28CHL1  H21A 3231   7.045   4.812   5.802 -0.1576  1.2925  0.5616
   28CHL1  H21B 3232   6.894   4.846   5.729  0.5127 -0.0177  1.3074
   28CHL1  H21C 3233   7.056   4.805   5.637  0.1061 -0.7817 -0.1889
   28CHL1   C22 3234   6.903   4.582   5.597  0.9282  0.7146  0.1576
   28CHL1  H22A 3235   6.852   4.484   5.605  0.5300  0.8799 -0.3632
   28CHL1  H22B 3236   6.821   4.653   5.574 -2.5172 -2.3373  2.0268
   28CHL1   C23 3237   7.007   4.578   5.492 -0.6338  0.2364  1.0072
   28CHL1  H23A 3238   7.058   4.674   5.470 -0.9781  0.1942 -0.0604
   28CHL1  H23B 3239   7.083   4.507   5.531 -0.2105 -0.2093 -0.5269
   28CHL1   C24 3240   6.959   4.517   5.357  1.0119  0.0695 -0.3759
   28CHL1  H24A 3241   7.044   4.478   5.298  0.8882  0.8845 -1.1239
   28CHL1  H24B 3242   6.907   4.424   5.390  0.9232  0.2194 -0.0904
   28CHL1   C25 3243   6.860   4.603   5.275  0.2665  0.3480  0.3885
   28CHL1   H25 3244   6.764   4.621   5.327  0.2244  0.4846  0.2632
   28CHL1   C26 3245   6.935   4.730   5.242 -0.1133 -0.1470  0.4921
   28CHL1  H26A 3246   6.873   4.790   5.173 -1.1522 -0.0172  1.5049
   28CHL1  H26B 3247   6.943   4.785   5.339 -1.1395 -0.5692  0.8346
   28CHL1  H26C 3248   7.033   4.707   5.195 -1.0552 -3.5525 -0.0597
   28CHL1   C27 3249   6.820   4.520   5.152 -0.1152  0.0655  0.2846
   28CHL1  H27A 3250   6.911   4.488   5.097  0.0567  0.1239  0.5281
   28CHL1  H27B 3251   6.755   4.432   5.170 -0.5007  0.1850 -0.5112
   28CHL1  H27C 3252   6.772   4.594   5.085  1.1889  1.5281  0.8962
   29CHL1    C3 3253   3.338   4.831   6.480  0.5685  0.2094  0.4303
   29CHL1    H3 3254   3.327   4.725   6.447  0.0185  0.3403  0.1669
   29CHL1    O3 3255   3.307   4.841   6.619 -0.4275  0.6718 -0.2277
   29CHL1   H3' 3256   3.352   4.916   6.658 -2.1707  0.9224  1.4800
   29CHL1    C4 3257   3.478   4.877   6.446 -0.1340  0.0022 -0.2165
   29CHL1   H4A 3258   3.505   4.984   6.461 -0.3585  0.5403 -3.0062
   29CHL1   H4B 3259   3.553   4.820   6.505  1.8828  0.5548 -2.0829
   29CHL1    C5 3260   3.504   4.850   6.302  0.4484  0.3323  0.5864
   29CHL1    C6 3261   3.597   4.761   6.264 -0.3458 -0.5119 -0.2483
   29CHL1    H6 3262   3.660   4.718   6.343 -0.8259  2.0367  1.6757
   29CHL1    C7 3263   3.627   4.724   6.123 -0.1806 -0.6068  0.2166
   29CHL1   H7A 3264   3.737   4.734   6.114 -0.2239  0.5246  0.6774
   29CHL1   H7B 3265   3.586   4.624   6.100 -1.9670  0.3746 -1.1654
   29CHL1    C8 3266   3.557   4.824   6.018 -0.5036  0.1853 -0.0808
   29CHL1    H8 3267   3.614   4.920   6.016 -0.8962  0.4465  0.5930
   29CHL1   C14 3268   3.575   4.773   5.880 -0.0588 -0.4330 -0.3776
   29CHL1   H14 3269   3.536   4.669   5.888 -1.4009 -0.1235 -2.2104
   29CHL1   C15 3270   3.716   4.749   5.830 -0.7478 -0.1349  0.1503
   29CHL1  H15A 3271   3.789   4.832   5.841 -1.0051  0.0915  0.1867
   29CHL1  H15B 3272   3.768   4.663   5.877  0.6347  0.3100 -0.5252
   29CHL1   C16 3273   3.690   4.713   5.678  0.3224 -0.0139 -0.3892
   29CHL1  H16A 3274   3.749   4.775   5.608  2.4663 -1.0676  0.4009
   29CHL1  H16B 3275   3.708   4.605   5.665  0.8658 -0.0295  0.3891
   29CHL1   C17 3276   3.535   4.747   5.650  0.0663  0.6349  0.5561
   29CHL1   H17 3277   3.488   4.649   5.675 -0.3579  0.1077 -2.0198
   29CHL1   C13 3278   3.494   4.841   5.767  0.3027  0.7036  0.5812
   29CHL1   C18 3279   3.546   4.982   5.739 -1.0395 -0.2791  0.3758
   29CHL1  H18A 3280   3.474   5.033   5.671  1.6236  1.3473 -1.3980
   29CHL1  H18B 3281   3.562   5.026   5.840  2.4765 -2.7788  1.0817
   29CHL1  H18C 3282   3.645   4.979   5.690 -1.4317  0.6598 -0.5054
   29CHL1   C12 3283   3.353   4.827   5.810  0.1295 -0.0419  0.2372
   29CHL1  H12A 3284   3.294   4.884   5.734  0.7070 -1.2639 -1.1606
   29CHL1  H12B 3285   3.316   4.725   5.830  0.6336  0.0633  1.8950
   29CHL1   C11 3286   3.325   4.902   5.943 -0.1858 -0.7390  0.0940
   29CHL1  H11A 3287   3.345   5.010   5.934 -2.8619 -0.0054  1.8434
   29CHL1  H11B 3288   3.216   4.892   5.965  0.0562 -1.0773  1.1954
   29CHL1    C9 3289   3.408   4.840   6.063 -1.3889 -0.1842 -0.3207
   29CHL1    H9 3290   3.374   4.735   6.075  0.1957 -0.9210 -1.7823
   29CHL1   C10 3291   3.403   4.909   6.203 -0.3799  0.2223  0.2016
   29CHL1   C19 3292   3.438   5.064   6.185 -0.2265 -0.1166 -0.8200
   29CHL1  H19A 3293   3.431   5.111   6.285 -0.4588 -0.6714 -0.5704
   29CHL1  H19B 3294   3.539   5.069   6.141 -0.5948  1.0975 -1.5666
   29CHL1  H19C 3295   3.363   5.113   6.119  0.0732  2.2837  0.5401
   29CHL1    C1 3296   3.254   4.900   6.252  0.4063 -0.4406  0.6175
   29CHL1   H1A 3297   3.195   4.975   6.195 -0.8904 -0.5877  1.7209
   29CHL1   H1B 3298   3.212   4.803   6.216  0.5538  0.7006 -3.0331
   29CHL1    C2 3299   3.239   4.916   6.396  0.1622  0.2899 -0.5741
   29CHL1   H2A 3300   3.135   4.889   6.421  0.7486 -0.2781  1.4388
   29CHL1   H2B 3301   3.254   5.022   6.423 -1.3173  0.5409 -0.6716
   29CHL1   C20 3302   3.508   4.764   5.497  0.2657 -0.4802  0.3306
   29CHL1   H20 3303   3.583   4.839   5.466 -3.5143  3.7556  0.3035
   29CHL1   C21 3304   3.365   4.821   5.467 -0.1863 -0.3167  0.2205
   29CHL1  H21A 3305   3.283   4.748   5.486 -0.6744  0.5552  1.6457
   29CHL1  H21B 3306   3.361   4.860   5.363 -1.3050  0.9966  0.7116
   29CHL1  H21C 3307   3.343   4.912   5.528  0.7355  0.9306 -1.2260
   29CHL1   C22 3308   3.533   4.636   5.418 -0.4266  0.3177  0.4290
   29CHL1  H22A 3309   3.636   4.600   5.439  0.4562  0.3690 -3.0880
   29CHL1  H22B 3310   3.454   4.563   5.445 -0.0946  0.0291  0.6283
   29CHL1   C23 3311   3.530   4.647   5.262 -0.4656  0.5605  0.1493
   29CHL1  H23A 3312   3.533   4.539   5.236  2.3868  0.0855  2.0590
   29CHL1  H23B 3313   3.435   4.689   5.223 -1.2802 -0.3672  1.0879
   29CHL1   C24 3314   3.650   4.723   5.202 -0.1445 -0.7152 -0.6372
   29CHL1  H24A 3315   3.648   4.827   5.242  0.4275 -0.4091 -1.3863
   29CHL1  H24B 3316   3.750   4.682   5.229 -0.1087 -0.0703  0.2673
   29CHL1   C25 3317   3.622   4.737   5.045 -0.1568 -0.1128 -0.4798
   29CHL1   H25 3318   3.515   4.762   5.031 -0.3863 -1.8686 -2.3409
   29CHL1   C26 3319   3.709   4.838   4.977  0.0179  0.3966  0.9561
   29CHL1  H26A 3320   3.702   4.931   5.038 -0.8409 -0.6755  2.5364
   29CHL1  H26B 3321   3.818   4.817   4.969  0.3521  2.1077  0.4102
   29CHL1  H26C 3322   3.664   4.863   4.878  0.6759  1.1482  0.8313
   29CHL1   C27 3323   3.648   4.603   4.981  0.4874  0.6342  0.5679
   29CHL1  H27A 3324   3.628   4.598   4.872  3.1591 -2.9635  0.0529
   29CHL1  H27B 3325   3.757   4.584   4.992  0.1521 -2.3004 -0.4357
   29CHL1  H27C 3326   3.601   4.516   5.032 -0.3901  1.3706  1.0411
   30CHL1    C3 3327   5.552   5.291   6.144  0.5900 -0.3550 -0.6908
   30CHL1    H3 3328   5.656   5.254   6.128  1.1172  1.6557 -2.3429
   30CHL1    O3 3329   5.530   5.311   6.284 -0.0438  0.5140  0.7495
   30CHL1   H3' 3330   5.443   5.352   6.289 -0.1624  0.6042 -1.4330
   30CHL1    C4 3331   5.545   5.428   6.075  0.6315  0.2757 -0.2481
   30CHL1   H4A 3332   5.451   5.475   6.111  1.5158  1.3658  0.6956
   30CHL1   H4B 3333   5.627   5.493   6.113  0.8077  1.2446 -2.1903
   30CHL1    C5 3334   5.542   5.419   5.921 -0.4077 -0.5945 -0.6409
   30CHL1    C6 3335   5.641   5.475   5.844  0.3076  0.3313 -0.0209
   30CHL1    H6 3336   5.718   5.541   5.886  2.1841 -0.3560 -2.2167
   30CHL1    C7 3337   5.647   5.454   5.694  0.1058 -0.3798  0.4349
   30CHL1   H7A 3338   5.691   5.540   5.638  0.8686 -1.5789 -0.8642
   30CHL1   H7B 3339   5.717   5.369   5.681 -1.0429 -0.9092 -3.4755
   30CHL1    C8 3340   5.514   5.413   5.631 -0.0214 -0.0130 -0.4635
   30CHL1    H8 3341   5.446   5.501   5.624 -1.2892 -0.7397  1.6642
   30CHL1   C14 3342   5.526   5.360   5.492 -0.4785  0.3306  0.3768
   30CHL1   H14 3343   5.588   5.269   5.504 -1.8605 -0.5923  0.7479
   30CHL1   C15 3344   5.606   5.439   5.381 -0.5080  0.1254 -0.6816
   30CHL1  H15A 3345   5.581   5.547   5.381  1.8985  0.7918 -2.6501
   30CHL1  H15B 3346   5.712   5.435   5.415 -1.5775 -0.6531  2.9341
   30CHL1   C16 3347   5.569   5.387   5.242 -0.1961  0.3699  0.1797
   30CHL1  H16A 3348   5.520   5.471   5.188  0.0571 -0.8953 -2.1673
   30CHL1  H16B 3349   5.655   5.351   5.181  0.3129 -0.4093  1.3161
   30CHL1   C17 3350   5.462   5.279   5.277  0.3287  0.1822 -0.8839
   30CHL1   H17 3351   5.514   5.181   5.284 -0.6739 -0.3154 -0.2004
   30CHL1   C13 3352   5.401   5.316   5.420 -0.0405 -0.1372 -0.0346
   30CHL1   C18 3353   5.304   5.432   5.402 -0.8003  0.6170 -0.1989
   30CHL1  H18A 3354   5.347   5.520   5.350 -0.0814  1.0910  1.1619
   30CHL1  H18B 3355   5.217   5.398   5.341 -0.7209 -1.2710  0.6560
   30CHL1  H18C 3356   5.271   5.473   5.500  2.6462 -2.3715  2.5270
   30CHL1   C12 3357   5.329   5.208   5.503 -0.2681 -1.1231  0.1031
   30CHL1  H12A 3358   5.227   5.198   5.460  0.0513 -0.9334 -0.7208
   30CHL1  H12B 3359   5.382   5.112   5.489 -0.8749 -1.2314 -1.8177
   30CHL1   C11 3360   5.308   5.248   5.652  0.0331  0.4203  0.2994
   30CHL1  H11A 3361   5.230   5.328   5.658 -1.1481 -0.6196 -0.6365
   30CHL1  H11B 3362   5.281   5.154   5.704 -0.4938  0.7409  0.6217
   30CHL1    C9 3363   5.441   5.296   5.710 -0.0619  0.5455  0.1838
   30CHL1    H9 3364   5.510   5.209   5.707  0.7916  1.2287 -1.2615
   30CHL1   C10 3365   5.435   5.326   5.867 -0.1379 -0.6502  0.2052
   30CHL1   C19 3366   5.298   5.386   5.906  0.0121 -0.3906 -0.0983
   30CHL1  H19A 3367   5.288   5.435   6.005  0.0278  3.2302 -1.7289
   30CHL1  H19B 3368   5.288   5.470   5.834 -0.7531  0.8165  1.3497
   30CHL1  H19C 3369   5.217   5.310   5.900 -0.4744 -0.0905  2.0209
   30CHL1    C1 3370   5.443   5.186   5.930  0.1714  0.5725 -0.2445
   30CHL1   H1A 3371   5.354   5.132   5.892  0.8422  2.1432 -4.7035
   30CHL1   H1B 3372   5.537   5.142   5.889 -0.9040  0.5598 -2.9006
   30CHL1    C2 3373   5.447   5.192   6.086 -0.0716  0.0432  0.0643
   30CHL1   H2A 3374   5.478   5.089   6.113  1.5521 -0.0864 -1.9809
   30CHL1   H2B 3375   5.349   5.214   6.132  0.8825  2.4214  1.1207
   30CHL1   C20 3376   5.358   5.265   5.171 -0.5259 -0.4947  0.5048
   30CHL1   H20 3377   5.295   5.353   5.147 -1.4747 -1.1349  0.5586
   30CHL1   C21 3378   5.265   5.151   5.210 -0.0035 -0.3976 -0.2114
   30CHL1  H21A 3379   5.317   5.071   5.267  0.7418  0.2069 -0.0201
   30CHL1  H21B 3380   5.207   5.116   5.122  0.8650 -1.0425 -0.5492
   30CHL1  H21C 3381   5.192   5.197   5.280  0.9915  0.3861  0.3385
   30CHL1   C22 3382   5.431   5.230   5.035 -0.2546 -0.3424  0.0269
   30CHL1  H22A 3383   5.511   5.301   5.008 -0.6956  0.1108 -0.0988
   30CHL1  H22B 3384   5.495   5.141   5.051  0.8715  0.2506 -1.0373
   30CHL1   C23 3385   5.339   5.197   4.919 -0.5662  0.1745 -0.0904
   30CHL1  H23A 3386   5.284   5.101   4.923 -1.3976  0.6855  1.3188
   30CHL1  H23B 3387   5.261   5.275   4.907 -0.4445  0.1556 -1.0952
   30CHL1   C24 3388   5.424   5.189   4.788 -0.3280 -0.0452  0.1106
   30CHL1  H24A 3389   5.481   5.284   4.777  0.4005 -0.3668  1.0175
   30CHL1  H24B 3390   5.503   5.112   4.803 -0.5695 -0.3583 -0.1980
   30CHL1   C25 3391   5.371   5.147   4.647 -0.1896 -0.4561 -0.0993
   30CHL1   H25 3392   5.327   5.045   4.652 -2.6479  0.5664  1.1197
   30CHL1   C26 3393   5.250   5.229   4.597  0.5754  0.6478 -0.6516
   30CHL1  H26A 3394   5.199   5.181   4.511  0.6349 -0.0933 -0.2838
   30CHL1  H26B 3395   5.180   5.226   4.683  0.1997  0.5696 -0.9628
   30CHL1  H26C 3396   5.270   5.333   4.563 -0.6582  1.2535  0.4070
   30CHL1   C27 3397   5.490   5.156   4.543 -0.2554  0.5418 -0.0670
   30CHL1  H27A 3398   5.510   5.265   4.540 -0.9538  0.6656 -0.5775
   30CHL1  H27B 3399   5.580   5.116   4.593  0.1344  0.9657 -0.4233
   30CHL1  H27C 3400   5.463   5.102   4.449 -0.3565 -0.3082  0.4380
   31CHL1    C3 3401   4.918   5.837   6.241  0.2315 -0.2751  0.2684
   31CHL1    H3 3402   4.859   5.755   6.194  0.0380  1.3841 -2.5971
   31CHL1    O3 3403   4.923   5.830   6.385  0.1234  0.7663 -0.5858
   31CHL1   H3' 3404   4.938   5.922   6.409 -1.6280  0.6966  1.0220
   31CHL1    C4 3405   5.063   5.822   6.191  0.2409 -0.6134  0.2606
   31CHL1   H4A 3406   5.127   5.898   6.241 -0.0793 -1.7979  2.6415
   31CHL1   H4B 3407   5.109   5.725   6.221 -0.5383 -0.1476  3.3052
   31CHL1    C5 3408   5.059   5.838   6.035 -0.1806  0.5963  0.6179
   31CHL1    C6 3409   5.093   5.740   5.955 -0.7215  0.4236 -0.6746
   31CHL1    H6 3410   5.132   5.646   5.995  2.5094  1.7505 -0.3797
   31CHL1    C7 3411   5.077   5.750   5.809  0.3289 -0.8058  0.1616
   31CHL1   H7A 3412   5.162   5.694   5.765  0.8905 -1.7205  2.2738
   31CHL1   H7B 3413   4.983   5.701   5.776  1.4847 -2.0650 -1.4242
   31CHL1    C8 3414   5.075   5.898   5.753  0.0148 -0.5656 -0.5417
   31CHL1    H8 3415   5.170   5.955   5.765 -0.3482 -0.3348  1.8166
   31CHL1   C14 3416   5.029   5.895   5.602 -0.3968  0.2099 -0.0330
   31CHL1   H14 3417   4.919   5.880   5.609 -0.2930 -0.1936  0.9230
   31CHL1   C15 3418   5.091   5.797   5.504 -0.3773  0.2066  0.4923
   31CHL1  H15A 3419   5.200   5.796   5.526 -0.2842 -0.5008  0.0370
   31CHL1  H15B 3420   5.058   5.693   5.525  1.1395 -0.4646 -0.3086
   31CHL1   C16 3421   5.060   5.867   5.369  0.8995 -0.3788 -0.3035
   31CHL1  H16A 3422   5.151   5.900   5.316  0.8324  1.1788  0.5162
   31CHL1  H16B 3423   4.997   5.800   5.307 -0.6408 -0.6980  1.5013
   31CHL1   C17 3424   4.988   6.003   5.395  0.1256 -0.2435 -0.7482
   31CHL1   H17 3425   4.880   5.981   5.407 -0.0513  0.8356 -0.2194
   31CHL1   C13 3426   5.021   6.034   5.536  0.2129 -0.1401 -0.4843
   31CHL1   C18 3427   5.157   6.098   5.540 -0.1451  0.2938  0.3018
   31CHL1  H18A 3428   5.230   6.039   5.480  0.2433 -1.4091  2.3533
   31CHL1  H18B 3429   5.156   6.201   5.497  0.8847 -0.1640 -0.8968
   31CHL1  H18C 3430   5.205   6.110   5.640  0.8748 -1.2328  0.0354
   31CHL1   C12 3431   4.917   6.127   5.623  0.1089  0.5201  0.1511
   31CHL1  H12A 3432   4.905   6.234   5.595  0.4555  0.1847 -1.3658
   31CHL1  H12B 3433   4.821   6.072   5.619 -1.8541  3.5682  1.5127
   31CHL1   C11 3434   4.949   6.125   5.777 -0.2970 -0.3394  0.3941
   31CHL1  H11A 3435   5.030   6.200   5.786 -1.3265  0.8781 -0.1870
   31CHL1  H11B 3436   4.857   6.166   5.824 -0.9415  1.1329 -1.9814
   31CHL1    C9 3437   4.966   5.978   5.828  0.1490 -0.0832 -0.2964
   31CHL1    H9 3438   4.871   5.926   5.803 -0.2598  1.1535 -1.4762
   31CHL1   C10 3439   4.994   5.967   5.984  0.0177 -0.1712  0.2221
   31CHL1   C19 3440   5.093   6.082   6.019 -0.1014 -0.1598 -0.6833
   31CHL1  H19A 3441   5.189   6.093   5.965  1.0736  1.8829  1.6737
   31CHL1  H19B 3442   5.050   6.180   5.989 -0.1846 -0.3649 -1.2630
   31CHL1  H19C 3443   5.107   6.089   6.129  3.3908 -0.8465 -0.9810
   31CHL1    C1 3444   4.856   5.978   6.050  0.9418  0.4989  0.4023
   31CHL1   H1A 3445   4.819   6.078   6.018  0.0595  0.1126  0.1917
   31CHL1   H1B 3446   4.777   5.908   6.014 -0.1705  0.2640  3.0823
   31CHL1    C2 3447   4.863   5.972   6.203 -0.2223  0.1395  0.4326
   31CHL1   H2A 3448   4.759   5.985   6.240 -0.6092 -0.0909 -0.5454
   31CHL1   H2B 3449   4.925   6.052   6.249  0.8962 -1.5101  1.9588
   31CHL1   C20 3450   5.023   6.108   5.285  0.1333 -0.1864  0.2815
   31CHL1   H20 3451   5.129   6.138   5.296  0.1960 -0.1420 -0.4226
   31CHL1   C21 3452   4.930   6.231   5.302 -0.0112 -0.1898 -0.1995
   31CHL1  H21A 3453   4.961   6.283   5.395  1.5665  0.7590 -1.2101
   31CHL1  H21B 3454   4.820   6.212   5.309 -0.2320  0.9538 -0.3746
   31CHL1  H21C 3455   4.943   6.314   5.230 -1.3525  0.0549 -0.1987
   31CHL1   C22 3456   4.991   6.063   5.145  0.5919  0.5805  0.5358
   31CHL1  H22A 3457   5.045   5.969   5.121 -0.4677  0.3756 -1.2768
   31CHL1  H22B 3458   4.882   6.056   5.125  0.9026 -1.1595 -0.8450
   31CHL1   C23 3459   5.037   6.146   5.028  0.1481  0.2892  0.6880
   31CHL1  H23A 3460   4.974   6.238   5.026 -2.2396 -1.1678  2.7916
   31CHL1  H23B 3461   5.146   6.157   5.043  0.1956  0.6221  0.1310
   31CHL1   C24 3462   5.019   6.070   4.891  0.2315 -0.8495 -0.1839
   31CHL1  H24A 3463   5.082   5.979   4.888 -0.1820 -1.1744  0.7329
   31CHL1  H24B 3464   4.921   6.032   4.856 -0.0520  1.0988 -1.7108
   31CHL1   C25 3465   5.069   6.163   4.777 -0.0331  0.7123 -0.3915
   31CHL1   H25 3466   5.140   6.232   4.826  0.1239  1.4830 -1.6601
   31CHL1   C26 3467   5.144   6.080   4.679  0.0981  0.0175  0.4414
   31CHL1  H26A 3468   5.236   6.034   4.720  0.1112 -1.5556 -1.2046
   31CHL1  H26B 3469   5.084   6.000   4.631  0.5621  0.0234 -0.1575
   31CHL1  H26C 3470   5.180   6.144   4.596 -0.2200  0.1604  0.4107
   31CHL1   C27 3471   4.954   6.243   4.718  0.5128  0.6804  0.1338
   31CHL1  H27A 3472   4.869   6.174   4.701  0.4756  1.0827 -1.4676
   31CHL1  H27B 3473   4.921   6.312   4.799 -0.1472 -0.7873  1.1531
   31CHL1  H27C 3474   4.977   6.304   4.628  0.9689  0.7497  0.2938
   32CHL1    C3 3475   0.745   2.408   6.720 -0.0577 -0.1836  0.3966
   32CHL1    H3 3476   0.842   2.460   6.704  0.1911 -0.7414  0.0385
   32CHL1    O3 3477   0.733   2.373   6.854 -0.4205  0.0446 -0.2240
   32CHL1   H3' 3478   0.778   2.288   6.864  1.4405  0.7514 -1.9079
   32CHL1    C4 3479   0.630   2.505   6.682  0.3684 -0.4354 -0.3487
   32CHL1   H4A 3480   0.532   2.463   6.714  0.4051 -1.7628 -1.8551
   32CHL1   H4B 3481   0.645   2.596   6.743  1.9807  0.2606 -1.6998
   32CHL1    C5 3482   0.644   2.541   6.537 -0.2830  0.4504 -0.0803
   32CHL1    C6 3483   0.653   2.677   6.497  0.0007  0.0676 -0.1852
   32CHL1    H6 3484   0.650   2.756   6.574  0.7410  0.1748 -0.2592
   32CHL1    C7 3485   0.647   2.718   6.351  0.8411 -0.5285  0.2938
   32CHL1   H7A 3486   0.593   2.814   6.335  1.6911 -0.1888 -0.5903
   32CHL1   H7B 3487   0.751   2.717   6.313  0.5032  0.9041 -0.7490
   32CHL1    C8 3488   0.582   2.604   6.265  0.7767 -0.0412 -0.6820
   32CHL1    H8 3489   0.475   2.595   6.295 -0.1592  1.8776 -3.1486
   32CHL1   C14 3490   0.585   2.637   6.115  0.2206  0.3229 -0.1231
   32CHL1   H14 3491   0.693   2.635   6.091 -0.5789  0.1320 -4.5073
   32CHL1   C15 3492   0.526   2.778   6.079 -0.6202 -0.6776 -0.7833
   32CHL1  H15A 3493   0.430   2.794   6.133  0.7630 -0.9758  1.9497
   32CHL1  H15B 3494   0.595   2.862   6.098 -0.8740 -0.3036 -1.5143
   32CHL1   C16 3495   0.491   2.762   5.930  0.1010  0.1625 -0.3167
   32CHL1  H16A 3496   0.384   2.788   5.923  0.2616  0.6968 -0.8457
   32CHL1  H16B 3497   0.551   2.842   5.881  0.2404 -0.9092 -1.9401
   32CHL1   C17 3498   0.517   2.619   5.890  0.3289 -0.1316  0.0833
   32CHL1   H17 3499   0.624   2.621   5.858 -0.2520  0.7682 -2.0156
   32CHL1   C13 3500   0.518   2.536   6.022  0.1146 -0.0833 -0.0246
   32CHL1   C18 3501   0.371   2.511   6.044 -0.0517 -0.0101 -0.4146
   32CHL1  H18A 3502   0.352   2.488   6.151 -0.4001  0.7812 -0.2978
   32CHL1  H18B 3503   0.303   2.598   6.032 -0.4146 -0.2676 -0.2182
   32CHL1  H18C 3504   0.333   2.426   5.983 -0.9065 -0.1402  0.2826
   32CHL1   C12 3505   0.601   2.407   6.031  0.3701  0.2469 -0.1858
   32CHL1  H12A 3506   0.546   2.322   5.985 -0.9025 -1.0760  3.3735
   32CHL1  H12B 3507   0.708   2.406   6.002  0.0976 -2.9119 -1.4970
   32CHL1   C11 3508   0.600   2.360   6.184  0.4552 -0.2255  0.0605
   32CHL1  H11A 3509   0.503   2.308   6.199  2.1910 -3.3322  1.5610
   32CHL1  H11B 3510   0.676   2.279   6.191 -0.4106 -1.0141  0.7174
   32CHL1    C9 3511   0.642   2.466   6.288 -0.2940  1.1220  1.1599
   32CHL1    H9 3512   0.751   2.470   6.268 -0.5689  0.5871 -0.6028
   32CHL1   C10 3513   0.630   2.423   6.439 -0.4151 -0.4174  0.0797
   32CHL1   C19 3514   0.491   2.359   6.456 -0.0304  0.3567 -0.3163
   32CHL1  H19A 3515   0.416   2.433   6.422  0.4705  1.0022 -0.0416
   32CHL1  H19B 3516   0.477   2.264   6.399 -0.4268  2.4923 -4.1120
   32CHL1  H19C 3517   0.461   2.337   6.561  0.5636 -1.2521 -0.4525
   32CHL1    C1 3518   0.741   2.320   6.476 -0.1258 -0.2296  0.2727
   32CHL1   H1A 3519   0.725   2.231   6.411  0.8922 -0.2878  0.0853
   32CHL1   H1B 3520   0.843   2.363   6.464 -0.0427  0.7511  3.4118
   32CHL1    C2 3521   0.731   2.285   6.619 -0.2243  0.6548 -0.8972
   32CHL1   H2A 3522   0.797   2.202   6.651 -0.1557  0.7434 -0.8091
   32CHL1   H2B 3523   0.630   2.248   6.646  0.2763  0.1504  0.3690
   32CHL1   C20 3524   0.433   2.578   5.766 -0.0379 -0.1763 -0.6640
   32CHL1   H20 3525   0.326   2.581   5.797  0.3060 -0.7297  0.6389
   32CHL1   C21 3526   0.466   2.433   5.720  0.0088 -0.4713 -0.2818
   32CHL1  H21A 3527   0.395   2.394   5.644  0.5808 -3.9305  0.7778
   32CHL1  H21B 3528   0.464   2.357   5.801 -3.0482 -2.0189 -1.6167
   32CHL1  H21C 3529   0.562   2.427   5.665 -1.1510  3.0578 -3.0429
   32CHL1   C22 3530   0.441   2.683   5.649  0.0051 -0.3050 -0.2991
   32CHL1  H22A 3531   0.377   2.636   5.572 -0.5395 -0.3967  0.2021
   32CHL1  H22B 3532   0.399   2.782   5.677 -0.2500 -0.0024 -1.6962
   32CHL1   C23 3533   0.587   2.703   5.598 -0.2717 -0.7316  0.1346
   32CHL1  H23A 3534   0.649   2.744   5.680  0.3216 -1.7880  0.2304
   32CHL1  H23B 3535   0.632   2.603   5.578 -0.8586 -1.5142  2.4114
   32CHL1   C24 3536   0.599   2.794   5.471  0.0175  0.8927 -0.3407
   32CHL1  H24A 3537   0.531   2.761   5.389  2.3123  0.6647 -2.2775
   32CHL1  H24B 3538   0.563   2.895   5.501  1.1781  1.2883 -0.2344
   32CHL1   C25 3539   0.741   2.786   5.414  0.4086 -0.1761 -0.4063
   32CHL1   H25 3540   0.750   2.868   5.339  0.8438  0.1502 -0.0050
   32CHL1   C26 3541   0.859   2.820   5.500 -0.3542 -0.8578 -0.3217
   32CHL1  H26A 3542   0.951   2.811   5.439  1.7250  1.2390  2.2500
   32CHL1  H26B 3543   0.861   2.924   5.539  2.4561 -1.6158  1.9112
   32CHL1  H26C 3544   0.857   2.754   5.590 -1.2252  0.7474  0.9047
   32CHL1   C27 3545   0.752   2.647   5.352  0.2926  0.1589 -0.1202
   32CHL1  H27A 3546   0.657   2.613   5.306  0.0544  0.9232 -0.2026
   32CHL1  H27B 3547   0.832   2.659   5.275  1.1795  1.0921  0.9238
   32CHL1  H27C 3548   0.791   2.583   5.434  0.9474  1.2658  0.4552
   33CHL1    C3 3549   2.624   5.351   6.695 -0.5545  0.6081  0.1913
   33CHL1    H3 3550   2.711   5.410   6.661  0.9498 -1.8721 -0.5694
   33CHL1    O3 3551   2.602   5.383   6.830 -0.3151 -0.0316  0.0308
   33CHL1   H3' 3552   2.570   5.303   6.872  1.1729 -0.6964 -0.0277
   33CHL1    C4 3553   2.502   5.369   6.619  0.3882  0.5983  0.3871
   33CHL1   H4A 3554   2.413   5.317   6.661  0.8217  0.3898  1.0762
   33CHL1   H4B 3555   2.476   5.477   6.620  0.8946  0.7225  0.9305
   33CHL1    C5 3556   2.528   5.326   6.472 -0.6998  0.4364  0.0838
   33CHL1    C6 3557   2.513   5.421   6.375 -0.3052  0.1253 -0.0716
   33CHL1    H6 3558   2.477   5.520   6.406 -1.0473  0.2366 -1.2220
   33CHL1    C7 3559   2.527   5.392   6.219  0.1347  0.0655 -0.4460
   33CHL1   H7A 3560   2.448   5.440   6.158 -1.0657 -0.5985  0.5301
   33CHL1   H7B 3561   2.624   5.430   6.182  0.2863  0.6958  0.5521
   33CHL1    C8 3562   2.520   5.236   6.202 -0.0742 -0.8766  0.9355
   33CHL1    H8 3563   2.413   5.205   6.208 -0.4352  0.0623 -0.3034
   33CHL1   C14 3564   2.569   5.204   6.064  1.0088 -0.1208 -0.4146
   33CHL1   H14 3565   2.677   5.227   6.066  1.3756 -1.7504  0.3286
   33CHL1   C15 3566   2.512   5.286   5.941  0.4442 -0.6923 -0.2918
   33CHL1  H15A 3567   2.405   5.315   5.941  0.3836 -0.9114 -0.0906
   33CHL1  H15B 3568   2.573   5.379   5.936 -0.2436 -0.1781  0.4663
   33CHL1   C16 3569   2.543   5.196   5.820 -0.5468  0.0986  0.2012
   33CHL1  H16A 3570   2.448   5.173   5.768 -1.4501 -0.4417  2.0096
   33CHL1  H16B 3571   2.623   5.233   5.751 -2.0493  1.3682 -0.9374
   33CHL1   C17 3572   2.605   5.064   5.873  0.9006 -0.5350 -0.3018
   33CHL1   H17 3573   2.714   5.082   5.881  1.0071  0.2856 -2.8595
   33CHL1   C13 3574   2.557   5.054   6.017  0.2213 -0.4150  0.0176
   33CHL1   C18 3575   2.406   5.016   6.025  0.3686  0.5816  0.4287
   33CHL1  H18A 3576   2.385   4.923   5.968  0.3537  1.1576 -0.5279
   33CHL1  H18B 3577   2.376   5.002   6.131  0.5498  0.2137  0.4327
   33CHL1  H18C 3578   2.342   5.094   5.979 -0.9018 -0.0561  1.0824
   33CHL1   C12 3579   2.652   4.979   6.113  0.0007 -0.5382  0.6251
   33CHL1  H12A 3580   2.632   4.872   6.094 -1.6385  0.2645 -3.1646
   33CHL1  H12B 3581   2.760   5.000   6.095  0.0677  0.4905  2.0919
   33CHL1   C11 3582   2.605   5.000   6.261 -0.6855  0.7513  0.2982
   33CHL1  H11A 3583   2.511   4.941   6.275  0.0304 -0.2505  1.0530
   33CHL1  H11B 3584   2.677   4.949   6.329  0.1486  1.1036 -0.3047
   33CHL1    C9 3585   2.598   5.152   6.300 -0.0548  0.1703 -0.6289
   33CHL1    H9 3586   2.707   5.170   6.289 -0.1010 -0.7339 -3.1097
   33CHL1   C10 3587   2.557   5.182   6.448  0.0688 -0.3886 -0.2191
   33CHL1   C19 3588   2.430   5.093   6.478 -0.2938 -0.4234  0.6835
   33CHL1  H19A 3589   2.346   5.118   6.409  1.5419 -2.3536 -2.4569
   33CHL1  H19B 3590   2.450   4.984   6.479 -0.6767 -0.4949  0.8579
   33CHL1  H19C 3591   2.392   5.115   6.580  1.5954 -1.1948  1.6018
   33CHL1    C1 3592   2.677   5.154   6.534  0.4752  0.6632 -0.5062
   33CHL1   H1A 3593   2.699   5.045   6.530 -1.0467  0.3629 -1.5762
   33CHL1   H1B 3594   2.769   5.210   6.505  1.0276 -1.0921 -2.3300
   33CHL1    C2 3595   2.659   5.196   6.680 -0.3875  0.3171 -0.1379
   33CHL1   H2A 3596   2.750   5.173   6.739 -0.2569 -2.3218 -1.2489
   33CHL1   H2B 3597   2.581   5.136   6.730 -0.3186 -0.3775 -0.8330
   33CHL1   C20 3598   2.575   4.941   5.778  0.6037 -0.1702  0.1770
   33CHL1   H20 3599   2.468   4.930   5.753  1.0205 -1.2493 -1.3117
   33CHL1   C21 3600   2.612   4.803   5.841  0.4681 -0.1666  0.1920
   33CHL1  H21A 3601   2.718   4.809   5.876  0.2833  0.6844  0.6251
   33CHL1  H21B 3602   2.615   4.726   5.761  0.3084 -3.2353  2.9167
   33CHL1  H21C 3603   2.549   4.775   5.928  0.8597  0.8200  0.8145
   33CHL1   C22 3604   2.649   4.957   5.641 -0.5504 -0.0099 -0.1210
   33CHL1  H22A 3605   2.670   5.062   5.613  1.8876 -0.6383 -0.8954
   33CHL1  H22B 3606   2.755   4.928   5.653 -0.1094  0.7147 -1.9651
   33CHL1   C23 3607   2.567   4.888   5.534 -0.6285 -0.0314  0.1068
   33CHL1  H23A 3608   2.577   4.778   5.551 -0.2949 -0.0486 -0.1820
   33CHL1  H23B 3609   2.459   4.909   5.549 -0.1342  0.5306  3.5882
   33CHL1   C24 3610   2.617   4.924   5.394 -0.1547  0.1734  0.1413
   33CHL1  H24A 3611   2.601   5.034   5.388 -1.8981 -0.0109  0.5800
   33CHL1  H24B 3612   2.719   4.892   5.364 -0.4618  1.0185 -1.9205
   33CHL1   C25 3613   2.528   4.853   5.290 -0.2589 -0.1898  0.0959
   33CHL1   H25 3614   2.422   4.880   5.309 -0.6469 -0.5862 -1.3445
   33CHL1   C26 3615   2.557   4.895   5.144  0.0853  0.3693 -0.6400
   33CHL1  H26A 3616   2.472   4.855   5.083 -0.9532 -2.6965  2.4861
   33CHL1  H26B 3617   2.551   5.002   5.115 -2.4030 -0.1038 -2.2455
   33CHL1  H26C 3618   2.647   4.840   5.109 -0.1359 -1.1088  0.9926
   33CHL1   C27 3619   2.543   4.696   5.298  0.7962  0.1113  0.1487
   33CHL1  H27A 3620   2.504   4.660   5.395 -2.7423 -0.9759 -1.4718
   33CHL1  H27B 3621   2.471   4.661   5.220  0.8860 -0.9945  0.5534
   33CHL1  H27C 3622   2.641   4.650   5.275  0.1513  0.2589 -3.7082
   34CHL1    C3 3623   4.150   5.394   6.507  0.0848 -0.5653 -0.1128
   34CHL1    H3 3624   4.098   5.300   6.479 -0.1510 -1.0739  1.8519
   34CHL1    O3 3625   4.181   5.384   6.647  0.5027 -0.2802 -0.4405
   34CHL1   H3' 3626   4.182   5.290   6.664  3.7815 -0.3204 -0.3575
   34CHL1    C4 3627   4.274   5.414   6.428 -0.0854 -0.2134  0.2071
   34CHL1   H4A 3628   4.330   5.503   6.461 -0.9866  0.3455  0.2555
   34CHL1   H4B 3629   4.340   5.327   6.449  0.2895 -0.7747 -2.7474
   34CHL1    C5 3630   4.254   5.420   6.278  0.3339 -0.4130  0.4955
   34CHL1    C6 3631   4.312   5.334   6.195  0.6807 -0.8225 -0.0649
   34CHL1    H6 3632   4.383   5.264   6.242 -0.2526 -0.3115  2.2406
   34CHL1    C7 3633   4.301   5.327   6.048 -0.9602 -0.4092  0.7827
   34CHL1   H7A 3634   4.405   5.321   6.008 -0.4051  0.5945  2.0382
   34CHL1   H7B 3635   4.242   5.236   6.020 -2.0539  0.2104  1.0163
   34CHL1    C8 3636   4.234   5.454   5.995 -0.1416  0.4265  0.7284
   34CHL1    H8 3637   4.306   5.538   5.987 -0.8314  0.8265 -3.6802
   34CHL1   C14 3638   4.179   5.424   5.861 -0.6347  0.2776  0.9266
   34CHL1   H14 3639   4.103   5.344   5.870 -1.8705  1.0593 -1.5970
   34CHL1   C15 3640   4.287   5.375   5.758  0.1144  0.0726 -1.0486
   34CHL1  H15A 3641   4.374   5.443   5.766 -0.3397  0.4727  0.9215
   34CHL1  H15B 3642   4.317   5.272   5.783 -1.3366 -0.3663 -0.9968
   34CHL1   C16 3643   4.225   5.385   5.623  0.3065 -1.1541  0.2572
   34CHL1  H16A 3644   4.295   5.433   5.551  2.4653 -3.0853  0.9434
   34CHL1  H16B 3645   4.190   5.287   5.587  0.6290 -1.2936  0.3232
   34CHL1   C17 3646   4.091   5.476   5.648 -0.5435  0.0974  0.3572
   34CHL1   H17 3647   4.013   5.399   5.663  0.5966 -1.6561 -1.9895
   34CHL1   C13 3648   4.105   5.537   5.789 -0.0271 -0.6358 -0.8977
   34CHL1   C18 3649   4.193   5.668   5.777  1.0194  0.2382 -0.3579
   34CHL1  H18A 3650   4.273   5.658   5.699 -0.5553 -2.0869 -1.7976
   34CHL1  H18B 3651   4.126   5.752   5.749  1.3889  0.6717  0.0311
   34CHL1  H18C 3652   4.231   5.707   5.874  0.0133  2.0221 -0.6569
   34CHL1   C12 3653   3.980   5.565   5.875  0.1288 -0.5416  0.4082
   34CHL1  H12A 3654   3.927   5.654   5.834  1.1557 -0.7905 -1.5629
   34CHL1  H12B 3655   3.913   5.476   5.868 -0.7696  0.0699  0.9590
   34CHL1   C11 3656   4.010   5.600   6.020 -0.4519 -0.4738  0.3207
   34CHL1  H11A 3657   4.058   5.700   6.016 -1.7641  0.2315  1.2088
   34CHL1  H11B 3658   3.917   5.601   6.082 -0.4000 -2.9873  0.5636
   34CHL1    C9 3659   4.111   5.496   6.086 -0.3040  0.0762  0.7118
   34CHL1    H9 3660   4.058   5.398   6.079 -1.0666  0.5044  0.4001
   34CHL1   C10 3661   4.150   5.521   6.234 -0.1438 -0.8134 -0.4220
   34CHL1   C19 3662   4.210   5.664   6.249 -0.8271  0.4850 -0.5604
   34CHL1  H19A 3663   4.284   5.683   6.168 -0.9274 -1.2319 -1.0955
   34CHL1  H19B 3664   4.131   5.741   6.237  0.0838  1.9777  2.1394
   34CHL1  H19C 3665   4.244   5.683   6.353 -2.1205  0.1327 -0.0502
   34CHL1    C1 3666   4.021   5.514   6.324 -0.8291  0.8135 -0.5975
   34CHL1   H1A 3667   3.948   5.595   6.303 -1.4206  0.0635 -1.5386
   34CHL1   H1B 3668   3.966   5.420   6.299  0.2006 -0.6038  2.1105
   34CHL1    C2 3669   4.054   5.511   6.475 -0.4511 -0.4001  0.2393
   34CHL1   H2A 3670   3.960   5.493   6.532 -1.7605  0.8896 -1.3787
   34CHL1   H2B 3671   4.097   5.608   6.507 -1.1373  0.8927 -2.4395
   34CHL1   C20 3672   4.045   5.562   5.534 -0.6260 -0.1002  0.7504
   34CHL1   H20 3673   4.114   5.649   5.531 -0.3008 -0.3794 -0.2682
   34CHL1   C21 3674   3.911   5.640   5.562  0.4714  0.5548  0.5148
   34CHL1  H21A 3675   3.845   5.570   5.617  0.2300  1.0472  0.8544
   34CHL1  H21B 3676   3.883   5.681   5.463  2.0029 -3.3730 -1.8031
   34CHL1  H21C 3677   3.924   5.709   5.648 -4.1482  1.5668  0.6269
   34CHL1   C22 3678   4.051   5.507   5.393  0.0268  0.1793 -0.2727
   34CHL1  H22A 3679   4.034   5.595   5.328  0.1955  1.9091  1.8899
   34CHL1  H22B 3680   4.150   5.465   5.365 -0.9193 -1.7151 -0.8914
   34CHL1   C23 3681   3.939   5.409   5.368  0.0224 -0.1664 -0.2630
   34CHL1  H23A 3682   3.940   5.324   5.439 -0.1779  1.9198  2.3959
   34CHL1  H23B 3683   3.838   5.453   5.383  0.1351  0.6387 -1.6790
   34CHL1   C24 3684   3.950   5.348   5.225  0.0018  0.4553  0.4625
   34CHL1  H24A 3685   4.051   5.311   5.196 -1.0231 -2.0641 -0.1656
   34CHL1  H24B 3686   3.902   5.248   5.216  0.1923  0.1516  2.4736
   34CHL1   C25 3687   3.898   5.442   5.117 -0.1051 -0.0134  0.1505
   34CHL1   H25 3688   3.944   5.542   5.128  0.1451 -0.1485  0.3424
   34CHL1   C26 3689   3.931   5.392   4.979  0.3168  0.0451 -0.3779
   34CHL1  H26A 3690   4.032   5.346   4.979  0.5402  0.5127  0.4052
   34CHL1  H26B 3691   3.862   5.312   4.945 -0.7753  0.8350 -0.0841
   34CHL1  H26C 3692   3.919   5.477   4.908  2.5748  1.2571  0.5717
   34CHL1   C27 3693   3.744   5.466   5.127 -0.0329 -0.5578  0.9658
   34CHL1  H27A 3694   3.718   5.524   5.036  1.3696 -1.6858 -0.1979
   34CHL1  H27B 3695   3.676   5.379   5.129 -1.1093  0.2644  1.3808
   34CHL1  H27C 3696   3.710   5.531   5.211 -2.3307  0.1878 -0.4422
   35CHL1    C3 3697   4.749   6.329   6.255 -0.2311 -0.5670 -0.6437
   35CHL1    H3 3698   4.783   6.234   6.208  0.9009 -0.6497  0.2929
   35CHL1    O3 3699   4.738   6.313   6.398  0.4451 -0.2394  0.1505
   35CHL1   H3' 3700   4.673   6.371   6.438  2.4395  0.4135  2.7343
   35CHL1    C4 3701   4.863   6.437   6.236 -0.4084 -0.4714 -0.3129
   35CHL1   H4A 3702   4.828   6.526   6.292 -0.6089  0.7284 -2.2525
   35CHL1   H4B 3703   4.955   6.393   6.278  0.3066 -0.5792 -1.9069
   35CHL1    C5 3704   4.889   6.486   6.096  0.5901  0.2273  1.3616
   35CHL1    C6 3705   5.011   6.492   6.037  0.1395  0.5920 -0.0891
   35CHL1    H6 3706   5.098   6.461   6.098 -0.8930  1.0056  1.6685
   35CHL1    C7 3707   5.041   6.549   5.897  0.5759  0.2201 -0.2851
   35CHL1   H7A 3708   5.115   6.630   5.905  1.9634 -0.8720 -1.5352
   35CHL1   H7B 3709   5.094   6.474   5.835 -0.0399  0.3250 -0.9512
   35CHL1    C8 3710   4.919   6.612   5.827 -0.0121  0.4363 -0.8861
   35CHL1    H8 3711   4.902   6.713   5.871  2.6872  0.9736 -0.8868
   35CHL1   C14 3712   4.933   6.629   5.675 -0.1161  0.2668  0.0057
   35CHL1   H14 3713   4.954   6.521   5.659  0.1457  0.3002  0.1145
   35CHL1   C15 3714   5.055   6.707   5.610 -0.4790 -0.0191  0.0531
   35CHL1  H15A 3715   5.055   6.799   5.673  1.2363 -1.2935  2.0528
   35CHL1  H15B 3716   5.157   6.666   5.627 -0.5650 -0.2962 -0.1002
   35CHL1   C16 3717   5.015   6.726   5.460  0.0342 -0.2385 -0.4496
   35CHL1  H16A 3718   5.036   6.829   5.422 -0.6141 -0.2998 -0.9988
   35CHL1  H16B 3719   5.075   6.654   5.401 -1.2242  0.2109 -2.3645
   35CHL1   C17 3720   4.874   6.668   5.447  0.1191 -0.1217  0.3402
   35CHL1   H17 3721   4.895   6.561   5.425  1.5048 -0.1080  1.4517
   35CHL1   C13 3722   4.815   6.670   5.588 -0.3403  0.1446 -0.2217
   35CHL1   C18 3723   4.773   6.816   5.621 -0.0666 -0.3111 -0.4662
   35CHL1  H18A 3724   4.849   6.894   5.599 -0.9555  0.8909  0.5586
   35CHL1  H18B 3725   4.681   6.841   5.564  0.4885  1.9598 -0.4608
   35CHL1  H18C 3726   4.753   6.829   5.730 -0.3385  0.3237 -0.5898
   35CHL1   C12 3727   4.698   6.574   5.622 -0.5203  0.2993  0.3753
   35CHL1  H12A 3728   4.605   6.603   5.569 -0.3322  0.6904  0.2523
   35CHL1  H12B 3729   4.729   6.474   5.587 -0.0477  0.2367  0.9577
   35CHL1   C11 3730   4.669   6.565   5.768 -0.7034 -0.6960  0.6699
   35CHL1  H11A 3731   4.624   6.664   5.794 -0.7365 -0.6608  0.4821
   35CHL1  H11B 3732   4.597   6.484   5.791 -0.3930 -1.5870 -1.2950
   35CHL1    C9 3733   4.793   6.533   5.864 -0.1039  0.2408  0.5451
   35CHL1    H9 3734   4.807   6.428   5.831 -2.1179  0.0779  0.0429
   35CHL1   C10 3735   4.762   6.526   6.015  0.4895 -0.0127 -0.9051
   35CHL1   C19 3736   4.708   6.665   6.066 -0.0195 -0.4362 -0.4129
   35CHL1  H19A 3737   4.618   6.694   6.007 -0.6468  0.6012  1.0099
   35CHL1  H19B 3738   4.676   6.665   6.172  1.9079  0.0161  0.1968
   35CHL1  H19C 3739   4.790   6.739   6.061 -1.8918  1.8303  0.3875
   35CHL1    C1 3740   4.655   6.419   6.039 -0.0809  0.1232 -0.6628
   35CHL1   H1A 3741   4.560   6.461   5.999 -1.7013  0.6408  3.2629
   35CHL1   H1B 3742   4.684   6.324   5.990 -0.4362  0.3864 -1.4026
   35CHL1    C2 3743   4.620   6.374   6.186 -0.2509 -0.0145  0.1297
   35CHL1   H2A 3744   4.549   6.289   6.194  0.9244 -0.9209  1.3351
   35CHL1   H2B 3745   4.576   6.463   6.235  1.2767  0.2579  1.0526
   35CHL1   C20 3746   4.807   6.730   5.323  0.3669 -0.2576 -0.8006
   35CHL1   H20 3747   4.780   6.832   5.358 -0.6674 -1.1831  1.3257
   35CHL1   C21 3748   4.678   6.654   5.302  0.1227 -0.1470  0.5732
   35CHL1  H21A 3749   4.619   6.673   5.210  0.1773 -0.5956  0.4446
   35CHL1  H21B 3750   4.607   6.682   5.383 -0.5928 -0.5431  0.0856
   35CHL1  H21C 3751   4.681   6.543   5.305 -1.4235 -0.2321 -0.1880
   35CHL1   C22 3752   4.882   6.749   5.191 -0.4231  0.0433 -0.1971
   35CHL1  H22A 3753   4.808   6.787   5.118 -0.8094 -0.4556 -0.0766
   35CHL1  H22B 3754   4.960   6.828   5.196 -1.8718  1.4159  2.9006
   35CHL1   C23 3755   4.922   6.615   5.127 -0.3883 -0.3774 -0.1154
   35CHL1  H23A 3756   4.974   6.559   5.207 -0.0645  1.9504  1.3868
   35CHL1  H23B 3757   4.838   6.556   5.084 -1.0889 -0.1156  0.8725
   35CHL1   C24 3758   5.026   6.639   5.017  0.5409 -0.2459 -0.3966
   35CHL1  H24A 3759   5.099   6.706   5.067 -1.6993  0.3183  2.3535
   35CHL1  H24B 3760   5.089   6.549   4.998 -1.1611 -1.0011 -3.1088
   35CHL1   C25 3761   4.967   6.699   4.887 -0.3019 -0.0039  0.0387
   35CHL1   H25 3762   4.894   6.780   4.912  0.1268  0.3268  0.2452
   35CHL1   C26 3763   5.084   6.759   4.815 -0.1584  0.3465  0.1915
   35CHL1  H26A 3764   5.143   6.682   4.760 -1.8642 -1.2773  0.5371
   35CHL1  H26B 3765   5.043   6.831   4.741 -2.0175 -1.0109 -0.1922
   35CHL1  H26C 3766   5.161   6.819   4.868 -0.0943  2.0567 -1.7229
   35CHL1   C27 3767   4.904   6.600   4.793  0.3518 -0.5411 -0.1877
   35CHL1  H27A 3768   4.827   6.542   4.848 -1.7368  2.4007  0.2248
   35CHL1  H27B 3769   4.854   6.634   4.700 -2.9441  1.2340  2.0482
   35CHL1  H27C 3770   4.985   6.528   4.768 -1.0521 -2.3961  0.3463
   36CHL1    C3 3771   3.098   5.785   6.696 -0.5336 -0.8193  0.5707
   36CHL1    H3 3772   3.170   5.711   6.656 -1.2574 -1.9605  1.3379
   36CHL1    O3 3773   3.122   5.801   6.838  0.0211  0.2077 -0.1284
   36CHL1   H3' 3774   3.032   5.813   6.869 -0.2686 -2.3724  0.2680
   36CHL1    C4 3775   3.108   5.925   6.625  0.3114 -0.4318 -0.3738
   36CHL1   H4A 3776   3.033   5.990   6.675  0.4447 -0.1409 -0.5448
   36CHL1   H4B 3777   3.206   5.970   6.651 -1.1821  2.4681  0.6565
   36CHL1    C5 3778   3.081   5.909   6.474 -0.0580  0.3109 -0.8371
   36CHL1    C6 3779   3.177   5.946   6.390  0.1220 -0.7831  0.0660
   36CHL1    H6 3780   3.268   5.999   6.422  0.6048 -0.7010 -1.3611
   36CHL1    C7 3781   3.157   5.929   6.245  0.6410 -0.8005 -0.0107
   36CHL1   H7A 3782   3.182   6.019   6.185 -0.2476 -0.5800 -0.0699
   36CHL1   H7B 3783   3.228   5.849   6.219  2.6521  1.1362 -0.7453
   36CHL1    C8 3784   3.020   5.876   6.190  0.1319  0.2514  0.2316
   36CHL1    H8 3785   2.961   5.969   6.174  1.0498  0.6237 -1.1393
   36CHL1   C14 3786   3.037   5.809   6.049  0.5473  0.1008 -0.6619
   36CHL1   H14 3787   3.097   5.716   6.056 -3.0083 -2.2598  1.2062
   36CHL1   C15 3788   3.098   5.886   5.933  0.5364  0.5252  0.1895
   36CHL1  H15A 3789   3.076   5.994   5.924  0.0319  0.3983 -0.2069
   36CHL1  H15B 3790   3.207   5.868   5.942  0.2926 -0.4779  1.5242
   36CHL1   C16 3791   3.053   5.811   5.803  0.5805  0.1193 -0.3758
   36CHL1  H16A 3792   3.006   5.878   5.728  1.0323 -2.2127 -2.8940
   36CHL1  H16B 3793   3.143   5.772   5.749  0.2811  1.1945 -1.7088
   36CHL1   C17 3794   2.954   5.703   5.851  0.0546 -0.3567  0.2928
   36CHL1   H17 3795   3.010   5.611   5.877 -0.8145 -0.6232  1.2812
   36CHL1   C13 3796   2.904   5.758   5.988 -0.1649  0.9479  0.0288
   36CHL1   C18 3797   2.805   5.869   5.971 -0.4182 -0.2722  0.2611
   36CHL1  H18A 3798   2.788   5.930   6.062 -0.4786  2.2829 -1.3574
   36CHL1  H18B 3799   2.841   5.941   5.895  1.9166 -1.5471  0.0821
   36CHL1  H18C 3800   2.712   5.814   5.944 -0.6023 -0.3792  1.1029
   36CHL1   C12 3801   2.846   5.655   6.083 -0.7165 -0.2706 -0.2500
   36CHL1  H12A 3802   2.752   5.607   6.049  0.3831 -2.8902  0.1570
   36CHL1  H12B 3803   2.921   5.574   6.090 -0.1477  0.1755 -0.9486
   36CHL1   C11 3804   2.831   5.716   6.226  0.3419  0.1650 -0.5007
   36CHL1  H11A 3805   2.753   5.794   6.233  1.4968  1.3248  0.0173
   36CHL1  H11B 3806   2.805   5.631   6.293 -2.9573  0.3279 -1.4400
   36CHL1    C9 3807   2.963   5.778   6.285 -0.9053 -0.6135 -0.4384
   36CHL1    H9 3808   3.030   5.689   6.286  0.0615  0.0434  2.1247
   36CHL1   C10 3809   2.953   5.834   6.436  0.1988  0.1952  0.3385
   36CHL1   C19 3810   2.834   5.928   6.458  0.1927  0.3414  0.9199
   36CHL1  H19A 3811   2.843   5.993   6.548  0.7326  0.3455  0.8649
   36CHL1  H19B 3812   2.813   5.995   6.372  2.3265 -1.2087 -0.9295
   36CHL1  H19C 3813   2.745   5.864   6.475  1.0729 -0.8639  1.0829
   36CHL1    C1 3814   2.942   5.707   6.527 -0.5578  0.6294  0.6602
   36CHL1   H1A 3815   2.838   5.672   6.509  0.0682 -0.8804 -0.2645
   36CHL1   H1B 3816   3.023   5.638   6.494 -1.0767  1.1078 -1.8771
   36CHL1    C2 3817   2.961   5.725   6.680 -0.4352 -0.4770  0.7424
   36CHL1   H2A 3818   2.951   5.632   6.740 -0.6667 -0.8525  0.1257
   36CHL1   H2B 3819   2.876   5.783   6.723 -0.2382 -0.7236  1.4713
   36CHL1   C20 3820   2.856   5.644   5.747  0.2280 -0.8572  0.2134
   36CHL1   H20 3821   2.787   5.726   5.720  0.8646 -0.4232 -0.1365
   36CHL1   C21 3822   2.775   5.521   5.795 -0.3128 -0.7092  0.1719
   36CHL1  H21A 3823   2.829   5.458   5.869  1.4840  1.6966  1.0368
   36CHL1  H21B 3824   2.755   5.456   5.707 -0.0527 -1.1608  0.4464
   36CHL1  H21C 3825   2.682   5.557   5.845  0.6600 -0.6870  2.0300
   36CHL1   C22 3826   2.928   5.599   5.617  0.7647 -0.1248 -0.3264
   36CHL1  H22A 3827   2.996   5.677   5.578  2.1084 -2.1920 -2.3908
   36CHL1  H22B 3828   3.000   5.515   5.633  0.9997 -0.0612 -1.0267
   36CHL1   C23 3829   2.832   5.567   5.499 -0.0672 -0.6729 -0.3967
   36CHL1  H23A 3830   2.743   5.508   5.529  0.0632 -0.1903  0.9846
   36CHL1  H23B 3831   2.786   5.664   5.473 -0.1037 -1.1440 -2.2473
   36CHL1   C24 3832   2.895   5.502   5.368  0.5007 -0.0954 -0.6109
   36CHL1  H24A 3833   2.915   5.581   5.293 -1.7374 -0.2156 -1.4221
   36CHL1  H24B 3834   2.992   5.455   5.396 -0.1789 -1.8506 -1.0684
   36CHL1   C25 3835   2.791   5.414   5.294 -0.7759 -0.1022 -0.3882
   36CHL1   H25 3836   2.764   5.321   5.348 -0.7030 -0.8825 -1.6597
   36CHL1   C26 3837   2.658   5.483   5.277  0.0011 -0.3070  0.2505
   36CHL1  H26A 3838   2.657   5.592   5.259 -1.2816 -0.4430 -0.6379
   36CHL1  H26B 3839   2.598   5.436   5.195 -1.8222 -1.5388  2.2028
   36CHL1  H26C 3840   2.596   5.461   5.366 -0.8137 -0.2212 -0.2799
   36CHL1   C27 3841   2.851   5.359   5.157  0.1884  0.2814 -0.5715
   36CHL1  H27A 3842   2.936   5.297   5.194 -0.0452  1.0844  1.4677
   36CHL1  H27B 3843   2.783   5.287   5.108  0.4045  1.3557 -2.5770
   36CHL1  H27C 3844   2.890   5.441   5.093  1.3839 -1.1867 -1.7974
   37CHL1    C3 3845   2.784   1.651   6.427  0.2331 -0.5975 -0.3114
   37CHL1    H3 3846   2.834   1.554   6.404  0.0953 -1.2961  2.0113
   37CHL1    O3 3847   2.793   1.681   6.563  0.4407 -0.2751 -0.1998
   37CHL1   H3' 3848   2.881   1.714   6.584 -0.8996  2.5145  1.6810
   37CHL1    C4 3849   2.838   1.755   6.341 -0.8953  0.0324  0.9753
   37CHL1   H4A 3850   2.804   1.858   6.361  3.1192  1.8658 -0.5323
   37CHL1   H4B 3851   2.945   1.764   6.369 -0.7054 -1.9337  1.0728
   37CHL1    C5 3852   2.822   1.726   6.193  0.1195 -0.1061 -0.8572
   37CHL1    C6 3853   2.931   1.719   6.116  0.0229  0.3802  0.5378
   37CHL1    H6 3854   3.035   1.726   6.153  0.3655 -1.5237  0.0080
   37CHL1    C7 3855   2.912   1.676   5.971  0.2742  0.0810  0.2978
   37CHL1   H7A 3856   2.980   1.735   5.905  1.3519 -2.2083 -0.7511
   37CHL1   H7B 3857   2.945   1.570   5.968  2.1750  0.6468 -1.5225
   37CHL1    C8 3858   2.772   1.706   5.915  0.2010 -0.0917  0.7201
   37CHL1    H8 3859   2.765   1.814   5.893 -0.9232 -0.8144 -3.1870
   37CHL1   C14 3860   2.749   1.646   5.773  0.0997  0.0491  0.1347
   37CHL1   H14 3861   2.759   1.536   5.790 -0.5070  0.3576  2.9996
   37CHL1   C15 3862   2.853   1.676   5.664  0.2692 -0.3220 -0.5053
   37CHL1  H15A 3863   2.897   1.778   5.663 -1.6925  0.6694  2.0745
   37CHL1  H15B 3864   2.931   1.597   5.671 -1.4071 -2.0418 -0.0120
   37CHL1   C16 3865   2.785   1.650   5.530  0.5915 -0.0189 -0.2899
   37CHL1  H16A 3866   2.799   1.744   5.472 -1.2258  0.5857  0.1999
   37CHL1  H16B 3867   2.821   1.560   5.474  1.1536  0.5051 -0.7854
   37CHL1   C17 3868   2.635   1.627   5.565  0.1130 -0.2813 -0.4792
   37CHL1   H17 3869   2.631   1.516   5.576  0.1913 -0.0703  2.5280
   37CHL1   C13 3870   2.612   1.682   5.707 -0.1425  0.9336  0.4803
   37CHL1   C18 3871   2.600   1.833   5.703 -0.3422  0.2711 -0.3728
   37CHL1  H18A 3872   2.678   1.890   5.648 -2.2711  1.9538 -1.4954
   37CHL1  H18B 3873   2.506   1.861   5.651  0.0672  1.8570 -0.3204
   37CHL1  H18C 3874   2.605   1.876   5.806  2.0711  0.1510 -0.3801
   37CHL1   C12 3875   2.516   1.610   5.803  0.4495  0.4019  0.1106
   37CHL1  H12A 3876   2.411   1.614   5.765  1.9708  1.9948 -4.6527
   37CHL1  H12B 3877   2.534   1.500   5.803  1.0109  0.4779 -1.0198
   37CHL1   C11 3878   2.525   1.660   5.944 -0.2170  0.0027 -0.0633
   37CHL1  H11A 3879   2.474   1.758   5.956 -0.5313 -0.4055  2.3613
   37CHL1  H11B 3880   2.467   1.589   6.006  1.5417 -1.9378 -0.5206
   37CHL1    C9 3881   2.669   1.651   6.001  0.1835 -0.1917  0.0696
   37CHL1    H9 3882   2.675   1.541   6.005  1.5063 -0.1273  0.1895
   37CHL1   C10 3883   2.679   1.706   6.149 -0.7873  0.3682 -0.0909
   37CHL1   C19 3884   2.613   1.848   6.147 -0.4477 -0.3448  0.3913
   37CHL1  H19A 3885   2.504   1.845   6.122  0.2944 -0.4131 -3.4722
   37CHL1  H19B 3886   2.634   1.910   6.237 -3.2545 -0.4258  1.1941
   37CHL1  H19C 3887   2.665   1.898   6.063 -2.8796 -0.9939 -1.6230
   37CHL1    C1 3888   2.610   1.605   6.252 -0.0222 -0.3070 -0.1289
   37CHL1   H1A 3889   2.500   1.602   6.237  0.2094 -0.4853 -1.9716
   37CHL1   H1B 3890   2.649   1.505   6.225 -0.1776 -0.9974  2.0297
   37CHL1    C2 3891   2.635   1.632   6.403  0.4299  0.7452  0.0912
   37CHL1   H2A 3892   2.599   1.542   6.457 -1.5718  1.4658  0.0057
   37CHL1   H2B 3893   2.576   1.720   6.436  0.3083  0.3952  0.8218
   37CHL1   C20 3894   2.552   1.679   5.450 -0.1486  0.2629 -0.3968
   37CHL1   H20 3895   2.550   1.790   5.451 -1.1908  0.2601  1.2753
   37CHL1   C21 3896   2.407   1.641   5.479  0.5050 -0.7516 -0.1005
   37CHL1  H21A 3897   2.377   1.708   5.562 -0.8534  2.4173 -2.8962
   37CHL1  H21B 3898   2.392   1.535   5.506 -1.6198 -0.0669  1.7497
   37CHL1  H21C 3899   2.335   1.660   5.397  0.7997  0.4048 -0.1139
   37CHL1   C22 3900   2.600   1.637   5.311  0.4795 -0.1628 -0.1286
   37CHL1  H22A 3901   2.692   1.693   5.284 -0.4614  1.2260 -0.6131
   37CHL1  H22B 3902   2.620   1.528   5.309 -2.4813 -0.7777 -1.1878
   37CHL1   C23 3903   2.504   1.684   5.201  0.1783 -0.4292  0.0743
   37CHL1  H23A 3904   2.404   1.634   5.200 -0.7577  1.3518 -1.4102
   37CHL1  H23B 3905   2.473   1.789   5.223  0.0881 -0.1127 -1.4985
   37CHL1   C24 3906   2.559   1.667   5.056 -0.2779 -0.1289 -0.0560
   37CHL1  H24A 3907   2.656   1.719   5.040  1.2546 -2.7050  0.2316
   37CHL1  H24B 3908   2.579   1.562   5.026  1.0372  0.4137 -1.1720
   37CHL1   C25 3909   2.463   1.705   4.936 -0.6234  0.0885  0.1809
   37CHL1   H25 3910   2.375   1.638   4.934 -0.4858 -0.1558  1.2985
   37CHL1   C26 3911   2.417   1.845   4.952  0.2567 -0.7108  0.0359
   37CHL1  H26A 3912   2.349   1.883   4.873  0.7925  0.8713  0.2959
   37CHL1  H26B 3913   2.368   1.858   5.051 -0.6183  2.8931 -0.7329
   37CHL1  H26C 3914   2.505   1.912   4.952  2.9813 -3.9756  1.3620
   37CHL1   C27 3915   2.538   1.694   4.807 -0.3678 -0.1272 -0.3894
   37CHL1  H27A 3916   2.558   1.588   4.780  0.4852 -0.0909  0.0550
   37CHL1  H27B 3917   2.488   1.741   4.720  2.1470 -1.3989 -2.6944
   37CHL1  H27C 3918   2.637   1.743   4.821 -0.5504 -0.3462  2.0532
   38CHL1    C3 3919   5.816   1.666   6.499 -0.0568 -0.7403 -0.0688
   38CHL1    H3 3920   5.908   1.650   6.438 -0.5879  2.3966 -1.9344
   38CHL1    O3 3921   5.847   1.639   6.636  0.3652  0.7630  0.1948
   38CHL1   H3' 3922   5.764   1.637   6.683  1.3603  1.4729  2.1235
   38CHL1    C4 3923   5.780   1.819   6.479  0.0392  0.7896 -0.0029
   38CHL1   H4A 3924   5.691   1.834   6.543  0.2344  0.0547  0.4543
   38CHL1   H4B 3925   5.858   1.881   6.528 -0.9132  2.0752 -0.0564
   38CHL1    C5 3926   5.742   1.858   6.340  0.0186 -0.1604 -0.0229
   38CHL1    C6 3927   5.792   1.965   6.271  0.3992 -0.5449 -0.3639
   38CHL1    H6 3928   5.856   2.035   6.326  0.7131 -0.4564 -0.8336
   38CHL1    C7 3929   5.757   2.004   6.129  0.1099 -0.2626  0.8242
   38CHL1   H7A 3930   5.755   2.114   6.115  0.1820 -0.4157 -0.4599
   38CHL1   H7B 3931   5.843   1.972   6.066  0.3997  1.3808  0.3648
   38CHL1    C8 3932   5.631   1.932   6.080  0.0404  0.4758  0.8655
   38CHL1    H8 3933   5.546   1.992   6.120  0.3977  0.3845  1.7913
   38CHL1   C14 3934   5.635   1.939   5.925 -0.6763  0.6275  0.1362
   38CHL1   H14 3935   5.718   1.870   5.902 -0.7863 -0.1412  1.9350
   38CHL1   C15 3936   5.659   2.071   5.846 -1.0128 -0.0497  0.0045
   38CHL1  H15A 3937   5.594   2.147   5.895 -0.5320  0.4139 -0.0713
   38CHL1  H15B 3938   5.767   2.097   5.844 -0.6209 -1.6043 -0.7274
   38CHL1   C16 3939   5.620   2.044   5.700 -0.1196  0.5754  0.3057
   38CHL1  H16A 3940   5.560   2.130   5.665  0.6107  2.0718  2.4855
   38CHL1  H16B 3941   5.713   2.036   5.640  0.1276 -0.8928  0.8362
   38CHL1   C17 3942   5.554   1.901   5.707 -0.3449 -0.3605  0.1243
   38CHL1   H17 3943   5.638   1.835   5.678  1.0663  0.6441  1.7644
   38CHL1   C13 3944   5.520   1.875   5.857  0.5659 -0.3322  0.5374
   38CHL1   C18 3945   5.397   1.971   5.886  0.2538 -0.1873 -0.2087
   38CHL1  H18A 3946   5.381   1.984   5.995 -0.9228 -1.1837 -0.2477
   38CHL1  H18B 3947   5.412   2.074   5.847 -0.3994 -0.7146 -1.9192
   38CHL1  H18C 3948   5.306   1.929   5.838 -0.6134  0.3546  0.9034
   38CHL1   C12 3949   5.497   1.737   5.905  0.3146 -0.0899 -0.3937
   38CHL1  H12A 3950   5.399   1.709   5.862 -0.3770  0.1394  0.9747
   38CHL1  H12B 3951   5.580   1.681   5.857 -0.8116  0.3227 -2.9946
   38CHL1   C11 3952   5.501   1.724   6.055 -0.3425  0.6575 -0.8764
   38CHL1  H11A 3953   5.414   1.767   6.109  0.8889  0.8082  1.0716
   38CHL1  H11B 3954   5.481   1.618   6.079 -1.1976  1.1569  0.7669
   38CHL1    C9 3955   5.622   1.790   6.120  0.4081 -0.6881  0.1162
   38CHL1    H9 3956   5.707   1.726   6.088  0.6519 -0.6170  0.6035
   38CHL1   C10 3957   5.627   1.768   6.279 -0.3167 -0.5089 -0.8627
   38CHL1   C19 3958   5.494   1.811   6.344 -0.4317  0.3595  0.1708
   38CHL1  H19A 3959   5.413   1.736   6.327 -1.0289  0.5414  1.9871
   38CHL1  H19B 3960   5.498   1.836   6.452  1.0032  2.5794 -0.3279
   38CHL1  H19C 3961   5.445   1.903   6.305 -1.3226 -0.5007 -0.8204
   38CHL1    C1 3962   5.661   1.616   6.307  0.3474  0.1561  0.5190
   38CHL1   H1A 3963   5.582   1.544   6.277  0.7659 -0.4853  0.9485
   38CHL1   H1B 3964   5.750   1.590   6.245  0.5936 -0.2058  1.0211
   38CHL1    C2 3965   5.699   1.581   6.451  0.9685  0.4568 -0.2082
   38CHL1   H2A 3966   5.728   1.476   6.470  1.3411  0.8171  1.3390
   38CHL1   H2B 3967   5.612   1.596   6.518  0.0155  0.1534 -1.3455
   38CHL1   C20 3968   5.438   1.897   5.605  0.5383 -0.0797 -0.4196
   38CHL1   H20 3969   5.355   1.964   5.635 -1.7317 -2.4649 -1.0976
   38CHL1   C21 3970   5.372   1.759   5.590 -0.0117  0.0843  0.3762
   38CHL1  H21A 3971   5.444   1.677   5.568  0.1115  0.3601 -0.2498
   38CHL1  H21B 3972   5.306   1.749   5.501  1.3117 -3.3740 -0.3689
   38CHL1  H21C 3973   5.308   1.733   5.677 -0.6620  0.2970 -0.0281
   38CHL1   C22 3974   5.493   1.941   5.461  0.2697 -0.1686  0.3834
   38CHL1  H22A 3975   5.550   2.035   5.471  1.4602 -1.0755  2.9327
   38CHL1  H22B 3976   5.564   1.863   5.424 -0.1601 -0.3354 -0.1140
   38CHL1   C23 3977   5.390   1.961   5.347 -0.0556 -0.0060 -0.5273
   38CHL1  H23A 3978   5.377   1.864   5.294  1.5010 -1.4937  1.6843
   38CHL1  H23B 3979   5.291   1.994   5.385  0.0688 -0.6506  0.3805
   38CHL1   C24 3980   5.436   2.056   5.237  0.1047 -0.1707  0.3112
   38CHL1  H24A 3981   5.433   2.160   5.277  0.6630 -0.3597  0.8546
   38CHL1  H24B 3982   5.542   2.039   5.208 -0.0769  0.7888 -1.0010
   38CHL1   C25 3983   5.365   2.044   5.099  0.1999  0.2516  0.8914
   38CHL1   H25 3984   5.378   1.948   5.044 -0.4956  1.6249 -1.8627
   38CHL1   C26 3985   5.211   2.060   5.114 -0.1076 -0.2918 -0.2867
   38CHL1  H26A 3986   5.159   2.062   5.015 -1.1481  1.4254  0.2467
   38CHL1  H26B 3987   5.164   1.982   5.177  0.7474 -0.4051  0.2321
   38CHL1  H26C 3988   5.189   2.156   5.166 -0.0560 -1.9431  3.0167
   38CHL1   C27 3989   5.414   2.147   4.999 -1.0895  0.3447  0.5417
   38CHL1  H27A 3990   5.361   2.128   4.903  1.8186 -0.5707 -1.0173
   38CHL1  H27B 3991   5.392   2.247   5.042 -1.8657  0.3708  0.1002
   38CHL1  H27C 3992   5.524   2.138   4.986 -0.6238  2.8074  2.1262
   39CHL1    C3 3993   4.560   1.538   6.748  0.4123  0.2484  0.4465
   39CHL1    H3 3994   4.484   1.611   6.785 -1.3339 -1.2905  0.0487
   39CHL1    O3 3995   4.622   1.485   6.865 -0.4921  0.0290  0.5486
   39CHL1   H3' 3996   4.714   1.511   6.867 -0.2401 -0.8518  1.1382
   39CHL1    C4 3997   4.499   1.424   6.663  0.1622 -0.1159  0.6037
   39CHL1   H4A 3998   4.573   1.341   6.661 -0.8326 -1.0961 -2.4914
   39CHL1   H4B 3999   4.408   1.386   6.714  0.6818 -1.3103  0.6834
   39CHL1    C5 4000   4.474   1.447   6.515  0.2833  0.6233 -0.4441
   39CHL1    C6 4001   4.351   1.428   6.464  0.4343  0.4114  0.0324
   39CHL1    H6 4002   4.271   1.405   6.536  0.2155  2.9493  0.6863
   39CHL1    C7 4003   4.323   1.447   6.323  0.5448  0.3998  0.4735
   39CHL1   H7A 4004   4.258   1.363   6.288  0.5343  1.2286 -1.6754
   39CHL1   H7B 4005   4.255   1.534   6.308 -0.2782 -0.4018 -0.5994
   39CHL1    C8 4006   4.447   1.481   6.232  0.2233  0.4522 -0.4226
   39CHL1    H8 4007   4.499   1.383   6.225 -0.4586 -0.2058  2.6079
   39CHL1   C14 4008   4.399   1.538   6.105 -0.0016  0.2524 -0.1249
   39CHL1   H14 4009   4.364   1.640   6.127  2.0747  1.1394 -0.6688
   39CHL1   C15 4010   4.280   1.478   6.034 -1.0132 -1.0337  0.2821
   39CHL1  H15A 4011   4.297   1.368   6.031  0.1494 -0.9359  2.0053
   39CHL1  H15B 4012   4.181   1.491   6.083 -0.8608  0.9264  0.1307
   39CHL1   C16 4013   4.293   1.540   5.891 -0.5934  0.1024 -0.8460
   39CHL1  H16A 4014   4.294   1.454   5.820 -2.9690 -0.2252 -0.5487
   39CHL1  H16B 4015   4.200   1.591   5.856 -0.8891  0.6473  0.6658
   39CHL1   C17 4016   4.432   1.615   5.881  0.7603 -0.1600 -0.0585
   39CHL1   H17 4017   4.407   1.722   5.899  0.4851 -0.2297 -0.0292
   39CHL1   C13 4018   4.511   1.569   6.003  0.1652 -0.2258  0.3085
   39CHL1   C18 4019   4.599   1.443   5.969  0.0077  0.4850  0.5711
   39CHL1  H18A 4020   4.542   1.370   5.909 -2.1708  0.7805  2.1682
   39CHL1  H18B 4021   4.681   1.483   5.905 -0.1055  0.3945  0.3677
   39CHL1  H18C 4022   4.641   1.380   6.050  0.1477 -1.9668 -1.2881
   39CHL1   C12 4023   4.603   1.672   6.066  0.1377 -0.1086 -0.2598
   39CHL1  H12A 4024   4.682   1.700   5.993  0.2367 -0.6830 -0.3820
   39CHL1  H12B 4025   4.531   1.756   6.072 -0.8454 -0.9942  0.8785
   39CHL1   C11 4026   4.651   1.627   6.203 -0.4497  0.0270  0.4181
   39CHL1  H11A 4027   4.725   1.545   6.190  0.3739  0.5468  1.6652
   39CHL1  H11B 4028   4.698   1.716   6.249 -2.2671  2.2174 -1.6650
   39CHL1    C9 4029   4.545   1.574   6.304  0.3573  0.1313  1.0245
   39CHL1    H9 4030   4.493   1.669   6.331  0.5000  1.0162 -1.5663
   39CHL1   C10 4031   4.589   1.517   6.438 -0.8153  0.1874  0.0593
   39CHL1   C19 4032   4.712   1.423   6.416 -0.1884 -0.2021  0.5136
   39CHL1  H19A 4033   4.814   1.466   6.405 -0.5217  1.3929  2.9757
   39CHL1  H19B 4034   4.727   1.367   6.511 -1.2026 -0.7880  0.3393
   39CHL1  H19C 4035   4.682   1.349   6.339 -2.6465  1.2338  0.0060
   39CHL1    C1 4036   4.632   1.643   6.520 -0.8315  0.6620  0.1380
   39CHL1   H1A 4037   4.712   1.702   6.472  1.2211 -1.0389  1.2937
   39CHL1   H1B 4038   4.543   1.710   6.525 -2.6560 -1.6695  1.0712
   39CHL1    C2 4039   4.676   1.604   6.664 -0.6338 -0.2093  0.3060
   39CHL1   H2A 4040   4.709   1.688   6.728  0.0692 -0.1944 -0.0693
   39CHL1   H2B 4041   4.749   1.521   6.654 -0.1099  0.0149  1.9679
   39CHL1   C20 4042   4.493   1.600   5.739  0.8657 -0.7617 -0.8183
   39CHL1   H20 4043   4.543   1.503   5.716  2.0453 -0.2493 -0.4747
   39CHL1   C21 4044   4.613   1.699   5.721 -0.2525 -0.0763  0.2175
   39CHL1  H21A 4045   4.637   1.716   5.614 -0.5849  3.6435  0.6151
   39CHL1  H21B 4046   4.701   1.659   5.776 -1.8389 -2.5551  1.1591
   39CHL1  H21C 4047   4.587   1.797   5.765  0.3663 -0.0489  0.5284
   39CHL1   C22 4048   4.389   1.641   5.626 -0.9168 -0.1075 -0.6820
   39CHL1  H22A 4049   4.288   1.608   5.659 -0.7507 -0.3641 -0.4258
   39CHL1  H22B 4050   4.383   1.751   5.610  0.8621  0.0676 -0.3214
   39CHL1   C23 4051   4.429   1.590   5.489  0.3916 -0.0473  0.3124
   39CHL1  H23A 4052   4.523   1.636   5.449 -1.9479  3.3164 -1.8633
   39CHL1  H23B 4053   4.431   1.480   5.496 -4.4860 -0.2666  2.2072
   39CHL1   C24 4054   4.322   1.627   5.386  0.2774  0.4705  0.5648
   39CHL1  H24A 4055   4.220   1.603   5.424  0.1455  0.1618  0.0181
   39CHL1  H24B 4056   4.322   1.738   5.378  0.8671  0.6863  2.8151
   39CHL1   C25 4057   4.339   1.549   5.255  0.0364 -0.4710  0.3101
   39CHL1   H25 4058   4.381   1.447   5.272 -1.2768 -0.6029  3.4130
   39CHL1   C26 4059   4.202   1.534   5.182 -0.0272  0.5347 -1.0068
   39CHL1  H26A 4060   4.231   1.459   5.105  1.6662 -0.5046  0.5635
   39CHL1  H26B 4061   4.117   1.499   5.244  0.1293 -0.6829 -1.4604
   39CHL1  H26C 4062   4.176   1.627   5.127 -2.4682  0.3096 -0.3199
   39CHL1   C27 4063   4.443   1.611   5.157  0.2072 -0.4325  0.6065
   39CHL1  H27A 4064   4.539   1.614   5.213  0.3059 -0.8452  0.4668
   39CHL1  H27B 4065   4.443   1.544   5.068 -0.2166 -2.1054  1.8006
   39CHL1  H27C 4066   4.410   1.711   5.122 -1.1263 -0.5507  1.4699
   40CHL1    C3 4067   5.907   6.665   6.173 -0.1392 -1.0926  0.9926
   40CHL1    H3 4068   5.924   6.556   6.185  0.4638 -1.1691 -0.4734
   40CHL1    O3 4069   5.898   6.736   6.297  0.2494 -0.4591  0.3692
   40CHL1   H3' 4070   5.832   6.801   6.274  0.2585 -0.4884  0.2617
   40CHL1    C4 4071   6.025   6.723   6.097  0.1572  1.0327  0.4313
   40CHL1   H4A 4072   6.007   6.833   6.097 -0.5693  0.9621  2.8187
   40CHL1   H4B 4073   6.117   6.700   6.155 -0.9691 -0.2269  1.7981
   40CHL1    C5 4074   6.046   6.673   5.958 -0.2372 -0.3459 -0.0300
   40CHL1    C6 4075   6.164   6.624   5.913 -0.0195 -0.2207 -0.9356
   40CHL1    H6 4076   6.254   6.626   5.976  0.0162  1.7791 -0.9646
   40CHL1    C7 4077   6.186   6.571   5.778 -0.0206  0.0254  0.4125
   40CHL1   H7A 4078   6.281   6.607   5.734 -0.7231 -1.4698 -2.6645
   40CHL1   H7B 4079   6.188   6.460   5.785  3.8949 -0.0692 -0.3166
   40CHL1    C8 4080   6.080   6.602   5.671 -0.1521 -0.1145  0.4088
   40CHL1    H8 4081   6.099   6.706   5.635  1.1756 -0.5803 -0.2674
   40CHL1   C14 4082   6.085   6.504   5.555 -0.5253  0.2921 -0.1504
   40CHL1   H14 4083   6.042   6.411   5.599 -0.7215  0.3337 -0.2513
   40CHL1   C15 4084   6.215   6.468   5.475 -0.5332 -0.1080  0.5147
   40CHL1  H15A 4085   6.285   6.554   5.463 -0.1182 -0.3421  1.1634
   40CHL1  H15B 4086   6.279   6.389   5.520  0.4796 -1.2103 -2.6254
   40CHL1   C16 4087   6.165   6.411   5.337 -0.9089 -0.1674  0.1390
   40CHL1  H16A 4088   6.214   6.486   5.272  1.5545 -1.5630  0.2896
   40CHL1  H16B 4089   6.209   6.311   5.316  0.9580  0.8741 -1.1906
   40CHL1   C17 4090   6.008   6.421   5.338 -0.2582 -0.2895  0.2831
   40CHL1   H17 4091   5.974   6.331   5.394  1.2280  0.0407  1.8171
   40CHL1   C13 4092   5.979   6.529   5.442  0.4073  0.6607 -0.3478
   40CHL1   C18 4093   5.996   6.663   5.373 -0.2383  0.2529  0.3277
   40CHL1  H18A 4094   5.913   6.691   5.304 -0.6585 -0.9542  0.3140
   40CHL1  H18B 4095   5.988   6.750   5.443 -1.0552  0.8382 -0.4743
   40CHL1  H18C 4096   6.090   6.670   5.315 -0.3406 -0.8794  0.0208
   40CHL1   C12 4097   5.843   6.513   5.514  0.2826  0.4215 -0.0093
   40CHL1  H12A 4098   5.757   6.533   5.446 -1.5525 -3.4446  0.9226
   40CHL1  H12B 4099   5.839   6.411   5.556  0.7783  0.1236 -0.6565
   40CHL1   C11 4100   5.823   6.610   5.631 -1.0036 -0.5429 -0.2232
   40CHL1  H11A 4101   5.829   6.713   5.590  0.4537  0.5285  2.4137
   40CHL1  H11B 4102   5.734   6.578   5.688 -0.6025  0.1602  0.8224
   40CHL1    C9 4103   5.942   6.597   5.741  0.7355 -0.3235 -0.1934
   40CHL1    H9 4104   5.929   6.490   5.767  0.9266 -0.3015 -0.0021
   40CHL1   C10 4105   5.921   6.692   5.866  0.2534 -0.7778  0.7056
   40CHL1   C19 4106   5.888   6.840   5.815 -0.7237  0.7440  0.3919
   40CHL1  H19A 4107   5.968   6.872   5.745 -0.5856 -1.2388 -0.4123
   40CHL1  H19B 4108   5.791   6.833   5.760 -0.9372  2.5844  0.4605
   40CHL1  H19C 4109   5.889   6.907   5.904  2.2337  0.4491  0.6564
   40CHL1    C1 4110   5.793   6.646   5.943  0.5428  0.3067  0.2888
   40CHL1   H1A 4111   5.700   6.666   5.885  1.2430 -0.8867 -1.3423
   40CHL1   H1B 4112   5.807   6.537   5.953 -3.2410 -0.2953  0.4463
   40CHL1    C2 4113   5.779   6.684   6.089 -0.4379  0.4920  0.1095
   40CHL1   H2A 4114   5.700   6.630   6.146  0.2386 -2.1213 -1.2462
   40CHL1   H2B 4115   5.750   6.791   6.089  0.4712  0.7506 -0.3259
   40CHL1   C20 4116   5.927   6.427   5.204 -0.2049 -0.1009  0.3229
   40CHL1   H20 4117   5.833   6.484   5.224  0.9762  0.7668  4.2478
   40CHL1   C21 4118   5.891   6.282   5.179 -0.1341  0.2431  0.3832
   40CHL1  H21A 4119   5.859   6.264   5.074  1.0101  0.4857 -0.0193
   40CHL1  H21B 4120   5.811   6.243   5.245  0.1247  1.0397  1.1803
   40CHL1  H21C 4121   5.972   6.208   5.192  1.4455  1.7511 -0.5082
   40CHL1   C22 4122   5.997   6.488   5.083 -0.0989  0.4664 -0.3730
   40CHL1  H22A 4123   6.053   6.579   5.114  0.5406 -0.0210 -0.0585
   40CHL1  H22B 4124   6.072   6.418   5.042 -0.6752  0.0550 -0.7359
   40CHL1   C23 4125   5.902   6.540   4.970 -0.1067  0.2618 -0.0412
   40CHL1  H23A 4126   5.834   6.454   4.950 -0.2833  0.1094  1.1574
   40CHL1  H23B 4127   5.840   6.624   5.006 -0.7480  0.9350 -2.4946
   40CHL1   C24 4128   5.968   6.580   4.839  0.2888  0.1031 -1.0125
   40CHL1  H24A 4129   6.023   6.672   4.870 -2.8596  1.2203  1.9791
   40CHL1  H24B 4130   6.041   6.498   4.820 -0.9172 -1.1215 -0.5511
   40CHL1   C25 4131   5.886   6.609   4.715 -0.5111  0.1159  0.2065
   40CHL1   H25 4132   5.827   6.701   4.736 -0.5307  0.2186 -0.2922
   40CHL1   C26 4133   5.971   6.623   4.592  0.2022 -0.0074  0.3056
   40CHL1  H26A 4134   6.041   6.539   4.571 -1.5280 -1.1189 -1.2440
   40CHL1  H26B 4135   5.913   6.626   4.497 -0.6205  0.5738  0.8177
   40CHL1  H26C 4136   6.026   6.720   4.598 -1.9275  1.1549  3.5969
   40CHL1   C27 4137   5.785   6.502   4.693 -0.5063  0.4605  0.0075
   40CHL1  H27A 4138   5.839   6.405   4.695  0.2716  0.8894  1.6122
   40CHL1  H27B 4139   5.712   6.513   4.776  0.0682  0.6054  0.5029
   40CHL1  H27C 4140   5.737   6.518   4.595 -2.3147  0.9722  0.9291
   41CHL1    C3 4141   3.413   0.468   6.614  1.7160  0.7416  0.5516
   41CHL1    H3 4142   3.521   0.483   6.590  1.9052 -1.1185  0.0825
   41CHL1    O3 4143   3.389   0.494   6.754  0.0037  0.2251 -0.3925
   41CHL1   H3' 4144   3.460   0.447   6.799  0.7608  1.6504 -0.0389
   41CHL1    C4 4145   3.317   0.564   6.541  0.6463 -0.0549  0.0714
   41CHL1   H4A 4146   3.215   0.551   6.582  0.7400  0.9654  0.6568
   41CHL1   H4B 4147   3.355   0.666   6.564  1.3028 -0.0501 -0.9284
   41CHL1    C5 4148   3.330   0.536   6.391 -0.5210 -0.2058  0.0340
   41CHL1    C6 4149   3.382   0.628   6.307 -0.0893 -0.5207 -0.5338
   41CHL1    H6 4150   3.398   0.728   6.350  0.0667 -1.5056  1.8748
   41CHL1    C7 4151   3.399   0.614   6.162 -0.1603  0.0654  0.4290
   41CHL1   H7A 4152   3.387   0.708   6.104  4.3877  1.9713  2.1539
   41CHL1   H7B 4153   3.507   0.598   6.145 -0.0457  0.2439  0.9718
   41CHL1    C8 4154   3.310   0.500   6.115 -0.0251  0.4021 -0.6227
   41CHL1    H8 4155   3.205   0.538   6.115 -0.2952 -0.3246  0.0480
   41CHL1   C14 4156   3.346   0.451   5.977 -0.8977  0.0348  0.1529
   41CHL1   H14 4157   3.442   0.397   5.988  1.4853  4.3132  3.9261
   41CHL1   C15 4158   3.380   0.548   5.863  0.0888  0.3763 -0.1027
   41CHL1  H15A 4159   3.300   0.624   5.867  0.0329  0.2907  0.4772
   41CHL1  H15B 4160   3.476   0.603   5.877  0.5590 -0.4536  0.0158
   41CHL1   C16 4161   3.363   0.469   5.734 -0.1636 -0.4621  0.0072
   41CHL1  H16A 4162   3.284   0.515   5.672  0.8684  0.2496 -0.8209
   41CHL1  H16B 4163   3.459   0.455   5.680  0.3881  2.8985 -0.1124
   41CHL1   C17 4164   3.313   0.326   5.775 -0.3570 -0.6621  0.1668
   41CHL1   H17 4165   3.413   0.280   5.793  0.3452 -0.2468 -2.3146
   41CHL1   C13 4166   3.256   0.338   5.919 -0.2349 -1.0425  0.0480
   41CHL1   C18 4167   3.113   0.400   5.905 -0.9056  0.1574 -0.4230
   41CHL1  H18A 4168   3.045   0.327   5.856  1.0878 -1.0995 -1.4883
   41CHL1  H18B 4169   3.064   0.422   6.002 -0.4969 -1.2875  0.1345
   41CHL1  H18C 4170   3.113   0.494   5.845 -0.1067  0.0629 -0.5900
   41CHL1   C12 4171   3.249   0.211   6.011  0.0042 -0.5548 -0.0996
   41CHL1  H12A 4172   3.184   0.131   5.971  0.3895 -0.2814 -1.3385
   41CHL1  H12B 4173   3.353   0.172   6.016 -0.3173 -1.4252 -0.1775
   41CHL1   C11 4174   3.228   0.264   6.152 -0.2857 -1.2813  0.7486
   41CHL1  H11A 4175   3.125   0.308   6.147  0.3207  0.1560  0.1253
   41CHL1  H11B 4176   3.228   0.180   6.224  0.8090 -1.8946  0.0502
   41CHL1    C9 4177   3.311   0.377   6.203 -0.1293  0.5790 -0.1225
   41CHL1    H9 4178   3.414   0.337   6.192  0.1588  1.5298 -1.0180
   41CHL1   C10 4179   3.283   0.391   6.350  0.3849  0.0639  0.2887
   41CHL1   C19 4180   3.126   0.386   6.380 -0.2221 -0.1215 -0.5560
   41CHL1  H19A 4181   3.102   0.411   6.486 -1.5634  0.4874 -0.9854
   41CHL1  H19B 4182   3.071   0.455   6.313 -0.3395  0.3261 -0.0147
   41CHL1  H19C 4183   3.088   0.283   6.360 -1.7268  0.3678 -0.3389
   41CHL1    C1 4184   3.359   0.286   6.436  0.1850 -0.6521 -0.1754
   41CHL1   H1A 4185   3.313   0.186   6.418 -0.4706 -0.5517  0.8305
   41CHL1   H1B 4186   3.464   0.270   6.403 -0.0192 -2.6659  0.0272
   41CHL1    C2 4187   3.360   0.323   6.589 -0.2777 -0.0105  0.2697
   41CHL1   H2A 4188   3.426   0.259   6.652 -2.3536 -0.9661  1.5757
   41CHL1   H2B 4189   3.255   0.323   6.625 -0.4924  1.2124 -0.3112
   41CHL1   C20 4190   3.238   0.250   5.668 -0.8460 -0.6243 -0.1569
   41CHL1   H20 4191   3.197   0.162   5.722 -2.0454 -1.0184 -1.6414
   41CHL1   C21 4192   3.347   0.189   5.575 -0.4175 -0.0256 -0.0368
   41CHL1  H21A 4193   3.423   0.262   5.543 -1.0937  0.1044 -1.3927
   41CHL1  H21B 4194   3.305   0.165   5.475  0.0628 -0.5029 -0.1273
   41CHL1  H21C 4195   3.392   0.100   5.625 -1.7435 -0.9632 -0.4359
   41CHL1   C22 4196   3.112   0.307   5.603  0.1718  0.8748  0.2896
   41CHL1  H22A 4197   3.044   0.366   5.668 -0.3363 -0.4174  0.9718
   41CHL1  H22B 4198   3.161   0.375   5.530  1.2824  1.6658  1.7176
   41CHL1   C23 4199   3.011   0.202   5.539 -0.0439 -0.7321 -0.3125
   41CHL1  H23A 4200   3.060   0.134   5.466  2.6259  0.5177  0.2135
   41CHL1  H23B 4201   2.954   0.150   5.619 -0.4117 -0.2019 -0.2242
   41CHL1   C24 4202   2.895   0.268   5.454  0.3982 -0.4795  0.0891
   41CHL1  H24A 4203   2.866   0.367   5.494 -4.5261 -1.0119 -1.5507
   41CHL1  H24B 4204   2.932   0.288   5.351  2.1034  3.6680  1.3209
   41CHL1   C25 4205   2.768   0.182   5.437  0.3672  0.5610  0.2706
   41CHL1   H25 4206   2.718   0.157   5.532  1.1501 -2.4666  0.0031
   41CHL1   C26 4207   2.661   0.261   5.366 -0.3952  0.5837  0.4040
   41CHL1  H26A 4208   2.645   0.359   5.414 -1.0707  0.6091  0.1376
   41CHL1  H26B 4209   2.706   0.281   5.267 -1.7719  0.3096 -0.2930
   41CHL1  H26C 4210   2.566   0.202   5.360 -0.1212  0.2818 -1.5322
   41CHL1   C27 4211   2.798   0.050   5.361  0.1261  0.2182  0.3825
   41CHL1  H27A 4212   2.886  -0.000   5.408  0.9698 -0.4667 -1.8267
   41CHL1  H27B 4213   2.707  -0.013   5.349 -2.1002  3.4876 -1.2340
   41CHL1  H27C 4214   2.838   0.074   5.260 -0.1246 -1.3736 -0.1321
   42CHL1    C3 4215   0.620   5.742   6.468  0.4457 -0.2615  0.0502
   42CHL1    H3 4216   0.619   5.637   6.431 -0.0891 -1.0667  2.2273
   42CHL1    O3 4217   0.660   5.741   6.604 -0.5105 -0.4939  0.1418
   42CHL1   H3' 4218   0.614   5.666   6.645 -0.2265 -0.9526 -0.3620
   42CHL1    C4 4219   0.726   5.828   6.392  0.4609  0.4084  0.2366
   42CHL1   H4A 4220   0.724   5.924   6.447 -3.7643  0.3769  0.4276
   42CHL1   H4B 4221   0.824   5.776   6.400 -0.2937 -1.1310 -0.2026
   42CHL1    C5 4222   0.675   5.846   6.251  0.3902 -0.7181  0.7690
   42CHL1    C6 4223   0.752   5.825   6.147  0.3408 -0.2304 -0.2705
   42CHL1    H6 4224   0.853   5.786   6.168 -0.0368 -1.7446 -1.0772
   42CHL1    C7 4225   0.722   5.847   6.003  0.3087 -0.1843 -0.2877
   42CHL1   H7A 4226   0.805   5.910   5.965  0.9599  1.6196  3.6157
   42CHL1   H7B 4227   0.726   5.749   5.951  1.5998  0.5825 -1.7083
   42CHL1    C8 4228   0.594   5.929   5.974 -0.3413  0.6986  0.2071
   42CHL1    H8 4229   0.613   6.037   5.992 -2.3625  0.9401  1.2239
   42CHL1   C14 4230   0.536   5.911   5.842 -0.1952  0.6271  0.4810
   42CHL1   H14 4231   0.496   5.807   5.841  0.9802  0.1563  0.9152
   42CHL1   C15 4232   0.631   5.927   5.722  0.1462  0.6207 -0.3231
   42CHL1  H15A 4233   0.715   5.999   5.732 -1.1797  2.4826 -1.7478
   42CHL1  H15B 4234   0.681   5.828   5.717  0.9378  0.9692  0.3793
   42CHL1   C16 4235   0.536   5.958   5.601  0.3602 -0.1828  0.1880
   42CHL1  H16A 4236   0.562   6.058   5.561 -2.1267  0.8288  0.8518
   42CHL1  H16B 4237   0.544   5.885   5.518 -1.3907  0.0335 -0.2131
   42CHL1   C17 4238   0.393   5.972   5.656  0.2728  0.4343 -0.8807
   42CHL1   H17 4239   0.345   5.873   5.644 -0.6293  0.9130 -1.3395
   42CHL1   C13 4240   0.416   6.000   5.806 -0.0402 -0.6680  0.1297
   42CHL1   C18 4241   0.452   6.151   5.813  0.2314 -0.1745  0.0020
   42CHL1  H18A 4242   0.491   6.180   5.913  2.7589  1.2656 -1.3149
   42CHL1  H18B 4243   0.523   6.189   5.737  1.1162 -2.1914 -0.2163
   42CHL1  H18C 4244   0.356   6.205   5.796  0.9752  0.5923 -2.0672
   42CHL1   C12 4245   0.306   5.963   5.909  0.0496 -0.1100  0.4319
   42CHL1  H12A 4246   0.227   6.041   5.915  0.4864  0.2172  2.5748
   42CHL1  H12B 4247   0.268   5.864   5.874  3.6535 -2.2586  2.1152
   42CHL1   C11 4248   0.358   5.976   6.043  0.3598 -0.7058 -0.3868
   42CHL1  H11A 4249   0.371   6.082   6.074  1.6126 -1.1257  0.6007
   42CHL1  H11B 4250   0.283   5.930   6.110  0.9056 -1.1457 -0.0716
   42CHL1    C9 4251   0.490   5.899   6.075  0.9495  0.5111  0.3704
   42CHL1    H9 4252   0.461   5.793   6.057  2.1211 -0.0509  1.5985
   42CHL1   C10 4253   0.537   5.900   6.228  0.4021 -1.1929 -0.0368
   42CHL1   C19 4254   0.533   6.056   6.266  0.1273 -0.6954  0.1137
   42CHL1  H19A 4255   0.590   6.072   6.360 -0.5204 -2.1309  0.7777
   42CHL1  H19B 4256   0.580   6.125   6.193 -0.3872 -0.1660  0.2779
   42CHL1  H19C 4257   0.431   6.100   6.274  0.6641  1.1137 -1.9567
   42CHL1    C1 4258   0.440   5.815   6.311  0.0043 -0.4192  0.0007
   42CHL1   H1A 4259   0.336   5.855   6.309  0.8217  1.8493  0.0952
   42CHL1   H1B 4260   0.443   5.718   6.257 -1.9708 -0.2986 -0.4087
   42CHL1    C2 4261   0.479   5.802   6.459 -0.6485 -0.7083  0.3758
   42CHL1   H2A 4262   0.413   5.733   6.516  0.8348 -0.4497  2.5521
   42CHL1   H2B 4263   0.472   5.902   6.506 -1.0387  0.9482 -2.9534
   42CHL1   C20 4264   0.304   6.064   5.569  0.0268 -0.0285 -0.6648
   42CHL1   H20 4265   0.334   6.171   5.570 -1.7398  0.5199  1.0849
   42CHL1   C21 4266   0.165   6.067   5.635  0.1546  0.2602  0.1590
   42CHL1  H21A 4267   0.171   6.131   5.725  1.0751  1.2863 -0.6109
   42CHL1  H21B 4268   0.139   5.965   5.672 -0.1782  0.1887 -0.2659
   42CHL1  H21C 4269   0.083   6.102   5.568  0.4340  0.1864 -0.2260
   42CHL1   C22 4270   0.280   5.997   5.431  0.0885 -0.6729 -0.8989
   42CHL1  H22A 4271   0.379   5.958   5.399 -0.0933 -2.8822  1.0018
   42CHL1  H22B 4272   0.215   5.907   5.439 -2.0085  0.8465  0.3811
   42CHL1   C23 4273   0.215   6.084   5.322 -0.9386  0.8727  0.8253
   42CHL1  H23A 4274   0.114   6.121   5.347 -1.2047  0.1474  0.8492
   42CHL1  H23B 4275   0.271   6.180   5.315  0.9333 -0.1170  1.5209
   42CHL1   C24 4276   0.216   6.021   5.181  0.2605  0.0128 -0.6764
   42CHL1  H24A 4277   0.319   6.034   5.142  1.2341 -1.1583  1.3747
   42CHL1  H24B 4278   0.184   5.916   5.194 -0.6436  0.2727 -0.7221
   42CHL1   C25 4279   0.104   6.081   5.090 -0.1209 -0.4920 -0.5223
   42CHL1   H25 4280   0.006   6.071   5.141  1.1092 -3.0841  1.6213
   42CHL1   C26 4281   0.139   6.229   5.066  0.1908 -0.2703  0.1623
   42CHL1  H26A 4282   0.224   6.242   4.996 -0.4787  2.8558 -0.2149
   42CHL1  H26B 4283   0.046   6.263   5.016  0.6532  0.6664 -0.0698
   42CHL1  H26C 4284   0.156   6.283   5.162  2.4307 -0.2576 -0.1733
   42CHL1   C27 4285   0.094   6.006   4.955 -0.2883 -0.1600 -0.2554
   42CHL1  H27A 4286   0.195   5.993   4.912  1.6357  0.0888  3.7250
   42CHL1  H27B 4287   0.042   5.908   4.960 -1.0606  0.2554  0.0123
   42CHL1  H27C 4288   0.032   6.066   4.886 -0.7042 -0.8195 -0.4662
   43CHL1    C3 4289   2.283   3.784   6.400  0.3044  0.2038  1.7171
   43CHL1    H3 4290   2.227   3.872   6.362 -0.3440 -0.6885  0.5449
   43CHL1    O3 4291   2.278   3.783   6.535  0.2305 -0.0512 -0.0633
   43CHL1   H3' 4292   2.311   3.697   6.561 -1.1812 -1.1260 -1.6598
   43CHL1    C4 4293   2.222   3.649   6.342 -0.0412  0.2979 -0.3463
   43CHL1   H4A 4294   2.276   3.565   6.392  0.4706  1.1754  0.6306
   43CHL1   H4B 4295   2.117   3.640   6.377  0.7718 -0.2007  2.2108
   43CHL1    C5 4296   2.251   3.630   6.197 -0.2364 -0.0143 -0.0942
   43CHL1    C6 4297   2.145   3.602   6.123 -0.1737  0.1882 -0.3070
   43CHL1    H6 4298   2.051   3.589   6.178  0.2848 -1.1717  0.2016
   43CHL1    C7 4299   2.144   3.571   5.977  0.7671  0.4252  0.1299
   43CHL1   H7A 4300   2.105   3.469   5.959  0.7187  0.4714 -0.0283
   43CHL1   H7B 4301   2.086   3.644   5.917  0.6041 -0.4051 -0.7428
   43CHL1    C8 4302   2.294   3.559   5.929 -0.1310  0.0831  0.1309
   43CHL1    H8 4303   2.316   3.453   5.952 -0.4315  0.2050  1.0316
   43CHL1   C14 4304   2.296   3.578   5.776  0.0505 -0.8591  0.2958
   43CHL1   H14 4305   2.282   3.685   5.750 -1.9944 -1.4854 -1.5280
   43CHL1   C15 4306   2.198   3.501   5.685  0.7186 -0.1548 -0.1062
   43CHL1  H15A 4307   2.167   3.406   5.734 -0.7288 -0.5537 -1.6939
   43CHL1  H15B 4308   2.102   3.553   5.666  1.2366  1.2315  0.9244
   43CHL1   C16 4309   2.271   3.475   5.556  0.5268 -0.3892  0.3820
   43CHL1  H16A 4310   2.267   3.364   5.548 -2.7186 -0.4682  1.7278
   43CHL1  H16B 4311   2.215   3.509   5.466 -0.7339 -0.1795  1.2303
   43CHL1   C17 4312   2.411   3.547   5.569 -0.2298  0.6079 -0.8476
   43CHL1   H17 4313   2.391   3.654   5.546 -2.7244  0.0516 -1.5104
   43CHL1   C13 4314   2.435   3.551   5.720 -0.0743  0.0032  0.0330
   43CHL1   C18 4315   2.477   3.409   5.765 -0.4268  0.3801  0.0914
   43CHL1  H18A 4316   2.417   3.333   5.710 -0.3455  1.2774 -1.3167
   43CHL1  H18B 4317   2.579   3.389   5.726 -1.1003  2.9496 -3.5816
   43CHL1  H18C 4318   2.499   3.390   5.872  1.8512  1.3229 -0.1467
   43CHL1   C12 4319   2.526   3.664   5.781 -0.5588 -0.1890  0.1703
   43CHL1  H12A 4320   2.628   3.663   5.737 -0.7207  0.6519 -0.2437
   43CHL1  H12B 4321   2.495   3.769   5.763 -0.0819 -0.0324  0.2311
   43CHL1   C11 4322   2.533   3.660   5.933  0.3790 -0.0688  0.3537
   43CHL1  H11A 4323   2.590   3.574   5.973 -0.3195 -0.0957  1.3148
   43CHL1  H11B 4324   2.594   3.746   5.966 -1.0658  0.9473  0.4838
   43CHL1    C9 4325   2.394   3.657   5.993  0.3855  0.1785 -0.3506
   43CHL1    H9 4326   2.350   3.753   5.959 -1.3294 -0.0494  1.0982
   43CHL1   C10 4327   2.392   3.642   6.142  0.3785  0.1841  0.4536
   43CHL1   C19 4328   2.473   3.509   6.189 -0.5402 -0.2470  0.0043
   43CHL1  H19A 4329   2.580   3.524   6.162 -0.5894  1.5219  0.6010
   43CHL1  H19B 4330   2.464   3.499   6.300 -3.1989  0.7616 -0.0541
   43CHL1  H19C 4331   2.436   3.423   6.131 -1.4085  0.0233  0.1498
   43CHL1    C1 4332   2.453   3.766   6.207 -0.0647 -0.3355  0.5592
   43CHL1   H1A 4333   2.563   3.756   6.194  0.0339  0.6089  0.5501
   43CHL1   H1B 4334   2.413   3.854   6.153  1.9103  0.4108  0.2273
   43CHL1    C2 4335   2.427   3.778   6.361 -0.9459 -0.2354  0.5528
   43CHL1   H2A 4336   2.478   3.870   6.398  0.2711 -0.4239 -0.5772
   43CHL1   H2B 4337   2.488   3.697   6.405  1.4178  0.9450 -0.3296
   43CHL1   C20 4338   2.522   3.506   5.471  0.6041 -0.5588 -0.0076
   43CHL1   H20 4339   2.617   3.541   5.518 -0.5579  0.2945  1.8367
   43CHL1   C21 4340   2.499   3.588   5.341  0.6241  0.1619  0.2132
   43CHL1  H21A 4341   2.502   3.697   5.361  2.5578 -0.0365  1.3049
   43CHL1  H21B 4342   2.404   3.554   5.295  0.8851 -0.4375  0.0957
   43CHL1  H21C 4343   2.586   3.567   5.275  0.4559 -0.9722  0.3294
   43CHL1   C22 4344   2.530   3.356   5.436  0.4948 -0.4487  0.0479
   43CHL1  H22A 4345   2.531   3.287   5.523 -0.4427 -0.3487  0.1564
   43CHL1  H22B 4346   2.441   3.335   5.373 -0.6822 -0.3703  1.6342
   43CHL1   C23 4347   2.638   3.323   5.327 -0.2452  0.4478  0.2852
   43CHL1  H23A 4348   2.635   3.213   5.317 -1.0317  0.4453  0.5342
   43CHL1  H23B 4349   2.613   3.358   5.225 -2.1624 -0.3846  0.4313
   43CHL1   C24 4350   2.778   3.360   5.377 -0.2613  0.0330 -0.0255
   43CHL1  H24A 4351   2.795   3.470   5.375 -2.9002  0.4948 -1.6424
   43CHL1  H24B 4352   2.801   3.313   5.475  1.5865 -0.1795 -0.5140
   43CHL1   C25 4353   2.894   3.298   5.283  0.4083  0.6625 -0.1333
   43CHL1   H25 4354   2.889   3.190   5.309  0.2707  0.7212  0.0902
   43CHL1   C26 4355   2.880   3.334   5.143 -0.3907  0.5768  0.2544
   43CHL1  H26A 4356   2.963   3.308   5.074 -1.9871  0.1022 -1.5785
   43CHL1  H26B 4357   2.782   3.296   5.106 -1.3090 -0.5298  3.4823
   43CHL1  H26C 4358   2.868   3.444   5.146 -0.1867  0.6060  3.3185
   43CHL1   C27 4359   3.037   3.338   5.331  0.2756 -0.2687 -0.1601
   43CHL1  H27A 4360   3.105   3.258   5.296 -3.6935 -4.1492  0.1633
   43CHL1  H27B 4361   3.059   3.437   5.286 -1.8602  0.6022  0.5807
   43CHL1  H27C 4362   3.043   3.340   5.442  1.6576 -1.9419 -0.1598
   44CHL1    C3 4363   1.283   4.649   6.424  0.2118 -0.5062  0.0382
   44CHL1    H3 4364   1.195   4.600   6.377 -0.7508 -1.7232  2.9049
   44CHL1    O3 4365   1.254   4.695   6.557 -0.4850  0.2555  0.1884
   44CHL1   H3' 4366   1.224   4.612   6.594 -0.9827 -0.3922 -1.5736
   44CHL1    C4 4367   1.397   4.549   6.433 -0.7527 -0.6330  0.2054
   44CHL1   H4A 4368   1.479   4.603   6.484 -0.8834 -0.3618  0.1273
   44CHL1   H4B 4369   1.389   4.465   6.505 -0.2862  1.9511  3.5074
   44CHL1    C5 4370   1.450   4.509   6.297  0.6013  0.1343  0.2103
   44CHL1    C6 4371   1.459   4.384   6.260 -0.3621  0.9523  0.1330
   44CHL1    H6 4372   1.439   4.309   6.338 -0.5744 -1.6291 -2.2096
   44CHL1    C7 4373   1.514   4.335   6.123  0.0918  0.1937 -0.6301
   44CHL1   H7A 4374   1.583   4.249   6.137 -0.9829 -0.3423  2.2005
   44CHL1   H7B 4375   1.439   4.281   6.060 -0.2347  1.6835 -1.5631
   44CHL1    C8 4376   1.589   4.439   6.044 -0.6709 -0.2831 -0.3209
   44CHL1    H8 4377   1.684   4.461   6.096 -1.5831  4.0017 -0.0854
   44CHL1   C14 4378   1.609   4.399   5.900  0.0973  0.1332  0.6948
   44CHL1   H14 4379   1.508   4.408   5.855 -0.1269  1.7869  1.4595
   44CHL1   C15 4380   1.671   4.266   5.870 -0.1734 -0.2558 -0.2870
   44CHL1  H15A 4381   1.762   4.256   5.934 -1.2932 -0.6884  1.2799
   44CHL1  H15B 4382   1.608   4.176   5.885 -1.6216  0.6138 -0.9950
   44CHL1   C16 4383   1.720   4.275   5.723  0.7138  0.7596 -0.1398
   44CHL1  H16A 4384   1.817   4.221   5.716  0.3142 -0.1222  0.8767
   44CHL1  H16B 4385   1.647   4.218   5.661 -0.2031  0.8249  0.8502
   44CHL1   C17 4386   1.704   4.426   5.689 -0.1588 -0.4267  0.1588
   44CHL1   H17 4387   1.605   4.438   5.640  0.2889 -3.0883 -1.6639
   44CHL1   C13 4388   1.686   4.497   5.816  0.3463 -0.2195 -0.4324
   44CHL1   C18 4389   1.828   4.523   5.873 -0.7459  1.2074 -0.2133
   44CHL1  H18A 4390   1.884   4.427   5.873 -1.4313  0.7911 -0.4098
   44CHL1  H18B 4391   1.889   4.594   5.814  0.7808 -0.1923 -0.4036
   44CHL1  H18C 4392   1.829   4.548   5.981 -1.9035 -2.3125  0.7819
   44CHL1   C12 4393   1.609   4.629   5.817  0.7408 -0.1140  0.8914
   44CHL1  H12A 4394   1.647   4.726   5.781  1.3116  0.1138  2.0634
   44CHL1  H12B 4395   1.511   4.604   5.770  0.8463  0.8538  0.1108
   44CHL1   C11 4396   1.585   4.683   5.959  0.4032  0.1761  0.0933
   44CHL1  H11A 4397   1.686   4.713   5.993  1.1549  0.1909 -1.9760
   44CHL1  H11B 4398   1.515   4.769   5.955  1.5522  1.1113 -0.4017
   44CHL1    C9 4399   1.516   4.574   6.054  0.1130  0.0143  0.1893
   44CHL1    H9 4400   1.416   4.559   6.010  0.1697  0.4263 -0.0782
   44CHL1   C10 4401   1.485   4.624   6.201  1.2575  0.7665  1.0114
   44CHL1   C19 4402   1.616   4.697   6.251  0.1659 -0.3649 -0.4522
   44CHL1  H19A 4403   1.631   4.786   6.187 -3.1385  0.1679 -0.6962
   44CHL1  H19B 4404   1.598   4.731   6.355 -0.1127  1.9483 -1.1914
   44CHL1  H19C 4405   1.706   4.634   6.237 -0.0278 -0.9633  0.8629
   44CHL1    C1 4406   1.371   4.735   6.198  0.0650  0.2769  0.1751
   44CHL1   H1A 4407   1.399   4.824   6.137 -2.0093  1.0164  0.2427
   44CHL1   H1B 4408   1.283   4.700   6.140 -1.1035  3.3631 -0.1332
   44CHL1    C2 4409   1.323   4.768   6.339  0.5060  0.0144 -0.0708
   44CHL1   H2A 4410   1.243   4.846   6.331  0.4377 -0.0597 -0.1138
   44CHL1   H2B 4411   1.411   4.814   6.388 -0.3418 -0.0806  1.6078
   44CHL1   C20 4412   1.803   4.477   5.580  0.0315 -0.5807 -0.3249
   44CHL1   H20 4413   1.901   4.499   5.627  1.7001 -1.4421 -3.1743
   44CHL1   C21 4414   1.748   4.616   5.523  0.0241  0.5303 -0.0493
   44CHL1  H21A 4415   1.780   4.700   5.588  0.8881 -0.7830  1.2645
   44CHL1  H21B 4416   1.637   4.619   5.520  0.0622  2.1706 -0.9537
   44CHL1  H21C 4417   1.796   4.636   5.425 -0.3676 -3.0398 -1.1235
   44CHL1   C22 4418   1.837   4.368   5.474 -0.4871 -0.8453  0.0252
   44CHL1  H22A 4419   1.901   4.291   5.522  2.7746  1.0686 -0.9220
   44CHL1  H22B 4420   1.744   4.319   5.437 -0.6156 -1.3339  0.9533
   44CHL1   C23 4421   1.926   4.418   5.351 -0.5923  0.2101 -0.9658
   44CHL1  H23A 4422   1.866   4.492   5.294 -0.2773 -0.1906 -1.8452
   44CHL1  H23B 4423   2.013   4.477   5.387 -1.4763  2.2608 -2.0092
   44CHL1   C24 4424   1.953   4.303   5.255 -0.1029  1.1639  0.0703
   44CHL1  H24A 4425   2.034   4.238   5.297  0.4324  2.1852  0.6579
   44CHL1  H24B 4426   1.860   4.242   5.255 -0.3421  1.5175 -0.9911
   44CHL1   C25 4427   1.995   4.340   5.111 -0.3910 -0.8330 -0.6993
   44CHL1   H25 4428   2.040   4.249   5.064  4.0708  1.4798 -1.4830
   44CHL1   C26 4429   1.876   4.384   5.032 -0.9016  0.3322 -0.3676
   44CHL1  H26A 4430   1.818   4.471   5.070 -1.7506  0.2030 -1.3373
   44CHL1  H26B 4431   1.910   4.414   4.930  1.6962  0.2099  0.3862
   44CHL1  H26C 4432   1.809   4.296   5.041 -2.7600  1.8802  2.7812
   44CHL1   C27 4433   2.101   4.450   5.118 -0.5061  0.5196 -0.1345
   44CHL1  H27A 4434   2.040   4.540   5.140 -0.8150  0.1760  0.4407
   44CHL1  H27B 4435   2.178   4.439   5.198  0.7658  1.1327 -1.2359
   44CHL1  H27C 4436   2.147   4.456   5.017 -0.9216 -0.7613 -0.4158
   45CHL1    C3 4437   3.439   5.525   6.500  0.8154  0.4638  0.5131
   45CHL1    H3 4438   3.410   5.418   6.496 -0.1313  0.7359 -0.1814
   45CHL1    O3 4439   3.446   5.564   6.636  0.0205 -0.2629  0.5192
   45CHL1   H3' 4440   3.501   5.643   6.630  0.7567 -0.8491 -2.3468
   45CHL1    C4 4441   3.580   5.553   6.431 -0.1167 -0.1030  0.0076
   45CHL1   H4A 4442   3.595   5.661   6.448  0.3864  0.0015 -1.0164
   45CHL1   H4B 4443   3.645   5.488   6.494 -1.8406 -1.4324  0.5085
   45CHL1    C5 4444   3.584   5.510   6.282  0.2138 -0.2409 -0.5178
   45CHL1    C6 4445   3.664   5.419   6.218  0.2683  0.4561  0.6864
   45CHL1    H6 4446   3.741   5.382   6.288 -0.6425  0.6001  1.8042
   45CHL1    C7 4447   3.666   5.367   6.073 -0.0661 -0.1751  0.4989
   45CHL1   H7A 4448   3.773   5.374   6.046  0.0307 -0.7769  0.7259
   45CHL1   H7B 4449   3.629   5.263   6.060  0.7753 -0.4850  0.5601
   45CHL1    C8 4450   3.593   5.469   5.977  0.3231  0.0604 -0.5969
   45CHL1    H8 4451   3.658   5.558   5.968 -0.7581  1.0173  0.7364
   45CHL1   C14 4452   3.555   5.403   5.846  0.4483  0.0362  0.1573
   45CHL1   H14 4453   3.487   5.320   5.874 -1.7953  1.3035 -1.2667
   45CHL1   C15 4454   3.663   5.338   5.752  0.4051  0.7217  0.0767
   45CHL1  H15A 4455   3.760   5.392   5.751 -0.0290  1.5390  0.6243
   45CHL1  H15B 4456   3.691   5.231   5.766  1.2142  1.2051  2.9167
   45CHL1   C16 4457   3.604   5.342   5.608 -0.0847  0.1595  0.0544
   45CHL1  H16A 4458   3.663   5.409   5.542 -1.3628 -0.0356 -1.3608
   45CHL1  H16B 4459   3.595   5.247   5.551 -1.5987  0.4107 -0.1811
   45CHL1   C17 4460   3.470   5.406   5.621  0.6683  0.3776  0.7137
   45CHL1   H17 4461   3.393   5.328   5.636 -0.2723  0.9983 -0.7211
   45CHL1   C13 4462   3.477   5.490   5.747 -0.0617  0.2642  0.2812
   45CHL1   C18 4463   3.559   5.621   5.717 -0.3954 -0.3550  0.3068
   45CHL1  H18A 4464   3.641   5.594   5.648 -1.4026 -2.1853 -0.2414
   45CHL1  H18B 4465   3.487   5.688   5.666  0.4577 -0.0343 -0.5021
   45CHL1  H18C 4466   3.586   5.670   5.814  2.1840 -1.5999  0.3029
   45CHL1   C12 4467   3.346   5.518   5.829 -0.7847 -0.0201 -0.1714
   45CHL1  H12A 4468   3.282   5.580   5.763  1.2123 -0.0472 -2.2596
   45CHL1  H12B 4469   3.284   5.427   5.845  1.3796 -1.7498 -1.1401
   45CHL1   C11 4470   3.370   5.590   5.962  0.5980 -0.0908  0.9937
   45CHL1  H11A 4471   3.426   5.681   5.932 -0.9197  0.8954  1.0683
   45CHL1  H11B 4472   3.285   5.616   6.028  0.6732 -0.3450  1.1902
   45CHL1    C9 4473   3.462   5.510   6.053  0.5459  0.6832 -0.0430
   45CHL1    H9 4474   3.403   5.417   6.064 -0.0204  0.8760 -1.2695
   45CHL1   C10 4475   3.468   5.571   6.198  0.3209 -0.1969  0.9203
   45CHL1   C19 4476   3.499   5.724   6.191 -0.6950 -0.9775 -0.0826
   45CHL1  H19A 4477   3.515   5.771   6.290  1.1339  0.3662 -0.9471
   45CHL1  H19B 4478   3.596   5.726   6.138 -0.5094 -0.5044  0.2636
   45CHL1  H19C 4479   3.429   5.785   6.129  0.2129 -0.9227 -1.0992
   45CHL1    C1 4480   3.335   5.551   6.273  1.2033 -0.4832  0.5064
   45CHL1   H1A 4481   3.252   5.615   6.235  3.0312  2.2555  0.8059
   45CHL1   H1B 4482   3.312   5.443   6.276 -0.6816 -0.2071 -1.5533
   45CHL1    C2 4483   3.342   5.610   6.416 -0.0420 -0.6567 -0.0692
   45CHL1   H2A 4484   3.240   5.592   6.456 -1.2222  0.2332 -2.4743
   45CHL1   H2B 4485   3.359   5.719   6.420  1.2943 -0.8539  0.2530
   45CHL1   C20 4486   3.418   5.482   5.488  0.3461  0.4774 -0.0884
   45CHL1   H20 4487   3.480   5.572   5.468 -1.9530  1.7194 -2.2955
   45CHL1   C21 4488   3.274   5.529   5.501  0.2959  0.1090 -0.1208
   45CHL1  H21A 4489   3.264   5.634   5.535  0.5486 -0.3176  1.3339
   45CHL1  H21B 4490   3.222   5.469   5.579  0.5403  0.1043  0.0406
   45CHL1  H21C 4491   3.214   5.535   5.408 -0.5577  2.8169  0.5244
   45CHL1   C22 4492   3.430   5.397   5.359 -0.0676  0.2572 -0.7254
   45CHL1  H22A 4493   3.398   5.480   5.292 -0.4079  0.3955 -0.3983
   45CHL1  H22B 4494   3.539   5.375   5.352 -0.1250 -0.1684 -0.3394
   45CHL1   C23 4495   3.340   5.279   5.338  0.5153  1.2505  0.4227
   45CHL1  H23A 4496   3.315   5.226   5.433 -2.3206  1.9649  0.1690
   45CHL1  H23B 4497   3.241   5.315   5.304 -0.6540 -1.0155  1.2098
   45CHL1   C24 4498   3.415   5.188   5.235 -0.1398 -0.3902 -0.5954
   45CHL1  H24A 4499   3.524   5.185   5.257  0.5161 -0.2914 -3.4613
   45CHL1  H24B 4500   3.372   5.086   5.233  2.2212 -1.4683 -0.0233
   45CHL1   C25 4501   3.396   5.246   5.101  0.5087  0.1260 -0.8635
   45CHL1   H25 4502   3.403   5.357   5.107  0.6995  0.0769  0.1303
   45CHL1   C26 4503   3.490   5.190   4.994  0.6401  0.1739 -0.6491
   45CHL1  H26A 4504   3.484   5.257   4.906  1.3006  0.5901 -0.3795
   45CHL1  H26B 4505   3.596   5.195   5.027  1.0142  2.0533 -1.9820
   45CHL1  H26C 4506   3.461   5.087   4.963  2.8096 -0.8379  0.4827
   45CHL1   C27 4507   3.253   5.225   5.041 -0.0108 -0.9789 -1.1440
   45CHL1  H27A 4508   3.239   5.118   5.014  3.8090 -2.0585  0.4670
   45CHL1  H27B 4509   3.177   5.248   5.120  0.4042 -2.9446 -0.0937
   45CHL1  H27C 4510   3.232   5.278   4.946 -2.3663  0.9230  0.3130
   46CHL1    C3 4511   3.283   1.908   6.515 -0.2969 -0.4167 -0.3086
   46CHL1    H3 4512   3.174   1.899   6.497 -0.2360  0.0201 -0.9069
   46CHL1    O3 4513   3.297   1.964   6.648 -0.0204  0.2486  0.3857
   46CHL1   H3' 4514   3.392   1.976   6.661  0.3545 -1.5878 -0.3541
   46CHL1    C4 4515   3.345   1.774   6.493 -0.3193 -0.1373  0.1304
   46CHL1   H4A 4516   3.454   1.787   6.513 -0.4256  1.8422 -0.3659
   46CHL1   H4B 4517   3.304   1.702   6.566 -1.4425 -0.0093 -0.3598
   46CHL1    C5 4518   3.352   1.732   6.346 -0.1905  0.2158 -0.4498
   46CHL1    C6 4519   3.294   1.615   6.312 -0.6161 -0.6327 -0.2723
   46CHL1    H6 4520   3.256   1.551   6.393 -2.4014 -1.5103 -1.7403
   46CHL1    C7 4521   3.297   1.573   6.166  0.1138  0.1834 -0.1504
   46CHL1   H7A 4522   3.337   1.469   6.160  0.6654  0.4231 -0.7563
   46CHL1   H7B 4523   3.190   1.582   6.140  0.3923 -1.9642 -2.4169
   46CHL1    C8 4524   3.378   1.661   6.065  0.2113 -0.2997 -0.9461
   46CHL1    H8 4525   3.487   1.639   6.074  0.6961  2.2603  0.7990
   46CHL1   C14 4526   3.329   1.636   5.925 -0.4769  0.3060  0.2755
   46CHL1   H14 4527   3.225   1.672   5.935 -0.0336  1.5255  0.6572
   46CHL1   C15 4528   3.327   1.496   5.881 -0.2906  0.2912 -0.2658
   46CHL1  H15A 4529   3.420   1.438   5.896  0.7195  1.3632 -2.0069
   46CHL1  H15B 4530   3.248   1.434   5.929  0.4602 -0.8540 -0.4700
   46CHL1   C16 4531   3.314   1.502   5.726 -0.4951  0.2204 -0.4693
   46CHL1  H16A 4532   3.401   1.444   5.686  0.7441  0.2482  1.9533
   46CHL1  H16B 4533   3.216   1.450   5.716 -0.5068 -0.4341  2.2091
   46CHL1   C17 4534   3.312   1.653   5.690 -0.5528 -0.4342 -0.1586
   46CHL1   H17 4535   3.206   1.684   5.696 -0.9439 -0.3574 -4.5684
   46CHL1   C13 4536   3.382   1.718   5.811 -0.8823 -0.6055  0.1636
   46CHL1   C18 4537   3.535   1.690   5.799 -0.0193  0.2665 -0.4245
   46CHL1  H18A 4538   3.564   1.751   5.711 -0.9540  1.4729  0.0688
   46CHL1  H18B 4539   3.595   1.717   5.889 -2.1367  0.2626  1.0633
   46CHL1  H18C 4540   3.552   1.582   5.779 -0.3830 -0.7845  3.8719
   46CHL1   C12 4541   3.372   1.868   5.846  0.3392  0.3165 -0.9513
   46CHL1  H12A 4542   3.430   1.926   5.772 -0.6129  0.3676 -1.6916
   46CHL1  H12B 4543   3.266   1.902   5.856  0.9315  2.3193 -1.1844
   46CHL1   C11 4544   3.431   1.905   5.990 -0.1017 -0.3336  0.5097
   46CHL1  H11A 4545   3.541   1.899   6.003 -0.1100 -0.4811  0.5168
   46CHL1  H11B 4546   3.414   2.015   6.000 -0.3520 -0.5356  2.6121
   46CHL1    C9 4547   3.360   1.815   6.095  0.3329 -0.1124 -0.8174
   46CHL1    H9 4548   3.251   1.830   6.085  0.1537 -0.0018  1.0012
   46CHL1   C10 4549   3.399   1.836   6.244  0.3481  0.2557  0.4690
   46CHL1   C19 4550   3.548   1.849   6.267 -0.7055 -0.4626 -0.0347
   46CHL1  H19A 4551   3.588   1.931   6.205 -0.2576 -1.0183 -0.4915
   46CHL1  H19B 4552   3.573   1.866   6.374  0.4507 -0.3213 -0.3102
   46CHL1  H19C 4553   3.600   1.752   6.252 -1.4626 -1.1775  1.6613
   46CHL1    C1 4554   3.339   1.978   6.279  0.4213 -0.0242 -0.3924
   46CHL1   H1A 4555   3.393   2.058   6.224 -1.2366  1.1453 -0.3983
   46CHL1   H1B 4556   3.233   1.983   6.246  1.3570  1.0189 -3.6288
   46CHL1    C2 4557   3.337   2.021   6.425 -0.7996  0.4814 -0.7139
   46CHL1   H2A 4558   3.278   2.114   6.438  0.8339  1.3702  0.7897
   46CHL1   H2B 4559   3.438   2.044   6.465 -0.9982 -0.3919  0.3287
   46CHL1   C20 4560   3.353   1.677   5.546 -0.0312 -0.0490  0.6436
   46CHL1   H20 4561   3.462   1.665   5.528 -0.2807 -0.8351 -0.4090
   46CHL1   C21 4562   3.322   1.826   5.517  0.2472 -0.4603  0.4470
   46CHL1  H21A 4563   3.211   1.832   5.522 -0.1057 -3.8172 -0.8356
   46CHL1  H21B 4564   3.353   1.851   5.413  0.8309 -1.9020  0.2547
   46CHL1  H21C 4565   3.359   1.904   5.586 -1.5923 -0.1498  1.1516
   46CHL1   C22 4566   3.290   1.587   5.449 -0.0892  0.2144  0.5009
   46CHL1  H22A 4567   3.293   1.479   5.474  0.0055 -0.0180 -0.5039
   46CHL1  H22B 4568   3.181   1.604   5.437  0.0335 -0.6571 -2.7805
   46CHL1   C23 4569   3.374   1.597   5.316  0.7865  0.1133  0.0159
   46CHL1  H23A 4570   3.344   1.692   5.267 -0.3562  0.4418  1.2752
   46CHL1  H23B 4571   3.483   1.612   5.334  1.3611  0.9397 -3.5372
   46CHL1   C24 4572   3.357   1.476   5.219 -0.0096  0.3259  0.5015
   46CHL1  H24A 4573   3.416   1.395   5.267  2.4989  0.5281 -1.9355
   46CHL1  H24B 4574   3.249   1.451   5.221 -0.3048  1.6135  1.1607
   46CHL1   C25 4575   3.423   1.500   5.087 -0.0664  0.2649  0.0703
   46CHL1   H25 4576   3.527   1.525   5.116  0.7695 -2.2438 -0.5019
   46CHL1   C26 4577   3.425   1.376   5.005  0.7608  0.6799  0.3807
   46CHL1  H26A 4578   3.326   1.332   4.979  1.6076 -1.2858  0.2719
   46CHL1  H26B 4579   3.481   1.372   4.909  3.4967 -1.3185  1.9227
   46CHL1  H26C 4580   3.474   1.302   5.071 -2.2409 -0.9040  1.0211
   46CHL1   C27 4581   3.351   1.622   5.010  0.3176  0.5413 -0.7053
   46CHL1  H27A 4582   3.393   1.644   4.909  0.5060 -1.2377 -1.0559
   46CHL1  H27B 4583   3.243   1.604   4.990  0.1368  1.2629 -0.4097
   46CHL1  H27C 4584   3.358   1.716   5.068  0.5484  0.0506  0.0750
   47CHL1    C3 4585   3.938   0.193   6.638 -0.5214  0.5863 -0.0063
   47CHL1    H3 4586   4.030   0.252   6.621  0.8233 -1.5386 -0.4811
   47CHL1    O3 4587   3.921   0.160   6.771  0.0277  0.1709  0.2507
   47CHL1   H3' 4588   3.827   0.141   6.776  0.1982 -1.1250 -0.9403
   47CHL1    C4 4589   3.813   0.264   6.588  0.3606  0.6077  0.5831
   47CHL1   H4A 4590   3.719   0.211   6.613  0.8233 -0.1947  0.6447
   47CHL1   H4B 4591   3.814   0.366   6.631 -0.4717  0.7056  0.3867
   47CHL1    C5 4592   3.818   0.267   6.435  0.9651 -1.1115 -1.1044
   47CHL1    C6 4593   3.802   0.380   6.377 -0.0306 -0.1846  0.9690
   47CHL1    H6 4594   3.787   0.474   6.431  2.6835  1.8301 -1.4708
   47CHL1    C7 4595   3.801   0.396   6.229 -0.5449  0.2488  0.4294
   47CHL1   H7A 4596   3.730   0.472   6.191 -0.7103 -1.0159 -1.9649
   47CHL1   H7B 4597   3.900   0.430   6.192 -1.3314  0.2002 -1.8622
   47CHL1    C8 4598   3.780   0.268   6.146 -0.3452 -0.7273  0.7395
   47CHL1    H8 4599   3.674   0.237   6.154 -0.1365 -1.2730  1.4186
   47CHL1   C14 4600   3.818   0.290   5.996  0.1576 -0.3888  0.1691
   47CHL1   H14 4601   3.927   0.314   5.996 -0.2983  1.9321  1.0900
   47CHL1   C15 4602   3.769   0.411   5.919 -0.0015 -1.1485  0.3958
   47CHL1  H15A 4603   3.660   0.420   5.935 -0.0027  1.5973 -0.6572
   47CHL1  H15B 4604   3.816   0.503   5.961 -0.1887 -0.4040 -0.9781
   47CHL1   C16 4605   3.800   0.378   5.773 -0.9052  0.0965  0.7378
   47CHL1  H16A 4606   3.704   0.361   5.719 -1.0506  1.1437  0.6407
   47CHL1  H16B 4607   3.853   0.461   5.722 -1.5673  0.4098  0.5369
   47CHL1   C17 4608   3.860   0.232   5.774  0.9473  0.4785 -0.3415
   47CHL1   H17 4609   3.970   0.247   5.780  0.8114  1.1912  0.7379
   47CHL1   C13 4610   3.816   0.166   5.912 -0.3267  0.1508 -0.7798
   47CHL1   C18 4611   3.676   0.114   5.891 -0.6266 -0.4908 -0.1336
   47CHL1  H18A 4612   3.636   0.077   5.987  0.0996 -0.6552  0.1174
   47CHL1  H18B 4613   3.603   0.189   5.854 -0.6406 -1.3122 -1.9156
   47CHL1  H18C 4614   3.682   0.029   5.819 -2.7724 -0.6011 -0.2403
   47CHL1   C12 4615   3.918   0.072   5.966  0.1502 -0.0643 -0.1587
   47CHL1  H12A 4616   3.908  -0.029   5.920 -2.2396 -0.0700  0.2618
   47CHL1  H12B 4617   4.017   0.121   5.955 -0.3259  0.6890 -1.2847
   47CHL1   C11 4618   3.893   0.044   6.110 -0.5540 -0.0545 -0.3197
   47CHL1  H11A 4619   3.800  -0.015   6.120 -0.4527  0.0107  1.3567
   47CHL1  H11B 4620   3.964  -0.030   6.155 -2.5571 -1.6708  0.3084
   47CHL1    C9 4621   3.877   0.169   6.205 -0.3655  0.6495 -0.2534
   47CHL1    H9 4622   3.974   0.221   6.216  1.0756 -2.2645  2.3413
   47CHL1   C10 4623   3.853   0.137   6.358  0.0350 -0.3041 -0.0677
   47CHL1   C19 4624   3.730   0.043   6.369  0.1920 -0.8701  0.2324
   47CHL1  H19A 4625   3.634   0.080   6.327  0.1898 -0.8657  0.2412
   47CHL1  H19B 4626   3.769  -0.053   6.327  2.9733 -0.3898  1.4805
   47CHL1  H19C 4627   3.715   0.025   6.477  2.6527 -0.2784  0.7215
   47CHL1    C1 4628   3.972   0.062   6.424  0.6594 -0.1450  0.0164
   47CHL1   H1A 4629   3.969  -0.037   6.373 -0.2339 -0.6832  1.0819
   47CHL1   H1B 4630   4.065   0.112   6.389  0.4109 -0.8629 -1.8258
   47CHL1    C2 4631   3.963   0.058   6.570 -0.5834  0.8929 -0.5985
   47CHL1   H2A 4632   4.058   0.018   6.610 -1.9489  0.6172  2.6221
   47CHL1   H2B 4633   3.886  -0.009   6.615  0.0212  1.4836  1.4175
   47CHL1   C20 4634   3.840   0.162   5.629 -0.7728 -0.4696 -0.3222
   47CHL1   H20 4635   3.732   0.157   5.605 -0.9046 -0.8071  0.3200
   47CHL1   C21 4636   3.904   0.016   5.634  0.6573  0.3195 -0.4811
   47CHL1  H21A 4637   3.891  -0.018   5.529 -0.2607  1.5924 -0.8089
   47CHL1  H21B 4638   3.841  -0.035   5.710  0.2412  1.7852  0.1837
   47CHL1  H21C 4639   4.009   0.017   5.668  0.4816 -0.0553  0.0849
   47CHL1   C22 4640   3.903   0.254   5.515 -0.2433 -0.4686  0.3845
   47CHL1  H22A 4641   3.865   0.358   5.523  2.8848  0.8442 -0.3928
   47CHL1  H22B 4642   4.012   0.261   5.534  0.0285 -0.3203 -1.0770
   47CHL1   C23 4643   3.883   0.205   5.370 -0.2823  0.1126  0.7712
   47CHL1  H23A 4644   3.969   0.136   5.354 -0.2014  0.2307  0.6958
   47CHL1  H23B 4645   3.788   0.148   5.360 -0.4058  0.1094  1.8614
   47CHL1   C24 4646   3.881   0.310   5.260  0.2043 -0.3511 -0.6116
   47CHL1  H24A 4647   3.830   0.403   5.292  2.1473  0.5057  0.1088
   47CHL1  H24B 4648   3.985   0.341   5.239  1.0627 -2.5105  0.2091
   47CHL1   C25 4649   3.818   0.249   5.129 -0.1778 -0.5074  0.1607
   47CHL1   H25 4650   3.719   0.212   5.161 -0.6335  1.3946  1.1188
   47CHL1   C26 4651   3.802   0.352   5.023 -0.4163 -0.2290  0.0933
   47CHL1  H26A 4652   3.897   0.405   5.000 -0.8641  0.7799  0.4971
   47CHL1  H26B 4653   3.764   0.308   4.928  0.3721  0.3971 -0.5210
   47CHL1  H26C 4654   3.724   0.427   5.048  0.6362  0.2006  2.2410
   47CHL1   C27 4655   3.891   0.124   5.075 -0.4266 -0.0794  0.6443
   47CHL1  H27A 4656   3.987   0.163   5.036 -1.1143  1.0814  0.0902
   47CHL1  H27B 4657   3.922   0.052   5.155  0.3108 -1.6513 -0.9850
   47CHL1  H27C 4658   3.830   0.073   4.997  0.1493 -0.0581  0.1770
   48CHL1    C3 4659   1.141   0.870   6.606 -0.3480  0.7538  0.0827
   48CHL1    H3 4660   1.176   0.969   6.643  1.0563  0.2030  0.2838
   48CHL1    O3 4661   1.118   0.800   6.730  0.4604 -0.3721  0.1929
   48CHL1   H3' 4662   1.028   0.827   6.751 -0.0654  0.1970 -2.4496
   48CHL1    C4 4663   1.015   0.890   6.516 -0.7917  0.8113  0.4533
   48CHL1   H4A 4664   0.968   0.790   6.502  1.5927 -0.3125 -0.1069
   48CHL1   H4B 4665   0.946   0.962   6.566  0.5748  3.2269 -0.9762
   48CHL1    C5 4666   1.041   0.945   6.373  0.3369  0.2802  0.8339
   48CHL1    C6 4667   0.969   1.045   6.326  0.8740 -0.0138 -0.1999
   48CHL1    H6 4668   0.878   1.072   6.382  0.5880  0.7495 -1.0033
   48CHL1    C7 4669   0.977   1.103   6.184  0.0656 -0.0462 -0.4101
   48CHL1   H7A 4670   0.881   1.099   6.128 -0.6776  1.4449  0.6831
   48CHL1   H7B 4671   1.002   1.211   6.197 -0.5887  0.0653 -0.0688
   48CHL1    C8 4672   1.089   1.027   6.103 -0.6177  0.0102  0.8821
   48CHL1    H8 4673   1.042   0.936   6.061 -0.7770  0.2062  0.6335
   48CHL1   C14 4674   1.141   1.106   5.984  0.3285  0.5209 -0.8715
   48CHL1   H14 4675   1.189   1.193   6.035  0.0088  0.5368 -0.5920
   48CHL1   C15 4676   1.048   1.184   5.889 -0.3488 -0.0184 -0.4513
   48CHL1  H15A 4677   0.963   1.120   5.860  0.6248 -0.6832 -2.0143
   48CHL1  H15B 4678   1.003   1.271   5.940 -0.5250 -0.6122  0.4237
   48CHL1   C16 4679   1.145   1.231   5.769  1.0225  0.0663  0.6264
   48CHL1  H16A 4680   1.093   1.199   5.676 -1.1948  1.1321  1.4194
   48CHL1  H16B 4681   1.149   1.342   5.772 -0.8819  0.1898  0.0960
   48CHL1   C17 4682   1.284   1.165   5.795  0.3264  0.3709 -0.0631
   48CHL1   H17 4683   1.347   1.242   5.843  2.4042 -0.5991 -1.1017
   48CHL1   C13 4684   1.253   1.052   5.895 -0.1498  0.4192 -0.4164
   48CHL1   C18 4685   1.189   0.936   5.816 -0.2264 -0.2036 -0.4520
   48CHL1  H18A 4686   1.115   0.966   5.740  0.4074 -0.7642 -1.3077
   48CHL1  H18B 4687   1.263   0.873   5.762 -0.5772 -0.6351 -0.4303
   48CHL1  H18C 4688   1.137   0.869   5.888 -1.0638  1.2292  0.3070
   48CHL1   C12 4689   1.365   1.014   5.986 -0.0373  0.1714 -0.3090
   48CHL1  H12A 4690   1.448   0.971   5.927 -0.6248 -0.2647 -0.8273
   48CHL1  H12B 4691   1.410   1.109   6.024 -0.5588  0.1242  0.4630
   48CHL1   C11 4692   1.317   0.916   6.096  0.9076 -0.3152  0.3027
   48CHL1  H11A 4693   1.268   0.827   6.052 -2.4416 -0.0910  3.2059
   48CHL1  H11B 4694   1.396   0.887   6.168 -1.8043 -0.9706  3.1930
   48CHL1    C9 4695   1.205   0.980   6.189 -0.5225  0.0220  0.1017
   48CHL1    H9 4696   1.251   1.067   6.240 -1.5976  0.2742  0.6584
   48CHL1   C10 4697   1.171   0.883   6.308  0.3538  0.2004  0.0908
   48CHL1   C19 4698   1.132   0.746   6.258  0.1402  0.1371  0.2590
   48CHL1  H19A 4699   1.096   0.684   6.343  1.7887  0.3534  1.1597
   48CHL1  H19B 4700   1.049   0.752   6.185 -0.2375  0.5131  0.7141
   48CHL1  H19C 4701   1.226   0.696   6.225 -0.6443 -1.6168  0.6177
   48CHL1    C1 4702   1.291   0.863   6.407 -0.2072 -0.2860 -0.6485
   48CHL1   H1A 4703   1.370   0.804   6.356  0.3301  0.2593 -0.4492
   48CHL1   H1B 4704   1.332   0.966   6.410 -0.6659  0.0148 -2.9143
   48CHL1    C2 4705   1.255   0.796   6.540 -0.0714  0.1613 -0.0508
   48CHL1   H2A 4706   1.335   0.789   6.616  1.2261  2.5974 -1.0911
   48CHL1   H2B 4707   1.202   0.699   6.523  0.8522 -0.5238  0.8882
   48CHL1   C20 4708   1.347   1.136   5.660 -0.7104 -0.2782 -0.6201
   48CHL1   H20 4709   1.278   1.074   5.598 -0.1470 -0.0279 -1.5160
   48CHL1   C21 4710   1.480   1.050   5.674  0.6584 -0.3245 -0.5177
   48CHL1  H21A 4711   1.539   1.026   5.583  0.2870 -2.8133 -0.1709
   48CHL1  H21B 4712   1.548   1.103   5.745 -1.0441 -0.2009  1.0783
   48CHL1  H21C 4713   1.459   0.950   5.717 -1.3195  0.2113 -0.1608
   48CHL1   C22 4714   1.378   1.273   5.575  1.1272  0.3010 -0.0935
   48CHL1  H22A 4715   1.283   1.331   5.569 -0.2817 -1.7368  1.3503
   48CHL1  H22B 4716   1.446   1.343   5.628 -0.0751  2.6198 -1.4385
   48CHL1   C23 4717   1.428   1.246   5.431  0.2047 -0.8533  0.3297
   48CHL1  H23A 4718   1.533   1.210   5.428 -0.3633 -2.5970  0.1449
   48CHL1  H23B 4719   1.371   1.160   5.390 -0.5041 -0.5378  0.6348
   48CHL1   C24 4720   1.424   1.365   5.332  0.3845 -0.0979 -0.0081
   48CHL1  H24A 4721   1.316   1.388   5.337  0.2760 -0.7779  0.9890
   48CHL1  H24B 4722   1.483   1.448   5.375  2.3396 -1.6711  0.5392
   48CHL1   C25 4723   1.469   1.351   5.185  0.0208 -0.2566  0.2567
   48CHL1   H25 4724   1.424   1.255   5.152 -0.7938  0.7737 -1.8314
   48CHL1   C26 4725   1.425   1.469   5.098 -0.5131  0.2832 -0.3715
   48CHL1  H26A 4726   1.476   1.464   5.000 -0.5065 -1.3989 -0.3239
   48CHL1  H26B 4727   1.314   1.478   5.098 -0.6839  0.2450  3.6702
   48CHL1  H26C 4728   1.466   1.559   5.147  1.0406 -1.2965  1.4029
   48CHL1   C27 4729   1.625   1.345   5.173 -0.1972  0.1170  0.6646
   48CHL1  H27A 4730   1.664   1.255   5.226 -0.1518 -0.2712 -0.0203
   48CHL1  H27B 4731   1.666   1.358   5.071  1.5902  1.7408  1.5233
   48CHL1  H27C 4732   1.658   1.438   5.224 -2.8014 -0.0528  2.8927
   49CHL1    C3 4733   0.582   0.771   3.089 -0.3844  0.1768  0.2175
   49CHL1    H3 4734   0.476   0.776   3.121 -0.9994 -0.6900 -1.5815
   49CHL1    O3 4735   0.565   0.801   2.948  0.7117 -0.0151 -0.2936
   49CHL1   H3' 4736   0.530   0.725   2.902  0.3123 -0.0820  0.1104
   49CHL1    C4 4737   0.658   0.889   3.154 -0.5848  0.4561 -0.0638
   49CHL1   H4A 4738   0.747   0.912   3.092  0.1181  0.7368  1.0195
   49CHL1   H4B 4739   0.584   0.971   3.146 -3.0858 -1.7995 -1.8019
   49CHL1    C5 4740   0.692   0.852   3.302  0.4229 -0.1417 -0.3442
   49CHL1    C6 4741   0.659   0.931   3.401  0.8117 -0.9560  0.0534
   49CHL1    H6 4742   0.611   1.027   3.376  0.8611 -0.7223  0.8290
   49CHL1    C7 4743   0.708   0.916   3.543  0.5215 -0.0020  0.4580
   49CHL1   H7A 4744   0.752   1.013   3.574  0.2638  0.2372  0.0993
   49CHL1   H7B 4745   0.625   0.908   3.617  1.4092  0.4012  1.5194
   49CHL1    C8 4746   0.800   0.800   3.561  0.3050  0.9323 -0.1981
   49CHL1    H8 4747   0.905   0.829   3.541  0.6940 -0.2469  0.0712
   49CHL1   C14 4748   0.789   0.758   3.707  0.5637 -0.8943 -0.1369
   49CHL1   H14 4749   0.683   0.728   3.720  0.5810 -0.0435  2.5373
   49CHL1   C15 4750   0.816   0.867   3.808 -0.2220  0.1112 -0.0545
   49CHL1  H15A 4751   0.910   0.917   3.776 -0.9300  1.7720  0.3929
   49CHL1  H15B 4752   0.742   0.949   3.814  0.0133  0.2482  1.3158
   49CHL1   C16 4753   0.834   0.801   3.942 -0.1129  0.0762 -0.0374
   49CHL1  H16A 4754   0.927   0.833   3.994 -0.7329  0.1601  1.0540
   49CHL1  H16B 4755   0.749   0.832   4.006 -0.3054 -2.0065  0.8120
   49CHL1   C17 4756   0.846   0.641   3.905  0.0762 -0.3087  0.0211
   49CHL1   H17 4757   0.744   0.603   3.926 -0.2146 -0.1487 -1.0634
   49CHL1   C13 4758   0.876   0.645   3.750 -0.1450  0.7757  0.1152
   49CHL1   C18 4759   1.019   0.675   3.730 -0.6119 -0.3966  0.0402
   49CHL1  H18A 4760   1.070   0.579   3.752  1.8919  1.5367  3.6974
   49CHL1  H18B 4761   1.047   0.700   3.625  0.3080 -2.9569 -0.4009
   49CHL1  H18C 4762   1.069   0.741   3.805  0.6646  0.6863 -1.6733
   49CHL1   C12 4763   0.833   0.526   3.666  0.6790  0.9493 -0.6444
   49CHL1  H12A 4764   0.890   0.433   3.687  0.8252  1.1041 -0.3489
   49CHL1  H12B 4765   0.734   0.495   3.706  1.4473 -0.7428  0.0572
   49CHL1   C11 4766   0.833   0.551   3.514 -0.6709  0.6631  0.1702
   49CHL1  H11A 4767   0.939   0.570   3.487  0.2802 -2.3698  1.3156
   49CHL1  H11B 4768   0.794   0.461   3.461  0.1053  1.6596 -2.2023
   49CHL1    C9 4769   0.759   0.677   3.476  0.3414 -0.0613 -0.5210
   49CHL1    H9 4770   0.652   0.658   3.498  0.1369  2.2245  0.7316
   49CHL1   C10 4771   0.752   0.708   3.324  0.1029 -0.0200  0.9292
   49CHL1   C19 4772   0.891   0.713   3.261 -0.0601 -0.0078  0.0984
   49CHL1  H19A 4773   0.947   0.617   3.270  1.4646  0.5374 -2.5579
   49CHL1  H19B 4774   0.893   0.744   3.155 -1.3331 -1.0738 -0.2587
   49CHL1  H19C 4775   0.955   0.793   3.306 -0.5108  1.8323 -2.3577
   49CHL1    C1 4776   0.666   0.604   3.250 -0.0831 -0.5650 -0.1486
   49CHL1   H1A 4777   0.723   0.509   3.259  1.2764  0.0423 -1.7164
   49CHL1   H1B 4778   0.565   0.593   3.295 -0.6215 -3.8527 -1.8838
   49CHL1    C2 4779   0.645   0.625   3.104  1.0175 -0.2041  0.1676
   49CHL1   H2A 4780   0.563   0.561   3.065  0.5479  0.9660 -0.8458
   49CHL1   H2B 4781   0.730   0.621   3.032  0.0978  1.5980 -1.1320
   49CHL1   C20 4782   0.941   0.561   3.999  0.3407 -0.2187 -0.4511
   49CHL1   H20 4783   1.042   0.601   3.976 -0.2430  1.5612 -0.1226
   49CHL1   C21 4784   0.938   0.408   3.969  0.4460 -0.6699 -0.0645
   49CHL1  H21A 4785   0.831   0.380   3.976  0.7711 -1.7988  0.6763
   49CHL1  H21B 4786   0.991   0.342   4.041  0.3306 -0.5096  0.1688
   49CHL1  H21C 4787   0.988   0.397   3.870  1.7806  1.2489  0.3227
   49CHL1   C22 4788   0.906   0.593   4.149 -0.0323 -0.3681 -0.2684
   49CHL1  H22A 4789   0.895   0.703   4.157  2.3285 -0.0923 -0.0256
   49CHL1  H22B 4790   0.808   0.552   4.181 -0.9621  2.6655  1.1955
   49CHL1   C23 4791   1.018   0.546   4.244  0.5031 -0.1510  0.5638
   49CHL1  H23A 4792   1.014   0.435   4.244 -0.6919 -0.1560 -1.2266
   49CHL1  H23B 4793   1.116   0.576   4.203  0.1909 -1.6373 -1.4042
   49CHL1   C24 4794   0.994   0.599   4.384  0.7884 -0.1046 -0.7026
   49CHL1  H24A 4795   1.000   0.709   4.384 -0.4555  0.0650  2.6603
   49CHL1  H24B 4796   0.896   0.561   4.420  1.0187 -0.3798 -0.3578
   49CHL1   C25 4797   1.098   0.561   4.491  0.1959 -0.1036 -0.2836
   49CHL1   H25 4798   1.193   0.601   4.450 -0.9312  1.8191 -1.1405
   49CHL1   C26 4799   1.080   0.640   4.625 -0.1841 -0.3899 -0.7915
   49CHL1  H26A 4800   1.153   0.606   4.702 -0.1621 -2.5338 -1.6864
   49CHL1  H26B 4801   1.105   0.747   4.607 -0.2009  0.2040  2.2032
   49CHL1  H26C 4802   0.974   0.635   4.660 -0.4096  0.2656 -1.3450
   49CHL1   C27 4803   1.116   0.408   4.514  0.3494  0.1296  0.0517
   49CHL1  H27A 4804   1.017   0.366   4.542 -0.0298  1.0060  0.0655
   49CHL1  H27B 4805   1.138   0.363   4.415 -1.0898  1.8899 -1.1360
   49CHL1  H27C 4806   1.192   0.374   4.587 -2.1609 -0.4740  2.5594
   50CHL1    C3 4807   4.170   5.992   3.031  0.0512 -0.5574 -0.6435
   50CHL1    H3 4808   4.076   6.012   3.087  1.3666 -0.5768  1.7307
   50CHL1    O3 4809   4.147   5.966   2.892  0.1330 -0.0283 -0.4415
   50CHL1   H3' 4810   4.098   6.046   2.873  1.7497  1.4964  1.4913
   50CHL1    C4 4811   4.256   6.124   3.034  0.2664 -0.5769  0.0849
   50CHL1   H4A 4812   4.335   6.090   2.963 -1.3719 -0.8274 -1.7088
   50CHL1   H4B 4813   4.193   6.198   2.980  1.0398  0.3724  0.4447
   50CHL1    C5 4814   4.317   6.164   3.163 -0.6444 -0.1915 -0.5008
   50CHL1    C6 4815   4.294   6.288   3.209 -0.4061 -0.2316 -0.8784
   50CHL1    H6 4816   4.229   6.355   3.150  1.0643  1.3544 -0.7451
   50CHL1    C7 4817   4.329   6.330   3.349  0.2585 -0.3935  0.4604
   50CHL1   H7A 4818   4.373   6.432   3.350  2.1745 -1.1406 -0.7005
   50CHL1   H7B 4819   4.238   6.346   3.410  0.2054 -1.0986  0.5747
   50CHL1    C8 4820   4.426   6.238   3.428  0.1094  0.5030  0.7668
   50CHL1    H8 4821   4.532   6.265   3.409  0.5936 -1.3737  0.6148
   50CHL1   C14 4822   4.405   6.255   3.578 -0.3588 -0.7572 -0.0681
   50CHL1   H14 4823   4.303   6.220   3.604 -0.3976 -0.1869  0.5581
   50CHL1   C15 4824   4.410   6.398   3.637  0.4399 -0.1813  0.7151
   50CHL1  H15A 4825   4.497   6.459   3.606 -0.3426  0.4570 -0.2960
   50CHL1  H15B 4826   4.315   6.449   3.610  1.3162  0.4091 -1.4948
   50CHL1   C16 4827   4.426   6.375   3.786  0.2200 -0.4317  0.3692
   50CHL1  H16A 4828   4.505   6.449   3.815 -0.0579  0.4169 -0.9359
   50CHL1  H16B 4829   4.337   6.395   3.849  0.4720 -0.5419  0.7676
   50CHL1   C17 4830   4.480   6.226   3.801 -0.0767  0.0573 -0.4631
   50CHL1   H17 4831   4.390   6.172   3.835 -2.0183  3.1082 -0.4200
   50CHL1   C13 4832   4.508   6.174   3.654 -0.4455  0.5112 -0.2062
   50CHL1   C18 4833   4.652   6.212   3.618  0.0395  0.1190  0.1671
   50CHL1  H18A 4834   4.727   6.167   3.687  1.2892  0.0080 -1.2200
   50CHL1  H18B 4835   4.686   6.171   3.520 -1.5719 -0.5758 -0.1294
   50CHL1  H18C 4836   4.665   6.322   3.625  1.0836 -0.0400  1.0577
   50CHL1   C12 4837   4.494   6.018   3.627  0.6918  0.3643 -0.3661
   50CHL1  H12A 4838   4.578   5.965   3.676  1.1570  1.1856 -0.2614
   50CHL1  H12B 4839   4.393   5.984   3.656  0.4307 -0.0442 -1.6642
   50CHL1   C11 4840   4.493   5.986   3.476  0.4707 -0.8842 -0.7951
   50CHL1  H11A 4841   4.600   5.990   3.446  0.0885  3.0872 -2.2601
   50CHL1  H11B 4842   4.453   5.884   3.460  1.3021 -1.5017  0.7895
   50CHL1    C9 4843   4.403   6.087   3.397  0.1819 -0.3924 -0.8133
   50CHL1    H9 4844   4.302   6.069   3.440  1.0277 -1.5798  0.8257
   50CHL1   C10 4845   4.386   6.051   3.244 -0.1167  0.4277 -0.4125
   50CHL1   C19 4846   4.522   6.014   3.186  0.2687 -0.0463  0.1579
   50CHL1  H19A 4847   4.603   6.088   3.207 -0.3975  0.8192 -0.2537
   50CHL1  H19B 4848   4.561   5.916   3.221 -1.8644 -1.3837 -0.9940
   50CHL1  H19C 4849   4.520   6.006   3.076 -1.6795  2.5130 -0.1016
   50CHL1    C1 4850   4.285   5.928   3.239  0.2474  0.9640 -0.9464
   50CHL1   H1A 4851   4.337   5.844   3.289  0.5026  0.8688 -1.3687
   50CHL1   H1B 4852   4.194   5.962   3.293  0.8685  2.1862 -0.6125
   50CHL1    C2 4853   4.250   5.883   3.095 -0.7700 -0.2562 -0.4648
   50CHL1   H2A 4854   4.197   5.786   3.096 -2.0626  0.3659 -2.6525
   50CHL1   H2B 4855   4.345   5.866   3.040  0.4627  0.7092  1.2723
   50CHL1   C20 4856   4.581   6.208   3.915 -0.0702  0.0896 -0.5806
   50CHL1   H20 4857   4.684   6.237   3.883  0.4666  0.1111  1.0656
   50CHL1   C21 4858   4.599   6.056   3.954 -0.7263  0.0227  0.3095
   50CHL1  H21A 4859   4.658   5.987   3.889  0.5662  0.0789  1.3775
   50CHL1  H21B 4860   4.498   6.012   3.970 -1.2542  1.7412  1.9657
   50CHL1  H21C 4861   4.661   6.056   4.046 -0.9182  1.5017  0.4508
   50CHL1   C22 4862   4.551   6.285   4.050  0.2095  0.3331  0.5597
   50CHL1  H22A 4863   4.501   6.384   4.041 -0.0668  0.1163 -0.5151
   50CHL1  H22B 4864   4.474   6.222   4.100 -1.9967 -0.5339 -3.4490
   50CHL1   C23 4865   4.678   6.309   4.136  0.3039  0.1918  0.4189
   50CHL1  H23A 4866   4.706   6.212   4.183  0.0472  0.7882  1.8754
   50CHL1  H23B 4867   4.753   6.338   4.060 -0.2681  2.2258  0.5724
   50CHL1   C24 4868   4.672   6.420   4.250 -0.0886 -0.0978  0.3380
   50CHL1  H24A 4869   4.638   6.515   4.203 -0.8054 -0.5443 -0.0602
   50CHL1  H24B 4870   4.596   6.391   4.325  1.0536 -0.6972  1.3081
   50CHL1   C25 4871   4.813   6.437   4.320 -0.1892  0.2512  0.1936
   50CHL1   H25 4872   4.853   6.340   4.357  0.6163  0.5563  0.1231
   50CHL1   C26 4873   4.917   6.491   4.225  0.1012  0.7033 -0.5437
   50CHL1  H26A 4874   5.008   6.501   4.287 -0.3440  1.4684  0.0192
   50CHL1  H26B 4875   4.946   6.420   4.145  0.6201  2.0089 -1.5666
   50CHL1  H26C 4876   4.886   6.584   4.171  0.6818  1.1092 -0.1898
   50CHL1   C27 4877   4.792   6.521   4.450 -1.0682 -0.0151 -0.3321
   50CHL1  H27A 4878   4.744   6.467   4.534 -0.3150  0.7959  0.6578
   50CHL1  H27B 4879   4.886   6.552   4.501 -0.9728  0.1165 -0.5808
   50CHL1  H27C 4880   4.719   6.599   4.420 -0.4376  1.3854  1.5409
   51CHL1    C3 4881   2.638   1.075   3.108  0.1583  0.4493  0.3953
   51CHL1    H3 4882   2.746   1.056   3.129 -0.0099 -2.7184 -1.1346
   51CHL1    O3 4883   2.614   1.103   2.968  0.2249  0.0085 -0.3146
   51CHL1   H3' 4884   2.518   1.106   2.967 -0.0098 -1.9309  2.9257
   51CHL1    C4 4885   2.543   0.956   3.142  0.2632  0.5319 -0.2031
   51CHL1   H4A 4886   2.438   0.991   3.149 -0.2112 -0.8322 -0.1904
   51CHL1   H4B 4887   2.550   0.883   3.058 -0.1701  2.3972 -1.9387
   51CHL1    C5 4888   2.582   0.921   3.282  0.3368  0.0964 -0.0995
   51CHL1    C6 4889   2.630   0.801   3.306  0.0239  0.3397 -0.1761
   51CHL1    H6 4890   2.637   0.725   3.226  1.8627 -1.6218  1.6914
   51CHL1    C7 4891   2.655   0.747   3.441 -0.8968 -1.1543 -0.0907
   51CHL1   H7A 4892   2.612   0.646   3.463 -1.4035 -0.6349  1.4506
   51CHL1   H7B 4893   2.765   0.735   3.438 -0.5065  1.7078 -0.1636
   51CHL1    C8 4894   2.615   0.851   3.554  0.2403  0.1405  0.6850
   51CHL1    H8 4895   2.506   0.841   3.572  0.4814 -0.2265  2.0527
   51CHL1   C14 4896   2.687   0.815   3.681  0.0072  0.4446 -0.2206
   51CHL1   H14 4897   2.792   0.834   3.650 -0.1787  0.3114 -0.9577
   51CHL1   C15 4898   2.685   0.673   3.736  1.4786  0.3763 -0.3036
   51CHL1  H15A 4899   2.583   0.629   3.734  0.2337  2.8907  2.0798
   51CHL1  H15B 4900   2.752   0.596   3.691  2.6883  1.3989 -0.2873
   51CHL1   C16 4901   2.729   0.682   3.880 -0.5297  0.2071 -0.9336
   51CHL1  H16A 4902   2.649   0.646   3.949  1.2663 -1.1197  0.5530
   51CHL1  H16B 4903   2.825   0.632   3.902  0.4704  2.4792  0.2231
   51CHL1   C17 4904   2.753   0.833   3.904  0.3113  0.1625  0.3771
   51CHL1   H17 4905   2.860   0.855   3.882  0.6343  1.1201  2.6085
   51CHL1   C13 4906   2.661   0.900   3.802  0.2455 -0.5043  0.9649
   51CHL1   C18 4907   2.513   0.877   3.841 -0.3555  0.0121  0.5858
   51CHL1  H18A 4908   2.443   0.893   3.757 -0.9405  1.4514  1.3333
   51CHL1  H18B 4909   2.499   0.774   3.881  3.7759 -0.2841  1.8039
   51CHL1  H18C 4910   2.488   0.948   3.922  1.2089 -0.6278  1.6798
   51CHL1   C12 4911   2.694   1.046   3.764 -0.4564 -0.3465  0.4821
   51CHL1  H12A 4912   2.676   1.115   3.849 -0.1979 -2.5720  2.4455
   51CHL1  H12B 4913   2.802   1.047   3.740 -0.8150 -1.3630 -1.3476
   51CHL1   C11 4914   2.617   1.095   3.638 -0.6968  0.8626  0.3859
   51CHL1  H11A 4915   2.510   1.080   3.662 -0.3459 -4.6294 -0.0705
   51CHL1  H11B 4916   2.662   1.195   3.624 -1.0186  0.9590  0.0535
   51CHL1    C9 4917   2.648   0.995   3.513  0.7467 -0.3944  0.1154
   51CHL1    H9 4918   2.757   0.995   3.494  0.2941  2.5581 -3.5496
   51CHL1   C10 4919   2.578   1.039   3.385  0.4447  0.1222 -0.3547
   51CHL1   C19 4920   2.426   1.068   3.402  0.3032 -0.2843  0.5438
   51CHL1  H19A 4921   2.361   0.980   3.424  0.4104 -0.5979 -0.3635
   51CHL1  H19B 4922   2.410   1.146   3.479  0.2858  0.6242 -0.3607
   51CHL1  H19C 4923   2.394   1.106   3.303  0.6153 -1.1017  0.1206
   51CHL1    C1 4924   2.641   1.174   3.335  0.6048  0.4680  0.4249
   51CHL1   H1A 4925   2.601   1.262   3.390  1.2907  0.6786  0.5841
   51CHL1   H1B 4926   2.750   1.175   3.351  0.5307 -0.7628  1.1028
   51CHL1    C2 4927   2.609   1.202   3.185 -0.8767  0.4119 -0.0160
   51CHL1   H2A 4928   2.667   1.290   3.148 -1.7861  0.3674 -1.6637
   51CHL1   H2B 4929   2.503   1.229   3.169 -1.1772 -0.7636 -0.1393
   51CHL1   C20 4930   2.740   0.867   4.052 -0.6130  0.3192 -0.1647
   51CHL1   H20 4931   2.632   0.856   4.077 -0.8209  1.6551 -0.3789
   51CHL1   C21 4932   2.787   1.012   4.079  0.2032  0.2201  0.7201
   51CHL1  H21A 4933   2.805   1.042   4.184  1.2233 -0.3701  0.7297
   51CHL1  H21B 4934   2.705   1.078   4.044 -0.4280 -1.3997 -1.0761
   51CHL1  H21C 4935   2.874   1.034   4.013 -1.8896  1.8853 -1.6895
   51CHL1   C22 4936   2.829   0.770   4.133  0.5144  0.2712 -0.4764
   51CHL1  H22A 4937   2.823   0.664   4.101  0.8660  0.1414 -0.1168
   51CHL1  H22B 4938   2.933   0.810   4.136  1.4172 -1.9797  2.0932
   51CHL1   C23 4939   2.777   0.768   4.280  0.4254  0.2644  0.1247
   51CHL1  H23A 4940   2.793   0.868   4.326  0.1170  0.6106 -0.5035
   51CHL1  H23B 4941   2.669   0.745   4.268  0.4341  0.7915 -1.1388
   51CHL1   C24 4942   2.851   0.664   4.362  0.2700 -0.2105 -0.6073
   51CHL1  H24A 4943   2.866   0.567   4.309 -1.9049 -0.4535 -0.8907
   51CHL1  H24B 4944   2.954   0.689   4.392 -0.0735  1.0949 -0.4694
   51CHL1   C25 4945   2.785   0.629   4.498  0.5538  0.0629  0.7144
   51CHL1   H25 4946   2.689   0.582   4.468 -1.2036  2.7470  1.7824
   51CHL1   C26 4947   2.862   0.511   4.563 -0.3893 -0.5958  0.1584
   51CHL1  H26A 4948   2.921   0.443   4.498 -0.5401 -0.2084 -0.3937
   51CHL1  H26B 4949   2.929   0.550   4.642 -2.4832  3.0155  0.3731
   51CHL1  H26C 4950   2.792   0.447   4.621 -1.1528  2.5058  2.9593
   51CHL1   C27 4951   2.775   0.751   4.589  0.0521 -0.4017 -0.7472
   51CHL1  H27A 4952   2.729   0.722   4.686  1.9697 -2.2736 -0.3331
   51CHL1  H27B 4953   2.878   0.778   4.620 -0.3662 -2.1891  2.8294
   51CHL1  H27C 4954   2.719   0.838   4.548  1.2316  0.2688 -0.9821
   52CHL1    C3 4955   4.301   1.327   3.101 -1.1489  0.6386 -0.3612
   52CHL1    H3 4956   4.368   1.414   3.118 -1.3188  0.8940 -0.9657
   52CHL1    O3 4957   4.322   1.289   2.966 -0.1688  0.4227 -0.6299
   52CHL1   H3' 4958   4.305   1.195   2.966  0.6609  0.2581 -0.3199
   52CHL1    C4 4959   4.353   1.218   3.193  0.6979 -0.0031 -0.5784
   52CHL1   H4A 4960   4.295   1.125   3.174 -0.7899  1.0999 -1.6984
   52CHL1   H4B 4961   4.456   1.191   3.161  1.3431 -0.4612  1.7463
   52CHL1    C5 4962   4.344   1.247   3.338  0.0314 -0.4673 -0.1823
   52CHL1    C6 4963   4.447   1.237   3.427 -0.2084 -0.4200  0.5096
   52CHL1    H6 4964   4.545   1.207   3.387 -0.5989 -1.1240  0.0570
   52CHL1    C7 4965   4.434   1.274   3.573  0.4084 -0.7698  0.0616
   52CHL1   H7A 4966   4.498   1.204   3.631  0.2575  0.6845  2.0538
   52CHL1   H7B 4967   4.465   1.380   3.581 -2.1059 -0.1443  3.4215
   52CHL1    C8 4968   4.286   1.273   3.618  0.3495  0.3092 -0.9105
   52CHL1    H8 4969   4.257   1.166   3.622 -0.8681  0.6444 -0.2877
   52CHL1   C14 4970   4.283   1.329   3.765  0.7393  0.3738  0.7817
   52CHL1   H14 4971   4.325   1.432   3.755 -0.4458  0.7631 -0.4903
   52CHL1   C15 4972   4.358   1.253   3.874  0.1637  0.0145 -0.4122
   52CHL1  H15A 4973   4.353   1.144   3.858  1.0817 -0.4097  1.7939
   52CHL1  H15B 4974   4.467   1.278   3.871  0.2941 -0.3493  0.7776
   52CHL1   C16 4975   4.290   1.297   4.004 -0.2912 -0.4927 -0.6560
   52CHL1  H16A 4976   4.273   1.213   4.073  1.1842 -0.0518  0.2756
   52CHL1  H16B 4977   4.361   1.364   4.056 -1.2706  0.6216 -0.7008
   52CHL1   C17 4978   4.165   1.376   3.969 -0.6830  0.4404  0.2178
   52CHL1   H17 4979   4.194   1.482   3.953 -0.2728  0.3356  0.2662
   52CHL1   C13 4980   4.136   1.338   3.823 -0.0098  0.1761  0.5362
   52CHL1   C18 4981   4.062   1.201   3.823  0.0977  0.5222 -0.0828
   52CHL1  H18A 4982   4.096   1.142   3.910 -1.4316 -0.2259  0.0473
   52CHL1  H18B 4983   3.958   1.207   3.863  0.2178 -2.0222  0.7203
   52CHL1  H18C 4984   4.077   1.144   3.729 -1.8959 -0.0429 -0.0989
   52CHL1   C12 4985   4.053   1.429   3.721  0.3019 -0.0212 -0.5244
   52CHL1  H12A 4986   3.949   1.446   3.757  0.0463 -0.8172 -0.8665
   52CHL1  H12B 4987   4.110   1.524   3.730  1.8668 -1.0534  0.9609
   52CHL1   C11 4988   4.054   1.383   3.580  0.3740 -0.2848 -0.5876
   52CHL1  H11A 4989   3.978   1.306   3.555 -0.4083  0.7320 -1.4431
   52CHL1  H11B 4990   4.008   1.466   3.522  0.3270  1.0081  1.2261
   52CHL1    C9 4991   4.195   1.353   3.526 -0.2746 -0.5625 -0.5210
   52CHL1    H9 4992   4.228   1.459   3.519 -0.2615 -0.6092 -1.3058
   52CHL1   C10 4993   4.203   1.297   3.381  0.2794  0.3717  0.4436
   52CHL1   C19 4994   4.129   1.161   3.381 -0.0722  0.3783 -0.5813
   52CHL1  H19A 4995   4.024   1.172   3.416  0.1699 -0.2937  0.3846
   52CHL1  H19B 4996   4.125   1.101   3.287  0.7659 -0.0169 -0.3739
   52CHL1  H19C 4997   4.164   1.089   3.458 -2.0759  0.6515  0.6635
   52CHL1    C1 4998   4.133   1.395   3.279  0.4682  0.0123  0.3106
   52CHL1   H1A 4999   4.024   1.402   3.300  0.4487 -0.5235  0.3828
   52CHL1   H1B 5000   4.173   1.494   3.311  0.7500  0.0731 -0.2057
   52CHL1    C2 5001   4.160   1.367   3.128 -0.3508 -0.3469  0.0985
   52CHL1   H2A 5002   4.126   1.450   3.063  0.5656 -0.1264 -0.1046
   52CHL1   H2B 5003   4.096   1.280   3.102  0.9190 -0.6792 -2.0968
   52CHL1   C20 5004   4.068   1.369   4.088 -0.4439 -0.2105 -0.4698
   52CHL1   H20 5005   4.021   1.269   4.083  0.7346 -0.7372 -3.2402
   52CHL1   C21 5006   3.960   1.476   4.065  0.5380  0.5533 -0.4575
   52CHL1  H21A 5007   3.995   1.580   4.082 -2.8276  1.4425  2.2092
   52CHL1  H21B 5008   3.878   1.457   4.138 -0.2979  0.3309 -1.4390
   52CHL1  H21C 5009   3.908   1.456   3.969  0.3706 -1.9056  0.0678
   52CHL1   C22 5010   4.118   1.395   4.233 -0.3888 -0.0007 -1.0412
   52CHL1  H22A 5011   4.191   1.315   4.257 -0.6230  0.4782  1.6014
   52CHL1  H22B 5012   4.161   1.498   4.240  0.5050 -0.1809 -3.1007
   52CHL1   C23 5013   4.012   1.393   4.345  0.6230  0.4803 -0.1501
   52CHL1  H23A 5014   3.944   1.481   4.340  1.1561  0.8368 -2.2339
   52CHL1  H23B 5015   3.965   1.293   4.350 -0.2581  0.8533 -0.6764
   52CHL1   C24 5016   4.077   1.416   4.485 -0.1188 -0.5412  0.1003
   52CHL1  H24A 5017   4.129   1.323   4.515  1.7652 -0.0476 -1.4824
   52CHL1  H24B 5018   4.153   1.496   4.479  1.0658 -1.6432  0.0107
   52CHL1   C25 5019   3.982   1.436   4.604 -0.4771  0.0721 -0.1603
   52CHL1   H25 5020   3.937   1.537   4.592 -2.4257 -0.6947  0.3107
   52CHL1   C26 5021   3.864   1.338   4.614 -0.4666 -0.3846 -0.4546
   52CHL1  H26A 5022   3.800   1.385   4.691  2.7633  4.1290 -0.0974
   52CHL1  H26B 5023   3.802   1.321   4.523 -2.5134 -1.5395  1.0705
   52CHL1  H26C 5024   3.886   1.237   4.652  1.9276 -0.4628 -1.8140
   52CHL1   C27 5025   4.058   1.436   4.744  0.1557 -0.2892  0.2795
   52CHL1  H27A 5026   4.110   1.338   4.752  0.0219 -0.3331  0.6286
   52CHL1  H27B 5027   4.110   1.534   4.741  0.0220 -0.2498 -1.7148
   52CHL1  H27C 5028   3.975   1.435   4.819  0.7068  0.9552  0.9334
   53CHL1    C3 5029   4.456   1.862   3.032 -0.2199 -0.4097  0.4969
   53CHL1    H3 5030   4.466   1.972   3.048  0.4363 -0.5729  1.2745
   53CHL1    O3 5031   4.460   1.828   2.895  0.3454  0.0791 -0.2275
   53CHL1   H3' 5032   4.464   1.733   2.905  0.6007 -0.0069 -1.1536
   53CHL1    C4 5033   4.578   1.805   3.099 -0.2679 -0.5995  0.7569
   53CHL1   H4A 5034   4.591   1.698   3.072 -2.7057 -1.3465  2.2605
   53CHL1   H4B 5035   4.656   1.871   3.054 -1.1393 -0.3553 -0.4509
   53CHL1    C5 5036   4.573   1.821   3.250  0.2020 -0.5864 -0.3568
   53CHL1    C6 5037   4.668   1.899   3.313 -0.3191  0.4542 -0.2443
   53CHL1    H6 5038   4.744   1.945   3.249 -0.9207  1.0866 -0.5244
   53CHL1    C7 5039   4.679   1.923   3.461  0.8775  0.4180 -0.3230
   53CHL1   H7A 5040   4.783   1.923   3.500  0.6894  0.7606  0.1876
   53CHL1   H7B 5041   4.626   2.020   3.473  0.5671  0.4145 -1.5225
   53CHL1    C8 5042   4.592   1.821   3.536  0.8141 -0.0261 -0.3410
   53CHL1    H8 5043   4.644   1.723   3.526 -0.2216 -0.7958  1.4296
   53CHL1   C14 5044   4.576   1.860   3.686  0.8314 -0.3296 -0.2518
   53CHL1   H14 5045   4.517   1.954   3.683  0.8171 -0.3142  0.4610
   53CHL1   C15 5046   4.710   1.890   3.766  0.0593 -0.1669 -0.6308
   53CHL1  H15A 5047   4.789   1.814   3.747  0.3238  0.6557 -3.3002
   53CHL1  H15B 5048   4.745   1.994   3.748  2.7597 -0.7277  0.8688
   53CHL1   C16 5049   4.670   1.864   3.914 -0.3824  0.0546  0.7052
   53CHL1  H16A 5050   4.731   1.777   3.945  0.6462 -1.1538 -3.9462
   53CHL1  H16B 5051   4.681   1.954   3.979 -1.4731 -0.8281  2.1959
   53CHL1   C17 5052   4.518   1.823   3.909 -0.1249 -0.2623  0.4297
   53CHL1   H17 5053   4.462   1.918   3.919 -1.8710 -0.9659 -1.6720
   53CHL1   C13 5054   4.497   1.765   3.766 -0.2570  0.5517  0.0741
   53CHL1   C18 5055   4.562   1.622   3.760 -0.1995 -0.5403  0.1527
   53CHL1  H18A 5056   4.664   1.616   3.803  0.3259 -1.3684 -1.1201
   53CHL1  H18B 5057   4.496   1.542   3.801 -1.0477  0.5341  0.9182
   53CHL1  H18C 5058   4.578   1.605   3.651 -1.0600  0.5591 -0.1649
   53CHL1   C12 5059   4.358   1.762   3.712 -0.0933 -0.4460 -0.2170
   53CHL1  H12A 5060   4.301   1.689   3.773 -0.9354  0.1670 -0.2517
   53CHL1  H12B 5061   4.307   1.859   3.730  0.2148 -0.5390  1.2480
   53CHL1   C11 5062   4.351   1.725   3.564 -0.7434  0.2343 -0.6374
   53CHL1  H11A 5063   4.384   1.619   3.567  2.3550  1.1131  0.5326
   53CHL1  H11B 5064   4.254   1.737   3.512 -1.7955 -1.0012  0.9177
   53CHL1    C9 5065   4.449   1.812   3.472 -0.5439 -0.8064  0.1816
   53CHL1    H9 5066   4.413   1.917   3.470  0.0777 -0.5989 -0.9470
   53CHL1   C10 5067   4.452   1.763   3.323  0.5931 -0.0645 -0.1576
   53CHL1   C19 5068   4.456   1.606   3.311 -0.2034 -0.1929 -0.5387
   53CHL1  H19A 5069   4.468   1.583   3.203  1.7051  0.8068 -0.5781
   53CHL1  H19B 5070   4.540   1.562   3.368 -0.0767  0.3541 -0.2975
   53CHL1  H19C 5071   4.360   1.556   3.336 -1.9303  1.0048 -4.0394
   53CHL1    C1 5072   4.321   1.811   3.248  0.5456  0.1027 -0.2435
   53CHL1   H1A 5073   4.238   1.744   3.277  0.4253  0.0098 -0.7950
   53CHL1   H1B 5074   4.295   1.918   3.267  0.9068  0.0933  0.3356
   53CHL1    C2 5075   4.328   1.805   3.094  0.0568 -0.5210 -0.0283
   53CHL1   H2A 5076   4.246   1.854   3.037 -0.3875 -1.2780 -0.0493
   53CHL1   H2B 5077   4.315   1.697   3.070 -1.5220 -0.2359 -0.5257
   53CHL1   C20 5078   4.474   1.742   4.030  0.2146  0.2285 -0.3570
   53CHL1   H20 5079   4.483   1.634   4.006 -3.3248 -0.8113  2.1268
   53CHL1   C21 5080   4.316   1.763   4.048  0.5755 -0.4563 -0.3147
   53CHL1  H21A 5081   4.291   1.857   4.103 -1.5667 -1.5413  0.7066
   53CHL1  H21B 5082   4.272   1.690   4.119 -2.6034  1.7108  0.1738
   53CHL1  H21C 5083   4.254   1.760   3.956 -0.1114 -2.1197  0.1603
   53CHL1   C22 5084   4.551   1.773   4.157 -0.2846  0.7612  0.0966
   53CHL1  H22A 5085   4.646   1.718   4.140 -0.0051  1.9353 -2.6567
   53CHL1  H22B 5086   4.571   1.882   4.147 -2.3776  1.2921  1.0204
   53CHL1   C23 5087   4.504   1.746   4.308 -0.2401  0.1327 -0.5054
   53CHL1  H23A 5088   4.552   1.808   4.387 -0.8109  0.2535 -0.2438
   53CHL1  H23B 5089   4.396   1.773   4.302 -0.1549  0.5942 -0.0522
   53CHL1   C24 5090   4.515   1.594   4.349  0.0437 -0.5235 -1.0068
   53CHL1  H24A 5091   4.454   1.536   4.276 -2.1834  1.7486 -1.1022
   53CHL1  H24B 5092   4.624   1.576   4.358  0.1991  0.6916 -0.3544
   53CHL1   C25 5093   4.452   1.567   4.488 -1.0207  0.4580  0.3243
   53CHL1   H25 5094   4.349   1.608   4.482 -0.3001  2.2192 -0.7308
   53CHL1   C26 5095   4.434   1.414   4.516  0.3398 -0.4858 -0.1895
   53CHL1  H26A 5096   4.537   1.372   4.527  0.6803  0.2835 -0.3525
   53CHL1  H26B 5097   4.379   1.407   4.612  1.6330  0.1452  0.6233
   53CHL1  H26C 5098   4.386   1.351   4.438  3.5484 -0.9756 -1.9895
   53CHL1   C27 5099   4.520   1.643   4.602 -0.0840  1.0590  0.3890
   53CHL1  H27A 5100   4.500   1.752   4.593  1.6066  1.4438  0.8522
   53CHL1  H27B 5101   4.480   1.604   4.698  0.9189 -0.7349  0.1317
   53CHL1  H27C 5102   4.629   1.622   4.607 -0.4358 -0.8367  1.0511
   54CHL1    C3 5103   3.802   3.313   3.366  0.2937  0.5123 -0.0657
   54CHL1    H3 5104   3.836   3.417   3.385 -0.0999  0.9120 -1.4443
   54CHL1    O3 5105   3.803   3.289   3.225  0.2753  0.3211  0.7621
   54CHL1   H3' 5106   3.764   3.205   3.202  0.0826  0.7882 -0.7190
   54CHL1    C4 5107   3.894   3.211   3.433  0.4927 -0.3125  0.0600
   54CHL1   H4A 5108   3.845   3.112   3.417 -1.0098  0.7825 -2.9276
   54CHL1   H4B 5109   3.990   3.217   3.378  0.4847 -2.2671 -0.2300
   54CHL1    C5 5110   3.892   3.240   3.582 -0.3582 -0.0072 -0.3733
   54CHL1    C6 5111   4.007   3.265   3.636 -0.5060  0.2489 -0.2982
   54CHL1    H6 5112   4.099   3.269   3.575 -0.0193  0.9591  0.4623
   54CHL1    C7 5113   4.037   3.285   3.780  0.3182 -0.1727 -0.4437
   54CHL1   H7A 5114   4.117   3.210   3.796  0.9496  0.9783  2.3167
   54CHL1   H7B 5115   4.084   3.384   3.798  0.6824 -0.1867 -1.2639
   54CHL1    C8 5116   3.910   3.252   3.860 -0.0381 -0.2915 -0.1774
   54CHL1    H8 5117   3.900   3.142   3.866 -0.5937 -0.3684 -2.0278
   54CHL1   C14 5118   3.925   3.304   4.006  0.2745  0.8455  1.1630
   54CHL1   H14 5119   3.931   3.412   3.981 -1.1343  1.1361  1.9457
   54CHL1   C15 5120   4.043   3.262   4.085 -0.1640 -0.0394 -0.0910
   54CHL1  H15A 5121   4.059   3.153   4.069 -0.9901  0.0730 -1.9514
   54CHL1  H15B 5122   4.131   3.314   4.041  0.3278  1.3832  2.3886
   54CHL1   C16 5123   4.003   3.306   4.228 -0.6087 -0.0196 -0.2790
   54CHL1  H16A 5124   4.037   3.228   4.300  3.1855  0.5278 -1.2314
   54CHL1  H16B 5125   4.054   3.401   4.257 -2.2209  0.2498  1.9183
   54CHL1   C17 5126   3.852   3.330   4.228  0.1641  0.3770 -0.6842
   54CHL1   H17 5127   3.841   3.440   4.233 -0.1713  0.3057  0.5790
   54CHL1   C13 5128   3.805   3.280   4.089  0.3004 -0.5023 -0.3977
   54CHL1   C18 5129   3.790   3.126   4.111  0.1569 -0.1042  0.5563
   54CHL1  H18A 5130   3.774   3.084   4.010  0.9217  3.8401 -1.3579
   54CHL1  H18B 5131   3.884   3.074   4.141 -0.2659  0.8278  4.0264
   54CHL1  H18C 5132   3.713   3.091   4.184  0.4351 -1.5717  0.1859
   54CHL1   C12 5133   3.678   3.343   4.034 -0.5448 -0.0443 -0.0840
   54CHL1  H12A 5134   3.594   3.288   4.082 -1.6404  1.2387 -0.4589
   54CHL1  H12B 5135   3.688   3.454   4.045  1.3759 -0.0441 -1.4056
   54CHL1   C11 5136   3.659   3.312   3.890  0.0658  1.0002  0.9303
   54CHL1  H11A 5137   3.600   3.218   3.885 -0.5159  1.4130 -0.3011
   54CHL1  H11B 5138   3.578   3.373   3.844  0.7678  1.0958 -0.2037
   54CHL1    C9 5139   3.779   3.305   3.795  0.3151 -0.3946 -0.0054
   54CHL1    H9 5140   3.791   3.414   3.775 -1.2017 -0.3313 -0.6658
   54CHL1   C10 5141   3.756   3.242   3.656 -0.2650  0.4402 -0.1887
   54CHL1   C19 5142   3.706   3.098   3.670 -0.5028 -0.1318 -0.1858
   54CHL1  H19A 5143   3.694   3.059   3.568 -1.0808  0.4358 -0.3414
   54CHL1  H19B 5144   3.781   3.033   3.720 -0.3110 -1.1430 -1.7439
   54CHL1  H19C 5145   3.607   3.107   3.720 -0.8548  2.5582 -1.1748
   54CHL1    C1 5146   3.653   3.324   3.580  0.3824 -0.1209  0.2149
   54CHL1   H1A 5147   3.552   3.303   3.620  2.2270 -1.8798  4.5263
   54CHL1   H1B 5148   3.674   3.432   3.594  1.3997 -0.4251  1.2398
   54CHL1    C2 5149   3.659   3.308   3.425  0.1813  0.5186  0.1206
   54CHL1   H2A 5150   3.596   3.381   3.370  1.6828  0.5722 -1.6073
   54CHL1   H2B 5151   3.620   3.205   3.411 -1.8894  0.7352  3.3104
   54CHL1   C20 5152   3.786   3.290   4.361 -0.8660 -0.4367 -0.6918
   54CHL1   H20 5153   3.794   3.180   4.371  0.8450 -0.1841  1.4557
   54CHL1   C21 5154   3.637   3.339   4.353 -0.5232  0.3304  0.0299
   54CHL1  H21A 5155   3.569   3.288   4.282 -0.1070  0.0136 -0.1444
   54CHL1  H21B 5156   3.634   3.446   4.322  0.0230 -0.0336 -1.3332
   54CHL1  H21C 5157   3.597   3.326   4.456  0.5305  0.7892  0.5193
   54CHL1   C22 5158   3.851   3.363   4.484  0.4034  0.3350 -0.3818
   54CHL1  H22A 5159   3.960   3.344   4.482  0.2817 -1.0568  2.3396
   54CHL1  H22B 5160   3.834   3.472   4.487 -2.3036  0.0861 -2.5706
   54CHL1   C23 5161   3.810   3.295   4.615  0.3428  0.6362 -0.1436
   54CHL1  H23A 5162   3.703   3.314   4.639  0.3743 -0.0699  0.6319
   54CHL1  H23B 5163   3.824   3.184   4.614 -2.1965  0.2486 -1.8514
   54CHL1   C24 5164   3.888   3.340   4.741 -0.9663  0.4568  0.3213
   54CHL1  H24A 5165   3.994   3.323   4.713 -0.5099 -0.0274  2.2205
   54CHL1  H24B 5166   3.875   3.449   4.751  1.3837  0.8137  0.0381
   54CHL1   C25 5167   3.862   3.255   4.871 -0.4563 -0.0623 -0.1412
   54CHL1   H25 5168   3.883   3.148   4.848 -0.4354 -0.4669  1.6323
   54CHL1   C26 5169   3.968   3.292   4.977  0.3095  0.0739 -0.0148
   54CHL1  H26A 5170   3.966   3.399   5.009  1.1747  0.4722 -1.1945
   54CHL1  H26B 5171   3.961   3.230   5.068 -0.0026 -1.3919 -1.0098
   54CHL1  H26C 5172   4.067   3.280   4.928  0.0394  1.8750 -1.0848
   54CHL1   C27 5173   3.715   3.261   4.913 -0.2022  0.1869 -0.6497
   54CHL1  H27A 5174   3.691   3.189   4.994  0.1398  0.7431 -0.0482
   54CHL1  H27B 5175   3.672   3.362   4.931 -2.0281 -0.3338 -1.7577
   54CHL1  H27C 5176   3.647   3.226   4.832  0.7357 -1.8072 -0.6378
   55CHL1    C3 5177   5.498   3.565   3.317  0.6675 -0.0596 -0.3701
   55CHL1    H3 5178   5.594   3.607   3.354  1.2883 -0.5299 -1.3868
   55CHL1    O3 5179   5.495   3.597   3.182 -0.8577  0.0195  0.0293
   55CHL1   H3' 5180   5.405   3.577   3.156 -1.2848 -2.7748  3.0548
   55CHL1    C4 5181   5.502   3.415   3.342 -0.4545 -0.2235 -0.7998
   55CHL1   H4A 5182   5.414   3.365   3.297 -0.6440 -1.0652  0.4685
   55CHL1   H4B 5183   5.588   3.369   3.289 -1.8605 -1.6691 -1.9275
   55CHL1    C5 5184   5.494   3.379   3.485  0.0576 -0.1701  0.0010
   55CHL1    C6 5185   5.596   3.310   3.544 -0.3460  0.2798  0.8257
   55CHL1    H6 5186   5.683   3.284   3.482 -0.2003  1.3954  0.5408
   55CHL1    C7 5187   5.595   3.282   3.692  0.3309 -0.0750  0.2834
   55CHL1   H7A 5188   5.624   3.177   3.713 -0.4577 -0.1791  0.8867
   55CHL1   H7B 5189   5.665   3.340   3.756 -0.6569 -0.4942  1.7843
   55CHL1    C8 5190   5.460   3.307   3.756 -0.3726 -0.3435  0.4288
   55CHL1    H8 5191   5.389   3.226   3.726  0.3688 -1.4761  1.6022
   55CHL1   C14 5192   5.475   3.294   3.909  0.0135 -0.0778  0.0017
   55CHL1   H14 5193   5.553   3.367   3.939  0.6955 -0.8286  0.0894
   55CHL1   C15 5194   5.526   3.151   3.954  0.4128 -0.5822  0.3796
   55CHL1  H15A 5195   5.473   3.071   3.899 -0.3283  0.5992 -0.6871
   55CHL1  H15B 5196   5.637   3.154   3.940  0.6867 -1.3269  2.1085
   55CHL1   C16 5197   5.493   3.157   4.099 -0.0181 -0.4850 -1.2101
   55CHL1  H16A 5198   5.434   3.065   4.119  0.1279 -0.0533  1.6206
   55CHL1  H16B 5199   5.577   3.158   4.171 -0.0034  0.1846 -1.2213
   55CHL1   C17 5200   5.411   3.288   4.126  0.3185  0.4935  0.1840
   55CHL1   H17 5201   5.492   3.357   4.157 -0.3595  1.5031 -0.2090
   55CHL1   C13 5202   5.355   3.329   3.992  0.0235 -0.5849  0.5962
   55CHL1   C18 5203   5.236   3.240   3.955  0.1435  0.7554  0.3103
   55CHL1  H18A 5204   5.209   3.271   3.852  0.1885 -0.3816 -0.0559
   55CHL1  H18B 5205   5.260   3.132   3.951 -2.0569  0.2574 -1.9382
   55CHL1  H18C 5206   5.144   3.259   4.015  0.0740  1.3915  0.0033
   55CHL1   C12 5207   5.328   3.476   3.963 -0.5420 -0.3631 -0.0459
   55CHL1  H12A 5208   5.237   3.513   4.015 -0.5308 -0.0059 -0.2720
   55CHL1  H12B 5209   5.400   3.541   4.017 -3.2444  0.8935  2.3634
   55CHL1   C11 5210   5.312   3.512   3.816  0.1518 -0.1956  0.0346
   55CHL1  H11A 5211   5.210   3.480   3.787  0.1560 -0.1401 -0.0445
   55CHL1  H11B 5212   5.315   3.621   3.793  1.8138 -0.4899 -1.3980
   55CHL1    C9 5213   5.419   3.446   3.721  0.2281 -0.3093 -0.1516
   55CHL1    H9 5214   5.504   3.512   3.746 -0.8819  0.2470  2.4551
   55CHL1   C10 5215   5.387   3.453   3.566  0.7381  0.3975 -0.2932
   55CHL1   C19 5216   5.249   3.376   3.542  0.1578 -0.5295 -0.2944
   55CHL1  H19A 5217   5.168   3.436   3.588  0.0059 -0.3543 -0.7880
   55CHL1  H19B 5218   5.209   3.370   3.439 -0.7608 -2.2522  0.1187
   55CHL1  H19C 5219   5.240   3.279   3.596 -1.4950 -1.7917 -2.6581
   55CHL1    C1 5220   5.363   3.600   3.532 -0.3189  0.3489 -0.8289
   55CHL1   H1A 5221   5.266   3.636   3.573 -0.0369  0.0525  0.1235
   55CHL1   H1B 5222   5.446   3.658   3.578 -0.9829  2.5878 -2.3178
   55CHL1    C2 5223   5.376   3.619   3.385  0.4289 -1.0305 -0.9724
   55CHL1   H2A 5224   5.376   3.729   3.369 -1.9521 -0.5743  1.4778
   55CHL1   H2B 5225   5.283   3.584   3.336 -1.5739  3.7097 -1.0971
   55CHL1   C20 5226   5.314   3.267   4.249 -0.0707 -0.3598 -0.6916
   55CHL1   H20 5227   5.238   3.189   4.230  0.9369 -1.7355  0.6837
   55CHL1   C21 5228   5.235   3.399   4.276 -0.4831  0.1726  0.1000
   55CHL1  H21A 5229   5.171   3.379   4.364 -0.4388  2.8690  0.8177
   55CHL1  H21B 5230   5.165   3.420   4.192  0.5968 -0.6726 -1.0571
   55CHL1  H21C 5231   5.310   3.480   4.294  0.1252 -0.4586  0.4650
   55CHL1   C22 5232   5.385   3.221   4.380  0.0587 -0.4067 -0.4698
   55CHL1  H22A 5233   5.454   3.134   4.368 -1.4662 -1.9678  1.3797
   55CHL1  H22B 5234   5.449   3.296   4.430 -0.5958  1.3299 -2.1187
   55CHL1   C23 5235   5.291   3.173   4.489 -0.5880  0.3987 -0.6619
   55CHL1  H23A 5236   5.249   3.268   4.528 -2.1802  0.1590 -1.6968
   55CHL1  H23B 5237   5.217   3.110   4.436  0.2392  0.4280 -1.8987
   55CHL1   C24 5238   5.364   3.090   4.599  0.4684  0.4124  0.6467
   55CHL1  H24A 5239   5.410   3.011   4.536 -0.8959  0.3229 -0.2917
   55CHL1  H24B 5240   5.455   3.145   4.632  1.8420 -2.3025  1.6831
   55CHL1   C25 5241   5.276   3.054   4.718 -0.4595 -0.1770  0.0562
   55CHL1   H25 5242   5.175   3.018   4.690  0.1447  0.2656 -3.0647
   55CHL1   C26 5243   5.343   2.941   4.799  0.5002 -0.2464  0.2958
   55CHL1  H26A 5244   5.446   2.971   4.828  0.7337 -1.3981  0.7056
   55CHL1  H26B 5245   5.273   2.913   4.880  0.8832 -2.8041 -0.1825
   55CHL1  H26C 5246   5.353   2.846   4.743 -0.7661 -0.0214 -0.3407
   55CHL1   C27 5247   5.251   3.181   4.804 -0.0876 -0.3685  0.2161
   55CHL1  H27A 5248   5.214   3.155   4.905  0.4959  0.8927  0.7814
   55CHL1  H27B 5249   5.335   3.253   4.817  1.1652 -1.3680 -1.8051
   55CHL1  H27C 5250   5.173   3.237   4.748  0.6812 -1.4696 -2.1104
   56CHL1    C3 5251   6.666   4.880   3.193 -0.6367  0.6250 -0.1135
   56CHL1    H3 5252   6.555   4.874   3.182 -0.4751 -1.4120 -1.0595
   56CHL1    O3 5253   6.715   4.863   3.062 -0.2177 -0.0195  0.2017
   56CHL1   H3' 5254   6.659   4.795   3.024  0.3834 -0.2520 -0.2853
   56CHL1    C4 5255   6.711   5.022   3.227 -0.5120 -0.6683 -0.6907
   56CHL1   H4A 5256   6.819   5.040   3.207 -0.2765  0.9253  1.6512
   56CHL1   H4B 5257   6.649   5.092   3.167 -0.2329 -0.6257 -0.9376
   56CHL1    C5 5258   6.699   5.063   3.375  0.2896  0.7395  0.1805
   56CHL1    C6 5259   6.629   5.168   3.411  0.4396 -0.2213 -0.1496
   56CHL1    H6 5260   6.597   5.243   3.337  3.0797  1.5824  0.4103
   56CHL1    C7 5261   6.612   5.212   3.554  1.3140  0.3472  0.6379
   56CHL1   H7A 5262   6.642   5.319   3.562  0.3969  0.6374  0.2851
   56CHL1   H7B 5263   6.505   5.205   3.584  1.4308 -1.6400  0.7230
   56CHL1    C8 5264   6.684   5.130   3.660 -0.5392  0.3126  0.7385
   56CHL1    H8 5265   6.790   5.163   3.660  0.1791 -1.8128  0.5872
   56CHL1   C14 5266   6.635   5.145   3.805 -0.4280 -0.1998 -0.2944
   56CHL1   H14 5267   6.536   5.096   3.803 -0.1691 -0.7596  0.1207
   56CHL1   C15 5268   6.609   5.292   3.848 -0.0061  0.3050  0.3703
   56CHL1  H15A 5269   6.700   5.353   3.831  0.0748  0.0826 -0.0232
   56CHL1  H15B 5270   6.519   5.340   3.803 -0.4505  0.3541  1.2837
   56CHL1   C16 5271   6.588   5.276   3.998  0.4819 -0.6581 -0.0648
   56CHL1  H16A 5272   6.622   5.369   4.049 -1.2722  0.1309 -0.2759
   56CHL1  H16B 5273   6.481   5.261   4.023 -0.2244 -1.1686 -3.0374
   56CHL1   C17 5274   6.645   5.136   4.041  0.2218 -0.0213  0.1184
   56CHL1   H17 5275   6.552   5.075   4.049  1.3858 -1.7548  1.0357
   56CHL1   C13 5276   6.715   5.081   3.914  0.3033  0.1202 -0.2494
   56CHL1   C18 5277   6.861   5.131   3.912  0.0426 -0.4355 -0.1092
   56CHL1  H18A 5278   6.882   5.240   3.920 -0.8220 -0.3317  0.8528
   56CHL1  H18B 5279   6.915   5.078   3.993  0.3872  1.3227  0.8643
   56CHL1  H18C 5280   6.905   5.094   3.817 -0.3454 -1.7472  0.1981
   56CHL1   C12 5281   6.711   4.928   3.878 -0.1984 -0.5748 -0.0202
   56CHL1  H12A 5282   6.769   4.863   3.947 -0.7401 -0.0223  0.9864
   56CHL1  H12B 5283   6.607   4.892   3.894 -0.1300 -0.1073  1.7171
   56CHL1   C11 5284   6.749   4.893   3.732  0.5338  0.3078 -0.0030
   56CHL1  H11A 5285   6.858   4.908   3.723  0.3905  1.7003  0.3258
   56CHL1  H11B 5286   6.733   4.784   3.712 -2.4088  1.0394 -2.4844
   56CHL1    C9 5287   6.684   4.980   3.624 -0.3431  0.2546 -0.3537
   56CHL1    H9 5288   6.575   4.958   3.610 -0.2648  0.8427 -2.2658
   56CHL1   C10 5289   6.739   4.950   3.483 -0.5873  0.4133 -0.6855
   56CHL1   C19 5290   6.890   4.965   3.485  0.3864  0.6825  1.3479
   56CHL1  H19A 5291   6.932   5.053   3.537 -0.0817  0.8133  1.5068
   56CHL1  H19B 5292   6.940   4.874   3.525 -0.1679 -0.7222 -0.9437
   56CHL1  H19C 5293   6.924   4.960   3.379 -1.5675  1.0337  0.6812
   56CHL1    C1 5294   6.687   4.806   3.442  0.4323  0.9138  0.6539
   56CHL1   H1A 5295   6.730   4.732   3.512  2.3720 -2.2573 -3.4738
   56CHL1   H1B 5296   6.576   4.799   3.449  0.1559  0.0325 -2.6972
   56CHL1    C2 5297   6.710   4.769   3.297  0.0251 -0.2343  0.1595
   56CHL1   H2A 5298   6.659   4.677   3.262 -0.2210  0.4590 -1.4005
   56CHL1   H2B 5299   6.817   4.746   3.276  0.1508  0.1696  0.3517
   56CHL1   C20 5300   6.724   5.128   4.174 -0.0529 -0.1772 -0.5860
   56CHL1   H20 5301   6.817   5.186   4.159  0.3834 -0.4947  0.8094
   56CHL1   C21 5302   6.744   4.985   4.211 -0.2362 -0.5981 -0.1998
   56CHL1  H21A 5303   6.806   4.969   4.302  2.6341 -1.9562 -2.2246
   56CHL1  H21B 5304   6.795   4.928   4.131 -0.7789 -2.0874  0.4694
   56CHL1  H21C 5305   6.642   4.942   4.214 -0.9402  0.8770 -1.8156
   56CHL1   C22 5306   6.639   5.194   4.288 -0.0757 -0.3294 -0.5722
   56CHL1  H22A 5307   6.606   5.294   4.252  0.4456 -0.1238 -0.4938
   56CHL1  H22B 5308   6.540   5.147   4.308 -0.9232  2.1384  1.6916
   56CHL1   C23 5309   6.720   5.229   4.409 -0.0998  0.3548  0.5534
   56CHL1  H23A 5310   6.755   5.146   4.474 -1.5295 -1.7855 -1.2459
   56CHL1  H23B 5311   6.806   5.298   4.392  0.9012 -0.8111  0.7219
   56CHL1   C24 5312   6.632   5.320   4.499 -0.4193  0.2711 -0.4535
   56CHL1  H24A 5313   6.613   5.417   4.449  1.1589  0.8157 -0.0334
   56CHL1  H24B 5314   6.530   5.276   4.507 -0.2054 -0.0868  0.4930
   56CHL1   C25 5315   6.696   5.350   4.638  0.1549  0.1246  0.3106
   56CHL1   H25 5316   6.805   5.361   4.620 -0.2003  2.7300 -0.7737
   56CHL1   C26 5317   6.641   5.476   4.688  0.3927  0.2312  0.3724
   56CHL1  H26A 5318   6.682   5.568   4.643 -1.2129  2.3168  2.8610
   56CHL1  H26B 5319   6.532   5.475   4.665  0.4536 -1.4006  0.0566
   56CHL1  H26C 5320   6.656   5.485   4.798  1.9185  1.4394  0.0989
   56CHL1   C27 5321   6.657   5.237   4.728  0.0557 -0.4997 -0.2558
   56CHL1  H27A 5322   6.699   5.137   4.703 -0.7183 -0.9832  0.3389
   56CHL1  H27B 5323   6.689   5.265   4.830  0.3324  0.6751 -0.6445
   56CHL1  H27C 5324   6.546   5.239   4.724  0.0641  0.4680 -0.2196
   57CHL1    C3 5325   5.443   5.282   3.099  0.2567  0.6019 -0.9088
   57CHL1    H3 5326   5.412   5.379   3.143  0.2871  0.0662  0.3090
   57CHL1    O3 5327   5.426   5.285   2.965 -0.3345 -0.2627  0.1385
   57CHL1   H3' 5328   5.500   5.336   2.932 -0.3800 -0.2194  0.1047
   57CHL1    C4 5329   5.592   5.254   3.136 -0.1014 -0.1523  0.3212
   57CHL1   H4A 5330   5.618   5.162   3.080 -1.1748 -0.6154  0.5460
   57CHL1   H4B 5331   5.644   5.339   3.087  0.2115 -0.2042  0.5625
   57CHL1    C5 5332   5.617   5.241   3.290 -0.0784 -0.4045  0.4806
   57CHL1    C6 5333   5.710   5.311   3.360 -0.6080 -0.4392  0.1266
   57CHL1    H6 5334   5.785   5.378   3.315  1.7275 -1.2644  2.5605
   57CHL1    C7 5335   5.734   5.291   3.507 -0.0950  0.2041  0.4833
   57CHL1   H7A 5336   5.840   5.267   3.529 -0.6416 -3.0931  0.0265
   57CHL1   H7B 5337   5.710   5.382   3.565  0.6898  0.8521 -0.1972
   57CHL1    C8 5338   5.656   5.168   3.567 -0.4376 -0.4805 -0.2770
   57CHL1    H8 5339   5.711   5.073   3.547  0.5761  0.1073 -0.3714
   57CHL1   C14 5340   5.643   5.173   3.718 -0.0063 -0.1978 -0.2770
   57CHL1   H14 5341   5.576   5.258   3.742 -1.3491 -1.7352  1.7632
   57CHL1   C15 5342   5.763   5.216   3.817 -0.0865 -0.5546 -0.0878
   57CHL1  H15A 5343   5.856   5.168   3.780  0.6789  0.3939  0.5793
   57CHL1  H15B 5344   5.784   5.324   3.802  1.4857 -0.6788  1.0751
   57CHL1   C16 5345   5.719   5.191   3.959  0.1610  0.1796 -0.0555
   57CHL1  H16A 5346   5.797   5.131   4.012  0.5356  0.9479  0.2829
   57CHL1  H16B 5347   5.701   5.286   4.012  1.9937  0.6867 -0.2744
   57CHL1   C17 5348   5.579   5.113   3.940 -0.2562  0.4337  0.4808
   57CHL1   H17 5349   5.502   5.193   3.935 -1.4306 -0.5935  1.4638
   57CHL1   C13 5350   5.577   5.064   3.789  0.0584  0.3458 -0.0259
   57CHL1   C18 5351   5.664   4.933   3.773  0.3594  0.5922 -0.5754
   57CHL1  H18A 5352   5.774   4.938   3.787  0.4075  0.7107 -0.9889
   57CHL1  H18B 5353   5.618   4.856   3.838  2.3829  0.1106  0.3865
   57CHL1  H18C 5354   5.661   4.880   3.675  0.5287 -2.1181  0.7684
   57CHL1   C12 5355   5.434   5.036   3.739 -0.4235 -0.1295 -0.1600
   57CHL1  H12A 5356   5.394   4.943   3.784 -3.3854  1.3569  0.5244
   57CHL1  H12B 5357   5.370   5.120   3.773  1.4025  1.1548  0.3086
   57CHL1   C11 5358   5.447   5.026   3.583  0.0618  0.0859 -0.0558
   57CHL1  H11A 5359   5.513   4.939   3.559  0.8892  0.2178  1.6371
   57CHL1  H11B 5360   5.347   5.014   3.536  0.8067 -1.0409 -1.4355
   57CHL1    C9 5361   5.519   5.151   3.511  0.8867  0.5148  0.6564
   57CHL1    H9 5362   5.453   5.235   3.543 -0.4048 -0.3354  0.3288
   57CHL1   C10 5363   5.523   5.141   3.354 -0.4762 -0.2632  0.4071
   57CHL1   C19 5364   5.560   4.999   3.311 -0.2261  0.7879 -0.4901
   57CHL1  H19A 5365   5.650   4.957   3.360  0.9701  2.4727 -1.1581
   57CHL1  H19B 5366   5.477   4.928   3.330  0.6779 -0.1131  0.1975
   57CHL1  H19C 5367   5.567   4.988   3.201 -0.7050  0.7235 -0.5145
   57CHL1    C1 5368   5.376   5.158   3.311  0.6440  0.1529 -0.0882
   57CHL1   H1A 5369   5.320   5.073   3.356 -1.0321  1.1096 -0.3150
   57CHL1   H1B 5370   5.326   5.243   3.362 -1.4667 -1.4187  0.5965
   57CHL1    C2 5371   5.351   5.179   3.158  0.7179  0.7801  0.2360
   57CHL1   H2A 5372   5.244   5.205   3.141  0.6567  0.0860 -0.4889
   57CHL1   H2B 5373   5.377   5.090   3.096 -4.0709  0.0462 -1.2004
   57CHL1   C20 5374   5.529   5.010   4.051 -0.5386  0.0744 -0.3214
   57CHL1   H20 5375   5.456   4.941   4.003 -0.7655  0.8376 -1.0947
   57CHL1   C21 5376   5.455   5.090   4.160 -0.8997 -0.6908  0.5346
   57CHL1  H21A 5377   5.409   5.030   4.241 -1.1635  0.1283  0.9988
   57CHL1  H21B 5378   5.373   5.147   4.111  0.4373  1.4789  0.7179
   57CHL1  H21C 5379   5.522   5.160   4.212 -0.5045 -0.5231 -0.1857
   57CHL1   C22 5380   5.651   4.932   4.110  0.7535 -0.0517  0.2008
   57CHL1  H22A 5381   5.696   4.858   4.042  1.7709  1.4369 -0.8020
   57CHL1  H22B 5382   5.725   5.009   4.140  0.3297  0.3450  0.2466
   57CHL1   C23 5383   5.611   4.856   4.243 -0.3974  0.0130  0.6424
   57CHL1  H23A 5384   5.591   4.936   4.317  1.3548  0.6674  0.4303
   57CHL1  H23B 5385   5.507   4.817   4.233 -2.0343  3.4860  2.3402
   57CHL1   C24 5386   5.720   4.762   4.310 -0.2038  0.0843  0.1823
   57CHL1  H24A 5387   5.738   4.678   4.239  1.5708 -0.8136  1.6231
   57CHL1  H24B 5388   5.817   4.815   4.315 -0.2255  0.2349 -0.7773
   57CHL1   C25 5389   5.693   4.700   4.457 -0.0028  0.5126  1.1428
   57CHL1   H25 5390   5.692   4.788   4.526 -0.9237  0.0500  1.7409
   57CHL1   C26 5391   5.563   4.621   4.471  0.5205  0.2130 -0.3392
   57CHL1  H26A 5392   5.562   4.538   4.397  0.3456 -2.8778  2.9138
   57CHL1  H26B 5393   5.558   4.567   4.567 -1.4916 -1.2976 -1.2122
   57CHL1  H26C 5394   5.473   4.685   4.463  0.8445  0.8897  1.1614
   57CHL1   C27 5395   5.806   4.614   4.503  0.6393  0.4848  0.5797
   57CHL1  H27A 5396   5.799   4.505   4.484  2.8545  0.4050 -0.0151
   57CHL1  H27B 5397   5.909   4.651   4.483  0.0371  1.3321 -1.1238
   57CHL1  H27C 5398   5.805   4.618   4.614  4.1217  2.3473  0.6665
   58CHL1    C3 5399   5.866   3.588   3.474 -0.3572  0.7801 -0.0424
   58CHL1    H3 5400   5.786   3.511   3.484  0.7227 -0.1754  1.8882
   58CHL1    O3 5401   5.896   3.613   3.339 -0.1655  0.0506  0.4550
   58CHL1   H3' 5402   5.975   3.666   3.354 -0.0402 -0.5423  2.0977
   58CHL1    C4 5403   5.825   3.716   3.554 -0.6788 -0.3312  0.7477
   58CHL1   H4A 5404   5.910   3.787   3.542 -1.2108  0.3630  1.0117
   58CHL1   H4B 5405   5.739   3.760   3.500 -0.9475 -2.4921 -0.6651
   58CHL1    C5 5406   5.812   3.685   3.703  0.2176 -0.0637  0.6225
   58CHL1    C6 5407   5.697   3.721   3.762  0.3429 -0.0638 -0.5156
   58CHL1    H6 5408   5.617   3.770   3.705 -0.3158  0.1063  0.5356
   58CHL1    C7 5409   5.662   3.713   3.910  0.5068  0.1574  0.0086
   58CHL1   H7A 5410   5.636   3.819   3.934 -0.0009 -0.2475  1.3807
   58CHL1   H7B 5411   5.569   3.652   3.916 -0.2328  0.7788 -3.3264
   58CHL1    C8 5412   5.782   3.663   3.997  0.2675  0.0883  0.4508
   58CHL1    H8 5413   5.846   3.750   4.023 -1.2344  1.1471  0.7130
   58CHL1   C14 5414   5.737   3.590   4.130 -0.7372  0.1731  0.3590
   58CHL1   H14 5415   5.685   3.495   4.105 -1.0056 -0.6667  3.6062
   58CHL1   C15 5416   5.639   3.674   4.215  0.2940 -0.2985  0.1462
   58CHL1  H15A 5417   5.690   3.771   4.237 -1.8439  0.4648  2.1250
   58CHL1  H15B 5418   5.542   3.696   4.168  0.0811  2.7518  1.7357
   58CHL1   C16 5419   5.626   3.584   4.333 -0.6592  0.1282  0.3739
   58CHL1  H16A 5420   5.612   3.652   4.419  3.3050  0.7664  0.6719
   58CHL1  H16B 5421   5.531   3.527   4.324 -0.7096  0.1522  0.7460
   58CHL1   C17 5422   5.754   3.490   4.343 -0.0793 -0.2339  0.6448
   58CHL1   H17 5423   5.721   3.390   4.306 -2.5537  1.7822 -3.3442
   58CHL1   C13 5424   5.850   3.544   4.232  0.3713 -0.0176  0.6308
   58CHL1   C18 5425   5.930   3.657   4.287  0.0140 -0.2168  1.0560
   58CHL1  H18A 5426   5.876   3.715   4.364  0.9781  0.3115  1.3374
   58CHL1  H18B 5427   6.029   3.625   4.325  0.5698  1.2450  0.9013
   58CHL1  H18C 5428   5.957   3.733   4.210 -1.3691  1.0318  1.7658
   58CHL1   C12 5429   5.932   3.438   4.141 -0.0356 -0.0367  0.6949
   58CHL1  H12A 5430   6.022   3.400   4.195  0.4905  1.1490  0.6804
   58CHL1  H12B 5431   5.871   3.350   4.110  0.2772  0.7024 -2.3876
   58CHL1   C11 5432   5.987   3.505   4.013 -0.3236 -0.1012  0.5689
   58CHL1  H11A 5433   6.052   3.590   4.045 -0.9757  0.0220  1.6117
   58CHL1  H11B 5434   6.044   3.432   3.952  0.2708  0.8219 -0.0212
   58CHL1    C9 5435   5.877   3.568   3.924 -0.7417 -0.1019 -0.0128
   58CHL1    H9 5436   5.811   3.482   3.898 -0.8234 -0.1551  0.3546
   58CHL1   C10 5437   5.924   3.618   3.786 -0.3623 -0.2196  0.7598
   58CHL1   C19 5438   6.027   3.723   3.816  0.0095  0.3545 -0.1250
   58CHL1  H19A 5439   5.990   3.803   3.882 -2.6935 -0.8379 -0.0726
   58CHL1  H19B 5440   6.111   3.675   3.871  0.8046  3.7434  1.9281
   58CHL1  H19C 5441   6.080   3.773   3.731  2.1630 -0.3459  0.7234
   58CHL1    C1 5442   5.974   3.502   3.699 -0.5229 -0.8462  0.3975
   58CHL1   H1A 5443   6.070   3.454   3.726  0.1864  0.1716 -0.2185
   58CHL1   H1B 5444   5.899   3.420   3.692 -1.7646  0.3014 -0.2391
   58CHL1    C2 5445   5.995   3.535   3.547 -0.0779  0.5671 -0.5300
   58CHL1   H2A 5446   6.031   3.439   3.504  0.3885 -0.6328  2.3286
   58CHL1   H2B 5447   6.085   3.598   3.540 -0.6368  1.3455 -0.7854
   58CHL1   C20 5448   5.806   3.484   4.486 -0.0738  0.0871  0.1828
   58CHL1   H20 5449   5.856   3.574   4.527 -2.1407  0.5336  1.8531
   58CHL1   C21 5450   5.922   3.383   4.495 -0.3485 -0.8428  0.7623
   58CHL1  H21A 5451   5.891   3.291   4.441 -0.2258 -0.7693  0.5657
   58CHL1  H21B 5452   5.944   3.359   4.601 -2.2783 -2.5728  0.8329
   58CHL1  H21C 5453   6.017   3.423   4.453 -0.7284 -2.1499 -1.5447
   58CHL1   C22 5454   5.695   3.448   4.592  0.5346  0.2235  0.1510
   58CHL1  H22A 5455   5.621   3.530   4.605  1.3521  0.6675  2.3335
   58CHL1  H22B 5456   5.648   3.356   4.548  3.0367 -1.2435  0.3828
   58CHL1   C23 5457   5.737   3.422   4.738 -0.5475 -0.0654 -0.1901
   58CHL1  H23A 5458   5.772   3.318   4.752  1.1940  0.7289  1.8543
   58CHL1  H23B 5459   5.824   3.488   4.758 -0.6067 -0.2613  0.7099
   58CHL1   C24 5460   5.627   3.439   4.848 -0.1740 -0.3165  0.0663
   58CHL1  H24A 5461   5.581   3.538   4.827  0.9838  0.0930 -0.6611
   58CHL1  H24B 5462   5.554   3.356   4.840 -1.6329  0.8051  1.2842
   58CHL1   C25 5463   5.690   3.441   4.993  0.3555 -1.2770 -0.0408
   58CHL1   H25 5464   5.756   3.530   4.995 -3.9338  2.2558  1.5531
   58CHL1   C26 5465   5.578   3.476   5.095  0.1506  0.3487 -0.6799
   58CHL1  H26A 5466   5.494   3.403   5.095  0.5952 -0.1911 -1.7947
   58CHL1  H26B 5467   5.616   3.491   5.198 -1.7271  2.5385 -0.1962
   58CHL1  H26C 5468   5.524   3.572   5.075  1.5839  1.4219  0.4513
   58CHL1   C27 5469   5.759   3.316   5.042 -0.0281 -0.1977 -0.0476
   58CHL1  H27A 5470   5.680   3.243   5.016  2.0594 -1.8522 -2.3311
   58CHL1  H27B 5471   5.846   3.281   4.982 -1.0247  1.1678 -2.4546
   58CHL1  H27C 5472   5.783   3.318   5.150  2.6913  2.2768 -0.5468
   59CHL1    C3 5473   3.975   4.634   3.278 -0.2594 -0.0727  0.5606
   59CHL1    H3 5474   4.059   4.706   3.288 -1.2706  1.4656 -1.2242
   59CHL1    O3 5475   3.950   4.625   3.140 -0.3825  0.8721  0.1395
   59CHL1   H3' 5476   3.861   4.657   3.129 -1.4895 -0.8303  3.0578
   59CHL1    C4 5477   4.018   4.496   3.321 -0.2753 -0.6059 -0.3154
   59CHL1   H4A 5478   3.930   4.431   3.300 -1.9095  0.7612  1.8623
   59CHL1   H4B 5479   4.112   4.468   3.270 -0.4994 -1.3499 -0.3253
   59CHL1    C5 5480   4.034   4.502   3.476  0.4115  0.1118  0.0525
   59CHL1    C6 5481   4.143   4.461   3.533 -0.1390  0.0969 -0.1270
   59CHL1    H6 5482   4.228   4.424   3.474  0.4174 -1.5923  1.6156
   59CHL1    C7 5483   4.171   4.454   3.683 -0.1835  0.5627 -0.4060
   59CHL1   H7A 5484   4.211   4.355   3.712  0.8159  0.8833 -0.6625
   59CHL1   H7B 5485   4.251   4.528   3.706  0.6564 -0.6919  0.8601
   59CHL1    C8 5486   4.044   4.488   3.764 -1.0539  0.7224 -0.3475
   59CHL1    H8 5487   3.984   4.395   3.768  0.7526 -0.5451 -1.5374
   59CHL1   C14 5488   4.090   4.518   3.909 -1.2695 -0.7621 -0.1735
   59CHL1   H14 5489   4.147   4.610   3.883 -0.7621 -1.0720 -0.1801
   59CHL1   C15 5490   4.192   4.430   3.977  0.1781  0.1131  0.4225
   59CHL1  H15A 5491   4.177   4.321   3.961 -1.3084  0.1167  1.6220
   59CHL1  H15B 5492   4.293   4.464   3.945  1.2630 -2.9655  0.3340
   59CHL1   C16 5493   4.174   4.460   4.135 -0.1978 -0.4254  0.5422
   59CHL1  H16A 5494   4.135   4.370   4.186 -3.2244 -1.8475 -3.7157
   59CHL1  H16B 5495   4.272   4.499   4.170 -0.0944 -0.4714  0.2999
   59CHL1   C17 5496   4.067   4.580   4.133 -0.8043 -0.1250 -0.2979
   59CHL1   H17 5497   4.125   4.672   4.111  0.1231 -1.0167 -1.8260
   59CHL1   C13 5498   3.977   4.557   4.005  0.6526 -0.2586  0.2107
   59CHL1   C18 5499   3.871   4.441   4.029 -0.1579 -0.2194 -0.1181
   59CHL1  H18A 5500   3.772   4.483   4.057  1.6965  3.3175  1.8874
   59CHL1  H18B 5501   3.853   4.399   3.928 -0.1649  0.9904 -0.6375
   59CHL1  H18C 5502   3.904   4.354   4.091 -0.3892 -0.4374 -0.2984
   59CHL1   C12 5503   3.912   4.679   3.936 -0.0463  0.3535 -0.1108
   59CHL1  H12A 5504   3.822   4.715   3.990 -1.5905 -1.1521 -1.5690
   59CHL1  H12B 5505   3.986   4.758   3.912  1.8403 -0.8463  1.3729
   59CHL1   C11 5506   3.855   4.648   3.796  0.9396  0.3269  0.0202
   59CHL1  H11A 5507   3.791   4.557   3.804  1.7752 -0.5054 -2.0369
   59CHL1  H11B 5508   3.786   4.729   3.763  0.4374 -0.0028  0.2483
   59CHL1    C9 5509   3.969   4.600   3.704 -0.0898  0.4853  0.1756
   59CHL1    H9 5510   4.042   4.684   3.705  0.8642 -0.3164  1.8220
   59CHL1   C10 5511   3.926   4.570   3.559 -0.8728  0.2410  0.2008
   59CHL1   C19 5512   3.803   4.474   3.562 -0.0637  0.4965  0.9417
   59CHL1  H19A 5513   3.779   4.452   3.456  2.1722  0.4414  0.3922
   59CHL1  H19B 5514   3.813   4.380   3.620 -2.1840 -3.7260 -4.6513
   59CHL1  H19C 5515   3.709   4.520   3.599 -0.8930 -0.1355 -0.3385
   59CHL1    C1 5516   3.875   4.713   3.496  0.2515 -0.2335  0.7170
   59CHL1   H1A 5517   3.783   4.758   3.539 -0.6954 -0.2315 -1.2023
   59CHL1   H1B 5518   3.953   4.791   3.502  0.9839 -0.8246 -0.8451
   59CHL1    C2 5519   3.851   4.689   3.348  0.0734 -0.3727  1.3987
   59CHL1   H2A 5520   3.827   4.791   3.311 -0.3583 -0.1003  2.3947
   59CHL1   H2B 5521   3.761   4.629   3.322 -1.1155  2.9237 -3.5231
   59CHL1   C20 5522   3.994   4.617   4.263  0.7191 -0.2083  0.1313
   59CHL1   H20 5523   3.901   4.662   4.224 -0.7088 -2.7596  0.3590
   59CHL1   C21 5524   4.086   4.715   4.339  0.0902 -0.0798  0.2757
   59CHL1  H21A 5525   4.173   4.657   4.376 -0.0643 -0.9702 -0.7003
   59CHL1  H21B 5526   4.028   4.757   4.424 -0.7545 -1.5322  0.4536
   59CHL1  H21C 5527   4.111   4.801   4.273 -0.6823  0.7456  1.0132
   59CHL1   C22 5528   3.956   4.494   4.359  0.0175  0.8383 -0.1605
   59CHL1  H22A 5529   4.007   4.400   4.329 -0.0926  0.2972  1.2804
   59CHL1  H22B 5530   4.001   4.521   4.457 -2.1421  1.0947  0.7996
   59CHL1   C23 5531   3.807   4.456   4.386 -0.7613  0.4248 -0.0300
   59CHL1  H23A 5532   3.766   4.542   4.442  0.4821  0.2907  1.1328
   59CHL1  H23B 5533   3.743   4.431   4.299  0.0839 -0.7188 -0.3567
   59CHL1   C24 5534   3.808   4.343   4.490  0.9599 -0.1857 -0.0255
   59CHL1  H24A 5535   3.858   4.259   4.439  1.2385 -0.9334  1.4316
   59CHL1  H24B 5536   3.872   4.369   4.577  2.1070 -0.7407 -0.6764
   59CHL1   C25 5537   3.665   4.315   4.539  0.0916  0.1061  0.0032
   59CHL1   H25 5538   3.614   4.407   4.574  0.4641 -0.1609  1.3220
   59CHL1   C26 5539   3.578   4.263   4.417 -0.7457  0.2540 -0.4621
   59CHL1  H26A 5540   3.482   4.214   4.444 -0.1631 -0.6252  0.0651
   59CHL1  H26B 5541   3.546   4.337   4.340 -1.7799  2.2610  1.7836
   59CHL1  H26C 5542   3.644   4.181   4.381 -2.7056 -0.7949 -1.9297
   59CHL1   C27 5543   3.672   4.207   4.650 -0.7866  0.3872 -0.2265
   59CHL1  H27A 5544   3.726   4.116   4.615  0.8422  0.3517  2.1128
   59CHL1  H27B 5545   3.735   4.246   4.733  0.6035 -2.1692  0.0418
   59CHL1  H27C 5546   3.571   4.188   4.693 -2.1128  0.8804 -2.9338
   60CHL1    C3 5547   6.266   2.685   3.650  0.1045  0.7188  0.3525
   60CHL1    H3 5548   6.246   2.785   3.694 -1.0002  0.0256  1.4817
   60CHL1    O3 5549   6.270   2.676   3.509  0.2391 -0.0209 -0.2940
   60CHL1   H3' 5550   6.350   2.725   3.491 -0.1934  1.5512  1.6341
   60CHL1    C4 5551   6.396   2.641   3.709 -0.5788 -0.3433  0.0724
   60CHL1   H4A 5552   6.422   2.537   3.682  2.7768  0.3747  0.0098
   60CHL1   H4B 5553   6.472   2.703   3.656 -2.0805 -0.4148 -2.2879
   60CHL1    C5 5554   6.399   2.652   3.860 -0.6546 -0.2629 -0.2077
   60CHL1    C6 5555   6.493   2.722   3.927  0.1674  0.2176 -0.1234
   60CHL1    H6 5556   6.567   2.778   3.868 -0.3394  3.3642  1.9813
   60CHL1    C7 5557   6.512   2.738   4.076 -0.5223 -0.0174 -0.2623
   60CHL1   H7A 5558   6.619   2.718   4.099 -0.7748  1.0004  2.0545
   60CHL1   H7B 5559   6.496   2.842   4.111  0.7764 -0.0052  0.3457
   60CHL1    C8 5560   6.424   2.632   4.146  0.4640  0.0988 -0.4006
   60CHL1    H8 5561   6.472   2.531   4.139 -1.7520 -0.9194 -5.2655
   60CHL1   C14 5562   6.409   2.676   4.294  0.3347 -0.2374 -0.0996
   60CHL1   H14 5563   6.360   2.776   4.290 -0.3499 -0.5441  0.4011
   60CHL1   C15 5564   6.540   2.697   4.378 -0.1088  1.2117 -0.5669
   60CHL1  H15A 5565   6.625   2.630   4.357 -0.0657  1.2667 -0.5705
   60CHL1  H15B 5566   6.575   2.802   4.362 -1.1214  1.5301 -0.8271
   60CHL1   C16 5567   6.491   2.669   4.520 -0.0657  0.1907 -0.0457
   60CHL1  H16A 5568   6.542   2.579   4.561  0.5194  1.0740  1.2287
   60CHL1  H16B 5569   6.500   2.753   4.592  1.1280  0.3691 -0.3921
   60CHL1   C17 5570   6.341   2.630   4.509  0.0521 -0.2275  0.4246
   60CHL1   H17 5571   6.296   2.732   4.503 -1.9645 -1.1617 -1.5479
   60CHL1   C13 5572   6.325   2.575   4.370  0.1235 -0.1678  0.0114
   60CHL1   C18 5573   6.395   2.438   4.375 -0.0682  0.6479 -0.2130
   60CHL1  H18A 5574   6.352   2.377   4.457 -0.7929  0.3842 -0.7768
   60CHL1  H18B 5575   6.388   2.380   4.280  3.3328 -0.5058  0.1214
   60CHL1  H18C 5576   6.499   2.446   4.411 -1.1153  0.8372  3.0670
   60CHL1   C12 5577   6.178   2.576   4.318 -0.3971  0.2772  0.5427
   60CHL1  H12A 5578   6.110   2.504   4.368 -0.8762  0.2825 -0.0824
   60CHL1  H12B 5579   6.138   2.679   4.328  2.2571  1.8881 -3.2354
   60CHL1   C11 5580   6.177   2.533   4.171  0.3899  0.3168 -0.5522
   60CHL1  H11A 5581   6.206   2.426   4.172  0.3948  0.3009 -1.4915
   60CHL1  H11B 5582   6.072   2.557   4.142 -0.2526 -1.3456  0.2606
   60CHL1    C9 5583   6.277   2.617   4.081  0.2276 -0.2060  0.1285
   60CHL1    H9 5584   6.244   2.724   4.085  0.3468 -0.1835  0.5974
   60CHL1   C10 5585   6.288   2.576   3.932 -0.0720 -0.0094 -0.3641
   60CHL1   C19 5586   6.316   2.422   3.925  0.1928  0.2089  0.5924
   60CHL1  H19A 5587   6.420   2.404   3.961 -0.3112 -1.8403  1.1452
   60CHL1  H19B 5588   6.257   2.353   3.989  2.5429 -1.3903  1.1479
   60CHL1  H19C 5589   6.315   2.388   3.820 -1.0802  0.2908  0.5645
   60CHL1    C1 5590   6.153   2.605   3.860  0.0757  0.6948  0.6387
   60CHL1   H1A 5591   6.082   2.538   3.912  0.9070 -0.1996  0.6524
   60CHL1   H1B 5592   6.135   2.711   3.886 -0.2839  0.5062  1.1851
   60CHL1    C2 5593   6.161   2.593   3.707 -0.3103  0.0419 -0.6704
   60CHL1   H2A 5594   6.060   2.607   3.663 -0.6681  0.8413  0.3671
   60CHL1   H2B 5595   6.183   2.486   3.686  1.6040  0.1979  0.2703
   60CHL1   C20 5596   6.275   2.562   4.631 -0.7540 -0.1918  0.3975
   60CHL1   H20 5597   6.194   2.495   4.595  0.0705 -0.5762 -0.8401
   60CHL1   C21 5598   6.209   2.667   4.726 -0.1977 -0.6861  0.0365
   60CHL1  H21A 5599   6.131   2.729   4.676  0.8532 -0.4258 -1.3471
   60CHL1  H21B 5600   6.298   2.726   4.759 -1.6236  0.5014  1.9588
   60CHL1  H21C 5601   6.168   2.618   4.817  0.5030  0.3048  0.9145
   60CHL1   C22 5602   6.372   2.461   4.705 -0.5243 -0.6780 -0.1385
   60CHL1  H22A 5603   6.447   2.421   4.633 -1.2301  1.9469 -2.5218
   60CHL1  H22B 5604   6.432   2.524   4.774 -0.3617 -2.6969  1.6630
   60CHL1   C23 5605   6.296   2.345   4.774 -0.5581 -0.4452  0.2739
   60CHL1  H23A 5606   6.218   2.387   4.842  0.6491 -0.7651  1.9134
   60CHL1  H23B 5607   6.246   2.287   4.694 -1.0290  0.1150  0.1518
   60CHL1   C24 5608   6.389   2.255   4.861 -0.4757  0.6917 -0.1612
   60CHL1  H24A 5609   6.477   2.219   4.803 -0.2170  3.4017 -1.6368
   60CHL1  H24B 5610   6.421   2.317   4.948 -1.3531  0.2083  0.5149
   60CHL1   C25 5611   6.318   2.142   4.942  0.3172 -0.9554  0.1629
   60CHL1   H25 5612   6.287   2.062   4.871 -0.7990 -1.3195  1.0369
   60CHL1   C26 5613   6.423   2.079   5.040  0.0757  0.1593  0.1450
   60CHL1  H26A 5614   6.506   2.072   4.966 -1.6079 -0.8276 -1.7311
   60CHL1  H26B 5615   6.435   2.153   5.122  0.7404  3.2356 -2.4880
   60CHL1  H26C 5616   6.391   1.974   5.055 -1.1062 -0.2821 -4.0885
   60CHL1   C27 5617   6.201   2.188   5.030  0.2604  0.1543  0.6477
   60CHL1  H27A 5618   6.173   2.118   5.111 -0.8902  1.4562  1.4175
   60CHL1  H27B 5619   6.225   2.283   5.081  1.5783 -0.1410  0.6188
   60CHL1  H27C 5620   6.108   2.201   4.971  1.9961  0.3629 -2.2321
   61CHL1    C3 5621   0.022   5.645   3.124 -0.6861 -0.1725 -0.2240
   61CHL1    H3 5622   0.107   5.643   3.195 -0.0601 -0.0580 -0.9576
   61CHL1    O3 5623   0.072   5.584   3.004 -0.4032 -0.3705 -0.1170
   61CHL1   H3' 5624   0.099   5.657   2.948 -0.7840  0.8532  1.2014
   61CHL1    C4 5625  -0.090   5.559   3.181 -0.2125 -0.5303 -0.6540
   61CHL1   H4A 5626  -0.177   5.551   3.113  0.7994 -0.6679 -1.9608
   61CHL1   H4B 5627  -0.039   5.463   3.203  1.6916  0.8165  1.1899
   61CHL1    C5 5628  -0.141   5.626   3.308  0.1136 -0.9494  0.1523
   61CHL1    C6 5629  -0.156   5.549   3.415  0.0983  0.1333  0.2539
   61CHL1    H6 5630  -0.132   5.443   3.402 -0.1508  0.2887 -1.9154
   61CHL1    C7 5631  -0.214   5.602   3.542 -0.0602 -0.0989 -0.3374
   61CHL1   H7A 5632  -0.281   5.529   3.594 -2.2049  2.7854  1.2767
   61CHL1   H7B 5633  -0.134   5.625   3.616 -0.5780  1.5511 -0.2457
   61CHL1    C8 5634  -0.296   5.733   3.527 -0.0198 -0.9334 -0.3902
   61CHL1    H8 5635  -0.392   5.703   3.480 -1.5676  2.4857  0.3149
   61CHL1   C14 5636  -0.323   5.793   3.663  0.0964  0.0851 -0.0227
   61CHL1   H14 5637  -0.225   5.808   3.714  0.4250 -2.1426  0.0918
   61CHL1   C15 5638  -0.385   5.698   3.764  0.1320  0.4565  0.0899
   61CHL1  H15A 5639  -0.466   5.634   3.722  1.6263 -1.8506  0.5128
   61CHL1  H15B 5640  -0.309   5.630   3.809 -1.2678 -0.2121  1.5604
   61CHL1   C16 5641  -0.445   5.798   3.865 -0.1002 -0.0447 -0.7330
   61CHL1  H16A 5642  -0.551   5.779   3.892 -0.1498 -1.3948 -1.7660
   61CHL1  H16B 5643  -0.381   5.799   3.956  0.6747  1.6511 -1.2654
   61CHL1   C17 5644  -0.420   5.943   3.802  0.2932  0.3394  0.6876
   61CHL1   H17 5645  -0.323   5.979   3.843  0.0367  0.4323  1.2327
   61CHL1   C13 5646  -0.402   5.921   3.655  0.1670 -0.9963  0.4532
   61CHL1   C18 5647  -0.545   5.895   3.588  0.2315 -0.1907 -0.0035
   61CHL1  H18A 5648  -0.535   5.851   3.487 -0.8843 -1.8409  0.5665
   61CHL1  H18B 5649  -0.600   5.828   3.657 -0.9820 -2.4181 -2.9374
   61CHL1  H18C 5650  -0.599   5.992   3.595  1.2434  0.3133  1.5533
   61CHL1   C12 5651  -0.323   6.031   3.577 -0.1027  0.8481  0.8752
   61CHL1  H12A 5652  -0.391   6.117   3.561 -0.6213  0.4363  0.8197
   61CHL1  H12B 5653  -0.227   6.056   3.628  1.6856  2.5801 -2.9218
   61CHL1   C11 5654  -0.283   5.973   3.437  0.1033 -0.0699 -0.2577
   61CHL1  H11A 5655  -0.378   5.956   3.382  1.0285  0.4678 -2.0750
   61CHL1  H11B 5656  -0.216   6.048   3.390 -1.6074  1.6611 -0.0817
   61CHL1    C9 5657  -0.215   5.834   3.440 -0.8462  0.4170  0.2724
   61CHL1    H9 5658  -0.114   5.839   3.486 -0.2774 -1.8113 -0.6377
   61CHL1   C10 5659  -0.185   5.777   3.300 -0.1632 -0.1655 -0.1729
   61CHL1   C19 5660  -0.314   5.780   3.209 -0.0807 -0.3354  0.1174
   61CHL1  H19A 5661  -0.382   5.702   3.249 -1.2551  0.5480 -0.1089
   61CHL1  H19B 5662  -0.361   5.880   3.199  1.0844  0.1461 -0.8929
   61CHL1  H19C 5663  -0.286   5.754   3.105 -2.7489 -0.8914 -0.5201
   61CHL1    C1 5664  -0.070   5.855   3.231 -0.6261  0.2616  0.2371
   61CHL1   H1A 5665  -0.098   5.960   3.208 -0.2582  0.3674  0.2548
   61CHL1   H1B 5666   0.016   5.856   3.302  0.4412  0.7044 -1.0386
   61CHL1    C2 5667  -0.012   5.795   3.106  0.6763 -0.5009  0.0137
   61CHL1   H2A 5668   0.081   5.842   3.067  0.4997  0.9217  1.1860
   61CHL1   H2B 5669  -0.080   5.815   3.021 -0.3793 -0.5202  0.8337
   61CHL1   C20 5670  -0.542   6.029   3.853 -0.7340  0.5468 -0.3283
   61CHL1   H20 5671  -0.637   5.989   3.811  0.1049 -0.4865 -1.3275
   61CHL1   C21 5672  -0.529   6.175   3.789  0.0912  0.4687 -0.2258
   61CHL1  H21A 5673  -0.426   6.215   3.799 -0.4891  1.9206  0.1167
   61CHL1  H21B 5674  -0.596   6.248   3.840 -0.3668 -0.6913  0.8907
   61CHL1  H21C 5675  -0.564   6.185   3.684  0.8944  0.1457 -0.5292
   61CHL1   C22 5676  -0.554   6.042   4.006 -0.1719  0.3234 -0.1931
   61CHL1  H22A 5677  -0.564   5.941   4.053 -1.1738  0.5169  0.0271
   61CHL1  H22B 5678  -0.462   6.092   4.044 -0.1147  0.6725 -0.7850
   61CHL1   C23 5679  -0.668   6.133   4.059  0.0859  0.4975  0.3531
   61CHL1  H23A 5680  -0.668   6.234   4.013  0.5577  0.1375 -0.4680
   61CHL1  H23B 5681  -0.763   6.076   4.052  0.9574 -1.1771  1.4220
   61CHL1   C24 5682  -0.644   6.149   4.212 -0.1063 -0.6482 -0.3153
   61CHL1  H24A 5683  -0.605   6.053   4.252  0.5017  0.3847  1.7126
   61CHL1  H24B 5684  -0.552   6.212   4.215 -0.3315 -0.3118 -0.4034
   61CHL1   C25 5685  -0.766   6.209   4.291 -0.6600  0.3930  0.4652
   61CHL1   H25 5686  -0.848   6.134   4.282 -0.2267  0.0335 -0.6526
   61CHL1   C26 5687  -0.748   6.225   4.438 -0.6676 -0.8158 -0.2810
   61CHL1  H26A 5688  -0.835   6.280   4.479  1.1868  1.6316  0.6039
   61CHL1  H26B 5689  -0.742   6.125   4.488  0.2399 -0.1700  0.9555
   61CHL1  H26C 5690  -0.657   6.281   4.465 -0.2750 -1.1854 -0.8090
   61CHL1   C27 5691  -0.815   6.343   4.241 -0.5166  0.6217  0.3712
   61CHL1  H27A 5692  -0.908   6.376   4.292 -1.4560  0.9795 -1.4946
   61CHL1  H27B 5693  -0.739   6.421   4.260 -0.2332  0.2457  0.7928
   61CHL1  H27C 5694  -0.835   6.329   4.132 -2.5592 -1.5367  0.9269
   62CHL1    C3 5695   3.095   6.195   3.488 -0.2560 -0.0026  0.6408
   62CHL1    H3 5696   2.998   6.176   3.537 -1.6928 -0.9286 -2.3215
   62CHL1    O3 5697   3.049   6.207   3.350 -0.3696 -0.0984 -0.2864
   62CHL1   H3' 5698   3.069   6.296   3.320 -1.7326  1.4581  3.0029
   62CHL1    C4 5699   3.150   6.336   3.535 -0.4357  0.8079 -0.5395
   62CHL1   H4A 5700   3.242   6.370   3.484 -0.3445  0.9333 -0.2900
   62CHL1   H4B 5701   3.079   6.411   3.494  2.5003  2.9274 -2.0913
   62CHL1    C5 5702   3.186   6.335   3.680  0.2900  0.2494  0.0023
   62CHL1    C6 5703   3.128   6.423   3.763  0.3301 -0.7225 -0.0149
   62CHL1    H6 5704   3.059   6.502   3.730  1.2756  0.4633  0.7460
   62CHL1    C7 5705   3.156   6.440   3.906 -0.5559  0.4533  0.3079
   62CHL1   H7A 5706   3.196   6.542   3.926  1.1310 -0.4464  1.7694
   62CHL1   H7B 5707   3.068   6.424   3.971 -0.9772  0.5480 -0.2352
   62CHL1    C8 5708   3.267   6.339   3.963 -0.0547 -0.2304 -0.0311
   62CHL1    H8 5709   3.363   6.388   3.939 -0.3693  1.0596  1.2143
   62CHL1   C14 5710   3.266   6.329   4.111  0.0605 -0.6603 -0.3952
   62CHL1   H14 5711   3.162   6.298   4.135  0.3372 -0.9335  0.5080
   62CHL1   C15 5712   3.279   6.454   4.190  0.1752 -0.6139 -0.3176
   62CHL1  H15A 5713   3.367   6.510   4.154 -0.3444  1.8442  1.8942
   62CHL1  H15B 5714   3.190   6.518   4.170 -1.1033 -2.4959 -0.9706
   62CHL1   C16 5715   3.306   6.403   4.333  0.5626 -0.3415  0.5096
   62CHL1  H16A 5716   3.393   6.460   4.375  0.9725 -1.2722  0.9655
   62CHL1  H16B 5717   3.214   6.422   4.392 -0.3441 -0.4436 -0.8484
   62CHL1   C17 5718   3.339   6.253   4.323 -0.7172  0.4067 -0.0425
   62CHL1   H17 5719   3.250   6.189   4.343 -0.4441 -0.1740 -0.6138
   62CHL1   C13 5720   3.361   6.227   4.179  0.0034  0.3170 -0.1550
   62CHL1   C18 5721   3.509   6.273   4.140  0.0021  0.2681 -0.2774
   62CHL1  H18A 5722   3.531   6.367   4.195 -0.3965  1.8588 -2.6535
   62CHL1  H18B 5723   3.585   6.198   4.167  0.9000  0.4497 -2.1621
   62CHL1  H18C 5724   3.529   6.286   4.031 -1.4069 -1.0371 -0.7210
   62CHL1   C12 5725   3.317   6.084   4.116  0.7512 -0.1273  1.1411
   62CHL1  H12A 5726   3.389   6.015   4.164  2.1078  0.5346  0.1159
   62CHL1  H12B 5727   3.212   6.071   4.151  0.6156 -1.0457  0.4281
   62CHL1   C11 5728   3.331   6.085   3.960  0.4152  0.1713 -1.2280
   62CHL1  H11A 5729   3.436   6.094   3.925  0.8253  2.4518  0.3237
   62CHL1  H11B 5730   3.289   5.990   3.921 -0.8654  0.8955 -1.6639
   62CHL1    C9 5731   3.250   6.201   3.897 -0.1471 -0.1062 -0.0285
   62CHL1    H9 5732   3.144   6.176   3.918 -0.7771  0.0813 -2.5587
   62CHL1   C10 5733   3.266   6.218   3.735  0.3284  0.2128 -0.4926
   62CHL1   C19 5734   3.413   6.240   3.706 -0.1469  0.0543 -0.1470
   62CHL1  H19A 5735   3.476   6.155   3.738 -1.8856 -0.6522  1.6000
   62CHL1  H19B 5736   3.428   6.238   3.596  2.1965  1.4952  0.0730
   62CHL1  H19C 5737   3.458   6.330   3.753 -2.0090  0.1431  1.6108
   62CHL1    C1 5738   3.226   6.083   3.665  0.3411  0.0183 -0.1958
   62CHL1   H1A 5739   3.309   6.012   3.686  1.2246  1.4565  1.5252
   62CHL1   H1B 5740   3.131   6.050   3.712  0.0056  2.7392  1.2799
   62CHL1    C2 5741   3.203   6.090   3.508  0.8694  0.1955  0.0802
   62CHL1   H2A 5742   3.170   5.994   3.462 -1.1539  0.7898  0.2034
   62CHL1   H2B 5743   3.295   6.132   3.462  0.1173  2.1818  0.2862
   62CHL1   C20 5744   3.446   6.198   4.422  0.3118  0.4329 -0.2791
   62CHL1   H20 5745   3.546   6.227   4.383  0.4921  2.2882  1.4134
   62CHL1   C21 5746   3.440   6.043   4.435  0.0430 -0.2840 -1.0808
   62CHL1  H21A 5747   3.335   6.008   4.440 -0.5355  0.8972 -3.4157
   62CHL1  H21B 5748   3.484   6.023   4.535 -2.5628 -0.3168  0.1276
   62CHL1  H21C 5749   3.492   5.974   4.366 -1.0174 -0.8863 -1.2935
   62CHL1   C22 5750   3.442   6.256   4.562 -0.3021 -0.4901  0.0883
   62CHL1  H22A 5751   3.527   6.222   4.625  1.5374 -2.7778 -3.3003
   62CHL1  H22B 5752   3.448   6.366   4.557  0.0092 -0.3432  2.3643
   62CHL1   C23 5753   3.304   6.239   4.638 -0.3110 -0.7877  0.0362
   62CHL1  H23A 5754   3.227   6.297   4.583  0.7106 -1.2499 -1.9952
   62CHL1  H23B 5755   3.281   6.130   4.637 -0.9223 -0.6660 -1.2044
   62CHL1   C24 5756   3.301   6.290   4.780 -0.3220 -0.1995  0.1268
   62CHL1  H24A 5757   3.375   6.228   4.834 -1.3775  0.4052  2.3943
   62CHL1  H24B 5758   3.342   6.393   4.779  0.3010 -0.4474 -0.7891
   62CHL1   C25 5759   3.167   6.277   4.850 -0.1995 -0.0650  0.7176
   62CHL1   H25 5760   3.093   6.294   4.770  1.1366 -0.7463 -0.7042
   62CHL1   C26 5761   3.144   6.135   4.908 -0.5453 -0.2054 -0.4471
   62CHL1  H26A 5762   3.197   6.118   5.004  1.6012  0.6670 -1.4185
   62CHL1  H26B 5763   3.038   6.132   4.940 -0.8188 -1.2487 -1.3677
   62CHL1  H26C 5764   3.185   6.067   4.829  1.3116  0.4014 -0.0675
   62CHL1   C27 5765   3.149   6.381   4.958 -0.3262 -0.8818  0.0263
   62CHL1  H27A 5766   3.238   6.377   5.025 -0.1640 -0.9407 -0.1926
   62CHL1  H27B 5767   3.126   6.486   4.929  0.6761  0.0962  2.4685
   62CHL1  H27C 5768   3.066   6.349   5.025 -0.9384  0.4666 -0.0697
   63CHL1    C3 5769   1.406   1.106   3.278  0.3317  0.2996 -0.3359
   63CHL1    H3 5770   1.490   1.178   3.288 -1.0120  1.8340  0.2796
   63CHL1    O3 5771   1.386   1.070   3.143  0.3807  0.3066  0.3538
   63CHL1   H3' 5772   1.471   1.052   3.102  0.5489 -2.4810  1.6918
   63CHL1    C4 5773   1.440   0.972   3.352 -0.5581 -0.0411 -0.0939
   63CHL1   H4A 5774   1.364   0.897   3.324 -0.7695  0.5941 -1.3076
   63CHL1   H4B 5775   1.539   0.941   3.311 -0.9289 -0.8056 -0.4200
   63CHL1    C5 5776   1.451   0.997   3.497 -0.7324 -0.9277 -0.4866
   63CHL1    C6 5777   1.564   0.976   3.566 -0.2690 -0.7354 -0.0473
   63CHL1    H6 5778   1.650   0.935   3.512  1.3109  0.6118  1.3558
   63CHL1    C7 5779   1.576   0.982   3.722 -0.2175 -0.2712 -0.2790
   63CHL1   H7A 5780   1.624   0.891   3.765 -0.6000 -0.9853 -1.3374
   63CHL1   H7B 5781   1.633   1.077   3.735  0.4657 -0.2200 -3.1525
   63CHL1    C8 5782   1.435   0.994   3.787 -0.6581 -0.6762 -0.4950
   63CHL1    H8 5783   1.391   0.893   3.772 -3.4291  0.3800 -0.2257
   63CHL1   C14 5784   1.449   1.029   3.935  0.4756  0.0035  0.6758
   63CHL1   H14 5785   1.506   1.125   3.939  0.9303 -0.2846  1.1261
   63CHL1   C15 5786   1.531   0.941   4.034  0.1220 -0.7856  1.2093
   63CHL1  H15A 5787   1.501   0.834   4.031 -1.0186 -0.5393  2.6056
   63CHL1  H15B 5788   1.641   0.947   4.015 -0.1901 -1.0044 -0.8195
   63CHL1   C16 5789   1.487   0.987   4.173  0.1858 -0.5600  0.3195
   63CHL1  H16A 5790   1.465   0.895   4.230 -0.6524 -0.8684 -0.4729
   63CHL1  H16B 5791   1.570   1.030   4.233 -1.4231  1.1846  1.4188
   63CHL1   C17 5792   1.371   1.092   4.160 -0.8839  0.7120  0.8116
   63CHL1   H17 5793   1.424   1.189   4.146 -2.1552  1.2806 -0.2018
   63CHL1   C13 5794   1.317   1.060   4.014  0.2222 -0.2751 -0.5411
   63CHL1   C18 5795   1.222   0.937   4.018 -0.9075 -0.1366 -0.4035
   63CHL1  H18A 5796   1.256   0.862   4.093 -0.0445 -0.4026 -1.0436
   63CHL1  H18B 5797   1.127   0.981   4.055  0.0988  1.2052  0.6972
   63CHL1  H18C 5798   1.200   0.883   3.923 -0.3685 -0.8716 -0.1277
   63CHL1   C12 5799   1.239   1.170   3.935 -0.0017 -0.3951  0.5814
   63CHL1  H12A 5800   1.139   1.192   3.979 -1.3125 -1.7601 -1.5297
   63CHL1  H12B 5801   1.291   1.268   3.942 -2.8928  1.4226 -1.1403
   63CHL1   C11 5802   1.214   1.129   3.787 -0.4720 -0.5539  0.3168
   63CHL1  H11A 5803   1.148   1.040   3.792  0.4929 -1.2745  0.4647
   63CHL1  H11B 5804   1.163   1.216   3.740 -1.4120 -2.2296 -1.9829
   63CHL1    C9 5805   1.348   1.100   3.712 -0.1175  0.3055  0.1616
   63CHL1    H9 5806   1.406   1.194   3.721 -0.1039  0.2797  0.3656
   63CHL1   C10 5807   1.328   1.062   3.563 -0.3135  0.0495  0.1508
   63CHL1   C19 5808   1.219   0.952   3.548  0.0222 -0.7436  0.0925
   63CHL1  H19A 5809   1.192   0.938   3.441  0.4000  0.3729 -0.1591
   63CHL1  H19B 5810   1.255   0.860   3.599 -0.9724  0.0314  2.3496
   63CHL1  H19C 5811   1.128   0.988   3.600 -0.8372 -0.9963 -1.1859
   63CHL1    C1 5812   1.292   1.193   3.484 -0.6812  0.1642 -1.5569
   63CHL1   H1A 5813   1.203   1.243   3.527 -1.1468 -0.4615 -1.7814
   63CHL1   H1B 5814   1.381   1.258   3.499 -1.0566  0.3873 -0.1290
   63CHL1    C2 5815   1.275   1.172   3.336  0.7615  0.4161  0.2209
   63CHL1   H2A 5816   1.250   1.270   3.289 -1.1361  0.7806  1.8648
   63CHL1   H2B 5817   1.196   1.100   3.306  0.2713  1.3724 -0.8908
   63CHL1   C20 5818   1.282   1.089   4.283  0.3577 -0.2157 -0.8970
   63CHL1   H20 5819   1.222   0.995   4.279  2.0030 -1.3223 -0.6557
   63CHL1   C21 5820   1.195   1.215   4.280  0.1566 -0.2689  0.0282
   63CHL1  H21A 5821   1.123   1.223   4.197 -0.5828  2.1950  0.8385
   63CHL1  H21B 5822   1.266   1.300   4.280  1.3585 -1.2202 -0.8118
   63CHL1  H21C 5823   1.129   1.195   4.367 -1.4854 -1.8544 -1.5091
   63CHL1   C22 5824   1.354   1.073   4.424  0.3081  0.0224 -0.1273
   63CHL1  H22A 5825   1.378   0.965   4.427 -2.0102 -0.5402  1.1827
   63CHL1  H22B 5826   1.449   1.130   4.433  1.8439 -2.4614  0.3979
   63CHL1   C23 5827   1.274   1.089   4.549  0.9855  0.8055  0.1372
   63CHL1  H23A 5828   1.268   1.200   4.548  0.4424  0.7847  0.8140
   63CHL1  H23B 5829   1.170   1.056   4.529  0.6531  1.8041  0.1863
   63CHL1   C24 5830   1.328   1.023   4.671  0.1646 -0.3162  0.1362
   63CHL1  H24A 5831   1.332   0.913   4.653 -1.2571 -0.1700 -1.2670
   63CHL1  H24B 5832   1.435   1.051   4.680  0.5914 -1.5885 -0.6450
   63CHL1   C25 5833   1.251   1.046   4.804  0.8507 -0.0646  0.2390
   63CHL1   H25 5834   1.304   0.982   4.878 -2.6169 -0.4066  2.6860
   63CHL1   C26 5835   1.259   1.192   4.854 -0.7365 -0.5459  0.2147
   63CHL1  H26A 5836   1.204   1.260   4.787  1.6251  1.7315  0.4319
   63CHL1  H26B 5837   1.224   1.204   4.959 -1.2234  0.2898 -0.0331
   63CHL1  H26C 5838   1.359   1.238   4.842 -0.3508 -1.1753  0.9123
   63CHL1   C27 5839   1.102   1.010   4.792  0.3383 -0.8788 -0.0152
   63CHL1  H27A 5840   1.053   1.015   4.892  1.0968 -2.6491  0.4756
   63CHL1  H27B 5841   1.046   1.087   4.734  2.1245  3.0301  2.9736
   63CHL1  H27C 5842   1.093   0.915   4.736  0.1794 -1.5792  1.1824
   64CHL1    C3 5843   3.593   1.301   3.027  0.8133  0.1209  0.0297
   64CHL1    H3 5844   3.703   1.290   3.029  0.7111 -1.1007 -0.5303
   64CHL1    O3 5845   3.558   1.279   2.894 -0.1370 -0.0379 -0.0478
   64CHL1   H3' 5846   3.462   1.278   2.906  0.0779  2.0403  3.3139
   64CHL1    C4 5847   3.530   1.185   3.116 -0.0543  0.1125  0.6656
   64CHL1   H4A 5848   3.420   1.173   3.100  0.4314 -1.7067 -1.9653
   64CHL1   H4B 5849   3.567   1.088   3.077 -2.1352  0.2762 -2.0166
   64CHL1    C5 5850   3.555   1.222   3.255 -0.9369 -0.3363 -0.6920
   64CHL1    C6 5851   3.630   1.146   3.340  0.1808 -0.9344 -0.6611
   64CHL1    H6 5852   3.653   1.043   3.310 -0.0634 -0.2441 -3.4634
   64CHL1    C7 5853   3.654   1.173   3.484 -0.0774 -1.0657 -0.5055
   64CHL1   H7A 5854   3.639   1.084   3.548 -0.1561  1.7076  3.7100
   64CHL1   H7B 5855   3.759   1.205   3.500 -0.3224 -0.1621 -0.6207
   64CHL1    C8 5856   3.564   1.283   3.548  0.3111 -0.4780 -0.1330
   64CHL1    H8 5857   3.461   1.244   3.564 -0.0429  0.4640 -0.0266
   64CHL1   C14 5858   3.612   1.322   3.687 -0.1286 -0.0373 -0.0883
   64CHL1   H14 5859   3.704   1.381   3.672  0.8610 -1.7082 -0.8464
   64CHL1   C15 5860   3.648   1.214   3.794  0.1379  0.8769  0.3530
   64CHL1  H15A 5861   3.572   1.133   3.796  1.7775 -0.7157  2.1799
   64CHL1  H15B 5862   3.748   1.168   3.779 -0.5896 -0.1965 -1.5680
   64CHL1   C16 5863   3.627   1.283   3.922 -0.7426 -0.0507 -0.5242
   64CHL1  H16A 5864   3.539   1.236   3.972 -2.3680 -2.0640 -4.8238
   64CHL1  H16B 5865   3.717   1.280   3.988 -0.7623 -0.4828 -0.5146
   64CHL1   C17 5866   3.578   1.427   3.902  0.3215 -0.5516  0.9892
   64CHL1   H17 5867   3.670   1.488   3.895 -0.3007  0.7157  3.0062
   64CHL1   C13 5868   3.509   1.420   3.763 -0.1175 -0.3362  0.2274
   64CHL1   C18 5869   3.373   1.364   3.782 -0.0194  0.2666 -0.9989
   64CHL1  H18A 5870   3.308   1.425   3.848 -0.5261 -0.6638 -0.6182
   64CHL1  H18B 5871   3.312   1.357   3.690 -1.8188 -1.1839  0.2321
   64CHL1  H18C 5872   3.376   1.258   3.818 -2.0452  0.7247  0.6810
   64CHL1   C12 5873   3.505   1.545   3.671  0.8119 -0.2370  0.7108
   64CHL1  H12A 5874   3.429   1.623   3.691 -0.7446 -1.5785  0.2045
   64CHL1  H12B 5875   3.606   1.590   3.685 -0.6496  2.5273  3.4216
   64CHL1   C11 5876   3.459   1.514   3.528  0.1550 -0.5588  0.9952
   64CHL1  H11A 5877   3.352   1.487   3.536 -0.3029  1.4396  2.1063
   64CHL1  H11B 5878   3.478   1.606   3.469 -0.4371 -1.4484 -0.6378
   64CHL1    C9 5879   3.547   1.400   3.458  0.3001 -0.7351  0.3488
   64CHL1    H9 5880   3.643   1.454   3.445 -0.5728  0.8682  0.1939
   64CHL1   C10 5881   3.511   1.364   3.307 -0.2090 -0.5101  0.5178
   64CHL1   C19 5882   3.361   1.362   3.286  0.5248 -0.3380  0.0322
   64CHL1  H19A 5883   3.311   1.454   3.325 -0.8833 -0.8255 -0.5857
   64CHL1  H19B 5884   3.324   1.355   3.182 -3.6015 -0.9717  1.3665
   64CHL1  H19C 5885   3.313   1.279   3.341 -3.4485  1.0439 -1.0249
   64CHL1    C1 5886   3.574   1.465   3.216 -0.0204 -0.0210 -0.0891
   64CHL1   H1A 5887   3.535   1.563   3.250  0.5580  0.2659 -0.2523
   64CHL1   H1B 5888   3.682   1.463   3.242  0.5380 -0.2053 -2.2453
   64CHL1    C2 5889   3.556   1.442   3.065 -0.1869  0.0752  0.0168
   64CHL1   H2A 5890   3.620   1.515   3.010 -0.0009 -0.6410 -0.7418
   64CHL1   H2B 5891   3.449   1.458   3.037  0.0097 -0.1962 -0.9390
   64CHL1   C20 5892   3.506   1.498   4.017 -0.1813  0.1073  0.9966
   64CHL1   H20 5893   3.421   1.431   4.041 -0.2769 -0.4518 -0.7477
   64CHL1   C21 5894   3.443   1.633   3.973 -0.5297 -0.4849 -0.1097
   64CHL1  H21A 5895   3.535   1.687   3.941  1.3355  0.5004  5.7188
   64CHL1  H21B 5896   3.398   1.699   4.050 -0.6452 -0.3334 -0.3049
   64CHL1  H21C 5897   3.369   1.634   3.890 -0.0450 -0.7167 -0.5535
   64CHL1   C22 5898   3.593   1.518   4.145  0.4909 -0.2210  0.2020
   64CHL1  H22A 5899   3.671   1.440   4.158 -1.4169 -2.1152  0.8786
   64CHL1  H22B 5900   3.650   1.612   4.132  0.1191  0.1297  0.9820
   64CHL1   C23 5901   3.513   1.524   4.273  0.0156  0.0691  0.1028
   64CHL1  H23A 5902   3.445   1.612   4.273 -0.9836 -0.6213  2.5599
   64CHL1  H23B 5903   3.454   1.431   4.279  0.2244 -0.1302 -0.7238
   64CHL1   C24 5904   3.604   1.551   4.398 -0.3900  0.0403  0.8711
   64CHL1  H24A 5905   3.679   1.470   4.410 -0.5520 -0.2088  0.2436
   64CHL1  H24B 5906   3.660   1.645   4.380  0.6687 -0.8853 -0.9718
   64CHL1   C25 5907   3.518   1.564   4.526 -0.7503 -0.1676 -0.5495
   64CHL1   H25 5908   3.428   1.626   4.505  1.3816  3.1478 -0.8064
   64CHL1   C26 5909   3.466   1.432   4.573  0.2494 -0.3080 -0.6733
   64CHL1  H26A 5910   3.406   1.418   4.665 -2.5912 -0.1080 -2.3813
   64CHL1  H26B 5911   3.399   1.386   4.498  3.3955 -3.1570 -1.9922
   64CHL1  H26C 5912   3.554   1.364   4.582  0.8873  0.5630 -0.1081
   64CHL1   C27 5913   3.601   1.640   4.633 -0.4846  0.1346  0.2306
   64CHL1  H27A 5914   3.618   1.745   4.602  1.4747 -0.7229 -1.9419
   64CHL1  H27B 5915   3.550   1.620   4.730 -1.2433 -1.7347 -0.4973
   64CHL1  H27C 5916   3.704   1.597   4.633  1.2907  3.9342 -0.3491
   65CHL1    C3 5917   2.917   5.810   3.415 -0.3795  0.8294  0.0761
   65CHL1    H3 5918   2.985   5.897   3.408 -1.0175  1.5551  2.1805
   65CHL1    O3 5919   2.871   5.776   3.286  0.0773 -0.0986  0.0547
   65CHL1   H3' 5920   2.944   5.785   3.224 -0.6252  1.4003 -0.6052
   65CHL1    C4 5921   2.989   5.693   3.480 -0.0409  0.6805 -0.0351
   65CHL1   H4A 5922   2.917   5.609   3.472 -1.4006  1.9267 -1.6784
   65CHL1   H4B 5923   3.076   5.673   3.415  1.3482  2.9396  1.0345
   65CHL1    C5 5924   3.044   5.697   3.629  0.4374  0.2382 -0.6162
   65CHL1    C6 5925   3.174   5.672   3.659  0.7668  0.2463 -0.2024
   65CHL1    H6 5926   3.245   5.636   3.582  1.2568  2.8782 -1.0874
   65CHL1    C7 5927   3.215   5.692   3.802 -0.1452  0.2967  0.3904
   65CHL1   H7A 5928   3.280   5.609   3.838 -0.4710 -0.4475 -0.6838
   65CHL1   H7B 5929   3.274   5.785   3.807  1.8185 -0.8490 -0.3053
   65CHL1    C8 5930   3.105   5.701   3.909  0.0762  0.7351 -0.7357
   65CHL1    H8 5931   3.066   5.598   3.926  3.5228 -0.4827  0.5632
   65CHL1   C14 5932   3.158   5.747   4.046 -0.4648  0.3669 -0.3119
   65CHL1   H14 5933   3.181   5.855   4.037 -2.9765  1.3310  2.7420
   65CHL1   C15 5934   3.274   5.673   4.112 -0.1577 -0.1763 -0.5194
   65CHL1  H15A 5935   3.282   5.563   4.098  0.3998 -0.4335  1.4803
   65CHL1  H15B 5936   3.368   5.717   4.073  1.8213 -3.5573  0.0323
   65CHL1   C16 5937   3.262   5.707   4.263 -0.3396  0.1641  0.6404
   65CHL1  H16A 5938   3.235   5.612   4.314  3.3330 -1.2948  0.1490
   65CHL1  H16B 5939   3.354   5.749   4.307 -0.0734  0.5082 -0.2184
   65CHL1   C17 5940   3.133   5.788   4.279  0.0286 -0.3787 -1.0192
   65CHL1   H17 5941   3.172   5.891   4.267  0.9924 -0.3365  1.7104
   65CHL1   C13 5942   3.050   5.742   4.155  0.1824 -0.8349  0.6448
   65CHL1   C18 5943   2.998   5.595   4.171  0.5576  0.5336 -0.5142
   65CHL1  H18A 5944   3.080   5.522   4.182  0.3945  0.3848 -0.2778
   65CHL1  H18B 5945   2.935   5.586   4.262  1.7183 -2.1531  0.1059
   65CHL1  H18C 5946   2.925   5.563   4.093 -1.5109  2.1469  0.6518
   65CHL1   C12 5947   2.939   5.843   4.114 -0.3262 -0.3449  0.0386
   65CHL1  H12A 5948   2.851   5.853   4.182 -0.6444  1.4803 -0.5956
   65CHL1  H12B 5949   2.989   5.942   4.112  1.2986 -1.1022  0.9305
   65CHL1   C11 5950   2.878   5.815   3.970 -0.6736 -0.3099  0.3131
   65CHL1  H11A 5951   2.807   5.730   3.978 -0.2792 -0.6805 -0.1475
   65CHL1  H11B 5952   2.815   5.904   3.948  1.9269  1.7382  0.5694
   65CHL1    C9 5953   2.993   5.798   3.866 -0.0386  0.2530  0.0904
   65CHL1    H9 5954   3.049   5.893   3.854 -0.8938  0.7879  0.3191
   65CHL1   C10 5955   2.936   5.757   3.721 -1.5248  0.3507  0.5799
   65CHL1   C19 5956   2.831   5.651   3.747 -0.1252 -0.3523 -0.3803
   65CHL1  H19A 5957   2.781   5.612   3.656  0.7944 -0.0935 -1.0110
   65CHL1  H19B 5958   2.876   5.557   3.784 -1.5874 -0.8380  0.2318
   65CHL1  H19C 5959   2.744   5.683   3.809  0.2684 -3.8560  2.2584
   65CHL1    C1 5960   2.858   5.883   3.649 -0.1262 -0.3309 -0.1309
   65CHL1   H1A 5961   2.764   5.900   3.706  0.1574 -2.5934  1.1705
   65CHL1   H1B 5962   2.924   5.972   3.651  1.4409 -1.4392  1.5600
   65CHL1    C2 5963   2.808   5.853   3.504  0.3196  0.9674  0.9887
   65CHL1   H2A 5964   2.740   5.930   3.461 -0.4654 -0.2265  0.0287
   65CHL1   H2B 5965   2.742   5.767   3.529 -2.3136  3.1981  2.2133
   65CHL1   C20 5966   3.066   5.778   4.420 -0.1932 -0.6800  0.5745
   65CHL1   H20 5967   2.993   5.695   4.425 -1.3754 -0.0142 -2.8133
   65CHL1   C21 5968   2.981   5.903   4.446 -0.3615 -0.5666 -0.4858
   65CHL1  H21A 5969   3.038   5.997   4.432 -0.1711 -0.9470 -2.5365
   65CHL1  H21B 5970   2.943   5.896   4.550 -0.6279  0.5882 -0.4919
   65CHL1  H21C 5971   2.890   5.908   4.383 -0.2080 -1.8343 -0.8527
   65CHL1   C22 5972   3.163   5.746   4.538 -0.1155  0.4093 -0.0612
   65CHL1  H22A 5973   3.201   5.642   4.534 -1.7978 -0.5087  3.5791
   65CHL1  H22B 5974   3.260   5.802   4.545  0.3623 -0.5039  0.9057
   65CHL1   C23 5975   3.116   5.740   4.682 -0.1004 -0.4192  1.4044
   65CHL1  H23A 5976   3.080   5.841   4.712  1.7505  1.2561 -1.5875
   65CHL1  H23B 5977   3.029   5.671   4.690  0.0170 -0.7014  0.3011
   65CHL1   C24 5978   3.228   5.712   4.786 -0.6085 -0.5195 -0.0619
   65CHL1  H24A 5979   3.294   5.626   4.761 -3.2042 -2.9431  0.9124
   65CHL1  H24B 5980   3.284   5.806   4.804 -0.9582  0.1970 -2.3990
   65CHL1   C25 5981   3.181   5.670   4.926 -1.0825  0.4119  0.4061
   65CHL1   H25 5982   3.132   5.572   4.909 -1.6996  1.1564 -3.0058
   65CHL1   C26 5983   3.282   5.658   5.034 -0.1548 -0.3661 -0.3135
   65CHL1  H26A 5984   3.378   5.612   5.005  1.2658  1.8315  0.6628
   65CHL1  H26B 5985   3.315   5.761   5.057  0.3215 -0.7152  0.6324
   65CHL1  H26C 5986   3.246   5.615   5.131 -1.4784 -1.6739 -1.3292
   65CHL1   C27 5987   3.060   5.753   4.972 -0.7772 -0.2515  0.4441
   65CHL1  H27A 5988   2.973   5.727   4.908  0.1049 -1.2257 -0.4079
   65CHL1  H27B 5989   3.035   5.741   5.080  0.6836 -0.0041  0.8296
   65CHL1  H27C 5990   3.095   5.858   4.961 -2.2916  0.1269 -1.3775
   66CHL1    C3 5991   5.341   5.825   2.941  0.0684 -0.6510  0.0133
   66CHL1    H3 5992   5.242   5.873   2.960  0.0883 -0.5375 -0.1683
   66CHL1    O3 5993   5.374   5.850   2.805 -0.0002 -0.1788  0.0094
   66CHL1   H3' 5994   5.387   5.763   2.768  0.7206 -0.2331  0.3778
   66CHL1    C4 5995   5.441   5.897   3.035 -0.2118  0.2809  0.2196
   66CHL1   H4A 5996   5.545   5.864   3.011  0.4032  0.2891  2.6385
   66CHL1   H4B 5997   5.443   6.003   3.002 -0.4534  0.5745  1.1145
   66CHL1    C5 5998   5.406   5.874   3.180 -0.1436 -0.3099 -0.3731
   66CHL1    C6 5999   5.384   5.973   3.265  0.3821 -0.5232 -0.2226
   66CHL1    H6 6000   5.373   6.077   3.230  1.4781 -0.4236 -0.2994
   66CHL1    C7 6001   5.359   5.944   3.410 -0.0951  0.2574  0.1103
   66CHL1   H7A 6002   5.408   6.014   3.482  2.1200  0.1582 -1.2206
   66CHL1   H7B 6003   5.250   5.933   3.424 -0.0013  1.0393  1.7567
   66CHL1    C8 6004   5.411   5.801   3.458  0.1403  0.1040 -0.9445
   66CHL1    H8 6005   5.521   5.809   3.462  0.1243  0.6335 -1.5008
   66CHL1   C14 6006   5.354   5.773   3.593  0.1352  0.8533 -0.1279
   66CHL1   H14 6007   5.243   5.770   3.586  0.1660 -0.1831 -0.2521
   66CHL1   C15 6008   5.385   5.867   3.705 -0.3753  0.2477  0.6141
   66CHL1  H15A 6009   5.494   5.889   3.699  0.3259 -2.9302 -3.1918
   66CHL1  H15B 6010   5.335   5.966   3.705  1.5662  1.3130 -0.7820
   66CHL1   C16 6011   5.361   5.796   3.836 -0.0001  0.3381 -0.8210
   66CHL1  H16A 6012   5.451   5.784   3.899  0.9129  0.6584 -2.0146
   66CHL1  H16B 6013   5.274   5.837   3.891 -0.1101 -2.4903  1.2999
   66CHL1   C17 6014   5.325   5.647   3.799 -0.1183 -0.2723  0.6598
   66CHL1   H17 6015   5.214   5.645   3.786  0.1313  0.7008 -2.4453
   66CHL1   C13 6016   5.384   5.633   3.653 -0.1900 -0.5917  0.3615
   66CHL1   C18 6017   5.542   5.604   3.658 -0.0594  0.3987 -0.2736
   66CHL1  H18A 6018   5.585   5.604   3.555 -0.3146 -1.1603 -0.4112
   66CHL1  H18B 6019   5.592   5.677   3.725 -0.6750 -1.0755  1.9086
   66CHL1  H18C 6020   5.553   5.499   3.694  0.4547 -0.1791 -2.0350
   66CHL1   C12 6021   5.321   5.538   3.552  0.2114 -0.2441  0.7804
   66CHL1  H12A 6022   5.350   5.435   3.585  1.4582 -0.1003  0.2126
   66CHL1  H12B 6023   5.211   5.552   3.550  0.4267  1.8437  1.2015
   66CHL1   C11 6024   5.382   5.547   3.408  0.3998  0.2443 -0.5174
   66CHL1  H11A 6025   5.487   5.512   3.411 -0.6124 -3.1314 -0.3437
   66CHL1  H11B 6026   5.333   5.477   3.337 -1.2102 -0.5673  1.2865
   66CHL1    C9 6027   5.367   5.697   3.360  0.5147 -0.0629  0.0928
   66CHL1    H9 6028   5.256   5.709   3.363  0.1355 -1.7069 -3.0079
   66CHL1   C10 6029   5.403   5.723   3.214 -0.5033 -0.4199  0.1902
   66CHL1   C19 6030   5.543   5.653   3.192  0.2770  0.0863 -0.5163
   66CHL1  H19A 6031   5.547   5.545   3.216  2.1531  0.7045  2.3859
   66CHL1  H19B 6032   5.581   5.654   3.087  1.2270  3.1175 -0.2467
   66CHL1  H19C 6033   5.622   5.707   3.249  1.2775 -1.2315 -0.6054
   66CHL1    C1 6034   5.295   5.649   3.114  0.2619  0.3953 -0.3186
   66CHL1   H1A 6035   5.284   5.540   3.128  1.7272  0.1095 -1.2562
   66CHL1   H1B 6036   5.202   5.709   3.133 -0.4035 -0.6554 -0.1863
   66CHL1    C2 6037   5.328   5.682   2.965  0.1914  0.1637  0.6462
   66CHL1   H2A 6038   5.251   5.643   2.895  0.2691 -1.9365  1.6573
   66CHL1   H2B 6039   5.418   5.616   2.960  0.3555  0.1930  2.6467
   66CHL1   C20 6040   5.364   5.542   3.904  0.1899 -0.2454  0.6528
   66CHL1   H20 6041   5.474   5.550   3.917  0.3174  0.9712 -0.8638
   66CHL1   C21 6042   5.306   5.405   3.862  0.4625  0.6389  0.2596
   66CHL1  H21A 6043   5.329   5.325   3.935  1.5766 -0.9531 -1.7519
   66CHL1  H21B 6044   5.348   5.371   3.765 -0.7115  0.4534 -0.2055
   66CHL1  H21C 6045   5.195   5.409   3.853  0.3525 -2.1252 -0.4069
   66CHL1   C22 6046   5.309   5.588   4.041 -0.1435  0.7319 -0.0326
   66CHL1  H22A 6047   5.345   5.689   4.070 -0.2178  0.2866  1.6978
   66CHL1  H22B 6048   5.198   5.596   4.033 -0.3775 -0.5309  1.4930
   66CHL1   C23 6049   5.338   5.497   4.159 -0.3799  0.0675  0.0265
   66CHL1  H23A 6050   5.273   5.407   4.152  0.1903 -0.5575  2.0798
   66CHL1  H23B 6051   5.445   5.471   4.148 -0.2582  0.2145  0.7995
   66CHL1   C24 6052   5.319   5.571   4.293  0.1328 -0.3996 -0.0841
   66CHL1  H24A 6053   5.361   5.510   4.376  0.6275 -0.7945 -0.6148
   66CHL1  H24B 6054   5.399   5.647   4.286  2.0041 -2.2193  0.3777
   66CHL1   C25 6055   5.178   5.637   4.313 -0.1226 -0.0148  0.2063
   66CHL1   H25 6056   5.143   5.691   4.223  1.1899  1.6294  0.6353
   66CHL1   C26 6057   5.079   5.526   4.349 -0.0709 -0.1452 -0.1160
   66CHL1  H26A 6058   5.114   5.473   4.439 -2.3366 -0.1527  0.8278
   66CHL1  H26B 6059   4.978   5.571   4.358  0.0103 -0.0893  0.5746
   66CHL1  H26C 6060   5.083   5.448   4.270  0.6005 -1.0652  0.8015
   66CHL1   C27 6061   5.186   5.754   4.423 -0.3686  0.4995 -0.7980
   66CHL1  H27A 6062   5.091   5.811   4.431  1.0020  2.7567  0.4248
   66CHL1  H27B 6063   5.258   5.836   4.404  0.4097 -0.1273 -0.6038
   66CHL1  H27C 6064   5.223   5.717   4.521  1.0460  1.5938 -0.8887
   67CHL1    C3 6065   3.292   4.689   3.238 -0.1603 -0.4943  0.6159
   67CHL1    H3 6066   3.214   4.619   3.274 -1.1469  0.2289 -0.0578
   67CHL1    O3 6067   3.292   4.703   3.099 -0.2412 -0.6487 -0.1746
   67CHL1   H3' 6068   3.371   4.755   3.082 -0.9247  0.6925  0.5486
   67CHL1    C4 6069   3.263   4.825   3.299 -0.5786  0.1431  0.1788
   67CHL1   H4A 6070   3.339   4.903   3.278 -1.1590  0.1825 -2.0116
   67CHL1   H4B 6071   3.173   4.860   3.244 -0.9510 -1.3540 -0.2215
   67CHL1    C5 6072   3.251   4.825   3.449  0.2380 -0.0413 -0.0513
   67CHL1    C6 6073   3.145   4.873   3.511  0.2084  0.5811  0.2191
   67CHL1    H6 6074   3.057   4.913   3.459 -2.6177 -2.9282  1.8754
   67CHL1    C7 6075   3.124   4.861   3.655 -0.2997  0.4113 -0.3657
   67CHL1   H7A 6076   3.081   4.948   3.709 -1.1122 -0.6707  0.7890
   67CHL1   H7B 6077   3.054   4.776   3.672 -0.1541  0.4599  0.5448
   67CHL1    C8 6078   3.270   4.827   3.733 -0.0450 -0.1961  0.3560
   67CHL1    H8 6079   3.339   4.912   3.745 -0.2452 -0.2775  2.4011
   67CHL1   C14 6080   3.249   4.779   3.873 -0.0529  0.3914  0.6506
   67CHL1   H14 6081   3.187   4.687   3.872  1.1618 -0.4531 -0.8820
   67CHL1   C15 6082   3.174   4.880   3.963  0.0377 -0.0174 -0.5921
   67CHL1  H15A 6083   3.226   4.978   3.964 -2.8184  1.6136 -1.3190
   67CHL1  H15B 6084   3.070   4.902   3.933 -0.3857 -1.3893 -0.1956
   67CHL1   C16 6085   3.180   4.810   4.102 -0.5954 -0.6266  0.6878
   67CHL1  H16A 6086   3.186   4.886   4.183 -0.2970  0.8448 -0.6534
   67CHL1  H16B 6087   3.087   4.754   4.124 -0.8213 -0.0874  1.1516
   67CHL1   C17 6088   3.312   4.710   4.088  0.1821 -0.0635  0.1403
   67CHL1   H17 6089   3.274   4.607   4.073 -0.8740  0.6416 -2.6626
   67CHL1   C13 6090   3.376   4.738   3.951  0.0533 -0.9227 -0.0097
   67CHL1   C18 6091   3.479   4.859   3.962  0.4373 -0.3554 -0.1751
   67CHL1  H18A 6092   3.421   4.943   4.005  0.1188 -1.2377  1.2063
   67CHL1  H18B 6093   3.566   4.835   4.028  0.1453 -0.8544  0.0365
   67CHL1  H18C 6094   3.525   4.882   3.864  0.3095 -1.3813 -0.4850
   67CHL1   C12 6095   3.433   4.617   3.883 -0.3887 -0.4613  0.2836
   67CHL1  H12A 6096   3.537   4.604   3.920  0.1008  1.1445 -0.4184
   67CHL1  H12B 6097   3.370   4.526   3.885 -2.5438  0.9570  0.9076
   67CHL1   C11 6098   3.460   4.646   3.732 -0.5015  0.0337  0.0018
   67CHL1  H11A 6099   3.552   4.706   3.718  0.3588 -1.0207  0.9504
   67CHL1  H11B 6100   3.480   4.544   3.692  0.9207 -0.0807  0.9522
   67CHL1    C9 6101   3.341   4.713   3.659 -0.0351  1.2374  0.4598
   67CHL1    H9 6102   3.267   4.630   3.647  2.0238 -0.6636  0.1082
   67CHL1   C10 6103   3.379   4.755   3.515  0.2954  0.3214 -0.6078
   67CHL1   C19 6104   3.485   4.870   3.512 -0.3260  0.3100 -0.0743
   67CHL1  H19A 6105   3.513   4.893   3.408 -0.1770  0.3069 -0.0342
   67CHL1  H19B 6106   3.451   4.964   3.560 -1.5294 -0.3124  0.3505
   67CHL1  H19C 6107   3.581   4.838   3.558  0.3044 -0.2309 -1.7047
   67CHL1    C1 6108   3.429   4.632   3.433 -0.0570 -0.5296  0.3146
   67CHL1   H1A 6109   3.536   4.619   3.460 -0.4816 -2.0634  1.3363
   67CHL1   H1B 6110   3.365   4.546   3.460 -1.2393  0.0641 -0.5058
   67CHL1    C2 6111   3.433   4.652   3.279 -0.3570  0.7015 -0.2589
   67CHL1   H2A 6112   3.479   4.565   3.227  0.8719  0.3426  1.3521
   67CHL1   H2B 6113   3.501   4.737   3.255  0.2966 -0.2615 -1.9659
   67CHL1   C20 6114   3.397   4.716   4.214 -0.3211  0.5126 -0.2964
   67CHL1   H20 6115   3.451   4.813   4.207  0.3040  0.1562 -0.4974
   67CHL1   C21 6116   3.493   4.597   4.209  0.4328  0.8730 -0.2164
   67CHL1  H21A 6117   3.580   4.623   4.145  2.2101 -0.3901  1.5850
   67CHL1  H21B 6118   3.448   4.504   4.168  2.1212 -0.0451 -0.0766
   67CHL1  H21C 6119   3.546   4.575   4.304 -0.1551 -2.2020 -0.4937
   67CHL1   C22 6120   3.314   4.704   4.345 -0.1883 -0.1094 -0.2127
   67CHL1  H22A 6121   3.252   4.794   4.362 -1.6009 -1.0024 -0.4871
   67CHL1  H22B 6122   3.255   4.610   4.344 -1.3440  0.5332  1.7445
   67CHL1   C23 6123   3.388   4.709   4.480  0.2886  0.1589  0.4426
   67CHL1  H23A 6124   3.460   4.627   4.503 -0.3206 -0.2597  0.8969
   67CHL1  H23B 6125   3.439   4.807   4.493 -1.3044  1.1441 -0.4173
   67CHL1   C24 6126   3.283   4.711   4.599  0.3137 -0.1512 -0.0050
   67CHL1  H24A 6127   3.194   4.775   4.581  0.5002 -0.0508 -0.5700
   67CHL1  H24B 6128   3.240   4.610   4.589 -2.2619  1.0271 -1.9240
   67CHL1   C25 6129   3.336   4.733   4.738  0.1358 -1.0935 -0.0240
   67CHL1   H25 6130   3.436   4.685   4.748 -0.3372 -2.3775 -1.0943
   67CHL1   C26 6131   3.343   4.879   4.786 -0.1368  0.5369  0.6182
   67CHL1  H26A 6132   3.241   4.922   4.791 -0.1127  0.6276  0.3557
   67CHL1  H26B 6133   3.384   4.880   4.889  1.1476  0.9135  0.1230
   67CHL1  H26C 6134   3.407   4.942   4.720 -1.3057 -2.0918 -3.3764
   67CHL1   C27 6135   3.251   4.663   4.841 -0.4642  0.0439  0.6162
   67CHL1  H27A 6136   3.298   4.664   4.941 -0.2935 -1.1366  0.5730
   67CHL1  H27B 6137   3.156   4.719   4.847 -0.4747  0.1420 -0.3613
   67CHL1  H27C 6138   3.239   4.560   4.800  0.9004  0.5167 -1.0843
   68CHL1    C3 6139   3.940   3.979   3.389  0.2056 -0.0071  0.0809
   68CHL1    H3 6140   4.012   3.894   3.381  2.1336  1.5937 -0.6818
   68CHL1    O3 6141   3.894   4.033   3.266  0.2253 -0.5284  0.0373
   68CHL1   H3' 6142   3.958   4.104   3.253  1.0178 -1.4480 -1.2341
   68CHL1    C4 6143   3.820   3.940   3.466 -0.4264 -0.2251 -0.2268
   68CHL1   H4A 6144   3.748   4.024   3.469 -1.3192 -0.9828  2.8939
   68CHL1   H4B 6145   3.765   3.852   3.425 -0.0272 -0.7360  0.3152
   68CHL1    C5 6146   3.852   3.903   3.609 -0.1873 -0.0686  0.2921
   68CHL1    C6 6147   3.819   3.784   3.666  0.0324 -1.2475  0.2437
   68CHL1    H6 6148   3.768   3.711   3.600 -0.8902  0.7196 -1.3271
   68CHL1    C7 6149   3.843   3.748   3.810  0.3877  0.1258  0.6303
   68CHL1   H7A 6150   3.768   3.676   3.849  1.4370 -0.9392  0.7335
   68CHL1   H7B 6151   3.935   3.688   3.824  0.0378 -0.5207  0.2188
   68CHL1    C8 6152   3.864   3.871   3.896 -0.2287 -0.4816  0.2081
   68CHL1    H8 6153   3.770   3.927   3.911  0.6269  0.6229  1.8164
   68CHL1   C14 6154   3.916   3.830   4.040 -0.1859 -0.1883  0.2697
   68CHL1   H14 6155   4.017   3.788   4.026 -0.0778  0.2498 -0.3054
   68CHL1   C15 6156   3.837   3.725   4.120 -0.5500 -0.0542 -0.1394
   68CHL1  H15A 6157   3.727   3.726   4.130 -0.6877  1.0144 -1.4310
   68CHL1  H15B 6158   3.867   3.624   4.083 -1.4217 -0.5595  0.5085
   68CHL1   C16 6159   3.889   3.748   4.264 -0.6537 -0.1871  0.7344
   68CHL1  H16A 6160   3.800   3.769   4.327 -1.7875 -1.8190 -0.2483
   68CHL1  H16B 6161   3.938   3.652   4.293  1.2732 -0.0510 -1.7115
   68CHL1   C17 6162   3.986   3.872   4.266 -0.0915 -0.3429  0.0061
   68CHL1   H17 6163   4.088   3.836   4.239  2.1801  5.0164  0.1772
   68CHL1   C13 6164   3.935   3.949   4.139  0.4099  0.5882  0.5923
   68CHL1   C18 6165   3.800   4.014   4.170  0.2225 -0.1733 -0.1310
   68CHL1  H18A 6166   3.757   4.040   4.070 -0.4893  2.3309  0.7570
   68CHL1  H18B 6167   3.730   3.947   4.225 -1.5018  1.6141 -0.0153
   68CHL1  H18C 6168   3.832   4.104   4.226  0.0639  0.5907 -1.2283
   68CHL1   C12 6169   4.038   4.039   4.067  0.4319  0.4487  0.3234
   68CHL1  H12A 6170   4.042   4.128   4.133 -0.0670  0.6336  0.1090
   68CHL1  H12B 6171   4.138   3.991   4.056  1.3115  2.4579 -0.9227
   68CHL1   C11 6172   3.994   4.088   3.929 -0.0142  0.0442 -0.2305
   68CHL1  H11A 6173   3.906   4.153   3.952 -0.6749 -0.0217 -2.3673
   68CHL1  H11B 6174   4.069   4.155   3.882 -0.7593 -0.8700 -2.8997
   68CHL1    C9 6175   3.962   3.974   3.833 -0.5145  0.5286  0.0379
   68CHL1    H9 6176   4.052   3.909   3.828 -1.5040 -1.0962  1.7800
   68CHL1   C10 6177   3.921   4.013   3.691 -0.4876  0.2241  0.0077
   68CHL1   C19 6178   3.817   4.125   3.716  0.0928 -0.5528 -0.1923
   68CHL1  H19A 6179   3.722   4.091   3.762  0.6978 -1.0912  0.7046
   68CHL1  H19B 6180   3.865   4.216   3.759  2.0650  0.1404 -3.5096
   68CHL1  H19C 6181   3.793   4.155   3.612 -0.3193 -0.1135  0.0264
   68CHL1    C1 6182   4.047   4.061   3.608  0.0981  0.0698 -0.0512
   68CHL1   H1A 6183   4.098   4.146   3.659 -0.5629  1.7878 -2.1059
   68CHL1   H1B 6184   4.115   3.973   3.604  0.8092  0.5957  0.1089
   68CHL1    C2 6185   4.015   4.093   3.461 -0.0199  0.6115  1.0515
   68CHL1   H2A 6186   4.110   4.109   3.406 -0.2535 -0.7519  0.1825
   68CHL1   H2B 6187   3.960   4.189   3.458  0.7463  1.0506 -1.8431
   68CHL1   C20 6188   3.986   3.948   4.402  0.6743 -0.3989  0.5299
   68CHL1   H20 6189   3.891   4.005   4.417  0.1967 -0.8845 -0.5364
   68CHL1   C21 6190   4.099   4.057   4.409 -0.0539  0.6441  0.0030
   68CHL1  H21A 6191   4.063   4.137   4.340  0.5773  0.4494 -0.5614
   68CHL1  H21B 6192   4.196   4.015   4.375  0.5291  1.1802  0.9677
   68CHL1  H21C 6193   4.113   4.100   4.511 -0.1768 -0.6083  0.5594
   68CHL1   C22 6194   4.023   3.841   4.511  0.4357  0.4321 -0.0369
   68CHL1  H22A 6195   3.942   3.765   4.511  0.2796  0.5851  1.2087
   68CHL1  H22B 6196   4.112   3.780   4.486  1.3195  1.6257  0.1261
   68CHL1   C23 6197   4.028   3.898   4.659 -0.3697 -0.2526 -0.6546
   68CHL1  H23A 6198   4.129   3.944   4.662 -1.3339  2.1039  3.4383
   68CHL1  H23B 6199   3.952   3.976   4.681 -0.8293 -0.8274 -0.1637
   68CHL1   C24 6200   4.015   3.779   4.755  0.2473 -0.3779  0.0406
   68CHL1  H24A 6201   3.914   3.736   4.733  0.4040 -0.7751  0.0821
   68CHL1  H24B 6202   4.083   3.697   4.724  0.5084 -0.1773  0.0824
   68CHL1   C25 6203   4.038   3.829   4.895 -0.3197  0.1177  0.1601
   68CHL1   H25 6204   3.989   3.928   4.907 -0.0663  0.2563  0.0702
   68CHL1   C26 6205   3.981   3.719   4.991  0.0492  0.1156  0.0277
   68CHL1  H26A 6206   3.885   3.678   4.953  0.3460 -0.4071 -0.1623
   68CHL1  H26B 6207   4.043   3.628   4.982  0.9360  0.7947 -1.0936
   68CHL1  H26C 6208   3.956   3.763   5.090 -0.1907  0.9763 -0.3999
   68CHL1   C27 6209   4.185   3.865   4.927 -0.1297  0.2241 -0.2157
   68CHL1  H27A 6210   4.247   3.774   4.919 -0.5610 -0.2584  1.5081
   68CHL1  H27B 6211   4.221   3.946   4.860  1.6229  0.2118  0.6426
   68CHL1  H27C 6212   4.180   3.900   5.033 -0.1843 -0.1272 -0.1018
   69CHL1    C3 6213   1.942   4.372   3.026  0.7219 -0.4922 -0.5566
   69CHL1    H3 6214   2.038   4.317   3.026  1.1337  0.2148 -0.6454
   69CHL1    O3 6215   1.899   4.408   2.894 -0.8734  0.1662 -0.0239
   69CHL1   H3' 6216   1.890   4.504   2.888 -2.3438  0.3496  2.9455
   69CHL1    C4 6217   1.826   4.290   3.091 -0.1071 -0.3430 -0.8158
   69CHL1   H4A 6218   1.731   4.343   3.072 -0.1828  0.0284  0.5156
   69CHL1   H4B 6219   1.823   4.186   3.052 -0.2497 -0.9457  0.7233
   69CHL1    C5 6220   1.835   4.269   3.245 -0.1361  0.1397 -0.1344
   69CHL1    C6 6221   1.826   4.146   3.303 -0.4359 -0.0503  0.4115
   69CHL1    H6 6222   1.798   4.062   3.237  0.2537 -0.3826  0.5255
   69CHL1    C7 6223   1.833   4.112   3.453  0.0449 -0.7127  0.1904
   69CHL1   H7A 6224   1.743   4.059   3.493 -0.1527  0.2490  1.0539
   69CHL1   H7B 6225   1.923   4.051   3.476 -0.7321 -2.0977 -0.3199
   69CHL1    C8 6226   1.839   4.247   3.528 -0.2993 -0.2592 -0.3080
   69CHL1    H8 6227   1.732   4.278   3.532 -0.7028 -1.3487 -1.7559
   69CHL1   C14 6228   1.883   4.215   3.670  0.7981 -0.3635  0.5880
   69CHL1   H14 6229   1.986   4.175   3.653  1.4879  1.2102  0.9168
   69CHL1   C15 6230   1.799   4.127   3.760 -0.1705 -0.5426  0.4715
   69CHL1  H15A 6231   1.693   4.161   3.770 -0.0778 -0.5351  1.5494
   69CHL1  H15B 6232   1.802   4.024   3.718  0.3781  0.4325 -2.0938
   69CHL1   C16 6233   1.868   4.138   3.898 -0.7466 -0.6770  0.2079
   69CHL1  H16A 6234   1.787   4.148   3.973  0.2129  0.5420  1.1247
   69CHL1  H16B 6235   1.933   4.054   3.930 -0.7865 -1.0860 -0.7420
   69CHL1   C17 6236   1.945   4.277   3.886 -0.8432  0.3342  0.4292
   69CHL1   H17 6237   2.052   4.248   3.880 -0.9645  0.1874 -1.3783
   69CHL1   C13 6238   1.913   4.337   3.754 -0.4189 -0.0001  0.5066
   69CHL1   C18 6239   1.788   4.429   3.769  0.0554  0.5585  0.0899
   69CHL1  H18A 6240   1.705   4.380   3.825  0.3921 -1.4685 -1.0881
   69CHL1  H18B 6241   1.819   4.527   3.810  1.6557  0.0699  0.0993
   69CHL1  H18C 6242   1.739   4.437   3.670  1.4419  0.6472 -0.6066
   69CHL1   C12 6243   2.025   4.419   3.687  0.0230  0.3265  0.4324
   69CHL1  H12A 6244   2.040   4.515   3.741  0.2364 -0.1505  1.2485
   69CHL1  H12B 6245   2.122   4.365   3.688  0.0718  0.2578 -2.0910
   69CHL1   C11 6246   1.983   4.473   3.547 -0.5681  0.0350  0.5019
   69CHL1  H11A 6247   1.911   4.557   3.538 -1.2378 -0.7108 -2.0248
   69CHL1  H11B 6248   2.082   4.500   3.505 -1.2099  0.6962 -0.6152
   69CHL1    C9 6249   1.935   4.353   3.462 -0.0168  0.4835 -0.2429
   69CHL1    H9 6250   2.030   4.299   3.441 -0.9161 -1.1214 -0.2939
   69CHL1   C10 6251   1.868   4.392   3.329  0.0939  0.2948  0.3383
   69CHL1   C19 6252   1.744   4.479   3.354  0.2529 -0.2098  0.5282
   69CHL1  H19A 6253   1.772   4.580   3.390  1.7294 -0.5407  0.3619
   69CHL1  H19B 6254   1.679   4.494   3.266 -0.0895 -1.8682  0.4732
   69CHL1  H19C 6255   1.673   4.434   3.427 -0.2801 -0.5799 -0.2025
   69CHL1    C1 6256   1.977   4.485   3.255  0.2351  0.5079 -0.2839
   69CHL1   H1A 6257   1.976   4.581   3.310 -1.1945  1.0146 -1.1261
   69CHL1   H1B 6258   2.078   4.440   3.265 -0.6373 -1.3511  0.6978
   69CHL1    C2 6259   1.953   4.505   3.102  0.1990  0.4852 -0.1279
   69CHL1   H2A 6260   2.036   4.568   3.063  0.4075 -0.3849 -1.1298
   69CHL1   H2B 6261   1.854   4.555   3.095  0.0890  0.5082  1.1862
   69CHL1   C20 6262   1.925   4.368   4.009 -0.1900 -0.0325  0.0045
   69CHL1   H20 6263   1.815   4.379   4.012 -0.2262 -0.1826 -0.7182
   69CHL1   C21 6264   1.999   4.501   4.004 -0.1502 -0.5511  0.2131
   69CHL1  H21A 6265   1.963   4.575   3.930 -2.1070  0.0730  1.7014
   69CHL1  H21B 6266   2.106   4.477   3.985 -0.1902 -1.8666  1.4295
   69CHL1  H21C 6267   1.989   4.540   4.108 -2.9510 -1.9703  0.5689
   69CHL1   C22 6268   1.962   4.301   4.146  0.6263 -0.8968  0.1119
   69CHL1  H22A 6269   1.924   4.371   4.223 -0.4231 -0.5506 -0.6876
   69CHL1  H22B 6270   1.894   4.214   4.159  0.2703 -0.4450  1.3837
   69CHL1   C23 6271   2.103   4.270   4.180  0.2233  0.2200 -0.7130
   69CHL1  H23A 6272   2.149   4.191   4.118  2.5214 -0.1000  1.2696
   69CHL1  H23B 6273   2.163   4.363   4.167  1.1607 -0.4191 -1.0428
   69CHL1   C24 6274   2.117   4.224   4.325 -0.3245 -0.6173 -0.5436
   69CHL1  H24A 6275   2.111   4.311   4.393  0.3481 -2.1377  1.5640
   69CHL1  H24B 6276   2.048   4.143   4.356 -0.1857 -0.4549  0.1972
   69CHL1   C25 6277   2.259   4.176   4.363 -0.7664 -0.3594  0.0134
   69CHL1   H25 6278   2.335   4.244   4.319 -1.5771 -1.3838 -3.1735
   69CHL1   C26 6279   2.266   4.152   4.515  0.0326 -0.0385  0.1212
   69CHL1  H26A 6280   2.359   4.098   4.543  1.2715  2.6901  1.6986
   69CHL1  H26B 6281   2.263   4.247   4.573 -0.7413  0.2264 -0.3284
   69CHL1  H26C 6282   2.185   4.086   4.553 -1.6055  2.3694  1.0387
   69CHL1   C27 6283   2.305   4.044   4.292  0.2015  0.5598 -0.3089
   69CHL1  H27A 6284   2.271   4.044   4.186  1.4594 -2.5731 -0.8258
   69CHL1  H27B 6285   2.414   4.024   4.295  0.3679  1.5365  0.9193
   69CHL1  H27C 6286   2.248   3.958   4.332 -0.6953  0.5992 -1.4305
   70CHL1    C3 6287   4.024   5.471   3.346 -0.1612  0.4853  0.9555
   70CHL1    H3 6288   4.055   5.365   3.362 -0.9458  0.5760  3.7033
   70CHL1    O3 6289   3.963   5.486   3.224  0.1889 -0.0914  0.4450
   70CHL1   H3' 6290   3.990   5.572   3.190  0.2867 -0.4365 -0.3838
   70CHL1    C4 6291   3.925   5.513   3.454  0.4527  0.4835 -0.9735
   70CHL1   H4A 6292   3.871   5.605   3.425  0.5761  1.4123  1.4720
   70CHL1   H4B 6293   3.859   5.424   3.445  1.5893 -0.4408 -0.3992
   70CHL1    C5 6294   3.986   5.536   3.588 -0.5136 -0.4843 -0.0070
   70CHL1    C6 6295   3.938   5.469   3.703  0.0408 -0.6056  0.5972
   70CHL1    H6 6296   3.857   5.395   3.698 -2.1921  1.4744  2.7254
   70CHL1    C7 6297   3.988   5.481   3.846  0.0359 -0.3190  0.2217
   70CHL1   H7A 6298   3.918   5.496   3.931 -0.8510 -0.5937 -0.4445
   70CHL1   H7B 6299   4.047   5.388   3.862  1.1255 -0.1259 -2.2778
   70CHL1    C8 6300   4.092   5.592   3.855 -0.2537 -0.1182  0.2585
   70CHL1    H8 6301   4.041   5.690   3.867 -0.7526 -0.5737  2.3555
   70CHL1   C14 6302   4.175   5.594   3.985 -0.8866 -0.3388 -0.0477
   70CHL1   H14 6303   4.243   5.507   3.973 -0.7278 -0.2188 -0.0102
   70CHL1   C15 6304   4.105   5.575   4.121  0.0789  0.6607  1.0852
   70CHL1  H15A 6305   4.018   5.639   4.092  1.4998  1.5610 -1.5656
   70CHL1  H15B 6306   4.081   5.468   4.134  0.2477  0.1485 -1.9818
   70CHL1   C16 6307   4.187   5.643   4.231 -0.1314 -0.2636 -0.7033
   70CHL1  H16A 6308   4.136   5.730   4.277 -2.0001 -1.4180 -0.5162
   70CHL1  H16B 6309   4.205   5.576   4.318 -0.5835  2.3908  1.5798
   70CHL1   C17 6310   4.312   5.691   4.150  1.0527  0.0773  0.3381
   70CHL1   H17 6311   4.377   5.601   4.136  0.9171 -0.2561  1.7258
   70CHL1   C13 6312   4.263   5.718   3.998  0.8891  0.8902  0.0717
   70CHL1   C18 6313   4.187   5.861   3.989 -0.2181  0.1810 -0.0579
   70CHL1  H18A 6314   4.265   5.936   4.014 -0.1859  1.0863 -2.5536
   70CHL1  H18B 6315   4.143   5.899   3.894 -0.6421  1.6747  0.7082
   70CHL1  H18C 6316   4.110   5.856   4.069  0.4249 -0.7241  0.5345
   70CHL1   C12 6317   4.373   5.717   3.887  0.5248 -0.6310  0.6297
   70CHL1  H12A 6318   4.440   5.805   3.896  0.7608 -0.7432  0.0649
   70CHL1  H12B 6319   4.450   5.639   3.906  1.5348  0.9287  3.3789
   70CHL1   C11 6320   4.304   5.710   3.750  0.5270  0.1865  0.0278
   70CHL1  H11A 6321   4.264   5.810   3.722  1.0053 -0.2654 -2.5189
   70CHL1  H11B 6322   4.383   5.681   3.678 -0.3369 -1.5548 -0.2856
   70CHL1    C9 6323   4.187   5.601   3.736  0.0024 -0.3731  0.8931
   70CHL1    H9 6324   4.237   5.503   3.726 -0.4400 -0.4949 -0.2085
   70CHL1   C10 6325   4.107   5.625   3.602 -0.2633 -0.4434 -0.1800
   70CHL1   C19 6326   4.047   5.763   3.597 -0.0492 -0.0103  0.7473
   70CHL1  H19A 6327   4.005   5.796   3.695  0.2538 -1.3199  1.3315
   70CHL1  H19B 6328   4.128   5.833   3.566  0.0178 -0.9215 -1.2790
   70CHL1  H19C 6329   3.974   5.777   3.514 -1.2885 -1.5843  1.5156
   70CHL1    C1 6330   4.204   5.581   3.485  0.0436 -0.2526 -0.0607
   70CHL1   H1A 6331   4.279   5.662   3.478  0.1549 -0.2628  0.9637
   70CHL1   H1B 6332   4.248   5.482   3.511  2.0932  1.0952  1.9442
   70CHL1    C2 6333   4.145   5.565   3.343 -0.6986 -0.5401 -0.5386
   70CHL1   H2A 6334   4.215   5.529   3.264 -0.8506 -0.8920 -0.5145
   70CHL1   H2B 6335   4.110   5.663   3.305  1.3819 -0.4987 -2.5538
   70CHL1   C20 6336   4.397   5.804   4.205  0.2271  0.7474  0.2268
   70CHL1   H20 6337   4.438   5.861   4.119 -1.9562 -0.1238 -1.5102
   70CHL1   C21 6338   4.524   5.735   4.255  0.0969 -0.6189  0.1836
   70CHL1  H21A 6339   4.593   5.807   4.304  1.8057 -1.9579 -0.1720
   70CHL1  H21B 6340   4.578   5.699   4.166  2.1500  0.6204  0.8565
   70CHL1  H21C 6341   4.501   5.661   4.334  0.9603  0.0148  1.0544
   70CHL1   C22 6342   4.332   5.904   4.301  0.6589  0.0296 -0.3235
   70CHL1  H22A 6343   4.243   5.947   4.251  1.2771  0.1359 -1.3727
   70CHL1  H22B 6344   4.297   5.847   4.390  0.6832 -0.0433 -0.3602
   70CHL1   C23 6345   4.422   6.024   4.337  0.3536  0.7163 -0.1873
   70CHL1  H23A 6346   4.516   5.988   4.384 -0.0821  0.4676  0.5061
   70CHL1  H23B 6347   4.446   6.073   4.241  1.8087 -0.4631 -0.4763
   70CHL1   C24 6348   4.336   6.114   4.426  0.3295 -0.3499  0.1809
   70CHL1  H24A 6349   4.238   6.121   4.375  0.1786 -0.7748  0.4061
   70CHL1  H24B 6350   4.310   6.066   4.523  1.7570 -1.9334 -0.1834
   70CHL1   C25 6351   4.395   6.260   4.457  0.4916 -0.1697 -0.5518
   70CHL1   H25 6352   4.409   6.296   4.353 -1.9076 -0.5460 -1.0510
   70CHL1   C26 6353   4.277   6.360   4.507 -0.5531 -1.1979 -0.5700
   70CHL1  H26A 6354   4.193   6.356   4.435 -1.1172 -0.1987  0.0158
   70CHL1  H26B 6355   4.232   6.329   4.603  0.5911 -0.3906  0.2591
   70CHL1  H26C 6356   4.319   6.463   4.508 -1.3391 -0.8372  1.9333
   70CHL1   C27 6357   4.518   6.276   4.549  0.7625  0.2745 -0.3853
   70CHL1  H27A 6358   4.596   6.224   4.490 -0.2193  1.1247 -2.5078
   70CHL1  H27B 6359   4.555   6.380   4.560 -1.7329  1.4061 -1.9909
   70CHL1  H27C 6360   4.500   6.221   4.644 -2.4192 -1.0177 -1.5926
   71CHL1    C3 6361   2.668   6.373   3.606  0.3686 -0.8495 -0.5902
   71CHL1    H3 6362   2.585   6.447   3.602 -0.3433 -1.6315 -0.5803
   71CHL1    O3 6363   2.696   6.326   3.474 -0.1917  0.0408  0.2379
   71CHL1   H3' 6364   2.613   6.299   3.433  0.7862 -2.3539 -0.3434
   71CHL1    C4 6365   2.791   6.436   3.669 -0.4975 -0.1353 -0.3643
   71CHL1   H4A 6366   2.870   6.361   3.649 -0.5956 -0.9738  2.0480
   71CHL1   H4B 6367   2.814   6.530   3.614 -0.2462  1.8145  2.8044
   71CHL1    C5 6368   2.772   6.456   3.824  0.6390 -0.6212 -0.3495
   71CHL1    C6 6369   2.786   6.584   3.876  0.1162 -0.3056 -0.0809
   71CHL1    H6 6370   2.802   6.667   3.806 -0.0357  0.5862  0.9120
   71CHL1    C7 6371   2.766   6.626   4.016  0.0797  0.5152 -0.2142
   71CHL1   H7A 6372   2.825   6.719   4.037  0.4082  0.5977 -1.4387
   71CHL1   H7B 6373   2.663   6.667   4.013  0.5285  1.6828 -0.5661
   71CHL1    C8 6374   2.771   6.502   4.112 -0.1875 -1.0808  0.7643
   71CHL1    H8 6375   2.880   6.479   4.114  0.9074  3.2809  0.8164
   71CHL1   C14 6376   2.735   6.537   4.254 -0.4257 -0.0636  0.4984
   71CHL1   H14 6377   2.627   6.563   4.243  0.2050  2.4572 -0.2622
   71CHL1   C15 6378   2.790   6.664   4.321 -0.2127  0.1222  0.8982
   71CHL1  H15A 6379   2.901   6.663   4.316 -0.1896 -1.2460  1.3232
   71CHL1  H15B 6380   2.750   6.754   4.268  1.3637  1.1543  1.3810
   71CHL1   C16 6381   2.753   6.637   4.467 -0.2968  0.4520  0.6200
   71CHL1  H16A 6382   2.846   6.644   4.528  0.7059  1.3992 -0.9161
   71CHL1  H16B 6383   2.678   6.710   4.505 -2.3499 -0.6312 -1.1163
   71CHL1   C17 6384   2.691   6.498   4.479  0.1020  0.2705 -0.0502
   71CHL1   H17 6385   2.582   6.509   4.464 -0.0011 -0.7106 -0.1158
   71CHL1   C13 6386   2.734   6.420   4.354  0.3553 -0.9716 -0.0084
   71CHL1   C18 6387   2.877   6.364   4.381  0.1351  1.1841  0.0312
   71CHL1  H18A 6388   2.953   6.438   4.415  2.0095 -0.5235 -0.2347
   71CHL1  H18B 6389   2.872   6.281   4.454 -0.6996  1.0259 -0.2020
   71CHL1  H18C 6390   2.931   6.328   4.291  1.3682  1.9225  0.4395
   71CHL1   C12 6391   2.637   6.314   4.303  0.6900 -0.6016 -0.0514
   71CHL1  H12A 6392   2.639   6.233   4.379 -0.6978  0.6136  1.3736
   71CHL1  H12B 6393   2.536   6.359   4.294  0.5550 -0.2120  2.5165
   71CHL1   C11 6394   2.670   6.265   4.165  0.1299 -0.4960 -1.0355
   71CHL1  H11A 6395   2.752   6.191   4.173 -0.5500 -1.1152  0.6738
   71CHL1  H11B 6396   2.573   6.217   4.140 -0.0049 -0.1888 -1.1044
   71CHL1    C9 6397   2.691   6.378   4.058 -0.3413  0.4952 -0.4443
   71CHL1    H9 6398   2.590   6.426   4.058  0.1808  1.9247  2.9390
   71CHL1   C10 6399   2.730   6.338   3.915  0.3820  0.1614 -0.3831
   71CHL1   C19 6400   2.847   6.234   3.916 -0.4101 -0.3160  0.4681
   71CHL1  H19A 6401   2.825   6.137   3.964 -0.8861  0.2548  1.4295
   71CHL1  H19B 6402   2.882   6.204   3.815  2.2015 -2.2926  1.8439
   71CHL1  H19C 6403   2.930   6.283   3.971 -0.3705 -0.0767  0.2009
   71CHL1    C1 6404   2.605   6.278   3.851 -0.0804 -0.1352  1.0559
   71CHL1   H1A 6405   2.584   6.175   3.888  1.8775 -0.7191  0.6406
   71CHL1   H1B 6406   2.520   6.342   3.880 -0.1792 -0.8187  2.3298
   71CHL1    C2 6407   2.629   6.252   3.696 -0.1872 -0.3221 -0.1511
   71CHL1   H2A 6408   2.528   6.217   3.667  0.5698 -1.5338 -1.4974
   71CHL1   H2B 6409   2.709   6.174   3.685  0.0407  0.1261 -2.0523
   71CHL1   C20 6410   2.705   6.435   4.622 -0.1229 -0.0487  0.4681
   71CHL1   H20 6411   2.805   6.386   4.626  0.2315 -0.2106 -4.4626
   71CHL1   C21 6412   2.603   6.320   4.643 -0.7731  0.4743  0.7921
   71CHL1  H21A 6413   2.635   6.228   4.588  1.3903  1.7843 -0.2827
   71CHL1  H21B 6414   2.505   6.345   4.596 -1.6024 -2.2801  0.8713
   71CHL1  H21C 6415   2.579   6.293   4.748 -2.4699  2.7753  1.0809
   71CHL1   C22 6416   2.696   6.540   4.733  0.0151 -0.6112 -0.8059
   71CHL1  H22A 6417   2.792   6.598   4.735 -0.1611 -0.3106  1.6520
   71CHL1  H22B 6418   2.626   6.622   4.706  0.6675 -0.0995 -0.9791
   71CHL1   C23 6419   2.671   6.501   4.877  0.0629 -0.5768 -0.2908
   71CHL1  H23A 6420   2.578   6.442   4.887  0.3791 -0.9695  0.3594
   71CHL1  H23B 6421   2.754   6.432   4.902  1.9960  0.2382 -3.7831
   71CHL1   C24 6422   2.653   6.619   4.973  0.2032 -0.5376  0.4304
   71CHL1  H24A 6423   2.674   6.585   5.076  2.7487 -0.7530 -0.0967
   71CHL1  H24B 6424   2.728   6.695   4.939 -1.2030  0.9102  0.4443
   71CHL1   C25 6425   2.514   6.684   4.964 -0.1095 -0.4844 -0.5173
   71CHL1   H25 6426   2.477   6.697   4.860 -0.6049  1.8974 -0.1087
   71CHL1   C26 6427   2.410   6.618   5.047  0.7025  0.0544 -0.2675
   71CHL1  H26A 6428   2.399   6.519   4.998  1.5183  0.4231 -1.2367
   71CHL1  H26B 6429   2.447   6.602   5.150 -2.5926 -0.9934  0.8775
   71CHL1  H26C 6430   2.314   6.675   5.047 -1.3015 -3.0486 -0.8472
   71CHL1   C27 6431   2.524   6.824   5.020  0.7835 -0.3937  0.2392
   71CHL1  H27A 6432   2.424   6.872   5.029  1.1549  0.4376  0.0493
   71CHL1  H27B 6433   2.561   6.832   5.124 -0.0930  0.5634  0.4951
   71CHL1  H27C 6434   2.588   6.895   4.965 -0.4112  3.2316  3.1032
   72CHL1    C3 6435   1.145   4.919   3.157  0.3584 -0.2522  0.1484
   72CHL1    H3 6436   1.200   5.016   3.152 -1.9940  1.2824  1.5285
   72CHL1    O3 6437   1.147   4.860   3.031  0.4764 -0.1294  0.1306
   72CHL1   H3' 6438   1.071   4.900   2.988  0.8833  2.2547  1.4982
   72CHL1    C4 6439   1.220   4.830   3.250 -0.1208  0.6389 -0.0950
   72CHL1   H4A 6440   1.177   4.728   3.254 -0.0018  0.5752 -0.4177
   72CHL1   H4B 6441   1.323   4.810   3.215  1.0453  3.1613  1.5797
   72CHL1    C5 6442   1.219   4.888   3.390  0.5208  1.1735 -0.0371
   72CHL1    C6 6443   1.332   4.901   3.458 -0.1085 -0.2942 -0.5173
   72CHL1    H6 6444   1.429   4.873   3.413 -0.3463 -1.1868 -0.4893
   72CHL1    C7 6445   1.340   4.942   3.603  0.7576 -0.5838  0.0675
   72CHL1   H7A 6446   1.407   4.877   3.663  0.5343 -1.3227 -0.4738
   72CHL1   H7B 6447   1.381   5.046   3.601  1.2167 -0.7728 -0.6701
   72CHL1    C8 6448   1.196   4.942   3.668 -0.1771 -0.3873 -0.3079
   72CHL1    H8 6449   1.182   4.833   3.686  1.7901 -0.6405 -0.0083
   72CHL1   C14 6450   1.202   5.023   3.798 -0.3490  0.4288  0.0469
   72CHL1   H14 6451   1.221   5.126   3.763  0.9614  0.8307  1.8296
   72CHL1   C15 6452   1.314   4.990   3.901 -0.3062  1.0861 -0.1522
   72CHL1  H15A 6453   1.311   4.879   3.906  2.3573  0.9560 -0.1584
   72CHL1  H15B 6454   1.417   5.018   3.871  0.1661  1.4973  1.6950
   72CHL1   C16 6455   1.272   5.066   4.025 -0.4715  0.7299  0.3003
   72CHL1  H16A 6456   1.304   5.008   4.114  0.6467 -0.6919 -0.9779
   72CHL1  H16B 6457   1.323   5.165   4.023 -0.5646  0.7800 -0.9424
   72CHL1   C17 6458   1.114   5.097   4.010  0.0008  0.2023  0.7578
   72CHL1   H17 6459   1.102   5.205   3.987  0.6128  0.6004  2.2138
   72CHL1   C13 6460   1.074   5.020   3.883  0.3703 -0.3950 -0.5859
   72CHL1   C18 6461   1.024   4.875   3.924  0.0382  0.7167  0.4377
   72CHL1  H18A 6462   1.003   4.810   3.836 -1.9630  0.2959  1.1710
   72CHL1  H18B 6463   1.103   4.824   3.984 -0.0254  0.7760  0.5721
   72CHL1  H18C 6464   0.931   4.873   3.984  0.0142  1.1898  0.4200
   72CHL1   C12 6465   0.972   5.095   3.799 -0.3500 -0.0786  1.0248
   72CHL1  H12A 6466   0.872   5.082   3.846 -1.1324 -1.1725 -0.8253
   72CHL1  H12B 6467   1.001   5.202   3.785 -0.9547 -0.0968 -0.6111
   72CHL1   C11 6468   0.957   5.031   3.658 -0.2980  0.5822  0.4764
   72CHL1  H11A 6469   0.901   4.936   3.677 -0.3023  0.7940  1.5527
   72CHL1  H11B 6470   0.898   5.097   3.590 -0.1043  0.6271  0.3522
   72CHL1    C9 6471   1.090   5.000   3.579  0.3933 -0.1458  0.5703
   72CHL1    H9 6472   1.125   5.097   3.536 -2.2767  0.6401  0.0132
   72CHL1   C10 6473   1.077   4.908   3.448  0.0712  0.6072 -0.9153
   72CHL1   C19 6474   1.006   4.773   3.482 -0.3585 -0.0419  0.1870
   72CHL1  H19A 6475   0.900   4.786   3.514 -0.1644 -3.2279  2.6519
   72CHL1  H19B 6476   1.010   4.707   3.392  1.3096  0.8817 -0.4658
   72CHL1  H19C 6477   1.057   4.724   3.567 -1.1600  1.7243  1.7563
   72CHL1    C1 6478   0.987   4.990   3.347  0.0225 -0.4449  0.1324
   72CHL1   H1A 6479   0.879   4.989   3.375 -0.8423  0.6800 -2.7677
   72CHL1   H1B 6480   1.023   5.095   3.355 -0.9527 -0.0311 -0.6571
   72CHL1    C2 6481   0.999   4.946   3.200  0.3252  0.1688  0.8912
   72CHL1   H2A 6482   0.952   5.021   3.133 -0.9983 -0.2758  1.3005
   72CHL1   H2B 6483   0.937   4.855   3.182 -2.1034  1.4877  2.0713
   72CHL1   C20 6484   1.038   5.074   4.146 -0.1256  0.5661 -0.0258
   72CHL1   H20 6485   1.041   4.966   4.172 -2.0117  0.4407 -0.2189
   72CHL1   C21 6486   0.894   5.111   4.121  0.4125  0.0324 -0.4169
   72CHL1  H21A 6487   0.846   5.049   4.041  0.8374 -1.5467  0.5022
   72CHL1  H21B 6488   0.881   5.219   4.099  1.0575  0.1882 -0.0476
   72CHL1  H21C 6489   0.836   5.088   4.213 -1.3327  0.8005 -1.2798
   72CHL1   C22 6490   1.096   5.152   4.273 -0.3236  0.0906 -0.1149
   72CHL1  H22A 6491   1.196   5.115   4.301  0.1129  0.4909 -1.1018
   72CHL1  H22B 6492   1.097   5.259   4.243  2.0021 -0.1913 -1.2429
   72CHL1   C23 6493   1.014   5.149   4.406  0.4903  0.5138 -0.2985
   72CHL1  H23A 6494   0.908   5.181   4.403 -0.1237 -1.1984  1.1111
   72CHL1  H23B 6495   0.996   5.039   4.415  0.5795  0.6003  1.2417
   72CHL1   C24 6496   1.089   5.218   4.520  1.3077 -0.5279 -0.2736
   72CHL1  H24A 6497   1.183   5.160   4.532  0.8658 -1.3671 -0.8473
   72CHL1  H24B 6498   1.112   5.318   4.477  2.0211  0.5043  2.2850
   72CHL1   C25 6499   1.028   5.230   4.661  0.2531  0.3904  0.5837
   72CHL1   H25 6500   0.977   5.133   4.680  1.6614 -0.1800  1.5869
   72CHL1   C26 6501   1.132   5.252   4.770  0.1256  0.7402  1.0131
   72CHL1  H26A 6502   1.198   5.168   4.801  0.6994  1.0941  0.7644
   72CHL1  H26B 6503   1.203   5.320   4.717 -0.7863  0.3461 -0.7684
   72CHL1  H26C 6504   1.091   5.305   4.859  1.4630  1.2636  1.3399
   72CHL1   C27 6505   0.921   5.335   4.659  0.1681  0.3722 -0.0302
   72CHL1  H27A 6506   0.850   5.322   4.574  0.0171  0.1968  0.1230
   72CHL1  H27B 6507   0.871   5.336   4.758  0.3351  1.3213  0.0508
   72CHL1  H27C 6508   0.965   5.436   4.651 -3.2251  1.9385 -0.7497
   73CHL1    C3 6509   1.302   5.274   3.236  1.1884 -1.0372  0.0043
   73CHL1    H3 6510   1.274   5.171   3.269  0.5133 -0.8393  0.0501
   73CHL1    O3 6511   1.281   5.286   3.096 -0.1355  0.0586  0.0213
   73CHL1   H3' 6512   1.313   5.373   3.070 -1.6671  1.3242  1.9989
   73CHL1    C4 6513   1.203   5.376   3.308  0.1542 -0.2561  0.5071
   73CHL1   H4A 6514   1.210   5.474   3.256 -2.6461 -0.1011  0.3156
   73CHL1   H4B 6515   1.101   5.340   3.285  0.7516  0.0409 -3.2393
   73CHL1    C5 6516   1.232   5.409   3.457  0.7011  0.1454 -0.2765
   73CHL1    C6 6517   1.138   5.393   3.556 -0.6374  0.5568  0.2635
   73CHL1    H6 6518   1.039   5.354   3.525 -1.0449  0.7639  1.2375
   73CHL1    C7 6519   1.157   5.425   3.697  0.1404  0.0635  0.1131
   73CHL1   H7A 6520   1.092   5.510   3.730  0.4460  0.9276 -1.4360
   73CHL1   H7B 6521   1.144   5.334   3.760 -0.3980  0.0512 -0.0108
   73CHL1    C8 6522   1.301   5.480   3.731 -0.2568  0.2270 -0.3144
   73CHL1    H8 6523   1.312   5.588   3.707 -1.7228  0.5459  0.3247
   73CHL1   C14 6524   1.342   5.454   3.876 -1.1290  0.0319  0.0331
   73CHL1   H14 6525   1.327   5.345   3.888  0.6208 -0.1389  0.9974
   73CHL1   C15 6526   1.243   5.501   3.995  0.0757  0.2360  0.4342
   73CHL1  H15A 6527   1.215   5.608   3.991 -2.3207 -0.1889  2.8834
   73CHL1  H15B 6528   1.156   5.432   4.001  0.2848  0.1067  3.1915
   73CHL1   C16 6529   1.325   5.466   4.127 -0.3308  0.2237  0.0227
   73CHL1  H16A 6530   1.318   5.556   4.191 -1.4966 -0.1123  0.3922
   73CHL1  H16B 6531   1.276   5.381   4.179  0.3979  0.0886  0.5074
   73CHL1   C17 6532   1.472   5.443   4.076  0.4717 -0.2082 -0.5779
   73CHL1   H17 6533   1.494   5.334   4.070 -0.8619 -0.5359  0.0866
   73CHL1   C13 6534   1.480   5.495   3.928 -0.2453 -0.1045 -0.4242
   73CHL1   C18 6535   1.501   5.649   3.926 -0.2173  0.1443 -0.1947
   73CHL1  H18A 6536   1.445   5.694   4.011  0.4889  0.2606  0.2142
   73CHL1  H18B 6537   1.609   5.668   3.941 -0.2993 -0.3949  1.2153
   73CHL1  H18C 6538   1.463   5.690   3.830 -0.5801 -0.3502 -0.2691
   73CHL1   C12 6539   1.576   5.423   3.837 -0.0987 -0.2938 -0.2244
   73CHL1  H12A 6540   1.679   5.461   3.851 -0.2810  0.3498 -0.5933
   73CHL1  H12B 6541   1.575   5.315   3.864 -1.4808 -0.1197  0.4896
   73CHL1   C11 6542   1.550   5.447   3.685 -0.3798  0.3436 -0.2419
   73CHL1  H11A 6543   1.571   5.555   3.675 -0.3126  0.4669  1.1215
   73CHL1  H11B 6544   1.626   5.388   3.629 -0.3367 -1.3240  1.4654
   73CHL1    C9 6545   1.401   5.403   3.642  0.1286  0.4153  0.2161
   73CHL1    H9 6546   1.394   5.295   3.665 -2.3257  0.3086 -0.8259
   73CHL1   C10 6547   1.376   5.428   3.488 -0.1090  0.4763 -0.2256
   73CHL1   C19 6548   1.430   5.569   3.440 -0.9021  0.4104  0.2360
   73CHL1  H19A 6549   1.532   5.587   3.481 -1.0397  2.4470 -0.2211
   73CHL1  H19B 6550   1.431   5.581   3.330  3.4051 -1.9232 -0.1741
   73CHL1  H19C 6551   1.366   5.653   3.475 -1.0563  0.1799  0.5130
   73CHL1    C1 6552   1.459   5.323   3.421  1.1863  0.3156 -0.1444
   73CHL1   H1A 6553   1.568   5.326   3.442  1.1513 -0.2148  0.1260
   73CHL1   H1B 6554   1.433   5.222   3.460 -1.7162  1.3404  0.8270
   73CHL1    C2 6555   1.446   5.304   3.271  0.5987  0.3814  0.6599
   73CHL1   H2A 6556   1.513   5.232   3.220 -1.3287 -0.1620 -1.1953
   73CHL1   H2B 6557   1.463   5.404   3.225 -0.6012  0.1027 -0.4341
   73CHL1   C20 6558   1.583   5.489   4.182 -0.0813  0.5584 -0.3234
   73CHL1   H20 6559   1.582   5.600   4.189  0.9167  0.5032  1.2042
   73CHL1   C21 6560   1.719   5.436   4.140  0.2402  0.0211  0.1955
   73CHL1  H21A 6561   1.713   5.348   4.073 -2.7342  0.4538 -0.2524
   73CHL1  H21B 6562   1.799   5.427   4.217 -0.3500 -2.0626  0.6207
   73CHL1  H21C 6563   1.770   5.501   4.066  0.7333 -1.1780 -0.5538
   73CHL1   C22 6564   1.555   5.446   4.327 -0.1429 -0.1950 -0.5815
   73CHL1  H22A 6565   1.627   5.484   4.403 -2.5109 -1.2918  2.4260
   73CHL1  H22B 6566   1.455   5.484   4.358  0.2362  0.0959  0.3419
   73CHL1   C23 6567   1.558   5.294   4.347  0.0000 -0.2321 -0.5520
   73CHL1  H23A 6568   1.492   5.238   4.277 -0.7586  0.0096 -0.0450
   73CHL1  H23B 6569   1.664   5.272   4.322 -0.2796  1.0092 -3.2086
   73CHL1   C24 6570   1.526   5.248   4.492 -0.0124  0.0533  0.2323
   73CHL1  H24A 6571   1.583   5.307   4.567 -0.2932  2.1785 -1.1278
   73CHL1  H24B 6572   1.419   5.274   4.507 -0.2143 -1.2268  1.1520
   73CHL1   C25 6573   1.540   5.102   4.514  0.4309 -0.0099 -0.4063
   73CHL1   H25 6574   1.642   5.070   4.484  0.4869 -0.1043 -0.1177
   73CHL1   C26 6575   1.536   5.059   4.664  0.0365  0.0658 -0.0741
   73CHL1  H26A 6576   1.540   4.948   4.664  2.9431  0.0915 -0.5818
   73CHL1  H26B 6577   1.622   5.089   4.728  0.6621 -0.2121 -0.7760
   73CHL1  H26C 6578   1.440   5.090   4.710  0.6902  0.3335  1.1608
   73CHL1   C27 6579   1.447   5.020   4.424  0.3431 -0.0812  0.0101
   73CHL1  H27A 6580   1.442   4.913   4.455  2.9920  0.1877  1.5982
   73CHL1  H27B 6581   1.345   5.062   4.436 -0.3806 -1.2921 -1.5424
   73CHL1  H27C 6582   1.479   5.029   4.318  0.9862  2.5641  0.3591
   74CHL1    C3 6583   3.349   4.160   3.202 -0.2793 -0.2993 -0.5406
   74CHL1    H3 6584   3.301   4.257   3.227 -1.5654 -1.2413  0.7995
   74CHL1    O3 6585   3.377   4.155   3.066  0.7580  0.0353  0.7185
   74CHL1   H3' 6586   3.295   4.156   3.016  1.7005 -0.1689 -0.9136
   74CHL1    C4 6587   3.478   4.154   3.277 -0.7402 -1.1756 -0.4450
   74CHL1   H4A 6588   3.543   4.069   3.249  0.8689  0.0701 -0.5939
   74CHL1   H4B 6589   3.538   4.240   3.242 -1.1986 -1.2986 -1.5764
   74CHL1    C5 6590   3.455   4.154   3.429  0.0540  0.3424  0.0902
   74CHL1    C6 6591   3.489   4.249   3.517  0.2084  0.4048 -0.2689
   74CHL1    H6 6592   3.534   4.341   3.475 -0.4188  0.0678 -1.7579
   74CHL1    C7 6593   3.479   4.241   3.670 -0.0527  0.0250 -0.0689
   74CHL1   H7A 6594   3.575   4.262   3.721  0.2515 -1.0564 -0.1755
   74CHL1   H7B 6595   3.408   4.325   3.688  1.9048  1.7497 -0.0363
   74CHL1    C8 6596   3.438   4.092   3.720 -0.7627 -1.0603  0.3572
   74CHL1    H8 6597   3.530   4.031   3.711 -0.7197 -1.3874  2.6231
   74CHL1   C14 6598   3.393   4.114   3.864 -0.2972 -0.4801  0.7181
   74CHL1   H14 6599   3.313   4.191   3.864  0.5440  0.4269 -0.1231
   74CHL1   C15 6600   3.500   4.151   3.965 -0.0464  0.4970 -0.2923
   74CHL1  H15A 6601   3.597   4.107   3.933 -0.7387 -0.9288 -0.5171
   74CHL1  H15B 6602   3.512   4.261   3.955 -1.9799  0.5935 -2.1979
   74CHL1   C16 6603   3.451   4.100   4.102  0.0027 -0.8457 -0.2049
   74CHL1  H16A 6604   3.536   4.038   4.136 -1.0190 -1.4640  1.3494
   74CHL1  H16B 6605   3.442   4.179   4.180  0.4327  0.4181 -1.4062
   74CHL1   C17 6606   3.319   4.018   4.075  0.3007 -0.7564  0.1310
   74CHL1   H17 6607   3.239   4.095   4.082 -0.4871 -1.4365 -1.0572
   74CHL1   C13 6608   3.338   3.983   3.928  0.3797  0.2953  0.0552
   74CHL1   C18 6609   3.445   3.867   3.918 -0.6768 -0.5655 -0.0207
   74CHL1  H18A 6610   3.482   3.865   3.813 -2.8068  1.8808 -0.9273
   74CHL1  H18B 6611   3.541   3.885   3.970 -1.9584  1.4890  1.8042
   74CHL1  H18C 6612   3.401   3.767   3.936 -0.6985 -0.4872  0.3650
   74CHL1   C12 6613   3.217   3.944   3.842  0.8716  0.3594 -0.3897
   74CHL1  H12A 6614   3.166   3.857   3.889  0.0467  0.9356 -0.1724
   74CHL1  H12B 6615   3.141   4.025   3.842 -0.5326 -0.8378  1.7539
   74CHL1   C11 6616   3.258   3.922   3.692  0.2565  0.2920  0.4721
   74CHL1  H11A 6617   3.318   3.829   3.688 -0.5580 -0.2931  1.3279
   74CHL1  H11B 6618   3.168   3.900   3.631  0.2716 -0.3017  0.6657
   74CHL1    C9 6619   3.331   4.045   3.628  0.1024 -0.4915 -0.0070
   74CHL1    H9 6620   3.246   4.117   3.629 -0.0394 -0.6456 -0.4829
   74CHL1   C10 6621   3.379   4.032   3.476 -1.1885  0.0409  0.0330
   74CHL1   C19 6622   3.456   3.898   3.468  0.3512 -0.6928 -0.8711
   74CHL1  H19A 6623   3.391   3.810   3.486 -0.5540 -0.1660 -1.4958
   74CHL1  H19B 6624   3.496   3.883   3.366 -0.1883  1.1605 -1.3911
   74CHL1  H19C 6625   3.535   3.905   3.546  0.4350  2.8012 -1.1212
   74CHL1    C1 6626   3.249   4.019   3.392 -0.0300  0.0610  0.8154
   74CHL1   H1A 6627   3.183   3.934   3.419  0.1730 -0.0829  0.8635
   74CHL1   H1B 6628   3.190   4.105   3.429 -1.7731 -0.9953  0.5871
   74CHL1    C2 6629   3.267   4.039   3.240  0.6530  0.1106  0.4544
   74CHL1   H2A 6630   3.162   4.049   3.204  1.3034  2.1441 -1.0564
   74CHL1   H2B 6631   3.308   3.948   3.194 -1.5023 -0.6949  0.0165
   74CHL1   C20 6632   3.290   3.908   4.176 -0.7552 -0.5170 -0.4165
   74CHL1   H20 6633   3.336   3.812   4.145 -1.4816 -1.0505  0.1338
   74CHL1   C21 6634   3.137   3.895   4.174 -0.2447  0.0721  0.0596
   74CHL1  H21A 6635   3.105   3.883   4.068 -0.1376  0.3197  0.0003
   74CHL1  H21B 6636   3.085   3.986   4.210 -1.2587  0.5674 -2.4307
   74CHL1  H21C 6637   3.115   3.803   4.233  2.5304 -1.3374 -0.9179
   74CHL1   C22 6638   3.326   3.939   4.323  0.0617 -0.5444 -0.7410
   74CHL1  H22A 6639   3.335   4.049   4.331  2.1558 -0.5604 -1.9923
   74CHL1  H22B 6640   3.242   3.908   4.388  1.5477 -0.6836  1.1966
   74CHL1   C23 6641   3.460   3.880   4.366 -0.0069  1.0191  0.3221
   74CHL1  H23A 6642   3.492   3.786   4.316 -0.4297  0.9361  0.2032
   74CHL1  H23B 6643   3.552   3.940   4.353  2.9326 -3.0403  0.5443
   74CHL1   C24 6644   3.447   3.851   4.513 -0.3069 -0.4397  0.5608
   74CHL1  H24A 6645   3.430   3.953   4.554  0.2235  0.8074 -2.0872
   74CHL1  H24B 6646   3.364   3.783   4.541  0.9877 -1.9500  0.8663
   74CHL1   C25 6647   3.569   3.801   4.592 -0.5064 -0.7713  0.0567
   74CHL1   H25 6648   3.659   3.852   4.552 -1.8309  2.1734  0.5632
   74CHL1   C26 6649   3.565   3.848   4.738  0.7272 -0.3989 -0.3487
   74CHL1  H26A 6650   3.565   3.958   4.753  0.1887 -0.0242 -2.7496
   74CHL1  H26B 6651   3.478   3.800   4.788  1.7428 -0.5013  1.4078
   74CHL1  H26C 6652   3.652   3.800   4.787 -1.1296 -1.0954  2.5284
   74CHL1   C27 6653   3.589   3.650   4.581  0.0546 -0.5734  0.0369
   74CHL1  H27A 6654   3.524   3.584   4.642  0.5960 -2.2676 -1.1758
   74CHL1  H27B 6655   3.571   3.629   4.473  0.9479  2.2924 -0.7781
   74CHL1  H27C 6656   3.696   3.624   4.599  0.3331  1.0473  0.9862
   75CHL1    C3 6657   4.346   2.245   3.223 -0.4097 -0.3318  0.1313
   75CHL1    H3 6658   4.377   2.140   3.238 -1.5127 -0.9258 -1.5203
   75CHL1    O3 6659   4.341   2.274   3.082 -0.1860  0.0549 -0.4680
   75CHL1   H3' 6660   4.435   2.279   3.062 -0.1878 -1.9475 -1.2331
   75CHL1    C4 6661   4.217   2.272   3.303  0.3563  0.1911  0.0917
   75CHL1   H4A 6662   4.198   2.378   3.275 -2.5008 -0.4854 -0.8144
   75CHL1   H4B 6663   4.138   2.215   3.251 -0.5614  0.0968  1.5393
   75CHL1    C5 6664   4.226   2.239   3.451 -0.0043  0.3910  0.7364
   75CHL1    C6 6665   4.131   2.158   3.504  0.5936 -0.0997 -0.3134
   75CHL1    H6 6666   4.051   2.117   3.442 -0.1347  1.1284 -0.2215
   75CHL1    C7 6667   4.127   2.130   3.650 -0.6282  0.2074  0.5860
   75CHL1   H7A 6668   4.028   2.135   3.700 -0.9280 -5.0692  1.0431
   75CHL1   H7B 6669   4.156   2.024   3.666  1.3503  0.6420  0.1561
   75CHL1    C8 6670   4.226   2.219   3.733 -0.2986 -0.2251 -0.0843
   75CHL1    H8 6671   4.183   2.320   3.750  0.9620  0.2355  0.5384
   75CHL1   C14 6672   4.259   2.167   3.871  0.3595  0.0422 -0.3549
   75CHL1   H14 6673   4.309   2.069   3.853 -3.1337 -1.5344 -2.4811
   75CHL1   C15 6674   4.140   2.128   3.959  0.5093  0.3060 -0.5943
   75CHL1  H15A 6675   4.061   2.206   3.950  0.8177  0.5856 -0.9352
   75CHL1  H15B 6676   4.099   2.029   3.930  1.5812 -0.4885  0.4890
   75CHL1   C16 6677   4.197   2.142   4.107 -0.1409  0.4598 -0.4042
   75CHL1  H16A 6678   4.143   2.224   4.160  0.5150  0.9183 -0.4284
   75CHL1  H16B 6679   4.182   2.047   4.161 -1.0123 -0.5390 -2.3068
   75CHL1   C17 6680   4.343   2.178   4.094 -0.5932 -0.0311  0.5041
   75CHL1   H17 6681   4.398   2.082   4.083  0.7030  0.7018  0.4115
   75CHL1   C13 6682   4.353   2.249   3.958 -0.5960  0.1564  0.1670
   75CHL1   C18 6683   4.301   2.395   3.984  0.4865 -0.5888 -0.0121
   75CHL1  H18A 6684   4.278   2.448   3.889 -0.9587 -1.3131 -0.1034
   75CHL1  H18B 6685   4.199   2.388   4.030 -0.4721  0.6074 -1.8438
   75CHL1  H18C 6686   4.360   2.458   4.054 -1.5755  0.9943  0.3972
   75CHL1   C12 6687   4.486   2.262   3.887  0.8705  0.4414  0.1062
   75CHL1  H12A 6688   4.552   2.331   3.944 -1.6580  2.4826  0.7616
   75CHL1  H12B 6689   4.528   2.160   3.880 -1.4875 -0.6299  0.8171
   75CHL1   C11 6690   4.460   2.326   3.746 -0.1790  0.7879 -0.2156
   75CHL1  H11A 6691   4.439   2.435   3.753  1.8062  1.3781 -2.2339
   75CHL1  H11B 6692   4.557   2.335   3.694 -0.3281  0.3201 -0.5775
   75CHL1    C9 6693   4.362   2.250   3.658 -0.3115  0.1653 -0.7714
   75CHL1    H9 6694   4.403   2.147   3.649 -0.5634  0.0571 -0.6833
   75CHL1   C10 6695   4.340   2.315   3.521 -0.2141 -0.8336  0.4468
   75CHL1   C19 6696   4.299   2.461   3.549  0.1258 -0.1644  0.5626
   75CHL1  H19A 6697   4.219   2.476   3.624 -0.7236  1.4910 -0.6202
   75CHL1  H19B 6698   4.398   2.504   3.576  0.4189 -0.2314 -0.3792
   75CHL1  H19C 6699   4.261   2.513   3.458 -0.0003 -1.5136 -0.1800
   75CHL1    C1 6700   4.471   2.309   3.434  0.1310  1.2603  0.1676
   75CHL1   H1A 6701   4.541   2.387   3.473 -0.1234  1.1193  0.9179
   75CHL1   H1B 6702   4.521   2.211   3.449 -0.6119  0.6915 -0.9776
   75CHL1    C2 6703   4.457   2.333   3.285 -0.1367 -0.0672  0.3828
   75CHL1   H2A 6704   4.555   2.324   3.235 -0.4396 -0.7970 -0.0914
   75CHL1   H2B 6705   4.428   2.440   3.271  1.0893  0.2252  0.0394
   75CHL1   C20 6706   4.398   2.232   4.228  0.1669  0.1277  0.6228
   75CHL1   H20 6707   4.331   2.313   4.263 -0.6159  0.2067 -0.9557
   75CHL1   C21 6708   4.551   2.286   4.220  0.5844  1.3800  0.2989
   75CHL1  H21A 6709   4.605   2.298   4.316  1.8023  2.2618 -0.4544
   75CHL1  H21B 6710   4.548   2.381   4.162  0.3821 -0.3569 -2.8030
   75CHL1  H21C 6711   4.599   2.207   4.158 -3.0056 -0.9551  0.1827
   75CHL1   C22 6712   4.399   2.125   4.348  0.4493 -0.3106 -0.2340
   75CHL1  H22A 6713   4.419   2.022   4.311 -0.2283 -0.3454 -0.5287
   75CHL1  H22B 6714   4.485   2.147   4.414 -1.1740 -1.7857  2.5900
   75CHL1   C23 6715   4.278   2.132   4.445  0.0135 -0.4453  0.0985
   75CHL1  H23A 6716   4.280   2.230   4.498  0.2773 -0.1427 -0.4583
   75CHL1  H23B 6717   4.183   2.119   4.389 -0.5770 -1.8433  1.3775
   75CHL1   C24 6718   4.270   2.008   4.545 -0.6343 -1.0539  0.4282
   75CHL1  H24A 6719   4.170   2.017   4.593 -0.1667  2.1284  1.0718
   75CHL1  H24B 6720   4.274   1.922   4.475  0.5596 -1.2598  0.7405
   75CHL1   C25 6721   4.376   1.995   4.656 -0.0556  0.0821 -0.0354
   75CHL1   H25 6722   4.462   1.942   4.608 -0.4489 -0.6553  0.0552
   75CHL1   C26 6723   4.420   2.131   4.716 -0.0831 -0.0281  0.5505
   75CHL1  H26A 6724   4.452   2.207   4.641  1.2927  1.3640  2.4390
   75CHL1  H26B 6725   4.334   2.174   4.771  1.0093  0.1650  2.1825
   75CHL1  H26C 6726   4.503   2.123   4.789  2.0067 -0.0036 -1.6701
   75CHL1   C27 6727   4.325   1.904   4.770  0.6423 -0.3808  0.5947
   75CHL1  H27A 6728   4.248   1.830   4.739  1.1764 -1.1498  1.0790
   75CHL1  H27B 6729   4.414   1.845   4.800  0.6037  0.1617  1.8272
   75CHL1  H27C 6730   4.284   1.973   4.847 -1.1971 -0.3319 -0.3488
   76CHL1    C3 6731   0.426   4.725   3.137 -0.0100  0.9348 -1.0124
   76CHL1    H3 6732   0.366   4.815   3.112 -0.7940  0.3973 -1.0990
   76CHL1    O3 6733   0.465   4.665   3.018  0.2876  0.1545  0.4236
   76CHL1   H3' 6734   0.393   4.607   2.989  0.6814 -1.2624  2.1376
   76CHL1    C4 6735   0.556   4.770   3.209  0.0794 -0.2594 -0.5303
   76CHL1   H4A 6736   0.624   4.683   3.221 -0.4958 -0.4431  2.0249
   76CHL1   H4B 6737   0.612   4.847   3.151 -1.2559  0.9557 -0.2626
   76CHL1    C5 6738   0.530   4.824   3.347  0.5974  0.3959 -0.5991
   76CHL1    C6 6739   0.565   4.942   3.388 -0.9431  0.0136 -0.1672
   76CHL1    H6 6740   0.616   5.008   3.315  1.4537 -1.3166  0.2041
   76CHL1    C7 6741   0.554   4.989   3.524  0.7023 -0.3069  0.3176
   76CHL1   H7A 6742   0.647   5.036   3.563 -1.6145  3.0198  2.3141
   76CHL1   H7B 6743   0.477   5.068   3.524  1.0474  0.0465  1.7184
   76CHL1    C8 6744   0.516   4.879   3.627 -0.2406 -0.5326  0.6676
   76CHL1    H8 6745   0.611   4.827   3.652 -0.8388 -2.1303 -0.2546
   76CHL1   C14 6746   0.462   4.948   3.752  0.1175  0.0694  0.1421
   76CHL1   H14 6747   0.368   4.996   3.717 -0.4455 -1.1595 -0.0816
   76CHL1   C15 6748   0.534   5.062   3.812 -0.5331 -0.1191  0.0148
   76CHL1  H15A 6749   0.637   5.026   3.833  0.7937  2.5716 -1.3950
   76CHL1  H15B 6750   0.554   5.151   3.749 -0.4911 -0.8236 -0.9844
   76CHL1   C16 6751   0.463   5.083   3.947  0.2521 -0.3693  0.0671
   76CHL1  H16A 6752   0.543   5.103   4.022  2.4056  0.2142 -2.2735
   76CHL1  H16B 6753   0.407   5.177   3.929  0.0995  0.1297  2.6603
   76CHL1   C17 6754   0.374   4.959   3.972 -0.4892  0.3104  0.0514
   76CHL1   H17 6755   0.269   4.988   3.947 -0.9086 -0.1046  1.2771
   76CHL1   C13 6756   0.421   4.855   3.866  0.8846 -0.3661 -0.6633
   76CHL1   C18 6757   0.543   4.766   3.908  1.1802  0.7821 -0.5267
   76CHL1  H18A 6758   0.583   4.705   3.824  1.9831 -0.3966  0.6693
   76CHL1  H18B 6759   0.625   4.826   3.951  0.5992  0.9849  0.3180
   76CHL1  H18C 6760   0.518   4.696   3.991 -0.6493 -1.1959 -2.5746
   76CHL1   C12 6761   0.313   4.756   3.808 -0.7826 -0.0113  0.0851
   76CHL1  H12A 6762   0.284   4.675   3.878 -3.4855  1.6913  1.0784
   76CHL1  H12B 6763   0.224   4.823   3.807  0.0492  1.1196 -0.4127
   76CHL1   C11 6764   0.353   4.696   3.674  0.6064  0.7664  0.5604
   76CHL1  H11A 6765   0.428   4.615   3.692  0.8306  0.8923  0.2049
   76CHL1  H11B 6766   0.256   4.661   3.634  0.7586  0.9026  0.0617
   76CHL1    C9 6767   0.409   4.795   3.565 -0.1313  0.0640  0.0753
   76CHL1    H9 6768   0.325   4.861   3.534 -0.3104 -0.2040 -0.0208
   76CHL1   C10 6769   0.449   4.725   3.437 -0.2763 -0.9099  0.1959
   76CHL1   C19 6770   0.535   4.601   3.468  0.3720  0.2935  0.3786
   76CHL1  H19A 6771   0.479   4.509   3.496 -0.4309 -0.1075 -2.2786
   76CHL1  H19B 6772   0.611   4.578   3.391  2.2595  1.8352  1.6735
   76CHL1  H19C 6773   0.601   4.612   3.557 -0.1792  4.8595  0.4466
   76CHL1    C1 6774   0.319   4.674   3.360  0.4759  0.1540  0.2359
   76CHL1   H1A 6775   0.279   4.583   3.411  2.5124 -1.0304 -0.1898
   76CHL1   H1B 6776   0.239   4.752   3.354 -0.3506 -0.7662 -3.1137
   76CHL1    C2 6777   0.342   4.630   3.212  0.0486 -0.0660  0.5159
   76CHL1   H2A 6778   0.241   4.618   3.166  0.9264  1.1893 -1.8823
   76CHL1   H2B 6779   0.393   4.531   3.221 -0.7638 -0.6370 -0.7947
   76CHL1   C20 6780   0.365   4.916   4.119 -0.1207 -0.7910 -0.3374
   76CHL1   H20 6781   0.469   4.887   4.146 -0.0224  0.2347  0.4579
   76CHL1   C21 6782   0.282   4.789   4.137  0.3275 -1.1130  0.6267
   76CHL1  H21A 6783   0.288   4.763   4.244 -0.4693 -0.0368  0.9517
   76CHL1  H21B 6784   0.319   4.710   4.067 -0.4802 -0.0788 -1.0359
   76CHL1  H21C 6785   0.175   4.804   4.111  0.4801 -0.6808  0.2318
   76CHL1   C22 6786   0.335   5.030   4.219  0.4937 -0.2470 -0.3778
   76CHL1  H22A 6787   0.415   5.106   4.235  0.5048 -0.9041  3.6864
   76CHL1  H22B 6788   0.244   5.081   4.182 -0.6593 -0.8764  1.4371
   76CHL1   C23 6789   0.293   4.978   4.358  0.1188 -0.2305  0.1059
   76CHL1  H23A 6790   0.197   4.923   4.355 -0.8924  1.2399  2.5343
   76CHL1  H23B 6791   0.373   4.911   4.396  0.7781  0.7236  0.4378
   76CHL1   C24 6792   0.269   5.094   4.455  0.6163 -0.7172 -0.2966
   76CHL1  H24A 6793   0.344   5.174   4.439 -1.9123  2.1449  1.0830
   76CHL1  H24B 6794   0.173   5.142   4.424  1.9560  1.7828 -0.8325
   76CHL1   C25 6795   0.258   5.055   4.604 -0.0848  0.6013  1.0846
   76CHL1   H25 6796   0.192   4.966   4.607 -0.5023  0.8037 -0.8445
   76CHL1   C26 6797   0.397   5.004   4.655 -0.6576  0.0664 -0.0076
   76CHL1  H26A 6798   0.415   4.900   4.619 -1.4109  0.0703 -0.4171
   76CHL1  H26B 6799   0.481   5.065   4.616  0.2492 -0.8669  0.4266
   76CHL1  H26C 6800   0.395   5.000   4.766 -1.8167 -1.0596 -0.0425
   76CHL1   C27 6801   0.206   5.174   4.684  0.0520  0.3930 -0.6385
   76CHL1  H27A 6802   0.208   5.154   4.793  0.2826  0.1412 -0.6885
   76CHL1  H27B 6803   0.277   5.258   4.673 -0.3260  0.5670 -1.9666
   76CHL1  H27C 6804   0.103   5.203   4.653 -0.4581  1.0107  1.4733
   77SOPE     N 6805   5.589   4.074   6.660 -0.4028 -0.1682 -0.1741
   77SOPE   HN1 6806   5.630   4.047   6.752 -0.9003 -2.2194 -0.5034
   77SOPE   HN2 6807   5.516   4.003   6.639 -2.5414  1.3649  1.5785
   77SOPE   HN3 6808   5.661   4.085   6.586  0.7833  0.4892  1.0369
   77SOPE   C12 6809   5.505   4.197   6.675 -0.5233  0.0055  0.2764
   77SOPE  H12A 6810   5.541   4.255   6.587  2.9752 -2.2653  0.0000
   77SOPE  H12B 6811   5.537   4.255   6.764 -2.4153 -0.0401  1.0202
   77SOPE   C11 6812   5.362   4.154   6.659 -0.2291 -0.1869  0.4578
   77SOPE  H11A 6813   5.361   4.099   6.562  2.5016 -0.7387  0.6693
   77SOPE  H11B 6814   5.294   4.241   6.648  1.5865  1.3047  0.4968
   77SOPE     P 6815   5.263   4.109   6.899 -0.2542  0.0990 -0.2127
   77SOPE   O13 6816   5.373   4.176   6.973 -0.8705 -0.0201  0.6595
   77SOPE   O14 6817   5.190   3.995   6.958 -0.1500  0.3277  0.7561
   77SOPE   O12 6818   5.325   4.053   6.761 -0.7904 -0.4325 -0.0779
   77SOPE   O11 6819   5.158   4.218   6.843  0.5364 -0.0543  0.1603
   77SOPE    C1 6820   5.039   4.163   6.791 -0.2793  0.0652  0.4680
   77SOPE    HA 6821   4.958   4.183   6.864 -1.8105 -3.3678 -0.1083
   77SOPE    HB 6822   5.027   4.054   6.774 -1.5701  0.2743 -0.0851
   77SOPE    C2 6823   5.001   4.226   6.655 -0.2450 -0.6606  0.6197
   77SOPE    HS 6824   5.095   4.232   6.596  0.8699 -0.3803  2.3630
   77SOPE   O21 6825   4.937   4.349   6.672  0.1899 -0.0158 -0.6074
   77SOPE   C21 6826   4.971   4.444   6.582 -0.5552  0.6069 -0.4251
   77SOPE   O22 6827   5.071   4.438   6.511  0.3639  0.8344  0.0246
   77SOPE   C22 6828   4.876   4.559   6.589  0.7392  0.3512 -0.1005
   77SOPE   H2R 6829   4.907   4.602   6.687  1.2513 -1.4174  0.5608
   77SOPE   H2S 6830   4.772   4.521   6.583  0.2660  1.5934  0.0176
   77SOPE    C3 6831   4.919   4.143   6.561  0.1559 -0.3002  0.0147
   77SOPE    HX 6832   4.813   4.162   6.591  0.1338  1.9499 -1.2420
   77SOPE    HY 6833   4.949   4.036   6.561  1.2961  0.0159  0.2970
   77SOPE   O31 6834   4.923   4.204   6.428 -0.4406 -0.5428 -0.6498
   77SOPE   C31 6835   5.016   4.160   6.344  0.5760 -0.0562 -0.0800
   77SOPE   O32 6836   5.099   4.081   6.380 -0.8810 -0.0296 -0.3679
   77SOPE   C32 6837   5.009   4.238   6.217 -0.8237 -0.2881 -0.2205
   77SOPE   H2X 6838   5.044   4.339   6.247 -3.4805  0.1964  1.6484
   77SOPE   H2Y 6839   4.907   4.256   6.177  0.1922 -0.1646 -2.9100
   77SOPE   C23 6840   4.886   4.669   6.482 -0.6564  0.0595 -0.5331
   77SOPE   H3R 6841   4.989   4.711   6.482 -0.4649 -0.2355  2.3331
   77SOPE   H3S 6842   4.822   4.751   6.519  0.9298  1.7825 -1.4452
   77SOPE   C24 6843   4.843   4.625   6.344  0.1434  0.5002  0.2793
   77SOPE   H4R 6844   4.926   4.564   6.304  0.0538  1.2679 -1.1364
   77SOPE   H4S 6845   4.746   4.573   6.362 -0.6671  1.1154 -1.9848
   77SOPE   C25 6846   4.822   4.743   6.250 -0.1760  0.3188 -0.7833
   77SOPE   H5R 6847   4.766   4.823   6.304  0.7863  1.2687 -1.1648
   77SOPE   H5S 6848   4.914   4.803   6.231 -0.2248  0.8406  0.5226
   77SOPE   C26 6849   4.760   4.703   6.113  0.8877  0.1454 -0.3220
   77SOPE   H6R 6850   4.662   4.651   6.111  1.6382 -1.3078 -1.1388
   77SOPE   H6S 6851   4.756   4.790   6.043  1.2059  1.1696  0.9030
   77SOPE   C27 6852   4.867   4.607   6.040 -0.2084 -0.4725  0.5506
   77SOPE   H7R 6853   4.951   4.669   6.001 -0.2971  0.1165  1.2760
   77SOPE   H7S 6854   4.910   4.538   6.115  0.0921 -1.3331 -0.3856
   77SOPE   C28 6855   4.817   4.522   5.917  0.2746 -0.8903 -0.8761
   77SOPE   H8R 6856   4.753   4.438   5.950 -1.6699 -0.0199 -2.1906
   77SOPE   H8S 6857   4.746   4.600   5.880 -0.5448 -0.0786  2.1417
   77SOPE   C29 6858   4.929   4.491   5.827  0.1485 -0.6612  0.2261
   77SOPE   H91 6859   5.028   4.459   5.863  0.9013 -1.1704 -2.0941
   77SOPE  C210 6860   4.922   4.460   5.694 -0.2546 -0.5872 -0.6531
   77SOPE  H101 6861   5.015   4.424   5.645  0.6177 -0.0883  0.5858
   77SOPE  C211 6862   4.794   4.462   5.619  0.1653  0.3152 -0.7924
   77SOPE  H11R 6863   4.708   4.474   5.689  1.8694 -0.3943  1.5731
   77SOPE  H11S 6864   4.795   4.371   5.555  0.6965 -0.0926 -0.2286
   77SOPE  C212 6865   4.761   4.593   5.531  0.4079  0.7148 -0.4002
   77SOPE  H12R 6866   4.860   4.607   5.481 -0.6272  0.5919 -2.6083
   77SOPE  H12S 6867   4.736   4.677   5.598 -0.8977  0.0386 -0.0162
   77SOPE  C213 6868   4.661   4.563   5.422 -0.4000 -0.1198  0.1379
   77SOPE  H13R 6869   4.695   4.484   5.351 -1.3360  1.9077 -2.7890
   77SOPE  H13S 6870   4.640   4.650   5.356 -2.3798 -1.5592 -1.2442
   77SOPE  C214 6871   4.539   4.496   5.482 -0.1252  0.4037 -0.2114
   77SOPE  H14R 6872   4.501   4.567   5.558  0.6995  0.4152  0.1938
   77SOPE  H14S 6873   4.566   4.396   5.521 -0.8356  0.6648  1.0053
   77SOPE  C215 6874   4.431   4.468   5.372  0.3845  0.2815  0.3081
   77SOPE  H15R 6875   4.353   4.409   5.424  2.1588 -3.0322 -0.5288
   77SOPE  H15S 6876   4.492   4.402   5.307  0.5633 -0.2003  0.9628
   77SOPE  C216 6877   4.367   4.590   5.299 -0.0184 -0.3091  0.2360
   77SOPE  H16R 6878   4.447   4.638   5.238  0.1927 -0.8318  0.0969
   77SOPE  H16S 6879   4.346   4.669   5.374  1.7470 -0.0144  0.4696
   77SOPE  C217 6880   4.248   4.553   5.211 -0.1803 -0.3116 -0.2944
   77SOPE  H17R 6881   4.168   4.514   5.277 -1.1105  1.7846 -0.0902
   77SOPE  H17S 6882   4.290   4.473   5.145  1.7578  0.6030 -0.2556
   77SOPE  C218 6883   4.193   4.666   5.133  0.3847  0.1210 -0.3528
   77SOPE  H18R 6884   4.188   4.759   5.193  0.4999 -0.0457 -0.0839
   77SOPE  H18S 6885   4.092   4.649   5.090  0.3991  1.9330 -1.2133
   77SOPE  H18T 6886   4.262   4.690   5.049  0.5384 -1.5204 -0.7218
   77SOPE   C33 6887   5.107   4.177   6.111  0.3272  0.1850  0.3633
   77SOPE   H3X 6888   5.067   4.075   6.094 -0.4100  0.6179 -0.5708
   77SOPE   H3Y 6889   5.215   4.169   6.136  0.5707  0.8245 -0.4565
   77SOPE   C34 6890   5.104   4.257   5.985 -0.1115  0.5929 -0.9317
   77SOPE   H4X 6891   5.156   4.351   6.010  1.3318  0.5850 -3.6008
   77SOPE   H4Y 6892   4.999   4.279   5.956 -0.3461  0.5959 -0.1132
   77SOPE   C35 6893   5.167   4.201   5.855  0.5962 -1.0030 -0.2872
   77SOPE   H5X 6894   5.099   4.226   5.770 -0.0353  0.8246  0.6789
   77SOPE   H5Y 6895   5.174   4.091   5.849 -0.5048 -1.0160 -2.5266
   77SOPE   C36 6896   5.309   4.249   5.834 -0.1210 -0.5157 -0.8982
   77SOPE   H6X 6897   5.375   4.255   5.923 -0.2471 -0.0740 -0.8327
   77SOPE   H6Y 6898   5.300   4.357   5.813 -0.2847 -0.5355 -0.9289
   77SOPE   C37 6899   5.374   4.178   5.718 -0.3105  0.1949 -0.2023
   77SOPE   H7X 6900   5.384   4.069   5.739 -1.2072 -0.0730 -1.0980
   77SOPE   H7Y 6901   5.479   4.206   5.700 -0.1816  0.6963  1.1717
   77SOPE   C38 6902   5.299   4.181   5.587  0.0609 -0.8470  0.3325
   77SOPE   H8X 6903   5.204   4.124   5.599 -0.1523 -0.2809  1.4788
   77SOPE   H8Y 6904   5.363   4.137   5.507 -1.0401  3.4751 -3.2848
   77SOPE   C39 6905   5.272   4.322   5.529 -0.7402 -0.8826  0.4626
   77SOPE   H9X 6906   5.364   4.380   5.510 -2.4241  1.3255 -1.5394
   77SOPE   H9Y 6907   5.231   4.386   5.610 -1.1932 -0.4928 -0.0667
   77SOPE  C310 6908   5.194   4.326   5.396 -0.0459  0.8882  0.3418
   77SOPE  H10X 6909   5.100   4.269   5.411 -1.1267  2.3549 -0.5266
   77SOPE  H10Y 6910   5.251   4.267   5.321  0.9789  2.1838  0.0443
   77SOPE  C311 6911   5.151   4.463   5.342 -0.2623 -0.2065 -0.0608
   77SOPE  H11X 6912   5.225   4.546   5.351 -2.2167  1.7594 -0.9618
   77SOPE  H11Y 6913   5.066   4.490   5.408 -0.5310 -1.0110 -0.0745
   77SOPE  C312 6914   5.113   4.487   5.195 -0.6508 -0.4451  0.5051
   77SOPE  H12X 6915   5.207   4.494   5.135 -1.2385  1.6456 -0.2813
   77SOPE  H12Y 6916   5.068   4.588   5.186 -0.3179 -0.2242  1.2458
   77SOPE  C313 6917   5.020   4.386   5.134  0.2286 -0.3981 -0.5955
   77SOPE  H13X 6918   4.931   4.380   5.201  1.2919 -0.5343  0.8627
   77SOPE  H13Y 6919   5.061   4.282   5.140  0.8962 -0.0750  1.2185
   77SOPE  C314 6920   4.982   4.410   4.990  0.4763  0.1450  0.1382
   77SOPE  H14X 6921   5.065   4.457   4.933 -0.3297  0.7688 -0.5347
   77SOPE  H14Y 6922   4.910   4.495   4.989 -1.2559 -1.2345  1.1456
   77SOPE  C315 6923   4.919   4.295   4.913  0.6103  0.3788  0.6745
   77SOPE  H15X 6924   4.997   4.219   4.891 -0.5272 -1.4328  2.5676
   77SOPE  H15Y 6925   4.892   4.342   4.816 -0.3125 -1.7894 -0.1588
   77SOPE  C316 6926   4.793   4.242   4.975 -0.6110  0.4047  0.4064
   77SOPE  H16X 6927   4.802   4.216   5.083  2.1280 -2.2100 -0.2998
   77SOPE  H16Y 6928   4.750   4.154   4.923 -2.9875  0.3576  2.2845
   77SOPE  C317 6929   4.683   4.350   4.951 -0.0755  0.0299  0.2012
   77SOPE  H17X 6930   4.678   4.362   4.841 -0.9212  1.1189  0.3355
   77SOPE  H17Y 6931   4.710   4.442   5.007 -0.8195 -1.0306  2.4125
   77SOPE  C318 6932   4.542   4.308   5.000 -0.4137  0.3069  0.0385
   77SOPE  H18X 6933   4.534   4.307   5.111 -3.1825  0.9636 -0.0835
   77SOPE  H18Y 6934   4.520   4.203   4.972  0.1729  0.5722 -1.5331
   77SOPE  H18Z 6935   4.460   4.370   4.959 -0.7381  0.6571  1.1896
   78SOPE     N 6936   4.633   3.725   7.503 -0.1450 -0.1691  0.0452
   78SOPE   HN1 6937   4.656   3.624   7.489 -0.4807 -0.0831 -1.2109
   78SOPE   HN2 6938   4.690   3.758   7.583 -1.2937  0.3659  0.6632
   78SOPE   HN3 6939   4.532   3.731   7.528 -0.7184  0.8818 -2.2306
   78SOPE   C12 6940   4.666   3.807   7.382  0.2243 -0.6437 -0.0088
   78SOPE  H12A 6941   4.623   3.907   7.401  0.6314 -0.6391  0.9910
   78SOPE  H12B 6942   4.625   3.758   7.291 -1.6618 -1.8568  1.4125
   78SOPE   C11 6943   4.817   3.818   7.363 -0.4360 -0.1426 -0.3985
   78SOPE  H11A 6944   4.844   3.906   7.426 -0.9876 -0.6438  0.5590
   78SOPE  H11B 6945   4.837   3.859   7.262 -0.5827 -1.2308 -0.8808
   78SOPE     P 6946   4.956   3.599   7.303 -0.2263  0.4765  0.2858
   78SOPE   O13 6947   4.968   3.466   7.357  0.4281  0.1848 -0.0964
   78SOPE   O14 6948   5.082   3.654   7.248  0.3141  0.5861  0.3676
   78SOPE   O12 6949   4.898   3.705   7.406  0.3655 -0.8305  0.4606
   78SOPE   O11 6950   4.855   3.597   7.186  0.8487 -0.4518  0.3254
   78SOPE    C1 6951   4.754   3.504   7.165  0.0685 -0.1089  0.0957
   78SOPE    HA 6952   4.674   3.558   7.112  0.5939  1.1109  0.5199
   78SOPE    HB 6953   4.716   3.471   7.265 -0.4240 -0.9231 -0.3448
   78SOPE    C2 6954   4.800   3.372   7.102  0.3029  0.0009  0.2998
   78SOPE    HS 6955   4.863   3.319   7.176 -0.0912 -1.1510 -0.1737
   78SOPE   O21 6956   4.883   3.400   6.990 -0.0981  0.3260  0.3282
   78SOPE   C21 6957   4.948   3.301   6.929 -0.2672  0.2900 -0.2778
   78SOPE   O22 6958   4.959   3.186   6.967  1.0380 -1.0103  0.3796
   78SOPE   C22 6959   5.033   3.357   6.827 -0.3023 -0.9137  0.2387
   78SOPE   H2R 6960   5.124   3.292   6.824 -0.6804 -1.4153 -0.4942
   78SOPE   H2S 6961   5.052   3.464   6.849 -1.6276 -0.3007 -1.4310
   78SOPE    C3 6962   4.678   3.280   7.061 -0.3144 -0.1132 -0.2445
   78SOPE    HX 6963   4.616   3.262   7.152  0.3128  1.2947  0.5034
   78SOPE    HY 6964   4.725   3.184   7.031 -0.4344  0.4663 -2.4105
   78SOPE   O31 6965   4.596   3.342   6.951 -0.0557  0.7051  0.4287
   78SOPE   C31 6966   4.542   3.262   6.860 -0.1696 -0.0147  0.3897
   78SOPE   O32 6967   4.548   3.140   6.858  0.3082  0.2528  0.0779
   78SOPE   C32 6968   4.455   3.353   6.762 -0.1070 -0.5149  0.2825
   78SOPE   H2X 6969   4.493   3.455   6.786 -2.0982 -0.0771  1.7978
   78SOPE   H2Y 6970   4.349   3.324   6.777 -0.6082 -0.4136 -2.5714
   78SOPE   C23 6971   4.963   3.336   6.694 -0.2354 -0.4616 -0.2912
   78SOPE   H3R 6972   4.870   3.397   6.692  0.4282  0.5621 -1.1648
   78SOPE   H3S 6973   4.933   3.231   6.673 -0.5198 -0.4864  0.2408
   78SOPE   C24 6974   5.050   3.399   6.583  0.2021 -0.3436 -0.0261
   78SOPE   H4R 6975   5.051   3.510   6.593 -0.2337 -0.3250 -0.1443
   78SOPE   H4S 6976   5.156   3.366   6.578  0.3016 -0.3538  1.6642
   78SOPE   C25 6977   4.990   3.383   6.437  0.1247  0.1751 -0.4632
   78SOPE   H5R 6978   5.003   3.275   6.414  0.7759  0.0842  0.2749
   78SOPE   H5S 6979   4.882   3.411   6.448 -0.0694 -0.5434 -0.4766
   78SOPE   C26 6980   5.055   3.465   6.326  0.3600  0.0677 -0.5437
   78SOPE   H6R 6981   5.050   3.573   6.351  0.7699  0.1372 -0.7669
   78SOPE   H6S 6982   5.161   3.432   6.317  0.3352  0.1782 -1.2911
   78SOPE   C27 6983   4.986   3.435   6.192  1.0522 -0.0732 -0.1887
   78SOPE   H7R 6984   4.978   3.326   6.175  0.7956  0.0790 -1.1004
   78SOPE   H7S 6985   4.887   3.482   6.209  1.6316  0.4429  1.9834
   78SOPE   C28 6986   5.042   3.492   6.061  0.4173  0.9909 -1.0365
   78SOPE   H8R 6987   4.969   3.454   5.986 -1.0075  1.1154  0.2506
   78SOPE   H8S 6988   5.043   3.603   6.064  0.7995  1.0176 -1.8568
   78SOPE   C29 6989   5.172   3.429   6.020  0.2384  0.2959  0.1492
   78SOPE   H91 6990   5.253   3.461   6.086 -1.1410  0.6395  1.7418
   78SOPE  C210 6991   5.203   3.352   5.917 -0.8409  0.4109  0.5165
   78SOPE  H101 6992   5.307   3.330   5.889 -0.9607  0.5856 -0.0853
   78SOPE  C211 6993   5.114   3.315   5.803 -0.2755 -0.4675  0.6167
   78SOPE  H11R 6994   5.005   3.318   5.827 -0.4171  1.6289 -0.0858
   78SOPE  H11S 6995   5.138   3.208   5.790  0.1229 -0.2367 -0.6870
   78SOPE  C212 6996   5.135   3.393   5.675 -0.2936 -0.5562  0.0400
   78SOPE  H12R 6997   5.242   3.394   5.646  0.3045  1.2655  2.0433
   78SOPE  H12S 6998   5.091   3.494   5.688  0.2387 -0.2030 -0.8195
   78SOPE  C213 6999   5.058   3.313   5.563 -1.0709 -0.2647  0.3972
   78SOPE  H13R 7000   4.950   3.306   5.586 -2.5083  6.2259 -2.3900
   78SOPE  H13S 7001   5.102   3.211   5.568 -0.6007 -0.0433  0.8776
   78SOPE  C214 7002   5.071   3.371   5.417 -0.0730 -0.0427 -0.3572
   78SOPE  H14R 7003   5.178   3.373   5.388  1.0383 -0.1266  3.2333
   78SOPE  H14S 7004   5.032   3.475   5.416  0.8222  0.4116  2.3431
   78SOPE  C215 7005   5.000   3.297   5.311 -0.5959 -0.4271  0.4936
   78SOPE  H15R 7006   4.899   3.267   5.345 -0.3506 -0.6884  1.0134
   78SOPE  H15S 7007   5.060   3.204   5.297  0.7051  0.4661 -0.0544
   78SOPE  C216 7008   5.001   3.367   5.165  0.3550 -0.6092  0.1209
   78SOPE  H16R 7009   5.104   3.369   5.125  0.7449  0.1223  1.1194
   78SOPE  H16S 7010   4.973   3.473   5.179 -0.3820 -0.6050 -1.2085
   78SOPE  C217 7011   4.916   3.305   5.059  0.4101 -0.2335  0.4259
   78SOPE  H17R 7012   4.812   3.327   5.093 -0.0473  0.4073 -1.2684
   78SOPE  H17S 7013   4.934   3.197   5.048  0.5106 -0.2221  0.4827
   78SOPE  C218 7014   4.955   3.375   4.924 -0.3367 -0.1084 -0.4709
   78SOPE  H18R 7015   5.057   3.344   4.890  0.6142  1.1537  1.0694
   78SOPE  H18S 7016   4.959   3.484   4.946  0.1848  0.0445 -1.2521
   78SOPE  H18T 7017   4.885   3.364   4.838 -0.0412 -1.6234 -0.5321
   78SOPE   C33 7018   4.475   3.323   6.612 -0.2432  0.4247  0.2276
   78SOPE   H3X 7019   4.401   3.376   6.548  0.2795 -0.0954 -0.8193
   78SOPE   H3Y 7020   4.442   3.218   6.598 -1.8488  1.0018 -0.5518
   78SOPE   C34 7021   4.614   3.326   6.550 -0.5741 -0.4245  0.2221
   78SOPE   H4X 7022   4.679   3.247   6.594  0.1545 -0.4584 -0.8755
   78SOPE   H4Y 7023   4.668   3.423   6.560  2.8263 -1.7343 -2.8944
   78SOPE   C35 7024   4.602   3.292   6.401 -0.3944 -0.3113  0.1316
   78SOPE   H5X 7025   4.519   3.220   6.382 -0.8423  0.5844 -1.4134
   78SOPE   H5Y 7026   4.690   3.240   6.358 -2.2209 -2.7453 -0.9577
   78SOPE   C36 7027   4.590   3.415   6.309 -0.5111  1.3638  0.0047
   78SOPE   H6X 7028   4.678   3.481   6.324  1.0561 -0.6982  0.3347
   78SOPE   H6Y 7029   4.501   3.478   6.331 -0.8507  0.3053  1.8083
   78SOPE   C37 7030   4.584   3.380   6.164  0.6066 -0.1067  0.6531
   78SOPE   H7X 7031   4.498   3.312   6.147 -0.0195  0.1594  2.5375
   78SOPE   H7Y 7032   4.672   3.315   6.145  0.9337  0.8281 -1.3077
   78SOPE   C38 7033   4.587   3.505   6.073  0.2663 -0.0544 -0.2701
   78SOPE   H8X 7034   4.690   3.547   6.076  0.0026  0.5205  1.5645
   78SOPE   H8Y 7035   4.521   3.583   6.116  3.6683  1.9417  1.8114
   78SOPE   C39 7036   4.552   3.459   5.928 -0.3551  0.4961 -0.1676
   78SOPE   H9X 7037   4.445   3.432   5.925 -0.2762 -0.6310  3.3635
   78SOPE   H9Y 7038   4.609   3.367   5.905  0.9926  0.3716  3.0811
   78SOPE  C310 7039   4.579   3.573   5.826  0.7931 -0.3860  0.0820
   78SOPE  H10X 7040   4.677   3.620   5.845 -0.2027  0.7698  2.8630
   78SOPE  H10Y 7041   4.498   3.647   5.845  1.2978 -0.1790  1.4996
   78SOPE  C311 7042   4.590   3.516   5.687  0.1337  0.0966 -0.0729
   78SOPE  H11X 7043   4.503   3.452   5.661 -0.3250  0.4680  0.5328
   78SOPE  H11Y 7044   4.684   3.457   5.683  0.1511  0.1380 -0.3145
   78SOPE  C312 7045   4.611   3.617   5.576 -0.4745 -0.1589 -0.5586
   78SOPE  H12X 7046   4.698   3.680   5.604 -0.3965  0.1596 -1.4652
   78SOPE  H12Y 7047   4.520   3.682   5.576 -0.6413 -0.1286 -4.4805
   78SOPE  C313 7048   4.638   3.564   5.433 -0.0694  0.3628 -0.1194
   78SOPE  H13X 7049   4.536   3.539   5.397  0.0496 -0.7349  0.2768
   78SOPE  H13Y 7050   4.711   3.481   5.447  2.1935  2.2670  0.1334
   78SOPE  C314 7051   4.693   3.675   5.341  0.2000  0.1653  0.4187
   78SOPE  H14X 7052   4.763   3.622   5.272 -2.2677 -1.5673 -0.9438
   78SOPE  H14Y 7053   4.754   3.750   5.396  0.7731 -0.1086  0.1638
   78SOPE  C315 7054   4.590   3.736   5.249  0.4033 -0.1422  0.4635
   78SOPE  H15X 7055   4.546   3.654   5.189  2.6341 -0.5375 -0.7372
   78SOPE  H15Y 7056   4.634   3.808   5.176  0.0072  0.3111  0.6646
   78SOPE  C316 7057   4.472   3.802   5.332  0.0666 -0.5709  1.2579
   78SOPE  H16X 7058   4.518   3.869   5.408  1.4314  1.4123 -1.1662
   78SOPE  H16Y 7059   4.410   3.720   5.374 -0.5179 -2.7488 -3.2633
   78SOPE  C317 7060   4.387   3.884   5.233 -0.0111  0.6698  0.0019
   78SOPE  H17X 7061   4.309   3.935   5.293  0.0887 -1.1086  1.7308
   78SOPE  H17Y 7062   4.334   3.820   5.158  0.5011 -0.4964  0.6082
   78SOPE  C318 7063   4.456   3.993   5.146 -0.0309  0.2889 -0.0621
   78SOPE  H18X 7064   4.526   4.048   5.212 -0.0605 -3.6348  3.7417
   78SOPE  H18Y 7065   4.379   4.046   5.087 -0.0852 -0.0562 -0.3026
   78SOPE  H18Z 7066   4.523   3.938   5.076 -0.0042 -0.1100  0.2701
   79SOPE     N 7067   0.073   1.531   7.035 -0.2204  0.3233  0.1089
   79SOPE   HN1 7068   0.103   1.433   7.052 -1.4849 -0.2069 -0.5377
   79SOPE   HN2 7069   0.157   1.589   7.054  0.2701  0.0138 -1.0379
   79SOPE   HN3 7070  -0.005   1.555   7.099 -1.4218 -0.2087 -1.1051
   79SOPE   C12 7071   0.063   1.552   6.883 -0.2554  0.3424 -0.1475
   79SOPE  H12A 7072  -0.046   1.561   6.864 -0.3827 -0.3649  0.2116
   79SOPE  H12B 7073   0.112   1.464   6.836  2.9110  1.4663  0.7778
   79SOPE   C11 7074   0.146   1.670   6.833  0.0406 -1.2208  0.7789
   79SOPE  H11A 7075   0.144   1.689   6.723  3.1942 -0.4450  0.7791
   79SOPE  H11B 7076   0.252   1.645   6.855  0.1979 -0.4932  0.8995
   79SOPE     P 7077  -0.026   1.869   6.855 -0.0176 -0.4678  0.0379
   79SOPE   O13 7078  -0.023   1.993   6.926  0.0865  0.4128 -0.3804
   79SOPE   O14 7079  -0.145   1.781   6.851  0.3048 -0.1579  0.2219
   79SOPE   O12 7080   0.101   1.783   6.905 -0.1137 -0.2775  0.7599
   79SOPE   O11 7081   0.033   1.907   6.714 -0.0670  0.2112  0.2407
   79SOPE    C1 7082   0.149   1.986   6.691  0.7656 -0.4622  0.1294
   79SOPE    HA 7083   0.205   1.939   6.608 -2.3372 -3.3282 -0.5606
   79SOPE    HB 7084   0.221   1.990   6.777  2.1069 -0.8393 -0.9374
   79SOPE    C2 7085   0.109   2.135   6.657 -0.3250  0.2420 -0.2683
   79SOPE    HS 7086   0.027   2.161   6.727 -1.7533 -0.7223 -1.4982
   79SOPE   O21 7087   0.062   2.136   6.519 -0.5471  0.0699 -0.3663
   79SOPE   C21 7088  -0.043   2.211   6.492 -0.1125  0.1508 -0.2988
   79SOPE   O22 7089  -0.105   2.288   6.569 -0.3830  0.6168 -0.3370
   79SOPE   C22 7090  -0.057   2.217   6.340 -0.1905  0.0839 -1.3073
   79SOPE   H2R 7091  -0.056   2.110   6.313 -0.5393  0.0641 -1.2369
   79SOPE   H2S 7092   0.036   2.260   6.297 -1.0397  0.4803 -2.8099
   79SOPE    C3 7093   0.229   2.227   6.680 -0.4816 -0.7308 -0.2447
   79SOPE    HX 7094   0.319   2.199   6.623  0.6413 -0.1528  1.1726
   79SOPE    HY 7095   0.265   2.208   6.783  0.9446 -3.9555 -1.2134
   79SOPE   O31 7096   0.206   2.366   6.654  0.1866  0.2913  0.5320
   79SOPE   C31 7097   0.165   2.439   6.752  0.2825  0.1913 -0.1170
   79SOPE   O32 7098   0.158   2.403   6.869 -0.3971 -0.1349 -0.2844
   79SOPE   C32 7099   0.168   2.589   6.714  0.6278  0.9340  0.2026
   79SOPE   H2X 7100   0.209   2.645   6.801 -0.2990 -0.8845  1.8911
   79SOPE   H2Y 7101   0.066   2.633   6.710  1.2052  2.3360  0.2545
   79SOPE   C23 7102  -0.180   2.291   6.285  0.3117  0.3277  0.3499
   79SOPE   H3R 7103  -0.186   2.401   6.299  0.0924  0.5358 -1.1818
   79SOPE   H3S 7104  -0.271   2.240   6.321  0.7566 -0.6956  0.0558
   79SOPE   C24 7105  -0.181   2.290   6.131 -0.2220  0.7157  0.1929
   79SOPE   H4R 7106  -0.153   2.189   6.094  2.4282  1.5035 -0.1837
   79SOPE   H4S 7107  -0.284   2.319   6.103  0.8309  3.0271 -1.6854
   79SOPE   C25 7108  -0.083   2.395   6.078 -1.0485 -0.3403  0.2266
   79SOPE   H5R 7109  -0.104   2.495   6.121  1.3829  0.7667 -0.9629
   79SOPE   H5S 7110   0.023   2.368   6.093 -1.1809 -1.3566 -0.5381
   79SOPE   C26 7111  -0.111   2.414   5.930 -0.1388 -0.3112 -0.0607
   79SOPE   H6R 7112  -0.222   2.411   5.924 -0.1194  0.2933 -0.8114
   79SOPE   H6S 7113  -0.085   2.520   5.911  0.4589  0.2158  3.1084
   79SOPE   C27 7114  -0.030   2.323   5.843  0.4537  0.1571  0.9069
   79SOPE   H7R 7115   0.076   2.345   5.869  0.3200  2.2341 -0.1364
   79SOPE   H7S 7116  -0.058   2.220   5.876  0.8204 -0.3366 -0.2956
   79SOPE   C28 7117  -0.049   2.357   5.702 -0.6532  0.2325  0.7349
   79SOPE   H8R 7118  -0.150   2.332   5.664 -0.5898  1.8127 -0.5718
   79SOPE   H8S 7119  -0.040   2.467   5.692 -1.5365  0.2682  0.3077
   79SOPE   C29 7120   0.055   2.284   5.613  0.4568 -0.7189 -0.3581
   79SOPE   H91 7121   0.155   2.323   5.635  0.1489  0.0364 -0.2469
   79SOPE  C210 7122   0.036   2.190   5.528  0.6857  0.4261  0.8900
   79SOPE  H101 7123   0.118   2.143   5.473 -1.3484  2.2113 -4.2945
   79SOPE  C211 7124  -0.093   2.129   5.484 -0.3044  0.3406 -0.3521
   79SOPE  H11R 7125  -0.179   2.189   5.521 -1.1395 -0.7198 -0.5227
   79SOPE  H11S 7126  -0.099   2.026   5.526  4.0115 -0.8061 -1.9713
   79SOPE  C212 7127  -0.117   2.125   5.330  0.6981 -0.4847 -0.0914
   79SOPE  H12R 7128  -0.219   2.085   5.311  0.3145  0.1958  0.4908
   79SOPE  H12S 7129  -0.047   2.047   5.292  0.3762 -1.4873  1.3084
   79SOPE  C213 7130  -0.102   2.254   5.254  0.4870  0.0610 -0.1306
   79SOPE  H13R 7131  -0.015   2.309   5.296 -0.3835  0.7336  0.8627
   79SOPE  H13S 7132  -0.188   2.323   5.265 -0.1664 -0.8537  0.7064
   79SOPE  C214 7133  -0.086   2.241   5.100  0.2115  0.7563 -0.2090
   79SOPE  H14R 7134  -0.185   2.222   5.055 -0.6761  0.4738  1.7371
   79SOPE  H14S 7135  -0.029   2.147   5.081 -0.9026 -0.2138  1.0426
   79SOPE  C215 7136  -0.024   2.369   5.041 -0.0485 -0.3592  0.4843
   79SOPE  H15R 7137   0.072   2.387   5.093 -0.4424  2.2393  0.4627
   79SOPE  H15S 7138  -0.086   2.460   5.061 -1.1267 -1.0803  0.4994
   79SOPE  C216 7139   0.007   2.367   4.890 -0.5020  0.4088 -0.1911
   79SOPE  H16R 7140   0.085   2.295   4.859  0.5432  0.8709  1.2639
   79SOPE  H16S 7141   0.046   2.470   4.871  0.4165 -0.1626 -1.5432
   79SOPE  C217 7142  -0.115   2.340   4.805  0.3091  0.2860  0.0557
   79SOPE  H17R 7143  -0.197   2.412   4.825  2.5509  2.9518  0.2002
   79SOPE  H17S 7144  -0.146   2.234   4.821  3.8326 -0.8067  0.5782
   79SOPE  C218 7145  -0.074   2.362   4.659  0.0125  0.6421  0.3259
   79SOPE  H18R 7146   0.016   2.299   4.644  0.2471  1.1690 -0.5160
   79SOPE  H18S 7147  -0.055   2.471   4.655  3.3058  0.1365 -1.4062
   79SOPE  H18T 7148  -0.161   2.337   4.595  0.6601 -0.9505  0.0184
   79SOPE   C33 7149   0.241   2.622   6.579  0.1665  0.2436  0.3753
   79SOPE   H3X 7150   0.207   2.557   6.496 -0.1488 -0.4816  1.0569
   79SOPE   H3Y 7151   0.351   2.604   6.583 -0.1723 -2.0056  0.7092
   79SOPE   C34 7152   0.220   2.771   6.557  0.5367 -0.2944  0.6106
   79SOPE   H4X 7153   0.280   2.814   6.640  0.3849  0.1078  0.5171
   79SOPE   H4Y 7154   0.113   2.792   6.577  0.3070 -2.8974  2.6016
   79SOPE   C35 7155   0.260   2.825   6.418 -0.7433  0.1165 -0.3420
   79SOPE   H5X 7156   0.357   2.779   6.390 -0.9114 -0.4727  0.0282
   79SOPE   H5Y 7157   0.270   2.935   6.426 -1.3753  0.0910  0.9922
   79SOPE   C36 7158   0.174   2.786   6.296 -0.3987  0.0752 -0.2748
   79SOPE   H6X 7159   0.196   2.679   6.273 -0.6241 -0.0788  0.2195
   79SOPE   H6Y 7160   0.217   2.842   6.210 -1.8803 -0.0351 -1.1348
   79SOPE   C37 7161   0.027   2.815   6.309  1.0751  0.1251  0.2791
   79SOPE   H7X 7162   0.004   2.883   6.394 -2.1924 -0.9122  0.3704
   79SOPE   H7Y 7163  -0.036   2.725   6.324  0.1044  0.8985  0.9598
   79SOPE   C38 7164  -0.028   2.882   6.181  0.4975 -0.4066 -0.6621
   79SOPE   H8X 7165   0.029   2.978   6.175  0.2294 -0.3104 -2.0391
   79SOPE   H8Y 7166  -0.134   2.915   6.190 -0.1740 -2.7039  0.4659
   79SOPE   C39 7167  -0.007   2.800   6.053  0.9352 -0.5061 -0.0950
   79SOPE   H9X 7168  -0.110   2.761   6.035  0.1750  2.4915 -3.2143
   79SOPE   H9Y 7169   0.063   2.718   6.081  1.2675 -0.4612 -0.7806
   79SOPE  C310 7170   0.038   2.872   5.925  0.1320 -0.0189  0.1176
   79SOPE  H10X 7171   0.141   2.906   5.951 -0.1287  0.4531  0.5573
   79SOPE  H10Y 7172  -0.031   2.957   5.908 -0.4541 -0.6347 -0.6267
   79SOPE  C311 7173   0.034   2.764   5.814 -0.3453 -0.6424 -0.3079
   79SOPE  H11X 7174  -0.066   2.715   5.810 -0.2228 -0.8062 -2.1021
   79SOPE  H11Y 7175   0.118   2.694   5.834 -0.4273 -0.7389 -0.2991
   79SOPE  C312 7176   0.065   2.824   5.678 -0.4543  0.1642 -0.1782
   79SOPE  H12X 7177   0.163   2.873   5.690 -0.9556  0.5827  3.2746
   79SOPE  H12Y 7178  -0.017   2.898   5.662  0.0633  0.7577 -0.1014
   79SOPE  C313 7179   0.074   2.716   5.579 -0.3808 -0.3101  0.4241
   79SOPE  H13X 7180  -0.024   2.665   5.566  0.6005 -2.3781  0.8617
   79SOPE  H13Y 7181   0.146   2.639   5.614 -3.1591 -2.2920  2.2544
   79SOPE  C314 7182   0.129   2.766   5.443 -0.3489 -0.4608 -0.0143
   79SOPE  H14X 7183   0.224   2.821   5.458 -0.1403  0.0447 -2.7983
   79SOPE  H14Y 7184   0.050   2.843   5.426 -2.1686 -2.1491  0.3650
   79SOPE  C315 7185   0.136   2.660   5.338  0.4983 -0.9935  0.2653
   79SOPE  H15X 7186   0.056   2.584   5.351 -0.2837 -0.4394 -1.0532
   79SOPE  H15Y 7187   0.238   2.615   5.340  2.5697  3.2662  0.6778
   79SOPE  C316 7188   0.113   2.718   5.191 -0.1829 -0.2934 -0.5433
   79SOPE  H16X 7189   0.024   2.786   5.193  1.1248  1.4908  0.9899
   79SOPE  H16Y 7190   0.086   2.637   5.120 -0.4548  0.4827 -1.3589
   79SOPE  C317 7191   0.241   2.792   5.138 -0.3076 -0.4638 -0.3372
   79SOPE  H17X 7192   0.318   2.712   5.133  0.5206  0.2615  0.4406
   79SOPE  H17Y 7193   0.263   2.864   5.220 -1.0551  0.2336 -0.7372
   79SOPE  C318 7194   0.229   2.871   5.004 -0.1459  0.2837 -0.1682
   79SOPE  H18X 7195   0.191   2.798   4.929 -0.7438 -0.3197  0.7006
   79SOPE  H18Y 7196   0.319   2.926   4.971 -0.2117  2.1451  2.4308
   79SOPE  H18Z 7197   0.152   2.951   5.013 -1.0448 -0.6562  0.9218
   80SOPE     N 7198   4.057   5.152   7.401 -0.8266 -0.6558 -0.1334
   80SOPE   HN1 7199   4.093   5.184   7.309  0.1018 -0.3908  0.3133
   80SOPE   HN2 7200   3.960   5.188   7.414 -1.0405 -1.8987  2.3140
   80SOPE   HN3 7201   4.127   5.185   7.469  2.0056 -0.5395 -2.8970
   80SOPE   C12 7202   4.059   5.002   7.391  0.1059  0.2822  0.2283
   80SOPE  H12A 7203   3.986   4.967   7.316 -0.9447  1.0413  0.8759
   80SOPE  H12B 7204   4.046   4.958   7.492 -0.4881 -3.6238 -1.3636
   80SOPE   C11 7205   4.197   4.957   7.339  0.8915  0.2930  0.2021
   80SOPE  H11A 7206   4.182   4.847   7.336  0.2693  0.3950 -0.8745
   80SOPE  H11B 7207   4.279   4.978   7.412 -0.7097 -0.9554  2.5012
   80SOPE     P 7208   4.247   4.919   7.089 -0.1115  0.3557  0.0900
   80SOPE   O13 7209   4.374   4.838   7.100 -0.0842 -0.2876  0.3483
   80SOPE   O14 7210   4.230   5.016   6.979 -0.0214 -0.4705  0.1252
   80SOPE   O12 7211   4.224   5.015   7.212 -0.0656 -0.0259 -0.3404
   80SOPE   O11 7212   4.138   4.810   7.086 -0.1846 -0.3815  0.8903
   80SOPE    C1 7213   4.005   4.824   7.037 -0.6323 -0.1140 -0.6815
   80SOPE    HA 7214   3.974   4.928   7.060 -0.3565 -0.4725  1.5886
   80SOPE    HB 7215   3.950   4.749   7.098  1.2337 -0.5062  0.6099
   80SOPE    C2 7216   3.976   4.771   6.894 -0.3812  0.1298  0.6420
   80SOPE    HS 7217   3.865   4.766   6.892 -0.3450 -1.1497 -2.1941
   80SOPE   O21 7218   4.044   4.645   6.874 -0.4119 -0.1280  0.0587
   80SOPE   C21 7219   3.976   4.543   6.909  0.7036 -0.5312 -0.5859
   80SOPE   O22 7220   3.857   4.551   6.943  0.0520  0.4636 -0.2275
   80SOPE   C22 7221   4.054   4.411   6.890  0.0133 -0.6691  0.1744
   80SOPE   H2R 7222   4.019   4.345   6.973  0.9444 -0.4165  0.7851
   80SOPE   H2S 7223   4.162   4.432   6.905  0.5427 -2.7871 -0.3448
   80SOPE    C3 7224   4.028   4.871   6.789 -0.9997  0.2753  0.2523
   80SOPE    HX 7225   4.139   4.873   6.788 -0.8710 -2.7347 -1.1135
   80SOPE    HY 7226   3.988   4.973   6.811 -1.1912  0.0705  0.9118
   80SOPE   O31 7227   3.974   4.833   6.666 -0.2769 -0.7815  0.3763
   80SOPE   C31 7228   4.053   4.774   6.586  0.2081 -0.0614  1.0450
   80SOPE   O32 7229   4.179   4.765   6.598 -0.1641  0.0345  0.6261
   80SOPE   C32 7230   3.976   4.700   6.480  0.4635 -0.0868 -0.1679
   80SOPE   H2X 7231   3.893   4.767   6.449  1.0781  0.1512 -1.3212
   80SOPE   H2Y 7232   3.944   4.611   6.539 -0.0432  0.6036  0.6354
   80SOPE   C23 7233   4.045   4.349   6.747 -0.3067 -0.5826 -0.7101
   80SOPE   H3R 7234   4.042   4.434   6.675 -2.0348 -0.1040 -0.1323
   80SOPE   H3S 7235   3.945   4.302   6.740 -0.6315 -0.0090 -0.0558
   80SOPE   C24 7236   4.170   4.264   6.713 -0.1048 -0.2232 -0.7339
   80SOPE   H4R 7237   4.259   4.330   6.725  0.6412 -1.4785  1.0770
   80SOPE   H4S 7238   4.181   4.179   6.783 -1.3523 -0.5979 -0.9781
   80SOPE   C25 7239   4.159   4.213   6.569  0.9134  0.2036 -0.3796
   80SOPE   H5R 7240   4.064   4.155   6.560  1.0015 -0.1474  0.7853
   80SOPE   H5S 7241   4.137   4.298   6.501 -3.7640  1.1555  1.9371
   80SOPE   C26 7242   4.287   4.132   6.524 -0.0178  0.2549 -0.0657
   80SOPE   H6R 7243   4.333   4.079   6.610 -0.0018 -0.8607 -0.7461
   80SOPE   H6S 7244   4.253   4.050   6.457 -1.0638 -0.9593  1.8459
   80SOPE   C27 7245   4.387   4.230   6.460 -0.1054  0.5011  0.6000
   80SOPE   H7R 7246   4.329   4.276   6.377 -0.0614 -4.0255 -2.3168
   80SOPE   H7S 7247   4.415   4.320   6.519 -0.2096  1.2052 -0.3943
   80SOPE   C28 7248   4.501   4.151   6.378 -0.2517  0.0631 -0.3631
   80SOPE   H8R 7249   4.555   4.087   6.451  0.0261  0.4057 -0.2644
   80SOPE   H8S 7250   4.451   4.079   6.309 -1.7603  0.9009 -0.1936
   80SOPE   C29 7251   4.585   4.257   6.300  0.3547  0.1935 -0.7405
   80SOPE   H91 7252   4.664   4.301   6.362  0.5936 -0.5153 -0.5341
   80SOPE  C210 7253   4.577   4.293   6.178  0.5097  0.0906  0.2474
   80SOPE  H101 7254   4.649   4.359   6.128 -0.3630  0.4344 -0.5874
   80SOPE  C211 7255   4.475   4.237   6.074 -0.5424 -1.7945  0.6140
   80SOPE  H11R 7256   4.425   4.142   6.104 -0.9367 -1.4500  1.0755
   80SOPE  H11S 7257   4.528   4.214   5.979 -4.1516 -0.1689 -2.0261
   80SOPE  C212 7258   4.353   4.331   6.033 -0.8260  0.2461  0.2676
   80SOPE  H12R 7259   4.296   4.360   6.124 -0.6699 -0.3811  0.5721
   80SOPE  H12S 7260   4.283   4.277   5.967  0.0677 -1.2580  0.4986
   80SOPE  C213 7261   4.402   4.460   5.961  0.4144  0.0089  0.5618
   80SOPE  H13R 7262   4.472   4.428   5.880  0.7023 -0.5509  1.0212
   80SOPE  H13S 7263   4.462   4.522   6.031 -0.9256  0.8942  0.9568
   80SOPE  C214 7264   4.284   4.540   5.910 -0.6693 -0.5557 -0.3731
   80SOPE  H14R 7265   4.318   4.638   5.870  1.1531 -1.8747 -2.1925
   80SOPE  H14S 7266   4.218   4.573   5.993  1.2421  1.7649  0.3550
   80SOPE  C215 7267   4.198   4.470   5.800  0.7133 -0.4331 -0.0523
   80SOPE  H15R 7268   4.135   4.387   5.840  0.6686 -0.3944 -0.0433
   80SOPE  H15S 7269   4.269   4.414   5.735  0.9014  0.6413 -0.7921
   80SOPE  C216 7270   4.117   4.562   5.712 -0.1552  0.2886 -0.0236
   80SOPE  H16R 7271   4.183   4.648   5.689 -1.0125  0.7221 -0.9335
   80SOPE  H16S 7272   4.023   4.594   5.762 -0.0885  1.6903 -0.7332
   80SOPE  C217 7273   4.064   4.492   5.596 -0.3508 -0.4922  0.0319
   80SOPE  H17R 7274   3.997   4.409   5.627 -0.5337 -0.1278  0.6151
   80SOPE  H17S 7275   4.151   4.443   5.547 -0.0689 -1.3446  1.3568
   80SOPE  C218 7276   3.997   4.601   5.499 -0.4291 -0.2839  0.2710
   80SOPE  H18R 7277   3.900   4.634   5.542 -2.2080 -2.1647 -1.9906
   80SOPE  H18S 7278   3.980   4.560   5.397 -0.3731  0.1858  0.0696
   80SOPE  H18T 7279   4.060   4.691   5.486 -1.7001  0.4487 -1.2163
   80SOPE   C33 7280   4.073   4.662   6.368 -0.8582  0.4444 -0.7966
   80SOPE   H3X 7281   4.158   4.602   6.407 -2.4060 -1.1065  0.3614
   80SOPE   H3Y 7282   4.133   4.745   6.325  1.1979 -1.5170 -1.9886
   80SOPE   C34 7283   4.010   4.585   6.250  0.6296 -0.1269  0.3836
   80SOPE   H4X 7284   4.079   4.563   6.166  0.3373 -0.6053  0.2635
   80SOPE   H4Y 7285   3.922   4.641   6.211 -1.4892 -2.1695  1.8920
   80SOPE   C35 7286   3.962   4.450   6.292 -0.0172  0.3558 -0.4342
   80SOPE   H5X 7287   3.901   4.456   6.384 -0.4324  1.0642 -0.7489
   80SOPE   H5Y 7288   4.047   4.383   6.316 -0.3853  0.6158  1.8133
   80SOPE   C36 7289   3.879   4.375   6.177 -0.1765  0.0219 -0.4477
   80SOPE   H6X 7290   3.798   4.435   6.130 -0.1484  0.0764 -0.4271
   80SOPE   H6Y 7291   3.832   4.291   6.231  0.5731  1.8222  3.2854
   80SOPE   C37 7292   3.970   4.330   6.068  0.8355 -0.2868  0.3159
   80SOPE   H7X 7293   4.048   4.270   6.119  1.8698 -1.5644 -2.5684
   80SOPE   H7Y 7294   4.021   4.414   6.017  2.1372 -0.6278  1.0042
   80SOPE   C38 7295   3.894   4.240   5.966 -0.0197  0.3835  0.1413
   80SOPE   H8X 7296   3.819   4.185   6.027 -0.9934  0.7993 -0.6449
   80SOPE   H8Y 7297   3.954   4.165   5.910  2.3964  2.9347 -0.9409
   80SOPE   C39 7298   3.818   4.324   5.862 -0.4909  0.0950 -0.5459
   80SOPE   H9X 7299   3.887   4.402   5.822  0.0319  1.4206  2.6809
   80SOPE   H9Y 7300   3.735   4.372   5.917 -0.2753  1.3716 -1.2887
   80SOPE  C310 7301   3.761   4.242   5.738 -0.1252 -0.3501  0.0516
   80SOPE  H10X 7302   3.679   4.173   5.766  0.2855 -1.5080 -1.4748
   80SOPE  H10Y 7303   3.849   4.185   5.701 -0.5678 -1.9793  1.4384
   80SOPE  C311 7304   3.706   4.323   5.617  0.4363 -0.0925 -0.5631
   80SOPE  H11X 7305   3.791   4.385   5.581 -0.0974  1.4167  0.6881
   80SOPE  H11Y 7306   3.632   4.395   5.658  0.4135 -1.6026  2.2811
   80SOPE  C312 7307   3.642   4.246   5.497  0.0364 -1.2246  0.7753
   80SOPE  H12X 7308   3.600   4.318   5.423  0.2632 -2.5543 -0.7053
   80SOPE  H12Y 7309   3.565   4.173   5.530  0.7127 -1.0904  2.7609
   80SOPE  C313 7310   3.744   4.161   5.413  0.3534 -0.2826  0.7307
   80SOPE  H13X 7311   3.687   4.093   5.346  0.7802  0.8247 -0.8123
   80SOPE  H13Y 7312   3.790   4.093   5.488 -4.3489 -2.0574  2.3996
   80SOPE  C314 7313   3.845   4.239   5.323  0.0867 -0.0387  0.5300
   80SOPE  H14X 7314   3.900   4.312   5.386 -1.7736  0.1827  1.9875
   80SOPE  H14Y 7315   3.791   4.295   5.244  0.9664  1.4634  0.9672
   80SOPE  C315 7316   3.942   4.148   5.244 -1.0103  0.5366  0.5810
   80SOPE  H15X 7317   3.881   4.074   5.188 -1.5692  0.6927  0.9734
   80SOPE  H15Y 7318   4.007   4.093   5.316  2.7740  2.9681 -0.7129
   80SOPE  C316 7319   4.032   4.223   5.146  0.1961  0.5723 -0.1776
   80SOPE  H16X 7320   4.125   4.162   5.151  0.2214  0.6638  4.5742
   80SOPE  H16Y 7321   4.064   4.323   5.180  0.1229  0.6245 -0.2593
   80SOPE  C317 7322   3.973   4.232   5.010  0.0729 -0.3197  0.1831
   80SOPE  H17X 7323   3.878   4.290   5.015  0.8208  0.8568  2.0081
   80SOPE  H17Y 7324   3.942   4.136   4.963  1.5446 -0.0861 -1.3361
   80SOPE  C318 7325   4.067   4.308   4.918 -0.4683 -0.0060 -0.0192
   80SOPE  H18X 7326   4.166   4.259   4.910  0.2540  1.5098 -0.7514
   80SOPE  H18Y 7327   4.079   4.411   4.959 -1.6755  0.1193  0.0610
   80SOPE  H18Z 7328   4.033   4.313   4.813  2.3684 -1.7282 -1.1389
   81SOPE     N 7329   1.574   5.530   7.060 -0.2066  0.0739 -0.0052
   81SOPE   HN1 7330   1.521   5.540   6.971  0.2711  0.5852 -0.2356
   81SOPE   HN2 7331   1.561   5.432   7.093  1.4565  0.4820  2.0807
   81SOPE   HN3 7332   1.538   5.603   7.125  0.8501  0.3018  0.3491
   81SOPE   C12 7333   1.717   5.554   7.026 -0.6132 -0.8343  0.9477
   81SOPE  H12A 7334   1.748   5.486   6.943 -1.3987  0.3468 -0.3532
   81SOPE  H12B 7335   1.783   5.536   7.114 -0.4017 -0.4232  0.8740
   81SOPE   C11 7336   1.737   5.692   6.968  0.6947  0.4109  0.1749
   81SOPE  H11A 7337   1.716   5.774   7.040 -0.3990 -0.8937  1.4238
   81SOPE  H11B 7338   1.669   5.694   6.881  1.8583 -2.6341 -0.9331
   81SOPE     P 7339   1.993   5.741   7.008 -0.0028 -0.1101 -0.3863
   81SOPE   O13 7340   2.121   5.678   6.961 -0.0952  0.8104 -0.0029
   81SOPE   O14 7341   1.967   5.721   7.148 -0.1386 -0.3458 -0.2957
   81SOPE   O12 7342   1.867   5.690   6.922 -0.6669  0.4429 -0.0010
   81SOPE   O11 7343   1.994   5.893   6.976  0.2438 -0.1166 -0.3831
   81SOPE    C1 7344   1.916   5.966   6.885 -0.0266 -0.2491  0.2828
   81SOPE    HA 7345   1.957   6.069   6.888 -1.3684  0.3633 -1.2182
   81SOPE    HB 7346   1.809   5.953   6.910 -0.2767  0.4671 -0.3492
   81SOPE    C2 7347   1.926   5.930   6.736  0.3420 -0.5153 -0.4985
   81SOPE    HS 7348   1.885   5.827   6.744 -0.0928 -0.2594  0.8037
   81SOPE   O21 7349   2.063   5.933   6.688  0.0121 -0.0166 -0.1694
   81SOPE   C21 7350   2.109   5.831   6.628 -0.4118  0.0394  0.6598
   81SOPE   O22 7351   2.039   5.735   6.582 -0.1806 -0.4003 -0.0638
   81SOPE   C22 7352   2.260   5.861   6.602  0.0224  0.7613 -0.1782
   81SOPE   H2R 7353   2.316   5.832   6.693 -0.6263 -0.3386 -0.1056
   81SOPE   H2S 7354   2.260   5.972   6.596  2.1802  0.7946 -0.3572
   81SOPE    C3 7355   1.839   6.008   6.625 -0.2793  0.1593 -0.6086
   81SOPE    HX 7356   1.860   6.117   6.617 -2.4438  0.6060 -0.7528
   81SOPE    HY 7357   1.731   6.003   6.652 -0.6737 -1.8312 -2.3154
   81SOPE   O31 7358   1.853   5.960   6.491 -0.5546 -0.7235  0.5230
   81SOPE   C31 7359   1.797   5.846   6.458 -0.1442  0.4021 -0.2678
   81SOPE   O32 7360   1.727   5.780   6.535 -0.1715  0.1042  0.3034
   81SOPE   C32 7361   1.814   5.811   6.314 -0.1444 -0.4331 -0.2695
   81SOPE   H2X 7362   1.867   5.714   6.304 -2.0864 -1.3274 -2.9101
   81SOPE   H2Y 7363   1.870   5.898   6.272  0.1613  1.1815  3.1112
   81SOPE   C23 7364   2.316   5.785   6.475  0.2216  0.3573 -0.5482
   81SOPE   H3R 7365   2.291   5.677   6.481 -0.2101  0.3555 -1.9136
   81SOPE   H3S 7366   2.427   5.789   6.471  0.2889  1.3984  1.4913
   81SOPE   C24 7367   2.273   5.829   6.336 -0.2545  0.1362 -0.0461
   81SOPE   H4R 7368   2.164   5.824   6.320 -0.4782  0.5873  1.2862
   81SOPE   H4S 7369   2.307   5.935   6.330  0.4294  0.0743  2.0007
   81SOPE   C25 7370   2.333   5.732   6.225  0.7323 -0.1677  0.2848
   81SOPE   H5R 7371   2.443   5.740   6.233  0.7563  0.6931 -0.7287
   81SOPE   H5S 7372   2.299   5.630   6.255  0.4142  0.4401  2.1447
   81SOPE   C26 7373   2.271   5.767   6.087  0.3286  0.5700 -1.3493
   81SOPE   H6R 7374   2.164   5.739   6.080  0.6352 -0.7110 -1.0530
   81SOPE   H6S 7375   2.271   5.874   6.055  0.0989  0.5524 -1.4104
   81SOPE   C27 7376   2.347   5.682   5.979  0.0966 -0.4071 -0.0675
   81SOPE   H7R 7377   2.453   5.699   6.009 -0.1103  0.3887  0.2323
   81SOPE   H7S 7378   2.331   5.573   5.997  0.2147 -0.6167 -1.1821
   81SOPE   C28 7379   2.318   5.731   5.833  0.1281  0.3148 -0.2887
   81SOPE   H8R 7380   2.211   5.727   5.805  0.1106  2.6752 -0.7829
   81SOPE   H8S 7381   2.341   5.839   5.818  0.1363  0.3722  0.1469
   81SOPE   C29 7382   2.397   5.632   5.747  0.0623 -0.6025 -0.0302
   81SOPE   H91 7383   2.377   5.525   5.762 -2.0092 -0.1632  0.7605
   81SOPE  C210 7384   2.475   5.676   5.648 -0.0210 -0.4227 -0.4303
   81SOPE  H101 7385   2.532   5.593   5.603  0.4798  0.4343 -1.4149
   81SOPE  C211 7386   2.504   5.816   5.595  0.1054 -0.0306  0.2048
   81SOPE  H11R 7387   2.603   5.825   5.545  0.0233  3.6897  0.4528
   81SOPE  H11S 7388   2.495   5.888   5.679  0.3931 -1.3930  1.4451
   81SOPE  C212 7389   2.397   5.856   5.490 -0.6029  0.1773 -0.6134
   81SOPE  H12R 7390   2.425   5.960   5.464 -1.2157  0.6755  0.6408
   81SOPE  H12S 7391   2.301   5.869   5.545  0.0216  0.3423  0.4824
   81SOPE  C213 7392   2.392   5.779   5.356 -0.2620 -0.3945  0.5059
   81SOPE  H13R 7393   2.407   5.672   5.384  0.0013 -0.9593 -1.6512
   81SOPE  H13S 7394   2.478   5.824   5.304 -1.2527 -0.5067 -1.3070
   81SOPE  C214 7395   2.266   5.810   5.282 -0.4307  0.2609  0.5583
   81SOPE  H14R 7396   2.264   5.916   5.250 -2.0463 -0.2563 -1.2010
   81SOPE  H14S 7397   2.182   5.771   5.343  0.8329 -2.2696  0.8431
   81SOPE  C215 7398   2.271   5.727   5.147 -0.3851 -0.2793  0.3482
   81SOPE  H15R 7399   2.334   5.790   5.080 -0.2841  0.2829  0.9654
   81SOPE  H15S 7400   2.169   5.748   5.110 -0.2632  0.7109  0.5371
   81SOPE  C216 7401   2.311   5.575   5.156  0.3002  0.1212  0.5128
   81SOPE  H16R 7402   2.245   5.529   5.233  1.8182  0.6149  2.1764
   81SOPE  H16S 7403   2.410   5.568   5.205 -0.3329  0.5963  1.9182
   81SOPE  C217 7404   2.301   5.499   5.027  0.3163  0.1035  0.0756
   81SOPE  H17R 7405   2.194   5.481   5.005 -0.0954  0.2170  1.8181
   81SOPE  H17S 7406   2.345   5.397   5.038  0.5151  0.4136  2.8413
   81SOPE  C218 7407   2.368   5.561   4.902 -0.1240 -0.5789  0.7936
   81SOPE  H18R 7408   2.309   5.649   4.868 -1.2101 -0.9988  1.5574
   81SOPE  H18S 7409   2.378   5.488   4.818  1.6497 -0.6730  1.0383
   81SOPE  H18T 7410   2.467   5.596   4.937 -0.8059  1.8679  0.4634
   81SOPE   C33 7411   1.674   5.785   6.237 -0.5592 -0.7737 -0.6240
   81SOPE   H3X 7412   1.618   5.880   6.245 -2.3388 -1.7283 -1.1152
   81SOPE   H3Y 7413   1.610   5.706   6.282 -1.3590  1.3128  2.1503
   81SOPE   C34 7414   1.705   5.757   6.091 -0.0558 -0.8789 -0.3111
   81SOPE   H4X 7415   1.769   5.665   6.094  1.7765  0.3594  1.4104
   81SOPE   H4Y 7416   1.766   5.842   6.054  1.4266 -2.1187 -0.8448
   81SOPE   C35 7417   1.573   5.731   6.022  1.1271 -0.8552 -0.6359
   81SOPE   H5X 7418   1.496   5.795   6.071  2.6859 -0.2291  1.1462
   81SOPE   H5Y 7419   1.553   5.627   6.055 -2.8205 -0.1353 -0.2568
   81SOPE   C36 7420   1.564   5.726   5.874  0.6024 -0.1266 -0.6132
   81SOPE   H6X 7421   1.643   5.653   5.845 -0.7840 -1.2752 -1.6730
   81SOPE   H6Y 7422   1.581   5.825   5.827 -2.3480  0.6689 -0.1934
   81SOPE   C37 7423   1.431   5.668   5.805  0.0596 -0.1020 -1.2092
   81SOPE   H7X 7424   1.345   5.736   5.823 -0.5109 -0.7430 -1.4448
   81SOPE   H7Y 7425   1.414   5.568   5.850  0.1268  0.9813  1.4184
   81SOPE   C38 7426   1.454   5.662   5.655 -0.4450 -0.1945 -1.1790
   81SOPE   H8X 7427   1.537   5.595   5.626  1.1378  1.3909 -0.5138
   81SOPE   H8Y 7428   1.481   5.764   5.620 -0.4560 -0.1848 -1.1596
   81SOPE   C39 7429   1.322   5.607   5.599 -0.5591  0.1893  0.0937
   81SOPE   H9X 7430   1.235   5.675   5.610 -1.7998 -0.9412 -2.0531
   81SOPE   H9Y 7431   1.297   5.507   5.640  0.1740  0.6132  1.6509
   81SOPE  C310 7432   1.315   5.608   5.441 -0.1521  0.4132 -0.0901
   81SOPE  H10X 7433   1.214   5.644   5.412 -0.7469 -0.9009  0.2741
   81SOPE  H10Y 7434   1.331   5.502   5.408 -0.2728  0.3126  0.1744
   81SOPE  C311 7435   1.431   5.690   5.372  0.3015  0.1758 -0.5866
   81SOPE  H11X 7436   1.531   5.642   5.381  1.2678  1.8303 -1.9329
   81SOPE  H11Y 7437   1.436   5.793   5.413  1.4024 -0.3515  0.6730
   81SOPE  C312 7438   1.417   5.687   5.218  0.1300 -0.7432  0.2630
   81SOPE  H12X 7439   1.392   5.583   5.190  0.0649 -0.8726  0.7899
   81SOPE  H12Y 7440   1.513   5.717   5.172 -0.4142 -0.0320 -0.4309
   81SOPE  C313 7441   1.308   5.784   5.164 -0.1781  0.0438  0.0614
   81SOPE  H13X 7442   1.279   5.850   5.248  1.2007 -0.5035  0.9935
   81SOPE  H13Y 7443   1.219   5.726   5.131  0.1699  0.3570 -1.5337
   81SOPE  C314 7444   1.361   5.864   5.053  1.3602 -0.4513  0.7838
   81SOPE  H14X 7445   1.391   5.793   4.973  1.9961  0.2931  0.3441
   81SOPE  H14Y 7446   1.449   5.921   5.090  0.3923  1.8492 -0.2499
   81SOPE  C315 7447   1.266   5.969   4.994 -0.1342  0.3271 -0.4883
   81SOPE  H15X 7448   1.243   6.049   5.066 -0.5715 -0.3078  0.0890
   81SOPE  H15Y 7449   1.167   5.925   4.970 -0.7536  1.1114  0.5568
   81SOPE  C316 7450   1.327   6.037   4.872 -0.5908 -0.3569 -0.2207
   81SOPE  H16X 7451   1.331   5.964   4.789  0.0335 -0.9365  0.3048
   81SOPE  H16Y 7452   1.432   6.071   4.886 -0.2661 -1.3995 -0.0371
   81SOPE  C317 7453   1.240   6.159   4.824 -0.5366 -0.0869 -0.7037
   81SOPE  H17X 7454   1.134   6.126   4.822 -0.7464  0.2303  2.0871
   81SOPE  H17Y 7455   1.282   6.197   4.729  1.4299 -0.3264  0.0167
   81SOPE  C318 7456   1.266   6.276   4.918  0.1081  0.2269  0.2025
   81SOPE  H18X 7457   1.172   6.335   4.922  0.4355  0.7537  0.2969
   81SOPE  H18Y 7458   1.344   6.344   4.878 -1.6964  1.5341 -1.2732
   81SOPE  H18Z 7459   1.287   6.253   5.025 -0.0262 -2.2442 -0.2463
   82SOPE     N 7460   2.920   1.783   7.756  0.7060  0.2371  0.1817
   82SOPE   HN1 7461   2.969   1.720   7.822  0.3005  0.5874  0.8349
   82SOPE   HN2 7462   2.921   1.738   7.662 -0.8303 -1.5066  0.9425
   82SOPE   HN3 7463   2.961   1.879   7.762  2.0747 -0.1066 -2.3217
   82SOPE   C12 7464   2.775   1.809   7.804 -0.7654  0.5619 -0.4537
   82SOPE  H12A 7465   2.785   1.827   7.913  2.1976 -0.4326 -0.4834
   82SOPE  H12B 7466   2.712   1.721   7.780 -2.3223  1.9071 -1.5254
   82SOPE   C11 7467   2.721   1.932   7.719 -0.4488 -0.0355 -0.6097
   82SOPE  H11A 7468   2.782   2.023   7.739  1.9164 -1.3024 -1.6041
   82SOPE  H11B 7469   2.620   1.935   7.764 -1.5207 -1.2582 -2.7816
   82SOPE     P 7470   2.572   1.870   7.519 -0.0133 -0.3375  0.1376
   82SOPE   O13 7471   2.465   1.943   7.591 -0.3778  0.0875  0.0130
   82SOPE   O14 7472   2.554   1.726   7.518  0.2904  0.6698  0.5614
   82SOPE   O12 7473   2.708   1.911   7.580 -0.2262 -0.4700  0.3800
   82SOPE   O11 7474   2.572   1.919   7.369  0.2682 -0.3826 -0.3830
   82SOPE    C1 7475   2.660   1.865   7.272 -0.4410  0.9561  0.7029
   82SOPE    HA 7476   2.625   1.765   7.238 -0.5310  0.7484  1.3992
   82SOPE    HB 7477   2.762   1.855   7.316  1.2442  0.8336 -2.8668
   82SOPE    C2 7478   2.670   1.938   7.141  0.0509  0.1122 -0.2611
   82SOPE    HS 7479   2.729   2.030   7.161  1.4199 -0.1473 -2.7423
   82SOPE   O21 7480   2.540   1.961   7.081  0.3623 -0.4825 -0.2032
   82SOPE   C21 7481   2.535   2.076   7.025  0.1620 -0.2234 -0.4888
   82SOPE   O22 7482   2.625   2.162   7.011 -0.2114  0.7116 -0.7900
   82SOPE   C22 7483   2.400   2.097   6.971 -0.1042  0.3981  0.2178
   82SOPE   H2R 7484   2.397   2.186   6.904  0.7286 -0.3524 -0.8515
   82SOPE   H2S 7485   2.325   2.115   7.051 -0.4212 -0.7721  0.1948
   82SOPE    C3 7486   2.745   1.848   7.040 -0.0692  1.1122  0.2199
   82SOPE    HX 7487   2.683   1.758   7.019  1.3291  0.6513 -2.3872
   82SOPE    HY 7488   2.842   1.817   7.084  0.2658  3.1175  1.0133
   82SOPE   O31 7489   2.760   1.910   6.915 -0.0180 -0.4898  0.7153
   82SOPE   C31 7490   2.857   1.994   6.896 -0.7298  0.1973  0.2642
   82SOPE   O32 7491   2.960   2.007   6.956 -0.1998 -0.3629 -0.5938
   82SOPE   C32 7492   2.831   2.059   6.762 -1.0713 -0.8815  0.2143
   82SOPE   H2X 7493   2.743   2.125   6.774  0.1740  0.9194 -0.1476
   82SOPE   H2Y 7494   2.809   1.980   6.687 -1.8206 -1.5590  1.1191
   82SOPE   C23 7495   2.339   1.983   6.894 -0.2855 -0.5211  0.5114
   82SOPE   H3R 7496   2.235   2.002   6.860  0.5166  2.0483 -0.8346
   82SOPE   H3S 7497   2.340   1.888   6.951  2.0256 -0.5535  0.5107
   82SOPE   C24 7498   2.435   1.960   6.772  0.6770  0.4393 -0.7864
   82SOPE   H4R 7499   2.530   1.920   6.813  0.5093  0.3494 -0.4894
   82SOPE   H4S 7500   2.393   1.881   6.707 -0.4452  0.3567  0.0197
   82SOPE   C25 7501   2.459   2.083   6.687 -0.2529  0.6609  0.6022
   82SOPE   H5R 7502   2.370   2.149   6.683 -2.5293 -2.2727 -0.7116
   82SOPE   H5S 7503   2.537   2.148   6.733 -1.4908  2.3111  0.4797
   82SOPE   C26 7504   2.496   2.067   6.540 -0.4244  0.7047  0.5832
   82SOPE   H6R 7505   2.602   2.033   6.541 -0.4227  0.7106  0.7927
   82SOPE   H6S 7506   2.426   1.987   6.507 -3.2854  4.0946 -2.2791
   82SOPE   C27 7507   2.493   2.187   6.453  0.2285 -0.1640 -0.1299
   82SOPE   H7R 7508   2.394   2.235   6.471 -0.4351 -1.0731 -1.2388
   82SOPE   H7S 7509   2.570   2.261   6.485  0.4459  0.5989 -2.2691
   82SOPE   C28 7510   2.495   2.168   6.300 -0.9300  1.3676 -1.0508
   82SOPE   H8R 7511   2.601   2.144   6.274 -1.0220 -2.5094  1.4333
   82SOPE   H8S 7512   2.445   2.070   6.289  0.0997  0.9033 -1.8498
   82SOPE   C29 7513   2.443   2.284   6.216 -0.0713  0.6680 -0.9147
   82SOPE   H91 7514   2.357   2.342   6.253 -0.4974  0.2246 -1.1807
   82SOPE  C210 7515   2.493   2.315   6.098  0.0985  0.2093  0.5144
   82SOPE  H101 7516   2.450   2.401   6.045 -2.2011 -0.3497  1.3747
   82SOPE  C211 7517   2.609   2.242   6.023  0.1577 -0.4653  0.1593
   82SOPE  H11R 7518   2.605   2.132   6.038  1.4113 -0.5398 -0.0055
   82SOPE  H11S 7519   2.709   2.282   6.050  0.9041 -0.7604 -1.9828
   82SOPE  C212 7520   2.610   2.266   5.873  0.1580  0.6998 -0.1323
   82SOPE  H12R 7521   2.707   2.224   5.837  0.0620 -1.3002  1.7150
   82SOPE  H12S 7522   2.609   2.376   5.857 -1.6901  1.1957  2.7188
   82SOPE  C213 7523   2.512   2.190   5.780 -0.5409  0.1552 -0.3647
   82SOPE  H13R 7524   2.407   2.200   5.817 -0.2123  1.2580  0.3100
   82SOPE  H13S 7525   2.530   2.082   5.802 -2.1205  0.2400  1.7345
   82SOPE  C214 7526   2.523   2.231   5.635 -0.0272  0.4438  0.3559
   82SOPE  H14R 7527   2.505   2.339   5.618 -0.6092  0.6866  2.3249
   82SOPE  H14S 7528   2.444   2.176   5.579 -1.0314  0.5602  1.6368
   82SOPE  C215 7529   2.662   2.197   5.572  0.1485 -0.5737 -0.5217
   82SOPE  H15R 7530   2.696   2.097   5.603  1.3446  0.1350  0.5314
   82SOPE  H15S 7531   2.733   2.269   5.617 -1.3924 -0.2312  1.5005
   82SOPE  C216 7532   2.669   2.200   5.421 -0.4361 -0.8204 -0.6143
   82SOPE  H16R 7533   2.774   2.204   5.385  0.1432  1.2386  1.1142
   82SOPE  H16S 7534   2.626   2.297   5.387 -0.5799 -1.0895 -1.2094
   82SOPE  C217 7535   2.615   2.086   5.337  0.3833 -0.0002 -0.4285
   82SOPE  H17R 7536   2.507   2.075   5.359  0.7461 -1.4252  0.7781
   82SOPE  H17S 7537   2.657   1.991   5.375 -1.6107 -0.3118  1.1853
   82SOPE  C218 7538   2.648   2.101   5.185 -0.0142 -0.5084  0.9349
   82SOPE  H18R 7539   2.754   2.076   5.164 -0.1628 -1.2738  1.0809
   82SOPE  H18S 7540   2.628   2.206   5.153  1.9253 -0.0751  0.9976
   82SOPE  H18T 7541   2.584   2.035   5.124  0.8188 -0.6835  0.2312
   82SOPE   C33 7542   2.948   2.145   6.727  0.9340 -0.0488 -0.6598
   82SOPE   H3X 7543   3.026   2.068   6.707 -0.3088 -0.8352 -2.8931
   82SOPE   H3Y 7544   2.976   2.214   6.809  2.1559  0.6306 -1.6029
   82SOPE   C34 7545   2.913   2.233   6.603 -0.0908 -0.1257 -0.7045
   82SOPE   H4X 7546   3.002   2.295   6.579 -1.1586  1.0813 -1.7010
   82SOPE   H4Y 7547   2.832   2.309   6.604 -1.6166 -1.6435 -1.8553
   82SOPE   C35 7548   2.889   2.142   6.481 -0.3185  0.0712 -1.0832
   82SOPE   H5X 7549   2.801   2.074   6.485 -1.0375  1.0296  0.4054
   82SOPE   H5Y 7550   2.973   2.070   6.472 -1.4730 -1.0412 -4.4882
   82SOPE   C36 7551   2.910   2.221   6.351  0.5691  0.5625  0.6035
   82SOPE   H6X 7552   2.998   2.288   6.357 -1.8267  3.8114  2.9744
   82SOPE   H6Y 7553   2.822   2.288   6.339 -0.2172 -0.4676  0.5234
   82SOPE   C37 7554   2.930   2.132   6.229 -0.2352 -0.3509  0.0975
   82SOPE   H7X 7555   2.828   2.093   6.211  0.1629 -1.3088 -0.1582
   82SOPE   H7Y 7556   2.996   2.047   6.258  0.6779  0.4829  0.5168
   82SOPE   C38 7557   2.992   2.195   6.108 -0.2919 -0.1084  0.7495
   82SOPE   H8X 7558   3.100   2.219   6.117  0.2006 -1.3827 -1.1174
   82SOPE   H8Y 7559   2.945   2.292   6.083  1.3098  0.5816  0.2425
   82SOPE   C39 7560   2.974   2.098   5.986  0.1734  0.4328  0.1872
   82SOPE   H9X 7561   2.864   2.089   5.976 -0.0873  1.7313  1.5157
   82SOPE   H9Y 7562   3.018   1.999   6.010 -0.5792 -1.1958 -4.2977
   82SOPE  C310 7563   3.041   2.142   5.854 -0.4452  0.4588 -0.2690
   82SOPE  H10X 7564   3.151   2.144   5.865 -0.3799 -1.1455 -0.4248
   82SOPE  H10Y 7565   3.005   2.247   5.848  0.7165  1.3185  4.0627
   82SOPE  C311 7566   2.987   2.068   5.732 -0.8504  0.4175  0.3884
   82SOPE  H11X 7567   2.878   2.047   5.737 -0.4255 -3.6724 -2.1314
   82SOPE  H11Y 7568   3.022   1.962   5.732 -2.3783 -0.1244  1.9100
   82SOPE  C312 7569   3.026   2.148   5.606 -0.3069  0.4107 -0.8984
   82SOPE  H12X 7570   3.133   2.177   5.619 -0.8147  1.2983  1.9525
   82SOPE  H12Y 7571   2.964   2.240   5.595 -1.4897  0.1636  2.6494
   82SOPE  C313 7572   2.998   2.065   5.485  0.1670  0.0899 -1.0751
   82SOPE  H13X 7573   2.889   2.060   5.464  0.1991 -2.0901 -0.9488
   82SOPE  H13Y 7574   3.023   1.958   5.500  1.1026  0.4730  0.1836
   82SOPE  C314 7575   3.073   2.114   5.366  0.1831  0.4720  0.5254
   82SOPE  H14X 7576   3.180   2.114   5.397 -0.1185 -0.0625  1.6203
   82SOPE  H14Y 7577   3.049   2.221   5.348  0.7344  0.2544 -1.7764
   82SOPE  C315 7578   3.041   2.043   5.233  0.6419 -0.2394 -0.6585
   82SOPE  H15X 7579   3.080   2.097   5.144 -2.0623 -0.9016 -2.3856
   82SOPE  H15Y 7580   2.930   2.054   5.224  0.9073  3.0344 -1.2941
   82SOPE  C316 7581   3.085   1.897   5.220  0.3236 -0.5364 -0.5613
   82SOPE  H16X 7582   3.036   1.826   5.290  0.4218  1.1130  1.2744
   82SOPE  H16Y 7583   3.193   1.902   5.246  0.5988  0.2476 -1.7855
   82SOPE  C317 7584   3.067   1.860   5.080  0.3602 -0.4689  0.5933
   82SOPE  H17X 7585   3.124   1.767   5.057  0.6249  0.2175 -1.7501
   82SOPE  H17Y 7586   3.109   1.943   5.020 -0.0342 -0.9570 -0.3738
   82SOPE  C318 7587   2.920   1.832   5.037  0.0145  0.0495  0.2057
   82SOPE  H18X 7588   2.883   1.744   5.095 -0.0676 -0.7755 -1.0641
   82SOPE  H18Y 7589   2.909   1.839   4.927  1.8078  0.2162  0.0015
   82SOPE  H18Z 7590   2.861   1.919   5.071 -0.0618 -0.6777  2.0605
   83SOPE     N 7591   2.296   2.858   2.727 -0.6308  0.0116 -0.2971
   83SOPE   HN1 7592   2.234   2.885   2.647  0.3443 -3.9320 -2.6711
   83SOPE   HN2 7593   2.391   2.899   2.719  0.3151 -1.9120  0.5417
   83SOPE   HN3 7594   2.316   2.756   2.719  0.7093  0.3240 -1.3014
   83SOPE   C12 7595   2.228   2.896   2.853  0.0846  0.3864 -0.5805
   83SOPE  H12A 7596   2.138   2.951   2.818 -0.1475  1.1573  1.1081
   83SOPE  H12B 7597   2.300   2.962   2.906  0.9714 -0.0845 -1.1640
   83SOPE   C11 7598   2.197   2.773   2.947 -0.6690  0.2182  0.0324
   83SOPE  H11A 7599   2.152   2.813   3.041  0.4863  0.2367  0.5895
   83SOPE  H11B 7600   2.293   2.724   2.973 -1.0216 -0.8610 -0.6458
   83SOPE     P 7601   2.050   2.559   2.954 -0.0475  0.0871 -0.2904
   83SOPE   O13 7602   2.077   2.434   2.875 -0.2090  0.2988 -0.1694
   83SOPE   O14 7603   1.903   2.587   2.978  0.3974  0.0052  0.0987
   83SOPE   O12 7604   2.123   2.673   2.873  0.0728 -0.5298  0.1123
   83SOPE   O11 7605   2.131   2.563   3.090  0.1839  0.6392 -0.0406
   83SOPE    C1 7606   2.234   2.468   3.115 -0.0693 -0.5930  0.2240
   83SOPE    HA 7607   2.327   2.508   3.069  1.2967 -2.0010  1.6280
   83SOPE    HB 7608   2.217   2.367   3.070 -0.6837 -1.8302  3.0179
   83SOPE    C2 7609   2.244   2.462   3.269 -0.6791 -0.5674 -0.0967
   83SOPE    HS 7610   2.333   2.399   3.292  0.2342 -0.6504 -3.3954
   83SOPE   O21 7611   2.126   2.412   3.326  0.6786  0.0532  0.1668
   83SOPE   C21 7612   2.081   2.295   3.289 -0.1799 -0.6125  0.0213
   83SOPE   O22 7613   2.146   2.217   3.219  0.3981 -0.4222 -0.3036
   83SOPE   C22 7614   1.932   2.285   3.327 -0.6052  0.0801  0.0387
   83SOPE   H2R 7615   1.876   2.221   3.255 -0.1524  0.0344 -0.2748
   83SOPE   H2S 7616   1.898   2.389   3.309 -0.8231 -0.2749 -1.8118
   83SOPE    C3 7617   2.283   2.600   3.333  0.5161 -0.0967 -0.1182
   83SOPE    HX 7618   2.208   2.668   3.286 -0.6939 -1.9469 -0.9827
   83SOPE    HY 7619   2.381   2.639   3.297  1.6773 -1.3764  1.5185
   83SOPE   O31 7620   2.288   2.610   3.473  0.3220  0.5111 -0.0583
   83SOPE   C31 7621   2.182   2.662   3.540  0.1769  0.2646 -0.4485
   83SOPE   O32 7622   2.079   2.700   3.487 -0.0333  0.5572  0.1977
   83SOPE   C32 7623   2.220   2.670   3.689  0.5230 -0.0503  0.0476
   83SOPE   H2X 7624   2.322   2.713   3.701  0.6681 -0.6085  0.9111
   83SOPE   H2Y 7625   2.232   2.563   3.718 -1.2361 -1.2450 -3.2006
   83SOPE   C23 7626   1.909   2.222   3.473 -0.7537 -0.7638  0.4818
   83SOPE   H3R 7627   1.948   2.119   3.463 -0.1611 -0.8049  2.5420
   83SOPE   H3S 7628   1.802   2.206   3.495 -0.7724 -1.6078 -0.1892
   83SOPE   C24 7629   1.968   2.299   3.587  1.2763 -0.0226 -0.5647
   83SOPE   H4R 7630   2.046   2.374   3.565  1.8286 -0.6254 -0.6882
   83SOPE   H4S 7631   1.888   2.365   3.627 -0.7364 -2.5126 -0.1845
   83SOPE   C25 7632   2.003   2.205   3.709 -0.5511 -0.4417  0.4243
   83SOPE   H5R 7633   1.920   2.135   3.731 -0.6436 -0.5418 -0.2177
   83SOPE   H5S 7634   2.085   2.142   3.670  0.1271  0.5187  0.2534
   83SOPE   C26 7635   2.043   2.280   3.831  0.5493  0.1768  0.2426
   83SOPE   H6R 7636   2.135   2.333   3.799 -0.7257  2.4109  0.0897
   83SOPE   H6S 7637   1.968   2.359   3.854  1.5053  0.9905  0.6652
   83SOPE   C27 7638   2.082   2.176   3.941  0.3517 -0.1564  0.0037
   83SOPE   H7R 7639   2.002   2.103   3.968  2.4977 -2.4135  0.6668
   83SOPE   H7S 7640   2.176   2.130   3.904 -0.6557 -1.7158 -0.7066
   83SOPE   C28 7641   2.125   2.256   4.069  0.1974 -0.2986 -0.6859
   83SOPE   H8R 7642   2.210   2.205   4.120 -2.2720 -2.7133  1.3369
   83SOPE   H8S 7643   2.155   2.355   4.030 -1.1305  0.2196 -0.4359
   83SOPE   C29 7644   2.003   2.291   4.158 -0.2278  0.2006 -0.3020
   83SOPE   H91 7645   1.935   2.369   4.119 -1.5000 -1.9042 -2.6253
   83SOPE  C210 7646   1.987   2.222   4.274 -0.5978  1.2624  0.4714
   83SOPE  H101 7647   1.895   2.251   4.328 -0.3566  0.5387  1.2947
   83SOPE  C211 7648   2.073   2.120   4.343 -0.2377 -0.4292  0.5227
   83SOPE  H11R 7649   2.177   2.159   4.335 -0.1271 -1.0923 -2.3272
   83SOPE  H11S 7650   2.067   2.028   4.280  0.7373 -1.2758  1.6307
   83SOPE  C212 7651   2.041   2.087   4.491 -0.2715 -0.3989  0.0146
   83SOPE  H12R 7652   2.041   2.173   4.562 -2.0556 -0.0120 -0.3965
   83SOPE  H12S 7653   2.115   2.011   4.522  0.2533 -0.5414 -1.5048
   83SOPE  C213 7654   1.897   2.026   4.490  0.3288 -0.3933  0.0447
   83SOPE  H13R 7655   1.888   1.932   4.433 -0.6695 -0.4651  0.2992
   83SOPE  H13S 7656   1.835   2.109   4.449  2.0405  1.8788  1.7717
   83SOPE  C214 7657   1.853   1.995   4.635  0.2915 -0.2243  0.5076
   83SOPE  H14R 7658   1.748   2.025   4.652  0.8035  2.1912 -0.2906
   83SOPE  H14S 7659   1.918   2.050   4.706  3.9952 -3.6174  0.1321
   83SOPE  C215 7660   1.879   1.846   4.676 -0.2870  0.0478  0.3180
   83SOPE  H15R 7661   1.865   1.765   4.601  1.1251 -1.4874  1.6423
   83SOPE  H15S 7662   1.821   1.826   4.768  0.7105  2.1295  1.4729
   83SOPE  C216 7663   2.030   1.834   4.719  0.3189  0.1980  0.1414
   83SOPE  H16R 7664   2.070   1.924   4.770  0.9949  0.8981 -1.5883
   83SOPE  H16S 7665   2.096   1.819   4.631  0.6418 -0.4129  0.4790
   83SOPE  C217 7666   2.056   1.727   4.819  0.2182 -0.4384  0.7062
   83SOPE  H17R 7667   2.006   1.751   4.915 -0.4284 -2.1684  0.8392
   83SOPE  H17S 7668   2.166   1.733   4.827  0.2352  0.0970  0.1460
   83SOPE  C218 7669   2.011   1.580   4.793  0.6712 -0.6804 -0.1747
   83SOPE  H18R 7670   2.050   1.510   4.870  1.1644  0.3095  0.4989
   83SOPE  H18S 7671   2.038   1.546   4.691  0.9365  0.7686 -0.6091
   83SOPE  H18T 7672   1.901   1.569   4.789  0.2195  2.1060  1.7889
   83SOPE   C33 7673   2.121   2.748   3.771  0.1626  0.6422 -0.2498
   83SOPE   H3X 7674   2.023   2.695   3.774 -0.1779  1.2678 -0.0261
   83SOPE   H3Y 7675   2.096   2.849   3.732  0.3531  1.4110  1.5277
   83SOPE   C34 7676   2.166   2.779   3.914  0.0824 -1.0897  0.6562
   83SOPE   H4X 7677   2.095   2.860   3.941  0.1444 -0.1155 -1.8343
   83SOPE   H4Y 7678   2.266   2.828   3.910 -0.5896  0.2835 -0.8576
   83SOPE   C35 7679   2.174   2.660   4.007  0.7819  0.1389  0.1202
   83SOPE   H5X 7680   2.269   2.606   3.987  0.4718 -0.4755  0.2850
   83SOPE   H5Y 7681   2.091   2.586   4.001  1.6419 -0.7198 -3.8270
   83SOPE   C36 7682   2.186   2.714   4.153  0.8825  0.0121 -0.6260
   83SOPE   H6X 7683   2.099   2.782   4.169 -0.1313 -2.0270  5.0938
   83SOPE   H6Y 7684   2.283   2.756   4.186  0.7975  0.3502 -0.8061
   83SOPE   C37 7685   2.150   2.592   4.240 -0.3956 -0.2685 -0.2529
   83SOPE   H7X 7686   2.199   2.508   4.187 -0.9449  1.1672 -3.2921
   83SOPE   H7Y 7687   2.042   2.571   4.225 -0.2802 -1.4819  0.5005
   83SOPE   C38 7688   2.185   2.596   4.388  0.9825 -0.1427  0.0404
   83SOPE   H8X 7689   2.197   2.704   4.412  0.8578 -0.1444  0.1069
   83SOPE   H8Y 7690   2.287   2.555   4.409  0.2780 -0.7343  2.6163
   83SOPE   C39 7691   2.082   2.539   4.493 -0.5830 -0.2811 -0.2499
   83SOPE   H9X 7692   2.118   2.557   4.597 -1.7740  1.1296 -0.0593
   83SOPE   H9Y 7693   2.058   2.432   4.472 -0.2626 -0.2693 -0.7025
   83SOPE  C310 7694   1.951   2.619   4.491 -0.0787 -0.4335  0.3956
   83SOPE  H10X 7695   1.917   2.587   4.390 -0.0642  1.7385 -0.3609
   83SOPE  H10Y 7696   1.955   2.730   4.483 -0.7750 -0.4817 -0.8890
   83SOPE  C311 7697   1.864   2.597   4.613  0.3214  0.3026  0.6246
   83SOPE  H11X 7698   1.885   2.497   4.656 -0.6063 -0.7451 -1.2186
   83SOPE  H11Y 7699   1.759   2.593   4.577  0.6334 -0.7807 -0.2087
   83SOPE  C312 7700   1.883   2.703   4.726 -0.1326  0.7007  0.4379
   83SOPE  H12X 7701   1.856   2.804   4.688  0.0016  1.1043  1.3784
   83SOPE  H12Y 7702   1.992   2.705   4.746 -0.1629  1.5134  0.5668
   83SOPE  C313 7703   1.794   2.674   4.851  0.1255  0.0914 -0.4670
   83SOPE  H13X 7704   1.825   2.573   4.883  0.8280  0.7504  1.0220
   83SOPE  H13Y 7705   1.684   2.676   4.831  0.2476 -0.5518 -1.2563
   83SOPE  C314 7706   1.812   2.783   4.961  0.1477  0.6151 -0.0935
   83SOPE  H14X 7707   1.783   2.882   4.920  2.8666  0.4735 -2.6601
   83SOPE  H14Y 7708   1.920   2.796   4.980  0.3027 -0.2893 -0.3263
   83SOPE  C315 7709   1.741   2.746   5.092 -0.7249 -0.0579 -0.6030
   83SOPE  H15X 7710   1.792   2.657   5.136 -0.9689  0.7393  1.3919
   83SOPE  H15Y 7711   1.634   2.727   5.068 -0.6025  0.7837 -1.8796
   83SOPE  C316 7712   1.742   2.857   5.197 -0.5786 -0.1305  0.2646
   83SOPE  H16X 7713   1.688   2.937   5.140  1.8116 -0.5692 -2.8789
   83SOPE  H16Y 7714   1.846   2.887   5.222 -1.6505  1.1509  3.6719
   83SOPE  C317 7715   1.684   2.810   5.333 -0.6869 -0.4590 -0.1364
   83SOPE  H17X 7716   1.766   2.766   5.393  0.0798  1.8452  0.6017
   83SOPE  H17Y 7717   1.594   2.746   5.320 -0.7062 -0.6664  0.9154
   83SOPE  C318 7718   1.638   2.935   5.416  0.2580  0.4441  0.5607
   83SOPE  H18X 7719   1.602   2.922   5.520 -3.4401  0.6904 -0.5536
   83SOPE  H18Y 7720   1.549   2.985   5.373 -2.7988 -4.3992  0.5222
   83SOPE  H18Z 7721   1.718   3.012   5.409  1.8585 -1.2610 -3.6246
   84SOPE     N 7722   1.703   2.414   3.003 -0.6789 -0.0950 -0.2538
   84SOPE   HN1 7723   1.619   2.460   2.963  0.1250  1.1585 -0.5453
   84SOPE   HN2 7724   1.684   2.388   3.102  0.7940 -1.2143 -0.2232
   84SOPE   HN3 7725   1.764   2.498   2.994 -0.9380  0.3826  1.9548
   84SOPE   C12 7726   1.738   2.295   2.926  0.0362 -0.4960  0.2710
   84SOPE  H12A 7727   1.843   2.259   2.933 -0.3718 -2.0452 -1.0502
   84SOPE  H12B 7728   1.727   2.322   2.819 -0.1518  1.3964  0.7275
   84SOPE   C11 7729   1.647   2.180   2.964 -0.6766 -0.0821  0.2703
   84SOPE  H11A 7730   1.658   2.145   3.069 -0.2433  0.1259  0.3005
   84SOPE  H11B 7731   1.692   2.100   2.901 -1.5571  0.3767 -0.9956
   84SOPE     P 7732   1.413   2.093   2.905  0.0604 -0.2148  0.1204
   84SOPE   O13 7733   1.481   1.988   2.827  0.3185  0.5164 -0.1206
   84SOPE   O14 7734   1.292   2.149   2.841  0.7461  0.0896 -0.2113
   84SOPE   O12 7735   1.516   2.215   2.915 -0.1747 -0.6093  0.2073
   84SOPE   O11 7736   1.383   2.043   3.048 -0.8319 -0.7360  0.1069
   84SOPE    C1 7737   1.332   1.912   3.072 -0.3079  0.1605 -0.9332
   84SOPE    HA 7738   1.316   1.854   2.979 -2.2828 -1.9320  0.5923
   84SOPE    HB 7739   1.238   1.917   3.132  0.8174  1.2485  0.8188
   84SOPE    C2 7740   1.435   1.830   3.153 -0.0102 -0.3738  0.4711
   84SOPE    HS 7741   1.386   1.730   3.164  1.7308 -1.6520 -2.1876
   84SOPE   O21 7742   1.473   1.899   3.275 -0.1432 -0.1203 -0.7708
   84SOPE   C21 7743   1.492   1.829   3.382 -0.3377  0.2046 -0.3180
   84SOPE   O22 7744   1.480   1.705   3.384  0.3387 -0.4389  0.5842
   84SOPE   C22 7745   1.556   1.918   3.492  0.0643  0.3550 -0.0850
   84SOPE   H2R 7746   1.519   2.023   3.488  2.1941  1.1441 -0.8962
   84SOPE   H2S 7747   1.662   1.931   3.458  0.7129 -0.6457  1.4559
   84SOPE    C3 7748   1.554   1.816   3.066 -0.4005  0.3410  0.9004
   84SOPE    HX 7749   1.606   1.914   3.072 -1.0572  0.8768 -1.2500
   84SOPE    HY 7750   1.529   1.799   2.959  0.4653 -1.1070  0.9038
   84SOPE   O31 7751   1.646   1.716   3.115  0.1867 -0.4086 -0.0789
   84SOPE   C31 7752   1.601   1.599   3.075 -0.4349  0.4338 -0.1675
   84SOPE   O32 7753   1.505   1.578   3.004  0.1355  0.2727 -0.7037
   84SOPE   C32 7754   1.692   1.489   3.131  0.5650 -0.1370 -0.4227
   84SOPE   H2X 7755   1.798   1.521   3.119  0.3400  0.9245  0.2594
   84SOPE   H2Y 7756   1.683   1.397   3.070  2.0735 -0.9529  0.5223
   84SOPE   C23 7757   1.552   1.858   3.631  0.7242  0.1467 -0.6082
   84SOPE   H3R 7758   1.578   1.750   3.635 -0.5164 -0.2123 -1.4719
   84SOPE   H3S 7759   1.445   1.864   3.662  1.5121 -0.3546  2.5508
   84SOPE   C24 7760   1.627   1.930   3.734  1.1114 -1.2386  0.4430
   84SOPE   H4R 7761   1.738   1.926   3.733  1.1769  0.1675  0.2903
   84SOPE   H4S 7762   1.600   2.035   3.709  1.5217 -1.8309 -3.0699
   84SOPE   C25 7763   1.580   1.888   3.883 -0.0697 -0.6787  0.4781
   84SOPE   H5R 7764   1.469   1.897   3.879 -0.0989 -0.9940 -3.2420
   84SOPE   H5S 7765   1.601   1.779   3.886 -1.8534 -1.1580 -1.5139
   84SOPE   C26 7766   1.657   1.966   3.998  0.1085 -0.0264  0.5827
   84SOPE   H6R 7767   1.766   1.963   3.974 -0.1142 -1.2742 -0.3882
   84SOPE   H6S 7768   1.624   2.071   3.983 -0.5884 -0.5528 -2.1932
   84SOPE   C27 7769   1.627   1.921   4.140 -0.2817  0.8047  0.5648
   84SOPE   H7R 7770   1.666   1.820   4.165  1.4311  1.4841  0.7956
   84SOPE   H7S 7771   1.667   1.999   4.209  2.1135 -1.0124  1.3539
   84SOPE   C28 7772   1.472   1.913   4.167  0.0763  0.4643 -0.0132
   84SOPE   H8R 7773   1.415   1.832   4.117 -2.7121  0.8127  2.3833
   84SOPE   H8S 7774   1.468   1.874   4.270 -1.5711 -2.4922 -1.0975
   84SOPE   C29 7775   1.407   2.047   4.155  0.9231  0.4771  0.0095
   84SOPE   H91 7776   1.447   2.106   4.072 -0.5059 -1.3568 -2.0784
   84SOPE  C210 7777   1.322   2.113   4.235 -0.9644  0.3375  0.1007
   84SOPE  H101 7778   1.269   2.204   4.205 -3.5475 -0.6132  1.4490
   84SOPE  C211 7779   1.267   2.050   4.361  0.0179  0.4975 -0.2695
   84SOPE  H11R 7780   1.325   1.963   4.400 -0.7466 -1.6311 -3.4688
   84SOPE  H11S 7781   1.171   2.002   4.331  0.2505 -0.5131  0.5544
   84SOPE  C212 7782   1.240   2.155   4.471 -0.4974  0.1240  0.8321
   84SOPE  H12R 7783   1.153   2.216   4.436 -1.1625 -0.7711  0.9032
   84SOPE  H12S 7784   1.330   2.219   4.487 -0.3161 -0.3611  1.7910
   84SOPE  C213 7785   1.206   2.089   4.607 -0.2990 -0.3474  0.0423
   84SOPE  H13R 7786   1.298   2.064   4.664 -0.3360  0.6854  0.5843
   84SOPE  H13S 7787   1.155   1.994   4.581  0.6827 -0.6494 -0.8247
   84SOPE  C214 7788   1.113   2.169   4.700 -0.6155 -0.6209 -0.3301
   84SOPE  H14R 7789   1.013   2.177   4.652 -1.6537  0.5635  1.9086
   84SOPE  H14S 7790   1.157   2.269   4.721  0.1106 -0.3879 -2.6060
   84SOPE  C215 7791   1.102   2.086   4.830 -0.1343  0.4943 -0.7889
   84SOPE  H15R 7792   1.208   2.066   4.858 -0.0110  1.3207 -0.6502
   84SOPE  H15S 7793   1.067   1.981   4.817  0.5057  0.1860 -0.1055
   84SOPE  C216 7794   1.028   2.161   4.946  0.7571  0.1985 -0.5751
   84SOPE  H16R 7795   1.074   2.261   4.959  1.2606 -0.0478 -0.4266
   84SOPE  H16S 7796   1.017   2.105   5.041  1.7902 -3.0551 -2.1848
   84SOPE  C217 7797   0.886   2.195   4.911 -0.4894  0.5016  0.2431
   84SOPE  H17R 7798   0.830   2.101   4.892  1.6171 -1.0627  1.3760
   84SOPE  H17S 7799   0.880   2.253   4.816  1.1534  0.0724 -0.1669
   84SOPE  C218 7800   0.816   2.264   5.025  0.6964  0.1572  0.3911
   84SOPE  H18R 7801   0.705   2.260   5.017  0.6758 -0.7178  0.9497
   84SOPE  H18S 7802   0.840   2.371   5.040 -2.2839  0.8185  1.1937
   84SOPE  H18T 7803   0.839   2.197   5.111 -3.5300 -1.3189  0.5901
   84SOPE   C33 7804   1.663   1.472   3.286  0.9349 -0.3908 -0.0474
   84SOPE   H3X 7805   1.553   1.460   3.302  1.0455 -0.1092  0.9855
   84SOPE   H3Y 7806   1.685   1.567   3.339  0.3016 -0.2690  0.0073
   84SOPE   C34 7807   1.741   1.352   3.348  0.0295 -0.4286 -0.3265
   84SOPE   H4X 7808   1.850   1.370   3.339  0.0444  0.2026  0.9093
   84SOPE   H4Y 7809   1.717   1.267   3.281  0.4381  0.0608 -1.0959
   84SOPE   C35 7810   1.710   1.310   3.493 -0.1798 -0.2450 -0.0089
   84SOPE   H5X 7811   1.751   1.210   3.521 -0.6870 -0.0706  1.4405
   84SOPE   H5Y 7812   1.601   1.288   3.496  0.1707 -2.0964  1.1710
   84SOPE   C36 7813   1.764   1.411   3.593  1.0032  0.1536  0.2236
   84SOPE   H6X 7814   1.731   1.515   3.568  0.1397 -0.4891 -1.4398
   84SOPE   H6Y 7815   1.872   1.412   3.619  0.9851  0.7205  0.2940
   84SOPE   C37 7816   1.700   1.375   3.728 -0.1386  0.0131 -0.2172
   84SOPE   H7X 7817   1.710   1.266   3.749  0.0113  0.3505  1.7133
   84SOPE   H7Y 7818   1.591   1.385   3.706 -0.1109 -0.4646 -0.5809
   84SOPE   C38 7819   1.740   1.460   3.850 -0.1824  0.0347 -0.5195
   84SOPE   H8X 7820   1.735   1.569   3.826 -0.3341  0.4463  1.2473
   84SOPE   H8Y 7821   1.848   1.438   3.865 -0.1162  0.1595 -0.8032
   84SOPE   C39 7822   1.653   1.435   3.975  1.1308  0.5471 -0.0428
   84SOPE   H9X 7823   1.648   1.328   4.003 -1.7062  0.8641  0.9379
   84SOPE   H9Y 7824   1.549   1.472   3.962  1.1947  1.0927  0.9674
   84SOPE  C310 7825   1.699   1.495   4.116  1.0537 -0.0830  0.1231
   84SOPE  H10X 7826   1.720   1.602   4.098  0.5377  0.3756  1.9751
   84SOPE  H10Y 7827   1.794   1.441   4.134 -0.4534 -2.8938  0.3550
   84SOPE  C311 7828   1.591   1.456   4.219  0.6297  0.0177  0.2742
   84SOPE  H11X 7829   1.599   1.349   4.248  2.2790  0.0736  0.1379
   84SOPE  H11Y 7830   1.495   1.486   4.172  1.1050  0.6713 -0.2926
   84SOPE  C312 7831   1.623   1.542   4.342  0.6307 -0.5533 -0.0588
   84SOPE  H12X 7832   1.617   1.651   4.318  1.4767 -0.6293 -0.6676
   84SOPE  H12Y 7833   1.728   1.517   4.369  1.0876 -0.6844 -1.8056
   84SOPE  C313 7834   1.526   1.518   4.454  0.6004 -0.4580 -0.2961
   84SOPE  H13X 7835   1.554   1.424   4.505  0.2245  0.7005  2.2537
   84SOPE  H13Y 7836   1.429   1.489   4.409  0.5694 -2.6198  1.0323
   84SOPE  C314 7837   1.508   1.648   4.541 -0.6836  0.5620  0.2059
   84SOPE  H14X 7838   1.517   1.730   4.467  1.1287 -0.3784 -0.6805
   84SOPE  H14Y 7839   1.600   1.653   4.604 -1.2573  2.9151  0.9611
   84SOPE  C315 7840   1.382   1.653   4.622  0.4720  0.1696 -0.3707
   84SOPE  H15X 7841   1.377   1.562   4.686  1.9947  0.0715 -0.3427
   84SOPE  H15Y 7842   1.294   1.670   4.556 -0.7043  0.7743  1.2872
   84SOPE  C316 7843   1.387   1.782   4.711 -0.0858 -0.7746  0.5698
   84SOPE  H16X 7844   1.291   1.789   4.766 -0.1142  1.8376  0.3044
   84SOPE  H16Y 7845   1.394   1.878   4.655  1.9445 -1.6774 -0.8835
   84SOPE  C317 7846   1.489   1.769   4.817  0.4871 -0.6641  0.0276
   84SOPE  H17X 7847   1.590   1.790   4.776  0.0657  3.3365  0.6194
   84SOPE  H17Y 7848   1.496   1.674   4.873  1.2721 -0.7558 -0.2160
   84SOPE  C318 7849   1.469   1.880   4.921  0.9182  0.1597  0.0786
   84SOPE  H18X 7850   1.364   1.876   4.958  0.9549 -1.3488  0.0801
   84SOPE  H18Y 7851   1.478   1.977   4.868 -0.4675 -0.9479 -2.3163
   84SOPE  H18Z 7852   1.544   1.885   5.003 -0.5025  0.5099  1.4130
   85SOPE     N 7853   5.574   1.933   2.582 -0.5643  0.2631 -0.3321
   85SOPE   HN1 7854   5.631   1.874   2.645 -2.0815 -0.6238  0.2876
   85SOPE   HN2 7855   5.644   2.006   2.560  1.9836 -1.2410  2.2503
   85SOPE   HN3 7856   5.491   1.980   2.624 -0.1621  1.3423 -0.6955
   85SOPE   C12 7857   5.527   1.850   2.461  0.0466  0.0303  0.3049
   85SOPE  H12A 7858   5.616   1.803   2.415 -0.0709  1.0254 -1.0064
   85SOPE  H12B 7859   5.477   1.930   2.402  0.4519  0.9822  1.2157
   85SOPE   C11 7860   5.429   1.741   2.491  0.1915  0.0926  0.1527
   85SOPE  H11A 7861   5.471   1.670   2.565 -0.6627 -0.3073  0.2689
   85SOPE  H11B 7862   5.415   1.670   2.406 -1.5935 -1.8728  1.9589
   85SOPE     P 7863   5.166   1.769   2.464  0.2119  0.0686  0.0230
   85SOPE   O13 7864   5.175   1.760   2.315 -0.2615 -0.3345 -0.0892
   85SOPE   O14 7865   5.091   1.887   2.510 -0.1021  0.8087 -0.4198
   85SOPE   O12 7866   5.307   1.799   2.526 -0.0148  0.4809 -0.8907
   85SOPE   O11 7867   5.123   1.637   2.537 -0.1083  0.0596  1.2013
   85SOPE    C1 7868   5.164   1.511   2.495  0.3020 -0.3733  0.4912
   85SOPE    HA 7869   5.253   1.517   2.428  0.2683  0.1824  0.4917
   85SOPE    HB 7870   5.080   1.461   2.443  0.2904  1.6024 -1.5344
   85SOPE    C2 7871   5.220   1.427   2.609  0.5620  0.1562 -0.5996
   85SOPE    HS 7872   5.133   1.394   2.670  2.5132 -0.8986  1.7943
   85SOPE   O21 7873   5.307   1.501   2.691 -0.9316 -0.2090 -0.8045
   85SOPE   C21 7874   5.245   1.571   2.788  0.3369 -0.3336  0.1110
   85SOPE   O22 7875   5.122   1.589   2.797 -0.9848  0.4513  0.1167
   85SOPE   C22 7876   5.350   1.642   2.876  0.0347  0.1235  0.1072
   85SOPE   H2R 7877   5.331   1.751   2.858 -0.0197  0.0987  0.0120
   85SOPE   H2S 7878   5.451   1.604   2.850  0.0809 -0.6456  1.3532
   85SOPE    C3 7879   5.281   1.287   2.562 -0.1634  0.1530 -0.0307
   85SOPE    HX 7880   5.371   1.309   2.500  1.3252  0.3407  2.0782
   85SOPE    HY 7881   5.212   1.240   2.488 -1.0181  1.3278  0.0003
   85SOPE   O31 7882   5.313   1.202   2.671  0.6335  0.2208 -0.3207
   85SOPE   C31 7883   5.438   1.192   2.713 -0.8379 -0.3067 -0.1142
   85SOPE   O32 7884   5.530   1.259   2.665  0.1015 -0.5712  0.2887
   85SOPE   C32 7885   5.450   1.106   2.843 -0.0714  0.3398  0.6821
   85SOPE   H2X 7886   5.543   1.142   2.892  0.1298 -0.2439  0.7409
   85SOPE   H2Y 7887   5.470   1.004   2.805 -0.3381  0.9355 -1.1521
   85SOPE   C23 7888   5.322   1.613   3.023  1.1964 -0.2900 -0.3054
   85SOPE   H3R 7889   5.329   1.504   3.045  0.7644 -0.1708  0.4809
   85SOPE   H3S 7890   5.220   1.646   3.052  1.0575 -1.2680  0.3918
   85SOPE   C24 7891   5.419   1.687   3.114 -0.1113  0.1280  0.1839
   85SOPE   H4R 7892   5.505   1.618   3.130 -0.5916  0.1775  3.8516
   85SOPE   H4S 7893   5.459   1.782   3.073  0.9123  0.0144  0.8828
   85SOPE   C25 7894   5.370   1.689   3.262 -0.1809  0.3149  0.5012
   85SOPE   H5R 7895   5.317   1.787   3.272  1.0142  0.9068  1.2997
   85SOPE   H5S 7896   5.296   1.611   3.291 -1.1888  1.3492  0.8054
   85SOPE   C26 7897   5.485   1.673   3.364 -0.4370 -0.2629  0.5064
   85SOPE   H6R 7898   5.556   1.591   3.341  0.6236  0.7824 -0.0868
   85SOPE   H6S 7899   5.555   1.753   3.331  3.8981 -2.7844  2.7744
   85SOPE   C27 7900   5.443   1.695   3.512  0.2795 -0.1258 -0.1570
   85SOPE   H7R 7901   5.400   1.796   3.525  1.1099 -0.0050  2.1259
   85SOPE   H7S 7902   5.357   1.628   3.534 -1.6106  1.3217 -2.5875
   85SOPE   C28 7903   5.543   1.672   3.622  0.2224 -0.4984  0.1833
   85SOPE   H8R 7904   5.493   1.679   3.720  0.1193 -1.9991  0.2610
   85SOPE   H8S 7905   5.566   1.564   3.608 -1.1928 -0.6855 -1.0741
   85SOPE   C29 7906   5.666   1.752   3.607  0.0827 -0.1928 -0.3473
   85SOPE   H91 7907   5.735   1.716   3.529  0.8159 -0.4969  0.4256
   85SOPE  C210 7908   5.710   1.849   3.692 -0.1895  1.0126  0.7235
   85SOPE  H101 7909   5.816   1.878   3.682  0.2599 -1.0425 -1.4426
   85SOPE  C211 7910   5.623   1.914   3.798  0.4169  0.0613 -0.1184
   85SOPE  H11R 7911   5.514   1.894   3.791  0.2704  0.8498 -0.1959
   85SOPE  H11S 7912   5.633   2.024   3.799 -3.2040  0.5211 -1.1883
   85SOPE  C212 7913   5.669   1.853   3.938  0.1938  0.3142  0.2560
   85SOPE  H12R 7914   5.754   1.920   3.965 -0.7275  1.0724  1.4281
   85SOPE  H12S 7915   5.714   1.752   3.940 -0.3020  0.0846  2.0641
   85SOPE  C213 7916   5.555   1.855   4.049 -0.0711 -0.3535  1.0471
   85SOPE  H13R 7917   5.466   1.805   4.004 -0.2986  0.7224  0.2581
   85SOPE  H13S 7918   5.541   1.963   4.069  2.1329  0.0093  0.8393
   85SOPE  C214 7919   5.596   1.783   4.181 -0.2697  0.2579 -0.1220
   85SOPE  H14R 7920   5.693   1.821   4.219 -0.4235 -0.2090  0.7751
   85SOPE  H14S 7921   5.617   1.674   4.169 -1.6446 -0.1889  1.1699
   85SOPE  C215 7922   5.487   1.804   4.292  0.4085  0.5973  0.1420
   85SOPE  H15R 7923   5.511   1.762   4.392 -0.7449 -1.6932 -0.4754
   85SOPE  H15S 7924   5.388   1.776   4.251 -0.4053  1.9812  1.0672
   85SOPE  C216 7925   5.460   1.962   4.320  0.5267  0.1095  0.2180
   85SOPE  H16R 7926   5.421   2.008   4.226  0.7693 -1.5399 -0.7375
   85SOPE  H16S 7927   5.560   2.010   4.332  1.8221 -1.7982 -2.0420
   85SOPE  C217 7928   5.365   1.989   4.436  0.0168  0.0168 -0.8802
   85SOPE  H17R 7929   5.279   1.919   4.425 -0.5729  0.3465  1.1400
   85SOPE  H17S 7930   5.329   2.093   4.419  1.6053  0.6634 -0.4383
   85SOPE  C218 7931   5.426   1.986   4.579  0.8072  0.1165 -0.0081
   85SOPE  H18R 7932   5.442   1.882   4.614  2.3088  1.1057  2.4996
   85SOPE  H18S 7933   5.374   2.045   4.658  0.3803  0.0421 -0.2289
   85SOPE  H18T 7934   5.528   2.028   4.573  1.0762 -0.4029  0.7908
   85SOPE   C33 7935   5.326   1.106   2.928 -0.4035 -0.1712 -0.2273
   85SOPE   H3X 7936   5.347   1.030   3.007  2.1327  0.3617 -0.2925
   85SOPE   H3Y 7937   5.234   1.072   2.876 -0.4180  0.1604 -0.4223
   85SOPE   C34 7938   5.305   1.238   2.991  0.6005  0.2692 -0.5853
   85SOPE   H4X 7939   5.304   1.322   2.918  2.5005  0.0954 -0.8472
   85SOPE   H4Y 7940   5.400   1.262   3.043 -0.4877  0.5993  1.3627
   85SOPE   C35 7941   5.175   1.251   3.084  0.2337 -0.5216  0.0753
   85SOPE   H5X 7942   5.086   1.201   3.039  0.5600 -0.8886 -0.1805
   85SOPE   H5Y 7943   5.151   1.355   3.114 -1.3776  0.0869 -2.9340
   85SOPE   C36 7944   5.199   1.180   3.222  0.3110  0.6491 -0.0405
   85SOPE   H6X 7945   5.256   1.087   3.203 -0.9756  0.1536 -1.6513
   85SOPE   H6Y 7946   5.102   1.158   3.272 -0.1169 -2.8397 -2.0991
   85SOPE   C37 7947   5.278   1.270   3.313  0.0540  0.7844 -0.3629
   85SOPE   H7X 7948   5.232   1.370   3.323  2.4751  1.8720  0.8794
   85SOPE   H7Y 7949   5.378   1.279   3.264 -0.2879 -2.7439 -2.0577
   85SOPE   C38 7950   5.287   1.214   3.453 -0.4691  0.3998  0.1247
   85SOPE   H8X 7951   5.338   1.117   3.468  0.4249  1.0644  1.6206
   85SOPE   H8Y 7952   5.184   1.193   3.490 -0.3842  0.0793  0.1818
   85SOPE   C39 7953   5.351   1.319   3.545 -0.3388  0.2880 -0.4176
   85SOPE   H9X 7954   5.281   1.405   3.554 -2.3660 -1.4097  0.9497
   85SOPE   H9Y 7955   5.449   1.363   3.515  0.0727  0.6105  1.2712
   85SOPE  C310 7956   5.373   1.255   3.689 -0.4468 -0.1699 -0.4984
   85SOPE  H10X 7957   5.468   1.199   3.688 -0.3320  0.0283 -0.8814
   85SOPE  H10Y 7958   5.296   1.181   3.719  1.3632 -2.5085 -1.3831
   85SOPE  C311 7959   5.386   1.361   3.802 -0.6357 -0.3463  0.7064
   85SOPE  H11X 7960   5.284   1.401   3.815 -0.4451  0.6971 -0.6590
   85SOPE  H11Y 7961   5.455   1.441   3.765 -1.7624  0.1869 -0.3178
   85SOPE  C312 7962   5.446   1.314   3.938 -0.1883 -0.4170 -0.2268
   85SOPE  H12X 7963   5.424   1.392   4.014 -0.4401 -1.2324  0.5612
   85SOPE  H12Y 7964   5.557   1.305   3.928 -0.0819  1.1391 -0.5985
   85SOPE  C313 7965   5.385   1.178   3.985 -1.1466  0.4203 -0.4132
   85SOPE  H13X 7966   5.420   1.100   3.915 -0.4219  1.4925 -1.2904
   85SOPE  H13Y 7967   5.274   1.181   3.971 -1.4158 -0.1373  1.3299
   85SOPE  C314 7968   5.403   1.128   4.131 -0.4677 -0.1108  0.9567
   85SOPE  H14X 7969   5.510   1.100   4.143 -0.3417 -2.4376 -3.5063
   85SOPE  H14Y 7970   5.350   1.030   4.129 -1.6611  0.4749 -2.5297
   85SOPE  C315 7971   5.352   1.214   4.246 -0.3291 -0.0657  0.0781
   85SOPE  H15X 7972   5.420   1.300   4.265  1.7841 -2.0733  2.3897
   85SOPE  H15Y 7973   5.366   1.158   4.341  0.3499  0.8420  0.5366
   85SOPE  C316 7974   5.208   1.275   4.222 -0.2434  0.0905 -0.5899
   85SOPE  H16X 7975   5.132   1.194   4.219  0.0219 -0.2814  1.3972
   85SOPE  H16Y 7976   5.205   1.330   4.125 -0.0153 -1.0407 -1.2523
   85SOPE  C317 7977   5.159   1.366   4.334  0.7693  0.4526  0.4119
   85SOPE  H17X 7978   5.200   1.325   4.429 -0.4329 -2.7846 -0.3392
   85SOPE  H17Y 7979   5.049   1.354   4.339  1.1023 -3.0306  2.4573
   85SOPE  C318 7980   5.195   1.516   4.328  0.0312 -0.1590  0.6323
   85SOPE  H18X 7981   5.139   1.569   4.248  1.1519 -0.9113 -0.7016
   85SOPE  H18Y 7982   5.302   1.540   4.310 -0.5593  1.3227 -1.3055
   85SOPE  H18Z 7983   5.174   1.554   4.430  2.1404 -1.4379  1.5958
   86SOPE     N 7984   6.263   5.666   2.597  0.6076 -0.3971  0.4971
   86SOPE   HN1 7985   6.315   5.577   2.605 -1.3204 -1.8444 -1.7503
   86SOPE   HN2 7986   6.292   5.729   2.675  1.4396 -0.5663  0.3370
   86SOPE   HN3 7987   6.163   5.638   2.598 -0.1175  1.9023 -0.0137
   86SOPE   C12 7988   6.306   5.733   2.471 -0.6476 -0.1857  0.1167
   86SOPE  H12A 7989   6.227   5.725   2.392  1.1410 -1.4207 -1.6597
   86SOPE  H12B 7990   6.389   5.667   2.437  1.8793  2.1530  1.3869
   86SOPE   C11 7991   6.357   5.879   2.496 -0.3045  0.8780 -0.3394
   86SOPE  H11A 7992   6.409   5.917   2.406  2.2598 -0.8260  0.3268
   86SOPE  H11B 7993   6.438   5.885   2.571 -0.8376 -1.3328  0.4880
   86SOPE     P 7994   6.235   6.023   2.674  0.2259  0.7108  0.0782
   86SOPE   O13 7995   6.119   6.116   2.664 -0.8501  0.1041 -0.0481
   86SOPE   O14 7996   6.359   6.070   2.730  0.2284 -0.1999  0.5252
   86SOPE   O12 7997   6.254   5.972   2.526  0.9305 -0.4412  0.2455
   86SOPE   O11 7998   6.196   5.883   2.745  0.1374  0.6015 -0.3709
   86SOPE    C1 7999   6.059   5.855   2.769 -0.3816  0.9583 -0.2320
   86SOPE    HA 8000   6.059   5.748   2.800  0.3834  1.1197  0.3681
   86SOPE    HB 8001   5.993   5.872   2.681  0.5307  1.3361 -0.8546
   86SOPE    C2 8002   5.994   5.937   2.889 -1.0972 -0.9946 -1.1954
   86SOPE    HS 8003   5.966   6.038   2.852 -0.1624  0.3000  1.3733
   86SOPE   O21 8004   6.097   5.958   2.989 -0.2329 -0.0227 -1.0775
   86SOPE   C21 8005   6.111   6.071   3.050  0.9906 -0.3892 -0.0200
   86SOPE   O22 8006   6.038   6.166   3.028 -0.1257  0.3253 -0.1284
   86SOPE   C22 8007   6.213   6.058   3.165 -0.5051  0.5217 -0.7584
   86SOPE   H2R 8008   6.305   6.010   3.127  0.7700  1.5896  0.8586
   86SOPE   H2S 8009   6.159   5.998   3.241  0.9352 -0.0826 -0.1879
   86SOPE    C3 8010   5.864   5.865   2.939  0.2804 -0.8164 -0.2782
   86SOPE    HX 8011   5.899   5.764   2.967  0.7540 -0.4648  0.4316
   86SOPE    HY 8012   5.788   5.859   2.858 -0.6204 -0.2885  0.5021
   86SOPE   O31 8013   5.806   5.935   3.057 -0.0039 -1.2426  0.5008
   86SOPE   C31 8014   5.748   6.057   3.043 -0.4605 -0.1288 -0.0140
   86SOPE   O32 8015   5.749   6.116   2.936  0.3750 -0.5391 -0.2705
   86SOPE   C32 8016   5.678   6.100   3.174 -0.1628  0.1320 -0.0270
   86SOPE   H2X 8017   5.638   6.014   3.230 -0.5898 -1.2522 -2.3245
   86SOPE   H2Y 8018   5.593   6.166   3.146 -2.5751 -3.2387 -1.2715
   86SOPE   C23 8019   6.244   6.192   3.230 -0.3529 -0.1639 -0.2091
   86SOPE   H3R 8020   6.304   6.172   3.322  0.0659 -2.7772 -0.9604
   86SOPE   H3S 8021   6.151   6.243   3.262 -0.8353  0.2869 -2.1759
   86SOPE   C24 8022   6.336   6.287   3.147  0.2988  0.2080  0.0142
   86SOPE   H4R 8023   6.425   6.229   3.114  0.4181 -0.0962  0.8391
   86SOPE   H4S 8024   6.291   6.338   3.059 -1.2937 -1.1266  0.0054
   86SOPE   C25 8025   6.400   6.391   3.244  0.3951  0.2669  0.2858
   86SOPE   H5R 8026   6.335   6.475   3.275  3.4785  2.0135  2.7109
   86SOPE   H5S 8027   6.447   6.341   3.332  1.4596  3.7089  1.8831
   86SOPE   C26 8028   6.517   6.474   3.181  0.6286  0.6753 -0.3111
   86SOPE   H6R 8029   6.546   6.540   3.265 -1.0826  2.2481 -0.9014
   86SOPE   H6S 8030   6.601   6.403   3.166  0.6753  0.9711 -1.5841
   86SOPE   C27 8031   6.491   6.539   3.048 -0.8662  0.3675  0.2826
   86SOPE   H7R 8032   6.472   6.450   2.983 -0.6577  0.5063  0.0264
   86SOPE   H7S 8033   6.403   6.606   3.045 -1.1019  0.0695  0.4762
   86SOPE   C28 8034   6.624   6.595   2.982  0.1857  0.0423  0.4031
   86SOPE   H8R 8035   6.710   6.526   2.997  2.2884  2.3063 -0.6529
   86SOPE   H8S 8036   6.589   6.583   2.877 -0.9353 -2.0416  0.9446
   86SOPE   C29 8037   6.653   6.734   3.025  0.8482  0.2047  0.0727
   86SOPE   H91 8038   6.558   6.781   3.055  0.3954 -0.9765  0.5554
   86SOPE  C210 8039   6.775   6.791   3.040  0.8628 -0.2054 -0.0476
   86SOPE  H101 8040   6.777   6.897   3.070  0.6547 -0.5056  1.0681
   86SOPE  C211 8041   6.905   6.726   2.990  0.2324  0.3132  0.0891
   86SOPE  H11R 8042   6.954   6.812   2.939 -0.2240 -0.0919 -1.0829
   86SOPE  H11S 8043   6.887   6.639   2.924 -0.3315  1.3506 -1.1902
   86SOPE  C212 8044   6.996   6.677   3.104 -0.2200  0.3817  0.3646
   86SOPE  H12R 8045   6.944   6.596   3.159 -0.1838  0.9170  1.2151
   86SOPE  H12S 8046   7.015   6.756   3.181  2.5076  0.0087  0.1584
   86SOPE  C213 8047   7.131   6.636   3.048  0.4419 -0.4167  0.8501
   86SOPE  H13R 8048   7.174   6.707   2.975 -1.0143 -0.0506  0.2986
   86SOPE  H13S 8049   7.106   6.543   2.991  0.3219  0.1136  0.0157
   86SOPE  C214 8050   7.219   6.606   3.174 -0.1931  0.3701  0.7153
   86SOPE  H14R 8051   7.159   6.525   3.221 -0.3266  0.0527  0.0048
   86SOPE  H14S 8052   7.241   6.696   3.237  0.9592  0.9098 -0.4317
   86SOPE  C215 8053   7.355   6.533   3.146 -0.0375  0.5739 -0.4482
   86SOPE  H15R 8054   7.420   6.586   3.073 -0.1361 -1.7877 -2.3521
   86SOPE  H15S 8055   7.322   6.438   3.099 -0.5867 -1.0878  3.0019
   86SOPE  C216 8056   7.421   6.490   3.274  0.4297  0.2088 -0.1957
   86SOPE  H16R 8057   7.499   6.415   3.248 -0.4490 -1.2729  1.2624
   86SOPE  H16S 8058   7.350   6.447   3.348  1.7972 -1.4094  0.2250
   86SOPE  C217 8059   7.504   6.603   3.336  0.1926  0.5969 -0.2514
   86SOPE  H17R 8060   7.444   6.694   3.359 -0.2242 -0.2577  2.5246
   86SOPE  H17S 8061   7.584   6.622   3.262  1.3142 -0.7040  0.5722
   86SOPE  C218 8062   7.563   6.570   3.470  0.0588 -0.6418 -0.2952
   86SOPE  H18R 8063   7.617   6.473   3.463 -0.6722 -0.9750 -1.7241
   86SOPE  H18S 8064   7.484   6.559   3.547  0.7248 -0.0242  0.4987
   86SOPE  H18T 8065   7.641   6.645   3.495 -0.6846  0.6993 -1.7723
   86SOPE   C33 8066   5.781   6.178   3.276  0.7737  0.3752  0.1889
   86SOPE   H3X 8067   5.816   6.266   3.218  3.0655 -0.3875  0.3137
   86SOPE   H3Y 8068   5.864   6.108   3.297 -0.1809 -0.2017  2.3530
   86SOPE   C34 8069   5.718   6.210   3.409 -0.2726 -0.8689  0.3946
   86SOPE   H4X 8070   5.789   6.278   3.460 -1.4792 -0.5524  1.7053
   86SOPE   H4Y 8071   5.687   6.126   3.475  0.6125 -0.9112  0.7643
   86SOPE   C35 8072   5.591   6.288   3.392  0.8468  0.2639 -0.2523
   86SOPE   H5X 8073   5.522   6.234   3.323  1.4663  0.6049 -1.1617
   86SOPE   H5Y 8074   5.611   6.389   3.350 -1.9573  1.0303  0.0366
   86SOPE   C36 8075   5.520   6.310   3.525 -0.2082 -0.2120  0.0160
   86SOPE   H6X 8076   5.592   6.366   3.588 -1.8875  0.5601  1.3038
   86SOPE   H6Y 8077   5.505   6.211   3.572  2.0678  0.7543  3.0927
   86SOPE   C37 8078   5.392   6.380   3.516 -0.1831 -0.3998  0.0436
   86SOPE   H7X 8079   5.316   6.323   3.457 -1.8438  1.2205  0.5247
   86SOPE   H7Y 8080   5.408   6.471   3.454  1.9214  0.6557  2.0196
   86SOPE   C38 8081   5.339   6.412   3.653 -0.6941  0.0515 -0.3807
   86SOPE   H8X 8082   5.422   6.438   3.721  0.2183  0.4096 -1.5964
   86SOPE   H8Y 8083   5.290   6.318   3.687 -0.2406 -1.3088 -3.1589
   86SOPE   C39 8084   5.247   6.536   3.654 -0.6868 -0.3561 -0.3696
   86SOPE   H9X 8085   5.164   6.541   3.582  0.4385  4.3950 -1.7339
   86SOPE   H9Y 8086   5.311   6.623   3.626  0.2069 -0.4115  1.3107
   86SOPE  C310 8087   5.196   6.568   3.800  0.0874  0.1436  0.0054
   86SOPE  H10X 8088   5.146   6.476   3.837 -0.4562 -0.5218 -2.2225
   86SOPE  H10Y 8089   5.124   6.652   3.806 -1.5101 -0.9634 -2.1844
   86SOPE  C311 8090   5.314   6.601   3.890  0.8153  0.3768 -0.0705
   86SOPE  H11X 8091   5.383   6.672   3.838  2.1462  0.0166  1.1402
   86SOPE  H11Y 8092   5.365   6.509   3.925  1.3054  0.8301  0.4226
   86SOPE  C312 8093   5.276   6.678   4.022  0.3032  0.2040  0.1572
   86SOPE  H12X 8094   5.362   6.668   4.091  0.9503 -1.0601 -0.7870
   86SOPE  H12Y 8095   5.188   6.636   4.076  1.3297  0.4722  2.0994
   86SOPE  C313 8096   5.255   6.833   3.998  0.0629  0.4323  0.2048
   86SOPE  H13X 8097   5.169   6.836   3.927 -0.0489  2.2818  0.3707
   86SOPE  H13Y 8098   5.345   6.872   3.946  0.1230  0.5703  0.4156
   86SOPE  C314 8099   5.224   6.920   4.120  0.1680  0.1465  0.1112
   86SOPE  H14X 8100   5.232   7.028   4.095  4.0832 -0.4057 -1.8080
   86SOPE  H14Y 8101   5.314   6.904   4.183  0.4164  4.2602  1.0810
   86SOPE  C315 8102   5.093   6.888   4.189  1.0444  0.0083 -0.2319
   86SOPE  H15X 8103   5.074   6.784   4.223  0.5333 -0.2981 -1.4187
   86SOPE  H15Y 8104   5.015   6.909   4.113  1.1368  2.7847  0.3243
   86SOPE  C316 8105   5.071   6.973   4.317 -0.3618 -0.3575 -0.1424
   86SOPE  H16X 8106   5.085   7.080   4.290  0.0610 -0.3330  0.1659
   86SOPE  H16Y 8107   5.151   6.954   4.392 -0.1331 -1.8580 -0.7303
   86SOPE  C317 8108   4.938   6.943   4.386  0.4294  0.8397  0.4586
   86SOPE  H17X 8109   4.938   6.832   4.391  0.8664  0.8371  0.4971
   86SOPE  H17Y 8110   4.859   6.975   4.315  0.4932  0.2439  0.1063
   86SOPE  C318 8111   4.919   7.018   4.519  0.1851 -0.1639  0.1651
   86SOPE  H18X 8112   5.013   7.010   4.578 -0.5032 -0.1278  1.2762
   86SOPE  H18Y 8113   4.826   6.981   4.567 -0.5825  2.1746  0.6150
   86SOPE  H18Z 8114   4.912   7.126   4.492  1.0887 -0.2674 -0.5354
   87SOPE     N 8115   0.004   4.520   2.639 -0.2831 -0.3361 -0.0348
   87SOPE   HN1 8116   0.069   4.567   2.572  0.9630 -2.2714 -0.2597
   87SOPE   HN2 8117   0.012   4.417   2.624 -4.1365 -0.9099  0.9209
   87SOPE   HN3 8118  -0.096   4.545   2.626 -0.5773 -2.3867 -2.6872
   87SOPE   C12 8119   0.045   4.554   2.777  0.4799  0.8072  0.3632
   87SOPE  H12A 8120   0.143   4.504   2.791 -0.9294 -2.2390  0.1309
   87SOPE  H12B 8121  -0.026   4.499   2.842  0.0230 -0.3411 -1.0587
   87SOPE   C11 8122   0.061   4.704   2.799  0.1397  0.1332 -0.2944
   87SOPE  H11A 8123   0.074   4.713   2.909  4.1210  0.9196 -0.6840
   87SOPE  H11B 8124  -0.021   4.776   2.777  0.7511  2.8312  4.7983
   87SOPE     P 8125   0.224   4.886   2.694 -0.3099  0.3745  0.0986
   87SOPE   O13 8126   0.182   4.906   2.554  0.7117  0.2978 -0.2919
   87SOPE   O14 8127   0.368   4.892   2.717  0.0856 -0.5688 -0.0861
   87SOPE   O12 8128   0.187   4.745   2.746 -0.3461  0.0156 -0.0063
   87SOPE   O11 8129   0.158   4.992   2.786 -0.3085  0.6482  0.0360
   87SOPE    C1 8130   0.172   4.996   2.932 -0.4243 -0.1877  0.0365
   87SOPE    HA 8131   0.192   4.894   2.971  1.2714 -0.5681 -1.6379
   87SOPE    HB 8132   0.075   5.026   2.976 -0.4383  0.1689 -0.2246
   87SOPE    C2 8133   0.292   5.091   2.972  0.4680  0.0217 -0.8144
   87SOPE    HS 8134   0.390   5.044   2.951  1.2328  0.7303  0.9542
   87SOPE   O21 8135   0.283   5.111   3.117  0.1528  0.0859  1.3575
   87SOPE   C21 8136   0.386   5.172   3.170 -0.3939 -0.3534  0.3851
   87SOPE   O22 8137   0.495   5.189   3.120 -0.0915  0.1427  0.5731
   87SOPE   C22 8138   0.348   5.211   3.312 -0.7454  0.1129 -0.3814
   87SOPE   H2R 8139   0.440   5.267   3.342  0.1444 -1.7047  0.4478
   87SOPE   H2S 8140   0.329   5.124   3.378 -1.2927  0.3905 -0.1659
   87SOPE    C3 8141   0.280   5.224   2.888 -0.1844 -0.1484  0.1688
   87SOPE    HX 8142   0.172   5.251   2.893 -0.5920 -1.6292  0.0382
   87SOPE    HY 8143   0.296   5.199   2.780  0.8770  0.8684  0.0743
   87SOPE   O31 8144   0.369   5.333   2.933 -0.3500 -0.5853 -0.1337
   87SOPE   C31 8145   0.337   5.448   2.887  0.5429  0.7572  0.3718
   87SOPE   O32 8146   0.250   5.461   2.801  0.1561 -0.1456 -0.2972
   87SOPE   C32 8147   0.438   5.547   2.930 -0.2590  0.3701  0.3424
   87SOPE   H2X 8148   0.413   5.648   2.891 -1.8534  0.3534  1.2128
   87SOPE   H2Y 8149   0.532   5.508   2.886 -0.1872  1.1834 -0.2528
   87SOPE   C23 8150   0.225   5.307   3.322 -0.1592 -0.7235 -0.4818
   87SOPE   H3R 8151   0.131   5.262   3.282 -0.8473  0.0711  0.1914
   87SOPE   H3S 8152   0.250   5.397   3.263 -3.4134  0.1102 -0.8098
   87SOPE   C24 8153   0.185   5.347   3.466 -1.2496 -0.0926 -0.3676
   87SOPE   H4R 8154   0.101   5.420   3.459  0.0420  1.3969 -0.9804
   87SOPE   H4S 8155   0.154   5.255   3.519  2.5832 -0.0116  2.4108
   87SOPE   C25 8156   0.291   5.413   3.560 -0.6424  0.2772 -0.0819
   87SOPE   H5R 8157   0.365   5.333   3.580  0.9780  2.2462  2.4449
   87SOPE   H5S 8158   0.348   5.495   3.510 -1.9954  1.5599  0.4092
   87SOPE   C26 8159   0.222   5.466   3.685 -0.2983  0.0951  0.5768
   87SOPE   H6R 8160   0.172   5.564   3.670 -0.4901  0.9546  5.2795
   87SOPE   H6S 8161   0.144   5.397   3.726  0.7425 -0.2054  2.1558
   87SOPE   C27 8162   0.319   5.491   3.802  0.5711 -0.0257  0.2297
   87SOPE   H7R 8163   0.380   5.399   3.814 -0.2296 -0.7005 -0.6925
   87SOPE   H7S 8164   0.386   5.569   3.760  0.3945  1.3975  2.4206
   87SOPE   C28 8165   0.246   5.532   3.932 -0.1640 -0.3123 -0.2565
   87SOPE   H8R 8166   0.174   5.614   3.911  1.2777  0.4827 -2.3493
   87SOPE   H8S 8167   0.196   5.440   3.971 -1.4417  1.6315  3.1104
   87SOPE   C29 8168   0.352   5.570   4.034 -0.0306  0.8289  0.5323
   87SOPE   H91 8169   0.438   5.620   3.986  0.2851 -0.4971 -0.3215
   87SOPE  C210 8170   0.356   5.537   4.163  0.2672  0.4974 -0.0927
   87SOPE  H101 8171   0.444   5.569   4.223 -0.8327  2.1950  0.7205
   87SOPE  C211 8172   0.256   5.460   4.246  0.0829 -0.0915  0.7597
   87SOPE  H11R 8173   0.300   5.360   4.266 -0.4551 -0.0197  2.5302
   87SOPE  H11S 8174   0.166   5.439   4.184 -0.3523  1.6149  0.7478
   87SOPE  C212 8175   0.214   5.530   4.372  0.1873 -0.6237 -0.9427
   87SOPE  H12R 8176   0.309   5.555   4.425 -0.4769  0.4210 -0.2266
   87SOPE  H12S 8177   0.156   5.461   4.436  2.3124 -0.5392  1.2301
   87SOPE  C213 8178   0.148   5.661   4.347 -0.0367 -0.5198  0.3872
   87SOPE  H13R 8179   0.194   5.712   4.260 -1.6277 -2.2171 -1.5639
   87SOPE  H13S 8180   0.161   5.741   4.423 -2.1218  1.4170 -1.1461
   87SOPE  C214 8181  -0.001   5.647   4.320  0.2407  0.6613  0.6055
   87SOPE  H14R 8182  -0.048   5.610   4.413 -1.6984  0.3701 -0.4504
   87SOPE  H14S 8183  -0.021   5.574   4.239  0.2782 -1.2250  2.2411
   87SOPE  C215 8184  -0.071   5.780   4.293  0.5226 -0.0091  0.4881
   87SOPE  H15R 8185  -0.025   5.824   4.203  0.1882 -1.0674 -0.2196
   87SOPE  H15S 8186  -0.067   5.847   4.381 -2.2183  1.8309 -0.6539
   87SOPE  C216 8187  -0.224   5.761   4.262 -0.0830 -0.0839  0.2080
   87SOPE  H16R 8188  -0.261   5.697   4.345  0.0752  1.4927  1.5516
   87SOPE  H16S 8189  -0.225   5.693   4.174 -0.7699 -2.1319  1.7283
   87SOPE  C217 8190  -0.308   5.883   4.236  0.4625  0.2811  0.2061
   87SOPE  H17R 8191  -0.408   5.844   4.204 -0.4666  3.4232 -1.1131
   87SOPE  H17S 8192  -0.251   5.934   4.156  1.1419 -0.4377  0.2218
   87SOPE  C218 8193  -0.317   5.984   4.349 -0.5144 -0.2463  0.6182
   87SOPE  H18R 8194  -0.386   5.947   4.429 -0.8582 -1.3320 -0.1551
   87SOPE  H18S 8195  -0.356   6.081   4.311 -0.0011  0.3273  1.5242
   87SOPE  H18T 8196  -0.218   6.005   4.394 -0.7826 -0.3569  1.2684
   87SOPE   C33 8197   0.449   5.563   3.083  0.5374  0.7263 -0.2121
   87SOPE   H3X 8198   0.528   5.490   3.114 -0.3880  0.4464  1.6396
   87SOPE   H3Y 8199   0.351   5.546   3.133  2.2764 -1.6673  2.7606
   87SOPE   C34 8200   0.497   5.699   3.128  0.1636 -0.1732  0.1054
   87SOPE   H4X 8201   0.441   5.782   3.080  0.4343 -0.5051 -0.8130
   87SOPE   H4Y 8202   0.606   5.700   3.105  0.1043 -2.2209 -0.4666
   87SOPE   C35 8203   0.484   5.728   3.275 -0.8105  0.2705 -0.6278
   87SOPE   H5X 8204   0.535   5.823   3.304 -1.2821 -0.1155  1.6793
   87SOPE   H5Y 8205   0.536   5.647   3.330  1.0293  2.9522  1.9488
   87SOPE   C36 8206   0.343   5.739   3.329  0.5216  0.0421  0.2166
   87SOPE   H6X 8207   0.284   5.645   3.336 -1.9270  1.1268 -3.1412
   87SOPE   H6Y 8208   0.288   5.811   3.266 -1.1447 -0.5246  0.9701
   87SOPE   C37 8209   0.337   5.801   3.465 -0.0629 -0.2527  0.0412
   87SOPE   H7X 8210   0.392   5.897   3.464 -0.4157 -0.0439  0.3302
   87SOPE   H7Y 8211   0.377   5.739   3.548  1.2599 -0.7317 -0.9241
   87SOPE   C38 8212   0.194   5.829   3.517  0.0054 -0.6172  0.0468
   87SOPE   H8X 8213   0.129   5.739   3.519 -0.1368 -0.5440 -1.1026
   87SOPE   H8Y 8214   0.151   5.906   3.451 -0.9587 -0.1231  1.2122
   87SOPE   C39 8215   0.207   5.889   3.659  0.3524 -0.2068  0.6685
   87SOPE   H9X 8216   0.280   5.973   3.663 -1.6489  1.5801  3.3906
   87SOPE   H9Y 8217   0.246   5.813   3.729  0.2215 -0.7521  0.1573
   87SOPE  C310 8218   0.078   5.933   3.715  0.7022  0.5119 -0.1483
   87SOPE  H10X 8219   0.008   5.854   3.748 -1.8450  1.8989 -1.8952
   87SOPE  H10Y 8220   0.019   5.999   3.648 -0.5619  0.3811  0.7837
   87SOPE  C311 8221   0.105   6.014   3.845  0.3430 -0.1604 -0.3889
   87SOPE  H11X 8222   0.180   6.094   3.827  1.2387 -1.1000 -1.0029
   87SOPE  H11Y 8223   0.151   5.953   3.926 -0.3423  1.7377  1.5312
   87SOPE  C312 8224  -0.018   6.074   3.919  0.3200  0.3640  0.2616
   87SOPE  H12X 8225  -0.086   5.997   3.961  0.7125 -0.4885 -0.6374
   87SOPE  H12Y 8226  -0.087   6.126   3.848  0.7897  0.5706 -0.0476
   87SOPE  C313 8227   0.013   6.170   4.041 -0.8376  0.2605 -0.0456
   87SOPE  H13X 8228   0.096   6.240   4.017 -0.1490 -0.2163  0.8745
   87SOPE  H13Y 8229   0.043   6.102   4.123  0.5162 -0.4833 -1.1223
   87SOPE  C314 8230  -0.106   6.263   4.097 -0.4490  0.6052  0.1003
   87SOPE  H14X 8231  -0.187   6.188   4.096  0.6028 -0.5816  0.7983
   87SOPE  H14Y 8232  -0.125   6.340   4.019  2.6028  1.5701  0.1620
   87SOPE  C315 8233  -0.069   6.315   4.232  0.3540  0.0347  0.1339
   87SOPE  H15X 8234   0.022   6.377   4.216  0.4184  0.2458  1.2951
   87SOPE  H15Y 8235  -0.037   6.232   4.299  0.6466  0.3280  0.3630
   87SOPE  C316 8236  -0.190   6.379   4.294  0.2771  0.4971  0.5864
   87SOPE  H16X 8237  -0.155   6.410   4.396  1.6797  1.1043 -0.0462
   87SOPE  H16Y 8238  -0.274   6.307   4.304  0.3647 -0.2118 -2.7478
   87SOPE  C317 8239  -0.228   6.514   4.231  0.5953 -0.2920  0.1958
   87SOPE  H17X 8240  -0.244   6.500   4.121  0.0043 -0.0587  0.2467
   87SOPE  H17Y 8241  -0.143   6.584   4.243  1.1138 -1.0658  1.1504
   87SOPE  C318 8242  -0.346   6.587   4.300 -0.1449 -0.1403 -0.3516
   87SOPE  H18X 8243  -0.428   6.513   4.313  1.8643 -2.3080  0.7135
   87SOPE  H18Y 8244  -0.376   6.671   4.234  0.3178  0.5652  0.3161
   87SOPE  H18Z 8245  -0.322   6.631   4.400 -2.0239  1.3069 -0.4674
   88SOPE     N 8246   1.956   6.217   2.783 -0.4431 -0.0079 -0.0232
   88SOPE   HN1 8247   1.917   6.313   2.787 -1.5173 -0.4407  0.0144
   88SOPE   HN2 8248   1.879   6.150   2.766  0.0648 -0.1895 -1.8471
   88SOPE   HN3 8249   1.988   6.198   2.880 -2.3207  1.3208  0.9260
   88SOPE   C12 8250   2.072   6.219   2.691 -0.6171  0.2562 -0.2019
   88SOPE  H12A 8251   2.144   6.293   2.731  0.4814 -1.0489  0.3101
   88SOPE  H12B 8252   2.035   6.267   2.597 -1.2614  3.7122  1.6675
   88SOPE   C11 8253   2.136   6.075   2.683  0.0670 -0.0867  0.4911
   88SOPE  H11A 8254   2.187   6.049   2.779 -0.0640  1.2732  0.9562
   88SOPE  H11B 8255   2.217   6.056   2.610 -0.7895 -1.9377 -0.0263
   88SOPE     P 8256   2.031   5.830   2.702 -0.1236 -0.1797 -0.3727
   88SOPE   O13 8257   2.139   5.742   2.662  0.0386 -0.0611  0.4158
   88SOPE   O14 8258   1.889   5.793   2.666  0.0064 -0.2095 -0.3257
   88SOPE   O12 8259   2.048   5.972   2.647 -0.3534 -0.6190  0.7912
   88SOPE   O11 8260   2.045   5.850   2.858 -0.3357  0.2422 -0.1248
   88SOPE    C1 8261   1.941   5.807   2.942 -0.5572  0.0647 -0.1632
   88SOPE    HA 8262   1.863   5.755   2.883  0.3505 -0.6803 -0.7404
   88SOPE    HB 8263   1.904   5.903   2.983  0.2828 -0.2274  1.3450
   88SOPE    C2 8264   2.001   5.710   3.045  1.1753 -0.1557 -0.6099
   88SOPE    HS 8265   2.065   5.637   2.990  1.2343 -0.8154  0.3165
   88SOPE   O21 8266   1.899   5.641   3.126  0.4981  0.0969 -0.3256
   88SOPE   C21 8267   1.911   5.512   3.151 -0.0891  0.2846  0.1569
   88SOPE   O22 8268   1.997   5.436   3.107  0.2773 -0.4158  0.1053
   88SOPE   C22 8269   1.798   5.465   3.246 -0.2206  0.5818 -0.3049
   88SOPE   H2R 8270   1.767   5.365   3.210  0.8592  0.2433 -0.3428
   88SOPE   H2S 8271   1.712   5.536   3.244 -0.2656  0.5779  0.7752
   88SOPE    C3 8272   2.096   5.798   3.138 -0.1079 -0.4594  0.1633
   88SOPE    HX 8273   2.031   5.876   3.184 -0.3893  0.0774 -1.1025
   88SOPE    HY 8274   2.163   5.848   3.064 -2.1608 -0.4792 -1.8277
   88SOPE   O31 8275   2.161   5.716   3.238  0.4965 -0.3062  0.7320
   88SOPE   C31 8276   2.250   5.781   3.297  0.3328  0.0880  0.0650
   88SOPE   O32 8277   2.281   5.901   3.289  0.2347 -0.0035  0.8145
   88SOPE   C32 8278   2.315   5.683   3.397 -0.1586 -0.5044  0.3482
   88SOPE   H2X 8279   2.424   5.687   3.377 -0.8614  0.3387 -4.4064
   88SOPE   H2Y 8280   2.280   5.580   3.373 -2.3392  0.4633 -0.9155
   88SOPE   C23 8281   1.840   5.462   3.395  0.6341  0.0125 -0.2598
   88SOPE   H3R 8282   1.755   5.481   3.465  1.1799  1.3893  0.0447
   88SOPE   H3S 8283   1.913   5.540   3.424 -0.4260  0.4051  1.5050
   88SOPE   C24 8284   1.906   5.325   3.424 -0.0911  0.3720 -0.7046
   88SOPE   H4R 8285   1.822   5.256   3.445 -0.4156  0.5440 -1.3942
   88SOPE   H4S 8286   1.978   5.296   3.344  1.2851  2.5303 -0.3280
   88SOPE   C25 8287   2.000   5.336   3.546 -0.3888  0.3811  0.3470
   88SOPE   H5R 8288   2.078   5.258   3.534  1.0177  1.8677 -0.6352
   88SOPE   H5S 8289   2.049   5.436   3.547 -0.7328  0.5494  0.5003
   88SOPE   C26 8290   1.923   5.328   3.677  0.5830  0.1716 -0.4538
   88SOPE   H6R 8291   1.860   5.420   3.683  0.9725  0.3317  2.6052
   88SOPE   H6S 8292   1.854   5.242   3.666 -0.9287  1.0199  1.6681
   88SOPE   C27 8293   2.004   5.325   3.807  0.2004 -0.5846 -0.2645
   88SOPE   H7R 8294   2.100   5.376   3.783 -0.4040  0.5172 -0.4271
   88SOPE   H7S 8295   1.948   5.374   3.889 -0.3560  2.7773 -2.4291
   88SOPE   C28 8296   2.056   5.190   3.848 -0.2058 -0.6572 -0.2680
   88SOPE   H8R 8297   1.968   5.126   3.870 -2.0832  1.3761 -1.4226
   88SOPE   H8S 8298   2.106   5.146   3.758 -0.0621 -1.6294  0.2735
   88SOPE   C29 8299   2.162   5.200   3.956  0.3010  0.0937  0.5173
   88SOPE   H91 8300   2.268   5.211   3.925  0.1030  1.0066  0.1266
   88SOPE  C210 8301   2.147   5.170   4.084  0.1722 -0.8910 -0.1035
   88SOPE  H101 8302   2.233   5.169   4.152  0.3983  1.7984 -0.2592
   88SOPE  C211 8303   2.010   5.145   4.151  0.1159 -0.0138  0.1061
   88SOPE  H11R 8304   1.960   5.050   4.120  0.3773 -0.1770  0.1791
   88SOPE  H11S 8305   1.939   5.227   4.126 -2.1223 -1.2855  1.8757
   88SOPE  C212 8306   2.026   5.136   4.306  0.0755 -0.4292  0.2998
   88SOPE  H12R 8307   2.014   5.235   4.354 -2.6089 -1.6108  2.2930
   88SOPE  H12S 8308   2.128   5.095   4.326  0.0689  0.0124  1.3135
   88SOPE  C213 8309   1.923   5.049   4.366  0.1504  0.2985  0.5553
   88SOPE  H13R 8310   1.907   4.954   4.311  2.2523  0.8989 -1.2420
   88SOPE  H13S 8311   1.822   5.095   4.362  0.3091  0.5775 -0.5248
   88SOPE  C214 8312   1.970   5.008   4.513 -0.4093  0.3577  1.0301
   88SOPE  H14R 8313   1.958   5.099   4.576  1.8807  0.1125  1.9284
   88SOPE  H14S 8314   2.078   4.982   4.505 -0.8038 -0.9087 -0.6759
   88SOPE  C215 8315   1.898   4.894   4.579  0.4033  0.0498  0.2073
   88SOPE  H15R 8316   1.915   4.795   4.532 -3.5420 -0.8338  0.2421
   88SOPE  H15S 8317   1.789   4.906   4.559 -0.1006  0.0255  2.6445
   88SOPE  C216 8318   1.904   4.895   4.735  0.1337  1.0217 -0.1710
   88SOPE  H16R 8319   1.886   4.996   4.779  0.4110  0.9352  0.1420
   88SOPE  H16S 8320   2.009   4.871   4.760  0.1509  1.3320  0.0726
   88SOPE  C217 8321   1.814   4.786   4.800 -0.1316 -0.2445  1.0705
   88SOPE  H17R 8322   1.824   4.687   4.751 -1.7198  0.4980 -0.8772
   88SOPE  H17S 8323   1.707   4.815   4.796 -0.3872 -0.2656  4.4757
   88SOPE  C218 8324   1.843   4.774   4.948  0.6037  0.4744 -0.3463
   88SOPE  H18R 8325   1.841   4.874   4.995  3.7582  0.3834  0.1800
   88SOPE  H18S 8326   1.946   4.739   4.969  0.4606 -0.3163 -0.9024
   88SOPE  H18T 8327   1.770   4.703   4.993  2.1837 -0.3074  1.1090
   88SOPE   C33 8328   2.282   5.720   3.545  0.7617  0.3239 -0.4479
   88SOPE   H3X 8329   2.289   5.624   3.601 -1.3367  1.0015  1.1359
   88SOPE   H3Y 8330   2.174   5.748   3.543  0.5197  0.0574  2.9638
   88SOPE   C34 8331   2.365   5.831   3.609 -0.2568  0.1920  0.0713
   88SOPE   H4X 8332   2.319   5.925   3.571 -1.8447 -0.0086  1.3825
   88SOPE   H4Y 8333   2.472   5.814   3.586 -0.5232 -1.8161  0.1484
   88SOPE   C35 8334   2.353   5.833   3.767 -0.5034 -0.2537  0.2652
   88SOPE   H5X 8335   2.374   5.729   3.800  1.2596  0.5805  1.9864
   88SOPE   H5Y 8336   2.251   5.871   3.784 -0.4601  1.5399 -2.6998
   88SOPE   C36 8337   2.443   5.948   3.831 -0.6488  0.0631  0.3243
   88SOPE   H6X 8338   2.395   6.046   3.808 -0.0347  0.1710 -0.5382
   88SOPE   H6Y 8339   2.545   5.946   3.788 -1.0626 -2.4823 -0.7310
   88SOPE   C37 8340   2.445   5.940   3.984  0.1224  0.8743 -0.1876
   88SOPE   H7X 8341   2.340   5.922   4.016  0.8819 -0.2324  1.9172
   88SOPE   H7Y 8342   2.492   6.030   4.031 -0.0704  0.4529  0.8315
   88SOPE   C38 8343   2.519   5.820   4.053 -0.5206  0.1252  0.5278
   88SOPE   H8X 8344   2.624   5.813   4.016  0.3155  0.5656  2.6861
   88SOPE   H8Y 8345   2.462   5.737   4.005 -0.2940  1.6194 -2.6228
   88SOPE   C39 8346   2.501   5.839   4.205  0.0535  0.0663  0.4889
   88SOPE   H9X 8347   2.393   5.854   4.228 -0.5058  1.3805 -2.5221
   88SOPE   H9Y 8348   2.540   5.940   4.232 -1.0004  1.1084 -1.6659
   88SOPE  C310 8349   2.568   5.728   4.284 -0.3566 -0.0287 -0.8181
   88SOPE  H10X 8350   2.675   5.716   4.254  0.5021  0.7680  1.6670
   88SOPE  H10Y 8351   2.510   5.636   4.266  0.1448 -0.6075  0.4041
   88SOPE  C311 8352   2.561   5.773   4.432  0.0105  0.1152 -0.1949
   88SOPE  H11X 8353   2.456   5.785   4.469  0.2706 -2.9690  1.9345
   88SOPE  H11Y 8354   2.605   5.874   4.444 -0.7207  0.3135  0.9258
   88SOPE  C312 8355   2.624   5.673   4.527  1.3681 -0.0417  0.2651
   88SOPE  H12X 8356   2.733   5.665   4.511  1.5941  2.8076 -0.1207
   88SOPE  H12Y 8357   2.573   5.576   4.508 -1.0711  0.9339  1.3331
   88SOPE  C313 8358   2.598   5.718   4.670 -0.2689 -0.4339 -0.5113
   88SOPE  H13X 8359   2.638   5.642   4.740 -0.4446  0.1887  0.2903
   88SOPE  H13Y 8360   2.490   5.731   4.690 -0.0469  0.6809  0.0569
   88SOPE  C314 8361   2.652   5.854   4.700 -0.1293 -0.3572 -0.5278
   88SOPE  H14X 8362   2.595   5.935   4.652 -1.4993 -1.6758 -1.2051
   88SOPE  H14Y 8363   2.753   5.861   4.654 -0.3506  2.1333 -0.7278
   88SOPE  C315 8364   2.643   5.885   4.844  0.2541  0.1892  0.5374
   88SOPE  H15X 8365   2.714   5.823   4.904  1.8880 -0.1184 -1.5872
   88SOPE  H15Y 8366   2.539   5.861   4.874  0.3765 -0.8480  0.1943
   88SOPE  C316 8367   2.681   6.027   4.886  0.0291  0.8761 -0.2464
   88SOPE  H16X 8368   2.596   6.098   4.872 -0.0189  0.9565  0.4298
   88SOPE  H16Y 8369   2.769   6.067   4.832  0.7997 -2.2381 -1.5328
   88SOPE  C317 8370   2.706   6.028   5.037  0.2419 -0.0297  0.5873
   88SOPE  H17X 8371   2.741   6.127   5.075  0.1531 -0.4918  1.9160
   88SOPE  H17Y 8372   2.790   5.960   5.063  1.2377  1.2550  0.8442
   88SOPE  C318 8373   2.592   5.987   5.130 -0.0265 -0.0715 -0.4582
   88SOPE  H18X 8374   2.600   6.012   5.238 -2.1073  1.4437 -0.5886
   88SOPE  H18Y 8375   2.555   5.884   5.111  1.3775 -1.0509  1.6862
   88SOPE  H18Z 8376   2.510   6.053   5.095 -0.0154 -1.0333 -2.3770
   89SAPC     N 8377   0.040   0.957   6.905  0.1020 -0.2376  0.4970
   89SAPC   C12 8378   0.117   1.084   6.858 -0.1449 -0.2043  0.0636
   89SAPC  H12A 8379   0.078   1.171   6.907 -0.8130  0.2146 -1.1592
   89SAPC  H12B 8380   0.089   1.113   6.758  2.0386  4.4331  0.5581
   89SAPC   C13 8381   0.067   0.837   6.814  0.4498  0.2802 -0.0215
   89SAPC  H13A 8382   0.027   0.856   6.715  0.8819  1.9723  0.0993
   89SAPC  H13B 8383   0.174   0.828   6.803  0.4031 -0.6529  0.1961
   89SAPC  H13C 8384   0.036   0.742   6.854  0.0115 -0.1698 -1.3614
   89SAPC   C14 8385   0.094   0.916   7.037  0.1607  0.3652 -0.2576
   89SAPC  H14A 8386   0.047   0.828   7.079  0.8049  0.0904 -0.0825
   89SAPC  H14B 8387   0.197   0.885   7.027 -0.2257 -0.8549 -0.5513
   89SAPC  H14C 8388   0.074   0.990   7.114 -2.4843 -1.3361  0.8387
   89SAPC   C15 8389  -0.105   0.986   6.911 -0.2041 -0.4263  0.0188
   89SAPC  H15A 8390  -0.148   1.012   6.816  0.8161 -1.1576 -0.6691
   89SAPC  H15B 8391  -0.156   0.893   6.933  0.3025 -0.9679 -1.0411
   89SAPC  H15C 8392  -0.129   1.065   6.981 -2.1461 -0.4100 -0.6158
   89SAPC   C11 8393   0.276   1.089   6.856 -0.5190  0.1674  0.0248
   89SAPC  H11A 8394   0.321   1.173   6.800  1.7618 -0.3245  1.0002
   89SAPC  H11B 8395   0.323   1.001   6.808  1.6741  0.3373  1.7131
   89SAPC     P 8396   0.335   1.232   7.063 -0.2564  0.1521  0.1437
   89SAPC   O13 8397   0.195   1.290   7.043 -0.0932 -0.1918 -0.3284
   89SAPC   O14 8398   0.371   1.211   7.206  0.7666 -0.2089 -0.1604
   89SAPC   O12 8399   0.339   1.090   6.984 -0.3916 -0.1504 -0.1223
   89SAPC   O11 8400   0.444   1.316   6.981 -0.0528  0.2058  0.1422
   89SAPC    C1 8401   0.581   1.265   6.973  0.4033 -0.0372 -0.6725
   89SAPC    HA 8402   0.645   1.300   7.057  2.5547 -0.4163 -2.0925
   89SAPC    HB 8403   0.579   1.155   6.960 -0.1613 -0.3697  1.6422
   89SAPC    C2 8404   0.662   1.315   6.847 -0.0471  0.1128 -0.3677
   89SAPC    HS 8405   0.696   1.418   6.872  0.0977 -0.5197  2.3030
   89SAPC   O21 8406   0.567   1.311   6.734 -0.2451  0.1436 -0.0493
   89SAPC   C21 8407   0.489   1.427   6.728 -0.6025 -0.6206 -0.6028
   89SAPC   O22 8408   0.507   1.525   6.793 -0.2456 -0.1309 -0.0071
   89SAPC   C22 8409   0.380   1.416   6.623  0.0857 -0.6318  0.1361
   89SAPC   H2R 8410   0.412   1.332   6.557 -1.0443 -1.5281  0.6905
   89SAPC   H2S 8411   0.282   1.398   6.673 -1.7722  2.9233 -1.8646
   89SAPC    C3 8412   0.792   1.225   6.836 -0.4008  0.4200  0.8667
   89SAPC    HX 8413   0.753   1.124   6.811 -1.1326  1.4602 -2.7565
   89SAPC    HY 8414   0.838   1.236   6.937 -1.3678 -1.5015  1.5843
   89SAPC   O31 8415   0.869   1.269   6.722 -0.3114 -0.1141  0.1430
   89SAPC   C31 8416   0.985   1.205   6.726 -0.0540  0.0140  0.4810
   89SAPC   O32 8417   1.021   1.108   6.787  0.6286 -0.0400 -0.2533
   89SAPC   C32 8418   1.077   1.251   6.614  0.0215  0.2405  0.4414
   89SAPC   H2X 8419   1.017   1.309   6.541 -2.1218 -0.0740  1.8578
   89SAPC   H2Y 8420   1.130   1.161   6.577  0.3040  0.3057  0.6875
   89SAPC   C23 8421   0.372   1.547   6.539  0.1772  0.2440  0.0351
   89SAPC   H3R 8422   0.465   1.565   6.480  0.5969  0.2344  0.6767
   89SAPC   H3S 8423   0.357   1.640   6.599 -1.7881  0.1236 -0.2115
   89SAPC   C24 8424   0.267   1.536   6.431  0.1645  0.3468 -0.4286
   89SAPC   H4R 8425   0.293   1.450   6.366 -1.0270 -0.2951 -0.0793
   89SAPC   H4S 8426   0.281   1.624   6.365 -0.7238  0.7962 -0.0298
   89SAPC   C25 8427   0.126   1.507   6.488 -0.6438  0.4824 -0.7734
   89SAPC   H5R 8428   0.109   1.407   6.530  1.3127 -0.2101 -1.4826
   89SAPC   C26 8429   0.021   1.577   6.458 -0.2718 -0.1369  0.0195
   89SAPC   H6R 8430  -0.076   1.542   6.495 -0.6988 -0.6930 -1.5369
   89SAPC   C27 8431   0.036   1.712   6.391  0.1988 -0.3739 -0.3395
   89SAPC   H7R 8432   0.065   1.699   6.284  0.5091  0.1236 -0.3177
   89SAPC   H7S 8433   0.122   1.765   6.436  0.0964 -1.7695  1.6296
   89SAPC   C28 8434  -0.085   1.796   6.407 -0.4745 -0.0619  0.1188
   89SAPC   H8R 8435  -0.104   1.821   6.513  0.9716 -1.5260  0.7604
   89SAPC   C29 8436  -0.177   1.819   6.317 -0.2233 -0.3401 -0.0485
   89SAPC   H9R 8437  -0.278   1.850   6.348  0.4020  1.7642  0.0788
   89SAPC  C210 8438  -0.179   1.795   6.170 -0.6549 -0.3000 -0.1134
   89SAPC  H10R 8439  -0.281   1.807   6.128 -0.4506 -3.1020 -1.5848
   89SAPC  H10S 8440  -0.141   1.692   6.152  1.1443 -0.4114  3.3610
   89SAPC  C211 8441  -0.091   1.891   6.088  0.4919  0.3198 -0.3338
   89SAPC  H11R 8442  -0.018   1.941   6.154  1.1495  0.7696 -1.3667
   89SAPC  C212 8443  -0.096   1.909   5.956 -0.2777  0.3638 -0.4070
   89SAPC  H12R 8444  -0.040   1.994   5.915  2.8707 -1.5973 -0.5045
   89SAPC  C213 8445  -0.191   1.835   5.866  0.4314  0.5562 -0.0602
   89SAPC  H13R 8446  -0.249   1.896   5.794 -0.1909 -1.7016 -1.5715
   89SAPC  H13S 8447  -0.267   1.784   5.929  1.6522  0.8839  1.7720
   89SAPC  C214 8448  -0.114   1.738   5.783 -0.3088  0.5013  0.3282
   89SAPC  H14R 8449  -0.026   1.691   5.827 -0.2826  1.5850  1.4811
   89SAPC  C215 8450  -0.156   1.694   5.657 -0.0774 -0.2897  0.4717
   89SAPC  H15R 8451  -0.096   1.627   5.594 -0.5270  1.0084 -1.4198
   89SAPC  C216 8452  -0.284   1.737   5.590  0.1296 -0.3943  0.0498
   89SAPC  H16R 8453  -0.289   1.847   5.578  0.9719 -0.5266 -1.9546
   89SAPC  H16S 8454  -0.369   1.706   5.655  0.8674 -1.0234  0.7462
   89SAPC  C217 8455  -0.299   1.691   5.444 -0.1710  0.4711 -0.2337
   89SAPC  H17R 8456  -0.269   1.584   5.446 -1.4511  0.0285 -2.3273
   89SAPC  H17S 8457  -0.231   1.742   5.372 -0.4046 -0.1713 -0.9186
   89SAPC  C218 8458  -0.437   1.710   5.375 -0.4190  0.1777 -0.3011
   89SAPC  H18R 8459  -0.460   1.817   5.360 -2.9604 -0.3186 -0.3727
   89SAPC  H18S 8460  -0.515   1.678   5.447 -0.6040 -4.4347 -2.1495
   89SAPC  C219 8461  -0.447   1.647   5.238  0.3152  0.8179  0.2595
   89SAPC  H19R 8462  -0.401   1.546   5.231  2.0629  1.5879  0.1348
   89SAPC  H19S 8463  -0.394   1.702   5.158 -0.2248  0.7268 -0.1609
   89SAPC  C220 8464  -0.588   1.628   5.184 -0.2278 -0.7121  0.2737
   89SAPC  H20R 8465  -0.594   1.573   5.088 -0.4366  0.9799 -0.7204
   89SAPC  H20S 8466  -0.647   1.722   5.177  1.6957  0.4237 -1.5351
   89SAPC  H20T 8467  -0.643   1.576   5.266 -2.2468  1.5597  0.4874
   89SAPC   C33 8468   1.190   1.347   6.653  0.9842 -0.3166  0.1188
   89SAPC   H3X 8469   1.278   1.315   6.713  1.7191 -0.4033 -0.9717
   89SAPC   H3Y 8470   1.147   1.436   6.703 -0.0290 -0.7862  0.1109
   89SAPC   C34 8471   1.263   1.412   6.528  0.3006 -0.3309  0.2520
   89SAPC   H4X 8472   1.308   1.505   6.567  0.9689  0.1549 -1.5646
   89SAPC   H4Y 8473   1.182   1.446   6.459  0.5995  1.8073  0.8996
   89SAPC   C35 8474   1.366   1.322   6.449  0.3211 -0.3920 -1.0160
   89SAPC   H5X 8475   1.326   1.220   6.429 -1.4486 -0.4751  2.2788
   89SAPC   H5Y 8476   1.458   1.327   6.510 -0.1966 -1.2544 -0.1402
   89SAPC   C36 8477   1.401   1.377   6.315  0.4058 -0.1394 -0.0462
   89SAPC   H6X 8478   1.443   1.480   6.321 -0.7914  0.3362  0.4883
   89SAPC   H6Y 8479   1.309   1.390   6.255 -1.3118  3.2007  2.8911
   89SAPC   C37 8480   1.511   1.289   6.247 -0.0348  0.1250 -0.5135
   89SAPC   H7X 8481   1.473   1.185   6.247 -1.2688  0.4102  3.0873
   89SAPC   H7Y 8482   1.598   1.290   6.316  0.5614 -1.0523 -1.2298
   89SAPC   C38 8483   1.552   1.351   6.115  0.3430 -0.4071  0.1020
   89SAPC   H8X 8484   1.584   1.456   6.131 -0.5050 -0.2071  0.5544
   89SAPC   H8Y 8485   1.461   1.347   6.051 -1.1017 -3.0712  2.0971
   89SAPC   C39 8486   1.672   1.292   6.045 -0.0497  0.1725  0.0170
   89SAPC   H9X 8487   1.664   1.182   6.027 -0.1324 -0.1896  2.0053
   89SAPC   H9Y 8488   1.762   1.309   6.107  0.3549 -2.4237  0.2619
   89SAPC  C310 8489   1.691   1.368   5.913  0.4647  0.4535 -0.0870
   89SAPC  H10X 8490   1.707   1.476   5.933  0.3856  0.3401  0.5935
   89SAPC  H10Y 8491   1.599   1.351   5.853  0.3444 -1.9382  0.6742
   89SAPC  C311 8492   1.814   1.320   5.835 -0.5513  0.0270 -0.3277
   89SAPC  H11X 8493   1.837   1.223   5.884  0.1321 -0.1602 -1.0003
   89SAPC  H11Y 8494   1.901   1.384   5.859  0.1661 -0.9558 -0.2510
   89SAPC  C312 8495   1.785   1.330   5.692  0.1493  0.0863  0.4113
   89SAPC  H12X 8496   1.697   1.276   5.651  1.2008 -1.9851  0.7277
   89SAPC  H12Y 8497   1.869   1.278   5.640  0.5127  1.6004 -0.5788
   89SAPC  C313 8498   1.764   1.479   5.645 -0.4641 -0.0582 -0.4024
   89SAPC  H13X 8499   1.827   1.545   5.708  0.5851 -0.7242 -0.7301
   89SAPC  H13Y 8500   1.663   1.519   5.668 -1.0991 -0.8622 -1.6601
   89SAPC  C314 8501   1.803   1.510   5.505 -0.4739 -0.3583 -0.1858
   89SAPC  H14X 8502   1.767   1.611   5.476 -1.8583  0.1150  2.8335
   89SAPC  H14Y 8503   1.737   1.448   5.440 -1.3862  1.0764 -0.6750
   89SAPC  C315 8504   1.951   1.488   5.476 -1.2531 -0.1395  0.3454
   89SAPC  H15X 8505   1.975   1.380   5.482 -0.3179 -0.0637 -1.2858
   89SAPC  H15Y 8506   2.016   1.542   5.547  1.9904  0.4823 -2.7833
   89SAPC  C316 8507   2.002   1.522   5.336 -0.0351 -0.1122 -0.4735
   89SAPC  H16X 8508   1.943   1.467   5.260  3.2464 -2.8108 -1.3102
   89SAPC  H16Y 8509   2.106   1.486   5.321 -0.3860 -0.7056 -1.5830
   89SAPC  C317 8510   1.988   1.679   5.319 -0.3736  0.1510  0.5446
   89SAPC  H17X 8511   2.009   1.739   5.411 -1.5170  0.8906  0.3413
   89SAPC  H17Y 8512   1.883   1.702   5.292 -0.3655  1.1471  1.2689
   89SAPC  C318 8513   2.085   1.733   5.208  0.3859 -0.1773 -1.1274
   89SAPC  H18X 8514   2.190   1.739   5.246  0.7655  2.0599 -2.3890
   89SAPC  H18Y 8515   2.057   1.835   5.175  0.2275  1.0279  2.2842
   89SAPC  H18Z 8516   2.088   1.674   5.114  2.5495 -1.5051 -0.3075
   90SAPC     N 8517   4.126   2.198   7.336  0.5469 -0.2505  0.3971
   90SAPC   C12 8518   4.248   2.288   7.333  0.2193 -0.2360  0.4629
   90SAPC  H12A 8519   4.337   2.232   7.357  1.6238  2.0286  0.8466
   90SAPC  H12B 8520   4.230   2.364   7.408  0.5288  1.2101 -0.8744
   90SAPC   C13 8521   4.000   2.273   7.300 -0.3881 -0.2011  0.1634
   90SAPC  H13A 8522   4.016   2.331   7.210 -0.4876 -3.8292 -2.4240
   90SAPC  H13B 8523   3.920   2.201   7.292 -1.6742  1.2840 -1.0376
   90SAPC  H13C 8524   3.972   2.343   7.377  0.6833 -1.0553  1.3661
   90SAPC   C14 8525   4.135   2.093   7.225 -0.0185  0.4971  0.1738
   90SAPC  H14A 8526   4.220   2.028   7.234 -0.0393  0.5603  0.9638
   90SAPC  H14B 8527   4.043   2.035   7.229  1.0473 -1.1897  1.4619
   90SAPC  H14C 8528   4.152   2.133   7.127 -0.3620 -0.5516 -0.3234
   90SAPC   C15 8529   4.109   2.131   7.467  0.0466 -0.1092  0.3705
   90SAPC  H15A 8530   4.196   2.076   7.500  0.8319 -1.1348 -2.9909
   90SAPC  H15B 8531   4.087   2.205   7.543  3.4511 -0.8933  2.3320
   90SAPC  H15C 8532   4.027   2.061   7.460  0.0235 -0.0437 -0.0305
   90SAPC   C11 8533   4.282   2.371   7.200 -0.6196 -0.0663  0.1900
   90SAPC  H11A 8534   4.194   2.431   7.168  0.5107  2.1895  1.0559
   90SAPC  H11B 8535   4.301   2.297   7.120 -1.9009 -1.1684  0.8582
   90SAPC     P 8536   4.397   2.593   7.284 -0.3878 -0.3805 -0.1531
   90SAPC   O13 8537   4.261   2.631   7.323 -0.2433 -0.6874  0.4584
   90SAPC   O14 8538   4.500   2.613   7.388  0.3665 -0.2416  0.6084
   90SAPC   O12 8539   4.397   2.447   7.225  0.2116  0.4212 -0.5541
   90SAPC   O11 8540   4.438   2.681   7.157  0.6429  0.1314 -0.5797
   90SAPC    C1 8541   4.357   2.689   7.039  0.0841 -0.0453 -0.2629
   90SAPC    HA 8542   4.249   2.672   7.060  0.3528 -2.3860 -0.4438
   90SAPC    HB 8543   4.368   2.787   6.989  0.0437  0.5421  0.8585
   90SAPC    C2 8544   4.392   2.584   6.935 -0.0359  0.2423 -0.3326
   90SAPC    HS 8545   4.380   2.481   6.974 -2.8884  0.4825 -0.3796
   90SAPC   O21 8546   4.520   2.618   6.872 -0.5345  0.1469 -0.8160
   90SAPC   C21 8547   4.603   2.524   6.864 -0.6578  0.1442 -0.0411
   90SAPC   O22 8548   4.592   2.413   6.910 -0.1793  0.0961 -0.2714
   90SAPC   C22 8549   4.738   2.559   6.783 -0.1199 -0.2181 -0.5971
   90SAPC   H2R 8550   4.737   2.668   6.763  1.0793  0.0422  0.5902
   90SAPC   H2S 8551   4.814   2.543   6.863 -0.9706 -0.1411  0.2465
   90SAPC    C3 8552   4.271   2.588   6.830  0.1601  0.2396 -0.7244
   90SAPC    HX 8553   4.238   2.692   6.807 -0.9981  0.5089  1.8310
   90SAPC    HY 8554   4.187   2.551   6.893  1.4509 -1.1309  0.2558
   90SAPC   O31 8555   4.304   2.520   6.702 -0.3183  0.0430 -0.3595
   90SAPC   C31 8556   4.276   2.387   6.706  0.1151  0.1256  0.2409
   90SAPC   O32 8557   4.225   2.326   6.799 -0.2413 -0.0925  0.3388
   90SAPC   C32 8558   4.293   2.330   6.564  0.2830  0.2933  0.0265
   90SAPC   H2X 8559   4.371   2.394   6.517 -0.6712  1.4408 -0.0540
   90SAPC   H2Y 8560   4.196   2.364   6.523 -0.2858 -0.0096  1.0871
   90SAPC   C23 8561   4.767   2.471   6.660 -0.5743  0.3178  0.0084
   90SAPC   H3R 8562   4.669   2.457   6.609  0.1336  0.3335 -1.4166
   90SAPC   H3S 8563   4.805   2.370   6.688  0.5744  0.4649 -0.9083
   90SAPC   C24 8564   4.863   2.539   6.559 -0.2090  0.1861  0.8197
   90SAPC   H4R 8565   4.903   2.450   6.507  0.5970 -0.2067  2.0566
   90SAPC   H4S 8566   4.937   2.587   6.627  0.8052  1.2001 -0.9402
   90SAPC   C25 8567   4.798   2.629   6.457 -0.0946 -0.3471  0.1845
   90SAPC   H5R 8568   4.711   2.685   6.494  0.6447  1.2532 -0.3894
   90SAPC   C26 8569   4.834   2.630   6.323  0.3517 -0.0741 -0.1730
   90SAPC   H6R 8570   4.794   2.709   6.258 -0.1921  1.8639  2.3385
   90SAPC   C27 8571   4.937   2.547   6.256 -0.8551 -0.6821  0.3406
   90SAPC   H7R 8572   4.894   2.459   6.204 -1.6349  0.6173 -1.3041
   90SAPC   H7S 8573   5.009   2.508   6.332 -0.3633 -2.4323 -0.9549
   90SAPC   C28 8574   5.010   2.622   6.145  0.0094 -0.5689  0.1376
   90SAPC   H8R 8575   5.106   2.668   6.175  0.4318 -0.4830 -1.2262
   90SAPC   C29 8576   5.004   2.611   6.012  0.0764  0.0427 -0.0603
   90SAPC   H9R 8577   5.065   2.679   5.951  3.6763 -0.5083  2.6139
   90SAPC  C210 8578   4.891   2.543   5.944 -0.0952 -0.0935 -1.0076
   90SAPC  H10R 8579   4.801   2.524   6.007  0.8896  1.1713  0.8611
   90SAPC  H10S 8580   4.918   2.438   5.920 -0.9537 -0.2957 -1.1429
   90SAPC  C211 8581   4.846   2.615   5.818 -0.2469  0.5134  0.1973
   90SAPC  H11R 8582   4.754   2.675   5.817 -0.1986  0.7636 -3.4631
   90SAPC  C212 8583   4.915   2.609   5.695  0.3175  0.0732  0.3886
   90SAPC  H12R 8584   4.877   2.658   5.604  1.7811 -3.5120 -2.4457
   90SAPC  C213 8585   5.044   2.540   5.671  0.0828 -0.5310  0.3049
   90SAPC  H13R 8586   5.067   2.458   5.742  0.7035 -2.2216 -1.7138
   90SAPC  H13S 8587   5.123   2.617   5.685 -2.3169  2.2792 -0.4489
   90SAPC  C214 8588   5.037   2.474   5.535 -0.4600  0.1192  0.5227
   90SAPC  H14R 8589   4.933   2.475   5.497 -0.2270  1.4642 -0.1466
   90SAPC  C215 8590   5.144   2.430   5.466 -0.6740 -0.1992  0.3738
   90SAPC  H15R 8591   5.126   2.385   5.368 -1.1124  2.2512 -0.7345
   90SAPC  C216 8592   5.290   2.444   5.509 -0.1367  0.0351 -0.3261
   90SAPC  H16R 8593   5.318   2.362   5.578  1.4465  0.8961  0.1092
   90SAPC  H16S 8594   5.305   2.526   5.582 -2.3777 -0.5567  0.8869
   90SAPC  C217 8595   5.393   2.436   5.402 -0.4594 -0.0847  0.0450
   90SAPC  H17R 8596   5.357   2.370   5.320 -1.9992  2.5138 -1.5130
   90SAPC  H17S 8597   5.486   2.401   5.451  1.0717  2.8602 -0.5081
   90SAPC  C218 8598   5.439   2.563   5.338 -0.3979 -0.3997  0.4214
   90SAPC  H18R 8599   5.523   2.612   5.392 -1.6217  0.9279  1.1861
   90SAPC  H18S 8600   5.359   2.640   5.345 -1.4897 -1.2839 -1.5607
   90SAPC  C219 8601   5.480   2.551   5.193 -0.0285 -0.4364 -0.3026
   90SAPC  H19R 8602   5.389   2.541   5.130  0.9442  1.3638 -2.0914
   90SAPC  H19S 8603   5.556   2.472   5.180  2.0846  1.2779  0.9575
   90SAPC  C220 8604   5.534   2.686   5.141 -0.7727  0.3774 -0.3255
   90SAPC  H20R 8605   5.467   2.772   5.164 -0.6112  0.2787  0.5536
   90SAPC  H20S 8606   5.545   2.693   5.031 -1.5985  0.1943 -0.4267
   90SAPC  H20T 8607   5.631   2.709   5.191 -0.2219 -0.2138 -1.0891
   90SAPC   C33 8608   4.302   2.179   6.527 -0.1219  0.1872  0.1099
   90SAPC   H3X 8609   4.206   2.132   6.557  0.5410 -1.5561 -0.4192
   90SAPC   H3Y 8610   4.378   2.119   6.581 -1.0834 -1.3157 -0.1361
   90SAPC   C34 8611   4.318   2.151   6.381 -0.1629 -0.0973 -0.3267
   90SAPC   H4X 8612   4.413   2.200   6.350 -0.9536  0.4972 -1.8786
   90SAPC   H4Y 8613   4.241   2.189   6.312  0.8024 -0.2481 -1.5217
   90SAPC   C35 8614   4.331   2.005   6.336  0.1095  0.4544 -0.6639
   90SAPC   H5X 8615   4.244   1.954   6.383  0.2649 -1.6731 -2.5379
   90SAPC   H5Y 8616   4.417   1.963   6.392 -1.9323 -1.9410  0.9511
   90SAPC   C36 8617   4.331   1.979   6.190  0.0798  0.2724 -0.0181
   90SAPC   H6X 8618   4.234   2.015   6.151  0.3631  0.1510 -0.8479
   90SAPC   H6Y 8619   4.337   1.870   6.171 -0.6457 -0.0886  1.6776
   90SAPC   C37 8620   4.445   2.041   6.103 -0.1699  0.0581  0.5733
   90SAPC   H7X 8621   4.540   1.985   6.119 -0.4719 -0.1572  1.6864
   90SAPC   H7Y 8622   4.467   2.144   6.136 -0.1127  1.0970 -2.3488
   90SAPC   C38 8623   4.403   2.030   5.953  0.0808  0.4778 -0.0146
   90SAPC   H8X 8624   4.303   2.079   5.955 -0.3414 -0.3339 -0.5183
   90SAPC   H8Y 8625   4.395   1.933   5.899 -0.8499  1.1651 -1.1640
   90SAPC   C39 8626   4.506   2.112   5.870 -0.1139 -0.4827  0.4280
   90SAPC   H9X 8627   4.608   2.069   5.886 -0.3219 -1.2151 -0.1610
   90SAPC   H9Y 8628   4.507   2.215   5.913  0.3803 -1.2498  2.3890
   90SAPC  C310 8629   4.478   2.127   5.719  0.2982  0.2292 -0.1403
   90SAPC  H10X 8630   4.519   2.033   5.674  2.0485  1.0600 -0.3854
   90SAPC  H10Y 8631   4.543   2.212   5.688  1.4021 -0.9712 -1.2411
   90SAPC  C311 8632   4.335   2.171   5.691  0.1125 -0.1103 -0.4838
   90SAPC  H11X 8633   4.315   2.255   5.761 -1.6572  0.3801 -1.5297
   90SAPC  H11Y 8634   4.262   2.092   5.722 -0.1644  0.2722 -0.1522
   90SAPC  C312 8635   4.297   2.215   5.552 -0.4252 -0.3329  0.0869
   90SAPC  H12X 8636   4.322   2.123   5.495 -1.7062 -1.9766  2.0356
   90SAPC  H12Y 8637   4.366   2.299   5.529  0.7137 -1.3968 -0.5520
   90SAPC  C313 8638   4.150   2.249   5.537  0.0214  1.4263 -0.1796
   90SAPC  H13X 8639   4.136   2.339   5.601  1.8328  0.3317  1.8949
   90SAPC  H13Y 8640   4.075   2.173   5.567 -1.0979  2.0613 -1.3041
   90SAPC  C314 8641   4.109   2.281   5.389 -0.1455  0.0362  0.2085
   90SAPC  H14X 8642   4.128   2.188   5.331 -0.8689  0.5309 -0.8348
   90SAPC  H14Y 8643   4.185   2.353   5.353 -1.4997  0.1879 -2.6328
   90SAPC  C315 8644   3.963   2.321   5.377  0.4249  0.4642  0.0349
   90SAPC  H15X 8645   3.928   2.389   5.457 -2.2992  0.8850 -1.4102
   90SAPC  H15Y 8646   3.899   2.231   5.389 -0.3087  1.0011  0.1814
   90SAPC  C316 8647   3.926   2.376   5.233 -0.3067  0.2095 -1.4076
   90SAPC  H16X 8648   3.937   2.289   5.165 -0.6492 -1.9277  1.0908
   90SAPC  H16Y 8649   3.966   2.478   5.214 -1.4864  0.5794 -2.0064
   90SAPC  C317 8650   3.772   2.420   5.239  0.9975  0.3763 -0.4690
   90SAPC  H17X 8651   3.748   2.459   5.341 -0.5872  2.6899 -1.6472
   90SAPC  H17Y 8652   3.715   2.325   5.237 -0.5217  1.2840 -1.9048
   90SAPC  C318 8653   3.718   2.518   5.137 -0.2988 -0.4690  0.3989
   90SAPC  H18X 8654   3.679   2.462   5.050 -1.5379 -0.8380  1.1666
   90SAPC  H18Y 8655   3.800   2.581   5.096 -0.5594  1.0291  2.0494
   90SAPC  H18Z 8656   3.640   2.588   5.176  0.6491  0.3654  0.8358
   91SAPC     N 8657   2.291   1.631   7.295  0.0960  0.2308  0.7981
   91SAPC   C12 8658   2.430   1.565   7.293  0.1792  0.5696 -1.0500
   91SAPC  H12A 8659   2.422   1.471   7.345  2.1973 -0.7978 -3.0001
   91SAPC  H12B 8660   2.487   1.629   7.358  1.7544 -3.1116  1.4929
   91SAPC   C13 8661   2.301   1.761   7.224 -0.2752  0.2045 -0.2310
   91SAPC  H13A 8662   2.378   1.827   7.260 -2.3647  1.7484  1.6838
   91SAPC  H13B 8663   2.312   1.760   7.117 -1.2037  0.7375 -0.3312
   91SAPC  H13C 8664   2.213   1.820   7.244  0.4156  1.3143 -0.4127
   91SAPC   C14 8665   2.190   1.542   7.222  0.1608  0.7302 -0.8259
   91SAPC  H14A 8666   2.087   1.575   7.225  0.6311  2.1906  1.1537
   91SAPC  H14B 8667   2.218   1.533   7.118 -1.6272 -1.8166 -1.1837
   91SAPC  H14C 8668   2.196   1.439   7.254 -1.3153  0.8675 -0.0302
   91SAPC   C15 8669   2.257   1.647   7.437 -0.2769  0.1511 -0.3244
   91SAPC  H15A 8670   2.186   1.726   7.454 -0.0475  0.3710 -0.3763
   91SAPC  H15B 8671   2.207   1.559   7.477  2.3992 -0.8739  0.9957
   91SAPC  H15C 8672   2.345   1.647   7.499  0.5945 -1.4763 -1.4588
   91SAPC   C11 8673   2.503   1.543   7.159 -0.6541 -0.6528 -0.4203
   91SAPC  H11A 8674   2.604   1.506   7.185 -0.3019  0.4737 -0.1519
   91SAPC  H11B 8675   2.505   1.643   7.111  0.0080  0.4316  1.7330
   91SAPC     P 8676   2.439   1.297   7.099  0.6315 -0.0981 -0.3842
   91SAPC   O13 8677   2.573   1.263   7.156  0.7668  0.6459  0.6723
   91SAPC   O14 8678   2.326   1.255   7.181  0.2319  0.1835  0.1249
   91SAPC   O12 8679   2.428   1.454   7.078 -0.1841  0.2074 -1.3773
   91SAPC   O11 8680   2.418   1.239   6.954  0.0507 -0.5832 -0.1610
   91SAPC    C1 8681   2.506   1.285   6.852 -0.1797  0.3512  0.2111
   91SAPC    HA 8682   2.538   1.391   6.860  1.5622 -0.1196 -0.0841
   91SAPC    HB 8683   2.597   1.220   6.849  0.3052  1.0333 -2.3043
   91SAPC    C2 8684   2.454   1.266   6.699  0.6845 -0.2291  0.2466
   91SAPC    HS 8685   2.386   1.353   6.686  3.2146  1.7856 -0.4937
   91SAPC   O21 8686   2.397   1.132   6.694 -0.0885  0.0759  0.2113
   91SAPC   C21 8687   2.263   1.124   6.667  0.1265 -0.1774 -0.1234
   91SAPC   O22 8688   2.192   1.220   6.669  0.4710 -0.5607 -0.0058
   91SAPC   C22 8689   2.218   0.980   6.632 -0.0287  0.0355  0.3531
   91SAPC   H2R 8690   2.290   0.924   6.695 -0.1196 -0.6795 -0.1639
   91SAPC   H2S 8691   2.112   0.963   6.664 -0.6300  0.7672 -1.1497
   91SAPC    C3 8692   2.577   1.280   6.602  0.1895  0.0358  0.3304
   91SAPC    HX 8693   2.653   1.209   6.640 -1.2874 -0.9207  1.6660
   91SAPC    HY 8694   2.621   1.381   6.608  0.8594 -0.0052 -2.4366
   91SAPC   O31 8695   2.531   1.259   6.463  0.2179 -0.3818 -0.4516
   91SAPC   C31 8696   2.640   1.243   6.391 -0.6688  0.6512  0.3350
   91SAPC   O32 8697   2.757   1.261   6.424  1.1738 -0.0650  0.0034
   91SAPC   C32 8698   2.580   1.191   6.255  0.5758  0.3548 -0.3595
   91SAPC   H2X 8699   2.486   1.246   6.232  0.0624 -0.0224  0.7437
   91SAPC   H2Y 8700   2.561   1.082   6.261 -0.1267  0.4730 -0.3274
   91SAPC   C23 8701   2.231   0.947   6.477  0.9759 -0.8716 -0.0064
   91SAPC   H3R 8702   2.175   1.010   6.404  4.6418  2.8903  0.0386
   91SAPC   H3S 8703   2.182   0.848   6.462 -0.0978 -0.3655  0.0831
   91SAPC   C24 8704   2.376   0.935   6.438 -0.0667 -0.1357  0.0523
   91SAPC   H4R 8705   2.441   1.025   6.435 -1.5871  1.0217  0.4699
   91SAPC   H4S 8706   2.374   0.907   6.330 -2.0684 -1.0581  0.2784
   91SAPC   C25 8707   2.444   0.820   6.512  0.1278  0.3693 -0.2502
   91SAPC   H5R 8708   2.483   0.849   6.611 -2.4900 -0.5650  1.1422
   91SAPC   C26 8709   2.459   0.693   6.479 -0.5448  0.2701 -0.1401
   91SAPC   H6R 8710   2.495   0.622   6.555  0.9442 -0.9762 -1.9153
   91SAPC   C27 8711   2.400   0.633   6.360  0.2289  0.5210 -0.3590
   91SAPC   H7R 8712   2.322   0.702   6.321  1.3955  2.1879  0.1471
   91SAPC   H7S 8713   2.346   0.539   6.386 -0.0149  0.3864 -1.3225
   91SAPC   C28 8714   2.503   0.617   6.255  0.1838  0.7857 -0.5660
   91SAPC   H8R 8715   2.608   0.600   6.283  0.3194  0.8172 -1.0383
   91SAPC   C29 8716   2.486   0.643   6.123 -0.0763 -0.1232 -0.4174
   91SAPC   H9R 8717   2.571   0.620   6.058 -0.6842  0.3298 -1.4032
   91SAPC  C210 8718   2.358   0.698   6.056  0.7883  0.0578 -0.0465
   91SAPC  H10R 8719   2.272   0.695   6.126  0.3020  2.2085 -0.4747
   91SAPC  H10S 8720   2.312   0.636   5.976  0.7075 -0.9610  0.7598
   91SAPC  C211 8721   2.375   0.843   6.012  0.4426 -0.3720 -0.6098
   91SAPC  H11R 8722   2.340   0.906   6.095  1.7523 -0.1581 -0.2018
   91SAPC  C212 8723   2.394   0.884   5.890  0.0600  0.3219 -0.5460
   91SAPC  H12R 8724   2.404   0.991   5.869  2.3425  0.4314  0.7452
   91SAPC  C213 8725   2.418   0.794   5.765 -0.3686 -0.7377  0.1091
   91SAPC  H13R 8726   2.322   0.750   5.730 -0.9306  0.4028  0.1650
   91SAPC  H13S 8727   2.478   0.705   5.794  0.8520 -0.0440 -0.1829
   91SAPC  C214 8728   2.488   0.859   5.649 -0.2043 -0.0097  0.5069
   91SAPC  H14R 8729   2.585   0.907   5.669  0.2792 -0.6526 -0.2216
   91SAPC  C215 8730   2.457   0.843   5.518  0.0732 -0.4320 -0.1600
   91SAPC  H15R 8731   2.517   0.892   5.439  1.4021 -1.5068  0.1450
   91SAPC  C216 8732   2.336   0.782   5.463  0.4426  0.3836 -0.4029
   91SAPC  H16R 8733   2.248   0.849   5.454  0.6419  0.7746  0.4311
   91SAPC  H16S 8734   2.302   0.697   5.527  1.9385  0.2734  0.2807
   91SAPC  C217 8735   2.351   0.711   5.332  0.3913 -0.5647  0.7965
   91SAPC  H17R 8736   2.256   0.655   5.316  0.6345 -0.6413 -0.5147
   91SAPC  H17S 8737   2.435   0.638   5.326 -1.3263 -2.5467 -1.0576
   91SAPC  C218 8738   2.369   0.810   5.211 -0.9645 -0.3383 -0.2131
   91SAPC  H18R 8739   2.429   0.890   5.259 -2.4121 -1.0770  3.1333
   91SAPC  H18S 8740   2.268   0.852   5.189 -0.3425  0.8581 -0.8804
   91SAPC  C219 8741   2.440   0.752   5.084  0.0641  0.2794 -0.5059
   91SAPC  H19R 8742   2.530   0.693   5.111  0.5747  1.6046  0.8409
   91SAPC  H19S 8743   2.472   0.840   5.025  2.9236 -1.4105 -1.7276
   91SAPC  C220 8744   2.351   0.669   4.995 -0.1194  0.8548 -0.0262
   91SAPC  H20R 8745   2.261   0.717   4.950 -1.8914 -2.0166  0.1899
   91SAPC  H20S 8746   2.325   0.580   5.056  1.8638  0.1315 -0.1657
   91SAPC  H20T 8747   2.397   0.622   4.906 -0.1528 -2.1591  1.4187
   91SAPC   C33 8748   2.674   1.214   6.131 -0.0276 -0.1418 -0.7393
   91SAPC   H3X 8749   2.745   1.128   6.130 -0.4406 -0.5083 -0.0065
   91SAPC   H3Y 8750   2.741   1.302   6.138 -0.1480 -0.1982  2.1752
   91SAPC   C34 8751   2.598   1.227   6.004  0.1232  0.0983  0.1137
   91SAPC   H4X 8752   2.540   1.321   5.995 -0.4871 -0.2230  0.6238
   91SAPC   H4Y 8753   2.527   1.145   5.981  1.6309 -0.6342 -2.3245
   91SAPC   C35 8754   2.701   1.227   5.893 -0.4581  0.0438 -0.1914
   91SAPC   H5X 8755   2.773   1.144   5.902 -1.5720 -0.9967 -0.6586
   91SAPC   H5Y 8756   2.758   1.322   5.906 -3.3146  1.5944  2.4490
   91SAPC   C36 8757   2.637   1.203   5.756 -0.1067  0.4371 -0.2064
   91SAPC   H6X 8758   2.586   1.294   5.718 -2.2518 -0.3984  0.5226
   91SAPC   H6Y 8759   2.558   1.129   5.779  0.2953  0.0396 -0.1007
   91SAPC   C37 8760   2.738   1.138   5.655  1.0244 -0.1970  0.2403
   91SAPC   H7X 8761   2.691   1.109   5.558  1.4321  1.0645 -0.3584
   91SAPC   H7Y 8762   2.791   1.047   5.692  0.5926 -0.9343 -0.8961
   91SAPC   C38 8763   2.841   1.246   5.604  0.8017  0.4822  0.5109
   91SAPC   H8X 8764   2.892   1.284   5.695  2.6952 -0.4335 -0.1186
   91SAPC   H8Y 8765   2.802   1.332   5.545  2.5984  1.4348  0.6075
   91SAPC   C39 8766   2.947   1.188   5.508  0.2172  0.6423  0.8045
   91SAPC   H9X 8767   2.985   1.086   5.533 -2.6705 -0.6343  0.3159
   91SAPC   H9Y 8768   3.037   1.253   5.517  1.7933 -1.5966  2.4884
   91SAPC  C310 8769   2.907   1.178   5.365  0.6233  0.4056 -0.4313
   91SAPC  H10X 8770   2.816   1.115   5.354 -0.2716  1.2109  1.7600
   91SAPC  H10Y 8771   2.969   1.114   5.299 -1.6109  0.8332 -3.1613
   91SAPC  C311 8772   2.903   1.315   5.290  0.3430  0.4705 -0.2948
   91SAPC  H11X 8773   2.989   1.382   5.312 -0.0470  0.6561  0.7395
   91SAPC  H11Y 8774   2.808   1.357   5.331 -2.0564 -2.9205 -1.8907
   91SAPC  C312 8775   2.874   1.314   5.136 -0.1498  0.2089 -0.1588
   91SAPC  H12X 8776   2.782   1.252   5.121 -0.0828  0.3735 -1.3637
   91SAPC  H12Y 8777   2.957   1.269   5.077 -0.7077 -0.3479 -0.5431
   91SAPC  C313 8778   2.848   1.453   5.073 -0.1592 -0.1997  0.2343
   91SAPC  H13X 8779   2.930   1.524   5.098 -1.2642  0.6416  1.6034
   91SAPC  H13Y 8780   2.756   1.498   5.115 -1.5408  0.1199 -2.8987
   91SAPC  C314 8781   2.809   1.450   4.926  0.0924 -0.4211 -0.1927
   91SAPC  H14X 8782   2.804   1.556   4.894  1.6485 -0.1917  0.2167
   91SAPC  H14Y 8783   2.705   1.414   4.910 -0.3499  1.0196 -0.7361
   91SAPC  C315 8784   2.901   1.389   4.818  0.1484  0.3365  0.6960
   91SAPC  H15X 8785   2.910   1.279   4.831  1.7553 -0.0159 -2.4981
   91SAPC  H15Y 8786   3.003   1.432   4.822 -0.0775  0.9891 -0.2698
   91SAPC  C316 8787   2.849   1.396   4.674  0.0223  0.3263 -1.1147
   91SAPC  H16X 8788   2.931   1.375   4.602  1.4134  1.0175  0.2046
   91SAPC  H16Y 8789   2.824   1.501   4.649  0.0281  1.1176  1.8157
   91SAPC  C317 8790   2.733   1.300   4.635  0.7968 -0.3204 -0.3961
   91SAPC  H17X 8791   2.648   1.307   4.706  0.4924 -0.4989 -0.7359
   91SAPC  H17Y 8792   2.768   1.196   4.653  0.1599 -0.1762  1.9901
   91SAPC  C318 8793   2.675   1.325   4.496 -0.1486  0.5165 -0.0938
   91SAPC  H18X 8794   2.571   1.287   4.505 -1.4491  3.8089  0.2028
   91SAPC  H18Y 8795   2.723   1.258   4.421 -0.6333 -0.9427  0.8436
   91SAPC  H18Z 8796   2.670   1.434   4.474 -1.7236  0.4380 -0.2251
   92SAPC     N 8797   1.778   0.672   7.729 -0.2061 -0.7654  0.0076
   92SAPC   C12 8798   1.767   0.819   7.753  0.4922 -0.5706 -0.4836
   92SAPC  H12A 8799   1.863   0.866   7.766  0.0699  0.2338 -0.1504
   92SAPC  H12B 8800   1.733   0.835   7.854 -1.6746 -0.1764 -1.2088
   92SAPC   C13 8801   1.637   0.623   7.731  0.1904 -0.7324 -0.6492
   92SAPC  H13A 8802   1.626   0.521   7.698  0.4319 -0.3472 -1.9533
   92SAPC  H13B 8803   1.604   0.635   7.833 -0.5963  2.3030 -1.1362
   92SAPC  H13C 8804   1.576   0.692   7.673  3.0649  1.2313 -1.5599
   92SAPC   C14 8805   1.841   0.650   7.601  0.5944  0.4808  0.5189
   92SAPC  H14A 8806   1.781   0.702   7.529  2.2297  2.3173  0.3941
   92SAPC  H14B 8807   1.946   0.675   7.608  0.0976  2.3427  2.1588
   92SAPC  H14C 8808   1.837   0.547   7.569 -0.3050  0.4466  0.7132
   92SAPC   C15 8809   1.860   0.613   7.835  0.3269 -0.1558 -0.1227
   92SAPC  H15A 8810   1.793   0.615   7.920 -0.8704  0.0917 -1.0442
   92SAPC  H15B 8811   1.878   0.511   7.806 -0.2155 -0.5576  0.8678
   92SAPC  H15C 8812   1.955   0.660   7.857 -1.6233  4.4727 -0.2901
   92SAPC   C11 8813   1.673   0.908   7.666  0.3939 -0.0621  0.1642
   92SAPC  H11A 8814   1.676   1.012   7.704 -1.1193  0.9229 -2.1981
   92SAPC  H11B 8815   1.569   0.875   7.689 -0.6962  2.0492 -1.3911
   92SAPC     P 8816   1.610   0.881   7.414 -0.4714  0.0960 -0.0730
   92SAPC   O13 8817   1.587   0.735   7.418  0.3160  0.4948 -0.0260
   92SAPC   O14 8818   1.487   0.967   7.425  0.2568  0.6550  0.3594
   92SAPC   O12 8819   1.716   0.915   7.530  0.3941  0.0297  0.1244
   92SAPC   O11 8820   1.693   0.923   7.277 -0.0355 -0.1094  0.4993
   92SAPC    C1 8821   1.691   1.058   7.237  0.0673 -0.2210 -0.3200
   92SAPC    HA 8822   1.635   1.129   7.302  1.7904  1.7554 -0.9024
   92SAPC    HB 8823   1.793   1.100   7.222 -0.3918  0.0235 -3.4843
   92SAPC    C2 8824   1.635   1.077   7.096  0.3092  0.3609 -0.2022
   92SAPC    HS 8825   1.528   1.047   7.098  0.8303 -2.6396 -3.9794
   92SAPC   O21 8826   1.712   0.989   7.015  0.4163 -0.9364  0.6915
   92SAPC   C21 8827   1.646   0.916   6.932 -0.3359 -0.2673  0.3851
   92SAPC   O22 8828   1.523   0.904   6.923  0.1455  0.2508  0.1833
   92SAPC   C22 8829   1.749   0.860   6.832  0.3995 -0.2912  0.6498
   92SAPC   H2R 8830   1.829   0.935   6.820 -0.2037  0.3959  0.8432
   92SAPC   H2S 8831   1.798   0.777   6.887 -0.5030 -0.2639  1.5254
   92SAPC    C3 8832   1.644   1.219   7.035 -1.5010  0.2776  0.2520
   92SAPC    HX 8833   1.739   1.252   7.082 -0.3753 -0.6748 -1.2843
   92SAPC    HY 8834   1.557   1.280   7.069 -0.3071  1.4909  1.2187
   92SAPC   O31 8835   1.658   1.223   6.892  0.4625  0.1926  0.4612
   92SAPC   C31 8836   1.708   1.335   6.857  0.1509  0.2767 -0.4743
   92SAPC   O32 8837   1.737   1.426   6.934 -0.0579  0.4658  0.0079
   92SAPC   C32 8838   1.729   1.336   6.704 -0.3005 -0.8367  0.3147
   92SAPC   H2X 8839   1.651   1.409   6.672  0.9587  1.0593  1.4250
   92SAPC   H2Y 8840   1.711   1.234   6.663  0.4458 -0.6873 -0.4014
   92SAPC   C23 8841   1.680   0.823   6.695 -0.2295 -0.1523 -0.9506
   92SAPC   H3R 8842   1.583   0.770   6.708 -0.4799  0.6920  0.9159
   92SAPC   H3S 8843   1.748   0.756   6.638  3.3713  0.8045  1.8758
   92SAPC   C24 8844   1.653   0.945   6.603 -0.5054  0.1563  0.1457
   92SAPC   H4R 8845   1.613   1.022   6.672  0.8225  1.5321 -0.5697
   92SAPC   H4S 8846   1.575   0.919   6.528  0.3344  1.8550 -1.3961
   92SAPC   C25 8847   1.775   0.998   6.539 -0.6284  0.0175 -0.8691
   92SAPC   H5R 8848   1.857   1.000   6.612 -0.8848 -3.1517 -0.3491
   92SAPC   C26 8849   1.807   1.004   6.411 -0.3811  0.0686  0.0455
   92SAPC   H6R 8850   1.911   1.028   6.382 -0.1158 -1.5427 -0.4037
   92SAPC   C27 8851   1.718   0.982   6.288 -0.2944  0.6452 -0.2261
   92SAPC   H7R 8852   1.723   1.063   6.212 -0.9663 -0.5698 -1.6153
   92SAPC   H7S 8853   1.610   0.993   6.314 -0.3855 -1.1671  0.2684
   92SAPC   C28 8854   1.723   0.843   6.229  0.8288 -0.3751  0.4532
   92SAPC   H8R 8855   1.692   0.764   6.299  0.0436  0.8320  1.5201
   92SAPC   C29 8856   1.770   0.807   6.107  0.1607 -0.2279 -0.1878
   92SAPC   H9R 8857   1.765   0.702   6.076 -1.3059 -0.0972 -0.4785
   92SAPC  C210 8858   1.816   0.898   5.996  0.7031 -0.5248 -0.2345
   92SAPC  H10R 8859   1.787   1.004   6.013 -2.0648 -1.4707  1.6685
   92SAPC  H10S 8860   1.750   0.864   5.913 -1.2119 -2.4512  1.9031
   92SAPC  C211 8861   1.962   0.875   5.963 -0.2596  0.3108 -0.5397
   92SAPC  H11R 8862   2.026   0.834   6.043 -0.4283  0.3793 -0.3677
   92SAPC  C212 8863   2.017   0.886   5.841  0.2953  0.3050 -0.9227
   92SAPC  H12R 8864   2.119   0.847   5.828  0.5781  0.5281  0.5545
   92SAPC  C213 8865   1.942   0.920   5.714 -0.0006 -0.1203  0.0820
   92SAPC  H13R 8866   2.017   0.973   5.651  0.6954 -2.4439 -1.1741
   92SAPC  H13S 8867   1.860   0.990   5.742 -0.2041 -1.1544  2.2983
   92SAPC  C214 8868   1.898   0.799   5.637 -0.3601  0.3572 -0.5882
   92SAPC  H14R 8869   1.863   0.716   5.701  2.5907 -0.4198  0.1759
   92SAPC  C215 8870   1.878   0.795   5.500  0.4049 -0.4462 -1.3020
   92SAPC  H15R 8871   1.830   0.709   5.450  2.2068 -1.7228 -0.9218
   92SAPC  C216 8872   1.927   0.904   5.402 -0.8700  0.7149  0.6212
   92SAPC  H16R 8873   2.036   0.893   5.384 -1.4396  0.1572 -3.3131
   92SAPC  H16S 8874   1.907   1.006   5.442  2.5474  1.8883 -0.3229
   92SAPC  C217 8875   1.868   0.889   5.261  0.1479  0.4039  0.8862
   92SAPC  H17R 8876   1.762   0.915   5.280  0.0621 -0.0443  1.0357
   92SAPC  H17S 8877   1.882   0.785   5.226  0.3968  1.1775 -1.4897
   92SAPC  C218 8878   1.923   0.974   5.152  0.1266 -0.4062 -0.1064
   92SAPC  H18R 8879   2.030   0.947   5.138  0.5399 -0.5731  2.8316
   92SAPC  H18S 8880   1.929   1.082   5.176  1.9891 -0.4172 -0.3679
   92SAPC  C219 8881   1.848   0.956   5.018 -0.3063 -0.1728 -0.3475
   92SAPC  H19R 8882   1.859   0.849   4.992  0.5277 -0.5265  1.3101
   92SAPC  H19S 8883   1.883   1.018   4.932  0.0403  0.9317  0.5703
   92SAPC  C220 8884   1.706   0.993   5.048 -0.1672 -0.1049 -0.6390
   92SAPC  H20R 8885   1.698   1.097   5.086  0.6858 -1.1793  2.8108
   92SAPC  H20S 8886   1.656   0.921   5.117  0.5615  1.6409  1.8659
   92SAPC  H20T 8887   1.638   0.995   4.960 -1.9155  2.2931  0.6303
   92SAPC   C33 8888   1.876   1.375   6.656 -0.0104 -0.4353 -0.3340
   92SAPC   H3X 8889   1.945   1.289   6.639  1.5131  0.5776  0.4238
   92SAPC   H3Y 8890   1.921   1.435   6.738 -3.1960  1.5929  0.0941
   92SAPC   C34 8891   1.861   1.469   6.534  0.0647  0.0421 -0.0994
   92SAPC   H4X 8892   1.929   1.556   6.544 -0.6640  0.5999  0.0581
   92SAPC   H4Y 8893   1.761   1.517   6.536 -0.2814 -0.7031  1.3115
   92SAPC   C35 8894   1.882   1.414   6.395 -0.0747 -0.1879 -0.0131
   92SAPC   H5X 8895   1.858   1.493   6.321 -0.5026 -1.4751 -1.2943
   92SAPC   H5Y 8896   1.812   1.329   6.379 -0.9400  0.6218 -0.6039
   92SAPC   C36 8897   2.023   1.359   6.373 -0.3038  1.0626 -0.7911
   92SAPC   H6X 8898   2.038   1.265   6.431 -4.3813  0.1078 -0.9859
   92SAPC   H6Y 8899   2.097   1.435   6.406 -1.0871  2.3167 -1.8065
   92SAPC   C37 8900   2.050   1.329   6.222  0.5154 -0.1845  0.2316
   92SAPC   H7X 8901   2.046   1.421   6.160 -0.7888 -0.4828 -0.1722
   92SAPC   H7Y 8902   1.967   1.262   6.190 -0.3227  1.6841 -1.7425
   92SAPC   C38 8903   2.183   1.260   6.207  0.1683  0.5521  0.7577
   92SAPC   H8X 8904   2.192   1.174   6.278  0.8836 -0.7784 -0.8793
   92SAPC   H8Y 8905   2.268   1.329   6.224  0.0278  0.5690  1.4320
   92SAPC   C39 8906   2.185   1.209   6.058  0.5096  0.4228 -0.1240
   92SAPC   H9X 8907   2.082   1.168   6.045  0.3132 -0.0086  2.2843
   92SAPC   H9Y 8908   2.251   1.120   6.049 -0.6642 -0.2779 -2.7724
   92SAPC  C310 8909   2.219   1.301   5.938 -0.0490 -0.8288 -0.6215
   92SAPC  H10X 8910   2.317   1.344   5.967 -1.0489  1.6264 -0.6962
   92SAPC  H10Y 8911   2.151   1.388   5.936  0.8431 -0.1001  0.1063
   92SAPC  C311 8912   2.233   1.234   5.804  0.3136 -0.0848  0.7013
   92SAPC  H11X 8913   2.131   1.195   5.782  1.3997 -2.1474 -1.0007
   92SAPC  H11Y 8914   2.306   1.150   5.803  1.8378  1.1841  1.4042
   92SAPC  C312 8915   2.292   1.332   5.702 -0.1125  0.3200  0.3950
   92SAPC  H12X 8916   2.376   1.378   5.758  0.5212  0.5205 -0.6727
   92SAPC  H12Y 8917   2.222   1.409   5.664  0.9750  0.6910 -0.9725
   92SAPC  C313 8918   2.362   1.274   5.576 -0.5556  0.4056 -0.5527
   92SAPC  H13X 8919   2.417   1.182   5.605  0.3729  0.3289 -2.4208
   92SAPC  H13Y 8920   2.442   1.341   5.540 -0.7430  1.4162  0.8297
   92SAPC  C314 8921   2.262   1.249   5.469  0.1202 -0.3893  0.3205
   92SAPC  H14X 8922   2.211   1.347   5.456 -2.1568 -1.4321  0.8688
   92SAPC  H14Y 8923   2.183   1.177   5.500 -1.1434  0.8798  0.1550
   92SAPC  C315 8924   2.318   1.194   5.336 -0.0577 -0.6351  0.0094
   92SAPC  H15X 8925   2.244   1.202   5.254 -0.0175  3.9703  0.1455
   92SAPC  H15Y 8926   2.363   1.093   5.345  2.4573  0.3114 -0.8113
   92SAPC  C316 8927   2.434   1.283   5.284 -0.0869 -0.1285  0.4750
   92SAPC  H16X 8928   2.519   1.254   5.348 -0.4510  1.8995  1.9960
   92SAPC  H16Y 8929   2.410   1.390   5.305 -0.4650  0.1503 -1.1999
   92SAPC  C317 8930   2.464   1.270   5.134 -0.0065  0.3171 -0.4695
   92SAPC  H17X 8931   2.551   1.333   5.108  1.2454 -0.2005  2.1072
   92SAPC  H17Y 8932   2.370   1.311   5.089 -1.1689 -0.9164  0.7298
   92SAPC  C318 8933   2.503   1.120   5.095  0.1144  0.2819  0.7910
   92SAPC  H18X 8934   2.530   1.110   4.988  1.3115 -1.0885  1.2059
   92SAPC  H18Y 8935   2.423   1.048   5.122 -2.2205  0.9091 -3.4244
   92SAPC  H18Z 8936   2.590   1.097   5.159  0.9899 -0.5554 -0.6491
   93SAPC     N 8937   2.663   2.940   7.160 -0.0128  0.2152 -0.3121
   93SAPC   C12 8938   2.743   2.989   7.285 -0.2433  0.4118  0.1034
   93SAPC  H12A 8939   2.705   2.947   7.377  0.7139 -2.3873 -0.6663
   93SAPC  H12B 8940   2.740   3.096   7.298  1.7127  0.4077  0.8930
   93SAPC   C13 8941   2.710   3.026   7.049 -0.5136 -0.0937  0.2792
   93SAPC  H13A 8942   2.669   3.125   7.060  0.3090  0.1934  0.8432
   93SAPC  H13B 8943   2.816   3.032   7.031 -1.0267  0.5867 -3.4260
   93SAPC  H13C 8944   2.672   2.985   6.956  0.6922 -2.4039  0.7185
   93SAPC   C14 8945   2.697   2.795   7.129  0.0395  0.2853  0.3027
   93SAPC  H14A 8946   2.803   2.791   7.107 -0.1385  1.0749 -0.8204
   93SAPC  H14B 8947   2.675   2.734   7.214 -1.1789  0.5575  0.2012
   93SAPC  H14C 8948   2.651   2.764   7.036 -0.7257 -0.7830  1.0239
   93SAPC   C15 8949   2.523   2.960   7.186 -0.5163  0.1613  0.3506
   93SAPC  H15A 8950   2.495   2.878   7.251  0.0249 -0.2942  0.0151
   93SAPC  H15B 8951   2.502   3.052   7.240  0.4260  1.3602 -1.2564
   93SAPC  H15C 8952   2.465   2.950   7.096  0.0430 -0.8980  0.1009
   93SAPC   C11 8953   2.891   2.958   7.293  0.6036 -0.2667  0.4742
   93SAPC  H11A 8954   2.929   3.035   7.364 -0.4197 -0.2181  0.9932
   93SAPC  H11B 8955   2.934   2.963   7.191  2.6110 -0.8300  1.2433
   93SAPC     P 8956   3.048   2.763   7.329  0.1595  0.1126 -0.0226
   93SAPC   O13 8957   3.152   2.824   7.410 -0.0358  0.1702  0.2508
   93SAPC   O14 8958   3.033   2.617   7.344  0.0308 -0.4900  0.0314
   93SAPC   O12 8959   2.908   2.830   7.348  0.2256  0.3663 -0.4349
   93SAPC   O11 8960   3.070   2.793   7.171  0.3799  0.5285 -0.4258
   93SAPC    C1 8961   3.157   2.710   7.099 -0.5194 -0.1392  0.4433
   93SAPC    HA 8962   3.261   2.748   7.095  0.0357 -1.7056 -2.0323
   93SAPC    HB 8963   3.165   2.606   7.138 -0.1824  0.6251  2.4965
   93SAPC    C2 8964   3.107   2.693   6.947  0.0640  0.0777  0.2798
   93SAPC    HS 8965   3.172   2.622   6.891 -2.4879 -4.1276  2.0954
   93SAPC   O21 8966   3.097   2.822   6.875  0.5688 -0.0363  0.3912
   93SAPC   C21 8967   3.212   2.880   6.834  0.0531  0.5476  0.3405
   93SAPC   O22 8968   3.321   2.842   6.869  0.0180 -0.4981 -0.1220
   93SAPC   C22 8969   3.186   3.009   6.760  0.0078 -0.3266  0.6036
   93SAPC   H2R 8970   3.079   3.022   6.734  0.0402  1.2789  1.1662
   93SAPC   H2S 8971   3.210   3.080   6.842 -2.3352  1.2386  0.0107
   93SAPC    C3 8972   2.970   2.616   6.933 -0.1486  0.4124 -0.1828
   93SAPC    HX 8973   2.896   2.666   7.000 -1.0286  0.2342 -1.0096
   93SAPC    HY 8974   2.983   2.519   6.985  0.2534  1.8682  2.6726
   93SAPC   O31 8975   2.940   2.591   6.791 -0.1490  0.3784  0.1981
   93SAPC   C31 8976   2.862   2.681   6.736  1.4193  0.6220  0.3823
   93SAPC   O32 8977   2.824   2.782   6.796 -0.5014 -0.7923 -0.0846
   93SAPC   C32 8978   2.824   2.645   6.591  0.1638 -0.4756  0.4676
   93SAPC   H2X 8979   2.726   2.689   6.563 -0.2243 -0.9058  1.1283
   93SAPC   H2Y 8980   2.812   2.534   6.591  1.6745 -0.6886  2.1743
   93SAPC   C23 8981   3.281   3.024   6.643 -0.9552 -0.2640  0.9834
   93SAPC   H3R 8982   3.241   2.957   6.563 -2.6156  1.4654  0.3009
   93SAPC   H3S 8983   3.389   3.009   6.666 -0.2267  3.0125  0.1648
   93SAPC   C24 8984   3.274   3.165   6.587  0.4903 -0.4992  0.8387
   93SAPC   H4R 8985   3.354   3.186   6.513 -0.1497 -0.6830  0.0794
   93SAPC   H4S 8986   3.286   3.231   6.675 -0.5506 -0.5950  1.0587
   93SAPC   C25 8987   3.143   3.202   6.520  0.5135 -0.6692 -0.4280
   93SAPC   H5R 8988   3.073   3.253   6.587  2.2443 -0.6304  1.4217
   93SAPC   C26 8989   3.114   3.188   6.391  0.0109  0.1236 -0.1243
   93SAPC   H6R 8990   3.023   3.228   6.344  1.7584  3.3177 -1.0769
   93SAPC   C27 8991   3.196   3.114   6.289  0.3261 -0.2916  0.2385
   93SAPC   H7R 8992   3.149   3.014   6.274  0.4314 -0.2807 -0.1642
   93SAPC   H7S 8993   3.297   3.092   6.332  1.0137 -1.9054 -2.0224
   93SAPC   C28 8994   3.221   3.175   6.151 -0.3570 -0.6437 -0.6286
   93SAPC   H8R 8995   3.226   3.285   6.146  4.1110 -0.7455 -2.6266
   93SAPC   C29 8996   3.228   3.110   6.033  0.4739 -0.3565 -0.9865
   93SAPC   H9R 8997   3.236   3.165   5.938  0.8124 -0.5832 -1.0872
   93SAPC  C210 8998   3.231   2.963   6.003  0.9557  0.8819 -0.3729
   93SAPC  H10R 8999   3.143   2.957   5.935  1.5335  0.9293 -1.1446
   93SAPC  H10S 9000   3.215   2.901   6.094 -0.2533 -0.0483 -1.1739
   93SAPC  C211 9001   3.355   2.908   5.927 -0.0442  0.6105 -0.2663
   93SAPC  H11R 9002   3.448   2.924   5.984 -0.0848 -1.5596  0.4876
   93SAPC  C212 9003   3.370   2.884   5.798  0.1362  0.3376  0.5019
   93SAPC  H12R 9004   3.468   2.850   5.762 -0.9358 -0.5552 -1.7655
   93SAPC  C213 9005   3.260   2.889   5.691 -0.2475 -0.3223 -0.3548
   93SAPC  H13R 9006   3.159   2.886   5.738 -0.3590 -0.0644 -0.5796
   93SAPC  H13S 9007   3.263   2.792   5.637  0.8852 -1.0931  1.0241
   93SAPC  C214 9008   3.264   3.005   5.596 -0.1793  0.3542 -0.2153
   93SAPC  H14R 9009   3.288   3.099   5.648 -1.8696 -0.2406  1.7621
   93SAPC  C215 9010   3.239   2.993   5.460  0.1339  0.2021 -0.5655
   93SAPC  H15R 9011   3.239   3.089   5.407 -0.1973  1.1429  1.0488
   93SAPC  C216 9012   3.218   2.874   5.371 -0.1305 -0.2608 -0.3676
   93SAPC  H16R 9013   3.152   2.794   5.412  0.8000 -1.8364 -1.7606
   93SAPC  H16S 9014   3.312   2.816   5.358 -0.2491 -0.8600  1.2948
   93SAPC  C217 9015   3.181   2.907   5.225  0.4998 -0.0346  0.1902
   93SAPC  H17R 9016   3.096   2.977   5.216 -0.8303 -1.6708 -0.6157
   93SAPC  H17S 9017   3.131   2.821   5.176  1.2716 -0.4001  0.0275
   93SAPC  C218 9018   3.295   2.967   5.135 -0.3267  0.0454  0.2990
   93SAPC  H18R 9019   3.371   2.889   5.112 -0.6005 -0.0134 -0.4566
   93SAPC  H18S 9020   3.356   3.039   5.193 -1.0722  0.8949  0.0502
   93SAPC  C219 9021   3.260   3.043   5.003 -0.6060  0.1632  0.6321
   93SAPC  H19R 9022   3.165   3.099   5.017 -0.6077  0.1845  0.5381
   93SAPC  H19S 9023   3.250   2.964   4.926  0.6328 -2.2854  2.8166
   93SAPC  C220 9024   3.367   3.130   4.944 -0.8170  0.3543 -0.3502
   93SAPC  H20R 9025   3.462   3.071   4.948 -0.0653  1.5127 -0.7358
   93SAPC  H20S 9026   3.383   3.229   4.991  0.5729  0.4270 -0.9163
   93SAPC  H20T 9027   3.337   3.153   4.840 -0.5859  0.1059 -0.4743
   93SAPC   C33 9028   2.937   2.690   6.494  0.0905 -0.1626 -0.4240
   93SAPC   H3X 9029   3.035   2.645   6.521  0.5015  0.7195 -0.4329
   93SAPC   H3Y 9030   2.943   2.801   6.491 -1.0645  0.0037  1.3773
   93SAPC   C34 9031   2.905   2.642   6.351  0.2286 -0.2573 -0.0858
   93SAPC   H4X 9032   2.801   2.675   6.328  0.6198  1.4313  0.4492
   93SAPC   H4Y 9033   2.896   2.531   6.349  0.7211 -0.3472  1.3588
   93SAPC   C35 9034   2.994   2.706   6.248 -0.1933 -0.1316 -0.2177
   93SAPC   H5X 9035   3.099   2.689   6.281 -0.4969 -1.3490  0.2099
   93SAPC   H5Y 9036   2.971   2.814   6.258  1.5535  0.1327  1.6810
   93SAPC   C36 9037   2.972   2.650   6.105 -0.7598 -0.3734  0.0299
   93SAPC   H6X 9038   2.965   2.540   6.111  0.2177 -0.3887  1.5728
   93SAPC   H6Y 9039   3.053   2.674   6.032  0.6959 -1.0219  1.3517
   93SAPC   C37 9040   2.839   2.691   6.043 -0.1650 -0.6858 -0.2092
   93SAPC   H7X 9041   2.836   2.801   6.027  1.4204 -0.2086  2.2040
   93SAPC   H7Y 9042   2.752   2.658   6.105 -0.7816 -2.2659 -1.8349
   93SAPC   C38 9043   2.803   2.620   5.912  0.2208  0.9313  0.7897
   93SAPC   H8X 9044   2.730   2.688   5.863 -0.8190 -2.0600 -2.2144
   93SAPC   H8Y 9045   2.744   2.527   5.925  1.1494  0.1863 -0.2028
   93SAPC   C39 9046   2.918   2.597   5.811  0.2212  0.5705  0.3256
   93SAPC   H9X 9047   2.984   2.510   5.831  1.5257  1.4043 -0.1824
   93SAPC   H9Y 9048   2.981   2.687   5.794 -0.2213  0.5426 -1.8719
   93SAPC  C310 9049   2.857   2.571   5.670 -0.5556  0.1638 -0.7104
   93SAPC  H10X 9050   2.799   2.663   5.645 -0.0147  0.3657 -1.2628
   93SAPC  H10Y 9051   2.780   2.491   5.677  0.1376 -0.4891 -0.4232
   93SAPC  C311 9052   2.958   2.558   5.558  0.7678  0.4428  0.2045
   93SAPC  H11X 9053   3.026   2.474   5.582  1.5346  1.3113  1.1962
   93SAPC  H11Y 9054   3.013   2.654   5.548  0.2789  0.7311  0.2094
   93SAPC  C312 9055   2.884   2.542   5.427 -0.3515 -0.0173  0.5887
   93SAPC  H12X 9056   2.819   2.631   5.415  0.0225  0.4222  1.6482
   93SAPC  H12Y 9057   2.813   2.457   5.420  0.8132 -1.0904  1.2679
   93SAPC  C313 9058   2.974   2.534   5.307 -0.1685  0.1945 -0.1900
   93SAPC  H13X 9059   3.051   2.458   5.331 -0.1434  0.5408  0.8794
   93SAPC  H13Y 9060   3.017   2.636   5.293 -0.5401  0.3694 -0.0827
   93SAPC  C314 9061   2.897   2.484   5.184 -0.0035 -0.0311  0.3434
   93SAPC  H14X 9062   2.839   2.574   5.154  0.6780 -1.0802 -5.1725
   93SAPC  H14Y 9063   2.838   2.392   5.207 -1.0558 -0.2827 -2.9114
   93SAPC  C315 9064   2.988   2.443   5.066 -0.2630  0.8073  0.3722
   93SAPC  H15X 9065   3.090   2.412   5.099 -0.2857  1.2838  0.9091
   93SAPC  H15Y 9066   3.018   2.526   4.998  1.0497  1.1761  1.3689
   93SAPC  C316 9067   2.935   2.320   4.990 -0.1804  0.4037  0.4598
   93SAPC  H16X 9068   2.937   2.228   5.052  0.4734 -0.2578 -0.5271
   93SAPC  H16Y 9069   3.006   2.287   4.912 -1.4558  0.1158 -0.5953
   93SAPC  C317 9070   2.799   2.340   4.938  0.1262 -0.2677  0.1252
   93SAPC  H17X 9071   2.733   2.334   5.027  1.2919  1.5735  1.1845
   93SAPC  H17Y 9072   2.764   2.272   4.857 -1.1478  1.7792 -1.1458
   93SAPC  C318 9073   2.781   2.481   4.870 -0.3917  0.5797  0.9525
   93SAPC  H18X 9074   2.777   2.561   4.947  0.8279  0.7627  0.8569
   93SAPC  H18Y 9075   2.692   2.480   4.804  0.0390 -0.4748  0.3646
   93SAPC  H18Z 9076   2.866   2.506   4.803 -0.7389  1.3743  0.7945
   94SAPC     N 9077   1.636   6.185   7.271  0.7200 -0.1873  0.2634
   94SAPC   C12 9078   1.507   6.105   7.240 -0.1442 -0.2970  0.1561
   94SAPC  H12A 9079   1.428   6.178   7.245  1.2016  1.4657 -2.0026
   94SAPC  H12B 9080   1.494   6.036   7.322  0.9109  0.0997  0.6874
   94SAPC   C13 9081   1.652   6.289   7.163  0.7494 -1.2058 -0.3783
   94SAPC  H13A 9082   1.567   6.355   7.164 -0.8957 -3.1536 -1.8545
   94SAPC  H13B 9083   1.744   6.343   7.180  0.4635 -1.2063  1.3229
   94SAPC  H13C 9084   1.655   6.241   7.066 -0.8488 -0.3912 -0.8727
   94SAPC   C14 9085   1.625   6.258   7.406  0.0629  0.4852  0.3259
   94SAPC  H14A 9086   1.711   6.321   7.421  0.3286  0.4649 -0.9628
   94SAPC  H14B 9087   1.541   6.327   7.403  1.7840  2.6523 -0.8814
   94SAPC  H14C 9088   1.609   6.190   7.488 -0.9874  1.6961  1.1711
   94SAPC   C15 9089   1.757   6.099   7.272 -0.5505 -0.6664  0.4722
   94SAPC  H15A 9090   1.763   6.022   7.347  0.8428  0.5781  1.7227
   94SAPC  H15B 9091   1.773   6.049   7.178  1.1962  2.3560 -1.0130
   94SAPC  H15C 9092   1.846   6.160   7.275  0.3923 -1.8254 -1.6900
   94SAPC   C11 9093   1.510   6.035   7.109  0.0154 -0.5708  0.7776
   94SAPC  H11A 9094   1.583   5.951   7.110 -0.2612 -0.8183  0.5692
   94SAPC  H11B 9095   1.529   6.101   7.021  0.6001 -0.8465  0.6883
   94SAPC     P 9096   1.242   6.029   7.065 -0.1790 -0.0512  0.0712
   94SAPC   O13 9097   1.147   5.929   7.101 -0.2546 -0.0361 -0.3372
   94SAPC   O14 9098   1.223   6.167   7.123  0.1857  0.4462  0.1310
   94SAPC   O12 9099   1.388   5.963   7.094  1.1344 -0.8078 -0.2946
   94SAPC   O11 9100   1.229   6.049   6.903  0.2120 -0.4259 -0.0717
   94SAPC    C1 9101   1.346   6.014   6.831 -0.4061  0.4463  0.7591
   94SAPC    HA 9102   1.434   6.080   6.848 -0.8815  0.9440  1.3521
   94SAPC    HB 9103   1.377   5.909   6.849 -2.0259  0.2395  2.7268
   94SAPC    C2 9104   1.313   6.038   6.681  0.7260 -0.1452 -0.8128
   94SAPC    HS 9105   1.406   6.038   6.621  1.9048  1.3931  0.8878
   94SAPC   O21 9106   1.250   6.164   6.667 -0.1993 -0.0950 -0.0714
   94SAPC   C21 9107   1.332   6.266   6.653  0.6142 -0.2879 -0.6480
   94SAPC   O22 9108   1.450   6.262   6.669 -0.3733 -0.2326  0.3509
   94SAPC   C22 9109   1.267   6.388   6.591 -0.0433  0.3350  0.0789
   94SAPC   H2R 9110   1.176   6.400   6.654 -0.1763 -0.4489  0.0411
   94SAPC   H2S 9111   1.342   6.470   6.592  0.9394 -0.5497  0.1618
   94SAPC    C3 9112   1.220   5.919   6.648  0.6153 -0.6611  0.5565
   94SAPC    HX 9113   1.124   5.930   6.704 -0.9330 -1.3311 -1.8089
   94SAPC    HY 9114   1.268   5.822   6.670  0.9622 -1.0641 -1.7320
   94SAPC   O31 9115   1.177   5.925   6.506  0.0628  0.0759 -0.0881
   94SAPC   C31 9116   1.251   5.875   6.412 -0.5182 -0.5601  0.7388
   94SAPC   O32 9117   1.365   5.828   6.432  0.1982  0.0136  0.3669
   94SAPC   C32 9118   1.180   5.888   6.274 -0.2771  0.3535  0.3300
   94SAPC   H2X 9119   1.217   5.982   6.228  0.3540 -0.3149 -0.5638
   94SAPC   H2Y 9120   1.073   5.905   6.298 -0.2959  0.9611 -0.1598
   94SAPC   C23 9121   1.208   6.364   6.449  0.4145 -0.2291  0.3384
   94SAPC   H3R 9122   1.131   6.439   6.419  1.4772  0.4413 -0.8240
   94SAPC   H3S 9123   1.141   6.275   6.457 -1.4167  1.1647  1.3067
   94SAPC   C24 9124   1.313   6.362   6.338  1.0650 -0.8325  0.1879
   94SAPC   H4R 9125   1.373   6.454   6.356  1.5737 -0.5752 -2.4756
   94SAPC   H4S 9126   1.253   6.384   6.247 -1.3736 -1.3071  1.5847
   94SAPC   C25 9127   1.389   6.237   6.324 -0.4255  1.0574  0.3674
   94SAPC   H5R 9128   1.448   6.202   6.410 -1.9049 -1.5897  0.3952
   94SAPC   C26 9129   1.430   6.164   6.214  0.1217 -0.7565 -0.6459
   94SAPC   H6R 9130   1.492   6.074   6.226 -0.9297 -1.1811  2.5902
   94SAPC   C27 9131   1.411   6.207   6.073  0.4416 -0.7352  0.2860
   94SAPC   H7R 9132   1.500   6.272   6.066  0.1264 -0.1529  1.4795
   94SAPC   H7S 9133   1.329   6.277   6.049  0.1489 -1.8178 -2.2377
   94SAPC   C28 9134   1.410   6.097   5.973 -0.3641 -0.2893  0.2628
   94SAPC   H8R 9135   1.509   6.050   5.968  0.8318  2.0595  0.6919
   94SAPC   C29 9136   1.313   6.063   5.889  0.3300 -0.1305 -0.1455
   94SAPC   H9R 9137   1.340   5.984   5.817  2.1665  0.8019 -0.5314
   94SAPC  C210 9138   1.176   6.120   5.885 -0.0408 -0.1284 -0.3360
   94SAPC  H10R 9139   1.184   6.204   5.812  1.8142  0.3448  0.3687
   94SAPC  H10S 9140   1.166   6.176   5.981  1.1528 -1.4951  0.6277
   94SAPC  C211 9141   1.061   6.026   5.851  0.0965 -0.2645  0.2093
   94SAPC  H11R 9142   1.025   5.965   5.935 -1.4164 -1.1068 -0.9707
   94SAPC  C212 9143   1.020   5.990   5.731 -0.5449  0.2610  0.9366
   94SAPC  H12R 9144   0.934   5.923   5.720 -1.6731  1.6759  0.7518
   94SAPC  C213 9145   1.063   6.056   5.601 -0.0732  0.1109  0.2161
   94SAPC  H13R 9146   1.141   6.134   5.613 -1.3407  1.2348  1.5919
   94SAPC  H13S 9147   0.973   6.115   5.573 -0.6967 -0.4795  0.9312
   94SAPC  C214 9148   1.116   5.972   5.483 -0.2189 -0.2973 -0.0101
   94SAPC  H14R 9149   1.221   5.944   5.501 -0.3486  0.1424  1.6382
   94SAPC  C215 9150   1.041   5.926   5.380  0.0208  0.1505  0.7887
   94SAPC  H15R 9151   1.090   5.871   5.299  0.6825  0.1168  1.2090
   94SAPC  C216 9152   0.889   5.936   5.356 -0.4719 -0.2258 -0.3778
   94SAPC  H16R 9153   0.835   5.962   5.450 -1.5437 -0.5155 -0.8982
   94SAPC  H16S 9154   0.862   5.831   5.335  2.7497 -1.0532 -0.9168
   94SAPC  C217 9155   0.834   6.026   5.242 -0.8714 -0.4588  0.1509
   94SAPC  H17R 9156   0.876   5.986   5.147  1.4366 -0.0600  0.9539
   94SAPC  H17S 9157   0.860   6.134   5.251 -4.0487  0.4759 -0.3820
   94SAPC  C218 9158   0.684   6.021   5.222  0.4032  0.1394  0.5013
   94SAPC  H18R 9159   0.632   6.051   5.315 -1.1063 -1.4554  0.2156
   94SAPC  H18S 9160   0.656   5.917   5.196 -1.0776  0.4257  0.8935
   94SAPC  C219 9161   0.625   6.118   5.114 -0.2933  0.4443 -0.1039
   94SAPC  H19R 9162   0.655   6.224   5.127 -1.4042  0.7315  0.2696
   94SAPC  H19S 9163   0.515   6.119   5.131 -0.2004 -1.0782  0.7453
   94SAPC  C220 9164   0.656   6.074   4.970 -0.2032 -0.3664  0.2856
   94SAPC  H20R 9165   0.570   6.103   4.907  0.5032 -1.4167 -1.2081
   94SAPC  H20S 9166   0.674   5.966   4.985 -0.9917 -0.2570  2.4360
   94SAPC  H20T 9167   0.754   6.123   4.950  0.1182 -0.1922  2.0703
   94SAPC   C33 9168   1.177   5.766   6.191 -0.8423  0.8358 -0.1790
   94SAPC   H3X 9169   1.277   5.737   6.153 -2.0590 -4.0417 -0.3916
   94SAPC   H3Y 9170   1.122   5.791   6.098 -1.0732  1.0271  0.0085
   94SAPC   C34 9171   1.135   5.637   6.262 -0.1250 -0.6537 -0.2878
   94SAPC   H4X 9172   1.024   5.632   6.266 -0.2739  1.3379  4.8170
   94SAPC   H4Y 9173   1.174   5.642   6.365 -0.3671  2.1437 -0.2538
   94SAPC   C35 9174   1.170   5.501   6.201  0.3530  0.5614  0.8813
   94SAPC   H5X 9175   1.103   5.427   6.250 -1.5322  1.3775 -0.3253
   94SAPC   H5Y 9176   1.273   5.486   6.239 -0.3707 -0.8585  2.3974
   94SAPC   C36 9177   1.170   5.493   6.049  0.3388  0.0792  0.4713
   94SAPC   H6X 9178   1.192   5.387   6.028  1.2055  0.5642 -1.2019
   94SAPC   H6Y 9179   1.253   5.553   6.007  0.2305 -0.2052 -0.1537
   94SAPC   C37 9180   1.039   5.525   5.978 -0.7231  1.2176 -0.3764
   94SAPC   H7X 9181   0.994   5.616   6.023 -1.6281  0.2517  0.7311
   94SAPC   H7Y 9182   0.963   5.445   5.989 -0.6049  0.5283 -3.6906
   94SAPC   C38 9183   1.054   5.549   5.825 -1.1336 -0.0807  0.3960
   94SAPC   H8X 9184   1.087   5.454   5.779 -1.0803 -0.0903  0.4544
   94SAPC   H8Y 9185   1.125   5.630   5.797 -0.4377 -1.0089 -0.5790
   94SAPC   C39 9186   0.925   5.593   5.761 -0.4284 -0.8665  0.5167
   94SAPC   H9X 9187   0.894   5.681   5.821  0.7786  2.6506 -3.4983
   94SAPC   H9Y 9188   0.845   5.520   5.786  0.0233 -0.9024  1.9813
   94SAPC  C310 9189   0.937   5.624   5.609 -0.2593 -0.1952 -0.2576
   94SAPC  H10X 9190   1.008   5.707   5.588 -0.6563 -0.2016 -1.7435
   94SAPC  H10Y 9191   0.834   5.655   5.582 -0.6301 -1.6812 -0.6505
   94SAPC  C311 9192   0.967   5.511   5.505 -0.9845  0.0786 -0.2238
   94SAPC  H11X 9193   0.987   5.413   5.553 -0.7923 -0.7009 -1.8101
   94SAPC  H11Y 9194   1.065   5.525   5.454  0.3344 -0.6071  2.0077
   94SAPC  C312 9195   0.858   5.492   5.395 -0.6012  0.3048  0.3551
   94SAPC  H12X 9196   0.835   5.595   5.358 -0.0900  0.0962 -0.5638
   94SAPC  H12Y 9197   0.764   5.462   5.446 -1.9501  0.0599 -2.1597
   94SAPC  C313 9198   0.908   5.393   5.286  0.4700 -0.4007  0.5432
   94SAPC  H13X 9199   0.948   5.311   5.349  1.8427 -1.0079 -1.0361
   94SAPC  H13Y 9200   0.994   5.430   5.226  0.3890 -1.2147 -0.0921
   94SAPC  C314 9201   0.785   5.354   5.187  0.3739  0.2448  0.1333
   94SAPC  H14X 9202   0.687   5.382   5.231 -1.0027 -1.2215 -1.7861
   94SAPC  H14Y 9203   0.789   5.243   5.175 -1.6216  0.0207  1.1141
   94SAPC  C315 9204   0.794   5.410   5.044 -0.0732 -0.2584 -0.3424
   94SAPC  H15X 9205   0.704   5.380   4.985  0.8109 -1.2675 -1.2245
   94SAPC  H15Y 9206   0.880   5.364   4.990 -0.2238 -1.9919  0.8117
   94SAPC  C316 9207   0.820   5.557   5.037 -0.0525  0.1796  0.2831
   94SAPC  H16X 9208   0.896   5.590   5.111  1.3535 -0.2429 -0.9419
   94SAPC  H16Y 9209   0.725   5.604   5.073  0.2672 -0.0675  1.4868
   94SAPC  C317 9210   0.861   5.610   4.901  0.4195  0.1032 -0.2533
   94SAPC  H17X 9211   0.778   5.576   4.835 -0.2014 -0.0343  0.5858
   94SAPC  H17Y 9212   0.955   5.563   4.864  0.5703 -0.3799  0.7257
   94SAPC  C318 9213   0.874   5.765   4.889  0.0038  0.4951  0.6762
   94SAPC  H18X 9214   0.777   5.816   4.908 -0.1217  1.2332 -1.6689
   94SAPC  H18Y 9215   0.906   5.795   4.787  3.0501 -1.6934  0.8285
   94SAPC  H18Z 9216   0.946   5.802   4.965  0.1475  0.9778  0.3071
   95SAPC     N 9217   5.045   3.245   2.279 -0.0133 -0.2580 -0.5964
   95SAPC   C12 9218   5.043   3.100   2.263  0.1692  0.1200  0.5176
   95SAPC  H12A 9219   5.142   3.066   2.237 -0.1595 -0.5498  0.1140
   95SAPC  H12B 9220   4.986   3.087   2.173  0.6641 -0.9039  0.3405
   95SAPC   C13 9221   5.153   3.280   2.375 -0.3165 -0.1187  0.6310
   95SAPC  H13A 9222   5.152   3.386   2.393 -0.2281 -0.3308  1.9685
   95SAPC  H13B 9223   5.152   3.221   2.466  0.8376 -2.6350 -0.8620
   95SAPC  H13C 9224   5.252   3.268   2.334  0.4124 -0.0681  2.3267
   95SAPC   C14 9225   5.084   3.310   2.145  0.7223  0.3187 -0.2834
   95SAPC  H14A 9226   5.174   3.272   2.098  1.2413  1.0231  0.1150
   95SAPC  H14B 9227   4.997   3.315   2.082  0.7073  3.3943 -0.1642
   95SAPC  H14C 9228   5.104   3.413   2.169 -0.0778  0.5168 -0.4388
   95SAPC   C15 9229   4.908   3.298   2.314 -0.0212 -0.1695 -0.7965
   95SAPC  H15A 9230   4.898   3.288   2.421 -1.0357 -0.1279 -0.8743
   95SAPC  H15B 9231   4.904   3.404   2.292 -2.4438 -0.0447 -0.0321
   95SAPC  H15C 9232   4.821   3.254   2.267  1.2576 -3.7356 -0.1206
   95SAPC   C11 9233   4.975   3.006   2.359 -0.0520  0.6532  0.0193
   95SAPC  H11A 9234   5.011   2.903   2.337 -0.2047  0.5032  0.4478
   95SAPC  H11B 9235   4.867   3.002   2.333 -1.0407 -0.9769  3.6525
   95SAPC     P 9236   4.935   2.962   2.605  0.4052  0.0395 -0.0504
   95SAPC   O13 9237   4.957   2.820   2.570  0.1480  0.7539 -0.2002
   95SAPC   O14 9238   4.982   3.014   2.734  0.2559  0.8113 -0.2452
   95SAPC   O12 9239   4.991   3.055   2.495  0.3780  0.0262  0.6496
   95SAPC   O11 9240   4.783   2.994   2.591 -0.1253  0.2732  0.2064
   95SAPC    C1 9241   4.678   2.925   2.664  0.6170  0.2204 -0.1008
   95SAPC    HA 9242   4.582   2.934   2.609 -0.0252 -0.9631  0.7814
   95SAPC    HB 9243   4.696   2.817   2.679 -1.1524  0.2418  3.2227
   95SAPC    C2 9244   4.650   2.976   2.806 -0.0620 -0.3045  0.6597
   95SAPC    HS 9245   4.639   3.084   2.784  0.2671 -0.5092 -0.5442
   95SAPC   O21 9246   4.756   2.946   2.892 -0.4353 -0.3834 -0.1765
   95SAPC   C21 9247   4.781   3.039   2.987  0.6959 -0.2629  0.0258
   95SAPC   O22 9248   4.712   3.141   2.992 -0.2182  0.0880  0.1154
   95SAPC   C22 9249   4.908   3.004   3.071  0.0066  0.1812  0.0592
   95SAPC   H2R 9250   4.861   2.980   3.168  2.8676 -0.2698  1.4312
   95SAPC   H2S 9251   4.950   2.906   3.040 -2.0422  0.0170 -2.5684
   95SAPC    C3 9252   4.505   2.924   2.854  0.2860  0.3973 -0.4679
   95SAPC    HX 9253   4.522   2.814   2.860  0.2663  0.4168  0.0161
   95SAPC    HY 9254   4.427   2.946   2.777 -0.4873  1.1512  0.4985
   95SAPC   O31 9255   4.472   2.974   2.983  0.5214 -0.2722  0.1528
   95SAPC   C31 9256   4.406   3.087   2.992  1.0237 -0.1641  0.5154
   95SAPC   O32 9257   4.391   3.170   2.901  0.4026  0.0634 -0.1163
   95SAPC   C32 9258   4.352   3.118   3.134  0.0778  0.1682  0.2469
   95SAPC   H2X 9259   4.245   3.088   3.134 -0.0140  0.4836  0.8884
   95SAPC   H2Y 9260   4.349   3.229   3.141  0.6803  0.3208 -1.3974
   95SAPC   C23 9261   5.016   3.116   3.110 -0.2099  0.3387  0.0892
   95SAPC   H3R 9262   4.962   3.211   3.131 -0.0074 -0.0670  2.6720
   95SAPC   H3S 9263   5.077   3.132   3.018 -0.5146  0.0930 -0.1590
   95SAPC   C24 9264   5.111   3.086   3.227 -0.2554 -0.2278  1.2573
   95SAPC   H4R 9265   5.064   3.092   3.327  0.8190  0.8677  1.7279
   95SAPC   H4S 9266   5.189   3.165   3.233  0.0902 -0.5017  0.4516
   95SAPC   C25 9267   5.180   2.952   3.210  1.2384 -0.1349 -0.5647
   95SAPC   H5R 9268   5.190   2.921   3.105 -0.9647  0.5123 -1.0159
   95SAPC   C26 9269   5.210   2.857   3.307 -0.8051  0.0460 -0.4154
   95SAPC   H6R 9270   5.250   2.761   3.271  0.6613  0.3691  0.3056
   95SAPC   C27 9271   5.174   2.843   3.453 -0.0811 -0.5115 -0.0470
   95SAPC   H7R 9272   5.212   2.747   3.495 -0.7406 -1.3219 -1.2443
   95SAPC   H7S 9273   5.063   2.839   3.444  0.0102  1.1530 -2.9664
   95SAPC   C28 9274   5.219   2.956   3.539 -0.1710  0.3314  0.5647
   95SAPC   H8R 9275   5.227   3.050   3.483 -0.8051 -0.0104 -0.1190
   95SAPC   C29 9276   5.228   2.960   3.668 -0.0337  0.4825 -0.1312
   95SAPC   H9R 9277   5.273   3.044   3.723  1.6913 -0.9446  0.7383
   95SAPC  C210 9278   5.194   2.849   3.768 -0.1356  0.2705  0.0003
   95SAPC  H10R 9279   5.150   2.759   3.720 -0.8295  0.5800  0.0467
   95SAPC  H10S 9280   5.120   2.899   3.835  0.4983  0.7413  0.3647
   95SAPC  C211 9281   5.318   2.805   3.836  0.4887  0.4000 -0.0108
   95SAPC  H11R 9282   5.409   2.800   3.775  0.8081 -1.5053  0.5341
   95SAPC  C212 9283   5.319   2.751   3.961  0.2648  0.5508  0.0529
   95SAPC  H12R 9284   5.412   2.716   4.007 -1.4483 -0.6916  2.7929
   95SAPC  C213 9285   5.206   2.745   4.052 -0.6127  0.0705 -0.9377
   95SAPC  H13R 9286   5.180   2.639   4.073 -0.6508  0.4403  1.1192
   95SAPC  H13S 9287   5.107   2.783   4.018 -0.6047  2.2610  1.2042
   95SAPC  C214 9288   5.246   2.814   4.179  0.2438 -0.2059 -0.2876
   95SAPC  H14R 9289   5.314   2.898   4.160 -0.4024 -0.0126 -1.9070
   95SAPC  C215 9290   5.212   2.783   4.305 -0.3151 -0.4780  0.0329
   95SAPC  H15R 9291   5.249   2.841   4.390 -0.6042 -0.6966  0.3099
   95SAPC  C216 9292   5.106   2.678   4.337 -0.0177 -0.1895  0.0374
   95SAPC  H16R 9293   5.112   2.602   4.256  0.4404 -1.4925  1.2448
   95SAPC  H16S 9294   5.003   2.718   4.343 -0.0747 -0.4804  1.6100
   95SAPC  C217 9295   5.113   2.601   4.472  0.0991  0.0962  0.1593
   95SAPC  H17R 9296   5.016   2.551   4.490 -0.9923  1.5837 -1.2143
   95SAPC  H17S 9297   5.114   2.676   4.554  1.0092  0.3726 -0.0936
   95SAPC  C218 9298   5.223   2.489   4.475 -0.0497 -0.0125  0.7567
   95SAPC  H18R 9299   5.325   2.533   4.463  0.1428 -0.8386 -0.8718
   95SAPC  H18S 9300   5.202   2.425   4.387 -0.8836  2.7562 -1.1656
   95SAPC  C219 9301   5.249   2.408   4.601 -0.1982  0.4795  0.5628
   95SAPC  H19R 9302   5.325   2.330   4.578 -1.0902 -0.3580  0.3784
   95SAPC  H19S 9303   5.153   2.355   4.622 -0.3557  0.3097 -0.5436
   95SAPC  C220 9304   5.296   2.489   4.723  0.1103 -0.1222  0.0887
   95SAPC  H20R 9305   5.208   2.502   4.790 -0.6173  0.9300 -1.0343
   95SAPC  H20S 9306   5.341   2.589   4.704 -0.0463 -0.1688 -0.5658
   95SAPC  H20T 9307   5.374   2.430   4.776  2.2703  0.2750 -2.4365
   95SAPC   C33 9308   4.433   3.069   3.253 -0.2755  0.3657 -0.1304
   95SAPC   H3X 9309   4.537   3.087   3.217 -0.0850 -0.1290  0.1567
   95SAPC   H3Y 9310   4.427   2.960   3.272  0.5568  0.0789 -1.3784
   95SAPC   C34 9311   4.394   3.150   3.379 -0.5420  0.8712 -0.0126
   95SAPC   H4X 9312   4.283   3.157   3.375 -0.6237 -0.1410  0.0415
   95SAPC   H4Y 9313   4.437   3.252   3.380  0.9215  0.3030 -0.9274
   95SAPC   C35 9314   4.439   3.080   3.508 -0.1577 -0.0171 -0.4780
   95SAPC   H5X 9315   4.544   3.045   3.506 -0.3059 -0.4893 -0.3426
   95SAPC   H5Y 9316   4.379   2.986   3.518 -1.0608  0.4704 -1.1791
   95SAPC   C36 9317   4.413   3.166   3.633  0.0593  0.2094  0.4035
   95SAPC   H6X 9318   4.310   3.205   3.640  0.2534  0.9258 -0.5090
   95SAPC   H6Y 9319   4.492   3.244   3.620  1.0804 -1.0120 -1.0117
   95SAPC   C37 9320   4.449   3.083   3.762 -1.1124  0.5789  0.2100
   95SAPC   H7X 9321   4.555   3.049   3.764 -1.2085  0.2979  0.5699
   95SAPC   H7Y 9322   4.393   2.987   3.765  0.1868 -0.1969  0.6398
   95SAPC   C38 9323   4.426   3.153   3.898 -0.0856 -0.2021  0.8762
   95SAPC   H8X 9324   4.318   3.177   3.895  0.3903  2.1930  0.9327
   95SAPC   H8Y 9325   4.485   3.247   3.905 -1.1239  1.0388 -3.7971
   95SAPC   C39 9326   4.457   3.072   4.021 -0.1870 -0.2374 -0.7188
   95SAPC   H9X 9327   4.566   3.062   4.042 -0.3542  2.1327  1.7715
   95SAPC   H9Y 9328   4.412   2.971   4.008 -0.8430 -0.4173  2.2983
   95SAPC  C310 9329   4.406   3.138   4.150  0.4158  0.2665 -0.3520
   95SAPC  H10X 9330   4.302   3.161   4.119 -0.0760  0.7344  1.5270
   95SAPC  H10Y 9331   4.461   3.232   4.173  0.6614  0.0548 -0.0643
   95SAPC  C311 9332   4.395   3.053   4.278 -0.1207 -0.5227  0.3504
   95SAPC  H11X 9333   4.500   3.025   4.302 -0.3257 -1.6152  0.0297
   95SAPC  H11Y 9334   4.333   2.964   4.255  1.0899 -0.9408 -1.4780
   95SAPC  C312 9335   4.330   3.135   4.390 -0.5430 -0.0396  0.3042
   95SAPC  H12X 9336   4.238   3.184   4.350 -0.5736 -0.0747  0.3334
   95SAPC  H12Y 9337   4.405   3.213   4.415 -0.6540 -0.2203  1.2362
   95SAPC  C313 9338   4.318   3.052   4.516 -0.6920  0.7778 -0.7586
   95SAPC  H13X 9339   4.418   3.008   4.536 -1.9278 -1.0171  2.3625
   95SAPC  H13Y 9340   4.244   2.974   4.488 -0.3717 -0.0201  0.5062
   95SAPC  C314 9341   4.267   3.143   4.637 -0.0269 -0.1202  0.0118
   95SAPC  H14X 9342   4.164   3.173   4.610  0.1641 -0.9058 -1.7710
   95SAPC  H14Y 9343   4.331   3.233   4.644  0.0057 -0.2734  2.8262
   95SAPC  C315 9344   4.278   3.078   4.774  0.7500 -0.3421  0.6458
   95SAPC  H15X 9345   4.313   3.161   4.839 -0.8756  0.4690  0.5448
   95SAPC  H15Y 9346   4.351   2.997   4.757  0.8600  0.0601 -0.9754
   95SAPC  C316 9347   4.153   3.010   4.825  0.9962 -0.6434 -0.0444
   95SAPC  H16X 9348   4.104   2.939   4.754 -2.4504 -0.9880  2.4286
   95SAPC  H16Y 9349   4.071   3.083   4.841  2.1638  1.6148 -3.3488
   95SAPC  C317 9350   4.179   2.956   4.964 -0.0502  0.1835 -0.2299
   95SAPC  H17X 9351   4.207   3.038   5.033  0.5574  0.9054 -1.3049
   95SAPC  H17Y 9352   4.270   2.893   4.960 -0.4479 -0.4003 -0.2489
   95SAPC  C318 9353   4.057   2.883   5.025  0.5657  0.4665 -0.6518
   95SAPC  H18X 9354   4.082   2.824   5.116 -3.2206 -1.7825 -0.8500
   95SAPC  H18Y 9355   4.012   2.816   4.949  1.1226  1.7397 -2.1807
   95SAPC  H18Z 9356   3.979   2.954   5.058  0.5844  1.0122 -1.7296
   96SAPC     N 9357   4.114   3.824   2.354  1.0176  0.3262 -0.5603
   96SAPC   C12 9358   4.148   3.865   2.502  0.5255  0.6803  1.0421
   96SAPC  H12A 9359   4.167   3.777   2.562 -1.2326  0.2672  1.0269
   96SAPC  H12B 9360   4.054   3.899   2.542 -0.2044 -0.5625  0.4098
   96SAPC   C13 9361   4.043   3.687   2.341 -0.6249 -0.5379 -0.2029
   96SAPC  H13A 9362   4.001   3.679   2.242  0.8544  1.8072 -1.1015
   96SAPC  H13B 9363   4.118   3.610   2.350 -1.6002 -1.4068  0.9349
   96SAPC  H13C 9364   3.968   3.669   2.417  0.7271 -0.9333  1.0860
   96SAPC   C14 9365   4.022   3.930   2.297 -0.5512  0.3041 -0.0653
   96SAPC  H14A 9366   4.064   4.030   2.293 -1.7051  0.9005  1.4741
   96SAPC  H14B 9367   3.983   3.913   2.198  1.0498  1.3198 -0.9073
   96SAPC  H14C 9368   3.932   3.940   2.357  0.4914  1.5744  1.3645
   96SAPC   C15 9369   4.236   3.813   2.274 -0.3526 -0.2943 -0.4846
   96SAPC  H15A 9370   4.281   3.910   2.263  0.0214 -0.6319 -2.0865
   96SAPC  H15B 9371   4.322   3.766   2.321 -0.0512 -0.1585 -0.8981
   96SAPC  H15C 9372   4.220   3.759   2.183  0.8508 -2.2672  0.4049
   96SAPC   C11 9373   4.268   3.958   2.526  0.5492 -0.1672  0.1106
   96SAPC  H11A 9374   4.363   3.909   2.494  1.2727  1.1028  0.2447
   96SAPC  H11B 9375   4.288   3.965   2.635 -1.6664  0.6559  0.5175
   96SAPC     P 9376   4.188   4.199   2.543 -0.4525 -0.0538 -0.0617
   96SAPC   O13 9377   4.221   4.333   2.492  0.3606  0.0967  1.0621
   96SAPC   O14 9378   4.047   4.174   2.574  0.1359  0.2776 -0.3289
   96SAPC   O12 9379   4.252   4.081   2.462 -0.2727 -0.1615  0.4920
   96SAPC   O11 9380   4.276   4.188   2.676  0.1852 -0.0391 -0.5538
   96SAPC    C1 9381   4.417   4.226   2.687  0.3996 -0.0197  0.1420
   96SAPC    HA 9382   4.478   4.134   2.693  0.4982 -0.0027 -0.5651
   96SAPC    HB 9383   4.458   4.304   2.619  1.7826 -0.8657 -0.0266
   96SAPC    C2 9384   4.445   4.302   2.818 -0.8383 -0.1859 -0.4949
   96SAPC    HS 9385   4.555   4.314   2.826 -0.7138  0.1089 -2.2545
   96SAPC   O21 9386   4.412   4.221   2.936 -0.0059 -0.1319 -0.0273
   96SAPC   C21 9387   4.501   4.136   2.976  0.8233  0.3349  1.0181
   96SAPC   O22 9388   4.608   4.113   2.925 -0.6787 -0.1898  0.4451
   96SAPC   C22 9389   4.449   4.080   3.110  0.3829  0.7080 -0.5152
   96SAPC   H2R 9390   4.415   4.160   3.180  2.3783  1.6336 -0.5316
   96SAPC   H2S 9391   4.357   4.024   3.082  2.1724 -1.8227 -1.7289
   96SAPC    C3 9392   4.380   4.442   2.813 -0.5841 -0.7497 -0.5174
   96SAPC    HX 9393   4.270   4.442   2.794 -0.2644 -1.7187 -2.7146
   96SAPC    HY 9394   4.414   4.494   2.721  0.5585  2.8997  1.7421
   96SAPC   O31 9395   4.427   4.525   2.927  0.3998 -0.1767  0.4024
   96SAPC   C31 9396   4.340   4.535   3.031 -0.3748 -0.3271 -0.1659
   96SAPC   O32 9397   4.236   4.474   3.046  0.1141  0.6304  0.1817
   96SAPC   C32 9398   4.400   4.617   3.147 -0.2170 -0.6611  0.7341
   96SAPC   H2X 9399   4.313   4.664   3.198  0.0424  0.5734  0.0619
   96SAPC   H2Y 9400   4.469   4.691   3.101  0.7201 -1.8681  0.1514
   96SAPC   C23 9401   4.542   3.991   3.188 -0.7415 -1.0464  0.2060
   96SAPC   H3R 9402   4.582   3.911   3.122  0.9719 -0.7691  0.8623
   96SAPC   H3S 9403   4.482   3.939   3.265 -0.6120 -0.5349  0.6564
   96SAPC   C24 9404   4.660   4.071   3.256 -0.4525  0.8884 -0.0008
   96SAPC   H4R 9405   4.612   4.159   3.304 -0.7604  1.2074 -0.8861
   96SAPC   H4S 9406   4.723   4.105   3.171 -1.0688  1.3117 -0.3012
   96SAPC   C25 9407   4.734   3.993   3.361 -0.5833 -0.1136 -0.2551
   96SAPC   H5R 9408   4.840   3.982   3.334 -0.6259  0.9938 -0.9810
   96SAPC   C26 9409   4.697   3.981   3.491  0.1841  0.3615 -0.8693
   96SAPC   H6R 9410   4.756   3.925   3.565 -1.2101  0.7544  0.5942
   96SAPC   C27 9411   4.572   4.026   3.555 -0.4596  0.4806  0.0102
   96SAPC   H7R 9412   4.528   3.943   3.614  2.5413  0.4597  2.4869
   96SAPC   H7S 9413   4.493   4.052   3.482  0.7003  1.6129 -0.8901
   96SAPC   C28 9414   4.590   4.149   3.648  0.8292  0.3527  0.4361
   96SAPC   H8R 9415   4.681   4.207   3.626  0.6812 -0.8397 -4.2516
   96SAPC   C29 9416   4.506   4.187   3.739  0.4436  0.1878  0.3070
   96SAPC   H9R 9417   4.524   4.275   3.802 -3.6909  1.3476  0.1205
   96SAPC  C210 9418   4.383   4.104   3.778 -0.0808 -0.3264 -0.2936
   96SAPC  H10R 9419   4.311   4.110   3.694 -2.4739 -2.0555  1.5082
   96SAPC  H10S 9420   4.322   4.165   3.847 -0.0043 -0.6069  0.0223
   96SAPC  C211 9421   4.379   3.966   3.840 -0.1028  1.1121  0.0447
   96SAPC  H11R 9422   4.329   3.885   3.785 -0.8204  0.4388  1.6169
   96SAPC  C212 9423   4.437   3.932   3.955  0.1791 -0.2658 -0.4484
   96SAPC  H12R 9424   4.436   3.825   3.983  0.0547 -0.4491 -1.1325
   96SAPC  C213 9425   4.510   4.028   4.049 -0.3223  0.6522 -0.4744
   96SAPC  H13R 9426   4.447   4.113   4.085 -0.2447  0.4683  0.1040
   96SAPC  H13S 9427   4.596   4.078   3.999  0.8324 -0.9838 -0.1706
   96SAPC  C214 9428   4.576   3.963   4.164  0.2849  0.5777 -0.1186
   96SAPC  H14R 9429   4.605   3.858   4.151  0.1878  0.7249 -1.7422
   96SAPC  C215 9430   4.613   4.017   4.281  0.3747 -0.1651 -0.7571
   96SAPC  H15R 9431   4.668   3.952   4.350  0.1139  2.1398  1.7707
   96SAPC  C216 9432   4.594   4.165   4.312  0.4404  0.1888  0.1792
   96SAPC  H16R 9433   4.589   4.230   4.222  2.5753 -0.6798 -0.6439
   96SAPC  H16S 9434   4.681   4.202   4.371  0.1187 -0.3236  0.9988
   96SAPC  C217 9435   4.466   4.181   4.391  0.4990  0.0357 -0.3082
   96SAPC  H17R 9436   4.463   4.099   4.467  0.7214 -1.4806 -1.8809
   96SAPC  H17S 9437   4.386   4.182   4.314  1.2455  1.1258 -1.0905
   96SAPC  C218 9438   4.459   4.325   4.472  0.6760  0.0825 -0.0096
   96SAPC  H18R 9439   4.479   4.404   4.397  0.5898 -1.0226 -1.2469
   96SAPC  H18S 9440   4.543   4.321   4.544 -0.1019  0.1914  0.9248
   96SAPC  C219 9441   4.330   4.359   4.559  0.0914 -0.4612  0.2470
   96SAPC  H19R 9442   4.307   4.265   4.615 -1.8848 -1.2179 -1.6976
   96SAPC  H19S 9443   4.236   4.384   4.505 -0.4026  1.0166  1.7199
   96SAPC  C220 9444   4.339   4.478   4.655 -0.6890 -0.2975 -0.5201
   96SAPC  H20R 9445   4.389   4.454   4.752  1.0794  0.4492 -1.2106
   96SAPC  H20S 9446   4.235   4.506   4.681 -1.0939 -1.9784 -0.2030
   96SAPC  H20T 9447   4.398   4.552   4.597  0.1755 -0.6399 -0.0968
   96SAPC   C33 9448   4.470   4.532   3.258  0.4883 -0.0327  0.3119
   96SAPC   H3X 9449   4.562   4.490   3.213 -0.3373 -1.9743  0.3480
   96SAPC   H3Y 9450   4.406   4.441   3.266 -1.8338  1.6367  2.3051
   96SAPC   C34 9451   4.468   4.596   3.394  0.1861  0.1529  0.4300
   96SAPC   H4X 9452   4.363   4.622   3.423  0.2008 -2.0790  2.8688
   96SAPC   H4Y 9453   4.518   4.695   3.382 -2.3436  1.4364 -0.2653
   96SAPC   C35 9454   4.525   4.515   3.513  0.5848 -0.0326  0.0444
   96SAPC   H5X 9455   4.600   4.438   3.483  2.8945  2.0029  0.2706
   96SAPC   H5Y 9456   4.435   4.458   3.545 -0.1134  0.7260 -0.5408
   96SAPC   C36 9457   4.572   4.602   3.627 -0.0366 -0.5311  0.7011
   96SAPC   H6X 9458   4.575   4.538   3.719 -1.1420  1.3872  2.1485
   96SAPC   H6Y 9459   4.501   4.686   3.647 -2.4719 -1.8593 -1.7138
   96SAPC   C37 9460   4.716   4.666   3.605  0.0054 -0.4490 -0.3320
   96SAPC   H7X 9461   4.707   4.713   3.505  2.3383 -0.4100 -0.5819
   96SAPC   H7Y 9462   4.796   4.590   3.590 -0.7766 -2.1605  3.0690
   96SAPC   C38 9463   4.758   4.773   3.709  0.5503 -0.3260  0.2637
   96SAPC   H8X 9464   4.678   4.848   3.728  1.5629  0.8953 -0.0942
   96SAPC   H8Y 9465   4.846   4.828   3.667 -0.7952  0.1357 -2.1266
   96SAPC   C39 9466   4.795   4.708   3.849 -0.4164  0.0080  0.1692
   96SAPC   H9X 9467   4.847   4.611   3.832  0.3435  0.5698 -0.8113
   96SAPC   H9Y 9468   4.702   4.686   3.906  0.1735 -1.9424  0.4552
   96SAPC  C310 9469   4.885   4.795   3.939  0.6723  0.5482 -0.0363
   96SAPC  H10X 9470   4.841   4.892   3.972  1.4243  0.3114  1.8159
   96SAPC  H10Y 9471   4.964   4.817   3.864  1.0448 -1.3910 -0.2566
   96SAPC  C311 9472   4.929   4.724   4.061 -0.5348  0.2003  1.1579
   96SAPC  H11X 9473   4.991   4.641   4.020 -1.7951 -1.3900  2.3560
   96SAPC  H11Y 9474   4.840   4.677   4.108 -1.6578  0.9877 -0.0988
   96SAPC  C312 9475   5.017   4.798   4.160  0.4727 -0.6129 -0.1810
   96SAPC  H12X 9476   4.972   4.886   4.209  2.3617  0.8599 -0.9326
   96SAPC  H12Y 9477   5.109   4.842   4.115 -0.1644  0.5624 -0.3607
   96SAPC  C313 9478   5.062   4.697   4.274 -0.1003 -0.3023  0.9227
   96SAPC  H13X 9479   5.137   4.628   4.231  0.3581  1.9021 -2.1155
   96SAPC  H13Y 9480   4.978   4.631   4.304 -0.0383 -0.8630 -0.0766
   96SAPC  C314 9481   5.125   4.771   4.392 -0.2372 -0.6000  0.9039
   96SAPC  H14X 9482   5.049   4.842   4.432  0.8027  2.0770 -1.5353
   96SAPC  H14Y 9483   5.208   4.837   4.359 -1.2086 -0.6910 -2.0492
   96SAPC  C315 9484   5.179   4.669   4.485  0.2662 -0.1244 -0.1272
   96SAPC  H15X 9485   5.266   4.617   4.438 -0.0069 -0.7045 -0.0019
   96SAPC  H15Y 9486   5.105   4.589   4.508  0.1345 -0.0005 -0.1211
   96SAPC  C316 9487   5.224   4.735   4.612  0.0758  0.7697 -0.1039
   96SAPC  H16X 9488   5.305   4.811   4.608  2.6299 -1.7134  1.0713
   96SAPC  H16Y 9489   5.273   4.658   4.675 -0.7306 -1.0331 -1.6087
   96SAPC  C317 9490   5.114   4.787   4.703 -0.0141  0.3113  0.0364
   96SAPC  H17X 9491   5.034   4.710   4.703  1.8693 -1.7538  1.0919
   96SAPC  H17Y 9492   5.063   4.877   4.664 -1.0611 -0.5965 -0.7390
   96SAPC  C318 9493   5.148   4.809   4.855 -0.5230  0.3638 -0.4389
   96SAPC  H18X 9494   5.060   4.801   4.922  0.7783  1.8614  1.5380
   96SAPC  H18Y 9495   5.206   4.902   4.869 -0.5955  0.5155 -1.1036
   96SAPC  H18Z 9496   5.213   4.723   4.881  2.0092  1.8496 -1.5264
   97SAPC     N 9497   4.177   6.193   2.374  0.0800 -0.0999 -0.1255
   97SAPC   C12 9498   4.245   6.126   2.487  0.1238 -0.5125  0.2015
   97SAPC  H12A 9499   4.352   6.140   2.483  0.0119  0.1740 -0.3742
   97SAPC  H12B 9500   4.245   6.018   2.480 -0.2713 -0.5102  0.1363
   97SAPC   C13 9501   4.023   6.176   2.369  0.2820  0.1505  0.2191
   97SAPC  H13A 9502   3.977   6.218   2.281  1.0024 -0.1816 -0.3300
   97SAPC  H13B 9503   4.004   6.070   2.383  0.1706  0.0321 -0.7658
   97SAPC  H13C 9504   3.979   6.238   2.446  1.0841 -0.1587  0.9543
   97SAPC   C14 9505   4.199   6.341   2.376 -0.1496 -0.3655 -0.4291
   97SAPC  H14A 9506   4.129   6.395   2.314  0.3136  0.3423 -0.3535
   97SAPC  H14B 9507   4.168   6.373   2.474 -0.0171 -1.1970 -0.1107
   97SAPC  H14C 9508   4.300   6.371   2.351  0.6319 -2.9873 -0.6994
   97SAPC   C15 9509   4.227   6.145   2.244  0.2270  0.3374 -0.2977
   97SAPC  H15A 9510   4.192   6.214   2.169  0.0734  0.8834  0.2616
   97SAPC  H15B 9511   4.332   6.141   2.222  0.1065 -0.0892 -0.8091
   97SAPC  H15C 9512   4.184   6.049   2.218 -0.3020 -0.4519  3.0237
   97SAPC   C11 9513   4.207   6.175   2.625  0.2071  0.5573 -0.4725
   97SAPC  H11A 9514   4.246   6.094   2.690  1.9998 -0.2091 -2.3960
   97SAPC  H11B 9515   4.098   6.163   2.645  0.4484 -0.9197  0.0964
   97SAPC     P 9516   4.410   6.328   2.684  0.1020  0.1778  0.0093
   97SAPC   O13 9517   4.475   6.210   2.753 -0.0983  0.3390  0.0821
   97SAPC   O14 9518   4.464   6.385   2.555  0.1065  0.0165 -0.2431
   97SAPC   O12 9519   4.255   6.305   2.663 -0.3167  0.5755 -0.1395
   97SAPC   O11 9520   4.407   6.458   2.780  0.5293 -0.4664  0.0617
   97SAPC    C1 9521   4.316   6.482   2.883 -0.0527 -0.4722 -0.4433
   97SAPC    HA 9522   4.214   6.493   2.841  0.9019  1.4088 -2.4716
   97SAPC    HB 9523   4.322   6.407   2.965  0.1771 -0.2280 -0.2374
   97SAPC    C2 9524   4.340   6.620   2.947 -0.0426 -0.2922 -0.1634
   97SAPC    HS 9525   4.357   6.682   2.856  0.6670  0.9217  0.7590
   97SAPC   O21 9526   4.453   6.606   3.039  0.9217 -0.1163 -0.6442
   97SAPC   C21 9527   4.500   6.721   3.095  0.6823  0.5014  0.3078
   97SAPC   O22 9528   4.442   6.828   3.087 -0.1220 -0.5451  0.1842
   97SAPC   C22 9529   4.629   6.679   3.163 -0.4207 -0.4716 -0.4224
   97SAPC   H2R 9530   4.704   6.636   3.093  1.4946  0.8931  0.6869
   97SAPC   H2S 9531   4.673   6.773   3.203 -2.1432  0.3662 -0.4196
   97SAPC    C3 9532   4.206   6.677   3.010  0.5415 -0.3722 -0.3022
   97SAPC    HX 9533   4.126   6.696   2.935 -0.6236  1.8202  1.3827
   97SAPC    HY 9534   4.231   6.782   3.035  1.1152 -1.0276  2.1255
   97SAPC   O31 9535   4.155   6.604   3.126 -0.3336  0.3428  0.9130
   97SAPC   C31 9536   4.046   6.662   3.181 -0.6807 -0.6347 -0.3719
   97SAPC   O32 9537   4.015   6.784   3.171  0.5267  0.0494  0.3857
   97SAPC   C32 9538   3.985   6.565   3.276  0.2376  0.0081 -0.3691
   97SAPC   H2X 9539   4.053   6.478   3.278 -0.3371 -0.4610 -0.8197
   97SAPC   H2Y 9540   3.893   6.532   3.223 -1.2122  1.7477  0.9436
   97SAPC   C23 9541   4.604   6.578   3.282 -0.3071  0.5386  0.2672
   97SAPC   H3R 9542   4.587   6.472   3.256  0.0863  0.0590  1.8676
   97SAPC   H3S 9543   4.524   6.616   3.349  0.9300  1.3413  1.3529
   97SAPC   C24 9544   4.738   6.572   3.370 -0.4842 -0.3206 -0.2942
   97SAPC   H4R 9545   4.821   6.545   3.301  0.4208 -0.0156  0.6601
   97SAPC   H4S 9546   4.722   6.485   3.438 -1.5818  0.0251 -0.0959
   97SAPC   C25 9547   4.768   6.695   3.449  0.9758 -0.1899 -0.4369
   97SAPC   H5R 9548   4.807   6.776   3.386  0.2587 -0.3627 -1.1168
   97SAPC   C26 9549   4.754   6.723   3.578  0.2385  0.0179 -0.3510
   97SAPC   H6R 9550   4.783   6.825   3.609  1.1574 -0.5479  0.7297
   97SAPC   C27 9551   4.706   6.633   3.686  0.3947 -0.3075 -0.5902
   97SAPC   H7R 9552   4.702   6.529   3.647  1.1080 -0.7186  0.3903
   97SAPC   H7S 9553   4.605   6.649   3.728  0.2452 -2.2581 -0.1244
   97SAPC   C28 9554   4.808   6.631   3.801  0.4278  0.6749  0.0021
   97SAPC   H8R 9555   4.904   6.585   3.772 -1.0535 -1.7321 -1.3485
   97SAPC   C29 9556   4.784   6.688   3.922 -0.2373 -0.1043  0.1717
   97SAPC   H9R 9557   4.864   6.680   3.997  2.2308 -1.7936 -2.4264
   97SAPC  C210 9558   4.663   6.763   3.972  0.0976  1.0185 -0.0086
   97SAPC  H10R 9559   4.670   6.755   4.082  1.2900 -0.8202 -0.1669
   97SAPC  H10S 9560   4.568   6.713   3.945  1.0678  0.7881 -3.5812
   97SAPC  C211 9561   4.663   6.906   3.931  0.1424  0.5072  0.6622
   97SAPC  H11R 9562   4.695   6.922   3.827 -0.0173  0.5111  0.6138
   97SAPC  C212 9563   4.641   7.007   4.012  0.1569 -0.0698  1.0329
   97SAPC  H12R 9564   4.634   7.102   3.959 -2.6690 -0.3440  0.7709
   97SAPC  C213 9565   4.612   7.004   4.159  0.3115 -0.2568  0.9083
   97SAPC  H13R 9566   4.666   7.092   4.201 -0.6199  0.8173 -0.0862
   97SAPC  H13S 9567   4.659   6.912   4.200 -0.9736 -0.9524  0.8587
   97SAPC  C214 9568   4.468   7.030   4.195 -0.8573  0.2601  0.0900
   97SAPC  H14R 9569   4.383   7.016   4.126  1.0207  1.1952 -2.5529
   97SAPC  C215 9570   4.437   7.093   4.314 -0.1575  0.0957 -0.8678
   97SAPC  H15R 9571   4.332   7.116   4.338 -0.2161 -1.0391  0.1019
   97SAPC  C216 9572   4.530   7.128   4.433 -0.7958  0.1264 -0.3078
   97SAPC  H16R 9573   4.626   7.073   4.432 -1.6381 -1.3801 -0.6436
   97SAPC  H16S 9574   4.474   7.110   4.527  0.1738 -1.0830  0.0539
   97SAPC  C217 9575   4.589   7.269   4.438 -0.1569  0.8540 -0.2488
   97SAPC  H17R 9576   4.660   7.273   4.353 -0.1907  3.0440 -0.2434
   97SAPC  H17S 9577   4.642   7.263   4.536 -0.4566 -0.5509 -0.1548
   97SAPC  C218 9578   4.484   7.388   4.441 -0.4203 -0.4756  0.0491
   97SAPC  H18R 9579   4.422   7.391   4.349 -0.1537 -1.1088 -0.1577
   97SAPC  H18S 9580   4.541   7.483   4.442 -0.2666 -0.4565 -2.8282
   97SAPC  C219 9581   4.382   7.369   4.556  0.9964  0.0313 -0.0970
   97SAPC  H19R 9582   4.443   7.351   4.647  0.2085  1.3323  0.7325
   97SAPC  H19S 9583   4.322   7.276   4.544  0.5859  0.2545  0.2109
   97SAPC  C220 9584   4.283   7.485   4.579 -0.3069 -0.0073  0.2994
   97SAPC  H20R 9585   4.324   7.565   4.644 -0.9418  0.0594  0.6224
   97SAPC  H20S 9586   4.195   7.450   4.636  0.0869 -1.8701 -0.1539
   97SAPC  H20T 9587   4.260   7.539   4.484  0.8061  0.1913  0.1324
   97SAPC   C33 9588   3.951   6.621   3.419  0.3577 -0.8171 -0.4282
   97SAPC   H3X 9589   3.889   6.540   3.463  0.2523  0.8246  2.7788
   97SAPC   H3Y 9590   3.889   6.713   3.415  1.8891  0.2198 -1.4274
   97SAPC   C34 9591   4.073   6.633   3.512  0.8424 -1.0961 -0.6410
   97SAPC   H4X 9592   4.130   6.724   3.485  0.5868 -0.1967  1.6608
   97SAPC   H4Y 9593   4.140   6.544   3.504  2.9272  0.3384  0.0009
   97SAPC   C35 9594   4.021   6.637   3.665 -0.4743 -0.7431  0.3720
   97SAPC   H5X 9595   3.966   6.544   3.689 -2.4761 -0.2545 -1.8840
   97SAPC   H5Y 9596   3.943   6.716   3.667  0.3255  0.0858 -0.1755
   97SAPC   C36 9597   4.120   6.680   3.773 -0.2931  0.3314  0.0273
   97SAPC   H6X 9598   4.171   6.775   3.746  0.4073  0.1703  0.7523
   97SAPC   H6Y 9599   4.204   6.608   3.775  0.0387  0.7255  1.3259
   97SAPC   C37 9600   4.058   6.694   3.905 -0.0940  0.1176 -0.0219
   97SAPC   H7X 9601   4.008   6.597   3.926 -1.6827  0.4909 -1.8296
   97SAPC   H7Y 9602   3.978   6.770   3.904 -1.5412 -1.3095 -2.0352
   97SAPC   C38 9603   4.148   6.720   4.029  0.5888  0.2766  0.1393
   97SAPC   H8X 9604   4.093   6.770   4.112  2.0353 -0.6300  1.7238
   97SAPC   H8Y 9605   4.211   6.804   3.992  0.0409 -0.0913 -1.7042
   97SAPC   C39 9606   4.234   6.593   4.073 -0.4949 -0.5980 -0.0470
   97SAPC   H9X 9607   4.267   6.540   3.981 -1.2074  1.8812 -1.8129
   97SAPC   H9Y 9608   4.165   6.524   4.126 -2.2315 -2.6410 -4.5099
   97SAPC  C310 9609   4.357   6.643   4.150 -0.4015  0.4779 -0.1109
   97SAPC  H10X 9610   4.418   6.705   4.080  1.0620 -0.6944  0.0795
   97SAPC  H10Y 9611   4.410   6.548   4.173  0.3773  0.6846 -1.0124
   97SAPC  C311 9612   4.316   6.699   4.286  0.4272 -0.4286 -0.8822
   97SAPC  H11X 9613   4.229   6.641   4.325  0.6174 -1.6547 -2.2485
   97SAPC  H11Y 9614   4.273   6.802   4.278  0.0652 -0.2364  2.2094
   97SAPC  C312 9615   4.436   6.690   4.384  0.7510 -0.7462  0.1646
   97SAPC  H12X 9616   4.526   6.736   4.338  1.2290 -1.1263  0.7134
   97SAPC  H12Y 9617   4.460   6.585   4.408 -2.6439 -1.5604  0.4930
   97SAPC  C313 9618   4.414   6.753   4.514  0.3841 -0.0676 -0.8304
   97SAPC  H13X 9619   4.330   6.713   4.575  0.7979 -0.5441 -0.5653
   97SAPC  H13Y 9620   4.384   6.855   4.481 -1.3229 -0.6178 -1.0844
   97SAPC  C314 9621   4.539   6.753   4.604  0.3948 -0.1733 -0.0283
   97SAPC  H14X 9622   4.628   6.779   4.543 -0.2046 -1.5010 -1.5396
   97SAPC  H14Y 9623   4.561   6.648   4.632 -1.0063 -1.1205 -2.2061
   97SAPC  C315 9624   4.527   6.852   4.715  0.4111 -0.5095 -0.2001
   97SAPC  H15X 9625   4.436   6.841   4.777  0.4911 -3.2062 -0.4314
   97SAPC  H15Y 9626   4.530   6.954   4.670  0.4643 -0.6294 -0.4741
   97SAPC  C316 9627   4.655   6.854   4.805 -0.4112  0.7708 -0.4374
   97SAPC  H16X 9628   4.748   6.870   4.747  1.2168  0.5076  1.9393
   97SAPC  H16Y 9629   4.670   6.769   4.875 -0.8297  0.3298 -0.8803
   97SAPC  C317 9630   4.654   6.973   4.902  0.7736 -0.7282 -0.0301
   97SAPC  H17X 9631   4.738   6.979   4.975 -0.1972  1.0916  1.0298
   97SAPC  H17Y 9632   4.564   6.961   4.967  2.2097  0.5045  2.3442
   97SAPC  C318 9633   4.641   7.113   4.840  0.3865 -0.0367 -0.8650
   97SAPC  H18X 9634   4.644   7.188   4.922 -1.4021 -1.2170  0.3428
   97SAPC  H18Y 9635   4.551   7.135   4.779 -0.2371  1.7317  0.5939
   97SAPC  H18Z 9636   4.725   7.133   4.769  3.0008  0.0480  2.0327
   98SAPC     N 9637   1.064   5.455   2.394  0.5564  0.0284 -0.3278
   98SAPC   C12 9638   1.159   5.389   2.492 -0.5320 -0.1125  0.6365
   98SAPC  H12A 9639   1.252   5.364   2.444  0.8911 -0.3587  3.2955
   98SAPC  H12B 9640   1.121   5.295   2.531  2.7020 -1.5987  0.5052
   98SAPC   C13 9641   0.943   5.506   2.453  0.3350 -0.1162  0.2846
   98SAPC  H13A 9642   0.879   5.547   2.376  0.5597 -0.4612 -0.0907
   98SAPC  H13B 9643   0.893   5.419   2.494  0.2554 -1.0285 -1.6421
   98SAPC  H13C 9644   0.963   5.582   2.526 -1.4686 -1.4514  2.2956
   98SAPC   C14 9645   1.131   5.577   2.338  0.8653 -0.3482 -0.3356
   98SAPC  H14A 9646   1.151   5.655   2.409  0.3506 -1.0502  0.5961
   98SAPC  H14B 9647   1.222   5.556   2.284  0.4093 -0.8451 -0.9399
   98SAPC  H14C 9648   1.067   5.624   2.264 -0.9159 -2.5056 -0.2868
   98SAPC   C15 9649   1.025   5.362   2.283 -0.7740 -0.1110  0.0911
   98SAPC  H15A 9650   1.002   5.416   2.192  0.3399 -2.4743 -1.7141
   98SAPC  H15B 9651   1.112   5.302   2.257  0.0971  0.9604  0.4691
   98SAPC  H15C 9652   0.944   5.300   2.318 -1.1363  1.2021  1.6805
   98SAPC   C11 9653   1.192   5.469   2.622 -0.3999 -0.3960 -0.1511
   98SAPC  H11A 9654   1.223   5.401   2.705 -1.4632 -0.0856  0.5233
   98SAPC  H11B 9655   1.101   5.518   2.663 -0.3787 -1.4654  1.2531
   98SAPC     P 9656   1.452   5.510   2.592 -0.1362  0.0159 -0.2013
   98SAPC   O13 9657   1.443   5.367   2.568 -0.5287 -0.3666  0.3760
   98SAPC   O14 9658   1.526   5.593   2.490 -0.0507 -0.1064 -0.3276
   98SAPC   O12 9659   1.299   5.559   2.594  0.1288 -0.0704  0.0292
   98SAPC   O11 9660   1.500   5.558   2.741 -0.5425 -0.5046 -0.9345
   98SAPC    C1 9661   1.510   5.696   2.767  0.3263  0.0035  1.1945
   98SAPC    HA 9662   1.616   5.722   2.746 -0.1914  1.0270 -0.3047
   98SAPC    HB 9663   1.455   5.756   2.692 -0.0371 -2.3352 -0.5182
   98SAPC    C2 9664   1.482   5.731   2.908 -0.3131 -0.2034 -0.0422
   98SAPC    HS 9665   1.528   5.659   2.979 -2.1517 -2.0750 -0.6807
   98SAPC   O21 9666   1.337   5.743   2.917 -0.0234  0.1980  0.1661
   98SAPC   C21 9667   1.279   5.632   2.959 -0.2265  1.0252 -0.4439
   98SAPC   O22 9668   1.334   5.523   2.976 -0.4759  0.5050 -0.2901
   98SAPC   C22 9669   1.131   5.660   2.983 -0.4527 -0.3092  0.1994
   98SAPC   H2R 9670   1.125   5.708   3.083  3.9996  1.2060 -0.0236
   98SAPC   H2S 9671   1.090   5.727   2.905 -0.1959 -2.7201 -2.1456
   98SAPC    C3 9672   1.548   5.869   2.951 -0.4657  0.6949  0.2671
   98SAPC    HX 9673   1.507   5.951   2.890  0.6278  0.6872 -0.5037
   98SAPC    HY 9674   1.655   5.860   2.920 -0.5866  1.6371 -0.4437
   98SAPC   O31 9675   1.540   5.896   3.095 -0.5989  0.4326  0.4945
   98SAPC   C31 9676   1.458   5.988   3.131  0.1496 -0.0994  0.2957
   98SAPC   O32 9677   1.401   6.065   3.053 -0.1222  0.0913  0.3228
   98SAPC   C32 9678   1.433   5.984   3.285  0.0708 -0.0557 -0.7508
   98SAPC   H2X 9679   1.405   6.089   3.307  3.9024  1.1209 -0.6800
   98SAPC   H2Y 9680   1.528   5.958   3.336 -0.3171 -0.2989 -0.1480
   98SAPC   C23 9681   1.052   5.527   2.989  0.0833 -0.5159 -0.1570
   98SAPC   H3R 9682   1.095   5.460   3.066 -2.6297  0.3611  2.2995
   98SAPC   H3S 9683   1.072   5.474   2.893 -0.2239 -1.2698  0.1901
   98SAPC   C24 9684   0.906   5.539   3.023  0.3231 -0.1040 -0.0388
   98SAPC   H4R 9685   0.855   5.443   3.045  1.4062 -0.7217 -0.1654
   98SAPC   H4S 9686   0.857   5.576   2.930  1.9998  1.5084 -0.3365
   98SAPC   C25 9687   0.861   5.654   3.111 -0.2750  0.2648 -0.1584
   98SAPC   H5R 9688   0.859   5.751   3.058  2.1526  0.9849  0.9164
   98SAPC   C26 9689   0.844   5.656   3.244  0.7862  0.2083 -0.2889
   98SAPC   H6R 9690   0.828   5.757   3.286  0.5592 -0.8665  2.4306
   98SAPC   C27 9691   0.866   5.538   3.338  0.3983  0.3788  0.0890
   98SAPC   H7R 9692   0.895   5.574   3.439  0.9135  1.4383 -0.4215
   98SAPC   H7S 9693   0.941   5.475   3.286  0.0423 -0.3955  0.4821
   98SAPC   C28 9694   0.748   5.450   3.352  0.3723  0.3544 -0.3737
   98SAPC   H8R 9695   0.694   5.414   3.263  0.8352  0.3601 -0.6551
   98SAPC   C29 9696   0.694   5.413   3.467  0.5473  0.8489  0.2464
   98SAPC   H9R 9697   0.602   5.354   3.451  1.9228 -1.4552  0.4144
   98SAPC  C210 9698   0.743   5.447   3.600 -0.6312  0.2077 -0.3961
   98SAPC  H10R 9699   0.853   5.437   3.606 -0.7529 -0.4517  2.2425
   98SAPC  H10S 9700   0.716   5.373   3.679 -1.0790  1.1759  0.3722
   98SAPC  C211 9701   0.707   5.578   3.665 -0.1744  0.6668 -0.1962
   98SAPC  H11R 9702   0.652   5.641   3.594 -0.9905 -0.2911 -0.4377
   98SAPC  C212 9703   0.731   5.608   3.795 -0.7625 -0.4732  0.6347
   98SAPC  H12R 9704   0.707   5.710   3.827  0.2603 -0.1280  0.3549
   98SAPC  C213 9705   0.801   5.519   3.897  0.3649  0.1135 -1.1449
   98SAPC  H13R 9706   0.903   5.556   3.921 -0.0080  0.5906 -0.2362
   98SAPC  H13S 9707   0.818   5.418   3.854 -1.5012 -1.1707  0.8920
   98SAPC  C214 9708   0.732   5.483   4.029 -0.4594  0.1798 -0.2009
   98SAPC  H14R 9709   0.630   5.449   4.008 -0.5487  0.9723 -1.1363
   98SAPC  C215 9710   0.780   5.506   4.155  0.9104 -0.3881 -0.5897
   98SAPC  H15R 9711   0.724   5.493   4.248  1.2351 -0.7651 -0.4389
   98SAPC  C216 9712   0.914   5.566   4.190  0.9021  0.0621 -0.0639
   98SAPC  H16R 9713   0.944   5.648   4.121  1.0028  0.2159  0.1606
   98SAPC  H16S 9714   0.990   5.487   4.172  1.5346  0.4779  0.6580
   98SAPC  C217 9715   0.918   5.609   4.339 -0.1669  0.3804 -1.1514
   98SAPC  H17R 9716   0.867   5.538   4.407 -1.3968 -0.5709 -2.9999
   98SAPC  H17S 9717   0.865   5.706   4.354 -0.2637  0.0713  0.7391
   98SAPC  C218 9718   1.064   5.627   4.380 -0.0809  0.6296 -0.2178
   98SAPC  H18R 9719   1.129   5.674   4.304 -0.4194  1.9858  0.3105
   98SAPC  H18S 9720   1.106   5.527   4.407  1.1192  0.9427 -0.8751
   98SAPC  C219 9721   1.078   5.701   4.509 -0.4674 -0.3501 -0.3174
   98SAPC  H19R 9722   0.997   5.680   4.583 -0.1943  1.2988  0.4945
   98SAPC  H19S 9723   1.056   5.809   4.490 -0.9124 -0.3267  0.2812
   98SAPC  C220 9724   1.222   5.696   4.563  0.3657 -0.3384 -0.5144
   98SAPC  H20R 9725   1.297   5.729   4.488 -0.5252  2.0147 -0.4597
   98SAPC  H20S 9726   1.236   5.592   4.600 -0.1179 -0.5118 -0.8051
   98SAPC  H20T 9727   1.232   5.763   4.652  1.2773 -0.3633 -0.5896
   98SAPC   C33 9728   1.301   5.904   3.311 -0.3202 -0.8893  0.4499
   98SAPC   H3X 9729   1.331   5.798   3.297  0.2217 -0.5890 -0.9196
   98SAPC   H3Y 9730   1.218   5.929   3.242  1.6675  0.2544 -1.7011
   98SAPC   C34 9731   1.264   5.922   3.456 -0.6020  0.1038 -0.1609
   98SAPC   H4X 9732   1.252   6.030   3.479 -0.3822  0.8909 -3.3576
   98SAPC   H4Y 9733   1.338   5.873   3.522  0.5469 -0.3481 -1.7428
   98SAPC   C35 9734   1.132   5.848   3.475 -0.0472  0.6194 -0.1156
   98SAPC   H5X 9735   1.138   5.748   3.426  0.4607 -0.0025  1.1770
   98SAPC   H5Y 9736   1.041   5.897   3.434 -1.1524 -1.8487 -0.7744
   98SAPC   C36 9737   1.078   5.829   3.625 -0.2408 -0.3960  0.0986
   98SAPC   H6X 9738   1.143   5.756   3.678  0.3931  0.6250  0.7623
   98SAPC   H6Y 9739   0.977   5.783   3.635 -1.5750  1.8045 -2.1204
   98SAPC   C37 9740   1.062   5.959   3.694 -1.2105  0.3923  0.2054
   98SAPC   H7X 9741   0.992   6.019   3.633 -2.2931 -0.2571  0.7826
   98SAPC   H7Y 9742   1.164   6.004   3.697 -0.1867 -1.4150 -2.7840
   98SAPC   C38 9743   1.008   5.955   3.843 -0.1015 -0.6029  0.2521
   98SAPC   H8X 9744   1.055   6.030   3.911 -1.9393  0.5063  0.3581
   98SAPC   H8Y 9745   1.039   5.857   3.885  1.8744 -0.2234 -0.2417
   98SAPC   C39 9746   0.858   5.984   3.855 -0.1133  0.2206 -0.6642
   98SAPC   H9X 9747   0.808   5.918   3.781 -2.1901 -0.4954  1.2543
   98SAPC   H9Y 9748   0.834   6.084   3.813  1.2203 -0.5330 -3.4866
   98SAPC  C310 9749   0.810   5.957   3.999  0.0137  0.2733 -0.1270
   98SAPC  H10X 9750   0.875   6.022   4.062  2.5012 -1.0544 -1.2072
   98SAPC  H10Y 9751   0.838   5.852   4.021 -2.2978 -0.2155  0.8133
   98SAPC  C311 9752   0.658   5.990   4.026 -0.4231 -0.4566  0.2164
   98SAPC  H11X 9753   0.596   5.935   3.953 -2.8234 -0.3035  2.0282
   98SAPC  H11Y 9754   0.645   6.098   4.004  0.9253 -0.5258 -1.0776
   98SAPC  C312 9755   0.595   5.963   4.163 -0.5334 -0.8554 -0.1202
   98SAPC  H12X 9756   0.669   6.005   4.235  0.9228  0.4423 -2.2646
   98SAPC  H12Y 9757   0.569   5.856   4.176 -1.1005 -1.0848 -2.6126
   98SAPC  C313 9758   0.464   6.042   4.204 -0.1856 -0.5549  0.2797
   98SAPC  H13X 9759   0.382   6.023   4.132 -2.0204  0.4308  1.9983
   98SAPC  H13Y 9760   0.493   6.147   4.182 -0.5437 -0.4128  0.4652
   98SAPC  C314 9761   0.406   6.006   4.342  0.3749 -0.2629 -0.8405
   98SAPC  H14X 9762   0.484   6.029   4.417 -0.1927  0.3438 -0.4264
   98SAPC  H14Y 9763   0.388   5.897   4.334 -1.2185 -0.0683 -0.2579
   98SAPC  C315 9764   0.279   6.086   4.375 -0.6683 -0.6439  0.0414
   98SAPC  H15X 9765   0.199   6.076   4.299  0.1198 -0.3075 -0.8405
   98SAPC  H15Y 9766   0.297   6.194   4.358 -1.4399 -0.5515 -0.2086
   98SAPC  C316 9767   0.237   6.062   4.520 -1.0223  0.6897 -0.9024
   98SAPC  H16X 9768   0.309   6.111   4.589 -0.9634  0.0441 -0.4992
   98SAPC  H16Y 9769   0.236   5.951   4.517 -2.1793  0.6429  0.4719
   98SAPC  C317 9770   0.096   6.115   4.539 -0.4548 -0.2081 -0.4037
   98SAPC  H17X 9771   0.063   6.074   4.637 -0.6684  3.0050  0.9989
   98SAPC  H17Y 9772   0.038   6.086   4.449 -1.3192  0.7983 -0.1984
   98SAPC  C318 9773   0.074   6.265   4.561  0.0770  0.3835 -0.1593
   98SAPC  H18X 9774   0.111   6.313   4.654  2.1711 -0.7827 -0.3170
   98SAPC  H18Y 9775  -0.035   6.285   4.550  0.0598  0.2509 -0.2328
   98SAPC  H18Z 9776   0.119   6.324   4.478  1.6763  0.8739  1.0240
   99SAPC     N 9777   3.617   3.689   2.808 -0.2170  0.4339 -0.0081
   99SAPC   C12 9778   3.679   3.683   2.939 -0.7959  0.0195 -0.1512
   99SAPC  H12A 9779   3.611   3.639   3.011 -0.0193  0.2564  0.7614
   99SAPC  H12B 9780   3.689   3.783   2.978  1.4819 -1.5289  3.9441
   99SAPC   C13 9781   3.597   3.557   2.744 -0.8341 -0.2338 -1.2690
   99SAPC  H13A 9782   3.523   3.496   2.793  0.3847 -1.7527 -1.2431
   99SAPC  H13B 9783   3.562   3.572   2.642 -0.3156  0.9577 -1.2841
   99SAPC  H13C 9784   3.692   3.506   2.736  0.2558  1.8030 -2.1102
   99SAPC   C14 9785   3.478   3.749   2.818  0.1400  0.7163 -0.3650
   99SAPC  H14A 9786   3.416   3.696   2.888 -1.1479  0.7095 -1.4651
   99SAPC  H14B 9787   3.478   3.856   2.832 -0.8682  0.4288  2.5307
   99SAPC  H14C 9788   3.427   3.732   2.724  3.2758  0.0749 -2.1088
   99SAPC   C15 9789   3.695   3.773   2.716  0.4468 -0.4169  0.0287
   99SAPC  H15A 9790   3.645   3.868   2.717  0.8585 -0.1703 -1.1766
   99SAPC  H15B 9791   3.794   3.789   2.755 -0.0298 -0.9378  1.4932
   99SAPC  H15C 9792   3.684   3.732   2.616 -0.5032  0.0792 -0.0862
   99SAPC   C11 9793   3.809   3.608   2.943 -0.8871 -0.1554  0.0222
   99SAPC  H11A 9794   3.782   3.501   2.929 -2.9747  0.4133 -0.7870
   99SAPC  H11B 9795   3.857   3.602   3.043 -3.1106 -0.5115  1.1553
   99SAPC     P 9796   4.038   3.719   2.852  0.2066  0.3546  0.0430
   99SAPC   O13 9797   4.129   3.675   2.742  0.5637  0.4042  0.5429
   99SAPC   O14 9798   3.999   3.865   2.845 -0.2415  0.0078 -0.3600
   99SAPC   O12 9799   3.900   3.634   2.842 -0.2737  0.1307  0.5872
   99SAPC   O11 9800   4.103   3.682   2.988  0.2214  0.4491 -0.3275
   99SAPC    C1 9801   4.167   3.553   3.006 -0.2500  0.0064 -0.1814
   99SAPC    HA 9802   4.101   3.478   3.055  0.7472 -0.5368  0.3797
   99SAPC    HB 9803   4.206   3.505   2.913  0.5750  1.1865 -0.4628
   99SAPC    C2 9804   4.291   3.562   3.101 -0.0680  0.3387 -0.2149
   99SAPC    HS 9805   4.333   3.459   3.104 -0.2230  0.1792 -2.2836
   99SAPC   O21 9806   4.252   3.608   3.235  0.3407 -0.2448  0.1055
   99SAPC   C21 9807   4.183   3.524   3.311  0.7036 -0.6641  0.2116
   99SAPC   O22 9808   4.156   3.409   3.280 -0.0142  0.2962  0.1450
   99SAPC   C22 9809   4.132   3.586   3.437  0.3505  0.1448 -0.4330
   99SAPC   H2R 9810   4.026   3.615   3.423 -0.2339 -1.4805  0.3918
   99SAPC   H2S 9811   4.117   3.510   3.516 -0.4692  0.0841 -0.6410
   99SAPC    C3 9812   4.418   3.644   3.042  0.8133  0.1191 -0.5095
   99SAPC    HX 9813   4.384   3.747   3.019 -1.4709  0.2006  2.5144
   99SAPC    HY 9814   4.447   3.594   2.947  0.2200  0.6048 -0.9522
   99SAPC   O31 9815   4.521   3.650   3.140  0.0415 -0.0425  0.0669
   99SAPC   C31 9816   4.596   3.543   3.137 -0.2002  0.3326  0.2463
   99SAPC   O32 9817   4.574   3.435   3.086 -0.0382  0.2428  0.3943
   99SAPC   C32 9818   4.732   3.575   3.192 -0.0551  0.1924  0.0334
   99SAPC   H2X 9819   4.723   3.664   3.257  1.5216  0.0450  0.4824
   99SAPC   H2Y 9820   4.806   3.598   3.111  0.0079  0.8597  0.2742
   99SAPC   C23 9821   4.213   3.708   3.485  0.6056  0.6222 -0.1399
   99SAPC   H3R 9822   4.180   3.755   3.581 -3.4265 -0.5026 -0.7808
   99SAPC   H3S 9823   4.196   3.787   3.409 -3.4287 -1.1082 -1.3024
   99SAPC   C24 9824   4.361   3.682   3.509 -0.6418  0.1153  0.3035
   99SAPC   H4R 9825   4.396   3.765   3.574 -0.3781  0.0153  0.2904
   99SAPC   H4S 9826   4.413   3.680   3.411 -0.6106  0.4537  0.3131
   99SAPC   C25 9827   4.398   3.553   3.577 -0.1950  0.7579 -0.1676
   99SAPC   H5R 9828   4.389   3.460   3.518 -0.0014 -0.3051  1.4406
   99SAPC   C26 9829   4.431   3.529   3.703 -0.7931 -0.2474 -0.2109
   99SAPC   H6R 9830   4.460   3.425   3.726 -0.0964  0.2209  1.1414
   99SAPC   C27 9831   4.431   3.627   3.817 -0.6832 -0.1628 -1.0770
   99SAPC   H7R 9832   4.329   3.663   3.841 -0.2694 -0.4723  1.3874
   99SAPC   H7S 9833   4.490   3.715   3.782  0.2814 -0.0375  0.7617
   99SAPC   C28 9834   4.521   3.559   3.934  0.6759 -0.3531  1.0857
   99SAPC   H8R 9835   4.628   3.578   3.915  0.6215 -0.7607  0.3157
   99SAPC   C29 9836   4.472   3.516   4.055 -0.3648  0.1134  0.5058
   99SAPC   H9R 9837   4.550   3.473   4.120  1.2070  2.7537  0.5044
   99SAPC  C210 9838   4.330   3.516   4.098  0.4207  0.7758 -0.3426
   99SAPC  H10R 9839   4.325   3.430   4.169 -1.0729 -1.1585 -2.5918
   99SAPC  H10S 9840   4.264   3.490   4.012 -0.2103  1.7587 -0.1744
   99SAPC  C211 9841   4.306   3.646   4.164  0.5491 -0.1790  0.6142
   99SAPC  H11R 9842   4.260   3.728   4.108  1.9834 -0.2297 -0.6967
   99SAPC  C212 9843   4.346   3.676   4.290 -0.3487  0.1454 -0.1843
   99SAPC  H12R 9844   4.316   3.772   4.334 -1.4856 -1.3893  2.6525
   99SAPC  C213 9845   4.421   3.591   4.391  0.2696  0.0955 -0.6705
   99SAPC  H13R 9846   4.498   3.652   4.443  0.8038 -1.2744  0.1985
   99SAPC  H13S 9847   4.481   3.507   4.347  0.8125 -0.9422  1.8885
   99SAPC  C214 9848   4.322   3.526   4.488 -0.3080 -0.3778 -0.1028
   99SAPC  H14R 9849   4.220   3.513   4.448 -0.4853 -0.6270  0.4253
   99SAPC  C215 9850   4.342   3.501   4.618 -0.6476 -0.4741  0.3444
   99SAPC  H15R 9851   4.257   3.467   4.680 -0.3905 -0.0439  0.9414
   99SAPC  C216 9852   4.471   3.510   4.703 -0.3874  0.6520  0.5631
   99SAPC  H16R 9853   4.500   3.616   4.719 -0.0338  0.4014  1.7007
   99SAPC  H16S 9854   4.551   3.463   4.642 -1.5619  1.4591 -1.7286
   99SAPC  C217 9855   4.481   3.429   4.836 -0.0182 -0.7142 -0.0713
   99SAPC  H17R 9856   4.581   3.443   4.882  0.3222  0.3760 -1.0733
   99SAPC  H17S 9857   4.461   3.323   4.811 -0.3681 -1.1655  1.9468
   99SAPC  C218 9858   4.375   3.465   4.942 -0.1819 -0.2628  0.0765
   99SAPC  H18R 9859   4.277   3.424   4.910 -0.7738  0.3800  1.0226
   99SAPC  H18S 9860   4.374   3.576   4.957 -1.7668 -0.4729  1.9973
   99SAPC  C219 9861   4.419   3.407   5.081 -0.3089 -0.5187 -0.0782
   99SAPC  H19R 9862   4.351   3.439   5.162  2.7902 -0.5255  2.7354
   99SAPC  H19S 9863   4.517   3.451   5.110 -0.1790  1.2673 -2.8103
   99SAPC  C220 9864   4.425   3.255   5.090 -0.6633  0.1254 -0.6650
   99SAPC  H20R 9865   4.333   3.203   5.056 -1.0808 -0.4058  1.1683
   99SAPC  H20S 9866   4.436   3.221   5.195 -2.3894 -1.6406 -0.9905
   99SAPC  H20T 9867   4.502   3.204   5.029 -0.6112 -0.9373  0.2688
   99SAPC   C33 9868   4.791   3.465   3.267  0.3262  0.0248 -0.0095
   99SAPC   H3X 9869   4.897   3.488   3.294  0.6979  0.2461 -1.5731
   99SAPC   H3Y 9870   4.794   3.373   3.205 -1.0442  0.9064 -1.4494
   99SAPC   C34 9871   4.724   3.445   3.407  0.4580  0.1106 -0.5163
   99SAPC   H4X 9872   4.631   3.389   3.381  0.7039 -0.9445  0.7447
   99SAPC   H4Y 9873   4.707   3.541   3.460  0.6305  0.1805 -0.5874
   99SAPC   C35 9874   4.804   3.340   3.497 -0.0832  0.1638  0.1987
   99SAPC   H5X 9875   4.913   3.347   3.476 -0.1669 -1.1536 -0.8350
   99SAPC   H5Y 9876   4.790   3.240   3.450  1.5770  0.6766 -1.5688
   99SAPC   C36 9877   4.783   3.352   3.647  0.4713  0.8025  0.1101
   99SAPC   H6X 9878   4.678   3.354   3.682 -0.6070 -2.6320 -2.3236
   99SAPC   H6Y 9879   4.843   3.442   3.674  2.7694 -0.6298  0.0603
   99SAPC   C37 9880   4.843   3.244   3.727 -0.1666  0.0070 -0.0782
   99SAPC   H7X 9881   4.949   3.226   3.701  0.3715  1.7724  0.7062
   99SAPC   H7Y 9882   4.789   3.153   3.693 -1.7808  1.7091 -2.3943
   99SAPC   C38 9883   4.830   3.256   3.884 -0.7485  0.1042 -0.0193
   99SAPC   H8X 9884   4.729   3.280   3.923 -0.1743  1.3432  0.7426
   99SAPC   H8Y 9885   4.905   3.335   3.908  1.2788 -1.4682 -0.8630
   99SAPC   C39 9886   4.876   3.123   3.955 -0.6992 -0.3046  0.0789
   99SAPC   H9X 9887   4.965   3.080   3.905  0.3179 -0.9545  2.3299
   99SAPC   H9Y 9888   4.792   3.050   3.959  0.6351 -1.8888  0.4344
   99SAPC  C310 9889   4.900   3.148   4.104  0.4369  0.3336 -0.6899
   99SAPC  H10X 9890   4.799   3.167   4.147  0.6028 -0.3633  0.0296
   99SAPC  H10Y 9891   4.964   3.238   4.120  1.4501 -0.6502  1.0690
   99SAPC  C311 9892   4.953   3.028   4.179 -0.5223  0.2043  0.4588
   99SAPC  H11X 9893   5.060   3.008   4.158 -0.5986 -1.7522  1.6442
   99SAPC  H11Y 9894   4.898   2.938   4.143 -0.5357  1.0883 -1.9075
   99SAPC  C312 9895   4.934   3.053   4.330 -0.0856 -0.4896  0.1406
   99SAPC  H12X 9896   4.988   3.145   4.360 -2.3645  0.5075  1.4687
   99SAPC  H12Y 9897   4.978   2.969   4.388 -3.3896 -0.4193  3.0587
   99SAPC  C313 9898   4.787   3.063   4.379  0.0423 -0.2373 -0.5364
   99SAPC  H13X 9899   4.722   2.984   4.336  0.1426  0.1407 -1.4040
   99SAPC  H13Y 9900   4.751   3.164   4.350  1.2235 -0.0797 -1.4967
   99SAPC  C314 9901   4.775   3.062   4.527 -0.1147  0.5398  0.0217
   99SAPC  H14X 9902   4.670   3.081   4.559  0.1930  2.1984  0.1182
   99SAPC  H14Y 9903   4.835   3.150   4.558 -1.7535  1.3915  0.9254
   99SAPC  C315 9904   4.840   2.940   4.605 -0.1726 -0.0192 -0.1102
   99SAPC  H15X 9905   4.947   2.937   4.575 -1.0548 -0.6982 -3.5558
   99SAPC  H15Y 9906   4.807   2.845   4.558 -0.0434  1.1190 -2.6510
   99SAPC  C316 9907   4.843   2.952   4.760  0.2893  0.9980 -0.2554
   99SAPC  H16X 9908   4.900   3.044   4.784 -0.3966  0.9249  1.7777
   99SAPC  H16Y 9909   4.893   2.866   4.809 -1.5786  1.3274  2.4787
   99SAPC  C317 9910   4.700   2.945   4.816 -0.7937  0.9451  0.2764
   99SAPC  H17X 9911   4.650   3.037   4.776 -1.0567  1.1968  1.1680
   99SAPC  H17Y 9912   4.714   2.946   4.926 -0.4045 -0.9069  0.2586
   99SAPC  C318 9913   4.621   2.812   4.774 -0.1566 -0.1736 -0.6169
   99SAPC  H18X 9914   4.674   2.717   4.796  0.4516  0.2430 -0.2803
   99SAPC  H18Y 9915   4.601   2.813   4.664 -1.2358  2.7420 -0.4818
   99SAPC  H18Z 9916   4.523   2.799   4.825  0.8232 -0.9513  1.1352
  100SAPC     N 9917   2.994   3.156   2.312  0.3658  0.0199  0.3101
  100SAPC   C12 9918   3.074   3.211   2.423 -0.6079 -0.0170 -0.0181
  100SAPC  H12A 9919   3.143   3.135   2.458 -0.2267  0.4812  0.3485
  100SAPC  H12B 9920   3.010   3.227   2.508 -2.0278 -1.5410 -0.7588
  100SAPC   C13 9921   3.070   3.143   2.178  0.9557 -0.6147  0.0399
  100SAPC  H13A 9922   3.009   3.103   2.098 -0.5557 -2.0303  1.8073
  100SAPC  H13B 9923   3.104   3.241   2.146 -1.3905 -0.0534 -0.9536
  100SAPC  H13C 9924   3.153   3.077   2.195  1.5512  0.0278 -0.3056
  100SAPC   C14 9925   2.976   3.010   2.344 -0.0358  0.1841 -0.2082
  100SAPC  H14A 9926   3.073   2.964   2.350  1.0310  2.1301 -1.5786
  100SAPC  H14B 9927   2.930   3.003   2.442 -0.4245 -1.2577 -0.4735
  100SAPC  H14C 9928   2.908   2.965   2.273 -1.3796  0.7750  0.6453
  100SAPC   C15 9929   2.859   3.221   2.282 -0.3726 -0.4450 -0.2638
  100SAPC  H15A 9930   2.808   3.226   2.378  0.9175 -0.3376  0.4405
  100SAPC  H15B 9931   2.862   3.323   2.247 -1.3902  0.0188  0.9047
  100SAPC  H15C 9932   2.795   3.172   2.210  0.6235 -1.5359 -0.4352
  100SAPC   C11 9933   3.143   3.348   2.386  0.2936  0.4643 -0.4685
  100SAPC  H11A 9934   3.199   3.350   2.290  2.3749  1.1517  0.6915
  100SAPC  H11B 9935   3.218   3.369   2.464  0.2490  1.0307 -0.5766
  100SAPC     P 9936   2.986   3.501   2.526  0.3134  0.5235  0.1740
  100SAPC   O13 9937   3.084   3.608   2.544  0.4216  0.4616  0.4013
  100SAPC   O14 9938   2.846   3.546   2.518 -0.0903  0.3300  0.1830
  100SAPC   O12 9939   3.032   3.439   2.386  0.1356  0.0687 -0.3481
  100SAPC   O11 9940   2.990   3.384   2.634  0.5143 -0.1262  0.0173
  100SAPC    C1 9941   3.096   3.354   2.729  1.0796 -0.9533 -0.6533
  100SAPC    HA 9942   3.118   3.245   2.725  1.1384 -0.9130 -1.8971
  100SAPC    HB 9943   3.189   3.388   2.678  0.9839  1.0224  0.3996
  100SAPC    C2 9944   3.081   3.402   2.877  0.5165  0.1079 -0.4147
  100SAPC    HS 9945   3.183   3.381   2.917 -0.5273 -1.7017  1.4940
  100SAPC   O21 9946   2.986   3.313   2.942  0.2624 -0.4063 -0.1849
  100SAPC   C21 9947   3.024   3.256   3.053 -0.2804  0.1114  0.2537
  100SAPC   O22 9948   3.138   3.243   3.090 -0.2400 -0.3637 -0.2968
  100SAPC   C22 9949   2.894   3.218   3.128  0.2616  0.1315 -0.3143
  100SAPC   H2R 9950   2.823   3.302   3.112 -1.2461 -0.9446  0.5215
  100SAPC   H2S 9951   2.845   3.132   3.077 -1.1416  0.8736 -0.2845
  100SAPC    C3 9952   3.050   3.548   2.894  0.0809 -0.5059 -0.8316
  100SAPC    HX 9953   2.944   3.559   2.860  0.7098 -0.6622 -3.0193
  100SAPC    HY 9954   3.117   3.607   2.828  0.4396 -0.4683 -0.4358
  100SAPC   O31 9955   3.046   3.603   3.030 -0.0295  0.1939 -0.4678
  100SAPC   C31 9956   3.161   3.644   3.079 -0.2866  0.4597  0.3427
  100SAPC   O32 9957   3.266   3.659   3.016  0.3147  0.0542  0.3204
  100SAPC   C32 9958   3.138   3.690   3.219  0.4383 -0.0853  0.0548
  100SAPC   H2X 9959   3.029   3.703   3.235  0.0411 -1.2065 -1.5659
  100SAPC   H2Y 9960   3.185   3.790   3.237  1.6046 -0.7466  0.8516
  100SAPC   C23 9961   2.921   3.206   3.274 -0.3013 -0.2140  0.0667
  100SAPC   H3R 9962   2.965   3.297   3.319  2.0377 -0.9548 -0.5871
  100SAPC   H3S 9963   2.984   3.114   3.281 -0.6378 -0.7011 -2.5345
  100SAPC   C24 9964   2.794   3.174   3.352  0.6319  0.0633 -0.2209
  100SAPC   H4R 9965   2.817   3.141   3.456  3.7521  0.1847 -0.7762
  100SAPC   H4S 9966   2.751   3.084   3.303  0.9925 -0.2371  0.0073
  100SAPC   C25 9967   2.688   3.278   3.361  0.6088 -0.9620  0.1591
  100SAPC   H5R 9968   2.608   3.286   3.287 -0.7681  1.6053  1.7903
  100SAPC   C26 9969   2.681   3.373   3.454 -0.8264  0.1764  0.6528
  100SAPC   H6R 9970   2.588   3.431   3.459 -1.6603 -0.3641 -4.0583
  100SAPC   C27 9971   2.785   3.391   3.566 -0.1298  0.3676  0.0140
  100SAPC   H7R 9972   2.886   3.394   3.520 -0.2806 -1.8818 -0.6117
  100SAPC   H7S 9973   2.783   3.302   3.633 -2.5748  1.4849  1.5538
  100SAPC   C28 9974   2.755   3.517   3.646 -0.4441  0.4559  0.0328
  100SAPC   H8R 9975   2.768   3.606   3.583  0.5483 -0.2693 -0.8075
  100SAPC   C29 9976   2.715   3.524   3.774 -0.6268 -0.0940  0.3732
  100SAPC   H9R 9977   2.663   3.613   3.813 -1.4648  0.4917 -1.8845
  100SAPC  C210 9978   2.700   3.408   3.869  0.1289 -0.2976 -0.0843
  100SAPC  H10R 9979   2.720   3.311   3.818  2.8625  0.0898  0.1059
  100SAPC  H10S 9980   2.596   3.405   3.907  0.9873 -1.1506  2.3857
  100SAPC  C211 9981   2.803   3.423   3.977  0.1927  0.1565  0.1223
  100SAPC  H11R 9982   2.904   3.431   3.936  0.5224 -0.2910  0.8353
  100SAPC  C212 9983   2.776   3.435   4.110 -0.1087 -0.4987 -0.3512
  100SAPC  H12R 9984   2.862   3.444   4.178  0.6940  3.0957 -1.6437
  100SAPC  C213 9985   2.657   3.409   4.191  0.3791 -0.7309 -0.7301
  100SAPC  H13R 9986   2.569   3.456   4.140  1.4910 -1.5462 -3.5809
  100SAPC  H13S 9987   2.668   3.462   4.289  0.2476  0.3266 -1.2668
  100SAPC  C214 9988   2.628   3.269   4.212  0.2319 -0.0266  0.0796
  100SAPC  H14R 9989   2.644   3.206   4.123  0.3549  0.0718  0.0324
  100SAPC  C215 9990   2.632   3.207   4.331 -0.0506 -0.3422 -0.0904
  100SAPC  H15R 9991   2.607   3.100   4.323  0.5922 -0.3571 -4.0741
  100SAPC  C216 9992   2.652   3.258   4.475 -0.2163 -0.0819  0.2608
  100SAPC  H16R 9993   2.704   3.355   4.494 -2.2201  1.0533  0.2033
  100SAPC  H16S 9994   2.722   3.192   4.530  0.9237  2.0972  1.5826
  100SAPC  C217 9995   2.519   3.266   4.550  0.1633  0.5386 -0.7094
  100SAPC  H17R 9996   2.493   3.158   4.553  2.1061  0.0414  0.2988
  100SAPC  H17S 9997   2.453   3.331   4.490 -2.4678 -1.2607  0.0634
  100SAPC  C218 9998   2.536   3.303   4.695 -0.5260  0.1929 -0.0633
  100SAPC  H18R 9999   2.573   3.408   4.693  2.0744 -0.6515 -1.0035
  100SAPC  H18S10000   2.624   3.256   4.745  1.9134  3.3077 -1.1283
  100SAPC  C21910001   2.414   3.302   4.787 -0.2940  0.6685 -0.0833
  100SAPC  H19R10002   2.366   3.205   4.763 -1.1079  1.0057  0.1172
  100SAPC  H19S10003   2.336   3.374   4.752 -1.2149 -0.5027 -0.5040
  100SAPC  C22010004   2.445   3.328   4.935 -0.4055  0.1878 -0.2367
  100SAPC  H20R10005   2.350   3.308   4.989 -0.5103  0.4007 -0.3408
  100SAPC  H20S10006   2.480   3.433   4.943 -0.1076  0.2298 -1.8780
  100SAPC  H20T10007   2.527   3.266   4.977 -0.8951  0.5295  1.3016
  100SAPC   C3310008   3.190   3.577   3.318 -0.0276  1.0973  0.1983
  100SAPC   H3X10009   3.298   3.558   3.302 -0.1399  1.3050 -0.9322
  100SAPC   H3Y10010   3.127   3.488   3.298  0.4434  0.8239 -0.0938
  100SAPC   C3410011   3.152   3.611   3.455  0.9807  0.0476  0.1756
  100SAPC   H4X10012   3.044   3.639   3.449  0.9280 -0.4645 -4.2820
  100SAPC   H4Y10013   3.209   3.699   3.492  2.8359 -0.2012 -1.9180
  100SAPC   C3510014   3.169   3.499   3.556 -0.3458 -0.3387 -0.0865
  100SAPC   H5X10015   3.263   3.443   3.534  0.0419 -0.3227  1.4507
  100SAPC   H5Y10016   3.089   3.423   3.540 -0.3738 -0.8364  2.1108
  100SAPC   C3610017   3.177   3.553   3.700  0.1239 -0.7688 -0.3527
  100SAPC   H6X10018   3.089   3.613   3.732  0.3549 -0.2231 -0.7223
  100SAPC   H6Y10019   3.269   3.613   3.712 -0.7240  1.0310 -2.2217
  100SAPC   C3710020   3.194   3.448   3.813  0.4659 -0.0122 -0.2413
  100SAPC   H7X10021   3.247   3.361   3.768  1.6818  1.2219 -1.2749
  100SAPC   H7Y10022   3.098   3.400   3.841  0.2331  0.5937  0.0062
  100SAPC   C3810023   3.282   3.504   3.927 -0.4011 -0.2769  0.4712
  100SAPC   H8X10024   3.262   3.613   3.921 -0.5261 -0.3453 -0.7236
  100SAPC   H8Y10025   3.385   3.489   3.885 -0.8761  1.7270 -1.6154
  100SAPC   C3910026   3.269   3.427   4.056 -0.1470 -0.1565 -0.1898
  100SAPC   H9X10027   3.299   3.321   4.042 -1.5414 -0.8697  1.7339
  100SAPC   H9Y10028   3.162   3.434   4.085  0.5983 -0.3091  3.0500
  100SAPC  C31010029   3.336   3.490   4.171  0.2863 -0.7767 -0.1544
  100SAPC  H10X10030   3.314   3.598   4.178 -1.6273 -1.1729  0.4481
  100SAPC  H10Y10031   3.445   3.486   4.148  0.3684 -0.6134  0.1898
  100SAPC  C31110032   3.305   3.430   4.308  0.0972 -0.5191  0.2221
  100SAPC  H11X10033   3.391   3.443   4.378 -0.1313  1.2788  0.2126
  100SAPC  H11Y10034   3.296   3.320   4.298 -1.6873 -0.3015 -1.0864
  100SAPC  C31210035   3.163   3.472   4.360 -0.1906 -0.0860 -0.0097
  100SAPC  H12X10036   3.087   3.464   4.279  1.1895 -2.5739 -1.1493
  100SAPC  H12Y10037   3.164   3.581   4.385 -2.2231 -0.3080  1.3420
  100SAPC  C31310038   3.123   3.408   4.489  0.1073  0.1551  0.4654
  100SAPC  H13X10039   3.205   3.431   4.560  1.0671  2.4597 -1.2674
  100SAPC  H13Y10040   3.118   3.301   4.460  0.2877  0.1054  0.6135
  100SAPC  C31410041   2.994   3.449   4.554 -0.2419 -0.0128 -0.5630
  100SAPC  H14X10042   2.904   3.456   4.490 -0.8816 -1.3413  0.1289
  100SAPC  H14Y10043   3.022   3.552   4.585 -1.4322  0.4245 -0.9069
  100SAPC  C31510044   2.962   3.366   4.680  0.1601 -0.5910  0.1805
  100SAPC  H15X10045   2.939   3.263   4.645  0.5614 -0.9056  0.8324
  100SAPC  H15Y10046   2.869   3.402   4.729 -1.5941 -1.9411 -1.9225
  100SAPC  C31610047   3.072   3.362   4.783  0.9532  0.6400 -0.0385
  100SAPC  H16X10048   3.172   3.335   4.742 -0.7612 -0.2112 -4.1519
  100SAPC  H16Y10049   3.047   3.274   4.846  1.2520  0.3209 -0.3622
  100SAPC  C31710050   3.088   3.486   4.869  0.3817 -0.6709 -0.1120
  100SAPC  H17X10051   2.986   3.509   4.908  1.1661  1.4256  0.8568
  100SAPC  H17Y10052   3.100   3.574   4.801 -3.1902 -0.3756 -0.5930
  100SAPC  C31810053   3.196   3.480   4.970  0.8167  0.4052 -0.8765
  100SAPC  H18X10054   3.227   3.585   4.988  2.7688 -0.3834  0.6995
  100SAPC  H18Y10055   3.289   3.441   4.925 -0.0130 -0.7758 -1.6409
  100SAPC  H18Z10056   3.173   3.432   5.068 -0.5366 -1.3102 -1.9676
  101OSM      N10057   6.083   3.818   7.024 -0.4942  0.2755 -0.1381
  101OSM    C1510058   5.943   3.867   7.056  0.5847 -0.0212 -0.6410
  101OSM   H15A10059   5.880   3.780   7.071  2.0359 -1.2291 -1.3441
  101OSM   H15B10060   5.913   3.914   6.963  1.1014 -1.4135 -1.5339
  101OSM   H15C10061   5.954   3.936   7.138 -1.2247  0.0881 -0.4383
  101OSM    C1410062   6.073   3.743   6.898  0.3523  0.0529  0.2085
  101OSM   H14A10063   6.169   3.708   6.863  0.0473 -0.1581 -0.4237
  101OSM   H14B10064   6.026   3.803   6.822  0.6674  1.5072  1.1352
  101OSM   H14C10065   6.015   3.651   6.895  0.3160  0.1015 -1.1254
  101OSM    C1310066   6.175   3.931   7.001 -0.2938  0.0577 -0.1207
  101OSM   H13A10067   6.277   3.896   6.990  0.6867  0.8616  4.2668
  101OSM   H13B10068   6.171   3.993   7.089 -1.8407  1.0650 -0.8798
  101OSM   H13C10069   6.140   4.000   6.927  1.6520  1.6171  0.3329
  101OSM    C1210070   6.140   3.735   7.139 -0.0189  0.8678  0.6059
  101OSM   H12A10071   6.075   3.649   7.155  1.3058  0.0062  1.5500
  101OSM   H12B10072   6.134   3.783   7.235  0.3865  1.0316  0.5466
  101OSM    C1110073   6.285   3.673   7.112  0.1084 -0.5534 -0.4680
  101OSM   H11A10074   6.298   3.640   7.007  1.8587  0.3630 -0.5850
  101OSM   H11B10075   6.302   3.586   7.178 -1.7645  0.1241  0.9869
  101OSM      P10076   6.535   3.724   7.142 -0.5077 -0.2629  0.1123
  101OSM    O1310077   6.625   3.834   7.184  0.3902 -0.4274 -0.6472
  101OSM    O1410078   6.560   3.594   7.209 -0.5086 -0.7809  0.2821
  101OSM    O1110079   6.567   3.690   6.990  0.0710  0.0456 -0.0694
  101OSM    O1210080   6.384   3.774   7.137  0.7699 -0.4865 -0.6539
  101OSM    C1S10081   6.637   3.787   6.915  0.3424  0.2635 -0.0250
  101OSM    H1S10082   6.731   3.815   6.968  1.1206 -0.3108 -1.0694
  101OSM    H1T10083   6.579   3.880   6.896 -0.6926 -0.7409 -2.1016
  101OSM     NF10084   6.770   3.809   6.717  0.2806  0.1978 -0.4364
  101OSM    HNF10085   6.763   3.890   6.660 -2.0108 -0.4652 -1.2088
  101OSM    C2S10086   6.652   3.745   6.766 -0.0350  0.8228  0.4723
  101OSM    H2S10087   6.668   3.635   6.769  1.1622  0.9886  1.3725
  101OSM    C3S10088   6.523   3.756   6.677 -0.3079 -0.0386  0.5692
  101OSM    H3S10089   6.498   3.864   6.671 -0.6521 -0.1730 -0.9581
  101OSM     O310090   6.412   3.688   6.732 -0.5279  0.0955 -0.4386
  101OSM    HO310091   6.436   3.631   6.806 -2.6490 -0.0062  0.2677
  101OSM    C4S10092   6.539   3.720   6.526  0.9821  0.5591  0.1026
  101OSM    H4S10093   6.526   3.807   6.461  0.0566  1.3775  1.3283
  101OSM    C5S10094   6.552   3.596   6.478  0.4672 -0.1417 -0.9527
  101OSM    H5S10095   6.542   3.511   6.548 -1.6535 -0.5376 -1.6630
  101OSM    C6S10096   6.550   3.560   6.333 -0.1274 -0.3595 -0.6084
  101OSM    H6S10097   6.454   3.510   6.308 -1.2803  1.1586  0.6000
  101OSM    H6T10098   6.628   3.485   6.305 -0.5486 -0.0649 -2.7394
  101OSM    C7S10099   6.573   3.685   6.247 -0.4765  0.3777  0.3080
  101OSM    H7S10100   6.659   3.748   6.278 -0.1933  0.9024 -1.4314
  101OSM    H7T10101   6.483   3.750   6.254 -0.1717  0.8155  0.2576
  101OSM    C8S10102   6.590   3.658   6.096  0.6213 -0.1000 -0.1053
  101OSM    H8S10103   6.564   3.746   6.032  0.3353  0.0523  0.2184
  101OSM    H8T10104   6.511   3.583   6.077 -1.5126  1.9438  0.3480
  101OSM    C9S10105   6.721   3.605   6.045 -0.0274 -0.2615 -0.1995
  101OSM    H9S10106   6.732   3.609   5.935  0.6826 -0.1883 -0.1271
  101OSM    H9T10107   6.731   3.499   6.076 -2.5111 -0.9885 -1.6068
  101OSM   C10S10108   6.846   3.681   6.099  0.4584 -0.4749  0.0282
  101OSM   H10S10109   6.864   3.653   6.205  0.3767 -1.4927 -0.2164
  101OSM   H10T10110   6.814   3.787   6.102 -0.7422 -0.8220  3.0355
  101OSM   C11S10111   6.975   3.647   6.018 -0.0948 -0.2387 -0.2266
  101OSM   H11S10112   6.968   3.640   5.908  0.1196 -2.4434 -0.1494
  101OSM   H11T10113   6.989   3.539   6.041 -2.7973 -0.5012  0.4561
  101OSM   C12S10114   7.097   3.735   6.057  0.4924  0.2162  0.6936
  101OSM   H12S10115   7.111   3.736   6.167 -2.8870 -0.4310  1.2390
  101OSM   H12T10116   7.067   3.841   6.037  1.2242  0.6734  1.9137
  101OSM   C13S10117   7.229   3.694   5.996  0.1702  0.3222 -0.5565
  101OSM   H13S10118   7.249   3.585   6.002 -0.4054  0.2978  1.9562
  101OSM   H13T10119   7.304   3.745   6.059  0.3588  1.6973 -1.8183
  101OSM   C14S10120   7.243   3.744   5.850  0.2384 -0.5765  0.1094
  101OSM   H14S10121   7.223   3.853   5.854 -2.9219 -1.0426 -0.6639
  101OSM   H14T10122   7.156   3.699   5.798  0.8199 -0.8009 -0.7080
  101OSM   C15S10123   7.373   3.706   5.783  0.3275  0.5022  0.0344
  101OSM   H15S10124   7.396   3.597   5.787 -2.9697 -0.3362 -0.7310
  101OSM   H15T10125   7.449   3.756   5.847  1.0118 -0.2246 -0.1924
  101OSM   C16S10126   7.375   3.765   5.640 -0.0112 -0.7547  0.1626
  101OSM   H16S10127   7.480   3.765   5.602 -0.9520  1.2840 -2.7974
  101OSM   H16T10128   7.353   3.873   5.649  2.3096 -0.2167  0.0345
  101OSM   C17S10129   7.274   3.692   5.552  0.0910  0.1197  0.8091
  101OSM   H17S10130   7.188   3.651   5.608  0.2655  1.0226  1.7653
  101OSM   H17T10131   7.335   3.608   5.513 -0.4690 -0.2991  0.8228
  101OSM   C18S10132   7.230   3.778   5.429 -0.2522 -0.1304  0.0302
  101OSM   H18S10133   7.165   3.868   5.443  0.8603  0.4712  1.5183
  101OSM   H18T10134   7.175   3.707   5.363 -2.5528  1.2673  0.3052
  101OSM   H18U10135   7.320   3.805   5.370  0.5289  0.4154  1.4342
  101OSM    C1F10136   6.893   3.759   6.736 -0.0386 -0.1881 -0.3804
  101OSM     OF10137   6.910   3.677   6.824  0.4431 -0.0963  0.2061
  101OSM    C2F10138   7.010   3.815   6.664 -0.2615 -0.4664  0.3912
  101OSM    H2F10139   7.082   3.843   6.744 -0.3709  2.6851 -0.4808
  101OSM    H2G10140   6.995   3.907   6.603  3.2762 -0.3364 -0.4945
  101OSM    C3F10141   7.087   3.705   6.586  0.3399 -0.0487  0.8495
  101OSM    H3F10142   7.025   3.668   6.501 -0.0781  3.7331 -0.7126
  101OSM    H3G10143   7.107   3.613   6.645 -0.0160 -0.9414 -0.3781
  101OSM    C4F10144   7.215   3.768   6.533 -0.0663 -1.4504 -0.2585
  101OSM    H4F10145   7.287   3.801   6.610  1.1281 -0.7979 -1.5938
  101OSM    H4G10146   7.182   3.862   6.483  0.9418 -0.5647  0.7046
  101OSM    C5F10147   7.274   3.679   6.430 -0.2336 -0.3492 -0.7598
  101OSM    H5F10148   7.196   3.659   6.354  0.6845 -2.0667 -1.3112
  101OSM    H5G10149   7.311   3.585   6.476 -1.6573  0.0724  1.3948
  101OSM    C6F10150   7.400   3.741   6.355 -0.1986  0.5642 -0.7904
  101OSM    H6F10151   7.417   3.677   6.267 -0.6091 -2.0927  0.9442
  101OSM    H6G10152   7.492   3.736   6.418 -1.3680  1.5612  1.1019
  101OSM    C7F10153   7.384   3.888   6.319 -0.1499 -0.4930  0.3144
  101OSM    H7F10154   7.365   3.948   6.411  0.5248 -1.7143  1.2684
  101OSM    H7G10155   7.303   3.900   6.244 -1.0637 -2.6271  0.8809
  101OSM    C8F10156   7.515   3.939   6.256  0.7411  0.4928  0.7066
  101OSM    H8F10157   7.527   3.877   6.165  0.9506  1.8727 -0.2401
  101OSM    H8G10158   7.604   3.905   6.312  1.7184 -0.2899 -1.2412
  101OSM    C9F10159   7.520   4.083   6.218  0.2677  0.7709 -0.2739
  101OSM    H9F10160   7.499   4.149   6.304  0.7362 -0.3636  0.7438
  101OSM   C10F10161   7.536   4.139   6.095 -0.2249 -0.2865 -0.3895
  101OSM   H10F10162   7.565   4.244   6.102  1.4552 -0.6731 -0.8892
  101OSM   C11F10163   7.565   4.066   5.965  0.0963  0.6322 -0.4546
  101OSM   H11F10164   7.503   3.975   5.951  0.4867  0.6245 -2.4459
  101OSM   H11G10165   7.667   4.022   5.966 -0.5816 -1.0092 -0.4003
  101OSM   C12F10166   7.549   4.156   5.843 -0.2724  0.2474 -0.1604
  101OSM   H12F10167   7.602   4.251   5.865  1.0310 -0.3462 -0.6783
  101OSM   H12G10168   7.445   4.194   5.832  0.2796  1.7138 -0.5270
  101OSM   C13F10169   7.610   4.073   5.728 -0.2350 -1.1326  0.3621
  101OSM   H13F10170   7.563   3.973   5.731 -0.5404 -1.1195 -1.8323
  101OSM   H13G10171   7.720   4.070   5.744 -0.1779 -3.2724 -0.0796
  101OSM   C14F10172   7.575   4.138   5.589 -0.3158 -0.2150 -0.0678
  101OSM   H14F10173   7.591   4.247   5.602 -1.9903  0.0093  0.4502
  101OSM   H14G10174   7.466   4.121   5.574 -0.0698 -1.0997 -0.9195
  101OSM   C15F10175   7.658   4.090   5.470  0.0711  0.4562  0.0803
  101OSM   H15F10176   7.615   4.137   5.379 -0.0471 -0.5413 -0.3934
  101OSM   H15G10177   7.644   3.980   5.455  1.1357 -0.2835  3.4213
  101OSM   C16F10178   7.803   4.138   5.491  0.3341 -0.6017  0.7105
  101OSM   H16F10179   7.865   4.068   5.432  1.3742 -0.4259  1.5646
  101OSM   H16G10180   7.842   4.123   5.594  1.1499 -0.9837  0.3542
  101OSM   C17F10181   7.838   4.281   5.435  0.9827 -0.0360  0.0753
  101OSM   H17F10182   7.935   4.321   5.471  0.5177  0.9707  0.2351
  101OSM   H17G10183   7.771   4.351   5.489  1.3193  0.2832  0.0768
  101OSM   C18F10184   7.834   4.303   5.285  0.1854  0.2559  0.3062
  101OSM   H18F10185   7.734   4.287   5.240 -0.7323 -0.6538  2.5273
  101OSM   H18G10186   7.900   4.224   5.242  1.9869  2.5905 -1.4779
  101OSM   H18H10187   7.879   4.393   5.238 -0.6662  0.1042 -0.8397
  102OSM      N10188   6.577   2.039   7.238  0.2696  0.3482 -0.2399
  102OSM    C1510189   6.557   1.903   7.300  0.5638 -0.0693 -0.0051
  102OSM   H15A10190   6.581   1.887   7.404  1.7028 -0.9767 -0.3872
  102OSM   H15B10191   6.619   1.830   7.252  0.4000  0.3835 -0.9276
  102OSM   H15C10192   6.457   1.865   7.287 -0.0959  2.4613 -3.8625
  102OSM    C1410193   6.724   2.075   7.219 -0.1496 -0.4774  0.1202
  102OSM   H14A10194   6.773   2.025   7.137 -0.4283 -0.4626 -0.0576
  102OSM   H14B10195   6.794   2.056   7.299 -0.6571  1.2426  1.0221
  102OSM   H14C10196   6.713   2.179   7.192 -0.0114 -0.4000  0.3577
  102OSM    C1310197   6.508   2.032   7.100 -0.5916  0.2634 -0.1598
  102OSM   H13A10198   6.413   1.981   7.101 -0.4171 -0.0597  0.0176
  102OSM   H13B10199   6.579   1.988   7.032  0.2134  0.8395  0.2862
  102OSM   H13C10200   6.487   2.133   7.069 -0.4212  0.8221  1.4202
  102OSM    C1210201   6.512   2.142   7.327 -0.7427 -0.0551  0.1320
  102OSM   H12A10202   6.568   2.140   7.419 -1.7404 -0.2448  0.7463
  102OSM   H12B10203   6.414   2.099   7.340 -1.7937  1.3362 -2.4562
  102OSM    C1110204   6.513   2.287   7.285 -0.0972  0.0344 -0.2748
  102OSM   H11A10205   6.447   2.337   7.360 -1.0070 -1.2908 -0.1521
  102OSM   H11B10206   6.470   2.294   7.183 -0.4069 -1.9534 -0.3241
  102OSM      P10207   6.659   2.499   7.259 -0.0890 -0.0763 -0.0639
  102OSM    O1310208   6.584   2.564   7.366 -0.2520 -0.5733  0.3137
  102OSM    O1410209   6.800   2.548   7.246 -0.1944  0.2258 -0.1977
  102OSM    O1110210   6.595   2.522   7.118 -0.0100  0.0804  0.3667
  102OSM    O1210211   6.649   2.340   7.288  0.3829 -0.2231  0.2538
  102OSM    C1S10212   6.630   2.431   7.011  0.5865  0.9031  0.1276
  102OSM    H1S10213   6.617   2.323   7.032  2.4593 -0.0558 -3.1277
  102OSM    H1T10214   6.736   2.437   6.981  0.5606 -2.3412 -0.9079
  102OSM     NF10215   6.548   2.336   6.794 -0.4850 -0.6108 -0.2253
  102OSM    HNF10216   6.617   2.325   6.723  0.3094  0.5029  0.3443
  102OSM    C2S10217   6.543   2.458   6.882 -0.3577 -0.1265  0.2361
  102OSM    H2S10218   6.441   2.476   6.922  0.1161  2.5984  0.4096
  102OSM    C3S10219   6.598   2.580   6.807  0.0604  0.1464  0.2501
  102OSM    H3S10220   6.706   2.563   6.789  0.0283  1.7857 -1.9032
  102OSM     O310221   6.592   2.704   6.877 -0.1637 -1.1553 -0.1597
  102OSM    HO310222   6.586   2.689   6.972 -1.3742  1.5054  0.2607
  102OSM    C4S10223   6.528   2.597   6.675 -0.3916 -0.1746 -0.1195
  102OSM    H4S10224   6.424   2.632   6.687  0.6622  3.3396 -0.0078
  102OSM    C5S10225   6.583   2.585   6.552 -0.4437  0.0113  0.0508
  102OSM    H5S10226   6.689   2.557   6.544  0.0564  0.8563  2.7545
  102OSM    C6S10227   6.501   2.587   6.426 -0.5374  0.5232  0.0465
  102OSM    H6S10228   6.436   2.497   6.426 -1.2129  1.0013  0.0688
  102OSM    H6T10229   6.565   2.588   6.336  0.4294 -2.5944  0.6159
  102OSM    C7S10230   6.400   2.698   6.413  0.1311 -0.1804 -0.1444
  102OSM    H7S10231   6.463   2.790   6.414  1.3869 -1.0114  0.2850
  102OSM    H7T10232   6.338   2.703   6.504 -1.0481  0.4674 -0.9535
  102OSM    C8S10233   6.311   2.681   6.293 -0.9380  0.1089  0.5221
  102OSM    H8S10234   6.240   2.766   6.285 -3.3034 -1.9196 -2.3907
  102OSM    H8T10235   6.254   2.588   6.316  0.7474 -0.1965  4.2038
  102OSM    C9S10236   6.387   2.666   6.156  0.4988 -0.4846 -0.0695
  102OSM    H9S10237   6.422   2.561   6.144  1.1439 -0.2011 -0.7010
  102OSM    H9T10238   6.469   2.741   6.159 -0.9826  1.2360 -0.6785
  102OSM   C10S10239   6.303   2.696   6.036  1.0931  0.1506 -0.1674
  102OSM   H10S10240   6.251   2.793   6.055  2.2185  0.6956  0.2153
  102OSM   H10T10241   6.222   2.621   6.033 -1.8798  3.1041  0.0427
  102OSM   C11S10242   6.382   2.694   5.911 -0.5272 -0.2536  0.4606
  102OSM   H11S10243   6.460   2.617   5.928 -0.0930 -0.0028 -0.3431
  102OSM   H11T10244   6.430   2.793   5.898 -1.0070  0.0247  0.7927
  102OSM   C12S10245   6.291   2.666   5.785 -0.5296 -0.7094  0.0535
  102OSM   H12S10246   6.211   2.741   5.769 -0.4938 -1.1923 -2.7610
  102OSM   H12T10247   6.231   2.574   5.801  1.5197 -2.6484 -2.4166
  102OSM   C13S10248   6.363   2.642   5.652 -0.8635 -0.5454  0.1847
  102OSM   H13S10249   6.290   2.634   5.569 -1.3077  0.8118  0.4096
  102OSM   H13T10250   6.422   2.549   5.666  0.5291  0.3666  0.6016
  102OSM   C14S10251   6.447   2.758   5.607 -0.3653  0.6979  0.1784
  102OSM   H14S10252   6.516   2.777   5.692  0.4918 -1.3567  0.0090
  102OSM   H14T10253   6.396   2.852   5.579  2.3440  2.6485  1.3103
  102OSM   C15S10254   6.543   2.714   5.491 -0.1778  0.9646  0.0417
  102OSM   H15S10255   6.593   2.618   5.515 -3.1819 -1.3728 -2.1993
  102OSM   H15T10256   6.623   2.790   5.481 -0.2868  1.1255  0.3690
  102OSM   C16S10257   6.469   2.682   5.358  0.2000 -0.0690  0.3368
  102OSM   H16S10258   6.399   2.761   5.324  0.0090 -1.3413 -2.4759
  102OSM   H16T10259   6.405   2.595   5.385  0.7938 -0.4580  0.5380
  102OSM   C17S10260   6.560   2.625   5.247  0.3606 -0.1213  0.3479
  102OSM   H17S10261   6.638   2.552   5.279  1.0850 -0.0098 -1.0971
  102OSM   H17T10262   6.628   2.708   5.216 -0.4017 -0.1053 -1.3416
  102OSM   C18S10263   6.484   2.569   5.132  0.7140  0.1518  0.0374
  102OSM   H18S10264   6.427   2.651   5.082  1.6176 -0.5425 -2.2126
  102OSM   H18T10265   6.412   2.490   5.163  1.9922 -1.5524 -1.1914
  102OSM   H18U10266   6.546   2.521   5.054 -0.5528  0.2389 -1.0712
  102OSM    C1F10267   6.464   2.237   6.817 -0.1735 -0.0751  1.4407
  102OSM     OF10268   6.388   2.240   6.913  0.2968 -0.3712  0.6103
  102OSM    C2F10269   6.473   2.121   6.718 -0.2469  0.1481 -1.1857
  102OSM    H2F10270   6.489   2.029   6.778 -2.3136 -0.5629 -1.6528
  102OSM    H2G10271   6.561   2.125   6.650 -0.3298 -0.3852 -1.3356
  102OSM    C3F10272   6.347   2.098   6.633 -0.7835 -0.1702  0.4000
  102OSM    H3F10273   6.316   2.194   6.587  1.8298  0.5324 -0.0595
  102OSM    H3G10274   6.274   2.066   6.710 -2.1774  1.0194 -0.3700
  102OSM    C4F10275   6.363   1.993   6.521  0.1324 -0.0638 -0.1780
  102OSM    H4F10276   6.377   1.892   6.566  0.0921 -0.4500 -1.0056
  102OSM    H4G10277   6.451   2.008   6.456 -1.2000 -1.6616 -2.5577
  102OSM    C5F10278   6.244   1.991   6.423 -0.0328 -0.1383  0.1497
  102OSM    H5F10279   6.231   2.092   6.380  0.9557 -0.1029 -0.0913
  102OSM    H5G10280   6.148   1.963   6.472 -1.4793 -1.6144 -3.1852
  102OSM    C6F10281   6.254   1.885   6.313 -0.2849 -0.7842 -0.3637
  102OSM    H6F10282   6.303   1.792   6.348 -3.7483 -3.7694 -2.6514
  102OSM    H6G10283   6.319   1.924   6.232 -2.0443  2.8863 -0.2256
  102OSM    C7F10284   6.111   1.840   6.262  0.4950 -0.1639  0.0899
  102OSM    H7F10285   6.063   1.926   6.209 -0.1583 -1.6687 -1.8782
  102OSM    H7G10286   6.045   1.815   6.348  0.4627 -0.4368 -0.0144
  102OSM    C8F10287   6.130   1.722   6.172 -0.1167 -0.8878  0.6585
  102OSM    H8F10288   6.031   1.700   6.128  0.1127 -1.5088  0.4345
  102OSM    H8G10289   6.154   1.624   6.219  3.1909 -0.7697 -0.4823
  102OSM    C9F10290   6.225   1.749   6.053 -0.3653  0.5169  0.4043
  102OSM    H9F10291   6.332   1.734   6.072 -0.8305 -2.6861  1.0655
  102OSM   C10F10292   6.193   1.808   5.934 -1.3994 -0.5053  0.4716
  102OSM   H10F10293   6.267   1.818   5.854 -2.0763  0.9979  0.0004
  102OSM   C11F10294   6.057   1.852   5.877 -0.2659  0.7722 -0.0705
  102OSM   H11F10295   6.077   1.959   5.856 -1.7380  1.0207 -0.3288
  102OSM   H11G10296   5.977   1.853   5.953  1.6609  0.3080  2.0645
  102OSM   C12F10297   6.007   1.780   5.753 -0.0367  0.1329  0.5860
  102OSM   H12F10298   5.896   1.778   5.757 -0.2261 -0.2226 -2.3181
  102OSM   H12G10299   6.037   1.675   5.737 -0.6464  0.1355 -0.7352
  102OSM   C13F10300   6.051   1.862   5.629  0.5001  0.2776  0.9219
  102OSM   H13F10301   6.162   1.873   5.631  0.4882  0.2773  1.9014
  102OSM   H13G10302   6.009   1.965   5.633  1.5563  0.6820  2.4008
  102OSM   C14F10303   6.019   1.795   5.492 -0.4216 -0.4625 -0.4216
  102OSM   H14F10304   6.073   1.698   5.500 -1.3186 -0.8622  1.5894
  102OSM   H14G10305   6.062   1.861   5.414 -2.0463  1.6614  0.3992
  102OSM   C15F10306   5.872   1.787   5.468 -0.0236  0.2882  0.5206
  102OSM   H15F10307   5.841   1.886   5.427  2.0473  0.4214 -0.8406
  102OSM   H15G10308   5.804   1.765   5.553 -1.2610 -2.0383 -0.9605
  102OSM   C16F10309   5.845   1.699   5.358 -0.2179  0.3983  0.3019
  102OSM   H16F10310   5.921   1.712   5.278  1.0646  0.2775  1.4458
  102OSM   H16G10311   5.744   1.718   5.316  0.5670 -0.7245 -2.2387
  102OSM   C17F10312   5.846   1.550   5.402  0.4038  0.1574 -0.0531
  102OSM   H17F10313   5.757   1.530   5.466 -0.6550 -1.5569 -1.9434
  102OSM   H17G10314   5.931   1.522   5.467  0.0836  0.7833  0.6567
  102OSM   C18F10315   5.832   1.448   5.287 -0.4059 -0.0065  0.1708
  102OSM   H18F10316   5.774   1.491   5.202 -1.9951  1.1313  1.7512
  102OSM   H18G10317   5.785   1.354   5.322 -0.1180 -0.6690 -1.1360
  102OSM   H18H10318   5.933   1.427   5.247  0.0824  0.7778  0.9792
  103OSM      N10319   5.481   5.366   7.373 -0.3908 -0.1870 -0.4037
  103OSM    C1510320   5.581   5.262   7.399 -0.6476 -0.2543  0.0788
  103OSM   H15A10321   5.616   5.228   7.303 -0.4890  2.3692 -0.8882
  103OSM   H15B10322   5.534   5.181   7.452 -1.4459  0.6470  0.7914
  103OSM   H15C10323   5.660   5.307   7.459 -0.2655  0.5727 -1.0147
  103OSM    C1410324   5.403   5.368   7.496  0.3685  0.1571 -0.7328
  103OSM   H14A10325   5.469   5.366   7.581  0.2813  1.8736 -0.5968
  103OSM   H14B10326   5.330   5.289   7.494  1.7472 -1.1909 -2.9244
  103OSM   H14C10327   5.335   5.451   7.504  1.0932  0.8363 -1.4289
  103OSM    C1310328   5.551   5.496   7.358 -0.2426  0.1893  0.0296
  103OSM   H13A10329   5.484   5.581   7.352  0.9677  1.2905  1.4176
  103OSM   H13B10330   5.615   5.507   7.272 -2.0474  2.7798 -1.1228
  103OSM   H13C10331   5.610   5.513   7.447  1.9414  0.4271 -1.3869
  103OSM    C1210332   5.393   5.347   7.251 -0.5581 -0.0704  0.4447
  103OSM   H12A10333   5.332   5.436   7.249 -0.8442 -0.2688  0.4012
  103OSM   H12B10334   5.320   5.269   7.260 -1.9219  0.9256 -1.4402
  103OSM    C1110335   5.461   5.323   7.117  0.8977 -0.1738 -0.0777
  103OSM   H11A10336   5.541   5.397   7.100  1.8616 -1.9009 -3.8990
  103OSM   H11B10337   5.381   5.324   7.040  0.6357 -0.3542  0.1843
  103OSM      P10338   5.434   5.070   7.056 -0.3562 -0.2961 -0.0679
  103OSM    O1310339   5.516   4.945   7.052  0.2268  0.0830  0.0176
  103OSM    O1410340   5.306   5.056   7.133 -0.4451 -0.0979 -0.5112
  103OSM    O1110341   5.391   5.122   6.907 -0.3898 -0.0595  0.2012
  103OSM    O1210342   5.520   5.189   7.125  0.1114 -0.5483  0.0110
  103OSM    C1S10343   5.473   5.102   6.789 -0.1455 -0.2311  0.1287
  103OSM    H1S10344   5.537   5.014   6.809  0.1282 -0.1342 -0.3160
  103OSM    H1T10345   5.544   5.187   6.786 -0.2487 -0.1808 -1.6143
  103OSM     NF10346   5.500   5.084   6.546 -0.0432  0.9247 -0.3224
  103OSM    HNF10347   5.501   5.161   6.483  1.9200  1.2325  0.0334
  103OSM    C2S10348   5.401   5.092   6.649  0.2958  0.5537  0.2356
  103OSM    H2S10349   5.341   4.999   6.642 -0.7965  1.3838 -3.6519
  103OSM    C3S10350   5.295   5.198   6.617  0.6671  0.2985 -0.5912
  103OSM    H3S10351   5.357   5.291   6.615 -0.0682  0.8978  1.7602
  103OSM     O310352   5.197   5.214   6.725  0.1486  0.1483 -0.3175
  103OSM    HO310353   5.250   5.196   6.803  1.7087 -0.1590 -1.4180
  103OSM    C4S10354   5.226   5.162   6.489 -0.6020 -0.2433 -0.1190
  103OSM    H4S10355   5.265   5.220   6.403 -1.1258 -0.4421 -0.4958
  103OSM    C5S10356   5.125   5.081   6.471 -0.5052 -0.1652  0.3153
  103OSM    H5S10357   5.067   5.046   6.558 -1.1517 -0.1601 -0.1039
  103OSM    C6S10358   5.053   5.042   6.343  0.2379 -0.9401 -0.7634
  103OSM    H6S10359   4.952   5.086   6.333 -0.2610 -1.2622  1.9985
  103OSM    H6T10360   5.040   4.932   6.348  0.2943 -0.8945  1.6648
  103OSM    C7S10361   5.119   5.059   6.204 -0.4600 -0.6034 -0.0559
  103OSM    H7S10362   5.217   5.008   6.213  0.6515  1.4994  0.6741
  103OSM    H7T10363   5.142   5.166   6.181 -0.3065 -0.7526 -0.6021
  103OSM    C8S10364   5.039   5.004   6.087  0.2534  0.1110 -0.8549
  103OSM    H8S10365   4.934   5.040   6.092  0.1455 -0.3626  1.4666
  103OSM    H8T10366   5.037   4.894   6.107 -2.2186 -0.3661 -3.0449
  103OSM    C9S10367   5.100   5.021   5.940  0.2863 -0.5869 -0.3780
  103OSM    H9S10368   5.207   4.992   5.942  0.7600  1.0606  0.4926
  103OSM    H9T10369   5.101   5.126   5.905  2.9147  0.2548  1.8368
  103OSM   C10S10370   5.021   4.938   5.839 -0.2986  0.2368 -0.3122
  103OSM   H10S10371   4.912   4.939   5.860 -0.2927  0.2004 -0.2771
  103OSM   H10T10372   5.049   4.832   5.854 -1.0900  0.2041  1.0897
  103OSM   C11S10373   5.051   4.980   5.698  0.7685 -0.2176  0.3518
  103OSM   H11S10374   5.160   4.975   5.680  0.6500  0.6832 -0.6993
  103OSM   H11T10375   5.022   5.086   5.687  0.8236 -0.4443 -3.5904
  103OSM   C12S10376   4.981   4.904   5.581  0.4073  0.4711 -0.2727
  103OSM   H12S10377   4.879   4.869   5.612 -0.0690  1.3500 -0.8187
  103OSM   H12T10378   5.040   4.812   5.564  0.9725  0.4450  1.5825
  103OSM   C13S10379   4.978   4.969   5.443 -0.5229 -0.1317  0.1734
  103OSM   H13S10380   5.079   4.993   5.403 -0.8239  1.5274  0.3246
  103OSM   H13T10381   4.914   5.060   5.447 -1.6768 -0.7737 -1.9213
  103OSM   C14S10382   4.913   4.883   5.332  0.3002 -0.4567  0.2869
  103OSM   H14S10383   4.809   4.864   5.367  0.7027 -0.3603  1.5748
  103OSM   H14T10384   4.963   4.785   5.324  1.4705  0.2315 -1.5376
  103OSM   C15S10385   4.906   4.951   5.195  0.6015 -0.4599  0.9097
  103OSM   H15S10386   5.013   4.961   5.167  0.2606 -1.5498 -0.9257
  103OSM   H15T10387   4.860   5.052   5.193 -1.1937 -1.2386 -0.2708
  103OSM   C16S10388   4.851   4.854   5.099  0.2970  0.3909  1.2222
  103OSM   H16S10389   4.882   4.751   5.128  0.1705 -0.3304 -1.0430
  103OSM   H16T10390   4.894   4.865   4.997  2.9678 -2.3703  1.8788
  103OSM   C17S10391   4.696   4.862   5.091  0.2572  0.4373 -0.3072
  103OSM   H17S10392   4.682   4.969   5.066 -3.2926  0.1218 -0.1209
  103OSM   H17T10393   4.644   4.858   5.189  0.4733  0.0464 -0.2049
  103OSM   C18S10394   4.627   4.775   4.985  0.1741 -0.5018 -0.1057
  103OSM   H18S10395   4.667   4.787   4.882  0.7007 -0.7950  0.0621
  103OSM   H18T10396   4.518   4.795   4.998  0.5535  0.3343  2.1256
  103OSM   H18U10397   4.629   4.667   5.010  0.8391 -0.0324  2.0342
  103OSM    C1F10398   5.586   4.978   6.525  1.6607  0.4297 -0.2704
  103OSM     OF10399   5.581   4.874   6.585  0.2606  0.4312  0.1263
  103OSM    C2F10400   5.682   5.006   6.418 -0.0868 -0.1332  0.3802
  103OSM    H2F10401   5.756   5.079   6.459  0.2036 -1.1025  1.6527
  103OSM    H2G10402   5.639   5.050   6.326  2.0625  1.0391 -0.1309
  103OSM    C3F10403   5.757   4.884   6.366  0.1955  0.0427  0.0688
  103OSM    H3F10404   5.696   4.806   6.315 -0.9167  0.1618  1.1625
  103OSM    H3G10405   5.799   4.831   6.455  1.7761  1.1032  0.0025
  103OSM    C4F10406   5.872   4.922   6.267  0.5564 -0.6488 -0.8155
  103OSM    H4F10407   5.950   4.843   6.281  1.3022  0.0120 -1.1690
  103OSM    H4G10408   5.916   5.022   6.289 -0.1606 -0.3505 -0.7204
  103OSM    C5F10409   5.820   4.922   6.123  0.2557 -0.6069  0.1076
  103OSM    H5F10410   5.742   5.000   6.116 -0.9874 -1.6053  1.8410
  103OSM    H5G10411   5.772   4.824   6.100 -0.9770 -0.2369  0.9770
  103OSM    C6F10412   5.925   4.952   6.014 -0.1299 -0.3841  0.3647
  103OSM    H6F10413   6.013   4.885   6.019 -0.9591 -1.5731 -0.3408
  103OSM    H6G10414   5.968   5.053   6.031 -2.7706  0.8092  0.5690
  103OSM    C7F10415   5.871   4.934   5.876  0.1692 -0.1849  1.2146
  103OSM    H7F10416   5.797   5.014   5.855  2.1218  0.7700 -3.0854
  103OSM    H7G10417   5.819   4.837   5.865  1.5254 -0.6409 -3.1260
  103OSM    C8F10418   5.989   4.930   5.773  0.1432 -0.2294  0.4392
  103OSM    H8F10419   5.968   4.858   5.691  1.8660  0.0805 -0.3204
  103OSM    H8G10420   6.075   4.876   5.818  0.5609 -0.8566 -1.0285
  103OSM    C9F10421   6.042   5.061   5.715 -0.1611 -0.2664  0.5107
  103OSM    H9F10422   6.142   5.089   5.752 -0.2513 -0.7529  1.1400
  103OSM   C10F10423   5.978   5.134   5.622  0.5893 -0.4312 -0.4488
  103OSM   H10F10424   6.010   5.236   5.595 -1.0548  0.4662  0.7605
  103OSM   C11F10425   5.844   5.097   5.565  0.6135  0.0791 -0.4354
  103OSM   H11F10426   5.766   5.155   5.618 -0.8209 -1.0185 -1.2868
  103OSM   H11G10427   5.828   4.987   5.570  3.4406 -0.3876  0.3827
  103OSM   C12F10428   5.838   5.124   5.419 -0.4675 -0.3448  0.0461
  103OSM   H12F10429   5.841   5.234   5.401  2.9170 -0.2879  0.2798
  103OSM   H12G10430   5.735   5.097   5.388 -0.8824  2.6558 -1.5952
  103OSM   C13F10431   5.948   5.060   5.329 -0.1097  0.0967 -0.1805
  103OSM   H13F10432   5.963   4.950   5.338 -0.3514  0.0577 -0.2420
  103OSM   H13G10433   6.039   5.113   5.365 -0.6036  0.9630 -0.2002
  103OSM   C14F10434   5.927   5.092   5.183 -0.7838 -0.1942  0.5435
  103OSM   H14F10435   6.023   5.071   5.131  0.2488 -1.0623  2.6909
  103OSM   H14G10436   5.906   5.197   5.154  2.8512  0.8142  1.0649
  103OSM   C15F10437   5.821   5.000   5.109  0.1718 -0.3301  0.0154
  103OSM   H15F10438   5.723   5.010   5.159 -0.8266  2.0390 -2.2231
  103OSM   H15G10439   5.859   4.895   5.118 -0.0659 -0.5292 -1.2102
  103OSM   C16F10440   5.795   5.033   4.961  0.0787  0.1472 -0.0819
  103OSM   H16F10441   5.796   5.144   4.957  1.4193  0.3839  3.5570
  103OSM   H16G10442   5.696   4.994   4.929 -0.1848 -0.3378  1.2584
  103OSM   C17F10443   5.894   4.973   4.859 -0.2942  0.3768  0.1089
  103OSM   H17F10444   5.880   4.863   4.866 -1.7995  0.5095 -0.5113
  103OSM   H17G10445   5.992   5.007   4.896 -1.3350  2.5539  1.0016
  103OSM   C18F10446   5.887   5.023   4.718 -0.4396  0.0764  0.4338
  103OSM   H18F10447   5.797   4.985   4.666  0.2661  1.0297 -1.6093
  103OSM   H18G10448   5.967   4.982   4.652 -1.4848 -0.6880 -0.3920
  103OSM   H18H10449   5.892   5.134   4.707  1.4845  0.0252  0.4401
  104OSM      N10450   6.537   4.270   7.334 -0.3731  0.2603 -0.5937
  104OSM    C1510451   6.390   4.271   7.359 -0.1130  0.8661  0.1894
  104OSM   H15A10452   6.346   4.173   7.365 -1.1680  1.3970  1.8275
  104OSM   H15B10453   6.340   4.325   7.279  0.4443  0.2028 -0.6306
  104OSM   H15C10454   6.368   4.322   7.451 -0.0712  2.2732 -0.5507
  104OSM    C1410455   6.576   4.412   7.317  0.1529 -0.4303  0.2690
  104OSM   H14A10456   6.542   4.475   7.399 -1.1997  0.1168 -0.6661
  104OSM   H14B10457   6.524   4.446   7.228 -1.6398 -2.5078  0.4317
  104OSM   H14C10458   6.681   4.433   7.306 -0.5240  2.1249 -2.7835
  104OSM    C1310459   6.597   4.218   7.467 -0.1413 -0.7821 -0.1369
  104OSM   H13A10460   6.551   4.123   7.492 -1.6052 -0.2843 -0.8148
  104OSM   H13B10461   6.568   4.291   7.542  2.7343 -1.5527  1.9064
  104OSM   H13C10462   6.704   4.208   7.460 -0.3585 -3.4941 -0.8846
  104OSM    C1210463   6.568   4.182   7.213 -0.0303  0.4610  0.9838
  104OSM   H12A10464   6.551   4.080   7.244 -1.9685  0.2533 -0.5844
  104OSM   H12B10465   6.673   4.191   7.189  0.1039 -1.5135  0.6252
  104OSM    C1110466   6.470   4.200   7.087 -0.0470 -0.0767 -0.5441
  104OSM   H11A10467   6.381   4.150   7.130  0.3284  0.2287  0.6240
  104OSM   H11B10468   6.497   4.141   6.997 -0.6871  0.4067 -1.0644
  104OSM      P10469   6.562   4.405   6.955  0.2454 -0.0652  0.2980
  104OSM    O1310470   6.526   4.547   6.957 -0.2616  0.1754 -0.6029
  104OSM    O1410471   6.702   4.360   6.968 -0.0630  0.0897 -0.3508
  104OSM    O1110472   6.511   4.352   6.813 -0.0052  0.3808 -0.1200
  104OSM    O1210473   6.465   4.336   7.060  0.3207  0.3935 -0.3681
  104OSM    C1S10474   6.378   4.368   6.772 -0.3076 -0.1307  0.7489
  104OSM    H1S10475   6.344   4.474   6.767 -2.3252 -0.7869 -0.4795
  104OSM    H1T10476   6.295   4.329   6.835 -3.5503  0.6598 -2.6717
  104OSM     NF10477   6.215   4.314   6.610  0.3401 -0.2918  0.7711
  104OSM    HNF10478   6.153   4.235   6.611  0.3901 -0.3353  0.5162
  104OSM    C2S10479   6.352   4.300   6.641 -0.6418  0.6801 -0.5808
  104OSM    H2S10480   6.414   4.345   6.560 -0.1333  1.5470  0.2677
  104OSM    C3S10481   6.411   4.152   6.645  0.7181 -0.0423 -0.3001
  104OSM    H3S10482   6.345   4.090   6.710 -0.6687  1.8705  0.2085
  104OSM     O310483   6.541   4.136   6.696 -0.3857  0.5893  0.2197
  104OSM    HO310484   6.559   4.223   6.733 -2.1169  1.2752 -0.4670
  104OSM    C4S10485   6.391   4.086   6.504 -0.2935 -0.4212  0.3148
  104OSM    H4S10486   6.291   4.046   6.486 -0.3359  0.0044 -0.4319
  104OSM    C5S10487   6.473   4.082   6.395  0.1487 -0.2010  0.0464
  104OSM    H5S10488   6.568   4.136   6.406 -1.1755  2.1552  0.5114
  104OSM    C6S10489   6.451   4.025   6.258 -0.1414 -0.5094 -0.6219
  104OSM    H6S10490   6.351   3.979   6.248 -0.3016  0.2277 -2.7874
  104OSM    H6T10491   6.527   3.956   6.215  0.1012  0.7941 -2.4051
  104OSM    C7S10492   6.447   4.145   6.159  0.2763  0.0361 -0.1740
  104OSM    H7S10493   6.532   4.216   6.147 -1.0267  1.5467 -0.9748
  104OSM    H7T10494   6.364   4.208   6.199 -1.0125  0.2631 -2.9422
  104OSM    C8S10495   6.398   4.109   6.019  0.3706 -0.2894 -0.1889
  104OSM    H8S10496   6.361   4.196   5.960 -2.2301 -0.5933  0.8455
  104OSM    H8T10497   6.317   4.033   6.017  0.3201 -0.2230 -1.2461
  104OSM    C9S10498   6.512   4.048   5.941 -0.8200 -0.1981 -0.0345
  104OSM    H9S10499   6.469   3.996   5.852  1.9915  0.6229 -2.0039
  104OSM    H9T10500   6.569   3.978   6.006 -2.5670  0.1063  1.9261
  104OSM   C10S10501   6.615   4.148   5.887 -0.7113  0.0967  0.4956
  104OSM   H10S10502   6.691   4.172   5.964  2.4170 -2.0781 -1.6564
  104OSM   H10T10503   6.568   4.244   5.856  0.8664  0.7906  0.1400
  104OSM   C11S10504   6.684   4.080   5.770 -0.1533  0.6125  0.2924
  104OSM   H11S10505   6.769   4.145   5.738 -1.4294  2.0338 -0.2971
  104OSM   H11T10506   6.611   4.076   5.687  1.0000  0.4122 -0.7537
  104OSM   C12S10507   6.745   3.936   5.788  0.1759 -0.8241 -0.3384
  104OSM   H12S10508   6.679   3.869   5.846  2.3808 -2.7773  0.0338
  104OSM   H12T10509   6.849   3.937   5.828 -0.5916  2.8562  2.1228
  104OSM   C13S10510   6.763   3.882   5.647  0.2368 -0.8189 -0.1750
  104OSM   H13S10511   6.796   3.966   5.581 -4.4664  1.7635  0.2570
  104OSM   H13T10512   6.663   3.855   5.607 -0.3345 -2.5534  2.2550
  104OSM   C14S10513   6.852   3.754   5.640  0.7348  0.3725 -0.2516
  104OSM   H14S10514   6.798   3.678   5.700  1.7183  0.2453  0.4899
  104OSM   H14T10515   6.955   3.758   5.681  0.2215 -1.8021  1.4357
  104OSM   C15S10516   6.866   3.712   5.491 -0.7442  0.3308  0.1108
  104OSM   H15S10517   6.938   3.784   5.447 -0.0364  0.7766  1.9322
  104OSM   H15T10518   6.770   3.730   5.437 -0.0071 -1.8873 -2.1660
  104OSM   C16S10519   6.911   3.567   5.460  0.1208  0.1069 -0.4213
  104OSM   H16S10520   6.869   3.500   5.538  0.9473  0.5851  0.4712
  104OSM   H16T10521   7.022   3.565   5.472  0.2631 -1.0341 -1.7347
  104OSM   C17S10522   6.872   3.517   5.319 -0.3312 -0.4518  0.1608
  104OSM   H17S10523   6.902   3.592   5.242  3.4685  2.8881  4.3176
  104OSM   H17T10524   6.761   3.515   5.320 -0.4035  1.3373  1.5507
  104OSM   C18S10525   6.916   3.375   5.290 -0.4755 -0.2385  0.2944
  104OSM   H18S10526   6.887   3.297   5.364  2.0708 -0.5734  1.0314
  104OSM   H18T10527   7.024   3.374   5.262 -0.2772 -1.4714  1.0201
  104OSM   H18U10528   6.861   3.341   5.199  1.4799 -1.6417 -0.4298
  104OSM    C1F10529   6.160   4.425   6.567 -0.2374  0.5370  0.8720
  104OSM     OF10530   6.228   4.521   6.545  0.3083 -0.4505  0.1866
  104OSM    C2F10531   6.016   4.431   6.538  0.0309  0.2557  0.8772
  104OSM    H2F10532   5.958   4.477   6.621 -1.0091 -1.0708  0.9194
  104OSM    H2G10533   5.992   4.325   6.517 -1.0170  0.9677 -1.8693
  104OSM    C3F10534   5.991   4.511   6.411  0.0434 -0.5061  0.2111
  104OSM    H3F10535   5.998   4.617   6.443  0.1115 -0.2798 -0.5474
  104OSM    H3G10536   5.883   4.498   6.387  0.3139  0.6448 -1.8512
  104OSM    C4F10537   6.070   4.487   6.281  0.3138  0.1018  0.1299
  104OSM    H4F10538   6.053   4.380   6.256  1.4620 -0.0347 -0.1311
  104OSM    H4G10539   6.178   4.494   6.306 -0.2732 -1.4360  3.5391
  104OSM    C5F10540   6.021   4.579   6.172 -0.3279  0.6389 -0.4708
  104OSM    H5F10541   6.053   4.684   6.191 -0.1286  0.4439  0.3127
  104OSM    H5G10542   5.911   4.589   6.172 -0.5789 -1.6251 -1.4006
  104OSM    C6F10543   6.077   4.546   6.031  0.7551  0.2430 -0.3777
  104OSM    H6F10544   6.063   4.644   5.981 -2.7737 -0.2711 -0.6528
  104OSM    H6G10545   6.016   4.469   5.979 -1.2047  3.1644 -2.8224
  104OSM    C7F10546   6.220   4.501   6.024 -0.2561 -0.5695  0.0232
  104OSM    H7F10547   6.235   4.411   6.088  0.8545  0.0405  0.6574
  104OSM    H7G10548   6.286   4.585   6.053 -1.0270  0.2117 -0.4524
  104OSM    C8F10549   6.268   4.482   5.879  0.3454  0.3050 -0.6061
  104OSM    H8F10550   6.213   4.413   5.811  0.1707  0.4103 -0.5693
  104OSM    H8G10551   6.371   4.443   5.893 -0.6456 -1.9917  0.8332
  104OSM    C9F10552   6.293   4.611   5.807 -0.6901 -0.0484 -0.1241
  104OSM    H9F10553   6.368   4.675   5.856 -1.2531  2.0168 -1.8153
  104OSM   C10F10554   6.252   4.650   5.691 -0.8206 -0.0162  0.1258
  104OSM   H10F10555   6.278   4.751   5.654  2.8478 -1.1263 -0.7049
  104OSM   C11F10556   6.142   4.584   5.607 -0.3638  0.3144  0.6895
  104OSM   H11F10557   6.047   4.631   5.639 -0.3453  0.4453  0.5530
  104OSM   H11G10558   6.133   4.473   5.606 -2.0772  0.4129  1.5596
  104OSM   C12F10559   6.164   4.628   5.462  0.4699 -0.0012  0.0958
  104OSM   H12F10560   6.263   4.585   5.434  1.2489  1.1719  0.9509
  104OSM   H12G10561   6.168   4.739   5.452  1.1217  0.0370  0.6566
  104OSM   C13F10562   6.066   4.582   5.361 -0.3638  0.4401 -0.9075
  104OSM   H13F10563   5.962   4.611   5.389 -0.6550 -3.3212  2.8306
  104OSM   H13G10564   6.062   4.472   5.370 -0.5126  0.5221  0.0887
  104OSM   C14F10565   6.093   4.622   5.217 -0.3739 -0.1355  0.1872
  104OSM   H14F10566   6.198   4.596   5.195 -1.0130 -3.2818  0.3141
  104OSM   H14G10567   6.086   4.732   5.201 -0.9747 -0.0539  0.9336
  104OSM   C15F10568   6.006   4.560   5.107  0.0808  0.2508  0.2185
  104OSM   H15F10569   5.906   4.594   5.142  2.0182  4.6636  2.1418
  104OSM   H15G10570   5.994   4.450   5.109  0.8951  0.1073 -1.4458
  104OSM   C16F10571   6.039   4.609   4.964 -0.0710  0.2553  0.0513
  104OSM   H16F10572   6.147   4.594   4.940  0.1250  0.1449  0.9828
  104OSM   H16G10573   6.018   4.718   4.964  0.5122  0.3746  0.9763
  104OSM   C17F10574   5.969   4.540   4.850  0.8218  0.1208 -0.3773
  104OSM   H17F10575   5.991   4.604   4.762  1.9755  0.8581  0.4231
  104OSM   H17G10576   5.864   4.546   4.884  1.5569 -1.1347  2.4241
  104OSM   C18F10577   6.018   4.400   4.821  0.8326  0.6776 -0.2535
  104OSM   H18F10578   6.129   4.395   4.816  0.8893  1.3470  0.1407
  104OSM   H18G10579   5.979   4.359   4.725 -4.1709 -1.0255  2.1560
  104OSM   H18H10580   5.984   4.337   4.906  1.3056 -0.2179 -0.7098
  105OSM      N10581   0.493   4.953   7.673  0.2907 -0.2475  0.8501
  105OSM    C1510582   0.388   5.041   7.600 -0.0782  0.6950 -0.2907
  105OSM   H15A10583   0.323   4.979   7.541  2.5582  0.1411 -2.8891
  105OSM   H15B10584   0.442   5.098   7.526 -2.1000  0.0409 -2.3727
  105OSM   H15C10585   0.333   5.112   7.659 -3.7392 -2.1492  0.0530
  105OSM    C1410586   0.586   5.040   7.751 -0.5108  0.1831 -0.4929
  105OSM   H14A10587   0.664   5.081   7.690  1.1246 -1.3916  0.4356
  105OSM   H14B10588   0.633   4.974   7.822 -0.9854 -1.1887 -1.4066
  105OSM   H14C10589   0.534   5.122   7.798  1.1758  1.2236 -0.3823
  105OSM    C1310590   0.418   4.865   7.767  0.5419 -0.2086 -0.3344
  105OSM   H13A10591   0.483   4.801   7.825 -1.8671  0.5910  3.6341
  105OSM   H13B10592   0.345   4.804   7.715 -2.8312  1.6435  1.8189
  105OSM   H13C10593   0.359   4.926   7.834  1.8139 -0.3002  0.9155
  105OSM    C1210594   0.570   4.876   7.561 -0.9613  0.0538  0.2159
  105OSM   H12A10595   0.499   4.819   7.503 -1.3270 -0.3050  0.9943
  105OSM   H12B10596   0.635   4.810   7.616  1.9082  2.4876  0.0091
  105OSM    C1110597   0.667   4.957   7.464 -1.3396 -0.1862  0.1981
  105OSM   H11A10598   0.719   4.870   7.418 -0.5279  0.8212 -0.8803
  105OSM   H11B10599   0.723   5.027   7.530 -1.4735 -0.5048  0.6524
  105OSM      P10600   0.672   5.138   7.279  0.0184  0.6747 -0.3498
  105OSM    O1310601   0.595   5.262   7.270 -0.4433 -0.3966  0.4166
  105OSM    O1410602   0.814   5.152   7.328 -0.7666  0.3108  0.6832
  105OSM    O1110603   0.662   5.064   7.142 -0.0654  0.4927  0.1253
  105OSM    O1210604   0.591   5.027   7.366  0.8518  0.6284  0.3797
  105OSM    C1S10605   0.684   4.929   7.119  0.4192 -0.2393 -0.2152
  105OSM    H1S10606   0.652   4.857   7.197 -1.1743  0.9024  0.2305
  105OSM    H1T10607   0.794   4.935   7.106  0.2923  2.2004 -0.6531
  105OSM     NF10608   0.684   4.759   6.930  0.1663 -0.0269 -0.2842
  105OSM    HNF10609   0.754   4.766   6.859 -0.3091  0.1754 -0.7444
  105OSM    C2S10610   0.625   4.885   6.980  0.1778  0.1405  0.3543
  105OSM    H2S10611   0.517   4.865   6.991  0.2592  0.0779  1.1051
  105OSM    C3S10612   0.643   4.988   6.864  0.1900 -0.2189  0.7573
  105OSM    H3S10613   0.753   4.999   6.849  0.5800 -1.2409  2.6370
  105OSM     O310614   0.582   5.111   6.893 -0.5452  0.2346 -0.3523
  105OSM    HO310615   0.577   5.111   6.989  1.0890  1.8753 -0.2032
  105OSM    C4S10616   0.580   4.936   6.735 -0.6427 -0.6261 -1.1244
  105OSM    H4S10617   0.657   4.887   6.673  0.6478 -0.0682 -0.0105
  105OSM    C5S10618   0.450   4.952   6.696  0.4236 -0.0487  0.4378
  105OSM    H5S10619   0.375   5.000   6.761 -0.2474  0.2706 -0.5405
  105OSM    C6S10620   0.399   4.891   6.571 -0.2142  1.0560  0.4644
  105OSM    H6S10621   0.305   4.946   6.550 -2.2970 -2.3120  0.3202
  105OSM    H6T10622   0.357   4.789   6.581 -0.1211  0.9893  0.2032
  105OSM    C7S10623   0.492   4.914   6.447  0.4313  0.7371  0.2758
  105OSM    H7S10624   0.565   4.835   6.423 -0.0105  0.6477 -0.8149
  105OSM    H7T10625   0.549   5.010   6.448  0.3738  0.7920 -0.9353
  105OSM    C8S10626   0.408   4.932   6.313 -0.0743  0.4672 -0.0419
  105OSM    H8S10627   0.336   5.013   6.339 -3.1148 -1.4052 -1.9919
  105OSM    H8T10628   0.350   4.841   6.286 -0.3298  1.0612 -1.5517
  105OSM    C9S10629   0.505   4.979   6.195 -1.0346 -0.3005  0.0816
  105OSM    H9S10630   0.562   4.884   6.187 -0.7586 -0.1282 -0.0290
  105OSM    H9T10631   0.564   5.058   6.247 -2.0235 -1.8514  3.8669
  105OSM   C10S10632   0.440   5.017   6.059 -0.5523 -0.3641  0.1952
  105OSM   H10S10633   0.374   5.105   6.075 -0.2718  0.5953 -3.1383
  105OSM   H10T10634   0.370   4.933   6.040 -1.1645 -0.0880  1.1545
  105OSM   C11S10635   0.549   5.033   5.953 -0.1349 -0.1360 -0.4693
  105OSM   H11S10636   0.618   4.947   5.942  0.2515 -0.0077  0.7303
  105OSM   H11T10637   0.619   5.116   5.979 -3.2670  3.1002 -1.4573
  105OSM   C12S10638   0.486   5.066   5.817 -1.2802  0.0359  0.3508
  105OSM   H12S10639   0.477   5.177   5.813  0.8662  0.2549  0.4137
  105OSM   H12T10640   0.386   5.018   5.813 -2.4907  2.3248  1.2439
  105OSM   C13S10641   0.558   5.026   5.685  0.1998 -0.0512  0.8655
  105OSM   H13S10642   0.572   4.916   5.689  2.3566  0.1573  0.2462
  105OSM   H13T10643   0.655   5.079   5.677 -0.3944  0.9951  0.3570
  105OSM   C14S10644   0.477   5.053   5.556  0.4024 -0.4602  0.2584
  105OSM   H14S10645   0.437   5.157   5.567  0.7142 -0.5395  2.8322
  105OSM   H14T10646   0.394   4.980   5.550  1.2177 -1.2887 -1.5739
  105OSM   C15S10647   0.556   5.037   5.427  0.5492 -0.1852 -0.2331
  105OSM   H15S10648   0.590   4.932   5.420  0.1902 -0.2914 -0.3390
  105OSM   H15T10649   0.635   5.116   5.432 -0.7187  1.0656  2.1707
  105OSM   C16S10650   0.461   5.070   5.309  0.7730  0.0570 -0.1902
  105OSM   H16S10651   0.430   5.176   5.321  1.4418  0.0893  1.5139
  105OSM   H16T10652   0.372   5.002   5.308 -0.1046  1.1354  1.0006
  105OSM   C17S10653   0.518   5.064   5.168 -0.1912 -0.6607  0.0440
  105OSM   H17S10654   0.578   4.970   5.161 -0.0363 -0.5264 -0.5038
  105OSM   H17T10655   0.578   5.158   5.165 -2.2764  0.7104 -0.7621
  105OSM   C18S10656   0.408   5.068   5.059  0.2224 -1.3029 -0.5958
  105OSM   H18S10657   0.435   5.104   4.958  1.9463 -0.6827  0.0291
  105OSM   H18T10658   0.330   5.142   5.086  1.1047 -1.2673  2.2138
  105OSM   H18U10659   0.352   4.972   5.058 -4.5915  1.0245  2.9286
  105OSM    C1F10660   0.641   4.637   6.977  0.2560 -0.9186 -0.4274
  105OSM     OF10661   0.538   4.636   7.045 -0.2989 -0.6062 -0.7310
  105OSM    C2F10662   0.719   4.515   6.944  0.2113  0.0090 -0.4515
  105OSM    H2F10663   0.644   4.434   6.954 -2.7155  2.5997  0.2796
  105OSM    H2G10664   0.806   4.495   7.010 -0.2443 -0.1564  0.1111
  105OSM    C3F10665   0.791   4.509   6.807 -0.0962  0.7625 -0.0611
  105OSM    H3F10666   0.899   4.507   6.833 -0.3492 -1.1392  1.1032
  105OSM    H3G10667   0.776   4.599   6.745  0.6170  1.2373  0.4428
  105OSM    C4F10668   0.757   4.382   6.735 -0.7710  0.2522  0.2532
  105OSM    H4F10669   0.762   4.287   6.794  1.2299 -0.4344 -0.9143
  105OSM    H4G10670   0.830   4.378   6.651 -2.7126 -1.0496 -1.4833
  105OSM    C5F10671   0.620   4.395   6.655 -0.6785 -0.2357 -0.1587
  105OSM    H5F10672   0.564   4.474   6.709  1.5315  1.4648 -0.2079
  105OSM    H5G10673   0.556   4.305   6.670  0.9588 -1.7064 -1.4372
  105OSM    C6F10674   0.618   4.439   6.506 -0.2444  0.3714 -0.1103
  105OSM    H6F10675   0.649   4.362   6.432  0.3426  0.6832 -0.1889
  105OSM    H6G10676   0.694   4.520   6.509 -1.1965  1.2706  2.0892
  105OSM    C7F10677   0.478   4.501   6.467 -0.2732  0.0279  0.1342
  105OSM    H7F10678   0.444   4.579   6.538 -3.7363 -0.8073 -0.4340
  105OSM    H7G10679   0.394   4.428   6.469  0.4133 -0.7858  0.1894
  105OSM    C8F10680   0.482   4.587   6.336 -0.1567  0.1413 -0.5314
  105OSM    H8F10681   0.575   4.649   6.337 -1.7915  2.7691  0.1946
  105OSM    H8G10682   0.396   4.657   6.332 -0.2690 -0.0535 -2.6585
  105OSM    C9F10683   0.468   4.482   6.232  0.7349 -0.2022  1.2158
  105OSM    H9F10684   0.403   4.401   6.266  1.1353 -0.3406  1.6750
  105OSM   C10F10685   0.539   4.488   6.117 -0.4070  0.7492 -0.9357
  105OSM   H10F10686   0.531   4.403   6.048 -1.7732  0.2216 -0.1940
  105OSM   C11F10687   0.632   4.591   6.064  0.2114 -0.1985 -0.0333
  105OSM   H11F10688   0.739   4.562   6.074  0.1516 -0.4650 -0.1593
  105OSM   H11G10689   0.626   4.680   6.130 -1.6390  0.1612 -0.6184
  105OSM   C12F10690   0.592   4.632   5.918 -0.2425  0.4540  0.5848
  105OSM   H12F10691   0.633   4.732   5.893 -0.1980  0.5270  0.9413
  105OSM   H12G10692   0.481   4.625   5.912 -0.1854 -0.3038  0.3220
  105OSM   C13F10693   0.659   4.540   5.817  0.5442  0.0339 -0.2027
  105OSM   H13F10694   0.598   4.448   5.828  1.9053 -0.5317  4.6227
  105OSM   H13G10695   0.766   4.520   5.839  0.3887  0.3206  0.8399
  105OSM   C14F10696   0.651   4.607   5.675  0.3815 -1.2121  0.8968
  105OSM   H14F10697   0.711   4.698   5.698  0.0394 -1.2211  1.8903
  105OSM   H14G10698   0.547   4.644   5.662  1.1072  0.4518 -0.6859
  105OSM   C15F10699   0.686   4.508   5.563 -0.3212  0.3044  0.1156
  105OSM   H15F10700   0.620   4.419   5.574  2.2930 -1.8090 -0.2540
  105OSM   H15G10701   0.787   4.468   5.587  0.7367  0.1349 -3.9382
  105OSM   C16F10702   0.668   4.570   5.428  0.0981  0.5439  0.2304
  105OSM   H16F10703   0.748   4.521   5.368  0.2642 -0.2672  1.0847
  105OSM   H16G10704   0.693   4.679   5.424  0.8024  0.3746 -0.3585
  105OSM   C17F10705   0.531   4.556   5.355  0.0086  0.2218 -0.3118
  105OSM   H17F10706   0.445   4.593   5.414 -2.0069  0.7266 -3.3292
  105OSM   H17G10707   0.507   4.453   5.319  0.0007  1.1920 -3.4057
  105OSM   C18F10708   0.530   4.628   5.232  0.0056 -0.7614 -0.9435
  105OSM   H18F10709   0.441   4.629   5.166 -1.1770 -0.0476  0.5953
  105OSM   H18G10710   0.615   4.593   5.171  0.5970 -0.6550 -0.1949
  105OSM   H18H10711   0.550   4.735   5.251  1.3652 -1.1148 -0.2396
  106OSM      N10712   5.802   1.866   6.977 -0.6094 -0.2456 -0.1899
  106OSM    C1510713   5.890   1.749   6.953 -0.2182 -0.1774 -0.5487
  106OSM   H15A10714   5.991   1.777   6.983 -1.4332  0.7139  3.1992
  106OSM   H15B10715   5.896   1.703   6.855  1.3380  0.5860 -0.8595
  106OSM   H15C10716   5.857   1.675   7.023 -1.4296  2.3087  1.6542
  106OSM    C1410717   5.821   1.925   7.114 -0.0239 -0.3144  0.5609
  106OSM   H14A10718   5.920   1.969   7.120 -0.3660  0.3665  1.3840
  106OSM   H14B10719   5.797   1.855   7.192  1.7286 -1.0316  0.5103
  106OSM   H14C10720   5.756   2.008   7.139 -2.3063 -1.7120 -0.4993
  106OSM    C1310721   5.834   1.968   6.875 -0.0992 -0.0162 -0.0579
  106OSM   H13A10722   5.939   1.994   6.874 -0.1496  0.1809 -0.2038
  106OSM   H13B10723   5.779   2.059   6.890 -3.0841 -1.8037  0.7028
  106OSM   H13C10724   5.814   1.929   6.776  0.2153 -0.8119  0.1830
  106OSM    C1210725   5.656   1.814   6.967  0.4213 -0.1964 -0.2474
  106OSM   H12A10726   5.588   1.896   6.983  1.0217  0.6253 -1.7509
  106OSM   H12B10727   5.632   1.741   7.043  0.2851 -0.0168 -0.1173
  106OSM    C1110728   5.614   1.740   6.837  0.2203  0.6925  0.2033
  106OSM   H11A10729   5.654   1.795   6.749  0.4727  0.5498  0.2305
  106OSM   H11B10730   5.503   1.736   6.836  0.2303 -0.7301 -2.0871
  106OSM      P10731   5.629   1.497   6.932 -0.2564 -0.3319  0.2832
  106OSM    O1310732   5.747   1.423   6.978 -0.1752  0.0711 -0.1926
  106OSM    O1410733   5.548   1.566   7.036 -0.2196 -0.3385 -0.1959
  106OSM    O1110734   5.540   1.397   6.850 -0.5532 -0.0362  0.3779
  106OSM    O1210735   5.669   1.605   6.819 -0.2854  0.3689 -0.3988
  106OSM    C1S10736   5.421   1.441   6.784 -0.3632  0.0469  0.2487
  106OSM    H1S10737   5.389   1.545   6.804 -0.4515 -0.1810  1.3766
  106OSM    H1T10738   5.337   1.388   6.834 -0.3419 -0.9105 -0.6883
  106OSM     NF10739   5.283   1.446   6.574  0.0015  0.2140  0.4022
  106OSM    HNF10740   5.210   1.381   6.554 -1.1754  1.9923 -1.4958
  106OSM    C2S10741   5.412   1.400   6.629  0.4391  0.0126  0.4429
  106OSM    H2S10742   5.485   1.459   6.570 -2.2381  0.6649 -2.4540
  106OSM    C3S10743   5.442   1.248   6.598  0.1896  0.0936 -0.1612
  106OSM    H3S10744   5.373   1.180   6.652  0.0091  1.3996  1.3772
  106OSM     O310745   5.569   1.210   6.647  0.1935  0.4525  0.1565
  106OSM    HO310746   5.585   1.264   6.725 -1.2580 -1.0135  1.5392
  106OSM    C4S10747   5.433   1.226   6.454 -0.4124 -0.1635 -0.0528
  106OSM    H4S10748   5.335   1.184   6.428 -1.5321  1.1875  1.6458
  106OSM    C5S10749   5.509   1.256   6.355  0.5268 -0.4511  0.2456
  106OSM    H5S10750   5.601   1.310   6.381  1.0217 -2.0385  2.0321
  106OSM    C6S10751   5.474   1.247   6.207  0.0578  0.6086 -0.8095
  106OSM    H6S10752   5.479   1.140   6.180 -0.5032  0.7269 -1.4128
  106OSM    H6T10753   5.552   1.299   6.148 -0.6686  0.8331 -1.6036
  106OSM    C7S10754   5.331   1.292   6.178 -0.5685 -0.1553  0.0730
  106OSM    H7S10755   5.311   1.393   6.220 -1.0517  0.9219 -2.5709
  106OSM    H7T10756   5.255   1.242   6.243 -0.0925 -3.0813 -1.4481
  106OSM    C8S10757   5.285   1.284   6.026 -0.0440 -0.0146 -0.1336
  106OSM    H8S10758   5.201   1.353   6.001 -0.4799 -0.2135  0.7642
  106OSM    H8T10759   5.267   1.179   5.995 -0.0311 -0.2576  0.6505
  106OSM    C9S10760   5.398   1.322   5.927  0.1358 -0.0526 -1.1004
  106OSM    H9S10761   5.467   1.236   5.912  1.1165  0.2547  1.1542
  106OSM    H9T10762   5.449   1.410   5.971 -0.7356  0.4934 -1.1573
  106OSM   C10S10763   5.349   1.359   5.784 -0.5536  1.0791 -0.7256
  106OSM   H10S10764   5.434   1.406   5.732  0.2895 -1.2352 -1.5787
  106OSM   H10T10765   5.261   1.426   5.788 -1.0872  0.4191 -1.0575
  106OSM   C11S10766   5.321   1.228   5.713 -0.3500 -0.2699 -0.0590
  106OSM   H11S10767   5.251   1.163   5.771 -0.9072 -1.1076 -1.6207
  106OSM   H11T10768   5.415   1.170   5.707 -0.0606  0.0883  0.8542
  106OSM   C12S10769   5.267   1.248   5.571  0.1593  0.0460 -0.3055
  106OSM   H12S10770   5.342   1.297   5.505  0.6523  1.1795  1.0380
  106OSM   H12T10771   5.186   1.324   5.581  1.0705  1.2095 -1.4694
  106OSM   C13S10772   5.215   1.122   5.502 -0.1198  0.7103 -0.1577
  106OSM   H13S10773   5.146   1.063   5.566  1.2797 -0.7286  0.0961
  106OSM   H13T10774   5.298   1.049   5.492  2.1065  2.9632  0.7824
  106OSM   C14S10775   5.134   1.137   5.377 -0.8087  0.4290 -0.2679
  106OSM   H14S10776   5.062   1.221   5.381 -1.1249  0.1991 -0.9347
  106OSM   H14T10777   5.072   1.046   5.364 -0.7499  0.5460 -1.5929
  106OSM   C15S10778   5.234   1.160   5.264 -0.1181  0.0262  0.1455
  106OSM   H15S10779   5.323   1.094   5.270  1.3192  1.9019  0.4844
  106OSM   H15T10780   5.277   1.262   5.278 -0.9535  0.0449  3.5236
  106OSM   C16S10781   5.161   1.144   5.132  0.5157 -0.6233  0.3224
  106OSM   H16S10782   5.067   1.203   5.131  0.8509 -0.0414  1.4052
  106OSM   H16T10783   5.129   1.041   5.103  0.3026 -0.0438 -1.6096
  106OSM   C17S10784   5.249   1.206   5.022 -0.2774  0.5929  0.4608
  106OSM   H17S10785   5.341   1.149   4.999  1.1641  2.2846  1.7698
  106OSM   H17T10786   5.300   1.296   5.063 -0.2841  0.6929  0.2562
  106OSM   C18S10787   5.189   1.246   4.896  0.2827  0.2250  0.4868
  106OSM   H18S10788   5.270   1.286   4.830 -1.1261  0.3386 -1.2618
  106OSM   H18T10789   5.113   1.326   4.906 -0.4211 -0.3086 -0.3528
  106OSM   H18U10790   5.147   1.162   4.836  1.0093 -1.0841  1.7709
  106OSM    C1F10791   5.245   1.574   6.569  0.0591  0.7827 -0.6201
  106OSM     OF10792   5.330   1.660   6.577  0.1466 -0.1866 -0.1231
  106OSM    C2F10793   5.097   1.598   6.571 -0.1704 -0.2503 -0.0501
  106OSM    H2F10794   5.076   1.635   6.674  1.9073  2.6883 -0.5348
  106OSM    H2G10795   5.037   1.508   6.545 -0.5232  0.7364 -3.0806
  106OSM    C3F10796   5.062   1.706   6.473  0.7389 -0.1241 -0.1174
  106OSM    H3F10797   5.142   1.782   6.479  0.7354 -0.1530  0.3088
  106OSM    H3G10798   4.968   1.748   6.515  0.9119 -1.6621  1.9809
  106OSM    C4F10799   5.059   1.661   6.329  0.4854 -0.4043 -1.4521
  106OSM    H4F10800   4.981   1.583   6.320 -0.8915  0.6163  0.7090
  106OSM    H4G10801   5.160   1.633   6.291  1.2468 -0.5560  0.5812
  106OSM    C5F10802   5.010   1.776   6.236  0.4457 -0.2258 -0.5020
  106OSM    H5F10803   5.090   1.853   6.232  1.1727 -0.7059  2.3219
  106OSM    H5G10804   4.918   1.830   6.267  0.9115 -0.0502  0.6369
  106OSM    C6F10805   4.980   1.726   6.098  0.2754  0.0337  0.2792
  106OSM    H6F10806   4.954   1.818   6.040  0.5725  0.1271  0.2922
  106OSM    H6G10807   4.892   1.660   6.085 -0.0384  0.4472  0.2731
  106OSM    C7F10808   5.100   1.675   6.020 -0.1413 -0.0787 -0.2443
  106OSM    H7F10809   5.122   1.573   6.060 -1.1580  0.6530  2.3852
  106OSM    H7G10810   5.194   1.727   6.050  0.2846 -1.5027  1.0751
  106OSM    C8F10811   5.090   1.674   5.864  0.1706  0.1261  0.5754
  106OSM    H8F10812   5.188   1.642   5.822  1.2970 -0.4842  3.4337
  106OSM    H8G10813   5.080   1.779   5.832 -0.8794 -0.3577 -0.7414
  106OSM    C9F10814   4.979   1.584   5.814 -0.8515  0.4363 -0.4810
  106OSM    H9F10815   4.914   1.552   5.896  1.2735 -1.5332  0.5671
  106OSM   C10F10816   4.953   1.559   5.683 -0.6927  0.1744 -0.8836
  106OSM   H10F10817   4.865   1.499   5.653 -0.9193  0.0537 -0.0163
  106OSM   C11F10818   5.035   1.595   5.557  0.0742  0.4991 -0.3338
  106OSM   H11F10819   5.048   1.497   5.504 -0.0504  0.6058 -0.5625
  106OSM   H11G10820   5.133   1.625   5.599  0.5888 -1.4594 -0.0153
  106OSM   C12F10821   4.975   1.695   5.447 -0.5051 -0.7866 -0.6758
  106OSM   H12F10822   4.962   1.792   5.500 -0.2887 -1.8899  1.5037
  106OSM   H12G10823   4.871   1.668   5.421 -0.5868  0.2514 -1.5196
  106OSM   C13F10824   5.066   1.728   5.322  0.0623 -0.2753 -0.1891
  106OSM   H13F10825   5.164   1.764   5.360 -1.2807  3.3617  0.2216
  106OSM   H13G10826   5.014   1.814   5.275  2.2081  2.3620  1.9445
  106OSM   C14F10827   5.076   1.608   5.233  1.1903 -0.5787  0.7910
  106OSM   H14F10828   4.988   1.553   5.193  0.8229  1.0428 -0.7065
  106OSM   H14G10829   5.130   1.531   5.293  2.1446 -0.0112  0.6837
  106OSM   C15F10830   5.164   1.631   5.108  0.0087 -0.1506  0.2947
  106OSM   H15F10831   5.201   1.531   5.076 -0.8707 -0.8624  1.4324
  106OSM   H15G10832   5.251   1.693   5.138 -2.2606  2.8637  1.0464
  106OSM   C16F10833   5.084   1.687   4.999  0.7789 -0.1129 -0.2097
  106OSM   H16F10834   5.023   1.771   5.038  1.4737  0.7594 -0.9525
  106OSM   H16G10835   5.008   1.608   4.981  1.6565 -1.1398  0.5082
  106OSM   C17F10836   5.176   1.719   4.877 -0.0719  0.5369 -0.3855
  106OSM   H17F10837   5.277   1.730   4.922 -1.1782 -0.1344  2.4926
  106OSM   H17G10838   5.148   1.822   4.848 -1.0384  0.0457 -1.2416
  106OSM   C18F10839   5.194   1.619   4.760  1.0665 -0.2514  0.5152
  106OSM   H18F10840   5.235   1.523   4.795  0.1740 -0.8803 -0.1181
  106OSM   H18G10841   5.260   1.656   4.678  0.3174 -1.4753 -0.6698
  106OSM   H18H10842   5.102   1.577   4.715  1.4140 -0.2825 -0.1792
  107OSM      N10843   5.824   0.520   7.057  0.2644 -0.0947  0.4194
  107OSM    C1510844   5.852   0.379   7.022 -0.4969 -0.5302 -0.2573
  107OSM   H15A10845   5.958   0.361   7.012 -0.1860  0.1028  1.4538
  107OSM   H15B10846   5.801   0.366   6.928 -1.9586  2.6245 -0.0152
  107OSM   H15C10847   5.816   0.306   7.094  0.0815 -0.2867  0.2963
  107OSM    C1410848   5.827   0.602   6.932 -0.7621 -0.5420 -0.2263
  107OSM   H14A10849   5.791   0.702   6.947 -1.7149 -1.1080  1.7116
  107OSM   H14B10850   5.764   0.553   6.859 -0.8490 -1.2991  0.3409
  107OSM   H14C10851   5.928   0.613   6.896 -0.2129  1.8648  1.7901
  107OSM    C1310852   5.693   0.515   7.130  0.3374  0.6488  0.7139
  107OSM   H13A10853   5.684   0.437   7.205 -2.2625 -0.2354 -0.3984
  107OSM   H13B10854   5.618   0.512   7.053  1.0870 -2.4185 -0.0374
  107OSM   H13C10855   5.674   0.605   7.186 -1.3929  0.3744  0.6269
  107OSM    C1210856   5.930   0.571   7.156 -0.0490 -0.7055 -0.3514
  107OSM   H12A10857   6.024   0.540   7.112 -0.1908 -1.8581  0.1166
  107OSM   H12B10858   5.918   0.509   7.243  0.1267 -0.0920  0.1166
  107OSM    C1110859   5.944   0.734   7.184 -0.7685 -0.9147 -0.0793
  107OSM   H11A10860   5.965   0.780   7.085 -1.8590 -1.5826 -0.6492
  107OSM   H11B10861   6.031   0.739   7.252 -1.3634 -1.0400  0.7082
  107OSM      P10862   5.754   0.923   7.191 -0.2288 -0.1547 -0.2096
  107OSM    O1310863   5.613   0.916   7.236 -0.3987  0.2309 -0.0767
  107OSM    O1410864   5.842   1.039   7.228  0.0733  0.3371  0.6992
  107OSM    O1110865   5.766   0.901   7.036  0.5658  0.4161  0.1619
  107OSM    O1210866   5.829   0.790   7.243 -0.7206 -0.6894  0.9503
  107OSM    C1S10867   5.782   1.009   6.953  0.1884 -0.2008  0.0166
  107OSM    H1S10868   5.887   1.043   6.967  0.0176 -0.2347  1.4811
  107OSM    H1T10869   5.715   1.097   6.967  0.3424  0.2501 -1.7661
  107OSM     NF10870   5.798   1.092   6.725 -0.7196  0.6591 -0.1831
  107OSM    HNF10871   5.728   1.146   6.679 -0.9430 -0.6303 -1.4033
  107OSM    C2S10872   5.775   0.973   6.804  0.3984 -0.2015  0.5413
  107OSM    H2S10873   5.856   0.899   6.786  0.7377  0.6607 -1.6508
  107OSM    C3S10874   5.640   0.894   6.765 -0.2454 -0.0085  0.4342
  107OSM    H3S10875   5.557   0.968   6.778 -0.6133 -0.2682 -0.3642
  107OSM     O310876   5.623   0.773   6.836  0.6771 -0.1447 -0.0402
  107OSM    HO310877   5.683   0.778   6.912  2.0919  2.3327 -1.1862
  107OSM    C4S10878   5.634   0.865   6.612 -0.2845 -0.2277  0.0121
  107OSM    H4S10879   5.551   0.920   6.565 -0.7127 -0.2429  0.7283
  107OSM    C5S10880   5.699   0.770   6.539 -0.0948  0.0362 -0.2289
  107OSM    H5S10881   5.762   0.692   6.584 -0.1793  1.2990  2.2546
  107OSM    C6S10882   5.677   0.749   6.393  0.2501  0.1703  0.4451
  107OSM    H6S10883   5.593   0.683   6.361 -0.8482  2.9880 -3.0864
  107OSM    H6T10884   5.771   0.709   6.351 -0.1577 -0.4074  0.0772
  107OSM    C7S10885   5.642   0.884   6.319 -0.0763 -0.5771  0.7016
  107OSM    H7S10886   5.706   0.956   6.374 -0.5218  0.9100 -0.6341
  107OSM    H7T10887   5.533   0.901   6.335 -0.5626 -2.1293 -0.7090
  107OSM    C8S10888   5.658   0.884   6.164 -0.1183  0.6383  0.2925
  107OSM    H8S10889   5.638   0.984   6.119  2.3747  0.3757 -1.6561
  107OSM    H8T10890   5.591   0.815   6.110 -0.3790  1.6981 -0.7786
  107OSM    C9S10891   5.799   0.851   6.117  0.3800  0.1584 -0.1995
  107OSM    H9S10892   5.824   0.755   6.165  0.9346  0.2799 -0.2371
  107OSM    H9T10893   5.861   0.935   6.155 -0.5747 -0.2030  2.3153
  107OSM   C10S10894   5.814   0.835   5.968 -0.2152 -0.0116  0.0737
  107OSM   H10S10895   5.780   0.929   5.921 -0.3939 -0.2472 -0.2761
  107OSM   H10T10896   5.752   0.757   5.917 -1.4966  0.9111  0.1703
  107OSM   C11S10897   5.962   0.813   5.933 -0.2478 -0.0537 -0.0972
  107OSM   H11S10898   6.004   0.742   6.007 -1.2234 -1.6990 -1.0572
  107OSM   H11T10899   6.025   0.904   5.937 -1.4190  0.7887 -0.1467
  107OSM   C12S10900   5.978   0.746   5.795  0.1651 -0.2196 -0.3797
  107OSM   H12S10901   5.898   0.777   5.725  1.4660  2.1242 -0.9265
  107OSM   H12T10902   5.987   0.635   5.800  1.8522 -0.0433  1.9316
  107OSM   C13S10903   6.095   0.803   5.725 -0.0350  1.1696 -0.0789
  107OSM   H13S10904   6.186   0.787   5.788  0.6020  2.1900 -0.7103
  107OSM   H13T10905   6.088   0.912   5.702 -0.4674  1.1031 -0.2646
  107OSM   C14S10906   6.127   0.718   5.595 -0.0088 -0.2560 -0.3683
  107OSM   H14S10907   6.048   0.738   5.519  1.1544 -1.1706 -1.8699
  107OSM   H14T10908   6.110   0.611   5.619 -2.0638 -0.3729 -2.0550
  107OSM   C15S10909   6.258   0.743   5.528 -0.4265  0.2688 -0.0861
  107OSM   H15S10910   6.336   0.703   5.596  0.1653 -0.0928 -0.9699
  107OSM   H15T10911   6.270   0.853   5.520  0.7248  0.3035  1.6732
  107OSM   C16S10912   6.266   0.680   5.393 -0.1567  0.3462  0.4042
  107OSM   H16S10913   6.196   0.737   5.329  0.8382 -0.7601 -1.7439
  107OSM   H16T10914   6.240   0.572   5.395 -2.9774  0.7589 -3.2657
  107OSM   C17S10915   6.406   0.683   5.320 -0.0385  0.5937 -0.2505
  107OSM   H17S10916   6.480   0.643   5.393  1.0917  0.1913 -1.5624
  107OSM   H17T10917   6.437   0.787   5.296  1.8090  0.4894  1.3299
  107OSM   C18S10918   6.422   0.588   5.203 -0.2310  0.1486  0.2082
  107OSM   H18S10919   6.435   0.480   5.225 -0.7099 -0.5343 -2.5044
  107OSM   H18T10920   6.510   0.610   5.140  0.4900  0.0106  1.1433
  107OSM   H18U10921   6.329   0.597   5.143  1.6289  1.0964 -2.7366
  107OSM    C1F10922   5.926   1.143   6.705  0.1571  0.5854 -0.4696
  107OSM     OF10923   6.023   1.066   6.723  0.3244 -0.3170 -0.2338
  107OSM    C2F10924   5.943   1.284   6.673 -0.0475 -0.2915 -0.2512
  107OSM    H2F10925   6.006   1.332   6.751 -0.3053 -0.9556  0.3796
  107OSM    H2G10926   5.845   1.336   6.680 -0.5808 -1.5061  2.7019
  107OSM    C3F10927   5.990   1.292   6.529 -0.1211  0.0826 -0.0108
  107OSM    H3F10928   6.081   1.229   6.522 -0.2412 -0.0747 -0.1589
  107OSM    H3G10929   6.016   1.397   6.503 -1.3426  0.2143 -0.7559
  107OSM    C4F10930   5.904   1.242   6.418 -0.1080  0.4720 -0.3431
  107OSM    H4F10931   5.815   1.308   6.408  0.1869  0.9161 -0.0017
  107OSM    H4G10932   5.866   1.137   6.420  1.9970 -0.3156 -0.0982
  107OSM    C5F10933   5.968   1.255   6.280  0.7287 -1.0426  0.1644
  107OSM    H5F10934   6.036   1.169   6.262  0.1210 -0.9820 -3.0098
  107OSM    H5G10935   6.023   1.352   6.275 -2.6885  1.0535  0.3572
  107OSM    C6F10936   5.858   1.256   6.170  0.3916 -0.2052  0.9732
  107OSM    H6F10937   5.775   1.329   6.186 -0.2586 -1.1929  2.2669
  107OSM    H6G10938   5.801   1.161   6.172 -0.2936  0.1616 -0.2263
  107OSM    C7F10939   5.912   1.266   6.022 -0.2017  0.2095 -1.0556
  107OSM    H7F10940   5.956   1.166   6.001 -2.6589 -1.8788  2.5336
  107OSM    H7G10941   5.990   1.345   6.029 -0.0596  0.0397 -0.6441
  107OSM    C8F10942   5.805   1.295   5.924  0.3258 -0.0032 -0.3709
  107OSM    H8F10943   5.746   1.386   5.947 -0.0621 -0.5187  0.7469
  107OSM    H8G10944   5.733   1.210   5.923 -0.0186  0.2648 -2.5253
  107OSM    C9F10945   5.871   1.308   5.789 -0.0271 -0.2622  0.2836
  107OSM    H9F10946   5.974   1.345   5.788 -0.0728 -0.1220 -0.9523
  107OSM   C10F10947   5.824   1.266   5.672  0.6825  0.4058  0.7095
  107OSM   H10F10948   5.877   1.275   5.577 -0.3430  1.2412  0.1992
  107OSM   C11F10949   5.683   1.203   5.659 -0.0855  0.0049  0.1389
  107OSM   H11F10950   5.632   1.235   5.566 -0.6262 -0.2097  0.3601
  107OSM   H11G10951   5.612   1.221   5.742 -1.5695 -4.7619  0.2266
  107OSM   C12F10952   5.686   1.050   5.670 -0.1500 -0.6237 -0.2286
  107OSM   H12F10953   5.588   1.004   5.697 -0.3137  0.9196  2.1031
  107OSM   H12G10954   5.760   1.028   5.750  0.3093 -1.2866 -0.8323
  107OSM   C13F10955   5.749   0.985   5.546 -0.1695  0.7998 -0.4289
  107OSM   H13F10956   5.753   0.876   5.566  0.0426  0.5265 -1.8652
  107OSM   H13G10957   5.857   1.006   5.532  1.4639 -3.4529  3.3125
  107OSM   C14F10958   5.667   1.014   5.415 -0.3863 -0.1237 -0.3021
  107OSM   H14F10959   5.696   1.111   5.368 -2.7774 -1.2126 -4.5624
  107OSM   H14G10960   5.560   1.022   5.443 -0.1470  1.3149  0.2664
  107OSM   C15F10961   5.689   0.904   5.313  0.3792  0.8507 -0.1100
  107OSM   H15F10962   5.629   0.812   5.331  0.2171  0.4394 -2.4192
  107OSM   H15G10963   5.798   0.885   5.306  0.1832 -0.3964 -0.1274
  107OSM   C16F10964   5.644   0.951   5.176 -0.2507 -0.5089 -0.6154
  107OSM   H16F10965   5.683   1.054   5.161 -1.9575  0.2540 -0.1518
  107OSM   H16G10966   5.534   0.965   5.165 -0.3276 -1.9756 -1.9678
  107OSM   C17F10967   5.695   0.865   5.062  0.1573 -0.6679  0.2636
  107OSM   H17F10968   5.658   0.761   5.074  2.1778 -1.0888  4.5683
  107OSM   H17G10969   5.806   0.860   5.058  0.1626 -0.7291  0.4769
  107OSM   C18F10970   5.666   0.939   4.927 -0.1411  0.1955 -0.6820
  107OSM   H18F10971   5.709   1.042   4.923  1.7466 -0.5034  0.2744
  107OSM   H18G10972   5.557   0.951   4.914  0.1246 -0.1856 -5.0061
  107OSM   H18H10973   5.701   0.883   4.837 -1.8389 -2.2684  0.1115
  108OSM      N10974   1.526   2.357   7.728 -0.3494  0.1449 -0.2814
  108OSM    C1510975   1.473   2.480   7.793  0.1408  0.5914  0.3403
  108OSM   H15A10976   1.384   2.464   7.852  0.5888  0.2619  0.9348
  108OSM   H15B10977   1.441   2.551   7.718  1.8576  0.3953 -0.6332
  108OSM   H15C10978   1.544   2.527   7.859 -1.1499  1.6484  1.0252
  108OSM    C1410979   1.603   2.400   7.607 -0.0481  0.9645 -0.4391
  108OSM   H14A10980   1.625   2.310   7.551  2.2565  1.1003  0.1445
  108OSM   H14B10981   1.696   2.451   7.626  0.5756  0.2302 -1.4403
  108OSM   H14C10982   1.538   2.454   7.540  0.2159  0.7704 -0.8570
  108OSM    C1310983   1.612   2.277   7.822 -0.6620 -0.0461  0.3266
  108OSM   H13A10984   1.559   2.241   7.909 -1.2231  0.9789  0.4212
  108OSM   H13B10985   1.694   2.339   7.858 -0.9723  0.5343  0.0526
  108OSM   H13C10986   1.653   2.201   7.757  3.4245  1.2347  1.0662
  108OSM    C1210987   1.403   2.270   7.687 -0.1202  0.8454  0.0036
  108OSM   H12A10988   1.364   2.320   7.599  2.0434 -2.1020 -2.8462
  108OSM   H12B10989   1.327   2.259   7.763 -1.2205  0.8969 -1.0493
  108OSM    C1110990   1.433   2.124   7.654 -0.3088 -0.0755  0.8674
  108OSM   H11A10991   1.354   2.084   7.587  0.2958  0.8378 -0.4498
  108OSM   H11B10992   1.453   2.066   7.746  1.6397 -2.4069 -0.8770
  108OSM      P10993   1.665   2.002   7.578 -0.6194 -0.1548  0.6435
  108OSM    O1310994   1.790   2.050   7.517 -0.2276 -0.0423  0.6384
  108OSM    O1410995   1.677   1.960   7.720 -0.6891  0.0559  0.0471
  108OSM    O1110996   1.606   1.888   7.484  0.5027  0.3985  0.0953
  108OSM    O1210997   1.555   2.115   7.571 -0.0187 -0.4389 -0.1296
  108OSM    C1S10998   1.571   1.921   7.350  0.3357  0.7442  0.9083
  108OSM    H1S10999   1.536   2.026   7.343 -0.0960  0.6370  1.4459
  108OSM    H1T11000   1.487   1.865   7.303  1.1866 -1.1604  1.5578
  108OSM     NF11001   1.650   1.961   7.108 -0.2411  0.0378 -0.9187
  108OSM    HNF11002   1.624   1.898   7.035  0.2648 -1.3275  0.0246
  108OSM    C2S11003   1.685   1.898   7.235 -0.0792  0.5712 -0.2120
  108OSM    H2S11004   1.766   1.964   7.272 -0.7487  1.6944 -0.6931
  108OSM    C3S11005   1.721   1.748   7.228  0.3310  0.0990  0.5804
  108OSM    H3S11006   1.622   1.696   7.226  0.2074  0.2734 -2.4812
  108OSM     O311007   1.787   1.702   7.346  0.4573 -0.1362  0.3082
  108OSM    HO311008   1.757   1.767   7.410 -3.1280 -0.1966 -1.0959
  108OSM    C4S11009   1.809   1.723   7.101  0.8484  0.5173 -0.1408
  108OSM    H4S11010   1.761   1.658   7.027 -1.0868  1.0588  0.5634
  108OSM    C5S11011   1.930   1.782   7.083 -0.5004 -0.2908 -0.6896
  108OSM    H5S11012   1.967   1.861   7.150  1.1374 -1.7697  0.2385
  108OSM    C6S11013   2.027   1.756   6.977  0.6132 -0.3997  0.1967
  108OSM    H6S11014   2.060   1.650   6.968  0.5830 -0.6773  2.6990
  108OSM    H6T11015   2.118   1.819   6.987 -2.2688  4.4098 -0.7182
  108OSM    C7S11016   1.969   1.794   6.837  0.1961  0.2452  0.9395
  108OSM    H7S11017   1.954   1.904   6.838  0.3132  0.3061 -1.1695
  108OSM    H7T11018   1.869   1.751   6.815 -0.0367  0.8805  0.7449
  108OSM    C8S11019   2.061   1.750   6.728 -0.4103 -0.6478 -0.5256
  108OSM    H8S11020   2.070   1.639   6.724 -1.5356 -0.7050 -2.0588
  108OSM    H8T11021   2.158   1.791   6.763 -0.7790  0.4929 -0.8013
  108OSM    C9S11022   2.033   1.813   6.592 -0.8172  0.4133  0.1362
  108OSM    H9S11023   2.051   1.923   6.600 -2.8509  0.8440 -0.7249
  108OSM    H9T11024   1.928   1.797   6.561 -0.1163 -2.6007 -1.0479
  108OSM   C10S11025   2.132   1.760   6.487  0.2763  0.2446  0.2019
  108OSM   H10S11026   2.113   1.651   6.484 -1.3086  0.5288 -1.2295
  108OSM   H10T11027   2.231   1.779   6.535  0.7656  1.0781 -1.0706
  108OSM   C11S11028   2.131   1.819   6.347  0.1498 -0.5957 -0.2871
  108OSM   H11S11029   2.214   1.892   6.340 -1.8609  1.7539 -0.7251
  108OSM   H11T11030   2.035   1.874   6.351  0.7082  0.3346  2.7425
  108OSM   C12S11031   2.144   1.715   6.228  0.1490 -0.1318  0.3213
  108OSM   H12S11032   2.066   1.639   6.253 -0.6598  1.0654  1.6342
  108OSM   H12T11033   2.240   1.659   6.225 -0.7549 -1.6855 -2.0498
  108OSM   C13S11034   2.118   1.791   6.090  0.0493  0.6110 -0.7075
  108OSM   H13S11035   2.196   1.870   6.085  0.8217 -0.2408 -3.7705
  108OSM   H13T11036   2.023   1.849   6.100 -0.0125  0.3645  0.2681
  108OSM   C14S11037   2.115   1.702   5.964  0.4896 -0.0195 -0.3540
  108OSM   H14S11038   2.028   1.634   5.976 -0.6976  1.3933 -0.6821
  108OSM   H14T11039   2.204   1.637   5.951  2.1880  1.8146  1.2775
  108OSM   C15S11040   2.091   1.775   5.831  0.4271  0.2021 -0.5238
  108OSM   H15S11041   2.010   1.846   5.855  0.4765  0.3056 -0.6654
  108OSM   H15T11042   2.062   1.702   5.752 -0.9247  0.9699 -0.7482
  108OSM   C16S11043   2.198   1.882   5.790  0.4787 -0.3329 -0.2416
  108OSM   H16S11044   2.301   1.841   5.785  1.0743  1.1659 -0.8478
  108OSM   H16T11045   2.198   1.970   5.858  2.2869 -0.1837 -0.3980
  108OSM   C17S11046   2.140   1.934   5.653  0.4006  0.5108 -0.3953
  108OSM   H17S11047   2.050   1.991   5.684 -0.3694 -0.8464 -0.0489
  108OSM   H17T11048   2.111   1.849   5.588 -1.5923  0.9409 -0.1222
  108OSM   C18S11049   2.228   2.030   5.580 -0.3564  0.1894 -0.1018
  108OSM   H18S11050   2.326   1.985   5.552  0.1816  2.0048 -1.3343
  108OSM   H18T11051   2.260   2.113   5.646  2.5247 -1.2743  0.5240
  108OSM   H18U11052   2.187   2.059   5.481 -0.7721  1.9896  0.5671
  108OSM    C1F11053   1.664   2.086   7.076  0.0090  0.2331  0.5254
  108OSM     OF11054   1.706   2.170   7.149 -0.2419 -0.6304 -0.6459
  108OSM    C2F11055   1.614   2.120   6.941  0.4635  0.1703 -0.5515
  108OSM    H2F11056   1.518   2.067   6.923  0.3151 -0.1079  0.9154
  108OSM    H2G11057   1.669   2.070   6.858 -1.1470 -0.0825 -1.5021
  108OSM    C3F11058   1.605   2.272   6.919 -0.5513 -0.3822 -0.6089
  108OSM    H3F11059   1.706   2.315   6.907  0.1833 -1.3520  1.4643
  108OSM    H3G11060   1.551   2.320   7.004  1.0497 -1.5242  1.1417
  108OSM    C4F11061   1.520   2.300   6.795 -0.1166 -1.1310 -0.4841
  108OSM    H4F11062   1.500   2.409   6.788  1.4013 -0.7877  0.2255
  108OSM    H4G11063   1.421   2.254   6.814 -0.0139 -1.4087 -0.6180
  108OSM    C5F11064   1.592   2.255   6.669 -0.4570  0.2363  0.1022
  108OSM    H5F11065   1.600   2.144   6.665  1.3796  0.3669 -0.7423
  108OSM    H5G11066   1.695   2.293   6.654 -1.3268  1.7579 -2.8611
  108OSM    C6F11067   1.521   2.304   6.541 -0.5255 -0.2490 -0.4874
  108OSM    H6F11068   1.412   2.283   6.550 -0.6539  0.8733  1.1095
  108OSM    H6G11069   1.546   2.235   6.458 -1.3986 -0.5268 -0.5343
  108OSM    C7F11070   1.556   2.451   6.509 -0.2395  0.5541  1.1649
  108OSM    H7F11071   1.667   2.458   6.517 -0.1960  0.5674  0.5397
  108OSM    H7G11072   1.525   2.521   6.590  0.2957 -0.6481  2.4494
  108OSM    C8F11073   1.523   2.513   6.372  0.2875  0.1216  0.5653
  108OSM    H8F11074   1.555   2.620   6.367  1.3323 -0.1603  0.9070
  108OSM    H8G11075   1.414   2.519   6.352  0.6261  0.5782 -1.3945
  108OSM    C9F11076   1.594   2.441   6.258 -0.7068  1.1016 -0.2882
  108OSM    H9F11077   1.701   2.462   6.247 -0.5410  0.1589 -0.5557
  108OSM   C10F11078   1.548   2.335   6.188 -0.6287  0.1243 -0.0466
  108OSM   H10F11079   1.614   2.289   6.113  0.0082  0.9428 -0.0018
  108OSM   C11F11080   1.413   2.273   6.191  0.7487  0.5825 -0.2605
  108OSM   H11F11081   1.339   2.336   6.245 -1.0856 -0.1064 -1.8599
  108OSM   H11G11082   1.404   2.165   6.218 -1.8762  0.7899 -0.0985
  108OSM   C12F11083   1.353   2.272   6.048  0.7169  0.0361 -0.1407
  108OSM   H12F11084   1.374   2.368   5.995 -0.5012 -1.0002 -2.6915
  108OSM   H12G11085   1.244   2.259   6.063  0.6855 -0.3391 -0.6602
  108OSM   C13F11086   1.402   2.162   5.946 -0.1456 -1.2870 -0.3553
  108OSM   H13F11087   1.398   2.063   5.997 -0.9578 -0.2159  1.7669
  108OSM   H13G11088   1.509   2.178   5.920 -0.4954 -0.4125 -1.3428
  108OSM   C14F11089   1.330   2.175   5.804  0.7299  0.1403 -0.1586
  108OSM   H14F11090   1.343   2.283   5.780  0.4138  0.6339  1.6959
  108OSM   H14G11091   1.221   2.157   5.818  0.6255  1.9303  1.9410
  108OSM   C15F11092   1.397   2.083   5.701 -0.2024  0.0713 -0.1743
  108OSM   H15F11093   1.349   1.983   5.710 -3.1530  1.5347  1.9738
  108OSM   H15G11094   1.505   2.078   5.729 -0.1463 -2.9234 -0.6070
  108OSM   C16F11095   1.375   2.115   5.550 -0.1891  0.2026  0.4235
  108OSM   H16F11096   1.434   2.206   5.527  0.7948 -0.4894  0.1661
  108OSM   H16G11097   1.268   2.130   5.523 -0.1990  0.7806  0.7585
  108OSM   C17F11098   1.419   2.001   5.454  0.0076 -0.2952  0.3374
  108OSM   H17F11099   1.357   1.910   5.472  1.7576 -1.6292 -0.0749
  108OSM   H17G11100   1.518   1.952   5.463 -0.5966 -1.8317 -0.7970
  108OSM   C18F11101   1.380   2.024   5.304 -0.3204 -0.5186  0.1612
  108OSM   H18F11102   1.392   1.930   5.245 -2.3995 -0.6000 -0.1876
  108OSM   H18G11103   1.441   2.106   5.261 -0.3583 -0.7200 -0.2821
  108OSM   H18H11104   1.275   2.057   5.294  0.1720  0.8265 -0.9273
  109OSM      N11105   5.979   3.097   7.253 -0.4276 -0.1126 -0.0680
  109OSM    C1511106   6.082   3.082   7.362  0.5455  1.1676  0.3214
  109OSM   H15A11107   6.169   3.047   7.308  0.7009  1.3207  0.4757
  109OSM   H15B11108   6.050   3.012   7.438  2.1304  0.2866  0.2250
  109OSM   H15C11109   6.106   3.177   7.407 -2.0912  2.1242 -0.0844
  109OSM    C1411110   5.943   2.959   7.200  0.0335 -0.3597 -0.2911
  109OSM   H14A11111   5.899   2.892   7.274 -1.2502  1.9811  1.1974
  109OSM   H14B11112   6.036   2.912   7.174  0.2866 -0.6090  0.9929
  109OSM   H14C11113   5.879   2.958   7.113  0.3850  0.4048 -0.5648
  109OSM    C1311114   5.851   3.146   7.312 -0.5399  1.1184  0.3378
  109OSM   H13A11115   5.772   3.136   7.238  1.6422  1.9788 -2.2845
  109OSM   H13B11116   5.863   3.251   7.334 -2.2232  1.7394 -1.4397
  109OSM   H13C11117   5.825   3.089   7.399  1.4914  0.8996  0.8559
  109OSM    C1211118   6.014   3.185   7.140 -0.4828  0.3779  0.4515
  109OSM   H12A11119   6.040   3.282   7.179 -1.3537  1.1949 -0.9098
  109OSM   H12B11120   5.920   3.186   7.087  0.5152 -0.6920 -1.4254
  109OSM    C1111121   6.122   3.139   7.044 -0.5169  0.0243 -0.7942
  109OSM   H11A11122   6.137   3.217   6.966 -2.9662  1.2116 -0.1897
  109OSM   H11B11123   6.093   3.045   6.993  3.6911 -0.1800 -3.1686
  109OSM      P11124   6.343   3.236   7.140 -0.6113  0.1925  0.2669
  109OSM    O1311125   6.286   3.341   7.213  0.1167 -0.1705 -0.7162
  109OSM    O1411126   6.466   3.177   7.203  0.1546  0.2110  0.5253
  109OSM    O1111127   6.390   3.279   6.996  0.5526 -0.5345 -0.2455
  109OSM    O1211128   6.241   3.117   7.111 -0.1677  0.4164 -0.0084
  109OSM    C1S11129   6.400   3.176   6.898 -0.5533 -0.4077 -0.1250
  109OSM    H1S11130   6.300   3.146   6.859 -0.0055 -3.6152  0.6909
  109OSM    H1T11131   6.447   3.082   6.933 -0.4333 -0.8415 -1.3956
  109OSM     NF11132   6.469   3.149   6.655 -0.2090 -0.3848 -0.1746
  109OSM    HNF11133   6.513   3.064   6.626  1.4344 -0.1731  1.4748
  109OSM    C2S11134   6.507   3.205   6.782  0.3070 -0.6300 -0.1116
  109OSM    H2S11135   6.496   3.314   6.764 -0.4815 -0.8270 -0.8727
  109OSM    C3S11136   6.650   3.174   6.833  0.1030 -0.2387  0.7457
  109OSM    H3S11137   6.665   3.067   6.857 -0.6498 -0.4536  0.3071
  109OSM     O311138   6.681   3.232   6.961  0.2690 -0.3976  0.0265
  109OSM    HO311139   6.608   3.284   6.996  2.2267  1.0831  2.2015
  109OSM    C4S11140   6.749   3.207   6.725 -0.0700  0.5763 -0.8141
  109OSM    H4S11141   6.769   3.122   6.659 -0.5829  0.5851 -0.9876
  109OSM    C5S11142   6.813   3.323   6.725 -0.2688 -0.2537 -0.1522
  109OSM    H5S11143   6.810   3.384   6.816  0.0014 -2.0594  1.1136
  109OSM    C6S11144   6.915   3.353   6.622 -0.5447  0.0361  0.9238
  109OSM    H6S11145   7.016   3.353   6.669 -0.0780  0.5652 -0.0443
  109OSM    H6T11146   6.911   3.453   6.574 -1.1759 -0.9336 -1.1540
  109OSM    C7S11147   6.925   3.247   6.510  0.6394 -1.1466  0.3157
  109OSM    H7S11148   6.827   3.249   6.456  0.5184 -0.4276  0.5510
  109OSM    H7T11149   6.936   3.144   6.549  2.3419 -2.2383 -2.7447
  109OSM    C8S11150   7.041   3.276   6.402  0.3361  0.2493 -0.6020
  109OSM    H8S11151   7.137   3.240   6.444 -0.2001  0.4063  0.8240
  109OSM    H8T11152   7.054   3.386   6.390 -3.8040  1.1121  1.1408
  109OSM    C9S11153   7.032   3.203   6.268  0.4629  1.0653 -0.8228
  109OSM    H9S11154   6.923   3.189   6.252  0.5637 -1.8791  0.4116
  109OSM    H9T11155   7.054   3.094   6.269  0.1618  0.8605 -4.4688
  109OSM   C10S11156   7.124   3.258   6.153  0.8709 -0.1958  0.1681
  109OSM   H10S11157   7.227   3.262   6.194  1.1084 -1.1003 -0.3174
  109OSM   H10T11158   7.086   3.360   6.132  0.1508 -0.0546  2.0028
  109OSM   C11S11159   7.113   3.171   6.031  0.2970  0.1910 -0.0490
  109OSM   H11S11160   7.009   3.155   5.997  1.0126 -0.3929 -2.1124
  109OSM   H11T11161   7.153   3.068   6.040  1.6537  0.7780  1.0425
  109OSM   C12S11162   7.185   3.235   5.904 -0.3944 -0.5081 -0.1563
  109OSM   H12S11163   7.293   3.249   5.925 -0.1473 -0.1500 -1.5511
  109OSM   H12T11164   7.138   3.334   5.889 -0.7798  0.1118  4.0354
  109OSM   C13S11165   7.167   3.150   5.780  0.1637  0.1049  0.4107
  109OSM   H13S11166   7.058   3.131   5.770  0.7043 -2.8561 -1.0041
  109OSM   H13T11167   7.223   3.058   5.809  3.1210  1.5981 -0.1749
  109OSM   C14S11168   7.217   3.221   5.653 -0.6761  0.0613  0.2611
  109OSM   H14S11169   7.326   3.239   5.663  0.1221 -3.3481 -1.0732
  109OSM   H14T11170   7.171   3.322   5.641  0.2107  0.6877  1.8343
  109OSM   C15S11171   7.209   3.144   5.518  0.1788  0.1730  0.4401
  109OSM   H15S11172   7.113   3.090   5.502  0.5504 -0.6388  0.8926
  109OSM   H15T11173   7.280   3.059   5.526 -0.8909 -0.6418  1.9010
  109OSM   C16S11174   7.247   3.233   5.401 -0.9781 -0.4291  0.5271
  109OSM   H16S11175   7.347   3.273   5.428 -0.6939 -1.5504  1.2006
  109OSM   H16T11176   7.167   3.307   5.382  1.6655  1.8100 -3.0837
  109OSM   C17S11177   7.248   3.154   5.267  0.1187  0.1677  0.5393
  109OSM   H17S11178   7.147   3.119   5.236  0.2702  1.0469 -1.0747
  109OSM   H17T11179   7.316   3.066   5.280  1.5357  0.4729 -3.4439
  109OSM   C18S11180   7.300   3.243   5.152  0.2858  0.4939  0.5872
  109OSM   H18S11181   7.402   3.280   5.176  1.3919 -2.3894  0.7259
  109OSM   H18T11182   7.241   3.336   5.138  0.6277  0.4787 -1.0707
  109OSM   H18U11183   7.291   3.184   5.059 -0.8033 -0.2170  1.1235
  109OSM    C1F11184   6.362   3.184   6.591 -0.2968 -0.4893  0.8673
  109OSM     OF11185   6.275   3.263   6.640 -0.2674 -0.3157  0.5191
  109OSM    C2F11186   6.340   3.120   6.456 -0.5509 -0.1998 -0.5385
  109OSM    H2F11187   6.291   3.022   6.476 -3.1204  0.7057 -2.0796
  109OSM    H2G11188   6.441   3.113   6.409  0.8710 -0.6710  2.2913
  109OSM    C3F11189   6.252   3.192   6.353  0.0452 -0.4245 -0.6119
  109OSM    H3F11190   6.280   3.299   6.345 -0.5717  0.0658  2.6325
  109OSM    H3G11191   6.144   3.187   6.378  0.2393  0.0238  0.3692
  109OSM    C4F11192   6.260   3.138   6.216 -0.6463 -0.3064  0.4666
  109OSM    H4F11193   6.193   3.198   6.151  0.6239  1.9951  1.1533
  109OSM    H4G11194   6.225   3.033   6.218  2.2309 -1.3530  0.2056
  109OSM    C5F11195   6.398   3.129   6.147  0.3541  0.5133 -0.3826
  109OSM    H5F11196   6.448   3.035   6.179 -3.2864 -0.9712  1.5105
  109OSM    H5G11197   6.463   3.211   6.185  0.9631 -0.2447  0.2284
  109OSM    C6F11198   6.398   3.130   5.989  0.6962  0.7855 -0.0626
  109OSM    H6F11199   6.331   3.208   5.945 -0.1875  0.1978  0.2040
  109OSM    H6G11200   6.349   3.032   5.967  0.0026  1.0176  0.4189
  109OSM    C7F11201   6.543   3.131   5.938 -0.4213  0.2095  1.0163
  109OSM    H7F11202   6.546   3.072   5.844  0.5495  0.0933  1.1158
  109OSM    H7G11203   6.613   3.069   5.998  1.7149  1.1293 -0.4266
  109OSM    C8F11204   6.601   3.264   5.905  0.2509 -0.1940  0.2355
  109OSM    H8F11205   6.600   3.329   5.995  0.6605  0.4290 -0.1962
  109OSM    H8G11206   6.531   3.314   5.834  0.9978 -1.0657 -1.1734
  109OSM    C9F11207   6.734   3.254   5.842  0.5393 -0.3963 -0.7095
  109OSM    H9F11208   6.815   3.224   5.909 -0.7381  1.0925  1.6121
  109OSM   C10F11209   6.755   3.261   5.706  0.1846 -0.4112 -0.4008
  109OSM   H10F11210   6.857   3.257   5.667  0.3887  0.7548 -0.0227
  109OSM   C11F11211   6.656   3.292   5.595  0.0961  0.2380  0.0917
  109OSM   H11F11212   6.677   3.382   5.534  1.2530  1.2936  1.9605
  109OSM   H11G11213   6.559   3.310   5.647  0.0997 -1.8291  0.9073
  109OSM   C12F11214   6.637   3.167   5.508 -0.2532 -0.3833 -0.5391
  109OSM   H12F11215   6.622   3.077   5.571  1.2230  0.6698  1.4074
  109OSM   H12G11216   6.732   3.152   5.451  1.3587  2.2404  1.2283
  109OSM   C13F11217   6.518   3.190   5.412 -0.9852 -0.3088  0.3462
  109OSM   H13F11218   6.510   3.289   5.361 -0.0455  0.0007  0.7865
  109OSM   H13G11219   6.431   3.186   5.480 -0.5563 -0.0369  0.9187
  109OSM   C14F11220   6.509   3.088   5.296 -0.5204 -1.0494 -0.0134
  109OSM   H14F11221   6.567   2.998   5.327  1.6075 -0.2994 -1.5549
  109OSM   H14G11222   6.575   3.132   5.218  2.4371 -0.1963  2.7228
  109OSM   C15F11223   6.370   3.061   5.247  0.4279  0.0610 -0.1570
  109OSM   H15F11224   6.312   3.155   5.233  1.1467  0.3856 -1.0772
  109OSM   H15G11225   6.315   3.022   5.335  0.2184  1.4577  0.3581
  109OSM   C16F11226   6.373   2.983   5.114 -0.0554 -0.0527 -0.0529
  109OSM   H16F11227   6.442   2.898   5.130  2.1697  1.0919 -2.6484
  109OSM   H16G11228   6.429   3.039   5.036  0.9280 -1.1677 -0.1751
  109OSM   C17F11229   6.237   2.942   5.068 -0.2464 -0.3860 -0.1000
  109OSM   H17F11230   6.202   2.862   5.137 -0.5017 -0.0062  0.2153
  109OSM   H17G11231   6.254   2.890   4.971  2.2273  1.1302 -0.5561
  109OSM   C18F11232   6.138   3.057   5.047 -0.8919  0.4385  0.0730
  109OSM   H18F11233   6.048   3.011   5.002 -0.7555  0.1988  0.0413
  109OSM   H18G11234   6.167   3.140   4.979  0.3639 -0.1294 -0.1284
  109OSM   H18H11235   6.112   3.105   5.144  0.9215 -0.6401  1.1675
  110OSM      N11236   0.742   5.788   7.092  0.5080 -0.1618 -0.6943
  110OSM    C1511237   0.660   5.914   7.071 -0.8137  0.1425  0.2602
  110OSM   H15A11238   0.681   5.995   7.139  0.2307 -0.8304  1.1551
  110OSM   H15B11239   0.559   5.878   7.084 -0.5196 -0.0801  2.1663
  110OSM   H15C11240   0.658   5.945   6.968  2.1511 -0.2650 -0.0123
  110OSM    C1411241   0.734   5.763   7.242 -0.2514  0.1252  0.3406
  110OSM   H14A11242   0.752   5.851   7.302  0.4236 -0.1400  0.5418
  110OSM   H14B11243   0.800   5.682   7.271  1.3976  0.9339 -0.9322
  110OSM   H14C11244   0.636   5.723   7.263  0.3190 -1.5527  0.0023
  110OSM    C1311245   0.682   5.667   7.032  0.2152  0.0110  0.7270
  110OSM   H13A11246   0.663   5.680   6.926 -0.3702 -2.8476  0.4070
  110OSM   H13B11247   0.600   5.618   7.082  1.3669 -0.8967  1.7790
  110OSM   H13C11248   0.754   5.587   7.028 -0.5145 -0.6245 -0.6810
  110OSM    C1211249   0.882   5.796   7.041 -0.3236  0.6683 -0.3471
  110OSM   H12A11250   0.935   5.722   7.098 -1.2740 -2.6961 -3.4322
  110OSM   H12B11251   0.919   5.893   7.070 -2.3364  0.9209  1.6516
  110OSM    C1111252   0.903   5.784   6.885  0.2273  0.4378  1.0776
  110OSM   H11A11253   0.998   5.841   6.872 -0.2856  0.9604 -0.7196
  110OSM   H11B11254   0.822   5.849   6.846  1.1039  0.7836 -0.2584
  110OSM      P11255   1.015   5.548   6.851  0.5280  0.4196 -0.1802
  110OSM    O1311256   1.136   5.602   6.789  0.3243 -1.1629 -0.3859
  110OSM    O1411257   1.019   5.507   6.995  0.0588 -0.3341  0.3504
  110OSM    O1111258   0.978   5.410   6.774  0.2070 -0.0877  0.5418
  110OSM    O1211259   0.892   5.652   6.835  0.4325  0.3583  0.0209
  110OSM    C1S11260   0.841   5.360   6.789  0.2762 -0.5373 -0.0953
  110OSM    H1S11261   0.774   5.427   6.845 -0.1600 -0.4858 -0.6692
  110OSM    H1T11262   0.834   5.257   6.830 -0.2597 -0.5552 -0.2244
  110OSM     NF11263   0.634   5.323   6.663 -0.1207 -0.3109  0.8241
  110OSM    HNF11264   0.606   5.230   6.640 -2.1794  1.2334 -4.3356
  110OSM    C2S11265   0.769   5.366   6.650  0.0254 -0.0888 -0.9247
  110OSM    H2S11266   0.766   5.473   6.619  0.0708 -0.1186 -1.0344
  110OSM    C3S11267   0.848   5.285   6.538  0.1262  0.0291 -0.3112
  110OSM    H3S11268   0.839   5.178   6.569 -2.8679 -0.0182 -1.0907
  110OSM     O311269   0.986   5.310   6.525  0.0764  0.2505 -0.2869
  110OSM    HO311270   1.015   5.359   6.602  1.6839 -0.3395 -0.4868
  110OSM    C4S11271   0.776   5.291   6.408  0.1085 -0.0036  0.4861
  110OSM    H4S11272   0.710   5.203   6.400  1.1661 -0.8171  0.4715
  110OSM    C5S11273   0.791   5.372   6.302  0.5001  0.9078  0.5849
  110OSM    H5S11274   0.857   5.460   6.314  3.0018 -0.8039  0.2823
  110OSM    C6S11275   0.703   5.345   6.173  0.0199 -0.0618 -0.5958
  110OSM    H6S11276   0.643   5.252   6.185  0.3603 -0.2812 -0.5815
  110OSM    H6T11277   0.769   5.343   6.083  0.2767  1.4534 -0.4692
  110OSM    C7S11278   0.599   5.460   6.153 -0.4258 -0.2547  0.6484
  110OSM    H7S11279   0.659   5.553   6.144 -0.7191 -0.1635 -0.5020
  110OSM    H7T11280   0.546   5.467   6.250  1.4007  1.6035  1.6113
  110OSM    C8S11281   0.498   5.440   6.042  0.0513  0.4174 -0.6304
  110OSM    H8S11282   0.413   5.512   6.046 -2.2289 -2.1561  1.3092
  110OSM    H8T11283   0.456   5.337   6.036 -0.1481  0.4270  0.3107
  110OSM    C9S11284   0.558   5.461   5.907  0.1569  0.1788  0.3057
  110OSM    H9S11285   0.645   5.395   5.884  0.3904 -0.1119  1.8646
  110OSM    H9T11286   0.603   5.560   5.928 -0.5053  0.1547  2.0193
  110OSM   C10S11287   0.456   5.472   5.801  0.7704  0.0701  0.2809
  110OSM   H10S11288   0.395   5.564   5.814 -0.0061 -0.2058 -1.1588
  110OSM   H10T11289   0.388   5.385   5.790  1.2792 -0.0840 -2.1341
  110OSM   C11S11290   0.525   5.478   5.664 -0.3201  0.4742 -0.2147
  110OSM   H11S11291   0.570   5.378   5.646  0.5808  0.8764 -0.2579
  110OSM   H11T11292   0.599   5.559   5.650 -0.5333  0.3989 -2.0249
  110OSM   C12S11293   0.409   5.495   5.559 -0.1021 -0.4150  0.3269
  110OSM   H12S11294   0.367   5.598   5.562  0.6949 -0.0735 -0.0004
  110OSM   H12T11295   0.328   5.422   5.578 -1.3800  1.2900  1.7645
  110OSM   C13S11296   0.463   5.478   5.412  0.0891 -0.6553  0.0535
  110OSM   H13S11297   0.482   5.370   5.394  0.7077 -0.6078  0.4198
  110OSM   H13T11298   0.557   5.535   5.396 -0.8423  1.0141  0.2216
  110OSM   C14S11299   0.365   5.520   5.304 -0.2176 -0.4418 -0.5365
  110OSM   H14S11300   0.343   5.629   5.312 -0.5309 -0.6240  2.0273
  110OSM   H14T11301   0.268   5.468   5.319 -0.0686 -0.1862  1.6200
  110OSM   C15S11302   0.412   5.493   5.162 -0.3079  0.2690 -0.1265
  110OSM   H15S11303   0.410   5.385   5.136 -0.1682  0.2906 -0.2328
  110OSM   H15T11304   0.517   5.530   5.156  0.6839 -2.3587 -0.3749
  110OSM   C16S11305   0.331   5.562   5.054  0.0581 -0.7724  0.5755
  110OSM   H16S11306   0.265   5.640   5.098 -0.3762  0.0042 -1.3487
  110OSM   H16T11307   0.261   5.488   5.010 -0.1520  0.1495 -0.6778
  110OSM   C17S11308   0.414   5.620   4.939 -0.0016 -0.0742 -0.9990
  110OSM   H17S11309   0.333   5.644   4.867 -1.3716 -2.2319 -0.2723
  110OSM   H17T11310   0.483   5.542   4.900  1.8916  1.9732 -2.0069
  110OSM   C18S11311   0.482   5.755   4.960  0.0554 -0.9633 -0.0384
  110OSM   H18S11312   0.412   5.841   4.947  1.5568  0.1049 -1.7067
  110OSM   H18T11313   0.555   5.778   4.879 -0.2730 -2.2044 -0.7180
  110OSM   H18U11314   0.543   5.765   5.052  2.4356  2.3472 -1.7246
  110OSM    C1F11315   0.537   5.402   6.705  0.1319 -0.0094  0.2744
  110OSM     OF11316   0.562   5.521   6.717 -0.2385  0.4172 -0.1652
  110OSM    C2F11317   0.407   5.353   6.717  0.0667  0.2809 -0.7461
  110OSM    H2F11318   0.399   5.333   6.826  3.5042 -1.7165 -0.7006
  110OSM    H2G11319   0.402   5.248   6.679  0.4181 -0.9718  2.3379
  110OSM    C3F11320   0.284   5.430   6.660  0.0695 -0.3057  0.3709
  110OSM    H3F11321   0.302   5.440   6.551  0.1423 -1.5539  0.2595
  110OSM    H3G11322   0.277   5.533   6.701  0.7893  0.8832 -2.3351
  110OSM    C4F11323   0.144   5.374   6.692 -0.2841  0.1585  0.4015
  110OSM    H4F11324   0.068   5.431   6.635 -0.2248  0.2861  0.4497
  110OSM    H4G11325   0.112   5.383   6.799 -0.4123  0.5241  0.3363
  110OSM    C5F11326   0.136   5.226   6.644  0.0223  0.1644 -0.3416
  110OSM    H5F11327   0.035   5.183   6.654  0.2357 -0.1702  0.4395
  110OSM    H5G11328   0.205   5.169   6.709 -1.0438 -0.2191  0.4726
  110OSM    C6F11329   0.163   5.197   6.494 -0.4584  0.0373  0.2728
  110OSM    H6F11330   0.162   5.088   6.472  2.3417  0.0748 -0.4867
  110OSM    H6G11331   0.272   5.219   6.484 -0.6676  1.3884  0.8047
  110OSM    C7F11332   0.075   5.271   6.399  0.4684 -0.4993  0.3750
  110OSM    H7F11333   0.090   5.379   6.419 -2.7129  0.8871 -3.4282
  110OSM    H7G11334  -0.029   5.256   6.433  0.5250  1.2124  1.3944
  110OSM    C8F11335   0.096   5.230   6.252  0.3298  0.6881 -0.0076
  110OSM    H8F11336   0.117   5.122   6.263  0.1245  0.7270  0.8910
  110OSM    H8G11337   0.190   5.280   6.223  1.4470 -0.8130  0.9055
  110OSM    C9F11338  -0.019   5.248   6.158 -0.1893  0.2071  0.2375
  110OSM    H9F11339  -0.117   5.255   6.207 -0.9908  0.0343 -1.2792
  110OSM   C10F11340   0.001   5.278   6.028  0.4197  0.3682  0.2920
  110OSM   H10F11341  -0.089   5.284   5.965 -0.3118 -1.5688  1.0552
  110OSM   C11F11342   0.126   5.296   5.937  0.0402  0.0448  0.1246
  110OSM   H11F11343   0.215   5.295   6.004 -0.9056  0.8491  1.4396
  110OSM   H11G11344   0.123   5.403   5.908 -0.0866  0.5779  1.9426
  110OSM   C12F11345   0.144   5.204   5.817  1.0668 -0.7035  0.8773
  110OSM   H12F11346   0.129   5.101   5.856 -0.7284 -1.0248 -0.5056
  110OSM   H12G11347   0.249   5.212   5.782  0.9135 -1.9609  0.0684
  110OSM   C13F11348   0.048   5.240   5.704 -0.0393  0.0167  0.0036
  110OSM   H13F11349   0.067   5.343   5.667 -2.2676  0.2682 -0.5883
  110OSM   H13G11350  -0.050   5.254   5.756  0.6216  0.6986  1.1171
  110OSM   C14F11351   0.056   5.140   5.591 -0.4223 -0.0948 -0.2390
  110OSM   H14F11352   0.005   5.049   5.628  0.2047 -1.4044 -2.4423
  110OSM   H14G11353   0.159   5.099   5.585 -0.2172 -0.0488  1.9073
  110OSM   C15F11354   0.007   5.196   5.458  0.1244  0.4485 -0.1123
  110OSM   H15F11355   0.074   5.278   5.424  0.6927 -0.5809 -1.5831
  110OSM   H15G11356  -0.097   5.231   5.472  0.3632  0.1786  2.8943
  110OSM   C16F11357   0.025   5.095   5.336 -0.1416 -1.2189 -0.5692
  110OSM   H16F11358  -0.040   5.006   5.348 -2.2663 -0.0467 -2.5903
  110OSM   H16G11359   0.130   5.061   5.332 -0.0724 -1.3226  1.2204
  110OSM   C17F11360  -0.010   5.170   5.210 -0.1123 -0.0450  0.6467
  110OSM   H17F11361   0.054   5.257   5.184  2.5491 -2.0219  0.1142
  110OSM   H17G11362  -0.109   5.219   5.219 -1.3222 -2.4146  1.0230
  110OSM   C18F11363  -0.020   5.090   5.088  0.1490 -0.1452  0.0037
  110OSM   H18F11364   0.078   5.056   5.048 -0.1968 -0.0233 -0.9685
  110OSM   H18G11365  -0.074   5.149   5.011 -0.2224  1.1407  1.2169
  110OSM   H18H11366  -0.083   5.000   5.109  0.2882  0.3445  2.9608
  111OSM      N11367   3.110   5.585   7.310  0.5270 -0.3747 -0.3100
  111OSM    C1511368   3.093   5.714   7.243 -0.7270  0.0123 -0.1465
  111OSM   H15A11369   3.158   5.785   7.292 -1.7761  0.6562  0.3428
  111OSM   H15B11370   2.990   5.747   7.244 -0.8569 -0.0469 -2.7924
  111OSM   H15C11371   3.140   5.707   7.145 -0.6276 -0.8754 -0.0392
  111OSM    C1411372   3.253   5.536   7.315 -0.2174 -1.1781 -0.1898
  111OSM   H14A11373   3.261   5.438   7.361  2.7074 -1.4869 -1.1741
  111OSM   H14B11374   3.314   5.612   7.360  1.3736 -3.1234  1.1377
  111OSM   H14C11375   3.289   5.528   7.214  0.9705  0.4989  0.0725
  111OSM    C1311376   3.054   5.595   7.451  0.3140  0.3037 -0.2157
  111OSM   H13A11377   2.962   5.650   7.457 -0.2221 -0.5156 -0.6557
  111OSM   H13B11378   3.114   5.658   7.515  0.3812  0.4307 -0.4037
  111OSM   H13C11379   3.040   5.495   7.490  0.0090  0.9410  1.3790
  111OSM    C1211380   3.023   5.483   7.234  0.3574 -0.3238 -0.2268
  111OSM   H12A11381   3.073   5.467   7.140  1.1337 -0.1324  0.1471
  111OSM   H12B11382   2.929   5.532   7.216  0.8874  1.7704  2.1704
  111OSM    C1111383   2.996   5.338   7.275  0.5410  0.2384 -0.2102
  111OSM   H11A11384   2.932   5.290   7.198  1.2969  1.8660 -1.9294
  111OSM   H11B11385   2.931   5.333   7.365  0.6425 -2.5724 -0.2118
  111OSM      P11386   3.183   5.185   7.188  0.4520  0.0472  0.0170
  111OSM    O1311387   3.321   5.170   7.228 -0.4304 -0.3062 -0.1212
  111OSM    O1411388   3.096   5.073   7.161  0.3923 -0.0435  0.4760
  111OSM    O1111389   3.180   5.274   7.059 -0.1971 -0.7430  0.1290
  111OSM    O1211390   3.117   5.275   7.302 -0.3737  0.2139 -0.6564
  111OSM    C1S11391   3.296   5.286   6.965  0.5386  0.1117 -0.2802
  111OSM    H1S11392   3.361   5.198   6.975  1.8484  1.2185  1.3834
  111OSM    H1T11393   3.356   5.372   7.001 -1.7077  1.2821  0.9254
  111OSM     NF11394   3.387   5.291   6.746 -0.2940 -0.5671  0.2223
  111OSM    HNF11395   3.413   5.380   6.708 -0.7550 -0.3616  0.3848
  111OSM    C2S11396   3.262   5.288   6.816  0.1146 -0.4400 -0.0053
  111OSM    H2S11397   3.207   5.197   6.786 -3.4423  2.1851 -2.1908
  111OSM    C3S11398   3.153   5.407   6.786 -0.1088  0.7380  0.4320
  111OSM    H3S11399   3.205   5.503   6.808  0.0466  0.4356  1.4491
  111OSM     O311400   3.040   5.410   6.870 -0.2220  0.3795  0.4219
  111OSM    HO311401   3.071   5.369   6.950  3.0583 -0.2137 -1.0092
  111OSM    C4S11402   3.110   5.409   6.643 -0.4824  0.3104 -0.1153
  111OSM    H4S11403   3.146   5.505   6.603 -3.0032  0.3862 -2.5054
  111OSM    C5S11404   3.034   5.325   6.571 -0.2340  0.6579  0.2024
  111OSM    H5S11405   2.987   5.238   6.618 -0.5492 -0.7178 -2.5114
  111OSM    C6S11406   3.009   5.359   6.428 -0.5071  0.3468  0.5303
  111OSM    H6S11407   3.062   5.450   6.392  0.5300 -0.4999 -0.1574
  111OSM    H6T11408   2.900   5.380   6.422 -0.8851 -1.3521  0.9202
  111OSM    C7S11409   3.042   5.256   6.329 -0.0491  0.9832  0.9040
  111OSM    H7S11410   2.987   5.165   6.358  0.8341 -0.7306 -2.3580
  111OSM    H7T11411   3.150   5.228   6.332  0.1266  1.0652 -1.9237
  111OSM    C8S11412   3.013   5.302   6.185 -0.2451  0.4175 -0.9420
  111OSM    H8S11413   3.069   5.395   6.163 -0.6063  1.1079  0.8830
  111OSM    H8T11414   2.906   5.328   6.172 -0.1690  1.2823  0.0549
  111OSM    C9S11415   3.031   5.193   6.080  0.0383 -0.3008 -0.4751
  111OSM    H9S11416   2.960   5.113   6.111  1.6947 -1.5188  0.3205
  111OSM    H9T11417   3.130   5.146   6.097  0.2018  0.8369  2.2271
  111OSM   C10S11418   3.007   5.251   5.939  0.1847  0.0284  0.2057
  111OSM   H10S11419   3.069   5.342   5.923  0.3185 -0.1305 -0.1999
  111OSM   H10T11420   2.904   5.291   5.934 -0.1910 -0.9470 -0.1202
  111OSM   C11S11421   3.029   5.142   5.841 -0.7857 -0.4534 -0.0527
  111OSM   H11S11422   2.957   5.059   5.862 -0.2888 -1.3023 -1.5070
  111OSM   H11T11423   3.125   5.094   5.869 -0.0614  1.0985  0.1705
  111OSM   C12S11424   3.033   5.193   5.696 -0.4311 -0.1239  0.2469
  111OSM   H12S11425   3.113   5.267   5.677  1.5375 -1.2315  3.4200
  111OSM   H12T11426   2.931   5.230   5.670  0.2629  0.5288 -1.6409
  111OSM   C13S11427   3.059   5.066   5.606  0.2336 -0.1936  0.1723
  111OSM   H13S11428   2.992   4.983   5.636 -1.8629  1.0331 -0.8609
  111OSM   H13T11429   3.166   5.037   5.608  0.3884  0.3218  2.8747
  111OSM   C14S11430   3.024   5.099   5.460 -0.0558 -0.0760 -0.0442
  111OSM   H14S11431   3.085   5.184   5.423 -1.7893  0.4404 -1.9292
  111OSM   H14T11432   2.920   5.132   5.441 -0.3268  0.4623  2.1561
  111OSM   C15S11433   3.063   4.987   5.368  0.3371 -0.6074  0.0141
  111OSM   H15S11434   3.020   4.893   5.408 -0.7852 -0.4671 -0.8309
  111OSM   H15T11435   3.172   4.971   5.382  0.4596 -0.6805 -0.9727
  111OSM   C16S11436   3.026   4.993   5.217  0.3258  0.3454  0.6893
  111OSM   H16S11437   3.069   5.087   5.176 -1.6101  0.3726 -1.5128
  111OSM   H16T11438   2.915   5.000   5.212  0.3573  0.4618  0.1724
  111OSM   C17S11439   3.063   4.868   5.126 -1.3563 -0.0268  1.0513
  111OSM   H17S11440   3.171   4.856   5.148 -0.7290  3.2839  0.3186
  111OSM   H17T11441   3.044   4.881   5.017 -2.1550 -0.7675  1.0914
  111OSM   C18S11442   2.990   4.736   5.153 -0.6748 -0.9534 -0.1319
  111OSM   H18S11443   2.883   4.741   5.123 -1.0608 -0.7134  1.1836
  111OSM   H18T11444   2.998   4.709   5.261  1.0828 -0.9027 -0.2164
  111OSM   H18U11445   3.031   4.655   5.090  0.7644  0.8082 -1.5956
  111OSM    C1F11446   3.478   5.196   6.733 -0.0732 -0.8164  0.4672
  111OSM     OF11447   3.467   5.089   6.788 -0.2300 -0.0483  0.0129
  111OSM    C2F11448   3.588   5.234   6.633 -0.6021  0.7310  0.3062
  111OSM    H2F11449   3.607   5.343   6.644  0.1137  0.4871  1.6900
  111OSM    H2G11450   3.551   5.200   6.535 -0.9838 -3.2041  1.6302
  111OSM    C3F11451   3.709   5.146   6.661 -0.2081  0.3298  0.6790
  111OSM    H3F11452   3.682   5.039   6.674  1.2736 -0.0770  0.5696
  111OSM    H3G11453   3.749   5.169   6.762  0.6178  0.5568  0.3076
  111OSM    C4F11454   3.822   5.163   6.559  0.2651 -0.2257  0.0877
  111OSM    H4F11455   3.911   5.115   6.605 -0.2584 -1.4362 -0.1398
  111OSM    H4G11456   3.843   5.271   6.542 -4.2476  0.6566 -1.1606
  111OSM    C5F11457   3.794   5.094   6.420 -0.5513  0.2753  0.0763
  111OSM    H5F11458   3.724   5.159   6.364  0.3319  1.3250  0.1639
  111OSM    H5G11459   3.749   4.996   6.449 -0.1098  0.0347 -0.0489
  111OSM    C6F11460   3.920   5.084   6.344 -0.8294 -0.1347 -0.0639
  111OSM    H6F11461   3.997   5.035   6.407  0.6881  2.4478  0.2433
  111OSM    H6G11462   3.956   5.184   6.311 -0.0977  0.3587  2.0726
  111OSM    C7F11463   3.891   5.000   6.223  0.1606  0.3743  0.8056
  111OSM    H7F11464   3.813   5.052   6.163  0.6903  0.3145  0.0541
  111OSM    H7G11465   3.857   4.897   6.246  1.7343 -0.7865 -1.5845
  111OSM    C8F11466   4.021   4.971   6.136 -0.8956  0.2594 -0.4715
  111OSM    H8F11467   4.093   4.935   6.212 -1.1820 -0.4978 -0.5518
  111OSM    H8G11468   4.057   5.069   6.097 -1.3566  0.5982 -0.0653
  111OSM    C9F11469   4.013   4.875   6.030  0.2454  0.6606  0.3331
  111OSM    H9F11470   3.996   4.772   6.062 -0.8380  0.8843  0.5248
  111OSM   C10F11471   4.045   4.895   5.898  0.4380  0.5268  0.1460
  111OSM   H10F11472   4.030   4.807   5.834 -0.5345  0.3801  0.5678
  111OSM   C11F11473   4.068   5.029   5.833  0.2070 -0.6679 -0.7205
  111OSM   H11F11474   4.154   5.031   5.762 -0.8175  3.4019 -2.0963
  111OSM   H11G11475   4.069   5.105   5.914 -1.4375 -1.4831  0.1056
  111OSM   C12F11476   3.952   5.069   5.745 -0.1152 -0.7050  0.1346
  111OSM   H12F11477   3.962   5.177   5.720 -2.5067 -1.1526 -3.4137
  111OSM   H12G11478   3.854   5.061   5.799 -0.4735  1.1134 -0.1868
  111OSM   C13F11479   3.926   5.004   5.614  0.0144  0.3833 -0.1339
  111OSM   H13F11480   3.833   5.035   5.560  0.2692  0.4006 -0.5691
  111OSM   H13G11481   3.923   4.894   5.629  2.3508  0.5079  1.6973
  111OSM   C14F11482   4.033   5.023   5.507 -0.1954 -0.4225 -0.7458
  111OSM   H14F11483   4.117   4.954   5.534  0.4796  0.6913  0.1462
  111OSM   H14G11484   4.079   5.123   5.521 -0.6288 -0.1550 -1.2091
  111OSM   C15F11485   3.984   5.008   5.365  0.3725  0.1041 -0.8117
  111OSM   H15F11486   3.895   5.075   5.356 -0.9677 -0.9596  2.7761
  111OSM   H15G11487   3.962   4.900   5.352 -0.0566  0.3378 -2.2820
  111OSM   C16F11488   4.092   5.029   5.259  0.7823 -0.2636 -0.7882
  111OSM   H16F11489   4.170   4.958   5.291  0.9886  0.3100  0.0397
  111OSM   H16G11490   4.136   5.131   5.261  0.0966  0.0987  2.9608
  111OSM   C17F11491   4.032   5.000   5.120  1.0226  0.3443  0.1345
  111OSM   H17F11492   3.948   5.066   5.090  0.4725  0.0345  0.9320
  111OSM   H17G11493   3.997   4.896   5.138  3.0712 -0.3436  0.4199
  111OSM   C18F11494   4.129   4.996   5.005  0.4398 -0.0921  0.8919
  111OSM   H18F11495   4.195   5.085   5.008 -0.8549  0.8694  1.2221
  111OSM   H18G11496   4.086   4.984   4.904  2.2753  0.4741 -0.0010
  111OSM   H18H11497   4.205   4.914   5.009  0.2589 -0.2769  0.5584
  112OSM      N11498   4.958   1.246   7.347 -0.8334  0.3186  0.6706
  112OSM    C1511499   4.909   1.116   7.295  1.1342  0.3223 -0.6877
  112OSM   H15A11500   4.807   1.102   7.326  1.1761  0.9302 -0.2562
  112OSM   H15B11501   4.967   1.032   7.331 -1.0701 -1.1572 -0.3919
  112OSM   H15C11502   4.917   1.112   7.187  0.5619 -0.0401 -0.7188
  112OSM    C1411503   4.971   1.236   7.497  0.3666 -0.9755 -0.0526
  112OSM   H14A11504   4.975   1.336   7.538  0.0775 -1.7269  1.9465
  112OSM   H14B11505   5.061   1.184   7.525  0.4666 -0.1460  1.2589
  112OSM   H14C11506   4.892   1.174   7.538  0.9755 -1.1829  0.8362
  112OSM    C1311507   5.100   1.278   7.296  0.2247 -0.0572 -0.1823
  112OSM   H13A11508   5.108   1.263   7.189  0.2680 -0.4188 -0.1288
  112OSM   H13B11509   5.180   1.219   7.339  2.2156  3.5146  1.4735
  112OSM   H13C11510   5.124   1.381   7.319 -3.0327  1.1462 -1.5308
  112OSM    C1211511   4.867   1.362   7.305  0.5542  0.3060  0.4079
  112OSM   H12A11512   4.897   1.456   7.349 -2.2186  1.4700  0.0508
  112OSM   H12B11513   4.769   1.335   7.342  1.0328 -0.3300  1.2356
  112OSM    C1111514   4.851   1.388   7.148  0.3608  0.3237 -0.4537
  112OSM   H11A11515   4.762   1.452   7.130  1.6062  1.7965 -1.7047
  112OSM   H11B11516   4.832   1.292   7.097  0.3032 -1.6530  2.9694
  112OSM      P11517   4.993   1.475   6.957 -0.3966 -0.0525  0.7815
  112OSM    O1311518   4.871   1.514   6.884  0.3884 -0.5044 -0.1270
  112OSM    O1411519   5.117   1.551   6.941 -0.3613 -0.3604  0.3562
  112OSM    O1111520   5.033   1.329   6.909 -0.3329  0.1227 -0.5624
  112OSM    O1211521   4.963   1.460   7.103  0.1222 -0.4451  0.5830
  112OSM    C1S11522   4.983   1.277   6.791 -0.8747 -0.3196  0.2344
  112OSM    H1S11523   4.991   1.348   6.705  2.0325 -0.7654  0.0465
  112OSM    H1T11524   4.878   1.243   6.804 -1.3083  0.9850  0.3573
  112OSM     NF11525   5.008   1.092   6.622  0.1913 -0.0444  0.4354
  112OSM    HNF11526   4.978   0.997   6.617  1.4358 -0.4386 -0.2175
  112OSM    C2S11527   5.056   1.144   6.747 -0.6465  0.6022 -0.3940
  112OSM    H2S11528   5.162   1.170   6.728 -0.5327  1.2175  1.0251
  112OSM    C3S11529   5.052   1.039   6.869 -0.4365 -0.4328  0.2928
  112OSM    H3S11530   4.948   1.001   6.878 -0.1910 -0.6966  2.5165
  112OSM     O311531   5.075   1.097   6.998 -0.2700  0.4288 -0.0143
  112OSM    HO311532   5.057   1.191   6.987 -3.4362  0.1801  1.7511
  112OSM    C4S11533   5.146   0.928   6.835  0.3273  0.2647 -0.0869
  112OSM    H4S11534   5.248   0.965   6.822 -0.5048  3.8224  2.0072
  112OSM    C5S11535   5.124   0.798   6.802 -0.1200 -0.4629  0.0561
  112OSM    H5S11536   5.023   0.754   6.807  0.2958 -1.7889 -2.0459
  112OSM    C6S11537   5.234   0.710   6.750 -0.0343  0.0576 -0.4516
  112OSM    H6S11538   5.184   0.612   6.731 -1.4513  0.6792 -0.0989
  112OSM    H6T11539   5.310   0.692   6.829 -1.1505 -0.0907  0.6248
  112OSM    C7S11540   5.293   0.751   6.617 -0.7261  0.0498 -0.3308
  112OSM    H7S11541   5.366   0.672   6.588 -0.1443  1.0213 -1.6069
  112OSM    H7T11542   5.335   0.853   6.625 -0.7386 -0.0140  0.5615
  112OSM    C8S11543   5.194   0.755   6.497 -0.0404 -0.1820  0.2139
  112OSM    H8S11544   5.110   0.819   6.531  0.9513  1.1129  0.3010
  112OSM    H8T11545   5.156   0.655   6.468  0.0800 -0.7012  1.7499
  112OSM    C9S11546   5.254   0.827   6.375  0.3430  0.0310 -0.7533
  112OSM    H9S11547   5.360   0.798   6.359  0.4606  0.6570 -1.1203
  112OSM    H9T11548   5.253   0.936   6.394 -0.9361 -0.3087  1.4838
  112OSM   C10S11549   5.178   0.804   6.245  1.2212  0.3658 -0.0006
  112OSM   H10S11550   5.084   0.863   6.235  0.8642 -0.5062 -2.5093
  112OSM   H10T11551   5.158   0.695   6.256  0.4995  0.6234  1.4536
  112OSM   C11S11552   5.271   0.839   6.138  0.0857 -0.2796  0.3805
  112OSM   H11S11553   5.363   0.777   6.151 -0.3935 -0.5453  3.0281
  112OSM   H11T11554   5.295   0.948   6.140 -1.2086  0.0370 -0.1355
  112OSM   C12S11555   5.205   0.821   6.003  0.0885 -0.0212 -0.2106
  112OSM   H12S11556   5.141   0.907   5.975 -0.6482  0.3969  2.4689
  112OSM   H12T11557   5.126   0.743   6.009 -0.0689  0.0007 -1.7488
  112OSM   C13S11558   5.306   0.786   5.891 -0.2984 -0.5864 -0.0796
  112OSM   H13S11559   5.355   0.688   5.905 -0.1360 -0.3963  0.6905
  112OSM   H13T11560   5.390   0.858   5.887  0.3185 -1.3133 -0.4596
  112OSM   C14S11561   5.228   0.782   5.759 -0.6099  0.4522  0.2868
  112OSM   H14S11562   5.172   0.874   5.733 -2.1611 -0.2101  1.1803
  112OSM   H14T11563   5.154   0.702   5.780  1.3620 -1.8161 -0.9676
  112OSM   C15S11564   5.305   0.752   5.629 -0.6304  0.1535  0.1081
  112OSM   H15S11565   5.364   0.658   5.632  0.4028  0.7214 -1.5607
  112OSM   H15T11566   5.384   0.826   5.606 -0.9710  0.4004 -0.2711
  112OSM   C16S11567   5.212   0.743   5.508 -0.8178  0.0415  0.0786
  112OSM   H16S11568   5.140   0.828   5.506  1.1050  1.7629 -1.7908
  112OSM   H16T11569   5.156   0.647   5.513 -1.5677  0.0873 -3.9364
  112OSM   C17S11570   5.298   0.759   5.375  0.3021  0.0395 -0.0457
  112OSM   H17S11571   5.361   0.851   5.370 -0.9896  0.8899 -2.7136
  112OSM   H17T11572   5.227   0.794   5.297  1.0216  0.1950 -0.6518
  112OSM   C18S11573   5.377   0.637   5.327 -0.2984  0.5862  0.1976
  112OSM   H18S11574   5.429   0.661   5.233 -0.7567  2.3394  0.3636
  112OSM   H18T11575   5.313   0.548   5.306  0.4672 -0.1199  0.7963
  112OSM   H18U11576   5.456   0.623   5.404  0.2585 -0.5107 -0.5441
  112OSM    C1F11577   5.013   1.163   6.509  0.0553  0.0525  0.1726
  112OSM     OF11578   5.087   1.257   6.493 -0.0156  0.1812  0.0889
  112OSM    C2F11579   4.920   1.108   6.401 -0.4567  0.4696 -0.6942
  112OSM    H2F11580   4.821   1.158   6.408  0.6760  2.8189 -0.2282
  112OSM    H2G11581   4.917   0.998   6.412  0.0496  0.6650  2.2977
  112OSM    C3F11582   4.976   1.134   6.262 -0.0297 -0.1591  0.9263
  112OSM    H3F11583   5.078   1.092   6.267 -0.2286 -0.7437  0.2494
  112OSM    H3G11584   4.989   1.243   6.248  1.2178 -0.4366 -0.3379
  112OSM    C4F11585   4.891   1.072   6.142 -0.6033  0.1274 -0.3644
  112OSM    H4F11586   4.786   1.102   6.161  0.0588  0.6966  3.2098
  112OSM    H4G11587   4.904   0.964   6.164  3.4559  0.3918 -0.6448
  112OSM    C5F11588   4.942   1.111   6.000  0.0090 -0.2723  0.3513
  112OSM    H5F11589   5.052   1.097   5.989  0.3685  2.0325  0.4479
  112OSM    H5G11590   4.929   1.220   5.982 -0.3555 -0.1475  1.3132
  112OSM    C6F11591   4.868   1.034   5.887  0.6498 -0.6941 -0.3321
  112OSM    H6F11592   4.759   1.055   5.883  0.6574 -0.7384 -0.7350
  112OSM    H6G11593   4.878   0.925   5.901 -0.2169 -0.9778 -1.6941
  112OSM    C7F11594   4.923   1.082   5.750  0.1169  0.3704 -0.7318
  112OSM    H7F11595   4.885   1.001   5.683 -2.7221 -0.7133  1.9538
  112OSM    H7G11596   5.034   1.086   5.741  0.2104  0.4465  0.3602
  112OSM    C8F11597   4.879   1.220   5.701  0.4223  0.4008  0.1830
  112OSM    H8F11598   4.933   1.251   5.609 -0.4049 -0.6425 -0.6863
  112OSM    H8G11599   4.900   1.291   5.783 -2.5152  0.0031  1.4036
  112OSM    C9F11600   4.733   1.236   5.663  0.2613 -0.1066 -0.3590
  112OSM    H9F11601   4.664   1.245   5.748 -1.2549 -1.1609 -1.4205
  112OSM   C10F11602   4.684   1.251   5.542  0.6270  0.9341  0.5382
  112OSM   H10F11603   4.575   1.261   5.531  0.7809  1.9267 -0.2565
  112OSM   C11F11604   4.760   1.255   5.415  0.2401  0.3754 -0.2253
  112OSM   H11F11605   4.809   1.159   5.390 -0.1475  0.6837 -2.3202
  112OSM   H11G11606   4.834   1.335   5.435 -0.2795  0.8562 -0.1984
  112OSM   C12F11607   4.686   1.310   5.295 -0.3052  0.0246  0.7182
  112OSM   H12F11608   4.648   1.410   5.324 -0.1129 -0.0702  1.3101
  112OSM   H12G11609   4.600   1.245   5.268 -0.5246  1.2437 -1.7545
  112OSM   C13F11610   4.782   1.327   5.174 -0.0412  0.8439 -0.2622
  112OSM   H13F11611   4.837   1.230   5.168  0.1039  0.6068  2.9912
  112OSM   H13G11612   4.862   1.397   5.205  1.1288 -1.3723  2.1391
  112OSM   C14F11613   4.718   1.357   5.036  0.3657  0.4816  0.3676
  112OSM   H14F11614   4.681   1.461   5.044  0.2553  0.4957 -0.2610
  112OSM   H14G11615   4.631   1.289   5.027  0.1490  0.7495  0.4547
  112OSM   C15F11616   4.819   1.342   4.927 -0.2055 -0.3880  0.3902
  112OSM   H15F11617   4.880   1.249   4.923  1.1309  0.4957 -2.5975
  112OSM   H15G11618   4.887   1.425   4.953 -0.1426 -0.2307 -0.2596
  112OSM   C16F11619   4.768   1.361   4.782 -0.0988 -0.3011 -0.2867
  112OSM   H16F11620   4.753   1.470   4.767 -4.9267  0.3961  5.6577
  112OSM   H16G11621   4.673   1.308   4.765  0.8613 -1.7454 -1.3907
  112OSM   C17F11622   4.867   1.309   4.679  0.4927  0.2447 -0.2972
  112OSM   H17F11623   4.911   1.210   4.702 -0.5948 -0.0484  0.5809
  112OSM   H17G11624   4.950   1.383   4.685  1.6994 -1.1297  0.3801
  112OSM   C18F11625   4.818   1.294   4.536  0.4523  0.3281 -0.1057
  112OSM   H18F11626   4.710   1.283   4.559  0.7228  0.2635  1.1872
  112OSM   H18G11627   4.844   1.206   4.473 -0.4217  1.4935 -2.1771
  112OSM   H18H11628   4.820   1.386   4.474 -2.1751  0.1777 -0.5516
  113OSM      N11629   2.798   3.975   7.311  0.4391 -0.4541 -0.2163
  113OSM    C1511630   2.711   3.977   7.433  0.2786 -0.1976  0.0230
  113OSM   H15A11631   2.720   3.876   7.471 -0.7792  0.2430  1.5839
  113OSM   H15B11632   2.604   3.989   7.420  0.3553 -0.4650 -0.8654
  113OSM   H15C11633   2.748   4.048   7.506 -1.3305  2.4676 -1.5773
  113OSM    C1411634   2.942   3.991   7.345 -0.0993  0.1150 -0.6575
  113OSM   H14A11635   3.003   4.013   7.259  1.3846  3.2544  1.0478
  113OSM   H14B11636   2.985   3.907   7.399  0.0240 -0.0385 -0.9894
  113OSM   H14C11637   2.949   4.078   7.408 -2.6428 -0.5651  0.7064
  113OSM    C1311638   2.777   3.852   7.228 -0.3800  1.2758  0.1720
  113OSM   H13A11639   2.849   3.843   7.147  1.3956  0.6006  1.7473
  113OSM   H13B11640   2.683   3.844   7.177 -0.7321 -0.8416  1.0551
  113OSM   H13C11641   2.794   3.763   7.286 -0.4781 -0.1045 -1.8037
  113OSM    C1211642   2.763   4.102   7.224  0.0104  0.6567 -0.5744
  113OSM   H12A11643   2.841   4.107   7.149 -0.1405  0.7844 -0.7225
  113OSM   H12B11644   2.778   4.194   7.278  0.2755  0.2713  0.0203
  113OSM    C1111645   2.625   4.091   7.149 -1.1377 -0.0039  0.1500
  113OSM   H11A11646   2.635   4.012   7.071  0.4389  0.4395 -0.1199
  113OSM   H11B11647   2.621   4.182   7.085  1.3017  0.1123  0.0967
  113OSM      P11648   2.373   4.086   7.198 -0.0037  0.2947 -0.0450
  113OSM    O1311649   2.294   4.028   7.308 -0.1006 -0.1215 -0.4501
  113OSM    O1411650   2.338   4.215   7.146 -0.0379  0.4848  0.4435
  113OSM    O1111651   2.377   3.986   7.073 -0.3589 -0.0717 -0.3434
  113OSM    O1211652   2.521   4.082   7.242 -0.2288  0.2099  0.4286
  113OSM    C1S11653   2.331   4.021   6.945 -0.2213  0.5113  0.2218
  113OSM    H1S11654   2.322   4.130   6.925 -0.0489  0.4181 -0.3722
  113OSM    H1T11655   2.228   3.984   6.926 -0.6703  1.4800  0.7159
  113OSM     NF11656   2.395   4.003   6.698  0.0554  0.2267  0.1587
  113OSM    HNF11657   2.347   3.936   6.642 -1.2168  2.5629 -1.6949
  113OSM    C2S11658   2.428   3.962   6.831 -0.0312 -0.5282 -0.3287
  113OSM    H2S11659   2.529   4.004   6.850 -0.6869  0.6058  0.8573
  113OSM    C3S11660   2.456   3.808   6.850 -0.2334  0.0379 -0.4384
  113OSM    H3S11661   2.365   3.743   6.852  0.6380 -1.2616 -1.2342
  113OSM     O311662   2.512   3.779   6.980  0.3996  0.1073 -0.0713
  113OSM    HO311663   2.479   3.858   7.024  0.2886  0.4276 -0.7134
  113OSM    C4S11664   2.562   3.761   6.746  0.1948  0.0247  0.1907
  113OSM    H4S11665   2.516   3.751   6.646  0.7059  1.7157 -0.2626
  113OSM    C5S11666   2.694   3.745   6.761  0.4988  0.3537 -0.1920
  113OSM    H5S11667   2.731   3.756   6.864 -3.8535  3.8629  1.3412
  113OSM    C6S11668   2.794   3.698   6.657 -0.7531 -0.6300 -0.4402
  113OSM    H6S11669   2.840   3.605   6.696  1.6028  0.2229 -0.9967
  113OSM    H6T11670   2.882   3.766   6.647 -0.1279 -0.9163  2.3147
  113OSM    C7S11671   2.742   3.661   6.520  0.3843  0.1754  0.0868
  113OSM    H7S11672   2.697   3.753   6.476 -0.6361 -0.2213  0.2873
  113OSM    H7T11673   2.673   3.575   6.529  2.7926 -1.8545  0.3908
  113OSM    C8S11674   2.855   3.607   6.439 -0.7270  0.3838 -0.5000
  113OSM    H8S11675   2.912   3.539   6.506  0.9572  1.7327 -0.4905
  113OSM    H8T11676   2.928   3.685   6.408  0.2774  0.0711  0.9729
  113OSM    C9S11677   2.802   3.553   6.300  0.9718 -0.1061  0.6994
  113OSM    H9S11678   2.737   3.624   6.246 -2.4108 -1.1665  3.0296
  113OSM    H9T11679   2.744   3.459   6.314  0.1542  0.5025  1.5107
  113OSM   C10S11680   2.918   3.534   6.205  0.0604  0.2130  0.7894
  113OSM   H10S11681   2.998   3.473   6.253 -0.2828 -0.0487  1.0384
  113OSM   H10T11682   2.961   3.634   6.183  1.4568 -0.5893 -0.2585
  113OSM   C11S11683   2.874   3.473   6.071  0.8316  0.0319 -0.5622
  113OSM   H11S11684   2.961   3.494   6.005  1.2773 -1.2528 -0.4224
  113OSM   H11T11685   2.780   3.525   6.043 -1.8297 -3.5966  0.9332
  113OSM   C12S11686   2.850   3.318   6.072  0.4194 -0.4908 -0.0055
  113OSM   H12S11687   2.751   3.302   6.120  0.4291  3.3284  1.6946
  113OSM   H12T11688   2.922   3.266   6.139 -0.6044 -2.3101 -0.2419
  113OSM   C13S11689   2.861   3.253   5.937  0.9625 -0.4775 -0.3388
  113OSM   H13S11690   2.961   3.278   5.897 -0.1658  0.8438 -2.5023
  113OSM   H13T11691   2.786   3.302   5.872 -1.1962 -3.1090 -0.0454
  113OSM   C14S11692   2.838   3.109   5.951 -0.4866  0.3608 -0.4002
  113OSM   H14S11693   2.733   3.097   5.987 -0.4985  1.8548  0.1607
  113OSM   H14T11694   2.902   3.062   6.029 -1.1898 -2.3548 -1.3633
  113OSM   C15S11695   2.855   3.034   5.818 -0.5860  0.5909  0.4392
  113OSM   H15S11696   2.835   2.926   5.832  2.1868 -0.4074 -2.2957
  113OSM   H15T11697   2.952   3.045   5.766 -1.7408 -1.2499 -2.3422
  113OSM   C16S11698   2.748   3.090   5.715 -0.2033 -0.1333 -0.3272
  113OSM   H16S11699   2.784   3.191   5.686  0.6272 -0.7359 -1.4578
  113OSM   H16T11700   2.652   3.103   5.769 -1.5705  0.7842 -2.8209
  113OSM   C17S11701   2.732   2.997   5.595 -0.8581 -0.2622 -0.1849
  113OSM   H17S11702   2.676   3.050   5.515 -0.4467 -1.2743 -1.1709
  113OSM   H17T11703   2.673   2.907   5.624 -0.1220 -0.9467 -0.7601
  113OSM   C18S11704   2.863   2.943   5.531 -0.1209 -0.4615  0.2297
  113OSM   H18S11705   2.894   2.850   5.582  3.0621 -0.3013 -1.1465
  113OSM   H18T11706   2.945   3.018   5.538  0.2691 -0.7960 -0.6032
  113OSM   H18U11707   2.837   2.916   5.426 -0.5324  0.0491  0.1908
  113OSM    C1F11708   2.405   4.124   6.651  0.2633 -0.3225  0.2496
  113OSM     OF11709   2.457   4.210   6.715 -0.0130 -0.2155 -0.0668
  113OSM    C2F11710   2.343   4.152   6.514 -0.0177  0.0394  0.1973
  113OSM    H2F11711   2.278   4.241   6.499  2.7479  1.9609 -1.2123
  113OSM    H2G11712   2.295   4.055   6.488  2.2748 -1.1914  0.2655
  113OSM    C3F11713   2.462   4.179   6.417  0.7142 -0.1261 -0.0877
  113OSM    H3F11714   2.545   4.105   6.418  1.3446  0.5763  0.2257
  113OSM    H3G11715   2.506   4.278   6.441  2.8946 -0.6924 -1.4012
  113OSM    C4F11716   2.410   4.180   6.279 -0.2271 -0.8547  0.2989
  113OSM    H4F11717   2.333   4.258   6.258  0.4121 -0.4198 -0.4768
  113OSM    H4G11718   2.366   4.080   6.262 -1.9835 -0.3866  1.6406
  113OSM    C5F11719   2.523   4.195   6.169  0.2245 -0.0204  0.8673
  113OSM    H5F11720   2.596   4.117   6.198  0.8225  0.6559  1.2325
  113OSM    H5G11721   2.552   4.302   6.181  1.0591 -0.4648  3.1331
  113OSM    C6F11722   2.473   4.159   6.026  0.0824 -0.1340 -0.4747
  113OSM    H6F11723   2.390   4.230   6.005 -2.2739 -2.3304  0.8964
  113OSM    H6G11724   2.442   4.052   6.028  1.3028 -0.5055 -0.6356
  113OSM    C7F11725   2.574   4.180   5.910  0.4704  0.1769  0.3768
  113OSM    H7F11726   2.670   4.143   5.952 -0.3211  0.5478  2.6384
  113OSM    H7G11727   2.575   4.288   5.885 -1.5036  0.2255  0.3972
  113OSM    C8F11728   2.537   4.105   5.779  0.7098  0.1381  0.2548
  113OSM    H8F11729   2.432   4.119   5.747  0.9048 -1.3965 -1.1642
  113OSM    H8G11730   2.543   3.997   5.804  0.0955 -0.5139 -2.2053
  113OSM    C9F11731   2.637   4.118   5.668 -0.6093 -0.4042  0.4526
  113OSM    H9F11732   2.739   4.117   5.708  0.4574  0.7836 -2.0532
  113OSM   C10F11733   2.629   4.130   5.530  0.3829 -0.2875 -0.7650
  113OSM   H10F11734   2.721   4.149   5.473  0.8722  0.0513  0.1210
  113OSM   C11F11735   2.503   4.131   5.454  0.1995 -0.5687 -0.2254
  113OSM   H11F11736   2.475   4.239   5.454 -2.8774 -1.2508  1.8417
  113OSM   H11G11737   2.428   4.075   5.513 -0.0846 -0.4328 -0.4546
  113OSM   C12F11738   2.497   4.068   5.313  0.4908  0.2024 -0.2634
  113OSM   H12F11739   2.391   4.042   5.293  0.3906 -0.5510  1.1264
  113OSM   H12G11740   2.564   3.979   5.310  2.1985  1.4144  0.2331
  113OSM   C13F11741   2.535   4.167   5.202 -0.0998  0.5710  0.1975
  113OSM   H13F11742   2.643   4.189   5.208  0.0728 -0.5876  2.8040
  113OSM   H13G11743   2.480   4.262   5.217 -0.9166 -0.0034  1.0336
  113OSM   C14F11744   2.499   4.123   5.064 -0.0559 -0.6435  0.5124
  113OSM   H14F11745   2.392   4.092   5.059 -0.1133 -0.2590 -1.8167
  113OSM   H14G11746   2.545   4.023   5.047  1.8463  0.5508 -2.0499
  113OSM   C15F11747   2.537   4.223   4.956  0.0495  0.0247 -0.0192
  113OSM   H15F11748   2.494   4.324   4.976 -2.3938 -1.0369  0.5626
  113OSM   H15G11749   2.473   4.196   4.869  0.3542  0.5564 -0.4115
  113OSM   C16F11750   2.682   4.243   4.906 -0.7596  0.0867 -0.0384
  113OSM   H16F11751   2.663   4.264   4.799 -0.1817  0.3564 -0.0922
  113OSM   H16G11752   2.750   4.155   4.904  0.3552  0.9204  0.0430
  113OSM   C17F11753   2.747   4.364   4.966  0.0356 -0.1800 -0.6623
  113OSM   H17F11754   2.853   4.368   4.933  0.1300 -2.7295 -0.8182
  113OSM   H17G11755   2.745   4.350   5.076 -0.2060 -0.1350 -0.6610
  113OSM   C18F11756   2.683   4.496   4.923  0.1924 -0.0041  0.0897
  113OSM   H18F11757   2.578   4.506   4.889  0.3533  1.6003 -0.0057
  113OSM   H18G11758   2.740   4.542   4.840 -1.2412  1.9109  0.1193
  113OSM   H18H11759   2.689   4.553   5.018  2.1002  0.1189 -0.0751
  114OSM      N11760   3.546   2.722   7.636 -0.2046 -0.3658 -0.1371
  114OSM    C1511761   3.501   2.704   7.773 -0.4134 -0.7481  0.4056
  114OSM   H15A11762   3.495   2.600   7.802  1.3646 -0.8593  0.5038
  114OSM   H15B11763   3.417   2.767   7.798  1.5631  1.0670  3.2041
  114OSM   H15C11764   3.576   2.744   7.841  0.6889  0.1481 -1.2823
  114OSM    C1411765   3.527   2.860   7.589  0.0301 -0.3412 -0.7088
  114OSM   H14A11766   3.554   2.860   7.485  0.3654 -0.6749 -0.6236
  114OSM   H14B11767   3.590   2.913   7.659  2.1856 -0.9738 -2.0933
  114OSM   H14C11768   3.428   2.897   7.610  0.7948  0.2407  2.4052
  114OSM    C1311769   3.687   2.694   7.639  0.4302 -0.2777 -0.1982
  114OSM   H13A11770   3.715   2.662   7.540  0.0224  0.6826 -0.6444
  114OSM   H13B11771   3.715   2.608   7.697 -1.6627 -2.7316 -2.5331
  114OSM   H13C11772   3.746   2.781   7.664  0.3664 -0.0634 -0.7755
  114OSM    C1211773   3.465   2.617   7.554  0.2406 -0.7144 -0.8339
  114OSM   H12A11774   3.360   2.637   7.569  0.3928 -0.0197 -0.6340
  114OSM   H12B11775   3.483   2.517   7.589  1.5659 -0.6321 -1.2405
  114OSM    C1111776   3.482   2.619   7.399 -0.5775  0.1871  0.3472
  114OSM   H11A11777   3.439   2.712   7.357 -0.9556  0.4211  1.2250
  114OSM   H11B11778   3.416   2.538   7.360  0.2561  0.1470 -1.0150
  114OSM      P11779   3.689   2.476   7.351  0.0254  0.0780  0.1246
  114OSM    O1311780   3.832   2.488   7.372 -0.1332 -0.8063 -0.4309
  114OSM    O1411781   3.626   2.385   7.447  0.4243 -0.0941  0.1490
  114OSM    O1111782   3.652   2.433   7.203  0.0425 -0.3380 -0.1160
  114OSM    O1211783   3.619   2.618   7.362 -0.5786  0.2495 -0.0999
  114OSM    C1S11784   3.716   2.510   7.102  0.1989 -0.3231  0.0115
  114OSM    H1S11785   3.827   2.496   7.100  0.7714  3.3558 -0.7325
  114OSM    H1T11786   3.690   2.617   7.114  0.0947 -0.2975 -0.4049
  114OSM     NF11787   3.717   2.567   6.858  0.1543 -0.0670  0.7633
  114OSM    HNF11788   3.680   2.656   6.832  1.7249  0.3768 -0.0903
  114OSM    C2S11789   3.649   2.491   6.964 -0.3425 -0.3195  0.1596
  114OSM    H2S11790   3.649   2.385   6.931 -1.1798 -1.0412  2.2838
  114OSM    C3S11791   3.497   2.530   6.976  0.3247  0.0779 -0.4342
  114OSM    H3S11792   3.482   2.639   6.989 -1.8925 -0.3367  0.9008
  114OSM     O311793   3.428   2.472   7.083 -0.0071  0.0242 -0.0363
  114OSM    HO311794   3.501   2.419   7.117  0.6450  1.9534  1.8261
  114OSM    C4S11795   3.424   2.491   6.846  0.6232  0.2526 -0.4777
  114OSM    H4S11796   3.411   2.582   6.786  0.4072  1.4593  1.3041
  114OSM    C5S11797   3.375   2.372   6.812  0.1003 -0.0510  0.3849
  114OSM    H5S11798   3.373   2.294   6.889  1.1819 -1.8263 -1.2965
  114OSM    C6S11799   3.304   2.348   6.677 -0.3107 -0.6614 -0.3169
  114OSM    H6S11800   3.198   2.364   6.707  0.2690 -1.3112  2.3022
  114OSM    H6T11801   3.315   2.241   6.648  2.9051 -0.7112  0.7977
  114OSM    C7S11802   3.339   2.446   6.565 -0.2616  0.1806  0.1751
  114OSM    H7S11803   3.448   2.468   6.561 -0.3060  0.4412  0.3607
  114OSM    H7T11804   3.294   2.545   6.587 -1.1029 -0.2253  0.3082
  114OSM    C8S11805   3.294   2.408   6.428  0.3229  0.5037 -0.6074
  114OSM    H8S11806   3.187   2.389   6.407  0.0741  0.3025  0.7757
  114OSM    H8T11807   3.357   2.320   6.401 -0.5539 -0.1082 -0.7008
  114OSM    C9S11808   3.339   2.517   6.335 -0.4454  0.3477 -0.0389
  114OSM    H9S11809   3.446   2.546   6.341 -0.3758  0.4727 -1.4113
  114OSM    H9T11810   3.287   2.607   6.374  0.1428 -0.0598  1.7531
  114OSM   C10S11811   3.309   2.483   6.187 -0.2135 -0.2709  0.3516
  114OSM   H10S11812   3.318   2.580   6.134 -1.7595 -0.4852 -0.3210
  114OSM   H10T11813   3.207   2.444   6.171 -0.3766 -0.6540  2.0441
  114OSM   C11S11814   3.406   2.381   6.129 -0.5819  0.0990  0.5114
  114OSM   H11S11815   3.396   2.285   6.185 -1.2461  1.0142  2.0439
  114OSM   H11T11816   3.510   2.417   6.143 -1.5672  2.5540  2.2318
  114OSM   C12S11817   3.379   2.345   5.980  0.2103 -0.7104  0.0181
  114OSM   H12S11818   3.283   2.291   5.983 -0.0811 -0.2702 -0.8723
  114OSM   H12T11819   3.454   2.268   5.953  2.2898  1.1732  0.0652
  114OSM   C13S11820   3.387   2.455   5.879  0.4145 -0.3763 -0.8937
  114OSM   H13S11821   3.492   2.491   5.873 -0.1101  1.6532  0.7582
  114OSM   H13T11822   3.325   2.541   5.913 -0.6096 -1.7947  1.0240
  114OSM   C14S11823   3.347   2.400   5.744  0.0939  0.3167 -0.1332
  114OSM   H14S11824   3.242   2.364   5.752  0.7264 -1.7748 -0.7204
  114OSM   H14T11825   3.413   2.311   5.737  0.2913  0.1121  3.0153
  114OSM   C15S11826   3.357   2.496   5.628 -0.4476  0.7401 -0.1181
  114OSM   H15S11827   3.454   2.550   5.628 -0.7381  1.2791 -0.7467
  114OSM   H15T11828   3.275   2.570   5.642 -0.7026  0.1060  2.0950
  114OSM   C16S11829   3.341   2.424   5.492  0.2231  0.1482 -0.6422
  114OSM   H16S11830   3.234   2.395   5.486  0.5390 -1.2907  0.2048
  114OSM   H16T11831   3.398   2.329   5.489 -1.2648 -0.7557 -1.8541
  114OSM   C17S11832   3.374   2.509   5.366  0.2679 -0.3750  0.3569
  114OSM   H17S11833   3.468   2.567   5.381 -1.0319  1.6745  1.0175
  114OSM   H17T11834   3.299   2.591   5.366  0.0790 -0.5455  0.1077
  114OSM   C18S11835   3.355   2.447   5.232 -1.2815 -0.3626  0.3751
  114OSM   H18S11836   3.349   2.528   5.157  0.9311 -1.1090 -0.7105
  114OSM   H18T11837   3.273   2.372   5.236 -1.4725 -0.1522  0.3884
  114OSM   H18U11838   3.448   2.394   5.202 -1.8732 -1.2962  0.1529
  114OSM    C1F11839   3.841   2.524   6.814  0.1458  0.4978 -0.1381
  114OSM     OF11840   3.884   2.416   6.850 -0.2967  0.2961  0.0251
  114OSM    C2F11841   3.920   2.599   6.719 -0.1716  0.1660  0.7999
  114OSM    H2F11842   4.022   2.554   6.713  1.4205  3.6967 -1.7387
  114OSM    H2G11843   3.927   2.705   6.753 -1.3547  0.6115 -0.3070
  114OSM    C3F11844   3.866   2.597   6.578  0.0264  0.3459  0.1344
  114OSM    H3F11845   3.785   2.671   6.560 -0.2202 -0.0873 -0.5481
  114OSM    H3G11846   3.818   2.501   6.550  2.1367 -1.2977  1.7791
  114OSM    C4F11847   3.985   2.607   6.480 -0.8955  0.1707  0.9459
  114OSM    H4F11848   4.059   2.533   6.519  0.1781 -0.7822 -2.5874
  114OSM    H4G11849   4.028   2.709   6.479  1.1686 -0.6164 -2.0599
  114OSM    C5F11850   3.957   2.561   6.339  1.2933  0.2894  0.3748
  114OSM    H5F11851   3.873   2.622   6.298  1.5282  2.7382  3.2170
  114OSM    H5G11852   3.932   2.453   6.343  0.2980  0.5025  0.2320
  114OSM    C6F11853   4.077   2.586   6.245 -0.0488  0.1006 -0.0540
  114OSM    H6F11854   4.084   2.697   6.251 -0.8788  0.1363  0.3889
  114OSM    H6G11855   4.043   2.555   6.144 -1.1098 -2.0409  0.8928
  114OSM    C7F11856   4.195   2.492   6.278 -0.1908 -0.7086  0.1952
  114OSM    H7F11857   4.160   2.387   6.283 -2.1766 -0.0422  2.0058
  114OSM    H7G11858   4.233   2.519   6.379 -0.5030 -1.9664  0.6680
  114OSM    C8F11859   4.312   2.485   6.176  0.2644 -0.5126  0.6789
  114OSM    H8F11860   4.257   2.464   6.082  1.1395 -0.4185  0.1361
  114OSM    H8G11861   4.370   2.392   6.192  0.7542 -0.1940  0.7696
  114OSM    C9F11862   4.398   2.605   6.159  0.2101 -1.2255 -0.3002
  114OSM    H9F11863   4.409   2.661   6.254  1.4894 -0.7810 -0.6914
  114OSM   C10F11864   4.487   2.638   6.061  0.7503  0.0103 -0.2211
  114OSM   H10F11865   4.556   2.723   6.058  2.1106 -1.0603 -0.3053
  114OSM   C11F11866   4.500   2.554   5.933 -0.3590  0.2972  0.1350
  114OSM   H11F11867   4.425   2.472   5.929  1.3724 -1.3432 -0.6565
  114OSM   H11G11868   4.602   2.510   5.926  0.5197  1.2592  4.2285
  114OSM   C12F11869   4.474   2.635   5.797 -0.6579 -0.0724 -0.0179
  114OSM   H12F11870   4.524   2.734   5.805 -0.4922  0.3230 -3.9889
  114OSM   H12G11871   4.364   2.649   5.795 -0.6026  0.2876 -1.5758
  114OSM   C13F11872   4.521   2.558   5.673 -0.0475  0.2558 -0.3865
  114OSM   H13F11873   4.474   2.457   5.674  0.3795 -0.0223 -2.7804
  114OSM   H13G11874   4.631   2.544   5.665  0.1183  0.2034  1.4592
  114OSM   C14F11875   4.468   2.622   5.548 -0.5945 -0.2136  0.8793
  114OSM   H14F11876   4.496   2.729   5.540  0.1257 -0.4333  0.3570
  114OSM   H14G11877   4.358   2.616   5.561 -0.7707 -1.2976 -0.9345
  114OSM   C15F11878   4.517   2.542   5.421  0.3814  0.1593 -0.1866
  114OSM   H15F11879   4.486   2.440   5.450 -1.7230  1.4421  2.5148
  114OSM   H15G11880   4.625   2.557   5.399  0.0974  2.6817 -0.1401
  114OSM   C16F11881   4.437   2.582   5.296 -0.1993  1.0902 -0.4141
  114OSM   H16F11882   4.333   2.591   5.335  0.6140  2.2824  1.6587
  114OSM   H16G11883   4.435   2.497   5.224  0.4098  0.7030  0.0199
  114OSM   C17F11884   4.474   2.709   5.222  0.7747  0.2496  0.2801
  114OSM   H17F11885   4.486   2.783   5.304  0.5135 -2.9033  3.3742
  114OSM   H17G11886   4.398   2.727   5.143 -0.6357  0.1005  1.5626
  114OSM   C18F11887   4.608   2.686   5.150  0.8539 -0.2676  0.0711
  114OSM   H18F11888   4.596   2.609   5.070  0.5457 -0.5271  0.3596
  114OSM   H18G11889   4.691   2.652   5.215  1.4233 -0.2546 -0.6293
  114OSM   H18H11890   4.640   2.776   5.094 -2.4167  1.5215  0.8110
  115OSM      N11891   5.150   5.575   6.848 -0.1398  0.9094 -0.1325
  115OSM    C1511892   5.282   5.554   6.776 -0.0436  0.7576  0.4236
  115OSM   H15A11893   5.364   5.601   6.828  1.5823  0.5552 -1.8140
  115OSM   H15B11894   5.268   5.600   6.680 -2.4239 -1.0777 -0.2255
  115OSM   H15C11895   5.302   5.451   6.748  1.5584  1.6875 -2.1001
  115OSM    C1411896   5.041   5.557   6.744 -0.1863  0.7296  0.1292
  115OSM   H14A11897   5.060   5.609   6.652  0.3493  1.5376  0.6832
  115OSM   H14B11898   4.944   5.591   6.779 -0.0493 -0.9059  2.3602
  115OSM   H14C11899   5.036   5.452   6.719  0.7704  0.3756  1.3041
  115OSM    C1311900   5.134   5.459   6.948 -0.1021 -0.1621  0.3936
  115OSM   H13A11901   5.034   5.462   6.990 -0.4275 -1.4594 -0.2581
  115OSM   H13B11902   5.197   5.476   7.034 -2.0448  0.8647  1.6825
  115OSM   H13C11903   5.136   5.367   6.891  1.6423 -1.4955  2.4384
  115OSM    C1211904   5.144   5.703   6.928 -0.1706  0.4178  0.0091
  115OSM   H12A11905   5.212   5.709   7.012 -1.6277  2.6533  1.1356
  115OSM   H12B11906   5.042   5.708   6.965 -0.9039 -0.2712 -1.7967
  115OSM    C1111907   5.161   5.838   6.857  0.7699  0.0265  0.1570
  115OSM   H11A11908   5.145   5.919   6.931  1.7274 -0.6112  1.1016
  115OSM   H11B11909   5.079   5.850   6.784 -0.3927 -1.0741  1.2314
  115OSM      P11910   5.310   5.941   6.681 -0.0727 -0.2808  0.0228
  115OSM    O1311911   5.259   5.881   6.557 -0.4029  0.6049 -0.3049
  115OSM    O1411912   5.254   6.074   6.717 -0.4800  0.0337  0.1948
  115OSM    O1111913   5.464   5.970   6.658 -0.6108  0.3885 -0.0423
  115OSM    O1211914   5.297   5.842   6.805 -0.1389 -0.1193 -0.3037
  115OSM    C1S11915   5.558   5.861   6.634 -0.0662  0.0242  0.5015
  115OSM    H1S11916   5.539   5.771   6.697  0.0427 -0.2051  0.2114
  115OSM    H1T11917   5.665   5.887   6.648  0.5031 -1.6444 -0.5043
  115OSM     NF11918   5.657   5.696   6.482 -0.3397  0.3279  0.5556
  115OSM    HNF11919   5.749   5.711   6.447 -1.3326  2.1889 -1.5540
  115OSM    C2S11920   5.565   5.811   6.486  0.1521 -0.2443  0.7506
  115OSM    H2S11921   5.465   5.777   6.451 -0.4224  1.2950  0.8244
  115OSM    C3S11922   5.603   5.935   6.390 -0.3669 -0.1433 -0.1432
  115OSM    H3S11923   5.706   5.960   6.421 -0.7840  0.8258  0.5238
  115OSM     O311924   5.524   6.055   6.414 -0.4547 -0.0496  0.3634
  115OSM    HO311925   5.455   6.039   6.479 -1.5050  0.8851 -0.4802
  115OSM    C4S11926   5.604   5.889   6.247 -0.5029  0.1004 -0.1634
  115OSM    H4S11927   5.699   5.837   6.225 -0.8162 -1.0121  1.0052
  115OSM    C5S11928   5.501   5.866   6.162 -0.4654  0.3229  0.2551
  115OSM    H5S11929   5.398   5.895   6.189 -1.2388  1.4785 -3.4007
  115OSM    C6S11930   5.520   5.782   6.036  0.3015  0.6043  0.6008
  115OSM    H6S11931   5.431   5.715   6.038  0.9642 -0.2690  2.4163
  115OSM    H6T11932   5.612   5.721   6.034  0.3328  0.6588 -1.1424
  115OSM    C7S11933   5.542   5.868   5.917 -0.1861  0.1042 -0.6421
  115OSM    H7S11934   5.636   5.927   5.919 -0.0905 -0.0425  0.6319
  115OSM    H7T11935   5.454   5.935   5.911 -0.8231 -0.6583 -0.1178
  115OSM    C8S11936   5.546   5.786   5.786  0.1439  0.1203  0.2509
  115OSM    H8S11937   5.468   5.708   5.790  1.5156 -1.4170 -1.3426
  115OSM    H8T11938   5.645   5.740   5.765  0.2586  0.4515  0.0557
  115OSM    C9S11939   5.513   5.883   5.672 -0.6832 -0.0747 -0.6410
  115OSM    H9S11940   5.582   5.969   5.676 -1.7957  0.8090  2.0395
  115OSM    H9T11941   5.414   5.930   5.688 -0.2232  0.2508  1.5181
  115OSM   C10S11942   5.519   5.821   5.534  0.2667  0.4397  0.4950
  115OSM   H10S11943   5.438   5.747   5.544  0.9663 -0.2788  0.9599
  115OSM   H10T11944   5.622   5.784   5.516 -0.0797  0.4574 -1.7798
  115OSM   C11S11945   5.503   5.923   5.419 -0.6583 -0.3328  0.0006
  115OSM   H11S11946   5.588   5.994   5.434 -0.6836  0.1920 -2.1218
  115OSM   H11T11947   5.408   5.978   5.432  0.2770  1.4099 -0.2000
  115OSM   C12S11948   5.520   5.851   5.285 -0.2581  0.5709  0.2616
  115OSM   H12S11949   5.443   5.771   5.276 -0.5378  0.9914 -1.7260
  115OSM   H12T11950   5.621   5.810   5.265 -1.0868 -1.1694 -0.6938
  115OSM   C13S11951   5.488   5.935   5.161 -0.3631  0.6141 -0.3155
  115OSM   H13S11952   5.569   6.008   5.143 -0.1048 -0.2403 -3.0610
  115OSM   H13T11953   5.391   5.986   5.184 -1.9091 -1.6730 -1.3756
  115OSM   C14S11954   5.469   5.853   5.028  0.0598 -0.6308  0.1081
  115OSM   H14S11955   5.434   5.922   4.948 -2.7612  0.3759  2.0440
  115OSM   H14T11956   5.389   5.776   5.037 -0.9387  0.1714 -1.3833
  115OSM   C15S11957   5.604   5.778   4.990  0.5149  0.0202 -0.6859
  115OSM   H15S11958   5.597   5.680   5.043  1.5157  0.3677  0.1219
  115OSM   H15T11959   5.683   5.843   5.033  0.9603 -1.4215  0.8210
  115OSM   C16S11960   5.614   5.750   4.841 -0.1412 -0.1366  0.0315
  115OSM   H16S11961   5.718   5.720   4.816  0.3914  0.6996  1.0992
  115OSM   H16T11962   5.588   5.846   4.791 -1.0529 -0.2770  0.2245
  115OSM   C17S11963   5.511   5.633   4.803 -0.7552  0.6501  0.8796
  115OSM   H17S11964   5.416   5.651   4.858 -0.7338  1.4734  0.6584
  115OSM   H17T11965   5.545   5.544   4.860  0.8102  0.8874  0.3743
  115OSM   C18S11966   5.490   5.601   4.659 -0.2997  0.1257  0.2239
  115OSM   H18S11967   5.457   5.685   4.594 -0.3729 -0.9456 -1.1867
  115OSM   H18T11968   5.413   5.522   4.666 -0.5976  0.5653  2.9360
  115OSM   H18U11969   5.580   5.557   4.612 -0.5040  2.0349 -2.1588
  115OSM    C1F11970   5.632   5.576   6.531 -0.3390  0.3610 -0.4706
  115OSM     OF11971   5.524   5.554   6.587  0.1309  0.0625 -0.0195
  115OSM    C2F11972   5.746   5.474   6.524  0.7277  0.6024 -0.2718
  115OSM    H2F11973   5.701   5.374   6.547  0.4860  0.1711 -2.4040
  115OSM    H2G11974   5.808   5.499   6.612  1.0575 -2.2176  0.4027
  115OSM    C3F11975   5.824   5.474   6.388 -0.6003  0.0001  0.2019
  115OSM    H3F11976   5.870   5.573   6.365  2.0205 -1.4508 -1.2001
  115OSM    H3G11977   5.769   5.437   6.299  1.0233 -2.2586  0.0552
  115OSM    C4F11978   5.943   5.376   6.394  1.4589 -0.2023 -0.1112
  115OSM    H4F11979   5.915   5.270   6.412 -0.7516  0.0740 -1.5958
  115OSM    H4G11980   6.005   5.402   6.483 -0.2443  1.5820  0.6305
  115OSM    C5F11981   6.044   5.387   6.272  0.1120  0.6782 -0.4435
  115OSM    H5F11982   6.108   5.297   6.279 -3.2638 -1.9486 -0.7467
  115OSM    H5G11983   6.103   5.481   6.281 -0.1918  0.7318  1.1761
  115OSM    C6F11984   5.981   5.390   6.132  0.1267 -0.0070 -0.2295
  115OSM    H6F11985   5.935   5.491   6.127 -1.4767 -0.6671  0.5336
  115OSM    H6G11986   5.906   5.308   6.131  0.2894 -0.2406 -3.5711
  115OSM    C7F11987   6.087   5.371   6.025  0.2142 -0.3402  0.0964
  115OSM    H7F11988   6.122   5.267   6.043  0.0490 -0.3930  0.1182
  115OSM    H7G11989   6.176   5.437   6.035 -1.8573  3.0038 -1.7103
  115OSM    C8F11990   6.034   5.376   5.879 -0.2708  0.4952 -0.4765
  115OSM    H8F11991   5.948   5.307   5.863  0.4788 -1.1137  1.8499
  115OSM    H8G11992   6.123   5.336   5.826  1.5603  2.7267  0.7269
  115OSM    C9F11993   5.997   5.516   5.843  0.4073  0.6594 -0.0495
  115OSM    H9F11994   5.918   5.550   5.912 -1.4922 -1.6367 -0.9552
  115OSM   C10F11995   6.064   5.603   5.767 -0.5846 -0.0239 -0.1851
  115OSM   H10F11996   6.008   5.696   5.750 -1.3638  0.1571  2.8094
  115OSM   C11F11997   6.185   5.574   5.679  0.0790  0.3625  0.4205
  115OSM   H11F11998   6.218   5.470   5.694 -0.6242  0.3946  2.4702
  115OSM   H11G11999   6.268   5.633   5.724  1.0272 -0.6266  0.0075
  115OSM   C12F12000   6.179   5.618   5.529 -0.5178 -0.1394 -1.1299
  115OSM   H12F12001   6.284   5.595   5.500 -0.4546 -0.5461 -0.5883
  115OSM   H12G12002   6.157   5.727   5.515 -1.4049 -0.1372  0.1979
  115OSM   C13F12003   6.086   5.535   5.447  0.3877  0.3352  0.4389
  115OSM   H13F12004   5.983   5.575   5.461 -0.8015 -1.3831 -2.4727
  115OSM   H13G12005   6.071   5.430   5.480  1.0326 -0.4248 -1.5505
  115OSM   C14F12006   6.112   5.543   5.297 -0.1306 -0.4019 -0.2672
  115OSM   H14F12007   6.173   5.465   5.246 -0.7833 -0.1297 -1.5185
  115OSM   H14G12008   6.135   5.646   5.264 -2.1751  0.2354  0.1287
  115OSM   C15F12009   5.984   5.513   5.209  0.4490 -0.1427 -0.8804
  115OSM   H15F12010   5.906   5.590   5.222 -0.2935 -0.8604 -1.0179
  115OSM   H15G12011   5.939   5.416   5.239 -0.3646  0.2697 -0.7520
  115OSM   C16F12012   6.007   5.499   5.059 -0.4098  0.0733  0.1010
  115OSM   H16F12013   6.086   5.424   5.039 -0.3536 -0.7673  3.0035
  115OSM   H16G12014   6.045   5.593   5.013 -0.2621 -0.1703 -0.2790
  115OSM   C17F12015   5.882   5.458   4.974 -0.5157  0.1568 -0.2581
  115OSM   H17F12016   5.802   5.534   4.985 -1.9340 -1.2927 -0.3390
  115OSM   H17G12017   5.850   5.361   5.016  0.1221  0.3741  0.7759
  115OSM   C18F12018   5.931   5.438   4.830  0.9138  0.2869  0.7593
  115OSM   H18F12019   6.016   5.370   4.806  1.0335  0.9510 -0.8443
  115OSM   H18G12020   5.958   5.533   4.779 -1.1482  0.4675 -0.0609
  115OSM   H18H12021   5.845   5.397   4.774  1.9634  0.1961 -0.8648
  116OSM      N12022   5.428   2.692   7.652 -0.4516  0.0936  0.8293
  116OSM    C1512023   5.404   2.549   7.672  0.5931 -0.3468 -0.6818
  116OSM   H15A12024   5.308   2.537   7.719  0.6278 -0.3151 -0.6030
  116OSM   H15B12025   5.480   2.517   7.742  0.0910  0.3792  0.2175
  116OSM   H15C12026   5.413   2.482   7.588  2.6537 -0.3831 -0.4895
  116OSM    C1412027   5.418   2.779   7.775 -0.2837 -0.4184  0.2171
  116OSM   H14A12028   5.445   2.879   7.744  1.6941 -0.9729 -0.0148
  116OSM   H14B12029   5.485   2.737   7.848  0.6636 -1.0533 -0.9731
  116OSM   H14C12030   5.316   2.786   7.810 -0.5381  0.0204 -0.5854
  116OSM    C1312031   5.572   2.698   7.612 -0.3551  0.4889  0.6166
  116OSM   H13A12032   5.593   2.801   7.585 -1.5323  0.6985  0.4288
  116OSM   H13B12033   5.598   2.635   7.528 -0.5863  3.0670 -1.5233
  116OSM   H13C12034   5.638   2.674   7.693 -0.0174  1.1869  0.5579
  116OSM    C1212035   5.344   2.746   7.540 -0.5335 -0.0710  0.2286
  116OSM   H12A12036   5.349   2.851   7.514  1.0181 -0.5218 -1.5552
  116OSM   H12B12037   5.243   2.741   7.576 -0.1648 -1.5386  1.1219
  116OSM    C1112038   5.353   2.672   7.402  0.6641 -0.7265 -0.1132
  116OSM   H11A12039   5.454   2.654   7.361  1.1559  0.1204  0.7054
  116OSM   H11B12040   5.319   2.746   7.327 -2.0807 -0.9779  0.7691
  116OSM      P12041   5.120   2.563   7.401 -0.1406 -0.0659  0.3780
  116OSM    O1312042   5.064   2.424   7.398 -0.2916 -0.2166 -0.1564
  116OSM    O1412043   5.065   2.649   7.505  0.1587 -0.3536 -0.1650
  116OSM    O1112044   5.108   2.631   7.251 -0.0452  0.0458 -0.1943
  116OSM    O1212045   5.277   2.549   7.408 -0.4987  0.0452 -0.4021
  116OSM    C1S12046   5.123   2.556   7.128  0.1965 -0.6402 -0.1081
  116OSM    H1S12047   5.092   2.451   7.147  0.1088 -0.6601 -0.3501
  116OSM    H1T12048   5.232   2.564   7.105 -0.3118  1.7722 -2.0802
  116OSM     NF12049   5.099   2.537   6.880  0.0216  0.4729  0.9479
  116OSM    HNF12050   5.169   2.589   6.831  0.7973 -0.4118  1.0814
  116OSM    C2S12051   5.055   2.615   6.999  0.4813 -0.3615 -0.5827
  116OSM    H2S12052   4.946   2.599   7.009  0.4591  1.1533  2.5478
  116OSM    C3S12053   5.085   2.766   6.992 -0.8426  0.5738 -0.2339
  116OSM    H3S12054   5.195   2.779   6.978 -0.7621  0.2111  0.0508
  116OSM     O312055   5.058   2.840   7.109 -0.7289  0.2513  0.7886
  116OSM    HO312056   5.064   2.770   7.174  1.2183 -0.4602 -0.0584
  116OSM    C4S12057   5.018   2.824   6.872 -0.5585  0.1557 -0.2683
  116OSM    H4S12058   5.074   2.826   6.778 -1.4953  1.0643 -0.8234
  116OSM    C5S12059   4.896   2.882   6.870 -0.0378  0.3335  0.3037
  116OSM    H5S12060   4.850   2.901   6.968  1.3051 -0.2623  1.0742
  116OSM    C6S12061   4.835   2.943   6.746  0.2539  0.4078 -0.0988
  116OSM    H6S12062   4.820   3.050   6.772 -1.6469  0.0918  0.1969
  116OSM    H6T12063   4.731   2.905   6.736  0.4879 -0.1376 -0.5214
  116OSM    C7S12064   4.907   2.932   6.609  1.0830  0.8836 -0.5759
  116OSM    H7S12065   4.921   2.823   6.593  0.4057  0.1115  3.0318
  116OSM    H7T12066   5.007   2.977   6.628  2.4513 -2.3336  0.6811
  116OSM    C8S12067   4.843   2.994   6.479  0.4518 -0.5794  0.3858
  116OSM    H8S12068   4.834   3.097   6.518 -0.0173 -0.5498  0.2067
  116OSM    H8T12069   4.751   2.933   6.469  0.2502 -0.3604  0.8633
  116OSM    C9S12070   4.944   2.981   6.358 -0.3170  0.0537 -0.0649
  116OSM    H9S12071   4.965   2.876   6.330 -1.6857 -0.0999 -0.6022
  116OSM    H9T12072   5.039   3.030   6.385  0.4127 -1.2223 -0.2458
  116OSM   C10S12073   4.893   3.054   6.233 -0.0622 -0.2375 -0.7435
  116OSM   H10S12074   4.876   3.160   6.264 -0.8061 -0.8095  0.9002
  116OSM   H10T12075   4.794   3.012   6.205  0.7098 -0.7328 -2.8725
  116OSM   C11S12076   4.987   3.037   6.119 -0.4498  0.1035 -0.7087
  116OSM   H11S12077   5.023   2.932   6.113 -0.5228  0.0967 -1.0481
  116OSM   H11T12078   5.071   3.096   6.162 -0.1370 -1.2034  0.5121
  116OSM   C12S12079   4.929   3.086   5.985  0.2212  0.2640  0.5246
  116OSM   H12S12080   5.014   3.063   5.918  0.0165 -0.7794  0.6112
  116OSM   H12T12081   4.907   3.195   5.995 -0.2173  0.1314  1.0250
  116OSM   C13S12082   4.792   3.025   5.943 -0.4813  0.1875 -0.4557
  116OSM   H13S12083   4.706   3.068   6.000 -0.1707  0.2971 -0.0622
  116OSM   H13T12084   4.800   2.915   5.959 -1.5392  0.0549 -0.7867
  116OSM   C14S12085   4.764   3.056   5.793 -0.0406 -0.0167 -0.3849
  116OSM   H14S12086   4.860   3.028   5.744  0.0441  0.5331 -0.5421
  116OSM   H14T12087   4.746   3.166   5.788  1.2736  0.2538  0.2870
  116OSM   C15S12088   4.661   2.977   5.716  1.1699 -1.0361  0.4778
  116OSM   H15S12089   4.576   2.984   5.788  1.8074  0.3867  1.1484
  116OSM   H15T12090   4.692   2.871   5.701  2.9230 -0.4648 -0.2117
  116OSM   C16S12091   4.612   3.039   5.587 -0.1955 -0.3396 -0.5849
  116OSM   H16S12092   4.604   3.149   5.604  0.6827 -0.3758  0.1193
  116OSM   H16T12093   4.511   2.999   5.566 -1.9167  3.1162  0.2350
  116OSM   C17S12094   4.713   3.029   5.466 -0.8108  0.0700  0.3829
  116OSM   H17S12095   4.764   2.930   5.476 -1.1369 -0.6343 -3.4888
  116OSM   H17T12096   4.794   3.105   5.474 -0.1669 -0.7750  3.5231
  116OSM   C18S12097   4.670   3.039   5.320 -0.1196  0.3905 -0.0384
  116OSM   H18S12098   4.600   2.960   5.286  0.2756  1.1159 -2.8086
  116OSM   H18T12099   4.764   3.023   5.263  0.2359 -1.4965  1.0050
  116OSM   H18U12100   4.620   3.135   5.296 -0.4583  0.1337 -0.3829
  116OSM    C1F12101   5.088   2.403   6.866  0.1944  0.0609 -1.0981
  116OSM     OF12102   5.008   2.345   6.942  0.3274  0.0776  0.0638
  116OSM    C2F12103   5.173   2.343   6.760  0.2874  0.0120 -0.1139
  116OSM    H2F12104   5.265   2.303   6.808 -0.4159 -0.0627  1.2265
  116OSM    H2G12105   5.204   2.418   6.685  2.1882 -0.8300 -0.2383
  116OSM    C3F12106   5.100   2.223   6.689 -0.0688 -0.1520  0.6387
  116OSM    H3F12107   5.008   2.269   6.647  1.4669 -0.5087 -3.5734
  116OSM    H3G12108   5.080   2.144   6.765 -0.5827  1.8184  2.6609
  116OSM    C4F12109   5.178   2.180   6.563  0.5480 -0.7550 -0.0717
  116OSM    H4F12110   5.135   2.084   6.527 -0.4277 -0.1493 -0.5424
  116OSM    H4G12111   5.283   2.161   6.593  0.1625 -2.6400  0.2267
  116OSM    C5F12112   5.183   2.292   6.448  0.0245 -0.0457  0.4642
  116OSM    H5F12113   5.237   2.382   6.486  2.0276 -0.8623 -0.2740
  116OSM    H5G12114   5.080   2.327   6.431  0.6425  3.7139  3.2325
  116OSM    C6F12115   5.258   2.241   6.318 -0.6749 -0.2938  0.0351
  116OSM    H6F12116   5.213   2.146   6.282 -2.6417  1.2444 -1.8083
  116OSM    H6G12117   5.361   2.226   6.357 -0.1784 -2.5528 -1.9408
  116OSM    C7F12118   5.264   2.349   6.208 -0.1892 -0.6942  0.2354
  116OSM    H7F12119   5.292   2.447   6.252  0.9739 -1.4365  1.2371
  116OSM    H7G12120   5.164   2.354   6.160 -0.1940 -2.6302 -0.0348
  116OSM    C8F12121   5.367   2.310   6.100  0.5841 -0.3900 -0.3274
  116OSM    H8F12122   5.343   2.204   6.077 -0.7013  0.0689 -1.2268
  116OSM    H8G12123   5.471   2.305   6.138  0.3462 -0.8808  0.2722
  116OSM    C9F12124   5.367   2.406   5.979  0.4777  0.1181  0.1259
  116OSM    H9F12125   5.269   2.444   5.946  0.5963 -0.2419 -0.6825
  116OSM   C10F12126   5.472   2.461   5.918 -0.9114  0.1117 -0.3530
  116OSM   H10F12127   5.453   2.522   5.829  0.5359  1.8827  0.4738
  116OSM   C11F12128   5.622   2.444   5.956  0.1330  0.1598  0.4893
  116OSM   H11F12129   5.637   2.357   6.022  0.7368  0.3851  0.6596
  116OSM   H11G12130   5.663   2.528   6.016 -0.7817  0.6507  0.4327
  116OSM   C12F12131   5.706   2.429   5.826 -0.4286 -0.0793 -0.0873
  116OSM   H12F12132   5.665   2.340   5.773  0.9717 -1.3442  0.8514
  116OSM   H12G12133   5.810   2.403   5.854 -0.6344  0.2370  1.0015
  116OSM   C13F12134   5.700   2.547   5.729  0.5772  0.0448  0.0001
  116OSM   H13F12135   5.746   2.640   5.769  1.3140 -0.0604 -0.5825
  116OSM   H13G12136   5.594   2.573   5.710 -0.1023 -1.1823  1.8015
  116OSM   C14F12137   5.753   2.514   5.593  0.0040  0.6751 -0.4386
  116OSM   H14F12138   5.677   2.450   5.543 -1.5322  2.5942 -0.6714
  116OSM   H14G12139   5.838   2.443   5.605 -2.5014 -2.1289  2.1059
  116OSM   C15F12140   5.793   2.630   5.505  0.2424  0.1863 -0.0957
  116OSM   H15F12141   5.709   2.701   5.492  0.2079  0.5648  1.9238
  116OSM   H15G12142   5.808   2.580   5.407 -1.5281  0.4448 -0.5401
  116OSM   C16F12143   5.925   2.699   5.552 -0.2089 -0.1822 -0.2672
  116OSM   H16F12144   6.000   2.623   5.522 -1.1675 -1.2970  0.1108
  116OSM   H16G12145   5.941   2.717   5.660  0.1330  2.7402 -0.7083
  116OSM   C17F12146   5.937   2.835   5.477 -0.0987 -0.1993 -0.2174
  116OSM   H17F12147   5.857   2.899   5.519 -2.1329 -2.3129 -0.6745
  116OSM   H17G12148   5.900   2.808   5.376  0.5216  0.9868 -0.7902
  116OSM   C18F12149   6.078   2.891   5.471 -0.0301 -0.3384  0.0607
  116OSM   H18F12150   6.086   2.962   5.386  1.4550  0.5077  0.8739
  116OSM   H18G12151   6.156   2.814   5.454  1.7649  1.6472 -1.1001
  116OSM   H18H12152   6.097   2.933   5.572 -0.7636  1.8336 -0.6477
  117OSM      N12153   3.596   6.543   7.359 -0.3120 -0.3723 -0.4905
  117OSM    C1512154   3.743   6.532   7.329 -1.0943  0.2850 -0.9220
  117OSM   H15A12155   3.762   6.565   7.228 -1.4266  0.4630 -0.9244
  117OSM   H15B12156   3.776   6.430   7.345  1.1295  1.3021  1.8336
  117OSM   H15C12157   3.810   6.592   7.389  1.2537 -1.1046 -1.9770
  117OSM    C1412158   3.564   6.497   7.498 -0.2071 -0.4635  0.0562
  117OSM   H14A12159   3.457   6.508   7.514 -0.0260  1.1700  0.2701
  117OSM   H14B12160   3.615   6.557   7.572 -1.2959  1.1575 -0.4590
  117OSM   H14C12161   3.598   6.396   7.514  2.3786  0.4605  0.8509
  117OSM    C1312162   3.558   6.683   7.371  0.4055  0.4612 -0.1006
  117OSM   H13A12163   3.453   6.692   7.394  0.1328 -1.0901 -0.6472
  117OSM   H13B12164   3.573   6.742   7.281  1.1122  0.2197 -0.1440
  117OSM   H13C12165   3.609   6.736   7.451  0.4117 -1.2797  1.0942
  117OSM    C1212166   3.518   6.460   7.261  0.5139 -0.1275  0.5014
  117OSM   H12A12167   3.413   6.473   7.282  1.0818  1.5077  2.7040
  117OSM   H12B12168   3.551   6.357   7.268  3.2583  0.6279 -0.1089
  117OSM    C1112169   3.534   6.503   7.114 -0.1405 -0.5343  0.2643
  117OSM   H11A12170   3.520   6.613   7.117  3.2621 -0.0192  1.7271
  117OSM   H11B12171   3.450   6.451   7.062  0.7488 -1.1664 -0.5766
  117OSM      P12172   3.697   6.310   7.020  0.3016  0.1929  0.1469
  117OSM    O1312173   3.818   6.318   6.940 -0.1878 -0.3782  0.3764
  117OSM    O1412174   3.706   6.243   7.150 -0.8970 -0.1933  0.7338
  117OSM    O1112175   3.580   6.255   6.933  0.9655  0.0635  0.0627
  117OSM    O1212176   3.656   6.464   7.048 -0.1980  0.3472  0.0635
  117OSM    C1S12177   3.551   6.295   6.797 -0.0943  0.0399 -0.7764
  117OSM    H1S12178   3.631   6.255   6.731  0.9908 -0.7696  0.9508
  117OSM    H1T12179   3.560   6.405   6.786 -0.3230  0.2979  1.2220
  117OSM     NF12180   3.401   6.269   6.599 -0.7900 -0.5471  0.0098
  117OSM    HNF12181   3.352   6.351   6.569  1.2542  0.1667 -1.5994
  117OSM    C2S12182   3.410   6.249   6.743 -0.0339 -1.1312 -0.3494
  117OSM    H2S12183   3.406   6.140   6.764 -0.8266 -0.6292  2.4577
  117OSM    C3S12184   3.295   6.312   6.840 -0.5252 -0.0937  0.3615
  117OSM    H3S12185   3.315   6.420   6.861 -0.5560 -0.0434  0.1318
  117OSM     O312186   3.296   6.252   6.974 -0.1316 -0.4108  0.1435
  117OSM    HO312187   3.388   6.238   6.994 -0.2878  1.4837  2.7999
  117OSM    C4S12188   3.159   6.290   6.776  0.5179  0.4638 -0.2954
  117OSM    H4S12189   3.132   6.183   6.782  1.7434  0.2401  3.5546
  117OSM    C5S12190   3.075   6.374   6.718 -0.3761  0.2631  0.2039
  117OSM    H5S12191   3.099   6.480   6.701 -0.9329  0.3968  0.2223
  117OSM    C6S12192   2.955   6.331   6.644 -0.1731  0.2814  0.7774
  117OSM    H6S12193   2.879   6.412   6.638  0.0019  0.5203  1.6565
  117OSM    H6T12194   2.904   6.260   6.712  0.2502 -0.8616 -0.0748
  117OSM    C7S12195   2.970   6.258   6.510  0.5823  0.0241  0.2572
  117OSM    H7S12196   2.870   6.220   6.481  0.8068  0.5359 -1.2418
  117OSM    H7T12197   3.042   6.174   6.514 -1.1616 -1.6155 -1.0263
  117OSM    C8S12198   3.011   6.355   6.394  0.8115  0.5542 -0.0847
  117OSM    H8S12199   3.117   6.384   6.412  1.3548 -0.6624 -1.1905
  117OSM    H8T12200   2.953   6.450   6.399  0.5374  0.3973 -0.2283
  117OSM    C9S12201   3.009   6.279   6.261 -0.4682 -0.1410  0.3408
  117OSM    H9S12202   2.907   6.278   6.219 -0.9677  0.6041  1.4867
  117OSM    H9T12203   3.037   6.172   6.272  0.0306 -0.1748 -1.0168
  117OSM   C10S12204   3.126   6.343   6.177  0.0634 -0.1163  0.3074
  117OSM   H10S12205   3.220   6.348   6.235  0.0330  1.3811  0.2620
  117OSM   H10T12206   3.098   6.449   6.156 -0.6944 -0.2468  0.6132
  117OSM   C11S12207   3.160   6.282   6.038  0.3456  0.0402  0.9115
  117OSM   H11S12208   3.189   6.175   6.050  0.9001  0.1697  0.7277
  117OSM   H11T12209   3.241   6.338   5.987  0.5773  0.0210  1.2573
  117OSM   C12S12210   3.023   6.271   5.960  0.1319 -0.2113  0.3911
  117OSM   H12S12211   2.976   6.370   5.977  1.4049  0.3808  0.5982
  117OSM   H12T12212   2.959   6.191   6.002  0.0293  0.4125  1.4669
  117OSM   C13S12213   3.045   6.253   5.809  0.0930 -0.1115  0.3295
  117OSM   H13S12214   3.099   6.158   5.788 -2.6718 -1.6828 -0.1833
  117OSM   H13T12215   3.115   6.335   5.781  0.4126 -0.3234  0.4994
  117OSM   C14S12216   2.918   6.259   5.733  0.9737 -0.3890  0.1867
  117OSM   H14S12217   2.928   6.351   5.672  2.4504 -0.3056  0.5257
  117OSM   H14T12218   2.836   6.275   5.807  1.3016 -0.2986  0.5299
  117OSM   C15S12219   2.873   6.148   5.631 -0.5663 -0.7842 -0.1302
  117OSM   H15S12220   2.785   6.184   5.573  0.1757 -1.0974 -1.4972
  117OSM   H15T12221   2.845   6.058   5.689  1.2435 -1.2998 -0.0101
  117OSM   C16S12222   2.981   6.098   5.534  0.2241 -0.8493  0.0775
  117OSM   H16S12223   3.057   6.043   5.593 -0.7813 -2.3523  0.0246
  117OSM   H16T12224   3.036   6.176   5.478  0.4204 -2.0666 -1.5205
  117OSM   C17S12225   2.937   5.999   5.424  0.1643 -0.2594 -0.3218
  117OSM   H17S12226   2.856   6.051   5.368  0.5947 -1.1290 -1.8129
  117OSM   H17T12227   2.887   5.920   5.484 -1.3806 -0.4640 -1.8103
  117OSM   C18S12228   3.050   5.943   5.345 -0.2206  0.0292 -0.7610
  117OSM   H18S12229   3.117   6.016   5.295 -0.0784 -1.5212 -3.0177
  117OSM   H18T12230   3.020   5.874   5.263 -0.8896 -1.1530  0.4490
  117OSM   H18U12231   3.110   5.877   5.411 -0.7863  1.6041  1.4349
  117OSM    C1F12232   3.481   6.199   6.509 -1.0198  0.3511  0.5803
  117OSM     OF12233   3.563   6.108   6.541  0.2403 -0.6199 -0.6221
  117OSM    C2F12234   3.453   6.232   6.361  0.0938 -0.0349 -0.5543
  117OSM    H2F12235   3.518   6.318   6.335 -2.2199  2.0298  0.1312
  117OSM    H2G12236   3.344   6.249   6.348 -0.3380 -1.1823  1.1667
  117OSM    C3F12237   3.481   6.114   6.273 -0.2336 -0.1140  0.8854
  117OSM    H3F12238   3.398   6.039   6.270  1.1595 -1.6969 -0.4249
  117OSM    H3G12239   3.578   6.065   6.293 -0.0722  0.1401  0.7338
  117OSM    C4F12240   3.498   6.174   6.130  0.1392  0.3439  0.7993
  117OSM    H4F12241   3.598   6.218   6.107 -1.3291  3.0652 -0.9583
  117OSM    H4G12242   3.440   6.265   6.105  0.7967  0.4261 -0.5387
  117OSM    C5F12243   3.467   6.071   6.017 -0.6249  0.2540 -0.7517
  117OSM    H5F12244   3.365   6.031   6.034  0.2517 -0.9813  2.5653
  117OSM    H5G12245   3.523   5.976   6.036 -2.0028 -0.6586 -1.1059
  117OSM    C6F12246   3.485   6.119   5.876  0.2694 -0.1561  0.0200
  117OSM    H6F12247   3.572   6.185   5.854 -0.3251  0.6913  0.1587
  117OSM    H6G12248   3.391   6.169   5.845  0.9706  1.2688  0.1179
  117OSM    C7F12249   3.483   6.006   5.782 -0.0420 -0.2215  0.6619
  117OSM    H7F12250   3.385   5.954   5.778  0.0643 -0.4068  0.4507
  117OSM    H7G12251   3.559   5.928   5.803 -1.4983 -2.1571 -0.9110
  117OSM    C8F12252   3.514   6.050   5.633  0.8833  0.7976  0.3685
  117OSM    H8F12253   3.523   5.954   5.577  1.8754  0.7380  0.6153
  117OSM    H8G12254   3.615   6.095   5.629  0.5929  1.4300 -3.3440
  117OSM    C9F12255   3.422   6.140   5.555  0.8410 -0.0183 -0.1607
  117OSM    H9F12256   3.341   6.184   5.615 -0.2974  1.9982 -2.9254
  117OSM   C10F12257   3.408   6.125   5.423  0.0998  0.2571 -0.1268
  117OSM   H10F12258   3.332   6.183   5.368  0.0425  0.2104 -0.0960
  117OSM   C11F12259   3.512   6.047   5.340  0.0122  0.2173  0.2370
  117OSM   H11F12260   3.598   6.014   5.402  0.3062 -0.9829 -0.7762
  117OSM   H11G12261   3.556   6.105   5.256  0.5596 -2.4679 -1.4757
  117OSM   C12F12262   3.459   5.911   5.301  0.1635 -0.0433 -0.0694
  117OSM   H12F12263   3.401   5.915   5.206  1.0830  1.2586 -0.6051
  117OSM   H12G12264   3.404   5.855   5.379 -0.1052 -2.5438 -1.9107
  117OSM   C13F12265   3.577   5.816   5.257  0.4201 -0.1342  0.4605
  117OSM   H13F12266   3.527   5.724   5.220  2.2129 -0.9357 -0.0888
  117OSM   H13G12267   3.648   5.797   5.340  1.2365 -1.3041 -0.4765
  117OSM   C14F12268   3.661   5.860   5.139 -0.4885 -0.2801 -0.6510
  117OSM   H14F12269   3.734   5.786   5.098 -0.4057  0.2600 -1.4999
  117OSM   H14G12270   3.724   5.948   5.164 -1.0292  0.0852 -0.5544
  117OSM   C15F12271   3.586   5.904   5.016 -0.1914  0.3036  1.1518
  117OSM   H15F12272   3.521   5.991   5.041  0.8640  0.5731  3.0731
  117OSM   H15G12273   3.515   5.827   4.978  2.4067 -1.2088 -1.0203
  117OSM   C16F12274   3.683   5.934   4.895 -0.2658  0.3551  0.5775
  117OSM   H16F12275   3.635   5.892   4.803 -1.4001 -0.6111  1.5637
  117OSM   H16G12276   3.775   5.874   4.905  0.4421  1.2876 -0.1551
  117OSM   C17F12277   3.720   6.082   4.866 -0.6240  0.5169  0.1809
  117OSM   H17F12278   3.775   6.111   4.958  1.3215 -1.6163 -0.2187
  117OSM   H17G12279   3.624   6.137   4.852 -0.9684  0.4416  2.0177
  117OSM   C18F12280   3.811   6.094   4.743 -0.2031 -0.6033 -0.5172
  117OSM   H18F12281   3.840   6.195   4.705  0.6681 -0.2736  0.9405
  117OSM   H18G12282   3.778   6.040   4.652  0.4394 -0.5125 -0.8134
  117OSM   H18H12283   3.901   6.033   4.766 -1.4506 -2.6637 -0.8851
  118OSM      N12284   2.855   4.905   7.349 -0.0765 -0.2311  0.4249
  118OSM    C1512285   2.962   4.961   7.432 -0.3599  0.0307  0.5611
  118OSM   H15A12286   3.017   4.880   7.478 -2.3919 -0.5581  2.0929
  118OSM   H15B12287   2.930   5.027   7.512  0.7432 -0.0995  1.1350
  118OSM   H15C12288   3.019   5.027   7.369 -1.2553  0.6045  0.3431
  118OSM    C1412289   2.784   4.803   7.434  0.6740  0.0232 -0.3515
  118OSM   H14A12290   2.844   4.738   7.496 -2.3409 -1.0967  1.6147
  118OSM   H14B12291   2.744   4.738   7.358  0.2267 -3.1762  2.4024
  118OSM   H14C12292   2.703   4.848   7.490  0.8799  0.2161 -0.2092
  118OSM    C1312293   2.764   5.012   7.294 -0.0179 -1.1103 -1.4234
  118OSM   H13A12294   2.745   5.087   7.369  2.4894 -2.5055  0.7983
  118OSM   H13B12295   2.672   4.969   7.257 -0.3093  0.9770 -3.3005
  118OSM   H13C12296   2.814   5.073   7.221 -1.1600  4.4530  1.8130
  118OSM    C1212297   2.933   4.844   7.237 -0.6561  0.0950  0.1535
  118OSM   H12A12298   3.013   4.786   7.282 -0.3249  0.6215  0.2478
  118OSM   H12B12299   2.976   4.929   7.186  2.9804 -0.1733  2.3812
  118OSM    C1112300   2.857   4.752   7.130  0.5490 -1.0038 -0.1199
  118OSM   H11A12301   2.921   4.714   7.047 -0.5085 -0.6528 -1.1186
  118OSM   H11B12302   2.784   4.817   7.078  0.1613 -2.2907 -1.2378
  118OSM      P12303   2.830   4.509   7.185  0.0750  0.0081  0.1626
  118OSM    O1312304   2.968   4.520   7.235  0.2654 -0.6740 -0.1302
  118OSM    O1412305   2.737   4.426   7.264  0.2477  0.2533  0.2192
  118OSM    O1112306   2.830   4.466   7.039 -0.1493 -0.5154 -0.0556
  118OSM    O1212307   2.779   4.653   7.190 -0.0689 -0.5130  0.4604
  118OSM    C1S12308   2.724   4.485   6.945  0.0818  0.3743 -0.1229
  118OSM    H1S12309   2.705   4.592   6.925  0.8568  1.2094  3.1087
  118OSM    H1T12310   2.626   4.453   6.987  0.8040 -1.1437  0.4879
  118OSM     NF12311   2.620   4.426   6.720 -0.3104  0.2283  0.4606
  118OSM    HNF12312   2.558   4.348   6.718  0.4327 -0.4133  1.6608
  118OSM    C2S12313   2.734   4.402   6.816 -0.2077 -0.2413  0.0889
  118OSM    H2S12314   2.822   4.453   6.772  0.2253 -1.1109 -0.0852
  118OSM    C3S12315   2.769   4.253   6.833 -0.9116 -0.3116  0.0419
  118OSM    H3S12316   2.677   4.209   6.877 -2.1250  1.8167 -0.2062
  118OSM     O312317   2.863   4.234   6.940  0.2546  0.0227  0.0657
  118OSM    HO312318   2.874   4.316   6.988 -1.2577 -0.9144  2.1430
  118OSM    C4S12319   2.811   4.185   6.709 -0.5119 -0.2412  0.6852
  118OSM    H4S12320   2.728   4.175   6.638  0.0039 -1.9141  0.2627
  118OSM    C5S12321   2.937   4.151   6.681 -0.4225 -0.3418  0.1768
  118OSM    H5S12322   3.018   4.172   6.752  0.6514 -2.4497 -0.3514
  118OSM    C6S12323   2.980   4.101   6.545  0.1419  0.4051  0.1951
  118OSM    H6S12324   3.037   4.006   6.555 -2.0013 -0.8308  1.4822
  118OSM    H6T12325   3.049   4.174   6.499 -1.2319  1.3537 -0.4402
  118OSM    C7S12326   2.877   4.056   6.438 -0.0139 -0.2772  0.1098
  118OSM    H7S12327   2.817   4.142   6.400 -0.2130 -0.8461 -0.9265
  118OSM    H7T12328   2.802   3.984   6.477 -1.6742 -0.5360 -3.1792
  118OSM    C8S12329   2.953   4.007   6.314  0.0946  1.2055  0.5728
  118OSM    H8S12330   2.999   3.908   6.337  3.3795  2.2398 -0.9954
  118OSM    H8T12331   3.037   4.078   6.301  2.1805 -1.0994  0.6502
  118OSM    C9S12332   2.873   3.998   6.179  0.1182  0.4070 -0.5096
  118OSM    H9S12333   2.832   4.099   6.158 -1.2788 -0.1338 -0.5021
  118OSM    H9T12334   2.783   3.934   6.191  0.1664  0.7093  2.0794
  118OSM   C10S12335   2.960   3.954   6.065 -0.1457  0.3591  0.4826
  118OSM   H10S12336   3.007   3.856   6.088  0.1144 -0.0177 -1.4684
  118OSM   H10T12337   3.038   4.027   6.036  0.1569 -0.1707 -0.0590
  118OSM   C11S12338   2.877   3.926   5.937  0.0568 -0.0512  0.8863
  118OSM   H11S12339   2.837   4.020   5.894 -1.3634 -1.5083 -1.2214
  118OSM   H11T12340   2.787   3.865   5.963 -1.3898  0.2664 -2.7304
  118OSM   C12S12341   2.957   3.852   5.822 -0.3910 -0.8017  0.4856
  118OSM   H12S12342   2.995   3.758   5.868  3.0818  0.4641  0.5074
  118OSM   H12T12343   3.051   3.907   5.801 -0.5937 -1.0881 -1.3847
  118OSM   C13S12344   2.890   3.826   5.690 -0.3211  0.2508  0.5453
  118OSM   H13S12345   2.878   3.921   5.633 -0.9885  0.2645  0.6937
  118OSM   H13T12346   2.786   3.791   5.712 -0.0262 -0.8230  0.2973
  118OSM   C14S12347   2.972   3.727   5.608 -1.0584  0.4438  0.1755
  118OSM   H14S12348   3.006   3.633   5.655 -2.6934 -0.1876  0.1841
  118OSM   H14T12349   3.073   3.772   5.605  0.0529 -1.8983 -0.0959
  118OSM   C15S12350   2.912   3.705   5.466  0.3903 -0.5503 -0.1474
  118OSM   H15S12351   2.804   3.680   5.452 -0.6199  2.3941  1.5417
  118OSM   H15T12352   2.964   3.611   5.437  1.3134 -0.1429  0.1746
  118OSM   C16S12353   2.949   3.822   5.369  0.3354  0.3187 -0.3185
  118OSM   H16S12354   3.054   3.854   5.387  0.4150 -0.1221 -0.0079
  118OSM   H16T12355   2.877   3.907   5.369  0.8998  0.8563  1.8874
  118OSM   C17S12356   2.958   3.769   5.219 -0.3466  0.7271  0.0877
  118OSM   H17S12357   2.857   3.741   5.184  0.8381 -1.9633 -1.4256
  118OSM   H17T12358   3.019   3.676   5.220 -0.9980  0.2923 -0.2998
  118OSM   C18S12359   3.031   3.863   5.124  0.3394 -0.0727  0.2425
  118OSM   H18S12360   3.131   3.891   5.166 -0.2317  0.7932  1.0736
  118OSM   H18T12361   2.978   3.959   5.106  1.8371  1.1816  2.0580
  118OSM   H18U12362   3.051   3.807   5.030 -0.4700 -0.0168  0.0360
  118OSM    C1F12363   2.590   4.545   6.672 -0.5372  0.0834 -0.0930
  118OSM     OF12364   2.667   4.643   6.682  0.2099 -0.5517  0.3751
  118OSM    C2F12365   2.451   4.565   6.603 -0.5690  0.1645 -0.4850
  118OSM    H2F12366   2.403   4.637   6.672 -0.0820 -1.5132  1.7364
  118OSM    H2G12367   2.391   4.473   6.623 -0.5990 -0.3167 -2.5602
  118OSM    C3F12368   2.451   4.607   6.449 -0.3730 -0.3769 -0.2437
  118OSM    H3F12369   2.483   4.521   6.385  1.2649  1.8712 -2.6566
  118OSM    H3G12370   2.526   4.688   6.439 -1.4599  0.5269 -1.6204
  118OSM    C4F12371   2.313   4.663   6.401 -0.1703 -0.0101 -0.6696
  118OSM    H4F12372   2.288   4.749   6.467 -0.0135  1.5834 -2.5879
  118OSM    H4G12373   2.226   4.594   6.403 -0.8554  0.7912 -1.7872
  118OSM    C5F12374   2.310   4.704   6.253 -0.1896 -0.1626 -0.2144
  118OSM    H5F12375   2.369   4.797   6.239 -0.8438  0.0271 -2.0738
  118OSM    H5G12376   2.207   4.742   6.238  0.0353  1.1532  1.3277
  118OSM    C6F12377   2.347   4.604   6.145  0.4941  1.0373  0.5701
  118OSM    H6F12378   2.338   4.500   6.182  0.7181  0.3849 -1.1259
  118OSM    H6G12379   2.455   4.606   6.120  1.0916  2.2482  2.9364
  118OSM    C7F12380   2.254   4.612   6.027 -0.1818 -0.1796 -0.6070
  118OSM    H7F12381   2.284   4.700   5.966  0.0907  0.4430  0.3993
  118OSM    H7G12382   2.149   4.617   6.063  0.4296 -1.0197  1.4722
  118OSM    C8F12383   2.254   4.481   5.945  0.0742 -0.1498 -0.3928
  118OSM    H8F12384   2.154   4.479   5.895  0.0165 -0.4921 -0.2664
  118OSM    H8G12385   2.264   4.405   6.024 -0.7758  0.4458  0.3095
  118OSM    C9F12386   2.367   4.479   5.841 -0.1121 -0.0415  0.1344
  118OSM    H9F12387   2.459   4.439   5.885  0.5967 -0.7246 -1.8756
  118OSM   C10F12388   2.346   4.500   5.708 -0.6524 -0.4144  0.5868
  118OSM   H10F12389   2.429   4.492   5.636 -0.5302  2.8652  0.1881
  118OSM   C11F12390   2.221   4.561   5.654  0.0815 -0.4470 -0.5804
  118OSM   H11F12391   2.159   4.600   5.738  0.5721 -2.1135  0.6124
  118OSM   H11G12392   2.160   4.482   5.607 -2.9171  1.4097 -0.0891
  118OSM   C12F12393   2.241   4.677   5.557  0.0919  0.6059  0.2558
  118OSM   H12F12394   2.299   4.632   5.474 -0.4626 -1.1435  0.7825
  118OSM   H12G12395   2.304   4.758   5.600  1.3412 -0.0739 -0.2598
  118OSM   C13F12396   2.107   4.737   5.500 -0.0073  0.2762  0.2366
  118OSM   H13F12397   2.061   4.800   5.579  0.7270  1.8768 -0.5637
  118OSM   H13G12398   2.029   4.658   5.492 -0.3160  0.4726  1.1487
  118OSM   C14F12399   2.128   4.820   5.377  0.3748 -0.1806 -0.2285
  118OSM   H14F12400   2.195   4.765   5.307  0.4953  0.7060 -0.8341
  118OSM   H14G12401   2.189   4.908   5.406 -0.5425  0.8275 -1.2332
  118OSM   C15F12402   2.008   4.873   5.306  0.1233  0.5386 -0.1327
  118OSM   H15F12403   1.944   4.787   5.279  3.1035 -1.8955  0.0908
  118OSM   H15G12404   2.049   4.921   5.215 -0.8639  0.7986 -0.4549
  118OSM   C16F12405   1.922   4.971   5.392  0.2510 -0.4254 -0.2270
  118OSM   H16F12406   1.992   5.053   5.420  1.2287 -1.0690 -0.7353
  118OSM   H16G12407   1.876   4.922   5.481 -1.0083  2.3763  0.7967
  118OSM   C17F12408   1.813   5.025   5.290  0.3063  0.1494 -0.3095
  118OSM   H17F12409   1.733   4.950   5.272  2.0793 -1.7483 -0.5078
  118OSM   H17G12410   1.868   5.043   5.196 -0.2877 -0.4736 -0.7820
  118OSM   C18F12411   1.748   5.154   5.335  0.2639 -0.1780  0.2382
  118OSM   H18F12412   1.823   5.234   5.353 -1.1427  0.9538  1.2937
  118OSM   H18G12413   1.689   5.137   5.428 -1.0533  0.2104 -0.5184
  118OSM   H18H12414   1.672   5.191   5.264 -0.1158 -0.7515  0.3326
  119OSM      N12415   4.192   1.245   6.994 -0.1958 -0.0297  0.1279
  119OSM    C1512416   4.112   1.369   6.985  0.6151 -0.1079 -0.2201
  119OSM   H15A12417   4.121   1.421   6.891  3.0347  1.6098  0.8445
  119OSM   H15B12418   4.138   1.435   7.067 -0.4432 -1.7524  1.5262
  119OSM   H15C12419   4.006   1.350   6.989  0.3768  0.2126 -2.9822
  119OSM    C1412420   4.337   1.290   6.993 -0.1482 -0.9384  0.0913
  119OSM   H14A12421   4.410   1.214   6.967  1.5438  0.6278  0.0746
  119OSM   H14B12422   4.368   1.328   7.089 -0.1004 -0.6842 -0.0237
  119OSM   H14C12423   4.349   1.370   6.922  0.0255 -0.6895  0.3985
  119OSM    C1312424   4.166   1.176   7.121 -0.7202  0.1278 -0.3624
  119OSM   H13A12425   4.192   1.243   7.202  1.3892 -0.2499 -0.6675
  119OSM   H13B12426   4.211   1.078   7.125 -2.8331 -0.8649  1.1771
  119OSM   H13C12427   4.061   1.151   7.132 -0.4770 -1.2056 -0.8744
  119OSM    C1212428   4.160   1.159   6.870  0.6218  1.0262  0.9192
  119OSM   H12A12429   4.176   1.223   6.784 -2.9406  0.7248 -0.1134
  119OSM   H12B12430   4.054   1.137   6.872  1.1708 -2.1435  0.4534
  119OSM    C1112431   4.230   1.016   6.855 -0.1906 -0.2757 -0.3588
  119OSM   H11A12432   4.339   1.038   6.867 -0.0411 -0.5043 -1.2707
  119OSM   H11B12433   4.224   0.985   6.749 -0.1410 -0.5990 -0.2681
  119OSM      P12434   4.043   0.853   6.944 -0.3097  0.0239  0.1033
  119OSM    O1312435   4.000   0.793   7.075 -0.0890 -0.1653 -0.0834
  119OSM    O1412436   3.946   0.951   6.891 -0.0558  0.1037 -0.2146
  119OSM    O1112437   4.058   0.735   6.843  0.3785 -0.5205 -0.8937
  119OSM    O1212438   4.189   0.918   6.955  0.1087  0.5918  0.3989
  119OSM    C1S12439   4.184   0.669   6.835  0.4822  0.0552  0.8329
  119OSM    H1S12440   4.178   0.581   6.903 -0.2784 -2.1504 -1.8950
  119OSM    H1T12441   4.273   0.730   6.861 -2.2391  4.4367  0.8753
  119OSM     NF12442   4.339   0.543   6.679 -0.2756 -0.1948  0.0544
  119OSM    HNF12443   4.413   0.607   6.661  0.0547 -0.3673  0.7334
  119OSM    C2S12444   4.213   0.617   6.692  0.2642  0.4424 -0.0083
  119OSM    H2S12445   4.130   0.546   6.674  0.6701 -0.2985  0.9558
  119OSM    C3S12446   4.214   0.733   6.587 -0.5957  0.1896 -0.5368
  119OSM    H3S12447   4.306   0.792   6.605 -0.6255  0.2562 -0.6011
  119OSM     O312448   4.106   0.822   6.600  0.5700 -0.1411  0.3472
  119OSM    HO312449   4.065   0.785   6.679  2.0533 -0.2029  1.1189
  119OSM    C4S12450   4.215   0.681   6.452  0.2784  0.4855  0.2853
  119OSM    H4S12451   4.119   0.673   6.400 -0.1370 -1.3912  1.2722
  119OSM    C5S12452   4.331   0.658   6.381 -0.0253 -0.3892 -0.0686
  119OSM    H5S12453   4.433   0.668   6.422  0.6788 -0.7711 -1.6394
  119OSM    C6S12454   4.331   0.610   6.238 -0.0078 -0.3589  1.2878
  119OSM    H6S12455   4.407   0.530   6.230  0.6020  0.3335 -0.1030
  119OSM    H6T12456   4.358   0.693   6.170 -0.9696 -1.0506  0.0196
  119OSM    C7S12457   4.194   0.552   6.185  0.2340 -0.4334  0.3928
  119OSM    H7S12458   4.114   0.627   6.200 -1.6150 -2.3350  0.5210
  119OSM    H7T12459   4.165   0.465   6.248 -3.8222  1.3745  1.3535
  119OSM    C8S12460   4.207   0.505   6.043  0.6624  0.1736  0.1377
  119OSM    H8S12461   4.130   0.426   6.031  1.2747 -0.4711  0.3573
  119OSM    H8T12462   4.309   0.463   6.037  0.6640  0.1212  0.4885
  119OSM    C9S12463   4.179   0.596   5.935  0.1910 -0.0574  0.4174
  119OSM    H9S12464   4.258   0.673   5.950 -0.6654  0.6012  1.7536
  119OSM    H9T12465   4.086   0.655   5.947  0.2108 -0.3247  2.1817
  119OSM   C10S12466   4.184   0.535   5.799  0.1373 -0.3047  0.5493
  119OSM   H10S12467   4.081   0.502   5.773 -0.9083  1.3194  2.3204
  119OSM   H10T12468   4.260   0.454   5.805 -0.1947 -0.5751  1.3961
  119OSM   C11S12469   4.229   0.638   5.686  0.2707  0.4162  0.5227
  119OSM   H11S12470   4.329   0.673   5.721  0.3813  1.2716 -0.5973
  119OSM   H11T12471   4.169   0.731   5.681  0.6683  0.7021  0.9463
  119OSM   C12S12472   4.223   0.571   5.541 -0.1629  0.0725  0.1378
  119OSM   H12S12473   4.138   0.499   5.540 -0.3857  0.3323 -0.2442
  119OSM   H12T12474   4.311   0.504   5.544 -0.3250 -0.1203  0.5219
  119OSM   C13S12475   4.215   0.666   5.420 -0.6191 -0.0403 -0.5308
  119OSM   H13S12476   4.274   0.751   5.459 -3.2271  1.1908  0.9585
  119OSM   H13T12477   4.114   0.709   5.403 -0.3787  1.7756  2.1190
  119OSM   C14S12478   4.286   0.630   5.291  0.0182  0.6528 -0.1900
  119OSM   H14S12479   4.381   0.583   5.320  0.0840  1.5606  1.1281
  119OSM   H14T12480   4.305   0.729   5.244 -1.3188  1.6361  1.2478
  119OSM   C15S12481   4.207   0.539   5.194 -0.1193 -0.1071 -0.3558
  119OSM   H15S12482   4.118   0.597   5.161 -0.4086 -0.4817 -0.2440
  119OSM   H15T12483   4.173   0.461   5.266  1.8166 -1.4603 -0.8183
  119OSM   C16S12484   4.292   0.490   5.080 -0.0391  0.0385 -0.3958
  119OSM   H16S12485   4.380   0.436   5.122 -0.4059  0.1927  0.6110
  119OSM   H16T12486   4.333   0.584   5.037 -0.0486  0.4136  0.3891
  119OSM   C17S12487   4.203   0.410   4.993  0.6734  0.4045  0.3552
  119OSM   H17S12488   4.113   0.468   4.964  0.6928 -0.2620 -1.1575
  119OSM   H17T12489   4.167   0.311   5.030 -2.1256  1.7459  1.4728
  119OSM   C18S12490   4.268   0.381   4.858 -0.6269 -0.4126  0.6393
  119OSM   H18S12491   4.191   0.367   4.779  0.4337  0.1611 -0.5401
  119OSM   H18T12492   4.343   0.299   4.853  1.1244  0.9333  2.8543
  119OSM   H18U12493   4.323   0.472   4.825 -1.2852  0.1052  0.9464
  119OSM    C1F12494   4.371   0.427   6.726  0.0146  0.2205  0.2801
  119OSM     OF12495   4.285   0.352   6.772 -0.2324 -0.6061 -0.9906
  119OSM    C2F12496   4.512   0.381   6.739  0.0161 -1.1762 -1.0480
  119OSM    H2F12497   4.521   0.327   6.836  4.4962  2.4240  0.9294
  119OSM    H2G12498   4.576   0.472   6.736  0.8052 -1.7360 -1.1714
  119OSM    C3F12499   4.545   0.277   6.626  0.0430 -0.0632 -0.9720
  119OSM    H3F12500   4.511   0.179   6.664 -1.0283  0.6022 -0.1283
  119OSM    H3G12501   4.656   0.285   6.625 -0.0747  3.2809 -1.0692
  119OSM    C4F12502   4.478   0.303   6.483  0.8587  0.3436 -0.4166
  119OSM    H4F12503   4.500   0.405   6.443  0.3438 -0.4147 -2.8197
  119OSM    H4G12504   4.369   0.292   6.496  0.9042 -0.1347 -0.4278
  119OSM    C5F12505   4.542   0.211   6.377 -0.6415 -0.5229  0.5056
  119OSM    H5F12506   4.556   0.105   6.405  0.6980 -0.3793  0.4635
  119OSM    H5G12507   4.648   0.241   6.364 -1.2852  2.1652  0.7387
  119OSM    C6F12508   4.470   0.224   6.248  0.1130 -0.1712 -0.2042
  119OSM    H6F12509   4.470   0.329   6.212  0.6428  0.3394  1.2347
  119OSM    H6G12510   4.361   0.203   6.258  0.2595  0.2014  2.9976
  119OSM    C7F12511   4.531   0.136   6.142 -0.3540 -0.3222 -0.0591
  119OSM    H7F12512   4.536   0.030   6.176 -0.4888 -0.2187  0.2902
  119OSM    H7G12513   4.636   0.174   6.142 -0.2534 -0.5465 -1.7677
  119OSM    C8F12514   4.467   0.168   6.011 -0.1895  0.1471 -0.5096
  119OSM    H8F12515   4.473   0.279   6.006 -1.7315  0.4153  1.9521
  119OSM    H8G12516   4.357   0.158   6.023 -0.4382  3.4449  1.0460
  119OSM    C9F12517   4.513   0.101   5.887  0.2368  0.1537 -0.2269
  119OSM    H9F12518   4.621   0.079   5.882  0.6598  1.9021  0.1559
  119OSM   C10F12519   4.433   0.065   5.785 -0.2034  0.3651 -0.1896
  119OSM   H10F12520   4.483   0.011   5.703  0.2336  0.1976  0.1801
  119OSM   C11F12521   4.297   0.121   5.754 -0.1935 -0.4926 -0.1166
  119OSM   H11F12522   4.241   0.156   5.844 -0.9967  0.1982 -0.8674
  119OSM   H11G12523   4.230   0.051   5.701  1.2927 -1.1878 -1.1328
  119OSM   C12F12524   4.295   0.240   5.651 -0.0581 -0.5299 -0.0477
  119OSM   H12F12525   4.367   0.314   5.691 -1.4983  0.2367  1.2277
  119OSM   H12G12526   4.194   0.283   5.663  0.0450 -0.1361 -0.5519
  119OSM   C13F12527   4.329   0.190   5.507  1.3551 -0.8785 -0.4631
  119OSM   H13F12528   4.230   0.194   5.456 -0.0711 -1.2782  2.1197
  119OSM   H13G12529   4.363   0.086   5.520 -1.4854 -1.7989  0.4295
  119OSM   C14F12530   4.430   0.273   5.431 -0.1566 -0.1460  0.0350
  119OSM   H14F12531   4.491   0.333   5.502 -1.3381 -0.2744  1.1957
  119OSM   H14G12532   4.377   0.351   5.373  0.3280  1.3301  1.4914
  119OSM   C15F12533   4.521   0.184   5.344 -0.0339 -0.0981 -1.0443
  119OSM   H15F12534   4.591   0.131   5.413 -0.8751  1.4642  1.1157
  119OSM   H15G12535   4.586   0.240   5.273 -0.6566  2.5066  0.3297
  119OSM   C16F12536   4.441   0.077   5.260  0.0096  0.1458 -0.3197
  119OSM   H16F12537   4.397  -0.002   5.324  2.8976 -1.1428  0.2205
  119OSM   H16G12538   4.511   0.017   5.198 -2.0161 -1.9817 -0.6945
  119OSM   C17F12539   4.346   0.141   5.163 -0.3225  0.3783  0.3633
  119OSM   H17F12540   4.397   0.216   5.099  1.0831 -1.3497 -0.6197
  119OSM   H17G12541   4.275   0.194   5.230 -0.5700 -1.0740  1.2968
  119OSM   C18F12542   4.278   0.033   5.080  0.0442 -1.0638 -0.1404
  119OSM   H18F12543   4.207  -0.017   5.150  0.4566  2.1003  2.8154
  119OSM   H18G12544   4.359  -0.029   5.036  3.3381  1.8232  1.3628
  119OSM   H18H12545   4.211   0.085   5.008  0.2758  1.6284  1.4462
  120OSM      N12546   0.608   6.442   7.021 -0.0565  0.0136 -0.2099
  120OSM    C1512547   0.522   6.552   6.978 -0.0235  0.0564  0.1504
  120OSM   H15A12548   0.456   6.583   7.058  0.7436  0.4771  0.6210
  120OSM   H15B12549   0.457   6.538   6.892  0.9998  0.4676 -0.7101
  120OSM   H15C12550   0.582   6.636   6.947  0.0428 -0.9697 -2.8552
  120OSM    C1412551   0.698   6.392   6.911  0.2995  0.1946 -0.2440
  120OSM   H14A12552   0.762   6.311   6.944  1.2657  1.4282  1.0644
  120OSM   H14B12553   0.763   6.472   6.879 -0.8657  0.8600 -0.9911
  120OSM   H14C12554   0.640   6.365   6.824  0.2494 -0.9636  0.1286
  120OSM    C1312555   0.698   6.488   7.132 -0.2825  0.8497 -0.3191
  120OSM   H13A12556   0.755   6.405   7.169 -2.5971 -1.2692 -1.2568
  120OSM   H13B12557   0.652   6.542   7.213  0.5391  0.1136  0.6630
  120OSM   H13C12558   0.778   6.544   7.085  0.5928  0.3073  0.4905
  120OSM    C1212559   0.524   6.326   7.070  0.0154  0.3102 -0.1326
  120OSM   H12A12560   0.481   6.341   7.167 -1.1994  0.5867 -0.6974
  120OSM   H12B12561   0.589   6.240   7.077  1.6681  1.3627 -1.6319
  120OSM    C1112562   0.409   6.265   6.983  0.1767 -0.2481 -0.6017
  120OSM   H11A12563   0.404   6.162   7.024 -0.3981 -0.0662 -0.2001
  120OSM   H11B12564   0.440   6.267   6.877  0.6997  0.1161 -0.4499
  120OSM      P12565   0.167   6.284   7.067  0.4209  0.4433  0.7160
  120OSM    O1312566   0.199   6.229   7.201 -0.8473 -0.4833 -0.5887
  120OSM    O1412567   0.065   6.388   7.055  0.6484  0.4507  0.4343
  120OSM    O1112568   0.136   6.171   6.964  0.3034  0.2203 -0.0642
  120OSM    O1212569   0.301   6.350   7.012 -0.1673  0.5778 -0.1920
  120OSM    C1S12570   0.108   6.212   6.826 -0.1386  0.5923 -0.3869
  120OSM    H1S12571   0.128   6.318   6.801 -1.6776  0.6251 -1.6554
  120OSM    H1T12572  -0.001   6.200   6.807 -0.0259 -2.0396  0.1646
  120OSM     NF12573   0.170   6.147   6.591  0.3539  0.0371 -0.0898
  120OSM    HNF12574   0.110   6.098   6.528  0.3783 -1.0499  0.7091
  120OSM    C2S12575   0.172   6.103   6.729 -0.1129  0.7434  0.2418
  120OSM    H2S12576   0.278   6.089   6.760 -0.0132  0.3026 -0.2965
  120OSM    C3S12577   0.093   5.970   6.757  0.5387 -0.2714  0.4128
  120OSM    H3S12578  -0.016   5.989   6.765  0.3937 -0.5109 -0.9065
  120OSM     O312579   0.117   5.924   6.891 -0.4162 -0.1759 -0.2889
  120OSM    HO312580   0.159   5.997   6.937 -4.1731  0.4587  2.5794
  120OSM    C4S12581   0.110   5.865   6.655 -0.4995  0.1382  0.1581
  120OSM    H4S12582   0.215   5.839   6.635 -0.5154  0.1519  0.0563
  120OSM    C5S12583   0.009   5.808   6.579 -0.8900  0.0694 -0.2687
  120OSM    H5S12584  -0.093   5.833   6.614  0.4881  2.7646  2.2943
  120OSM    C6S12585   0.012   5.712   6.467  0.0130 -0.6767 -0.0992
  120OSM    H6S12586  -0.075   5.643   6.475  0.5658 -1.4836 -0.8902
  120OSM    H6T12587   0.106   5.654   6.474 -0.4909 -1.3632  1.2777
  120OSM    C7S12588   0.021   5.786   6.334  0.5246 -0.4793  0.1858
  120OSM    H7S12589   0.103   5.860   6.345 -0.0937  0.1774  0.3622
  120OSM    H7T12590  -0.074   5.841   6.317  0.2323 -1.5803 -2.1327
  120OSM    C8S12591   0.044   5.698   6.210  0.5085 -0.3902 -0.2630
  120OSM    H8S12592  -0.014   5.603   6.202  2.5102 -1.5478 -1.9464
  120OSM    H8T12593   0.151   5.668   6.216  1.4808  2.1807 -2.9053
  120OSM    C9S12594   0.030   5.767   6.073 -0.7864 -0.2623 -0.0667
  120OSM    H9S12595   0.108   5.846   6.063  0.7914 -2.0083 -3.4060
  120OSM    H9T12596  -0.071   5.807   6.051  0.6428  2.6647 -1.9009
  120OSM   C10S12597   0.044   5.657   5.957  0.4100  0.3525  0.0668
  120OSM   H10S12598  -0.026   5.573   5.978 -2.0119  1.6166 -2.2435
  120OSM   H10T12599   0.148   5.620   5.965 -0.1798 -1.1812  1.1184
  120OSM   C11S12600   0.012   5.719   5.823 -0.3410  0.0142  0.0892
  120OSM   H11S12601   0.102   5.779   5.798  0.8413 -1.1601  1.3492
  120OSM   H11T12602  -0.078   5.785   5.820 -0.8837 -0.6654 -3.8320
  120OSM   C12S12603  -0.009   5.617   5.706 -0.4406 -0.3274 -0.0702
  120OSM   H12S12604  -0.082   5.536   5.726 -0.7673  0.2332  1.0772
  120OSM   H12T12605   0.091   5.571   5.695  0.3750  1.4248 -0.2464
  120OSM   C13S12606  -0.064   5.675   5.575  0.1929 -0.4048 -0.6835
  120OSM   H13S12607  -0.001   5.764   5.555  0.6415 -0.2986  1.0227
  120OSM   H13T12608  -0.171   5.693   5.598  0.6529 -0.3996  1.7530
  120OSM   C14S12609  -0.060   5.573   5.462  0.1764 -0.5192  0.4264
  120OSM   H14S12610  -0.098   5.478   5.505  0.8749 -1.3538 -0.7237
  120OSM   H14T12611   0.045   5.574   5.428 -0.0427 -0.1910 -0.2789
  120OSM   C15S12612  -0.138   5.604   5.333 -1.2525  0.6256  0.3014
  120OSM   H15S12613  -0.087   5.691   5.288  1.1150 -0.4680  0.7301
  120OSM   H15T12614  -0.244   5.631   5.354 -1.0754  1.2256  0.4254
  120OSM   C16S12615  -0.137   5.489   5.229  0.4287 -0.5119 -0.2022
  120OSM   H16S12616  -0.195   5.407   5.276  0.2194  0.6624  1.6987
  120OSM   H16T12617  -0.029   5.470   5.210  0.8305  0.2738  1.1680
  120OSM   C17S12618  -0.203   5.515   5.094  0.7563  0.4274 -0.5085
  120OSM   H17S12619  -0.183   5.434   5.021 -0.7624 -0.3146 -0.1479
  120OSM   H17T12620  -0.139   5.601   5.064  2.9337 -0.5662  0.9900
  120OSM   C18S12621  -0.357   5.548   5.097 -0.1872  0.5128 -0.2703
  120OSM   H18S12622  -0.382   5.587   5.198  1.4892 -1.4209  0.9649
  120OSM   H18T12623  -0.415   5.455   5.078  0.4165 -0.4700  2.3149
  120OSM   H18U12624  -0.381   5.622   5.018 -1.6494  2.1020  1.5648
  120OSM    C1F12625   0.256   6.238   6.551  0.0594  0.1203  0.4030
  120OSM     OF12626   0.352   6.270   6.623 -0.3814 -0.0038 -0.1857
  120OSM    C2F12627   0.245   6.283   6.408 -0.6032 -0.0033  1.0935
  120OSM    H2F12628   0.150   6.337   6.386  0.7253  2.1631  0.3671
  120OSM    H2G12629   0.248   6.198   6.337  1.8100 -0.5405  1.7720
  120OSM    C3F12630   0.361   6.389   6.381 -0.0931  0.1938  0.1579
  120OSM    H3F12631   0.460   6.340   6.376  0.4959  1.1323  1.7848
  120OSM    H3G12632   0.374   6.466   6.461  2.7989  0.0977 -0.1152
  120OSM    C4F12633   0.333   6.478   6.260 -0.7575  0.2711  0.3096
  120OSM    H4F12634   0.416   6.547   6.237  0.7571 -0.9389  1.8392
  120OSM    H4G12635   0.245   6.539   6.290 -2.8760 -2.4472  0.0090
  120OSM    C5F12636   0.312   6.397   6.132  0.1565  0.0431  0.5675
  120OSM    H5F12637   0.245   6.310   6.151  0.7214 -0.0842  2.2121
  120OSM    H5G12638   0.416   6.364   6.109  0.7157  1.6032  0.7283
  120OSM    C6F12639   0.266   6.484   6.013  0.5570 -0.4320  0.2655
  120OSM    H6F12640   0.198   6.556   6.062  0.7339  0.8103 -1.2416
  120OSM    H6G12641   0.207   6.423   5.942 -0.7994 -0.9897  1.8012
  120OSM    C7F12642   0.370   6.575   5.942  0.1878 -0.2193 -0.0948
  120OSM    H7F12643   0.440   6.501   5.898 -2.3553 -1.9137 -1.5943
  120OSM    H7G12644   0.431   6.632   6.015  3.9208 -0.8960 -2.4385
  120OSM    C8F12645   0.321   6.665   5.834  0.3825  0.2729  0.0349
  120OSM    H8F12646   0.261   6.608   5.760  1.2117 -0.0428 -0.3986
  120OSM    H8G12647   0.403   6.706   5.772  0.6893 -0.9454 -0.3909
  120OSM    C9F12648   0.245   6.781   5.894 -0.0429  0.8224  0.5701
  120OSM    H9F12649   0.302   6.842   5.966 -1.0127  1.1345  1.0955
  120OSM   C10F12650   0.117   6.803   5.870 -0.7003  0.4556  0.2669
  120OSM   H10F12651   0.082   6.904   5.898 -0.5634  0.1782  1.4756
  120OSM   C11F12652   0.030   6.720   5.774  0.1651  0.5553 -0.4190
  120OSM   H11F12653   0.085   6.672   5.691 -0.5736  0.0522 -0.6280
  120OSM   H11G12654  -0.030   6.792   5.715 -0.6409  0.0807 -0.1981
  120OSM   C12F12655  -0.063   6.612   5.834 -0.9001 -0.8232  0.1216
  120OSM   H12F12656  -0.135   6.662   5.903  1.1436  1.1316  0.9559
  120OSM   H12G12657  -0.003   6.528   5.872 -2.5878 -2.6056 -0.9687
  120OSM   C13F12658  -0.146   6.553   5.715 -0.2414  0.6213  0.6089
  120OSM   H13F12659  -0.074   6.513   5.641  2.3449  1.0519  2.7207
  120OSM   H13G12660  -0.199   6.643   5.678 -2.3753 -0.4754  0.8348
  120OSM   C14F12661  -0.251   6.448   5.743  0.4777 -0.2429  0.1555
  120OSM   H14F12662  -0.270   6.413   5.639  4.5773 -0.8674 -0.5519
  120OSM   H14G12663  -0.343   6.496   5.784 -1.2168 -1.3615 -2.0994
  120OSM   C15F12664  -0.210   6.340   5.837 -0.0586  0.2343  0.5381
  120OSM   H15F12665  -0.301   6.277   5.838  0.0775  0.0119 -0.1744
  120OSM   H15G12666  -0.206   6.386   5.938 -1.3088  1.8148 -0.0814
  120OSM   C16F12667  -0.098   6.245   5.798  0.0195  0.3542  0.0389
  120OSM   H16F12668  -0.005   6.305   5.789  1.2308 -1.2307  1.4210
  120OSM   H16G12669  -0.120   6.203   5.697 -0.2165 -1.6138  0.8708
  120OSM   C17F12670  -0.062   6.128   5.893  0.8591 -0.2556  0.0349
  120OSM   H17F12671   0.020   6.065   5.851 -0.5773 -0.7162 -2.2896
  120OSM   H17G12672  -0.146   6.056   5.883 -0.4373  1.2071  0.1183
  120OSM   C18F12673  -0.024   6.165   6.042  0.4846  0.0687  0.1676
  120OSM   H18F12674   0.057   6.241   6.047  0.7797 -0.2259 -0.1187
  120OSM   H18G12675   0.010   6.070   6.088 -1.6836  0.2357  2.3543
  120OSM   H18H12676  -0.117   6.193   6.097  0.3406  2.2862 -1.0628
  121OSM      N12677   0.294   3.922   7.456  0.7944 -0.7912  0.5643
  121OSM    C1512678   0.396   3.962   7.347  0.8126  0.4197 -0.5173
  121OSM   H15A12679   0.392   3.889   7.268 -3.9264 -0.1799 -0.0382
  121OSM   H15B12680   0.492   3.983   7.391  0.7052  0.8143 -0.4588
  121OSM   H15C12681   0.368   4.054   7.297  0.8291 -0.5183 -2.3236
  121OSM    C1412682   0.358   3.817   7.540  0.2887  0.7618 -0.1153
  121OSM   H14A12683   0.461   3.835   7.564 -0.2290  2.4082  1.0200
  121OSM   H14B12684   0.347   3.722   7.489 -1.6537  1.6132 -1.4399
  121OSM   H14C12685   0.296   3.805   7.628 -0.6981 -1.6257 -1.0283
  121OSM    C1312686   0.264   4.041   7.542  0.1042 -0.4790 -0.6277
  121OSM   H13A12687   0.190   4.026   7.619  0.4612 -2.3713 -0.6147
  121OSM   H13B12688   0.239   4.126   7.479  0.0072 -0.6964 -0.8837
  121OSM   H13C12689   0.353   4.064   7.597  0.0051  1.4783 -1.1893
  121OSM    C1212690   0.167   3.869   7.394  0.0438  0.0938 -0.0630
  121OSM   H12A12691   0.130   3.944   7.326  1.6042 -0.1983 -1.2886
  121OSM   H12B12692   0.098   3.871   7.477 -0.3355  3.9501 -0.2920
  121OSM    C1112693   0.170   3.738   7.313 -0.2294  0.2522  0.2124
  121OSM   H11A12694   0.248   3.748   7.234 -0.8169  2.8791 -0.1456
  121OSM   H11B12695   0.080   3.709   7.255  0.3174 -1.4324  0.1462
  121OSM      P12696   0.242   3.497   7.349  0.3195 -0.1526 -0.0518
  121OSM    O1312697   0.208   3.401   7.455  0.3070  0.4335  0.2917
  121OSM    O1412698   0.182   3.476   7.213  0.2754  0.0427  0.3777
  121OSM    O1112699   0.402   3.520   7.352 -0.1657  0.0517  0.3204
  121OSM    O1212700   0.193   3.631   7.405  0.0547 -0.2914  0.2745
  121OSM    C1S12701   0.489   3.410   7.311 -0.0335  0.4037  0.1818
  121OSM    H1S12702   0.437   3.312   7.316 -0.5390  0.6649  0.1126
  121OSM    H1T12703   0.574   3.393   7.379  0.9829  0.5813 -1.0073
  121OSM     NF12704   0.635   3.326   7.133 -0.4131  0.7972  0.5377
  121OSM    HNF12705   0.734   3.329   7.150 -0.3270 -0.4683  0.3379
  121OSM    C2S12706   0.540   3.431   7.161 -0.1519  0.6259 -0.0834
  121OSM    H2S12707   0.456   3.424   7.088 -0.8551  1.1230  0.6659
  121OSM    C3S12708   0.601   3.572   7.140  0.1369 -0.0912  0.2488
  121OSM    H3S12709   0.686   3.572   7.212  2.7139 -0.3974 -2.5883
  121OSM     O312710   0.523   3.688   7.172 -0.0899 -0.2683  0.1178
  121OSM    HO312711   0.445   3.652   7.217  0.2169  1.2709  2.0163
  121OSM    C4S12712   0.654   3.576   6.998 -0.0112  0.1749 -0.6664
  121OSM    H4S12713   0.749   3.521   6.988 -0.1744 -0.1589 -0.3984
  121OSM    C5S12714   0.590   3.633   6.890 -1.2246 -0.1575  0.1267
  121OSM    H5S12715   0.492   3.681   6.904 -1.3895 -0.6148  0.5544
  121OSM    C6S12716   0.656   3.614   6.752 -0.7875 -0.7028  0.1674
  121OSM    H6S12717   0.672   3.707   6.694 -0.0205 -0.7856  0.2302
  121OSM    H6T12718   0.588   3.560   6.683 -2.0745  0.9037  0.1265
  121OSM    C7S12719   0.795   3.549   6.744  0.3928 -0.8551 -0.3816
  121OSM    H7S12720   0.792   3.450   6.794  3.3512 -0.2269  1.2591
  121OSM    H7T12721   0.859   3.609   6.812  1.4734 -0.3057 -1.8293
  121OSM    C8S12722   0.864   3.549   6.602  0.0550 -0.5804 -0.0348
  121OSM    H8S12723   0.970   3.523   6.623 -0.3177 -3.3309 -1.1786
  121OSM    H8T12724   0.849   3.649   6.555  1.6968  0.6789  1.9284
  121OSM    C9S12725   0.796   3.452   6.511 -1.1609 -0.4211  0.6670
  121OSM    H9S12726   0.689   3.483   6.502 -1.2590 -1.0593 -0.5386
  121OSM    H9T12727   0.803   3.353   6.560  0.6181 -0.6157  0.0837
  121OSM   C10S12728   0.860   3.420   6.378  0.5895 -0.4920 -0.3347
  121OSM   H10S12729   0.853   3.309   6.367  0.0072 -0.4202 -0.7366
  121OSM   H10T12730   0.968   3.443   6.373  0.7334 -0.9001  0.6101
  121OSM   C11S12731   0.793   3.503   6.265 -0.5023 -0.1114  0.0697
  121OSM   H11S12732   0.784   3.610   6.293  1.2719  0.0152  0.2823
  121OSM   H11T12733   0.687   3.474   6.254 -1.3637  2.8662 -0.3824
  121OSM   C12S12734   0.870   3.493   6.133 -0.5054  0.7011 -0.0596
  121OSM   H12S12735   0.887   3.389   6.097 -2.5280 -0.2167  1.4327
  121OSM   H12T12736   0.970   3.539   6.147 -1.5479  2.9573  0.4781
  121OSM   C13S12737   0.810   3.574   6.020 -0.0039  0.1422  0.9127
  121OSM   H13S12738   0.786   3.681   6.042 -3.3381 -0.5153  0.9904
  121OSM   H13T12739   0.712   3.529   5.993 -0.1537 -0.0349  1.7170
  121OSM   C14S12740   0.908   3.568   5.899  0.1545  0.2815  0.3117
  121OSM   H14S12741   0.930   3.464   5.869  2.5025  0.6649  0.5047
  121OSM   H14T12742   1.006   3.606   5.935  1.4880 -1.5419 -1.2361
  121OSM   C15S12743   0.866   3.632   5.766  0.5656  0.3248 -0.8813
  121OSM   H15S12744   0.811   3.728   5.776  1.3078  0.6117  0.9025
  121OSM   H15T12745   0.804   3.554   5.716  1.8584 -1.3732  0.0288
  121OSM   C16S12746   0.979   3.646   5.674  0.5323 -0.3616 -0.7214
  121OSM   H16S12747   1.034   3.550   5.664 -2.5136 -2.3600  0.3086
  121OSM   H16T12748   1.039   3.714   5.739 -0.2592 -0.1851 -0.1528
  121OSM   C17S12749   0.940   3.710   5.538 -0.0740 -0.0899  0.7141
  121OSM   H17S12750   0.915   3.818   5.546  0.5906  0.1239  0.0320
  121OSM   H17T12751   0.858   3.643   5.505 -0.2424 -0.2612  1.4710
  121OSM   C18S12752   1.049   3.715   5.431 -0.2498  0.5600  0.0062
  121OSM   H18S12753   1.087   3.616   5.398 -0.1213 -0.5625  3.1101
  121OSM   H18T12754   1.129   3.787   5.457  2.4407 -2.2912  0.1812
  121OSM   H18U12755   1.001   3.751   5.337  0.3918 -0.5742 -0.7697
  121OSM    C1F12756   0.592   3.202   7.111 -0.2392 -0.4331 -0.9374
  121OSM     OF12757   0.468   3.186   7.093  0.0441 -0.0274  0.4984
  121OSM    C2F12758   0.694   3.085   7.128 -0.0900  0.5231  0.0810
  121OSM    H2F12759   0.664   3.028   7.218 -1.0186 -1.6415 -1.5117
  121OSM    H2G12760   0.796   3.126   7.147  0.4477 -1.2399  1.1698
  121OSM    C3F12761   0.700   2.993   7.011  0.2330  0.4290 -0.1661
  121OSM    H3F12762   0.599   2.958   6.983 -1.0659  3.7232 -0.1185
  121OSM    H3G12763   0.771   2.911   7.035 -0.4037  0.3944  1.8010
  121OSM    C4F12764   0.748   3.073   6.888 -0.0266  0.0025  0.1480
  121OSM    H4F12765   0.835   3.139   6.910 -1.9419  2.3105  1.1580
  121OSM    H4G12766   0.659   3.123   6.847  0.2100 -1.1064 -1.8241
  121OSM    C5F12767   0.809   2.978   6.780  0.1622  0.6069 -0.3230
  121OSM    H5F12768   0.728   2.907   6.753  0.3781 -0.0660  0.7204
  121OSM    H5G12769   0.890   2.922   6.830  1.4314  1.1801 -1.6565
  121OSM    C6F12770   0.862   3.046   6.653 -0.2533 -0.3329 -0.5013
  121OSM    H6F12771   0.936   3.117   6.696 -1.4347 -0.8313  2.6231
  121OSM    H6G12772   0.773   3.098   6.611 -0.6840  0.3385  1.1457
  121OSM    C7F12773   0.916   2.950   6.551 -0.1319 -0.2990  0.0422
  121OSM    H7F12774   0.845   2.865   6.554 -0.3935 -0.2606 -2.4467
  121OSM    H7G12775   1.015   2.912   6.585  0.0910  0.8883  0.7960
  121OSM    C8F12776   0.915   3.005   6.405 -0.2157  0.1659  0.3399
  121OSM    H8F12777   0.984   2.939   6.349  3.3085  1.7169  2.5031
  121OSM    H8G12778   0.965   3.105   6.405 -1.6660  0.9512 -0.7792
  121OSM    C9F12779   0.776   3.017   6.341 -0.0145  0.3692  0.4675
  121OSM    H9F12780   0.693   2.988   6.406 -0.6332 -4.7892 -2.1169
  121OSM   C10F12781   0.751   3.072   6.215  0.4828 -0.9490  0.3840
  121OSM   H10F12782   0.646   3.077   6.181  1.1046  3.0712 -1.5064
  121OSM   C11F12783   0.854   3.097   6.107 -0.5337 -0.1354  0.1412
  121OSM   H11F12784   0.933   3.020   6.116 -0.0730  0.2483 -0.5443
  121OSM   H11G12785   0.912   3.190   6.124 -0.7705  0.5801 -2.5891
  121OSM   C12F12786   0.786   3.093   5.964 -0.3259 -0.2875 -0.4481
  121OSM   H12F12787   0.692   3.154   5.964  0.2868  0.9049  3.3537
  121OSM   H12G12788   0.772   2.985   5.943 -0.2390 -0.4234  0.1766
  121OSM   C13F12789   0.886   3.134   5.855 -0.0181  0.5472  0.1295
  121OSM   H13F12790   0.953   3.052   5.820  1.3563  1.5219  0.4062
  121OSM   H13G12791   0.947   3.215   5.900 -0.4909  0.1889  1.4715
  121OSM   C14F12792   0.800   3.157   5.737 -0.4787 -0.3808  0.2388
  121OSM   H14F12793   0.740   3.247   5.764 -1.3850 -0.7543 -0.4596
  121OSM   H14G12794   0.719   3.085   5.712 -1.9588  1.6129 -1.0389
  121OSM   C15F12795   0.879   3.198   5.613  1.0626 -0.0526 -0.1701
  121OSM   H15F12796   0.947   3.117   5.578  1.9303  0.0478  1.2052
  121OSM   H15G12797   0.948   3.284   5.627  0.6246  0.3292 -0.3249
  121OSM   C16F12798   0.783   3.214   5.489 -0.0560  0.3504 -0.4998
  121OSM   H16F12799   0.698   3.280   5.514 -0.9280 -0.4458 -1.2900
  121OSM   H16G12800   0.720   3.126   5.464 -1.0295 -0.1242  3.0465
  121OSM   C17F12801   0.849   3.265   5.358  0.1633  0.0219 -0.8160
  121OSM   H17F12802   0.922   3.346   5.380  0.1471 -0.5827  1.6976
  121OSM   H17G12803   0.764   3.310   5.303 -0.3756 -1.9158 -1.6559
  121OSM   C18F12804   0.913   3.153   5.275  0.0236 -0.7454 -0.0696
  121OSM   H18F12805   0.946   3.174   5.171 -3.0090 -0.5664 -1.0912
  121OSM   H18G12806   0.839   3.070   5.274 -3.3102  1.7577  4.0482
  121OSM   H18H12807   1.003   3.114   5.328 -1.4773 -1.1434  2.3572
  122OSM      N12808   1.580   4.871   6.860  0.0416 -0.2786  1.1256
  122OSM    C1512809   1.670   4.753   6.886  0.1021 -0.2963 -0.3915
  122OSM   H15A12810   1.771   4.784   6.906 -0.1034  0.5932 -0.7025
  122OSM   H15B12811   1.665   4.677   6.810  0.6617 -1.0222  0.2842
  122OSM   H15C12812   1.642   4.701   6.977  1.0090 -1.9364 -1.0081
  122OSM    C1412813   1.571   4.968   6.979 -0.2610 -0.2461 -0.2183
  122OSM   H14A12814   1.503   4.924   7.050 -0.4516 -0.4547 -0.5247
  122OSM   H14B12815   1.520   5.057   6.944  0.1727 -0.9333 -2.8742
  122OSM   H14C12816   1.672   4.992   7.009  0.1949  1.1542 -2.5706
  122OSM    C1312817   1.645   4.940   6.745 -0.2696  1.2162 -0.5674
  122OSM   H13A12818   1.589   5.029   6.720  0.6862  1.6945 -1.0664
  122OSM   H13B12819   1.650   4.874   6.660  0.1469 -1.2938  1.2825
  122OSM   H13C12820   1.740   4.973   6.783 -0.4279 -0.1846  1.1712
  122OSM    C1212821   1.440   4.818   6.812 -0.5162 -0.3353 -0.2870
  122OSM   H12A12822   1.453   4.768   6.717  2.5846  2.5633 -1.6125
  122OSM   H12B12823   1.375   4.902   6.791  0.1790  0.6517  1.3381
  122OSM    C1112824   1.355   4.737   6.907 -0.1324  0.0672 -0.4729
  122OSM   H11A12825   1.401   4.647   6.953 -0.1238  1.1949  1.8563
  122OSM   H11B12826   1.272   4.696   6.845  0.1157 -0.4372 -0.4804
  122OSM      P12827   1.154   4.844   7.048  0.1264 -0.1600 -0.2830
  122OSM    O1312828   1.094   4.716   7.097  0.4073  0.1761 -0.0198
  122OSM    O1412829   1.145   4.959   7.136  0.2259 -0.8090  0.0734
  122OSM    O1112830   1.093   4.881   6.911 -0.1474 -0.3896 -0.1496
  122OSM    O1212831   1.307   4.827   7.011  0.2866 -0.3394 -0.6416
  122OSM    C1S12832   1.120   4.997   6.837  0.4786 -0.0653 -0.3538
  122OSM    H1S12833   1.220   5.039   6.861  1.2958 -1.7592 -0.6662
  122OSM    H1T12834   1.049   5.075   6.873  0.7892  0.4739 -0.8866
  122OSM     NF12835   1.151   5.099   6.608  0.7325  0.4053 -0.7207
  122OSM    HNF12836   1.082   5.169   6.596  1.5676  1.3250 -0.3283
  122OSM    C2S12837   1.105   4.980   6.684  0.0427 -0.7726  0.8943
  122OSM    H2S12838   1.174   4.900   6.650  1.8660  0.2911  1.9390
  122OSM    C3S12839   0.959   4.933   6.652 -0.4516 -0.3118 -0.0986
  122OSM    H3S12840   0.891   5.015   6.685 -1.9714 -1.5632 -0.0173
  122OSM     O312841   0.912   4.819   6.725  0.6630  0.4996 -0.0104
  122OSM    HO312842   0.976   4.813   6.796  0.4918  1.0869  0.2028
  122OSM    C4S12843   0.944   4.918   6.506 -0.5853  0.6136 -0.1684
  122OSM    H4S12844   0.929   5.015   6.456  1.9326  0.1996 -1.9116
  122OSM    C5S12845   0.961   4.804   6.433  0.9301 -0.0669  0.2437
  122OSM    H5S12846   0.993   4.716   6.491 -0.8750 -2.3191 -1.9809
  122OSM    C6S12847   0.958   4.793   6.285 -0.3915  0.4047  0.1428
  122OSM    H6S12848   0.869   4.738   6.246  0.0777  2.3040 -4.1199
  122OSM    H6T12849   1.040   4.727   6.252 -0.3590  1.2390 -1.5682
  122OSM    C7S12850   0.952   4.923   6.207  0.0231  0.0729 -0.0837
  122OSM    H7S12851   1.049   4.969   6.235 -0.3576 -0.2240  1.8329
  122OSM    H7T12852   0.867   4.990   6.231  0.9780  0.5871  2.1344
  122OSM    C8S12853   0.953   4.882   6.060  0.3857  0.1101 -0.2546
  122OSM    H8S12854   0.859   4.828   6.035  0.5546 -0.6606  0.7058
  122OSM    H8T12855   1.035   4.810   6.039 -1.2958 -1.8543 -0.4430
  122OSM    C9S12856   0.973   5.005   5.971 -0.1679 -0.4508 -0.0318
  122OSM    H9S12857   1.069   5.049   6.006 -1.2880  0.2738  2.4024
  122OSM    H9T12858   0.890   5.077   5.991  2.4718  2.1737  2.7135
  122OSM   C10S12859   0.991   4.971   5.819  0.3094  0.7368 -0.6172
  122OSM   H10S12860   0.901   4.916   5.785  0.8480 -0.2049 -0.5306
  122OSM   H10T12861   1.081   4.907   5.810  0.5790  1.1541 -0.9546
  122OSM   C11S12862   1.028   5.095   5.734 -0.4240 -0.1240 -0.6601
  122OSM   H11S12863   1.115   5.137   5.790 -0.8451  1.0435 -0.8608
  122OSM   H11T12864   0.946   5.170   5.740  0.1734  0.4511  1.1231
  122OSM   C12S12865   1.070   5.049   5.596  0.1156 -0.2187  0.3638
  122OSM   H12S12866   1.159   4.983   5.601  0.5173 -0.1899 -3.3681
  122OSM   H12T12867   1.098   5.145   5.548 -1.2654  0.5569  1.0398
  122OSM   C13S12868   0.959   4.986   5.513  0.1048  0.5966 -0.1442
  122OSM   H13S12869   0.876   5.060   5.517 -1.1339 -0.7349 -0.4108
  122OSM   H13T12870   0.921   4.896   5.565  0.2000  1.1279  0.8663
  122OSM   C14S12871   0.979   4.965   5.368  0.4271 -0.0150  0.4377
  122OSM   H14S12872   1.060   4.894   5.344 -1.0655 -1.0632 -1.8348
  122OSM   H14T12873   1.022   5.056   5.323 -1.4694 -0.0102 -1.5225
  122OSM   C15S12874   0.852   4.925   5.280 -0.1390  0.2770 -0.2513
  122OSM   H15S12875   0.796   5.019   5.261 -1.7105 -0.4353  0.6737
  122OSM   H15T12876   0.791   4.857   5.342 -0.8757 -0.2895 -1.5604
  122OSM   C16S12877   0.881   4.858   5.142  0.2180  0.1883  0.1253
  122OSM   H16S12878   0.790   4.813   5.097 -0.2627  0.5025  0.7657
  122OSM   H16T12879   0.953   4.775   5.161 -1.3384 -0.7138  2.5924
  122OSM   C17S12880   0.929   4.946   5.032  0.4929  0.1771  0.2789
  122OSM   H17S12881   1.009   5.012   5.070  0.7863 -0.8328  1.4669
  122OSM   H17T12882   0.850   5.016   4.994  0.2669 -0.7045 -0.9171
  122OSM   C18S12883   0.979   4.878   4.904 -0.6433 -0.1480  0.3074
  122OSM   H18S12884   0.997   4.953   4.824 -1.3863  1.4126  1.5498
  122OSM   H18T12885   0.899   4.808   4.872 -2.6372  2.1893 -0.1286
  122OSM   H18U12886   1.070   4.817   4.917 -1.9265 -2.1132  0.4606
  122OSM    C1F12887   1.281   5.132   6.599 -0.3416  0.1551 -0.0536
  122OSM     OF12888   1.363   5.073   6.669  0.3615 -0.0431  0.3833
  122OSM    C2F12889   1.305   5.257   6.521 -0.3243  0.4353 -0.4281
  122OSM    H2F12890   1.330   5.333   6.598 -1.0678  1.9934 -1.6545
  122OSM    H2G12891   1.214   5.284   6.462 -1.1915  1.5679  1.3505
  122OSM    C3F12892   1.424   5.247   6.427 -0.5192  0.1683  0.0338
  122OSM    H3F12893   1.505   5.194   6.481 -0.8728  0.0272  0.4357
  122OSM    H3G12894   1.469   5.346   6.406 -1.6114  0.2209 -2.3635
  122OSM    C4F12895   1.395   5.180   6.295 -0.3817  0.2844  0.5317
  122OSM    H4F12896   1.319   5.246   6.248 -1.7452 -1.2277  0.5285
  122OSM    H4G12897   1.340   5.084   6.295  0.8486 -0.4520  1.7187
  122OSM    C5F12898   1.522   5.172   6.203  0.4714  0.8557 -0.5170
  122OSM    H5F12899   1.577   5.084   6.242 -1.9598  0.5069  2.4958
  122OSM    H5G12900   1.586   5.261   6.220 -0.7673  1.5197  0.9192
  122OSM    C6F12901   1.487   5.144   6.054  0.4999  0.1972  0.4392
  122OSM    H6F12902   1.468   5.242   6.006 -0.3663 -0.3110 -0.2783
  122OSM    H6G12903   1.386   5.100   6.062  0.6838 -0.2085  0.5396
  122OSM    C7F12904   1.594   5.063   5.995  0.5374 -0.5218  0.0283
  122OSM    H7F12905   1.607   4.956   6.024  0.0116 -1.0458 -1.5405
  122OSM    H7G12906   1.693   5.112   6.005  0.2339  0.0253  0.3772
  122OSM    C8F12907   1.574   5.053   5.833  0.7568  0.8008 -1.0834
  122OSM    H8F12908   1.468   5.025   5.818 -0.0479  1.8834  2.0208
  122OSM    H8G12909   1.635   4.965   5.803 -0.7701  0.5848 -3.9436
  122OSM    C9F12910   1.611   5.179   5.763  0.0585  0.1895  0.2695
  122OSM    H9F12911   1.711   5.213   5.794  0.8771 -0.8344 -1.1490
  122OSM   C10F12912   1.550   5.237   5.649 -0.6014 -0.0201 -0.3473
  122OSM   H10F12913   1.601   5.331   5.625  2.2836 -1.5374 -0.5980
  122OSM   C11F12914   1.410   5.217   5.595  0.0949 -0.6713 -0.3271
  122OSM   H11F12915   1.340   5.298   5.626  3.1267  1.4335  1.6050
  122OSM   H11G12916   1.361   5.125   5.634 -0.1777  0.0675  1.1227
  122OSM   C12F12917   1.412   5.204   5.438  0.0722 -0.8339 -0.0679
  122OSM   H12F12918   1.444   5.102   5.407 -2.7817 -1.5850 -0.8012
  122OSM   H12G12919   1.479   5.282   5.396 -1.3513  2.0055  2.4731
  122OSM   C13F12920   1.271   5.213   5.373  0.0958 -0.6778  0.1035
  122OSM   H13F12921   1.200   5.283   5.422 -1.3982 -1.8711 -0.2726
  122OSM   H13G12922   1.226   5.111   5.376 -0.8935 -0.2369  1.5664
  122OSM   C14F12923   1.290   5.273   5.230  0.3792 -0.3634  0.5278
  122OSM   H14F12924   1.329   5.376   5.240 -1.3836  0.2073  2.4012
  122OSM   H14G12925   1.184   5.279   5.196  1.0758  0.5887 -1.5767
  122OSM   C15F12926   1.377   5.190   5.131  0.0594  0.5674 -0.0766
  122OSM   H15F12927   1.321   5.096   5.112  0.6593 -1.1225  4.9688
  122OSM   H15G12928   1.471   5.174   5.188  0.9235  1.6296 -1.1356
  122OSM   C16F12929   1.398   5.263   4.996  0.6477 -0.9551  0.4050
  122OSM   H16F12930   1.312   5.332   4.979 -0.9924 -3.2755 -1.3771
  122OSM   H16G12931   1.387   5.197   4.907 -1.4806  0.3919 -0.4191
  122OSM   C17F12932   1.517   5.354   4.991  0.4088 -0.3959 -0.0466
  122OSM   H17F12933   1.599   5.284   5.017 -0.2594 -0.9730  0.5525
  122OSM   H17G12934   1.524   5.432   5.070  0.9875  0.3435 -0.8078
  122OSM   C18F12935   1.530   5.433   4.861  0.1559 -0.2418  0.2460
  122OSM   H18F12936   1.626   5.486   4.847 -0.0582 -0.4613 -2.5086
  122OSM   H18G12937   1.456   5.512   4.885 -0.3238 -0.2891 -1.0069
  122OSM   H18H12938   1.508   5.367   4.774 -0.0230  0.0878  0.0426
  123OSM      N12939   2.591   1.868   2.433 -0.0014  0.3266 -0.2217
  123OSM    C1512940   2.523   1.952   2.536 -0.0657  0.3972  0.1947
  123OSM   H15A12941   2.581   2.023   2.592 -1.7101  0.3663  2.0522
  123OSM   H15B12942   2.476   1.887   2.609  0.6636  2.5438  2.7122
  123OSM   H15C12943   2.442   2.009   2.494 -0.1844  1.1494  1.3923
  123OSM    C1412944   2.495   1.767   2.377 -0.0078 -0.4681  0.4049
  123OSM   H14A12945   2.400   1.813   2.355  0.6416  0.8963  0.3173
  123OSM   H14B12946   2.493   1.681   2.442  2.0820 -0.3760  0.6441
  123OSM   H14C12947   2.538   1.736   2.283  1.2645 -3.3692  1.8386
  123OSM    C1312948   2.623   1.956   2.317  0.0759  0.1209 -0.2259
  123OSM   H13A12949   2.548   2.033   2.307 -0.0265 -0.0402 -0.7666
  123OSM   H13B12950   2.623   1.894   2.228 -0.0503  0.7935 -0.6977
  123OSM   H13C12951   2.715   2.008   2.336  0.3486 -0.2771 -0.4335
  123OSM    C1212952   2.720   1.801   2.490  0.5555  0.4421  0.1473
  123OSM   H12A12953   2.767   1.883   2.543  0.5486 -1.1407  2.7793
  123OSM   H12B12954   2.781   1.774   2.405 -0.2800 -1.1794  0.0068
  123OSM    C1112955   2.704   1.689   2.590 -0.2456  0.6522 -0.2105
  123OSM   H11A12956   2.630   1.721   2.665 -1.3163 -0.5714 -0.7069
  123OSM   H11B12957   2.801   1.664   2.639 -0.9207 -4.3113 -0.8651
  123OSM      P12958   2.654   1.427   2.570  0.0011  0.2215  0.4436
  123OSM    O1312959   2.544   1.350   2.503 -0.3210 -0.0605 -0.1588
  123OSM    O1412960   2.793   1.377   2.565  0.2229  0.3633 -0.7541
  123OSM    O1112961   2.609   1.435   2.722 -0.7783 -0.0159  0.3607
  123OSM    O1212962   2.652   1.580   2.516 -0.0584  0.2854 -0.2549
  123OSM    C1S12963   2.477   1.423   2.763  0.1530 -0.2996 -0.1436
  123OSM    H1S12964   2.424   1.331   2.730 -0.3066  0.1188 -0.6096
  123OSM    H1T12965   2.421   1.510   2.721  1.5427  0.4827 -0.4496
  123OSM     NF12966   2.330   1.408   2.943 -0.6579  0.3536 -0.2071
  123OSM    HNF12967   2.268   1.479   2.912  2.0288  1.5749 -3.2908
  123OSM    C2S12968   2.467   1.440   2.916 -0.8876  0.6709  0.6677
  123OSM    H2S12969   2.530   1.363   2.967 -1.1616  1.5048  2.3469
  123OSM    C3S12970   2.502   1.582   2.958  0.1682 -0.1383  0.2787
  123OSM    H3S12971   2.444   1.656   2.899  1.6528 -1.3965 -3.0303
  123OSM     O312972   2.642   1.613   2.938 -0.3715  0.6588  0.2662
  123OSM    HO312973   2.645   1.587   2.845  0.1470  0.5569  0.3114
  123OSM    C4S12974   2.463   1.601   3.098  0.2233 -0.9148 -0.0480
  123OSM    H4S12975   2.539   1.564   3.168  0.8642  0.3958 -0.0234
  123OSM    C5S12976   2.362   1.674   3.151  0.5674  1.0879  0.4989
  123OSM    H5S12977   2.289   1.730   3.090 -1.5573 -0.3358  1.6127
  123OSM    C6S12978   2.361   1.698   3.298 -0.1588 -0.2122  0.4168
  123OSM    H6S12979   2.276   1.637   3.338  0.3685 -1.3412 -0.1400
  123OSM    H6T12980   2.337   1.805   3.311  0.6997 -0.0197  0.4609
  123OSM    C7S12981   2.483   1.677   3.387  0.3495 -0.2634 -0.1354
  123OSM    H7S12982   2.557   1.756   3.361  1.2417 -0.7016  0.9579
  123OSM    H7T12983   2.529   1.576   3.375  0.1501 -0.2059 -1.5789
  123OSM    C8S12984   2.455   1.692   3.541  0.3334 -0.0005  0.2446
  123OSM    H8S12985   2.378   1.619   3.573 -0.1525  0.2729 -0.2808
  123OSM    H8T12986   2.406   1.789   3.565  0.5658  0.5701 -1.4342
  123OSM    C9S12987   2.588   1.666   3.619  0.0097  0.1824 -0.2476
  123OSM    H9S12988   2.665   1.730   3.571 -1.2722  0.3006 -2.3101
  123OSM    H9T12989   2.611   1.559   3.601 -1.4779 -0.0351 -1.0694
  123OSM   C10S12990   2.574   1.705   3.771  0.0822  0.6798  0.0277
  123OSM   H10S12991   2.645   1.642   3.829 -0.7150 -1.0310 -0.7901
  123OSM   H10T12992   2.477   1.660   3.801 -0.5284  1.5965 -0.5030
  123OSM   C11S12993   2.583   1.861   3.798  0.0802 -0.1877  0.2937
  123OSM   H11S12994   2.493   1.899   3.744  0.7977  1.1688  0.0181
  123OSM   H11T12995   2.666   1.903   3.738 -0.5679 -1.0785 -1.2619
  123OSM   C12S12996   2.596   1.911   3.944  0.7953 -0.1164  0.0555
  123OSM   H12S12997   2.588   2.021   3.936 -1.1324 -0.3467 -2.5045
  123OSM   H12T12998   2.696   1.877   3.978  0.5201 -2.1805 -1.0283
  123OSM   C13S12999   2.491   1.847   4.032 -0.2799  0.4060 -0.4396
  123OSM   H13S13000   2.496   1.737   4.024 -0.9977  0.1351  2.0180
  123OSM   H13T13001   2.394   1.893   4.004 -0.1455  1.6813  1.0625
  123OSM   C14S13002   2.529   1.888   4.176 -0.0530  0.2961 -0.4041
  123OSM   H14S13003   2.429   1.899   4.225 -0.9526 -2.2175 -1.4920
  123OSM   H14T13004   2.585   1.982   4.193  2.1425 -1.4176  2.7579
  123OSM   C15S13005   2.590   1.780   4.268 -0.3093 -0.5351 -0.8127
  123OSM   H15S13006   2.701   1.780   4.260  0.1132  2.3427  2.6519
  123OSM   H15T13007   2.541   1.683   4.245 -0.5410 -0.2669 -1.4714
  123OSM   C16S13008   2.587   1.800   4.419  1.0791 -0.2320 -0.0612
  123OSM   H16S13009   2.645   1.729   4.482  1.3111  0.3614  0.4039
  123OSM   H16T13010   2.478   1.799   4.443  1.2026 -2.8140  0.6869
  123OSM   C17S13011   2.628   1.939   4.459 -0.6817 -0.6884  0.2165
  123OSM   H17S13012   2.540   2.001   4.430  1.2715  1.9591 -0.5330
  123OSM   H17T13013   2.704   1.978   4.388 -0.8664 -0.8413 -0.0629
  123OSM   C18S13014   2.671   1.952   4.602  0.2422 -0.1559  0.3192
  123OSM   H18S13015   2.703   2.055   4.631  1.2704 -0.0067 -1.1898
  123OSM   H18T13016   2.766   1.899   4.625  0.7950  0.6439 -0.0568
  123OSM   H18U13017   2.592   1.933   4.677  0.1116 -1.7762 -0.1825
  123OSM    C1F13018   2.279   1.288   2.982 -0.7587  0.1591  0.6641
  123OSM     OF13019   2.356   1.188   2.975 -0.3466  0.4685  0.1644
  123OSM    C2F13020   2.140   1.287   3.023  0.2261 -0.1649  0.0719
  123OSM    H2F13021   2.077   1.227   2.954 -0.5717 -0.4188  0.9977
  123OSM    H2G13022   2.091   1.386   3.020  0.2753  0.0741  3.3599
  123OSM    C3F13023   2.132   1.237   3.172 -0.3197 -0.7373  0.1279
  123OSM    H3F13024   2.182   1.140   3.196  0.4939 -0.1941  0.6656
  123OSM    H3G13025   2.024   1.220   3.188 -0.3481 -0.9160 -0.2441
  123OSM    C4F13026   2.191   1.339   3.271 -0.0866 -0.1318  0.6119
  123OSM    H4F13027   2.169   1.444   3.245  0.4783 -0.4137 -1.1393
  123OSM    H4G13028   2.300   1.319   3.261 -0.2058 -0.3832 -0.2122
  123OSM    C5F13029   2.152   1.319   3.412 -0.3078 -0.7104 -0.4452
  123OSM    H5F13030   2.164   1.215   3.449  2.2028  0.6569  3.1489
  123OSM    H5G13031   2.046   1.348   3.427  0.0262  0.2686  0.0772
  123OSM    C6F13032   2.234   1.395   3.520 -0.2843  0.5190  0.4106
  123OSM    H6F13033   2.236   1.504   3.499 -0.6820  0.6330  0.9341
  123OSM    H6G13034   2.339   1.359   3.517  0.3965  2.4043 -0.5290
  123OSM    C7F13035   2.176   1.372   3.661 -0.0067 -0.0432  0.0195
  123OSM    H7F13036   2.143   1.268   3.680 -1.8368  0.6946  1.1354
  123OSM    H7G13037   2.080   1.426   3.678  0.5865  1.1289 -0.2556
  123OSM    C8F13038   2.271   1.426   3.767  0.2005  0.9466 -0.1573
  123OSM    H8F13039   2.210   1.404   3.857 -0.5617  0.5394 -0.7570
  123OSM    H8G13040   2.280   1.535   3.752 -0.4582  1.0984  0.5243
  123OSM    C9F13041   2.401   1.357   3.792 -0.1041 -0.1183  0.2262
  123OSM    H9F13042   2.444   1.303   3.706 -0.0932  1.7493 -0.9799
  123OSM   C10F13043   2.463   1.342   3.907 -0.1867 -0.3541 -0.8692
  123OSM   H10F13044   2.559   1.288   3.906 -0.7189 -1.3811  0.0952
  123OSM   C11F13045   2.421   1.406   4.042 -0.1648  0.2946 -0.8171
  123OSM   H11F13046   2.362   1.498   4.021 -1.7889 -0.0740  1.7205
  123OSM   H11G13047   2.506   1.446   4.102 -1.5845  0.1557  1.4007
  123OSM   C12F13048   2.340   1.319   4.135  0.4240  0.5829  0.2258
  123OSM   H12F13049   2.244   1.298   4.081  2.2935 -0.7105 -2.8659
  123OSM   H12G13050   2.327   1.383   4.224 -0.4479  2.3248 -1.0875
  123OSM   C13F13051   2.416   1.188   4.166  0.2802 -0.3943  0.6139
  123OSM   H13F13052   2.516   1.219   4.202  0.3406  0.7114 -0.4390
  123OSM   H13G13053   2.435   1.125   4.077 -0.8237  1.2403 -0.8571
  123OSM   C14F13054   2.345   1.120   4.277  0.1623 -0.2879 -0.6001
  123OSM   H14F13055   2.261   1.060   4.234 -0.0411 -0.2952 -0.1908
  123OSM   H14G13056   2.299   1.194   4.346 -2.2378 -0.4312 -1.9135
  123OSM   C15F13057   2.443   1.021   4.349  0.0415  0.0812 -0.0526
  123OSM   H15F13058   2.534   1.081   4.369  0.4660 -0.8402  0.9322
  123OSM   H15G13059   2.457   0.930   4.287 -0.7558 -0.3304  0.3550
  123OSM   C16F13060   2.374   0.983   4.484 -0.3031  0.6156  0.2010
  123OSM   H16F13061   2.279   0.935   4.454  0.4689 -0.6048 -0.3753
  123OSM   H16G13062   2.352   1.081   4.531  0.6917  1.4984 -1.0948
  123OSM   C17F13063   2.468   0.886   4.562 -0.1635 -0.4294 -0.1580
  123OSM   H17F13064   2.547   0.963   4.579 -1.7065  1.6315 -1.6974
  123OSM   H17G13065   2.505   0.806   4.495  0.8087 -0.2638  0.1573
  123OSM   C18F13066   2.407   0.830   4.681 -0.3915  0.3712 -0.8221
  123OSM   H18F13067   2.396   0.909   4.758 -2.0852  0.6780 -1.3318
  123OSM   H18G13068   2.473   0.753   4.727 -2.1329 -0.9277 -0.4046
  123OSM   H18H13069   2.307   0.782   4.674 -0.1356 -0.1908 -0.7046
  124OSM      N13070   3.589   1.232   2.306 -0.1634 -0.0387  0.5224
  124OSM    C1513071   3.542   1.084   2.321 -0.3191 -0.7126  0.1791
  124OSM   H15A13072   3.526   1.062   2.425 -0.8480 -1.7657 -0.1153
  124OSM   H15B13073   3.616   1.017   2.280 -0.4140 -0.0905 -1.0535
  124OSM   H15C13074   3.450   1.058   2.270  1.5114 -2.5114 -2.4480
  124OSM    C1413075   3.706   1.252   2.401 -0.7244 -0.2313 -0.8528
  124OSM   H14A13076   3.791   1.190   2.377 -3.0910 -3.5360 -1.3610
  124OSM   H14B13077   3.666   1.242   2.501 -2.3121  0.1364 -1.4196
  124OSM   H14C13078   3.737   1.355   2.391  0.5991 -0.7058 -1.8271
  124OSM    C1313079   3.637   1.243   2.167 -0.5377  0.4633 -0.0126
  124OSM   H13A13080   3.580   1.175   2.106  0.6779 -1.9573  1.4147
  124OSM   H13B13081   3.740   1.213   2.154 -0.3439  1.0988  0.0035
  124OSM   H13C13082   3.649   1.346   2.136  1.4554 -0.2014 -1.6752
  124OSM    C1213083   3.466   1.317   2.332 -0.2438 -0.0590 -0.3700
  124OSM   H12A13084   3.389   1.307   2.256  1.0655  0.8853 -1.8985
  124OSM   H12B13085   3.488   1.423   2.324 -0.8216  0.0749 -0.2712
  124OSM    C1113086   3.403   1.308   2.471  0.5696 -0.0011  0.4320
  124OSM   H11A13087   3.485   1.326   2.544  2.0188  0.1939 -1.1844
  124OSM   H11B13088   3.361   1.207   2.491 -0.0750 -0.0711 -1.1752
  124OSM      P13089   3.333   1.553   2.523  0.1468 -0.0070  0.2467
  124OSM    O1313090   3.481   1.572   2.540 -0.6623  0.2527 -0.5741
  124OSM    O1413091   3.263   1.655   2.442 -0.6944  0.2686 -0.4847
  124OSM    O1113092   3.265   1.552   2.665  0.0936 -0.3474  0.2551
  124OSM    O1213093   3.293   1.411   2.471  0.3195 -0.5484  0.9526
  124OSM    C1S13094   3.192   1.438   2.705 -0.4965 -0.1356 -0.6890
  124OSM    H1S13095   3.250   1.345   2.692 -0.3955 -0.0261 -1.0372
  124OSM    H1T13096   3.101   1.425   2.642 -1.1360 -0.0561  0.1980
  124OSM     NF13097   3.077   1.327   2.891 -0.2016  0.5133  0.0699
  124OSM    HNF13098   2.979   1.332   2.912  0.3317  0.8724  2.8801
  124OSM    C2S13099   3.136   1.451   2.848 -0.2687  0.5591  0.1167
  124OSM    H2S13100   3.221   1.475   2.915  2.2055 -2.0839 -1.8522
  124OSM    C3S13101   3.046   1.572   2.871 -0.4867  0.1232 -0.3150
  124OSM    H3S13102   2.956   1.551   2.809 -1.1212 -2.1488  1.2434
  124OSM     O313103   3.095   1.699   2.817 -0.7889  0.0270 -0.4650
  124OSM    HO313104   3.179   1.668   2.783  1.0162  3.9105 -0.0744
  124OSM    C4S13105   3.003   1.578   3.017 -0.5349 -1.1651 -0.1992
  124OSM    H4S13106   2.904   1.532   3.033 -1.2380  0.5689  0.8032
  124OSM    C5S13107   3.055   1.649   3.122  0.4903  0.5373  0.5828
  124OSM    H5S13108   3.142   1.714   3.109  1.1046 -0.2492  0.6872
  124OSM    C6S13109   2.995   1.666   3.259  0.0742  0.5463  0.0302
  124OSM    H6S13110   3.055   1.643   3.350 -0.0539  0.7521  0.1665
  124OSM    H6T13111   2.908   1.599   3.271  0.7453 -0.3886 -0.2222
  124OSM    C7S13112   2.947   1.819   3.264  0.1146 -0.3814  0.0351
  124OSM    H7S13113   2.879   1.847   3.181 -2.1298 -1.7310  1.2942
  124OSM    H7T13114   3.035   1.886   3.254 -1.7060  2.4905  1.8183
  124OSM    C8S13115   2.893   1.857   3.400 -0.4166  0.3973 -0.7564
  124OSM    H8S13116   2.824   1.778   3.436 -0.3176  0.1977 -1.0037
  124OSM    H8T13117   2.837   1.952   3.385  2.9805  2.4995 -1.3455
  124OSM    C9S13118   2.994   1.875   3.517  0.0347 -0.6590  0.2979
  124OSM    H9S13119   3.062   1.961   3.497 -0.0979 -0.1561  1.8163
  124OSM    H9T13120   3.067   1.792   3.520  1.8993  0.8327 -1.0417
  124OSM   C10S13121   2.924   1.909   3.646 -0.1023 -0.9918 -0.5892
  124OSM   H10S13122   2.874   1.821   3.693 -0.1523  0.6515  2.6716
  124OSM   H10T13123   2.846   1.986   3.628  0.2772 -0.0315  1.6546
  124OSM   C11S13124   3.016   1.989   3.740 -0.1076 -0.4390 -0.3806
  124OSM   H11S13125   3.037   2.089   3.697 -1.0492 -0.9720 -2.1459
  124OSM   H11T13126   3.108   1.928   3.754  0.0948  0.4645  3.6629
  124OSM   C12S13127   2.950   2.002   3.879 -0.3712  0.3847 -0.5840
  124OSM   H12S13128   2.904   1.904   3.906 -0.3891  0.2672 -1.0301
  124OSM   H12T13129   2.867   2.074   3.862  0.4503  0.7464 -3.5767
  124OSM   C13S13130   3.039   2.051   3.990  0.1398  0.2556  0.8047
  124OSM   H13S13131   3.094   2.139   3.952 -0.8675  1.0957  1.2576
  124OSM   H13T13132   3.109   1.964   3.998 -0.0885 -0.2864 -1.8953
  124OSM   C14S13133   2.965   2.087   4.127 -0.5307  0.2176  0.8008
  124OSM   H14S13134   2.898   2.002   4.148  0.2429 -0.8482 -0.8169
  124OSM   H14T13135   2.913   2.184   4.110 -0.5352  0.3197  1.3821
  124OSM   C15S13136   3.060   2.114   4.243 -0.2775 -0.3516  0.6467
  124OSM   H15S13137   3.110   2.213   4.235 -0.6439 -0.1352  1.0041
  124OSM   H15T13138   3.138   2.034   4.241  0.5780  0.3471 -3.3653
  124OSM   C16S13139   2.982   2.122   4.373  0.2981 -0.3355 -0.5403
  124OSM   H16S13140   2.923   2.029   4.378 -0.5503  0.2427  1.7245
  124OSM   H16T13141   2.912   2.207   4.362  0.9361  0.3653  0.5757
  124OSM   C17S13142   3.057   2.167   4.502  0.0591  0.7050  0.7279
  124OSM   H17S13143   3.141   2.235   4.476 -0.9740  1.7275  0.0128
  124OSM   H17T13144   3.107   2.070   4.524 -1.3889 -1.3804 -3.8667
  124OSM   C18S13145   2.982   2.229   4.613 -0.0319  0.0781  0.1486
  124OSM   H18S13146   2.895   2.166   4.643  1.8871 -1.8443  2.0040
  124OSM   H18T13147   2.941   2.327   4.580  0.0727 -0.7244 -2.5923
  124OSM   H18U13148   3.041   2.244   4.706  0.0904 -0.9975  0.2554
  124OSM    C1F13149   3.148   1.209   2.918  0.0759  0.0968 -0.2096
  124OSM     OF13150   3.266   1.207   2.905 -0.2208  0.2483  0.2947
  124OSM    C2F13151   3.085   1.094   2.975  0.2407  0.7837 -0.1821
  124OSM    H2F13152   3.126   0.998   2.935  0.0164  0.1237  1.1219
  124OSM    H2G13153   2.975   1.092   2.955  0.2366 -0.8027 -0.1512
  124OSM    C3F13154   3.119   1.079   3.130  0.3804  0.1241 -0.6728
  124OSM    H3F13155   3.228   1.090   3.151  0.7969 -2.3221 -1.2723
  124OSM    H3G13156   3.084   0.987   3.181 -0.9790  1.4099  0.8544
  124OSM    C4F13157   3.042   1.191   3.207 -0.3350 -0.2204  0.0821
  124OSM    H4F13158   2.937   1.185   3.173 -0.0690 -2.0834 -0.5427
  124OSM    H4G13159   3.084   1.289   3.176  0.2454 -0.8085 -1.0436
  124OSM    C5F13160   3.042   1.177   3.359 -0.1417 -0.8016  0.3180
  124OSM    H5F13161   3.138   1.156   3.411 -0.2206 -0.3854  0.6452
  124OSM    H5G13162   2.965   1.100   3.377 -0.3737 -0.5379  0.4741
  124OSM    C6F13163   2.989   1.306   3.420 -0.4777  0.0769 -0.0465
  124OSM    H6F13164   2.891   1.343   3.382 -1.2288  1.7311  3.1652
  124OSM    H6G13165   3.060   1.388   3.399  0.5811 -0.9104 -0.4197
  124OSM    C7F13166   2.973   1.294   3.575  0.4175 -0.4383  1.0139
  124OSM    H7F13167   3.076   1.285   3.618  1.0155  0.5580 -0.1556
  124OSM    H7G13168   2.919   1.197   3.585 -0.9365  0.0467 -1.0955
  124OSM    C8F13169   2.901   1.423   3.627  0.0301  0.2069 -0.5766
  124OSM    H8F13170   2.807   1.437   3.569 -0.8981 -0.0870  0.8059
  124OSM    H8G13171   2.955   1.518   3.606 -0.9337  0.9360  0.1421
  124OSM    C9F13172   2.857   1.395   3.771 -0.6361  0.0733 -0.0881
  124OSM    H9F13173   2.785   1.312   3.784 -0.4632  0.0114  0.4779
  124OSM   C10F13174   2.897   1.467   3.878  0.0236  0.2646  0.1935
  124OSM   H10F13175   2.858   1.436   3.976 -2.7911  0.6413 -0.7193
  124OSM   C11F13176   2.985   1.589   3.869  0.0560 -0.0765  0.2786
  124OSM   H11F13177   2.921   1.679   3.869 -2.4680 -1.7706  0.8842
  124OSM   H11G13178   3.037   1.603   3.772 -0.0713  0.3310  0.2711
  124OSM   C12F13179   3.087   1.604   3.983 -0.4124  0.4081  0.6304
  124OSM   H12F13180   3.156   1.685   3.951 -1.6211  1.0657 -0.4061
  124OSM   H12G13181   3.150   1.512   3.980  1.4408  1.6327 -0.6064
  124OSM   C13F13182   3.021   1.644   4.118 -1.0591  0.4238 -0.3656
  124OSM   H13F13183   2.951   1.571   4.165  1.0285  0.1670  2.6571
  124OSM   H13G13184   2.976   1.744   4.104 -0.5433  0.8271  0.7019
  124OSM   C14F13185   3.119   1.656   4.231 -0.3336 -0.3516 -0.3382
  124OSM   H14F13186   3.196   1.731   4.202  0.5310 -0.2206  2.1046
  124OSM   H14G13187   3.165   1.555   4.238  0.6384  0.1149  0.1461
  124OSM   C15F13188   3.058   1.693   4.366  0.6558 -0.2877  0.3590
  124OSM   H15F13189   2.969   1.631   4.393  0.1685  0.0156 -0.5191
  124OSM   H15G13190   3.025   1.798   4.349 -0.7521 -0.8947 -0.8376
  124OSM   C16F13191   3.153   1.704   4.489  0.2808 -0.1820  0.1974
  124OSM   H16F13192   3.246   1.757   4.459 -0.1130 -0.4863 -1.7167
  124OSM   H16G13193   3.174   1.598   4.516 -0.9805 -0.6073 -0.4404
  124OSM   C17F13194   3.077   1.768   4.607 -0.4563 -0.5680  0.2928
  124OSM   H17F13195   2.979   1.716   4.615 -0.4959 -0.5830 -0.2698
  124OSM   H17G13196   3.063   1.876   4.585  3.8017  0.1702  0.3304
  124OSM   C18F13197   3.166   1.749   4.728  0.0712 -0.1699 -0.2485
  124OSM   H18F13198   3.272   1.769   4.701  0.8659 -2.8809  0.5144
  124OSM   H18G13199   3.173   1.641   4.753  0.0078  0.4797  2.9491
  124OSM   H18H13200   3.124   1.814   4.807 -2.9942  0.7707 -2.4310
  125OSM      N13201   5.577   3.199   2.638 -0.1921 -0.8199  0.3920
  125OSM    C1513202   5.716   3.242   2.638 -0.1047 -0.0574 -0.6005
  125OSM   H15A13203   5.769   3.194   2.557 -1.8467 -0.1260 -1.7482
  125OSM   H15B13204   5.752   3.228   2.739 -0.0330  1.0725 -0.4502
  125OSM   H15C13205   5.719   3.348   2.614  1.3285  0.7020  2.5127
  125OSM    C1413206   5.540   3.151   2.502  0.3698  0.4728  0.3907
  125OSM   H14A13207   5.439   3.114   2.496 -1.0445  3.2064  3.9958
  125OSM   H14B13208   5.610   3.077   2.465 -2.0471 -2.8884  2.0160
  125OSM   H14C13209   5.541   3.233   2.431 -2.7018  0.0901 -0.2631
  125OSM    C1313210   5.566   3.095   2.747  0.0686 -0.7523  0.3494
  125OSM   H13A13211   5.573   3.152   2.839  1.1141  1.4758 -1.0304
  125OSM   H13B13212   5.639   3.016   2.744  0.7175 -0.1508  0.0181
  125OSM   H13C13213   5.467   3.057   2.770  0.5902 -1.2404  1.9267
  125OSM    C1213214   5.479   3.310   2.676  0.2622 -0.4363 -0.5474
  125OSM   H12A13215   5.499   3.339   2.778  1.6290  2.6512 -1.5631
  125OSM   H12B13216   5.382   3.262   2.669 -0.8370  1.3731  1.2187
  125OSM    C1113217   5.478   3.448   2.602  0.0417 -0.2922  0.0371
  125OSM   H11A13218   5.398   3.512   2.644  0.0041  0.6842 -1.4528
  125OSM   H11B13219   5.456   3.429   2.495  2.6639 -0.0301 -0.6219
  125OSM      P13220   5.626   3.662   2.584 -0.3617 -0.1765  0.0308
  125OSM    O1313221   5.761   3.701   2.630 -0.1456 -0.5213 -0.0830
  125OSM    O1413222   5.593   3.683   2.441  0.1989 -0.1079  0.0576
  125OSM    O1113223   5.524   3.744   2.676  0.1132 -0.0344 -0.2404
  125OSM    O1213224   5.606   3.509   2.615  0.3860  0.0085  0.4382
  125OSM    C1S13225   5.559   3.733   2.818  0.3967 -0.2879 -0.5223
  125OSM    H1S13226   5.668   3.749   2.830  0.4433  0.5906 -1.9057
  125OSM    H1T13227   5.540   3.631   2.859 -0.0620  1.1419  3.1210
  125OSM     NF13228   5.551   3.846   3.026 -0.0674 -0.4394  0.2115
  125OSM    HNF13229   5.524   3.775   3.091  1.4897 -0.9431  0.3670
  125OSM    C2S13230   5.483   3.838   2.898  0.4153  0.2879  0.1982
  125OSM    H2S13231   5.491   3.933   2.841  1.2417 -0.1832 -0.5042
  125OSM    C3S13232   5.339   3.793   2.898 -0.0345 -0.4656  0.4407
  125OSM    H3S13233   5.328   3.694   2.947 -0.4566 -0.5356  0.1986
  125OSM     O313234   5.279   3.773   2.770 -0.2388 -0.1551 -0.5204
  125OSM    HO313235   5.360   3.779   2.719  0.1464  0.1395  0.1104
  125OSM    C4S13236   5.261   3.888   2.986 -0.2479  0.9037  0.5008
  125OSM    H4S13237   5.252   3.988   2.941  1.5041  0.9192  0.1013
  125OSM    C5S13238   5.193   3.860   3.098  0.2473  0.1642  0.3753
  125OSM    H5S13239   5.209   3.762   3.146 -0.5202 -0.3305 -0.3487
  125OSM    C6S13240   5.107   3.959   3.178 -0.0074  0.4678  0.3908
  125OSM    H6S13241   5.001   3.942   3.151 -1.2417  2.3016  3.5336
  125OSM    H6T13242   5.128   4.057   3.130 -1.9223  1.2594  1.0965
  125OSM    C7S13243   5.128   3.969   3.330  0.1524 -0.0206 -0.1662
  125OSM    H7S13244   5.078   4.064   3.360  1.0630  0.2033  0.7078
  125OSM    H7T13245   5.237   3.972   3.350  0.6195 -0.1499 -2.3648
  125OSM    C8S13246   5.074   3.851   3.412  0.6962 -0.2164  0.0882
  125OSM    H8S13247   5.140   3.764   3.395  1.5519  0.4454 -0.0564
  125OSM    H8T13248   4.971   3.823   3.383  1.3292 -1.4808 -1.0483
  125OSM    C9S13249   5.056   3.900   3.563 -0.4462  0.1099  0.0773
  125OSM    H9S13250   5.007   3.999   3.565  0.5175  0.5979  0.8569
  125OSM    H9T13251   5.153   3.931   3.609 -0.7090  0.8199  0.1610
  125OSM   C10S13252   4.998   3.804   3.667 -0.3154  0.1654  0.3160
  125OSM   H10S13253   5.049   3.706   3.675  1.3630  0.9140 -0.6539
  125OSM   H10T13254   4.893   3.781   3.641 -0.0508 -0.4864 -0.2094
  125OSM   C11S13255   5.008   3.844   3.814  0.0475 -0.9989 -0.3221
  125OSM   H11S13256   4.933   3.923   3.836 -1.4102 -1.3613 -3.4032
  125OSM   H11T13257   5.111   3.876   3.841 -0.5502  0.9480 -0.1511
  125OSM   C12S13258   4.968   3.722   3.897 -0.5697  0.0354 -0.1334
  125OSM   H12S13259   5.054   3.663   3.935 -1.2539  0.4655  2.2556
  125OSM   H12T13260   4.911   3.652   3.834 -1.6460  0.7202  0.0547
  125OSM   C13S13261   4.885   3.761   4.020 -0.1576 -1.0327  0.1659
  125OSM   H13S13262   4.784   3.800   3.996 -0.3759 -1.2608  0.6799
  125OSM   H13T13263   4.949   3.832   4.075 -1.5516  0.7800 -0.4655
  125OSM   C14S13264   4.866   3.639   4.101  0.1231  0.0061 -0.0972
  125OSM   H14S13265   4.965   3.592   4.121 -0.2593 -0.3074  1.1633
  125OSM   H14T13266   4.807   3.567   4.041 -0.6426  0.4148  0.1460
  125OSM   C15S13267   4.783   3.658   4.231 -0.0065 -0.4174 -0.3287
  125OSM   H15S13268   4.676   3.674   4.206  0.1882  1.3847 -0.1774
  125OSM   H15T13269   4.801   3.757   4.279 -0.1372 -0.5664  0.0289
  125OSM   C16S13270   4.811   3.544   4.336  0.0821 -0.1024 -0.6048
  125OSM   H16S13271   4.913   3.504   4.320 -0.8236 -2.8104 -0.1729
  125OSM   H16T13272   4.738   3.464   4.310 -1.1176 -0.4806  3.2876
  125OSM   C17S13273   4.794   3.587   4.487 -0.2625 -0.6187 -0.0630
  125OSM   H17S13274   4.687   3.611   4.510  0.1571  0.3433  1.0023
  125OSM   H17T13275   4.851   3.682   4.493  1.1374 -1.5338  3.2881
  125OSM   C18S13276   4.837   3.488   4.592  0.0295  1.1140  0.2794
  125OSM   H18S13277   4.946   3.468   4.585  0.0527  0.9222  1.1059
  125OSM   H18T13278   4.771   3.399   4.581  0.4628  0.9243 -0.9651
  125OSM   H18U13279   4.814   3.527   4.694  0.1044  0.7926  0.4197
  125OSM    C1F13280   5.666   3.913   3.052  1.1142  0.2358 -0.0308
  125OSM     OF13281   5.737   3.959   2.964  0.4185 -0.2065 -0.0102
  125OSM    C2F13282   5.693   3.911   3.201 -0.5014  0.8630 -0.1171
  125OSM    H2F13283   5.804   3.918   3.202 -0.3034 -1.1141 -1.7709
  125OSM    H2G13284   5.670   3.813   3.247 -2.4965  0.5425 -1.6676
  125OSM    C3F13285   5.639   4.031   3.285  0.0346  0.3261 -0.3242
  125OSM    H3F13286   5.701   4.117   3.253  1.1721 -0.6821 -0.9180
  125OSM    H3G13287   5.659   3.993   3.388 -2.0334 -0.3329 -0.1164
  125OSM    C4F13288   5.483   4.059   3.279 -0.3364 -0.3912 -0.5704
  125OSM    H4F13289   5.431   3.967   3.311  1.0253 -0.8546  0.4053
  125OSM    H4G13290   5.451   4.081   3.175  0.2463  1.8449 -0.3389
  125OSM    C5F13291   5.448   4.169   3.379  0.1124  0.1924  0.0917
  125OSM    H5F13292   5.341   4.183   3.353  0.0005  0.3923  0.6502
  125OSM    H5G13293   5.518   4.255   3.366  2.4410 -1.7419 -0.9595
  125OSM    C6F13294   5.467   4.132   3.523 -0.0014  0.3867  0.0218
  125OSM    H6F13295   5.573   4.111   3.547  0.1179  1.4386  0.4661
  125OSM    H6G13296   5.422   4.031   3.539 -0.4886  0.4794 -0.6900
  125OSM    C7F13297   5.395   4.227   3.607 -0.2746 -0.9841  0.5602
  125OSM    H7F13298   5.295   4.253   3.566  0.1033 -0.9671 -0.3931
  125OSM    H7G13299   5.451   4.323   3.613  1.1510 -1.7132 -0.4754
  125OSM    C8F13300   5.361   4.183   3.749 -0.2317 -0.4883 -0.5544
  125OSM    H8F13301   5.285   4.102   3.742 -1.9418  1.1313 -1.6040
  125OSM    H8G13302   5.302   4.264   3.797 -0.1237  0.4511 -1.9638
  125OSM    C9F13303   5.483   4.149   3.826  0.3557 -0.7128 -0.2125
  125OSM    H9F13304   5.574   4.193   3.784 -0.2337  0.2154 -0.5473
  125OSM   C10F13305   5.491   4.063   3.927  0.2614  0.4576 -0.1452
  125OSM   H10F13306   5.589   4.047   3.975  0.6467  1.0030 -0.7330
  125OSM   C11F13307   5.378   3.981   3.992 -0.8333 -0.2849  0.5205
  125OSM   H11F13308   5.383   3.879   3.948  0.7306 -0.3284  0.7609
  125OSM   H11G13309   5.278   4.013   3.955 -1.3857 -0.2640  1.9611
  125OSM   C12F13310   5.397   3.981   4.140 -0.1500 -0.2809 -0.8019
  125OSM   H12F13311   5.387   4.081   4.189 -2.6163 -1.0095  0.3443
  125OSM   H12G13312   5.501   3.950   4.167 -1.0000 -1.0205  2.0181
  125OSM   C13F13313   5.299   3.891   4.209 -0.0583  0.5769  0.2641
  125OSM   H13F13314   5.338   3.788   4.203 -0.7324  0.3927 -1.5659
  125OSM   H13G13315   5.204   3.894   4.152 -1.4159  1.3828  2.4436
  125OSM   C14F13316   5.284   3.922   4.359 -0.3340 -0.4916  0.0292
  125OSM   H14F13317   5.219   4.009   4.385 -0.2905 -0.6100  0.5516
  125OSM   H14G13318   5.384   3.950   4.398 -0.0363  0.3350 -1.2673
  125OSM   C15F13319   5.222   3.807   4.446  0.4596  0.1279 -0.5881
  125OSM   H15F13320   5.276   3.718   4.408  0.4455 -0.2149  0.1805
  125OSM   H15G13321   5.119   3.783   4.409 -0.5980  3.6913 -0.4202
  125OSM   C16F13322   5.237   3.820   4.597 -0.0377  1.1359  0.2450
  125OSM   H16F13323   5.191   3.914   4.635 -1.5833  0.4054  0.2434
  125OSM   H16G13324   5.344   3.834   4.625 -0.1693  1.1917  0.7323
  125OSM   C17F13325   5.185   3.694   4.686  0.2830 -0.6187 -0.3325
  125OSM   H17F13326   5.074   3.691   4.674  0.4588  1.8500 -4.2986
  125OSM   H17G13327   5.202   3.723   4.792 -0.5271  0.5769 -0.5134
  125OSM   C18F13328   5.237   3.556   4.645  0.0304  0.4232 -0.0774
  125OSM   H18F13329   5.193   3.492   4.725  0.8816 -0.6471 -0.4467
  125OSM   H18G13330   5.348   3.559   4.644  0.0298  1.7236  1.2895
  125OSM   H18H13331   5.195   3.511   4.552  2.2430 -1.3001 -0.3034
  126OSM      N13332   3.099   6.296   2.508  0.7544  0.2341 -0.2684
  126OSM    C1513333   2.991   6.207   2.441 -0.6475 -0.4891  0.4615
  126OSM   H15A13334   2.969   6.252   2.345  0.0829 -0.9997  0.0337
  126OSM   H15B13335   2.904   6.195   2.504 -0.9503  2.8936  0.8617
  126OSM   H15C13336   3.038   6.111   2.424  1.0469  0.4558 -0.5184
  126OSM    C1413337   3.213   6.289   2.407  0.0715  0.3301 -0.1154
  126OSM   H14A13338   3.174   6.321   2.312  1.7826  0.2410 -0.9003
  126OSM   H14B13339   3.236   6.184   2.394 -0.7173  0.1242  0.1019
  126OSM   H14C13340   3.302   6.342   2.439 -1.4921  2.4964  0.8472
  126OSM    C1313341   3.047   6.436   2.504  0.1429 -0.6502 -0.1472
  126OSM   H13A13342   3.122   6.499   2.550 -1.9062  3.2298 -1.6262
  126OSM   H13B13343   2.964   6.453   2.571  1.5593 -2.0331  2.0747
  126OSM   H13C13344   3.033   6.487   2.409  2.1373  0.7936  0.2583
  126OSM    C1213345   3.126   6.242   2.646 -0.2355 -0.2764 -0.0850
  126OSM   H12A13346   3.166   6.142   2.639  1.2419  0.2318  0.7646
  126OSM   H12B13347   3.033   6.240   2.702 -0.2419  3.0593  0.1914
  126OSM    C1113348   3.227   6.320   2.737  0.0942  0.7730 -0.6301
  126OSM   H11A13349   3.214   6.277   2.839 -1.4241  0.0960 -1.0699
  126OSM   H11B13350   3.191   6.423   2.755 -0.4721  0.5541 -0.4829
  126OSM      P13351   3.460   6.430   2.683 -0.4723 -0.4360  0.0638
  126OSM    O1313352   3.598   6.379   2.664 -0.2658 -0.2389  0.1893
  126OSM    O1413353   3.408   6.531   2.589 -0.3818 -0.1425  0.1641
  126OSM    O1113354   3.459   6.482   2.829 -0.1418 -0.2172 -0.0749
  126OSM    O1213355   3.363   6.307   2.691  0.5652 -0.4207  0.7538
  126OSM    C1S13356   3.397   6.605   2.871  0.2698  0.8566 -0.3882
  126OSM    H1S13357   3.296   6.626   2.830 -0.0665  0.3746  0.1785
  126OSM    H1T13358   3.464   6.688   2.841  0.0221  0.9784 -0.6002
  126OSM     NF13359   3.309   6.738   3.062  0.1873 -0.3605 -0.0097
  126OSM    HNF13360   3.362   6.822   3.072  0.6251 -0.3180 -2.1894
  126OSM    C2S13361   3.388   6.623   3.020  0.2173 -0.7093  0.3256
  126OSM    H2S13362   3.341   6.535   3.069 -0.5168  0.3451  1.5988
  126OSM    C3S13363   3.527   6.636   3.080  0.3087  0.4755 -0.5477
  126OSM    H3S13364   3.577   6.727   3.041 -1.0503  1.3631 -0.3106
  126OSM     O313365   3.624   6.532   3.049  0.1768  0.7070  0.3303
  126OSM    HO313366   3.588   6.488   2.971  0.8695 -2.4556  1.6311
  126OSM    C4S13367   3.524   6.642   3.235  0.2517  0.5820 -0.6438
  126OSM    H4S13368   3.535   6.744   3.277 -1.2157  0.2821  0.5363
  126OSM    C5S13369   3.507   6.543   3.324 -0.0673 -0.4564  0.0853
  126OSM    H5S13370   3.497   6.438   3.294  0.5871 -1.6126  3.4850
  126OSM    C6S13371   3.477   6.570   3.472  0.2926 -0.1831 -0.2682
  126OSM    H6S13372   3.379   6.519   3.485 -0.1986  0.9743  0.7270
  126OSM    H6T13373   3.460   6.678   3.491  0.7851 -0.3514  1.2454
  126OSM    C7S13374   3.579   6.519   3.570  0.3512  0.1429 -0.4143
  126OSM    H7S13375   3.686   6.540   3.551  0.9363 -0.4668  1.8889
  126OSM    H7T13376   3.570   6.409   3.584 -0.9131  0.4409  1.5961
  126OSM    C8S13377   3.547   6.581   3.708  0.6103  0.3191  0.0076
  126OSM    H8S13378   3.441   6.557   3.729  0.6919 -3.1425 -2.7867
  126OSM    H8T13379   3.553   6.692   3.699 -0.9196  0.4894  0.8078
  126OSM    C9S13380   3.644   6.541   3.812 -0.0100 -1.1327  0.0114
  126OSM    H9S13381   3.745   6.576   3.784 -0.6929 -0.3041 -1.5397
  126OSM    H9T13382   3.631   6.432   3.830 -0.4570 -0.6502  3.1977
  126OSM   C10S13383   3.611   6.612   3.938 -0.0928  0.4838 -0.8833
  126OSM   H10S13384   3.517   6.579   3.986  0.5503 -0.8326 -0.4679
  126OSM   H10T13385   3.597   6.720   3.915  0.8421  0.6876 -0.5615
  126OSM   C11S13386   3.713   6.607   4.054 -0.0951  0.1345  0.2384
  126OSM   H11S13387   3.814   6.644   4.026 -0.3781  0.2047 -0.7107
  126OSM   H11T13388   3.723   6.498   4.069 -0.9848  0.1154  0.7898
  126OSM   C12S13389   3.664   6.675   4.185 -0.0935  0.0914 -0.1558
  126OSM   H12S13390   3.563   6.639   4.214  0.5622  0.5412  3.0727
  126OSM   H12T13391   3.652   6.784   4.168  0.0139  0.0056 -0.8272
  126OSM   C13S13392   3.754   6.657   4.307 -0.0341  0.5597  0.1674
  126OSM   H13S13393   3.767   6.547   4.300  0.3944  0.6572 -0.7735
  126OSM   H13T13394   3.696   6.688   4.397 -1.0198 -2.0323  0.5166
  126OSM   C14S13395   3.889   6.720   4.315  0.9209  0.1949  0.2687
  126OSM   H14S13396   3.891   6.818   4.263 -0.6266 -0.8188 -1.8695
  126OSM   H14T13397   3.956   6.658   4.252 -2.3029 -0.9982 -2.2962
  126OSM   C15S13398   3.940   6.738   4.460  0.5129  0.0933 -0.6573
  126OSM   H15S13399   4.051   6.747   4.459  0.5440 -0.2035 -0.3376
  126OSM   H15T13400   3.912   6.659   4.533 -0.5148  2.2079  1.3682
  126OSM   C16S13401   3.888   6.870   4.528  0.1226  1.1275  0.5391
  126OSM   H16S13402   3.778   6.857   4.533  0.1527  0.4597 -0.3522
  126OSM   H16T13403   3.926   6.954   4.466 -0.4483 -0.1431 -1.6345
  126OSM   C17S13404   3.926   6.899   4.674 -0.9667 -0.1838 -0.9639
  126OSM   H17S13405   3.919   6.816   4.747  0.5459  1.8616  1.6894
  126OSM   H17T13406   3.847   6.972   4.702 -0.2939  0.8630 -1.7073
  126OSM   C18S13407   4.058   6.982   4.692 -0.1070 -0.0174 -0.2317
  126OSM   H18S13408   4.071   7.006   4.799  1.9300 -0.5901 -0.3187
  126OSM   H18T13409   4.062   7.063   4.616  0.1432  0.5502  0.3841
  126OSM   H18U13410   4.143   6.921   4.654 -0.9707 -0.2516 -1.8986
  126OSM    C1F13411   3.178   6.742   3.068 -0.5951  0.5798  0.2815
  126OSM     OF13412   3.113   6.658   3.011  0.0521  0.0602 -0.2958
  126OSM    C2F13413   3.115   6.855   3.133 -0.0759  0.5027  0.1702
  126OSM    H2F13414   3.057   6.916   3.060  0.1919  0.1538 -0.3402
  126OSM    H2G13415   3.190   6.924   3.176  0.4194  0.2581 -0.2976
  126OSM    C3F13416   3.014   6.817   3.243 -0.4836 -0.0418 -0.3105
  126OSM    H3F13417   2.947   6.736   3.209 -2.9427  1.5365  0.5480
  126OSM    H3G13418   2.953   6.908   3.262 -0.7010  0.0315 -1.2940
  126OSM    C4F13419   3.080   6.779   3.379 -0.2633  0.4103 -0.5589
  126OSM    H4F13420   3.155   6.700   3.361 -0.4901  0.4256 -1.6440
  126OSM    H4G13421   3.000   6.755   3.453  0.2396  1.3596  0.3134
  126OSM    C5F13422   3.148   6.902   3.445  0.7407 -0.3126 -1.3122
  126OSM    H5F13423   3.063   6.967   3.475 -0.5316 -2.3609 -0.2988
  126OSM    H5G13424   3.213   6.955   3.372  2.1778 -0.6943 -0.3449
  126OSM    C6F13425   3.222   6.876   3.576  0.1191 -0.0778 -0.0537
  126OSM    H6F13426   3.265   6.975   3.602 -3.5252  1.2261  1.7056
  126OSM    H6G13427   3.294   6.792   3.572  1.6738  1.2401 -2.8372
  126OSM    C7F13428   3.126   6.850   3.692 -0.0868  0.1107  0.8137
  126OSM    H7F13429   3.077   6.751   3.679  1.3369 -0.7368  1.7340
  126OSM    H7G13430   3.047   6.928   3.699  0.9089  1.1507  0.5754
  126OSM    C8F13431   3.210   6.860   3.826 -0.2319 -0.3879  0.4202
  126OSM    H8F13432   3.234   6.967   3.838 -3.2642  0.3762  0.3519
  126OSM    H8G13433   3.309   6.811   3.811 -0.6482 -0.4586 -2.6418
  126OSM    C9F13434   3.129   6.824   3.949 -0.0607 -0.1994 -0.4599
  126OSM    H9F13435   3.062   6.739   3.930 -0.5213  0.0989 -0.1724
  126OSM   C10F13436   3.143   6.873   4.074 -0.0486 -0.0740  0.4598
  126OSM   H10F13437   3.074   6.825   4.144 -0.3090 -0.5444 -0.1141
  126OSM   C11F13438   3.229   6.990   4.120 -0.7245  0.7105  0.0533
  126OSM   H11F13439   3.178   7.077   4.165 -0.5797  2.2834 -2.5997
  126OSM   H11G13440   3.283   7.034   4.034  0.0142 -2.0242 -0.9913
  126OSM   C12F13441   3.331   6.929   4.213  0.0971 -0.1632 -0.0514
  126OSM   H12F13442   3.409   7.008   4.229 -0.6620  0.5537  0.1887
  126OSM   H12G13443   3.397   6.850   4.172 -1.3146 -0.6928 -1.3632
  126OSM   C13F13444   3.272   6.894   4.352  0.3431  0.3042  0.0704
  126OSM   H13F13445   3.361   6.849   4.401 -0.9679 -2.6387  0.0001
  126OSM   H13G13446   3.184   6.828   4.336 -0.2968  1.3265 -0.7461
  126OSM   C14F13447   3.227   7.013   4.442  0.9924 -0.0509 -0.2038
  126OSM   H14F13448   3.264   7.105   4.393 -0.8953  2.5147  2.7828
  126OSM   H14G13449   3.284   7.010   4.537 -1.4888  1.0201  1.4290
  126OSM   C15F13450   3.078   7.015   4.460  0.1210  0.2583  0.4933
  126OSM   H15F13451   3.031   7.005   4.360 -0.3108 -0.6892  0.7763
  126OSM   H15G13452   3.042   7.114   4.496  1.9735  0.9595  0.5064
  126OSM   C16F13453   3.024   6.902   4.559 -0.3724  0.2513 -0.5082
  126OSM   H16F13454   3.058   6.804   4.517  0.0668  0.6557 -1.1238
  126OSM   H16G13455   2.914   6.907   4.548 -0.2565  0.8278 -1.5470
  126OSM   C17F13456   3.058   6.924   4.703 -0.5711  0.1937 -0.5882
  126OSM   H17F13457   3.049   7.030   4.735 -1.5367  0.5109 -1.8492
  126OSM   H17G13458   3.164   6.899   4.725 -1.5386 -2.5047  1.6418
  126OSM   C18F13459   2.990   6.825   4.798 -0.7694  0.2544 -0.0235
  126OSM   H18F13460   3.001   6.724   4.753 -0.6124  0.6338 -0.8398
  126OSM   H18G13461   2.881   6.845   4.809 -0.3834  1.7929  1.5228
  126OSM   H18H13462   3.034   6.827   4.901  2.5580 -0.4963 -1.2963
  127OSM      N13463   1.067   2.969   2.470  0.0564 -0.5612 -0.3560
  127OSM    C1513464   1.031   2.925   2.332  0.4154 -0.0643 -0.0705
  127OSM   H15A13465   0.963   2.841   2.329 -2.4083  1.9957  1.1086
  127OSM   H15B13466   1.109   2.883   2.271 -0.0224 -0.3781 -0.4277
  127OSM   H15C13467   0.984   3.007   2.279  1.7188 -0.3516 -1.7581
  127OSM    C1413468   1.159   3.089   2.455 -0.7058  0.3701  0.5822
  127OSM   H14A13469   1.192   3.122   2.552  2.0121 -0.3585 -0.0045
  127OSM   H14B13470   1.113   3.172   2.405 -1.4786 -0.0026  0.6596
  127OSM   H14C13471   1.250   3.066   2.402 -0.0574  0.7616  1.4971
  127OSM    C1313472   0.949   3.007   2.551 -0.0776  0.6861 -0.8081
  127OSM   H13A13473   0.881   2.927   2.578  0.0332  1.5623  2.5099
  127OSM   H13B13474   0.893   3.087   2.504 -0.4594  1.4716  0.9134
  127OSM   H13C13475   0.967   3.046   2.650 -0.7878 -0.3928 -0.2274
  127OSM    C1213476   1.152   2.861   2.536  0.4088  0.1061 -0.3714
  127OSM   H12A13477   1.244   2.858   2.480 -0.1032  0.9654 -1.2905
  127OSM   H12B13478   1.104   2.765   2.521 -1.6281  0.8789  0.7965
  127OSM    C1113479   1.187   2.878   2.688  0.0366 -0.4044 -0.0142
  127OSM   H11A13480   1.096   2.849   2.744 -0.7454  0.8428 -0.5801
  127OSM   H11B13481   1.215   2.983   2.711 -1.6139 -0.0648  0.5297
  127OSM      P13482   1.436   2.854   2.762 -0.1393 -0.0320  0.7300
  127OSM    O1313483   1.512   2.741   2.821 -0.3256 -0.0544  0.1922
  127OSM    O1413484   1.490   2.930   2.651 -0.9555 -0.2572  0.1454
  127OSM    O1113485   1.391   2.956   2.874  0.5470 -0.0568 -0.4885
  127OSM    O1213486   1.295   2.797   2.715  0.3272 -0.2048  0.2447
  127OSM    C1S13487   1.374   2.895   3.003  0.1667  0.5390 -0.6686
  127OSM    H1S13488   1.458   2.827   3.030  0.4153  1.2018  0.2874
  127OSM    H1T13489   1.292   2.821   3.010  1.6972 -1.4043 -2.2099
  127OSM     NF13490   1.408   2.951   3.245 -0.3878 -0.5415 -0.5763
  127OSM    HNF13491   1.337   2.953   3.315  0.3587  1.1684  0.1949
  127OSM    C2S13492   1.368   3.004   3.117 -0.5406  0.3566 -0.6165
  127OSM    H2S13493   1.440   3.084   3.087  0.3376 -0.7978 -1.6634
  127OSM    C3S13494   1.230   3.077   3.114 -0.5146  0.7181  0.4497
  127OSM    H3S13495   1.166   3.014   3.179 -0.9940 -1.1068 -1.6579
  127OSM     O313496   1.148   3.063   2.995 -0.0971  0.4183 -0.0510
  127OSM    HO313497   1.179   2.991   2.939 -1.7453  0.0099 -0.4853
  127OSM    C4S13498   1.226   3.224   3.167  0.1845  0.7538 -0.3478
  127OSM    H4S13499   1.198   3.234   3.273 -1.0981 -0.8025 -0.5049
  127OSM    C5S13500   1.251   3.339   3.095 -0.0957  0.3046 -0.9224
  127OSM    H5S13501   1.300   3.334   2.997  3.2087  0.0962  0.6150
  127OSM    C6S13502   1.215   3.477   3.149  0.8178  0.4671  0.3847
  127OSM    H6S13503   1.155   3.474   3.243 -2.6412  0.1669 -1.6448
  127OSM    H6T13504   1.155   3.533   3.075  0.4012  0.6704  0.8677
  127OSM    C7S13505   1.338   3.571   3.173  0.0910  0.1629  0.3896
  127OSM    H7S13506   1.306   3.673   3.203  1.3937  0.0020  2.6227
  127OSM    H7T13507   1.388   3.575   3.074 -0.2565 -1.7370  0.1066
  127OSM    C8S13508   1.436   3.516   3.282  0.1334 -0.2952 -0.6832
  127OSM    H8S13509   1.526   3.580   3.289  1.7326 -2.4788 -0.3300
  127OSM    H8T13510   1.477   3.417   3.256  0.7813 -0.8131  1.9416
  127OSM    C9S13511   1.376   3.528   3.424 -0.3515  0.1209 -0.8727
  127OSM    H9S13512   1.270   3.493   3.426  0.1847 -1.7336 -2.1448
  127OSM    H9T13513   1.381   3.634   3.457 -0.0493 -0.1500 -0.0354
  127OSM   C10S13514   1.461   3.453   3.538  0.2462  0.8720 -0.5633
  127OSM   H10S13515   1.566   3.486   3.524  0.5284  0.8993  1.3662
  127OSM   H10T13516   1.457   3.344   3.520  1.0420  0.8222 -0.4716
  127OSM   C11S13517   1.421   3.481   3.679 -0.1457  0.1191 -0.4244
  127OSM   H11S13518   1.311   3.471   3.687 -0.0317 -1.3262 -0.2366
  127OSM   H11T13519   1.463   3.578   3.713  2.4218 -0.8719 -0.5408
  127OSM   C12S13520   1.501   3.390   3.778 -0.2615  0.3096  0.3705
  127OSM   H12S13521   1.607   3.395   3.746 -0.3538  1.3162  0.2075
  127OSM   H12T13522   1.471   3.283   3.784  1.2362 -0.0767  1.8243
  127OSM   C13S13523   1.508   3.448   3.921  1.2858  0.4983  0.0241
  127OSM   H13S13524   1.404   3.441   3.960  2.0133 -0.5909  1.8876
  127OSM   H13T13525   1.525   3.557   3.913 -0.2152  1.1393  3.6364
  127OSM   C14S13526   1.614   3.386   4.018  0.4862  0.3106 -0.2096
  127OSM   H14S13527   1.715   3.381   3.973  0.8145  0.6953  0.4724
  127OSM   H14T13528   1.581   3.280   4.029 -0.3880  0.3895 -1.7371
  127OSM   C15S13529   1.614   3.452   4.159  0.4690  0.2733 -0.2231
  127OSM   H15S13530   1.510   3.487   4.175  0.2492  0.8886 -2.5969
  127OSM   H15T13531   1.676   3.544   4.163  0.3142  0.3526  0.4535
  127OSM   C16S13532   1.653   3.369   4.272  0.2370 -0.1317 -0.6761
  127OSM   H16S13533   1.734   3.299   4.244 -0.8516 -1.9221  0.4615
  127OSM   H16T13534   1.565   3.313   4.309  0.7217 -1.2385 -1.1757
  127OSM   C17S13535   1.708   3.451   4.396 -0.3225 -0.5950  0.0945
  127OSM   H17S13536   1.632   3.527   4.423 -0.4417 -0.4392 -0.6603
  127OSM   H17T13537   1.794   3.506   4.352 -1.7658  2.4785  0.9143
  127OSM   C18S13538   1.740   3.362   4.512  0.1297  0.1640  0.3882
  127OSM   H18S13539   1.657   3.308   4.561  0.9539  0.0311  1.6739
  127OSM   H18T13540   1.789   3.422   4.591 -0.7764  0.2937  0.8603
  127OSM   H18U13541   1.802   3.278   4.474 -0.5923 -1.0419  1.7924
  127OSM    C1F13542   1.533   2.915   3.275 -0.3506 -0.2574  0.0114
  127OSM     OF13543   1.631   2.943   3.215 -0.8920  0.0917  0.3241
  127OSM    C2F13544   1.545   2.836   3.399 -0.1951  0.5852 -0.0791
  127OSM    H2F13545   1.462   2.762   3.407 -2.4855  2.9047 -1.1453
  127OSM    H2G13546   1.541   2.896   3.492 -3.9201 -2.0924  1.7520
  127OSM    C3F13547   1.677   2.749   3.393  0.5278  0.1182  0.1109
  127OSM    H3F13548   1.753   2.830   3.397 -2.1473  2.7263  2.1237
  127OSM    H3G13549   1.689   2.698   3.295  2.7662 -0.6115  0.7059
  127OSM    C4F13550   1.682   2.636   3.499 -0.4515  0.0112 -0.5302
  127OSM    H4F13551   1.775   2.575   3.496  3.0799  4.5824  2.6047
  127OSM    H4G13552   1.595   2.570   3.476 -2.4817  1.6894  1.7492
  127OSM    C5F13553   1.674   2.694   3.638 -0.3326 -0.0465  0.2523
  127OSM    H5F13554   1.582   2.756   3.643  0.0054  0.6320 -1.2967
  127OSM    H5G13555   1.752   2.770   3.661 -1.0522  0.5195  0.8871
  127OSM    C6F13556   1.674   2.605   3.763 -0.4147 -0.6105 -0.0105
  127OSM    H6F13557   1.655   2.672   3.850  1.4661 -0.2966  0.2006
  127OSM    H6G13558   1.778   2.573   3.782  0.1442  1.1970  0.2240
  127OSM    C7F13559   1.586   2.484   3.755  0.1040 -0.2825  0.3986
  127OSM    H7F13560   1.631   2.415   3.680 -1.4340 -1.5193  0.5606
  127OSM    H7G13561   1.489   2.512   3.709 -0.6797 -0.9703  1.5919
  127OSM    C8F13562   1.566   2.406   3.884  0.2974 -0.0078  0.2998
  127OSM    H8F13563   1.664   2.381   3.930 -0.1801 -0.5719  1.0338
  127OSM    H8G13564   1.524   2.309   3.851  1.0261 -0.3301  0.3000
  127OSM    C9F13565   1.473   2.462   3.989  0.4733 -0.4369  0.4623
  127OSM    H9F13566   1.366   2.465   3.965  0.1984  3.8470  1.3440
  127OSM   C10F13567   1.503   2.512   4.110  0.4147  0.7833 -0.0741
  127OSM   H10F13568   1.415   2.542   4.169  1.2326  0.4791  1.3358
  127OSM   C11F13569   1.634   2.519   4.184 -0.0072  0.1553 -0.1500
  127OSM   H11F13570   1.661   2.616   4.230 -1.9997  1.0922 -0.8331
  127OSM   H11G13571   1.718   2.500   4.114 -0.2849 -0.2607 -0.3807
  127OSM   C12F13572   1.641   2.408   4.292 -0.0597  0.1427 -0.2758
  127OSM   H12F13573   1.749   2.386   4.306  0.4710  1.3685 -2.1510
  127OSM   H12G13574   1.608   2.310   4.251  1.6932 -0.7153  0.2240
  127OSM   C13F13575   1.557   2.437   4.419 -0.3937 -0.3293  0.3497
  127OSM   H13F13576   1.449   2.417   4.407 -0.3735 -1.0441  1.2772
  127OSM   H13G13577   1.574   2.543   4.447  0.0338 -0.2224 -0.2856
  127OSM   C14F13578   1.600   2.349   4.534 -0.2778  0.4622  0.6488
  127OSM   H14F13579   1.702   2.382   4.562  0.1829 -1.5991  1.5437
  127OSM   H14G13580   1.620   2.247   4.495  0.7971  0.8140  0.2521
  127OSM   C15F13581   1.515   2.360   4.661  0.7246  0.1679 -0.1432
  127OSM   H15F13582   1.407   2.347   4.638  0.0179 -0.4975  3.0297
  127OSM   H15G13583   1.526   2.455   4.717 -0.7528  0.0003  0.5007
  127OSM   C16F13584   1.563   2.249   4.762  0.4797 -0.0783  0.8556
  127OSM   H16F13585   1.543   2.144   4.733 -0.1334  0.4943 -0.9370
  127OSM   H16G13586   1.499   2.258   4.852 -0.0092 -3.6767  1.0008
  127OSM   C17F13587   1.709   2.282   4.813  0.3076  0.6905  0.0505
  127OSM   H17F13588   1.726   2.391   4.813  0.1704  0.7403 -1.8755
  127OSM   H17G13589   1.786   2.250   4.740  0.1142  1.3869 -0.4648
  127OSM   C18F13590   1.739   2.226   4.951  0.8398  0.1767 -0.1932
  127OSM   H18F13591   1.818   2.294   4.992  0.2307  0.7035  0.1347
  127OSM   H18G13592   1.787   2.126   4.956  0.3301 -0.0725 -0.3331
  127OSM   H18H13593   1.651   2.234   5.018  0.7364  0.8903 -0.4032
  128OSM      N13594   1.825   6.742   2.485  0.0912  0.2409  0.2386
  128OSM    C1513595   1.849   6.675   2.344 -0.2081  0.3491 -0.4582
  128OSM   H15A13596   1.756   6.627   2.314  1.3296 -2.3472 -1.2933
  128OSM   H15B13597   1.927   6.600   2.348 -0.2634  0.3510  1.8222
  128OSM   H15C13598   1.873   6.745   2.266  2.5373 -0.0060 -0.0183
  128OSM    C1413599   1.954   6.808   2.515 -0.0624 -0.5682  0.5831
  128OSM   H14A13600   1.964   6.885   2.440  0.3796  0.1295  1.3339
  128OSM   H14B13601   2.043   6.748   2.520 -0.4784 -1.0996  1.8853
  128OSM   H14C13602   1.943   6.851   2.614  1.0871 -0.6231  0.7451
  128OSM    C1313603   1.718   6.847   2.466 -0.5266 -0.4632  0.0007
  128OSM   H13A13604   1.756   6.924   2.401  0.5480 -1.4739 -0.6149
  128OSM   H13B13605   1.694   6.880   2.566  1.7662 -2.5137  1.3373
  128OSM   H13C13606   1.634   6.796   2.419 -0.3678  0.0772 -0.8901
  128OSM    C1213607   1.784   6.639   2.584  0.2245  0.3826  0.4066
  128OSM   H12A13608   1.856   6.561   2.600 -0.3405 -0.3207 -0.4159
  128OSM   H12B13609   1.699   6.593   2.536  1.6005 -0.9280 -0.8699
  128OSM    C1113610   1.736   6.687   2.723 -0.2247 -0.6001  0.9267
  128OSM   H11A13611   1.675   6.623   2.791 -1.5179 -0.4758 -0.0722
  128OSM   H11B13612   1.666   6.770   2.701 -1.2167 -1.9607 -1.3984
  128OSM      P13613   1.950   6.619   2.857  0.0613 -0.1706 -0.0652
  128OSM    O1313614   1.902   6.485   2.829 -0.2252  0.1536 -0.4055
  128OSM    O1413615   2.082   6.657   2.808  0.4136  0.2657 -0.3253
  128OSM    O1113616   1.935   6.642   3.014 -0.0181  0.3557  0.3054
  128OSM    O1213617   1.847   6.729   2.798  0.6567  0.0128 -0.5075
  128OSM    C1S13618   1.995   6.755   3.079 -0.2979 -0.3351  0.2067
  128OSM    H1S13619   1.979   6.844   3.014  1.2319 -0.4221 -0.3196
  128OSM    H1T13620   2.103   6.746   3.102 -0.6828  0.6218  2.7916
  128OSM     NF13621   1.955   6.921   3.264  0.0835  0.2865 -0.3597
  128OSM    HNF13622   2.033   6.934   3.324 -0.0962 -0.3356  0.0197
  128OSM    C2S13623   1.935   6.782   3.226  0.1580 -0.2605  1.0484
  128OSM    H2S13624   1.825   6.770   3.210  0.4773  0.1408 -2.2680
  128OSM    C3S13625   1.983   6.671   3.322 -0.1615 -0.2945 -0.8413
  128OSM    H3S13626   2.094   6.680   3.330 -0.3310  1.5897 -0.3041
  128OSM     O313627   1.961   6.533   3.278  0.7088 -0.2226 -0.0618
  128OSM    HO313628   1.907   6.556   3.202 -3.1213 -0.2369  2.4070
  128OSM    C4S13629   1.924   6.677   3.465 -0.3491  0.2568  0.6592
  128OSM    H4S13630   1.826   6.629   3.476 -0.5666  0.0758 -1.5797
  128OSM    C5S13631   1.993   6.736   3.570 -0.4712  0.5001 -0.1451
  128OSM    H5S13632   2.095   6.774   3.557 -0.2605  1.9168  4.0671
  128OSM    C6S13633   1.940   6.761   3.705  0.3744 -0.3894 -0.1878
  128OSM    H6S13634   2.013   6.725   3.780  2.3002 -0.9788 -2.2439
  128OSM    H6T13635   1.848   6.702   3.725 -0.0025  0.6431  1.2589
  128OSM    C7S13636   1.896   6.909   3.715 -0.0313 -0.1948  0.0388
  128OSM    H7S13637   1.819   6.926   3.637  0.1556 -3.0263 -0.8873
  128OSM    H7T13638   1.982   6.979   3.698 -0.7100  0.8809  0.8998
  128OSM    C8S13639   1.832   6.944   3.847 -0.2357 -0.2617  0.1686
  128OSM    H8S13640   1.768   6.858   3.878 -0.5353 -0.4309 -0.8634
  128OSM    H8T13641   1.761   7.029   3.843 -0.2935 -0.2729  0.8814
  128OSM    C9S13642   1.934   6.965   3.956  0.1792  0.5600  0.3214
  128OSM    H9S13643   1.955   7.074   3.948  0.1827  0.5042 -0.5864
  128OSM    H9T13644   2.035   6.922   3.939 -0.2498 -0.7681  1.0376
  128OSM   C10S13645   1.877   6.924   4.089  0.1691  0.2463  0.1624
  128OSM   H10S13646   1.876   6.816   4.113  0.1054  0.3340  0.5681
  128OSM   H10T13647   1.774   6.964   4.091 -0.0254 -0.2022  2.6848
  128OSM   C11S13648   1.941   6.987   4.210 -0.5971 -0.6933  0.6038
  128OSM   H11S13649   1.929   7.098   4.204  1.1517 -0.5094 -0.5748
  128OSM   H11T13650   2.052   6.981   4.202 -0.5242  0.1508  0.8740
  128OSM   C12S13651   1.901   6.917   4.336  0.8375  0.5710  0.9070
  128OSM   H12S13652   1.924   6.808   4.329 -1.9644 -0.0146 -1.0349
  128OSM   H12T13653   1.790   6.925   4.334  0.9171  2.0904 -1.0303
  128OSM   C13S13654   1.964   6.984   4.456 -0.0140 -0.6803 -0.4829
  128OSM   H13S13655   1.961   7.094   4.440  3.2566 -0.4627 -0.3407
  128OSM   H13T13656   2.071   6.955   4.457  0.2371  0.1603 -1.6212
  128OSM   C14S13657   1.903   6.951   4.597  0.2605 -0.5986  0.1207
  128OSM   H14S13658   1.979   6.977   4.674  0.7275  1.8789 -1.0823
  128OSM   H14T13659   1.875   6.843   4.599 -2.9713  0.1448  0.9583
  128OSM   C15S13660   1.769   7.026   4.633 -0.0506 -0.4720 -0.2286
  128OSM   H15S13661   1.698   7.014   4.548  1.4197 -1.1975 -1.4115
  128OSM   H15T13662   1.794   7.131   4.657 -0.4328  0.1634 -2.3528
  128OSM   C16S13663   1.695   6.965   4.757 -0.0681 -0.0905 -0.2386
  128OSM   H16S13664   1.754   6.955   4.850  1.2114 -1.3385 -1.1390
  128OSM   H16T13665   1.673   6.861   4.725  2.6907 -1.3994  1.7365
  128OSM   C17S13666   1.554   7.026   4.774 -0.1717  0.2009 -0.1156
  128OSM   H17S13667   1.481   6.950   4.808 -1.8673  0.9950 -1.7778
  128OSM   H17T13668   1.515   7.059   4.676 -1.3293  1.6755  0.7990
  128OSM   C18S13669   1.558   7.143   4.871 -0.7873  0.0571 -0.3685
  128OSM   H18S13670   1.599   7.239   4.833 -0.4470 -0.2090 -0.6869
  128OSM   H18T13671   1.633   7.131   4.952  2.7139 -0.7749 -3.4367
  128OSM   H18U13672   1.454   7.161   4.905 -0.9304 -0.7159 -0.3725
  128OSM    C1F13673   1.907   7.025   3.194 -0.3090  0.5655  0.6846
  128OSM     OF13674   1.813   7.017   3.114  0.4866 -0.4807  0.1550
  128OSM    C2F13675   1.981   7.157   3.210 -0.5092  0.1781 -0.1917
  128OSM    H2F13676   1.967   7.214   3.115  0.6719 -0.0273 -0.5121
  128OSM    H2G13677   2.090   7.137   3.207 -0.5101 -0.2071  1.4395
  128OSM    C3F13678   1.951   7.229   3.343 -0.6567 -0.9501  0.4681
  128OSM    H3F13679   2.010   7.322   3.332 -2.1665 -0.1254 -1.1388
  128OSM    H3G13680   1.985   7.168   3.429 -0.0759 -0.3957  0.6355
  128OSM    C4F13681   1.804   7.272   3.353  0.5908  0.3646  0.4254
  128OSM    H4F13682   1.738   7.183   3.363 -0.1856  0.8799 -0.0392
  128OSM    H4G13683   1.773   7.312   3.254 -2.0018 -0.1381  0.9712
  128OSM    C5F13684   1.771   7.377   3.461  0.1981  0.0458  0.1608
  128OSM    H5F13685   1.663   7.403   3.468  0.2317 -0.0808  1.4360
  128OSM    H5G13686   1.826   7.470   3.434 -0.2738  0.1439 -0.4939
  128OSM    C6F13687   1.807   7.319   3.600  0.0696  0.7050  0.3807
  128OSM    H6F13688   1.915   7.295   3.593 -0.1423 -0.9333  2.0525
  128OSM    H6G13689   1.755   7.224   3.621  0.3819  0.2343 -0.8692
  128OSM    C7F13690   1.788   7.429   3.706 -0.1396  0.9044  0.8157
  128OSM    H7F13691   1.681   7.459   3.707 -0.2942  0.3873  0.4538
  128OSM    H7G13692   1.850   7.514   3.670  1.5865 -0.3223  0.7624
  128OSM    C8F13693   1.834   7.376   3.840  0.1900  0.2416  0.3833
  128OSM    H8F13694   1.935   7.332   3.824 -0.5909 -1.6144  0.3096
  128OSM    H8G13695   1.770   7.287   3.855 -0.5713  1.0677  2.3488
  128OSM    C9F13696   1.832   7.464   3.962  0.3531 -0.6348  0.0132
  128OSM    H9F13697   1.908   7.543   3.952  0.3702 -0.6311  0.1773
  128OSM   C10F13698   1.757   7.470   4.071  0.5885 -0.0262 -0.6531
  128OSM   H10F13699   1.771   7.548   4.148 -0.3901 -0.6930  0.2284
  128OSM   C11F13700   1.648   7.379   4.118 -0.5059  0.2217 -0.1504
  128OSM   H11F13701   1.646   7.300   4.040  1.0423 -0.2248  0.2302
  128OSM   H11G13702   1.557   7.442   4.108 -0.7669 -0.1597 -0.1998
  128OSM   C12F13703   1.651   7.298   4.250 -0.1027 -0.2031  0.0668
  128OSM   H12F13704   1.757   7.264   4.252  0.6164  1.8234 -0.9341
  128OSM   H12G13705   1.577   7.215   4.250  0.5653 -0.9331 -2.9924
  128OSM   C13F13706   1.634   7.400   4.362 -0.7337 -0.7296 -0.4052
  128OSM   H13F13707   1.527   7.427   4.358 -0.3543  1.1434  0.6816
  128OSM   H13G13708   1.696   7.490   4.342 -0.7069 -0.3047  1.3904
  128OSM   C14F13709   1.660   7.336   4.499 -0.0885 -0.7988 -0.7093
  128OSM   H14F13710   1.751   7.273   4.492  1.0611  0.7428 -0.3291
  128OSM   H14G13711   1.570   7.286   4.540 -1.2669  1.0830 -0.8840
  128OSM   C15F13712   1.694   7.446   4.604  0.0642 -0.0090 -0.1518
  128OSM   H15F13713   1.680   7.413   4.709  0.4140 -1.5134 -0.5575
  128OSM   H15G13714   1.635   7.541   4.602 -0.8946 -0.4841  2.2610
  128OSM   C16F13715   1.840   7.494   4.588  0.1715 -0.3274 -0.7337
  128OSM   H16F13716   1.849   7.546   4.490 -0.7471  0.2993 -0.5051
  128OSM   H16G13717   1.909   7.407   4.589 -2.1444 -2.3724 -2.9230
  128OSM   C17F13718   1.880   7.595   4.701 -0.2427 -0.5272 -0.4897
  128OSM   H17F13719   1.889   7.529   4.790 -1.1595  1.2957  1.0262
  128OSM   H17G13720   1.801   7.671   4.715 -0.0807  0.3260 -3.4030
  128OSM   C18F13721   2.017   7.663   4.684 -0.5961 -0.5874  0.1305
  128OSM   H18F13722   2.090   7.599   4.739  0.8902  0.3913 -0.6346
  128OSM   H18G13723   2.029   7.766   4.725 -1.8156 -0.2173 -0.4123
  128OSM   H18H13724   2.035   7.676   4.575 -0.4348  2.0856  0.4202
  129OSM      N13725   3.849   4.381   2.861  0.3874  0.0044  0.1472
  129OSM    C1513726   3.903   4.253   2.818 -0.3136  0.2086 -0.1263
  129OSM   H15A13727   3.925   4.256   2.712 -2.2366 -0.8230 -0.6002
  129OSM   H15B13728   3.831   4.175   2.838  1.3456 -1.2876  0.2417
  129OSM   H15C13729   3.992   4.225   2.872  0.0402 -1.1262 -1.3479
  129OSM    C1413730   3.721   4.416   2.791  0.3190  0.2788  0.1852
  129OSM   H14A13731   3.647   4.337   2.798 -0.5853  1.1116  0.3871
  129OSM   H14B13732   3.727   4.436   2.685 -1.4111 -1.3898 -0.3010
  129OSM   H14C13733   3.670   4.498   2.839 -0.3113 -1.6979  3.1683
  129OSM    C1313734   3.820   4.361   3.008 -0.1756 -0.6304 -0.5393
  129OSM   H13A13735   3.765   4.441   3.055  2.7668  0.8501  0.6232
  129OSM   H13B13736   3.912   4.348   3.064 -0.0943 -3.1665 -1.1224
  129OSM   H13C13737   3.770   4.266   3.023 -0.8679 -0.1641  0.1675
  129OSM    C1213738   3.956   4.487   2.842 -0.2170 -0.5560  0.1910
  129OSM   H12A13739   4.044   4.469   2.902 -0.7955 -1.2129  0.8635
  129OSM   H12B13740   3.918   4.583   2.874 -2.4138 -0.3054 -2.7923
  129OSM    C1113741   4.020   4.517   2.698  0.4766  0.5506 -0.3041
  129OSM   H11A13742   4.051   4.417   2.660 -0.2325 -0.0918  0.7527
  129OSM   H11B13743   4.107   4.585   2.712 -0.2202  1.2127  1.0014
  129OSM      P13744   3.866   4.725   2.630  0.0845  0.1643 -0.3318
  129OSM    O1313745   3.911   4.815   2.523  0.3842  0.2964  0.2340
  129OSM    O1413746   3.718   4.711   2.649 -0.1975  0.2453  0.1938
  129OSM    O1113747   3.936   4.784   2.762  0.2669 -0.1214  0.0299
  129OSM    O1213748   3.928   4.581   2.612 -0.1127 -0.1099 -0.4295
  129OSM    C1S13749   3.889   4.900   2.835  0.1089  0.1605 -0.1845
  129OSM    H1S13750   3.779   4.917   2.838  0.1976  1.1122 -1.2496
  129OSM    H1T13751   3.905   4.992   2.775 -2.4830 -1.4683 -3.8239
  129OSM     NF13752   3.887   5.023   3.054 -0.7123 -0.3552  0.3882
  129OSM    HNF13753   3.942   5.105   3.068  0.1700 -1.1782  2.0493
  129OSM    C2S13754   3.947   4.914   2.977 -0.1914  0.2916 -0.6319
  129OSM    H2S13755   3.920   4.816   3.021  1.2587  0.9456  2.0018
  129OSM    C3S13756   4.110   4.924   2.974 -0.3846  0.0796 -0.0456
  129OSM    H3S13757   4.142   5.008   2.908  0.9914 -1.0964 -0.9499
  129OSM     O313758   4.170   4.819   2.909  0.1408  0.1999  0.1947
  129OSM    HO313759   4.109   4.802   2.837 -0.9042 -0.4287  1.1932
  129OSM    C4S13760   4.163   4.943   3.122  0.1713 -0.1731 -0.1099
  129OSM    H4S13761   4.151   4.853   3.182  1.7654  0.5684  1.4251
  129OSM    C5S13762   4.214   5.052   3.181 -0.5694 -0.2365  0.1668
  129OSM    H5S13763   4.214   5.143   3.119 -0.2619 -0.9133 -0.8597
  129OSM    C6S13764   4.256   5.057   3.329  0.0950 -0.0812  0.1670
  129OSM    H6S13765   4.207   5.145   3.375 -0.4339 -0.2825 -0.0043
  129OSM    H6T13766   4.364   5.082   3.330 -0.5541  3.1771  0.2933
  129OSM    C7S13767   4.235   4.948   3.432  0.2959  0.6933  0.3417
  129OSM    H7S13768   4.280   4.852   3.399  0.7998  0.7185  0.9421
  129OSM    H7T13769   4.124   4.937   3.441  0.5034 -1.2416  1.0123
  129OSM    C8S13770   4.294   4.988   3.566 -0.1527 -0.3686  0.1317
  129OSM    H8S13771   4.265   5.092   3.588  2.0060  0.3714 -0.2745
  129OSM    H8T13772   4.405   4.995   3.565 -0.1307 -0.7026 -0.2607
  129OSM    C9S13773   4.265   4.895   3.685 -1.0381  0.9042 -0.0465
  129OSM    H9S13774   4.300   4.791   3.665  2.6865  1.6175  1.8368
  129OSM    H9T13775   4.158   4.874   3.705 -0.8579 -1.4663 -1.2076
  129OSM   C10S13776   4.338   4.931   3.812 -0.0603  0.2642 -0.3327
  129OSM   H10S13777   4.295   5.017   3.868  0.8393  0.1757  0.5082
  129OSM   H10T13778   4.447   4.942   3.799  0.7152 -2.6335  2.5846
  129OSM   C11S13779   4.336   4.812   3.918 -0.4318 -0.2505  0.0446
  129OSM   H11S13780   4.389   4.720   3.885  2.6413  0.9710  1.1703
  129OSM   H11T13781   4.234   4.800   3.959 -1.5634  2.7666 -1.5517
  129OSM   C12S13782   4.435   4.847   4.035  0.1262 -0.2561 -0.3954
  129OSM   H12S13783   4.406   4.939   4.090  0.9501 -0.8498  1.0898
  129OSM   H12T13784   4.534   4.865   3.988  0.2041 -3.7051 -1.8552
  129OSM   C13S13785   4.461   4.750   4.148 -0.1850 -0.3667  0.3065
  129OSM   H13S13786   4.479   4.649   4.105 -1.2218 -0.3207 -0.2747
  129OSM   H13T13787   4.375   4.755   4.218 -0.1633 -0.0814  0.3144
  129OSM   C14S13788   4.588   4.792   4.220 -0.0363 -0.2786 -0.8319
  129OSM   H14S13789   4.578   4.903   4.228 -2.0905 -0.5773  1.8582
  129OSM   H14T13790   4.673   4.766   4.152 -1.0775 -0.5344 -2.0731
  129OSM   C15S13791   4.597   4.738   4.367 -0.6180  0.2466  0.4477
  129OSM   H15S13792   4.620   4.631   4.351 -1.1511  0.0702  0.8549
  129OSM   H15T13793   4.505   4.736   4.429 -0.3227  0.3696  0.9006
  129OSM   C16S13794   4.707   4.804   4.453  0.0878  0.2184  0.1814
  129OSM   H16S13795   4.717   4.912   4.427  3.5486 -0.4003 -1.5662
  129OSM   H16T13796   4.803   4.760   4.420  1.0720  0.9939  1.8577
  129OSM   C17S13797   4.702   4.787   4.600  0.4099  0.2053 -0.4264
  129OSM   H17S13798   4.611   4.838   4.640 -1.6727 -1.2847 -2.9232
  129OSM   H17T13799   4.795   4.824   4.648  1.0837  0.4638 -1.9012
  129OSM   C18S13800   4.688   4.638   4.641 -0.0165  0.3192  0.2889
  129OSM   H18S13801   4.712   4.624   4.749  2.5912  1.2096 -0.1025
  129OSM   H18T13802   4.748   4.566   4.581 -1.1943 -0.2516 -0.2448
  129OSM   H18U13803   4.581   4.612   4.622  0.1702 -1.2800  1.2654
  129OSM    C1F13804   3.763   5.014   3.088 -0.1626 -0.2764 -0.2236
  129OSM     OF13805   3.696   4.916   3.071 -0.2146  0.0921 -0.3262
  129OSM    C2F13806   3.711   5.136   3.144  0.6444  0.7697  0.0275
  129OSM    H2F13807   3.611   5.155   3.098  1.2813 -0.2348 -1.8685
  129OSM    H2G13808   3.778   5.223   3.127  0.5897  0.9197  0.5532
  129OSM    C3F13809   3.690   5.113   3.296 -0.6363 -0.2478 -0.9736
  129OSM    H3F13810   3.636   5.021   3.328 -0.3573 -0.3375 -0.7629
  129OSM    H3G13811   3.616   5.187   3.334  0.9961  1.0018 -0.0761
  129OSM    C4F13812   3.810   5.132   3.392  0.5780 -0.0675  0.4749
  129OSM    H4F13813   3.870   5.225   3.381  1.1969 -0.6694 -2.0044
  129OSM    H4G13814   3.890   5.059   3.366  1.2685  1.2573 -1.3750
  129OSM    C5F13815   3.775   5.105   3.539  0.6900 -0.3718  0.0522
  129OSM    H5F13816   3.718   5.012   3.559  1.0160 -0.7938 -0.9828
  129OSM    H5G13817   3.726   5.194   3.586 -3.5996 -2.6968  0.4799
  129OSM    C6F13818   3.899   5.074   3.632 -0.2246 -0.5869 -0.2892
  129OSM    H6F13819   3.972   5.158   3.634  1.6713 -2.1492 -0.7788
  129OSM    H6G13820   3.959   4.989   3.593  1.1987  0.6124 -0.8181
  129OSM    C7F13821   3.852   5.035   3.770  0.0412  0.2717 -0.0470
  129OSM    H7F13822   3.858   4.924   3.775 -1.1394  0.0140 -2.8841
  129OSM    H7G13823   3.749   5.076   3.763  0.3772  0.8726 -1.9373
  129OSM    C8F13824   3.929   5.109   3.884 -0.5822  0.8494  0.1644
  129OSM    H8F13825   3.892   5.211   3.858 -0.3760  1.3609  1.7952
  129OSM    H8G13826   4.039   5.099   3.870 -0.8411 -0.5970 -1.0512
  129OSM    C9F13827   3.876   5.054   4.022 -0.2817 -0.0467  0.2237
  129OSM    H9F13828   3.769   5.027   4.024 -0.3147  0.1465  1.1851
  129OSM   C10F13829   3.944   5.049   4.144  0.6622 -1.2390  0.2618
  129OSM   H10F13830   3.901   4.992   4.228  0.5762 -1.2274  0.2263
  129OSM   C11F13831   4.085   5.092   4.167 -0.4674  0.3815  0.1281
  129OSM   H11F13832   4.135   5.160   4.095  1.9745  0.7906  2.0680
  129OSM   H11G13833   4.141   4.997   4.159 -0.2940  0.5286 -0.4379
  129OSM   C12F13834   4.101   5.168   4.299  0.5045 -0.4131  0.5934
  129OSM   H12F13835   4.075   5.095   4.379 -0.5083 -2.7791 -1.7399
  129OSM   H12G13836   4.025   5.249   4.301 -2.5033 -3.0453  2.1495
  129OSM   C13F13837   4.240   5.230   4.337 -0.2494  0.0101 -0.2195
  129OSM   H13F13838   4.256   5.312   4.263 -0.3294  0.1144 -0.1222
  129OSM   H13G13839   4.301   5.138   4.325 -1.3719 -0.6360 -1.1420
  129OSM   C14F13840   4.244   5.294   4.480  0.1163  0.2088 -0.7470
  129OSM   H14F13841   4.156   5.361   4.473  0.6326  0.7192 -4.1632
  129OSM   H14G13842   4.331   5.362   4.494 -0.1815  0.4652 -0.0913
  129OSM   C15F13843   4.238   5.190   4.595  0.2622 -0.0909 -0.1613
  129OSM   H15F13844   4.144   5.130   4.595 -1.5494  2.5262  1.8950
  129OSM   H15G13845   4.244   5.255   4.684 -1.2038  0.7482 -0.6389
  129OSM   C16F13846   4.358   5.096   4.605 -0.0447  0.3120 -0.0225
  129OSM   H16F13847   4.445   5.162   4.623  0.4269 -0.8851  2.5998
  129OSM   H16G13848   4.370   5.049   4.505  0.9386  0.2734  0.1104
  129OSM   C17F13849   4.335   4.991   4.716 -0.3887 -0.0962  0.4444
  129OSM   H17F13850   4.284   5.041   4.801  0.3082 -0.9004  1.3599
  129OSM   H17G13851   4.433   4.957   4.756 -1.1272  0.3724  2.7651
  129OSM   C18F13852   4.247   4.869   4.680  0.3524 -0.0643  0.2552
  129OSM   H18F13853   4.291   4.812   4.596  0.0748 -1.3317  0.9313
  129OSM   H18G13854   4.148   4.912   4.654  1.4468  1.5661 -1.4423
  129OSM   H18H13855   4.232   4.792   4.760  1.6377  0.9405  1.5233
  130OSM      N13856   4.748   1.541   1.957 -0.1349 -0.0833 -1.0741
  130OSM    C1513857   4.639   1.475   1.876 -0.1650  0.5109  0.2657
  130OSM   H15A13858   4.661   1.371   1.862  0.3008  0.6755 -0.2480
  130OSM   H15B13859   4.644   1.511   1.774  0.6272 -0.3147 -0.0020
  130OSM   H15C13860   4.536   1.491   1.904 -0.4828 -2.0321  0.7653
  130OSM    C1413861   4.869   1.524   1.873  0.2757 -0.0414 -0.4350
  130OSM   H14A13862   4.864   1.577   1.779  2.2114 -0.9643 -1.1277
  130OSM   H14B13863   4.894   1.421   1.849  1.2824  0.2901 -0.8789
  130OSM   H14C13864   4.955   1.566   1.923 -0.0622  0.5440 -0.3390
  130OSM    C1313865   4.716   1.691   1.966  0.4526 -0.0125 -0.3985
  130OSM   H13A13866   4.790   1.755   2.011 -0.6573  0.8774  0.2207
  130OSM   H13B13867   4.623   1.703   2.019 -0.3212  1.2052 -1.9184
  130OSM   H13C13868   4.698   1.737   1.869 -1.7158 -0.4259 -0.2470
  130OSM    C1213869   4.770   1.478   2.094 -0.1370  0.4088 -0.1691
  130OSM   H12A13870   4.817   1.382   2.084  0.7492  0.7398  0.6615
  130OSM   H12B13871   4.674   1.453   2.137 -0.1605 -0.7008 -0.8313
  130OSM    C1113872   4.848   1.560   2.217 -0.0489 -0.1881 -0.1542
  130OSM   H11A13873   4.943   1.584   2.165  0.5313 -3.5125 -0.8674
  130OSM   H11B13874   4.869   1.496   2.305  0.2880  0.5247  0.2895
  130OSM      P13875   4.644   1.683   2.339  0.1367 -0.1781  0.1562
  130OSM    O1313876   4.589   1.820   2.329 -0.4577 -0.3944  0.2075
  130OSM    O1413877   4.552   1.571   2.296 -0.3480  0.1402  0.1872
  130OSM    O1113878   4.685   1.641   2.488 -0.5377 -0.3789  0.0396
  130OSM    O1213879   4.781   1.682   2.246 -0.2660 -0.3882  0.3181
  130OSM    C1S13880   4.795   1.706   2.550  0.1952 -0.1579 -0.1928
  130OSM    H1S13881   4.807   1.812   2.519 -0.2775 -0.4087 -1.2561
  130OSM    H1T13882   4.887   1.651   2.522  1.4616  1.1324  1.2275
  130OSM     NF13883   4.901   1.750   2.766 -0.0861 -0.0985 -0.3592
  130OSM    HNF13884   4.976   1.689   2.790  1.8359  2.6434  1.0361
  130OSM    C2S13885   4.790   1.684   2.701 -0.1405  1.1310  0.6694
  130OSM    H2S13886   4.700   1.733   2.744 -0.4339  1.8431 -0.7146
  130OSM    C3S13887   4.786   1.533   2.739 -0.1093 -0.0519  0.8820
  130OSM    H3S13888   4.877   1.488   2.696 -0.0894  2.4686 -2.0478
  130OSM     O313889   4.678   1.457   2.682  0.5899  0.4968  0.8354
  130OSM    HO313890   4.646   1.515   2.613 -1.4128  1.2340  2.2860
  130OSM    C4S13891   4.781   1.512   2.890  0.1674  0.1806 -0.2965
  130OSM    H4S13892   4.682   1.535   2.933 -0.4599 -2.5773 -0.0311
  130OSM    C5S13893   4.867   1.455   2.973 -0.2946  0.5424 -0.9574
  130OSM    H5S13894   4.949   1.397   2.928 -0.3523 -1.2833  1.1236
  130OSM    C6S13895   4.844   1.416   3.115 -0.0333  0.0516  0.1073
  130OSM    H6S13896   4.909   1.327   3.126  0.9351  0.6709 -0.4527
  130OSM    H6T13897   4.739   1.386   3.132  0.5034 -2.5383 -0.7302
  130OSM    C7S13898   4.885   1.525   3.216 -0.3700  0.5554 -0.1512
  130OSM    H7S13899   4.833   1.622   3.203 -1.5498  0.0338  0.5707
  130OSM    H7T13900   4.996   1.537   3.216 -0.1079 -1.4811 -0.0550
  130OSM    C8S13901   4.845   1.482   3.358 -0.5178  0.2109  0.0400
  130OSM    H8S13902   4.742   1.520   3.374  0.0814  2.1810 -0.5053
  130OSM    H8T13903   4.912   1.545   3.420 -1.7531  1.4969  0.1261
  130OSM    C9S13904   4.868   1.334   3.388 -0.1817  0.7469 -0.2354
  130OSM    H9S13905   4.967   1.308   3.345  0.0469  0.1333  0.6325
  130OSM    H9T13906   4.789   1.277   3.334 -0.2548 -1.3873  1.9548
  130OSM   C10S13907   4.876   1.291   3.542  0.2274 -0.4755  0.0995
  130OSM   H10S13908   4.775   1.309   3.586 -0.6985  0.1113 -2.1515
  130OSM   H10T13909   4.955   1.350   3.594 -0.2088  0.5766 -0.4101
  130OSM   C11S13910   4.907   1.141   3.554  0.2688  0.3387  0.7062
  130OSM   H11S13911   5.000   1.135   3.494  1.2037  1.0268  2.0415
  130OSM   H11T13912   4.817   1.087   3.518  0.3084  0.7139  0.0134
  130OSM   C12S13913   4.947   1.097   3.698 -0.7205  0.7470 -0.0774
  130OSM   H12S13914   5.021   1.170   3.738 -0.0011  1.2802 -2.2605
  130OSM   H12T13915   5.004   1.001   3.700 -0.1938  0.9816 -1.8178
  130OSM   C13S13916   4.821   1.086   3.789  0.0411 -1.2478 -0.0658
  130OSM   H13S13917   4.741   1.022   3.746 -2.6910  1.1614  1.0515
  130OSM   H13T13918   4.789   1.193   3.794 -0.2988 -1.3234 -0.4829
  130OSM   C14S13919   4.859   1.028   3.934  0.0590 -0.4687 -0.6354
  130OSM   H14S13920   4.765   1.037   3.994 -0.2743  1.5820 -1.3852
  130OSM   H14T13921   4.929   1.093   3.989 -2.9929  0.5133  2.4295
  130OSM   C15S13922   4.901   0.883   3.950 -0.3773  0.3795 -0.0676
  130OSM   H15S13923   4.997   0.863   3.898 -0.3872  2.9115 -1.1872
  130OSM   H15T13924   4.820   0.826   3.901 -0.3336  0.0193  0.2710
  130OSM   C16S13925   4.908   0.839   4.095 -0.3393  0.1475 -0.1573
  130OSM   H16S13926   4.907   0.728   4.088 -2.2530  0.2375 -2.3948
  130OSM   H16T13927   4.816   0.861   4.152  0.2366 -0.8788  1.2405
  130OSM   C17S13928   5.028   0.899   4.175 -0.7160 -0.0800 -0.0728
  130OSM   H17S13929   5.020   1.009   4.157 -0.9557  0.5787  3.4049
  130OSM   H17T13930   5.122   0.876   4.120 -1.9670 -1.0699 -1.8930
  130OSM   C18S13931   5.036   0.844   4.323 -0.5312  0.1482  1.5779
  130OSM   H18S13932   4.952   0.888   4.382 -1.9764  0.0383 -0.3176
  130OSM   H18T13933   5.138   0.875   4.354  1.0436 -2.1754 -0.8674
  130OSM   H18U13934   5.028   0.734   4.322  2.2306 -0.1673 -1.1953
  130OSM    C1F13935   4.908   1.882   2.775  0.1145 -0.0660 -0.1859
  130OSM     OF13936   4.807   1.948   2.769 -0.5312  0.2834 -0.2142
  130OSM    C2F13937   5.040   1.951   2.798 -0.1014 -0.1095  0.5059
  130OSM    H2F13938   5.039   2.038   2.729  0.2793 -1.1834 -0.9017
  130OSM    H2G13939   5.123   1.882   2.774 -0.1895  0.5897 -2.0704
  130OSM    C3F13940   5.058   1.997   2.937 -0.5510  0.1782 -0.2483
  130OSM    H3F13941   5.012   2.094   2.965 -0.3120 -0.0498  0.9971
  130OSM    H3G13942   5.167   2.015   2.948 -0.3993 -1.3414  1.3757
  130OSM    C4F13943   5.036   1.893   3.048 -0.1628  0.6776 -0.1516
  130OSM    H4F13944   5.098   1.804   3.023  0.1151  0.6344  0.6739
  130OSM    H4G13945   4.928   1.865   3.043  0.1866 -0.8668  0.1801
  130OSM    C5F13946   5.062   1.944   3.187 -0.0982 -0.3740 -0.5125
  130OSM    H5F13947   4.990   2.027   3.202 -0.6495 -0.6825 -1.3693
  130OSM    H5G13948   5.155   2.005   3.195 -1.3781  1.4745  1.3172
  130OSM    C6F13949   5.041   1.837   3.299 -0.3424  0.8941  0.2746
  130OSM    H6F13950   5.106   1.748   3.286  0.6125  1.3891  1.4663
  130OSM    H6G13951   4.938   1.797   3.297  0.7300 -2.1880  1.7033
  130OSM    C7F13952   5.077   1.902   3.434 -0.0175  0.2015  0.1489
  130OSM    H7F13953   4.983   1.961   3.443 -0.8843 -0.9705 -0.8540
  130OSM    H7G13954   5.167   1.965   3.421  0.9563 -1.3067 -0.7369
  130OSM    C8F13955   5.081   1.800   3.547 -0.0199  0.3599 -0.1283
  130OSM    H8F13956   5.155   1.717   3.539  3.3260  3.1535 -0.3493
  130OSM    H8G13957   4.986   1.744   3.534  0.3050 -0.0056 -0.9825
  130OSM    C9F13958   5.090   1.879   3.678 -0.0260 -0.1815 -0.3700
  130OSM    H9F13959   5.042   1.978   3.678 -1.4433 -0.8149  0.8097
  130OSM   C10F13960   5.141   1.838   3.795 -1.1495  0.2444  0.0666
  130OSM   H10F13961   5.124   1.896   3.887  1.8207  0.6641  0.4499
  130OSM   C11F13962   5.223   1.711   3.825  0.1232 -0.2168 -0.0403
  130OSM   H11F13963   5.316   1.755   3.868 -0.7459 -0.6461  2.4317
  130OSM   H11G13964   5.241   1.651   3.734  0.5748  0.4803 -0.4194
  130OSM   C12F13965   5.163   1.635   3.943  0.1733  0.1834 -0.6318
  130OSM   H12F13966   5.162   1.679   4.045 -0.7335 -2.6684  0.6906
  130OSM   H12G13967   5.224   1.544   3.956 -1.3045 -0.9695 -1.4631
  130OSM   C13F13968   5.027   1.575   3.906 -0.0168  0.2781  0.2403
  130OSM   H13F13969   5.032   1.511   3.816 -1.2842  1.3583 -0.6377
  130OSM   H13G13970   4.953   1.656   3.883 -0.1102  0.1197 -0.0140
  130OSM   C14F13971   4.958   1.486   4.014  0.0452  0.4261 -0.3546
  130OSM   H14F13972   4.952   1.538   4.113 -0.1146  1.1504 -0.7389
  130OSM   H14G13973   5.022   1.400   4.044  0.4191  0.5200 -0.8734
  130OSM   C15F13974   4.817   1.449   3.985  0.0345 -0.4265 -0.3001
  130OSM   H15F13975   4.819   1.390   3.891  1.5408 -1.0307  0.0832
  130OSM   H15G13976   4.741   1.531   3.979 -1.0790 -1.4814 -1.2178
  130OSM   C16F13977   4.776   1.346   4.097  0.0544 -0.1011 -0.1977
  130OSM   H16F13978   4.768   1.393   4.197  2.1582 -2.0013  0.9431
  130OSM   H16G13979   4.851   1.267   4.115  2.4742  1.8603 -0.9631
  130OSM   C17F13980   4.641   1.283   4.072  0.6293 -0.8476  0.2707
  130OSM   H17F13981   4.648   1.218   3.982  4.1282 -2.2262  1.3662
  130OSM   H17G13982   4.568   1.364   4.051 -0.9696 -1.5629  2.7060
  130OSM   C18F13983   4.609   1.198   4.188  0.3341  0.0105 -0.4957
  130OSM   H18F13984   4.694   1.147   4.236 -0.5037 -0.1494  0.8612
  130OSM   H18G13985   4.535   1.122   4.154 -1.7675  1.3384  0.8850
  130OSM   H18H13986   4.568   1.267   4.265 -2.0247 -1.9973  0.2055
  131OSM      N13987   2.213   0.999   2.290  0.2101 -0.5233  0.7246
  131OSM    C1513988   2.218   1.134   2.226  0.1446 -0.1464 -0.4500
  131OSM   H15A13989   2.307   1.149   2.167 -0.4055 -1.0721 -1.5526
  131OSM   H15B13990   2.214   1.217   2.295 -3.1181 -0.2667 -0.3272
  131OSM   H15C13991   2.139   1.137   2.153  0.9967 -0.9978 -1.4342
  131OSM    C1413992   2.089   1.000   2.378  0.1806  0.0015 -0.3041
  131OSM   H14A13993   2.108   1.078   2.451  2.5177  0.9829 -1.8213
  131OSM   H14B13994   2.080   0.900   2.417  0.6234  0.0173 -0.1538
  131OSM   H14C13995   2.000   1.002   2.317 -0.2666 -0.6743  0.3261
  131OSM    C1313996   2.190   0.890   2.193  0.3702 -0.4392 -0.1254
  131OSM   H13A13997   2.105   0.914   2.130  0.7324 -1.4747 -1.0319
  131OSM   H13B13998   2.168   0.793   2.234 -1.3184 -0.7706 -1.6518
  131OSM   H13C13999   2.280   0.874   2.135 -0.4517 -1.0581 -1.2614
  131OSM    C1214000   2.344   0.977   2.369 -0.2024 -0.1651  0.2527
  131OSM   H12A14001   2.357   1.063   2.432 -1.8482  1.4079 -1.4249
  131OSM   H12B14002   2.428   0.996   2.305 -1.3419  1.0468 -0.9312
  131OSM    C1114003   2.359   0.838   2.436 -0.2806 -0.6750 -0.0450
  131OSM   H11A14004   2.263   0.793   2.469  0.5401 -1.0605  1.9625
  131OSM   H11B14005   2.430   0.855   2.520  1.8520  0.8490 -2.0580
  131OSM      P14006   2.441   0.597   2.405  0.3256 -0.0265  0.1560
  131OSM    O1314007   2.341   0.502   2.356 -0.6292 -0.0265  0.2668
  131OSM    O1414008   2.581   0.561   2.380 -0.1487 -0.5808  0.0960
  131OSM    O1114009   2.414   0.617   2.559 -0.2578 -0.3854 -0.7449
  131OSM    O1214010   2.418   0.741   2.344  1.1154  0.6468  0.0285
  131OSM    C1S14011   2.511   0.579   2.656  0.3373 -0.2459  0.6592
  131OSM    H1S14012   2.615   0.598   2.620  0.5070 -3.3054 -0.7692
  131OSM    H1T14013   2.524   0.469   2.659 -0.9867 -0.4674 -0.7988
  131OSM     NF14014   2.600   0.593   2.874  0.5287 -0.0442  0.1363
  131OSM    HNF14015   2.579   0.517   2.935 -1.0278 -0.8226 -1.2800
  131OSM    C2S14016   2.492   0.652   2.797  0.2028  0.2153  0.8182
  131OSM    H2S14017   2.502   0.763   2.789 -1.6070  0.4437  1.3318
  131OSM    C3S14018   2.350   0.612   2.857 -0.7064 -0.2345  0.1604
  131OSM    H3S14019   2.369   0.503   2.870  2.1052  0.1789 -0.0075
  131OSM     O314020   2.243   0.622   2.767  0.3361 -0.2439  0.3344
  131OSM    HO314021   2.285   0.636   2.682  0.8549  0.7004  0.7364
  131OSM    C4S14022   2.312   0.665   2.994  0.6218 -0.2820  0.0661
  131OSM    H4S14023   2.299   0.775   2.992 -2.6105 -0.5661  0.5784
  131OSM    C5S14024   2.287   0.597   3.109 -0.2806 -0.0715  0.2101
  131OSM    H5S14025   2.320   0.492   3.110 -0.6814 -0.2024 -0.2183
  131OSM    C6S14026   2.248   0.662   3.246  0.1465 -0.2997  0.4218
  131OSM    H6S14027   2.140   0.687   3.245  0.2708  0.2333 -0.1668
  131OSM    H6T14028   2.295   0.761   3.263 -0.5060 -0.0651  0.9020
  131OSM    C7S14029   2.290   0.571   3.357  0.4094 -0.0301  0.0132
  131OSM    H7S14030   2.401   0.579   3.362  0.3106  0.7599  1.6182
  131OSM    H7T14031   2.258   0.467   3.337 -2.2002  0.8599 -0.8977
  131OSM    C8S14032   2.242   0.635   3.490  0.1959  0.6874  0.1920
  131OSM    H8S14033   2.132   0.646   3.480  0.2847  1.0040 -0.5306
  131OSM    H8T14034   2.284   0.737   3.503  0.9834  0.1855  1.8565
  131OSM    C9S14035   2.296   0.556   3.612  0.4707  0.3724  0.5232
  131OSM    H9S14036   2.263   0.612   3.702  0.6482 -0.5457  1.1733
  131OSM    H9T14037   2.407   0.550   3.619  0.4346 -1.2534  0.0043
  131OSM   C10S14038   2.237   0.416   3.619  0.1181 -0.9123 -0.0206
  131OSM   H10S14039   2.298   0.347   3.557  0.2985 -1.0092  0.2603
  131OSM   H10T14040   2.134   0.426   3.579  0.7950  0.1183 -1.5988
  131OSM   C11S14041   2.220   0.353   3.758 -0.1607 -0.9155  0.0281
  131OSM   H11S14042   2.167   0.257   3.743 -1.3242 -0.3765  0.5641
  131OSM   H11T14043   2.161   0.424   3.820  1.3772  0.4879 -0.0375
  131OSM   C12S14044   2.353   0.339   3.829  1.3489  0.6225 -0.2671
  131OSM   H12S14045   2.400   0.438   3.842 -0.4627  1.4370  0.3855
  131OSM   H12T14046   2.411   0.278   3.756  0.6935 -0.0927 -0.2035
  131OSM   C13S14047   2.361   0.263   3.968  0.6769 -0.2574 -0.5344
  131OSM   H13S14048   2.462   0.222   3.989  0.4483 -0.3626  0.4162
  131OSM   H13T14049   2.305   0.167   3.956  0.7096 -0.5334  1.2477
  131OSM   C14S14050   2.303   0.339   4.090 -0.8100  0.2281 -0.2789
  131OSM   H14S14051   2.310   0.284   4.186  1.0103  2.4235  0.9320
  131OSM   H14T14052   2.196   0.363   4.068 -1.1546  0.2063  1.2776
  131OSM   C15S14053   2.362   0.477   4.114 -1.1655  0.0301 -0.7023
  131OSM   H15S14054   2.314   0.553   4.049 -1.8842  1.5421  1.4825
  131OSM   H15T14055   2.472   0.467   4.105 -1.3635 -2.3191 -1.0548
  131OSM   C16S14056   2.333   0.531   4.254  0.0304 -0.5753  1.0954
  131OSM   H16S14057   2.379   0.632   4.259 -0.3424 -0.2814 -0.7505
  131OSM   H16T14058   2.381   0.470   4.334  2.2385 -1.2053 -0.5925
  131OSM   C17S14059   2.183   0.548   4.288 -0.1409 -0.2296  0.1784
  131OSM   H17S14060   2.178   0.593   4.389 -0.7211  0.2250 -0.0428
  131OSM   H17T14061   2.122   0.456   4.305 -0.2711 -0.2265 -0.2581
  131OSM   C18S14062   2.107   0.650   4.206 -0.9226 -0.1103 -0.2242
  131OSM   H18S14063   2.145   0.755   4.210 -1.8763  0.2721 -0.6482
  131OSM   H18T14064   2.001   0.654   4.239 -0.1248  1.2557  2.4209
  131OSM   H18U14065   2.115   0.619   4.100 -3.1757 -0.5983 -0.2980
  131OSM    C1F14066   2.732   0.627   2.873  0.2035  0.6483  0.5957
  131OSM     OF14067   2.783   0.699   2.788  0.1986 -0.3863 -0.1705
  131OSM    C2F14068   2.817   0.566   2.981 -0.4486 -0.8325  0.0227
  131OSM    H2F14069   2.846   0.465   2.945  2.0754 -1.1322  2.5712
  131OSM    H2G14070   2.761   0.562   3.077 -0.1510 -0.5656  0.2067
  131OSM    C3F14071   2.947   0.641   3.010 -0.4600 -0.6678 -0.6650
  131OSM    H3F14072   2.915   0.742   3.043 -2.2854 -0.8639 -1.6442
  131OSM    H3G14073   3.007   0.644   2.916  0.3752 -1.0836 -0.1567
  131OSM    C4F14074   3.037   0.574   3.117  0.0954  0.0411  0.8205
  131OSM    H4F14075   3.134   0.625   3.133 -0.6154  1.7608 -0.0813
  131OSM    H4G14076   3.059   0.481   3.062 -0.4841  0.1569  0.3863
  131OSM    C5F14077   2.966   0.564   3.251 -0.4833 -0.3097  0.0816
  131OSM    H5F14078   2.878   0.497   3.239 -0.9125  0.2943 -0.2570
  131OSM    H5G14079   2.918   0.658   3.286 -3.7492 -1.8577  0.1387
  131OSM    C6F14080   3.059   0.517   3.361 -0.3661 -0.0123  0.0876
  131OSM    H6F14081   3.158   0.567   3.364  0.8233 -2.2327 -0.2269
  131OSM    H6G14082   3.079   0.409   3.345 -0.3577  0.3652 -2.8384
  131OSM    C7F14083   2.994   0.534   3.505 -0.0078 -0.5056 -0.5905
  131OSM    H7F14084   2.903   0.471   3.512 -0.9286  0.9218  0.8693
  131OSM    H7G14085   2.962   0.639   3.523  2.9071  0.5370 -0.9390
  131OSM    C8F14086   3.099   0.490   3.606 -0.4199  0.4978  0.0141
  131OSM    H8F14087   3.195   0.536   3.574  1.0794 -2.2024  0.3690
  131OSM    H8G14088   3.111   0.380   3.611  0.5416  0.6333  2.9803
  131OSM    C9F14089   3.053   0.532   3.744  0.6489 -0.0530 -0.8523
  131OSM    H9F14090   2.947   0.554   3.759  0.5687  0.4456 -2.0787
  131OSM   C10F14091   3.127   0.544   3.858  0.4457  0.2729  0.3342
  131OSM   H10F14092   3.071   0.582   3.945 -1.4404  1.5295 -1.3267
  131OSM   C11F14093   3.276   0.524   3.878  0.0217  0.1930 -1.3729
  131OSM   H11F14094   3.326   0.515   3.780  0.3530 -0.6725 -1.1384
  131OSM   H11G14095   3.304   0.426   3.923  0.4466  0.4152 -1.1450
  131OSM   C12F14096   3.346   0.633   3.967 -0.2287  0.1708 -0.2339
  131OSM   H12F14097   3.333   0.737   3.931 -2.0065  0.2985  0.6658
  131OSM   H12G14098   3.454   0.607   3.961  0.0311  0.9755  0.6398
  131OSM   C13F14099   3.303   0.620   4.110  0.1286 -0.2849 -0.2039
  131OSM   H13F14100   3.313   0.513   4.138 -2.1248 -0.1176  1.6273
  131OSM   H13G14101   3.195   0.645   4.117 -0.2218 -1.3511 -1.5262
  131OSM   C14F14102   3.384   0.701   4.204 -0.4590 -0.0728 -0.4416
  131OSM   H14F14103   3.402   0.798   4.153  0.6404  0.1180  0.2651
  131OSM   H14G14104   3.489   0.663   4.211  0.2990  2.0630  0.9331
  131OSM   C15F14105   3.319   0.712   4.342 -0.8307  0.6253  0.1411
  131OSM   H15F14106   3.230   0.778   4.345 -0.9823  0.4753 -0.8108
  131OSM   H15G14107   3.389   0.782   4.394  0.0836  0.5289 -0.9072
  131OSM   C16F14108   3.302   0.574   4.408 -0.6616 -0.0656 -0.5704
  131OSM   H16F14109   3.400   0.522   4.403 -0.6966 -0.3778  1.4003
  131OSM   H16G14110   3.234   0.512   4.345  0.3411 -1.8979  0.0921
  131OSM   C17F14111   3.246   0.574   4.548 -0.0233 -0.2579 -0.1574
  131OSM   H17F14112   3.137   0.595   4.556  0.4802  2.4356  0.5537
  131OSM   H17G14113   3.297   0.664   4.589  2.2621 -1.7356  0.3979
  131OSM   C18F14114   3.275   0.456   4.640 -0.4607 -0.1509 -0.1886
  131OSM   H18F14115   3.186   0.392   4.654 -0.7129  0.6605  2.5617
  131OSM   H18G14116   3.310   0.495   4.738  0.9037 -1.4403 -0.1331
  131OSM   H18H14117   3.360   0.401   4.594  1.4456  1.9703  0.5552
  132OSM      N14118   2.800   6.195   3.043 -0.1233  0.1855 -0.5173
  132OSM    C1514119   2.733   6.113   2.932 -0.1368 -0.2050 -0.1699
  132OSM   H15A14120   2.691   6.174   2.854  0.2971 -2.0168 -1.9245
  132OSM   H15B14121   2.658   6.050   2.978  0.9150  0.4502  2.6961
  132OSM   H15C14122   2.807   6.053   2.880 -0.7354 -1.8269  0.7689
  132OSM    C1414123   2.843   6.089   3.150 -0.0912 -0.7611 -0.1290
  132OSM   H14A14124   2.925   6.031   3.112  0.0944 -0.7779  0.2954
  132OSM   H14B14125   2.752   6.042   3.184 -1.3507  1.9014  0.4107
  132OSM   H14C14126   2.878   6.144   3.236 -1.0842 -1.8273  0.9928
  132OSM    C1314127   2.923   6.253   2.989 -0.4848 -0.1582 -0.3084
  132OSM   H13A14128   2.991   6.291   3.064  0.6911 -1.6533 -0.5598
  132OSM   H13B14129   2.904   6.324   2.911 -0.3753  0.8879  0.5959
  132OSM   H13C14130   2.987   6.180   2.943  0.6388  0.4657  0.2392
  132OSM    C1214131   2.699   6.292   3.102 -0.2450 -0.9779  0.5106
  132OSM   H12A14132   2.736   6.335   3.194 -1.5793 -0.8555  1.0026
  132OSM   H12B14133   2.608   6.241   3.131 -0.2564 -1.0767  0.3094
  132OSM    C1114134   2.663   6.416   3.004 -0.1015 -0.4409 -0.3497
  132OSM   H11A14135   2.756   6.474   2.987 -1.1207  1.8887  1.3898
  132OSM   H11B14136   2.602   6.492   3.056  2.6174  1.3761  0.3748
  132OSM      P14137   2.454   6.398   2.848 -0.2816 -0.7134  0.1241
  132OSM    O1314138   2.443   6.539   2.813  0.2213 -0.1049 -0.4023
  132OSM    O1414139   2.395   6.299   2.756  1.2590 -0.1676  0.1745
  132OSM    O1114140   2.394   6.379   2.988 -0.4329  0.4471  0.0116
  132OSM    O1214141   2.608   6.371   2.874 -0.7030 -0.2362  0.0913
  132OSM    C1S14142   2.256   6.357   3.018 -0.0971 -0.1847 -0.8710
  132OSM    H1S14143   2.202   6.301   2.939 -2.1936 -0.4463  0.6576
  132OSM    H1T14144   2.207   6.457   3.018 -0.7545 -0.5010 -0.8905
  132OSM     NF14145   2.086   6.280   3.173  0.1715 -0.5267 -0.1710
  132OSM    HNF14146   2.052   6.352   3.233  1.1138  0.4978 -0.8261
  132OSM    C2S14147   2.225   6.281   3.158 -0.2891 -0.8076  0.7640
  132OSM    H2S14148   2.265   6.178   3.143 -0.2153 -0.3979 -2.5285
  132OSM    C3S14149   2.298   6.352   3.267  0.5639  0.6301 -0.5017
  132OSM    H3S14150   2.260   6.456   3.270  0.1215  0.4678  2.2228
  132OSM     O314151   2.437   6.357   3.256 -0.3303 -0.0942 -0.1826
  132OSM    HO314152   2.446   6.385   3.165 -0.8936 -0.4722 -0.3563
  132OSM    C4S14153   2.268   6.301   3.403 -0.2734 -0.4213  0.4348
  132OSM    H4S14154   2.294   6.194   3.405 -0.8601 -0.6140 -0.7819
  132OSM    C5S14155   2.208   6.362   3.503  0.3094 -0.1001 -0.9047
  132OSM    H5S14156   2.172   6.465   3.495 -0.0196 -0.0960  0.4059
  132OSM    C6S14157   2.174   6.290   3.630  0.0935 -0.2479 -0.4745
  132OSM    H6S14158   2.247   6.323   3.708 -2.4344  1.5597  1.3063
  132OSM    H6T14159   2.177   6.179   3.621 -0.3366 -0.3339  0.3161
  132OSM    C7S14160   2.031   6.336   3.681  0.2393  0.2719  0.4974
  132OSM    H7S14161   1.957   6.316   3.601  0.5628 -1.0388  0.5008
  132OSM    H7T14162   2.021   6.445   3.702 -0.4472  0.5399 -1.0690
  132OSM    C8S14163   1.995   6.262   3.809  0.4160 -0.0994  0.7851
  132OSM    H8S14164   2.001   6.154   3.785  2.3876  0.2219 -0.4196
  132OSM    H8T14165   1.892   6.294   3.834  0.3788  2.1416 -1.7915
  132OSM    C9S14166   2.083   6.287   3.934  0.8639  0.6143 -0.2338
  132OSM    H9S14167   2.089   6.397   3.952  2.9036  0.4423  0.4222
  132OSM    H9T14168   2.189   6.260   3.915  1.0715  0.7951  0.6233
  132OSM   C10S14169   2.031   6.222   4.057 -1.0513  0.2837 -0.3190
  132OSM   H10S14170   2.010   6.116   4.031 -1.9576  0.0836  1.1108
  132OSM   H10T14171   1.936   6.257   4.103  0.2273 -1.1963  3.8902
  132OSM   C11S14172   2.136   6.224   4.178 -0.2377  0.5611 -0.6317
  132OSM   H11S14173   2.139   6.325   4.224 -0.1493 -0.4154  1.6038
  132OSM   H11T14174   2.239   6.211   4.138 -0.9862  2.2674 -3.4507
  132OSM   C12S14175   2.113   6.130   4.296 -0.1432  0.0239 -0.2592
  132OSM   H12S14176   2.118   6.021   4.274  2.4509 -0.5274  2.4967
  132OSM   H12T14177   2.013   6.142   4.343  0.2642  1.0375  0.3706
  132OSM   C13S14178   2.209   6.152   4.418  0.6869 -0.7445 -0.5309
  132OSM   H13S14179   2.203   6.261   4.439  0.3719 -0.7744 -0.4663
  132OSM   H13T14180   2.314   6.133   4.385  1.3736 -0.5596  1.3876
  132OSM   C14S14181   2.177   6.060   4.543  0.7498  0.3409  0.1926
  132OSM   H14S14182   2.182   5.950   4.527 -0.0354  0.0766  1.5672
  132OSM   H14T14183   2.068   6.079   4.555  0.9418  2.1542 -0.6659
  132OSM   C15S14184   2.263   6.105   4.660  0.0912 -0.5249 -0.1739
  132OSM   H15S14185   2.246   6.209   4.697  0.1441  0.7694 -3.4207
  132OSM   H15T14186   2.370   6.086   4.638 -0.0277 -1.1453 -0.2203
  132OSM   C16S14187   2.239   6.010   4.776 -0.0422 -0.5824 -0.5121
  132OSM   H16S14188   2.306   5.922   4.759 -0.3667 -1.0980  0.7442
  132OSM   H16T14189   2.143   5.957   4.789  1.1223 -2.3516  1.7253
  132OSM   C17S14190   2.275   6.076   4.915  0.4339  0.4866 -1.2526
  132OSM   H17S14191   2.353   6.153   4.899 -0.2814  1.4192 -0.3952
  132OSM   H17T14192   2.310   6.004   4.992  0.6634  1.6029 -0.2905
  132OSM   C18S14193   2.155   6.137   4.986  1.0860 -0.1492  0.2019
  132OSM   H18S14194   2.112   6.215   4.919  0.0286 -1.6948 -0.9722
  132OSM   H18T14195   2.166   6.169   5.092  0.4657  1.9289 -0.3016
  132OSM   H18U14196   2.075   6.061   4.999  1.0845 -0.1813  0.0054
  132OSM    C1F14197   2.004   6.211   3.104  0.8555 -0.2415  0.8159
  132OSM     OF14198   2.042   6.145   3.015  0.0157  0.0911  0.8036
  132OSM    C2F14199   1.860   6.218   3.128  0.6456  0.1007  0.0038
  132OSM    H2F14200   1.821   6.227   3.025  2.0205 -1.0369 -0.6488
  132OSM    H2G14201   1.828   6.316   3.169  2.7934  0.0552  2.0027
  132OSM    C3F14202   1.799   6.107   3.212  0.2296 -0.1791 -0.2757
  132OSM    H3F14203   1.797   6.014   3.151  2.1204 -1.2792  1.2187
  132OSM    H3G14204   1.698   6.146   3.236  0.8766  0.6605  1.2910
  132OSM    C4F14205   1.873   6.081   3.344 -0.7632 -0.1949 -0.3272
  132OSM    H4F14206   1.890   6.179   3.394 -0.8870 -0.7701  0.8694
  132OSM    H4G14207   1.976   6.039   3.337 -1.7957 -3.5732  2.2319
  132OSM    C5F14208   1.801   5.983   3.434  0.2900  0.0489 -0.0074
  132OSM    H5F14209   1.784   5.889   3.377 -2.9821  0.9774 -0.7272
  132OSM    H5G14210   1.700   6.026   3.452  0.0798 -0.9855  1.4924
  132OSM    C6F14211   1.860   5.952   3.572  0.2931 -0.1270 -0.0434
  132OSM    H6F14212   1.841   6.027   3.652 -3.3967 -1.3850  0.4693
  132OSM    H6G14213   1.971   5.944   3.568  0.2161 -2.0238  0.4908
  132OSM    C7F14214   1.801   5.822   3.626 -0.7936  0.2570 -0.2521
  132OSM    H7F14215   1.788   5.750   3.543 -0.1090  0.6641 -0.7296
  132OSM    H7G14216   1.697   5.846   3.654 -0.3628  1.5461  0.3082
  132OSM    C8F14217   1.875   5.767   3.752  0.6019 -0.3732  0.0610
  132OSM    H8F14218   1.986   5.771   3.750  0.5982  1.0353  1.1182
  132OSM    H8G14219   1.847   5.660   3.763 -1.0299  0.1879  1.9519
  132OSM    C9F14220   1.824   5.837   3.881  0.1056 -0.1315  0.5426
  132OSM    H9F14221   1.715   5.855   3.886 -0.0081  0.0009 -1.5314
  132OSM   C10F14222   1.891   5.845   3.991 -0.0751 -0.0260  0.8521
  132OSM   H10F14223   1.847   5.900   4.076  0.8754  1.5205  0.3823
  132OSM   C11F14224   2.035   5.797   4.013  0.4540 -0.1082  0.5403
  132OSM   H11F14225   2.101   5.873   4.061  1.1468 -0.9139  0.8916
  132OSM   H11G14226   2.083   5.764   3.918  0.1543 -0.3908  0.4852
  132OSM   C12F14227   2.041   5.668   4.100  0.1403  0.4745  0.5302
  132OSM   H12F14228   2.142   5.627   4.077  0.7564  1.6734  1.0463
  132OSM   H12G14229   1.966   5.600   4.054 -0.8185  2.4245 -0.9179
  132OSM   C13F14230   1.991   5.700   4.235 -0.2934  0.2692 -0.1013
  132OSM   H13F14231   1.883   5.675   4.239  0.0226 -2.3266 -3.3540
  132OSM   H13G14232   2.012   5.803   4.271  1.0031  0.3541 -1.0452
  132OSM   C14F14233   2.055   5.604   4.333  0.6006  0.5964  0.5844
  132OSM   H14F14234   2.163   5.630   4.332  0.7849 -0.1647  0.3575
  132OSM   H14G14235   2.035   5.497   4.309 -0.8787  0.4294  2.3475
  132OSM   C15F14236   1.999   5.626   4.472 -0.1852  0.3110 -0.2210
  132OSM   H15F14237   1.888   5.620   4.472 -0.5729  4.2426  1.7018
  132OSM   H15G14238   2.019   5.733   4.498 -1.7705  0.8926 -1.2362
  132OSM   C16F14239   2.075   5.529   4.561 -0.4280  0.4624 -0.5865
  132OSM   H16F14240   2.184   5.550   4.557  0.0518 -1.7972 -1.0361
  132OSM   H16G14241   2.075   5.430   4.511  0.4972  0.5265 -0.7442
  132OSM   C17F14242   2.032   5.518   4.704 -0.8636 -0.0187 -0.7239
  132OSM   H17F14243   2.035   5.620   4.750 -2.7084 -0.1490 -0.2170
  132OSM   H17G14244   2.103   5.456   4.762  0.4140  0.4969 -1.7058
  132OSM   C18F14245   1.895   5.451   4.721  0.7107 -0.5912  0.0216
  132OSM   H18F14246   1.905   5.345   4.687 -0.8041 -0.8479  0.3413
  132OSM   H18G14247   1.812   5.496   4.663 -0.9613 -0.2843  2.5211
  132OSM   H18H14248   1.862   5.448   4.826 -0.3034  0.2729 -0.2570
  133OSM      N14249   5.129   4.745   2.207 -0.2694 -0.4502  0.4084
  133OSM    C1514250   5.151   4.611   2.139 -0.6792 -0.2824  0.0315
  133OSM   H15A14251   5.217   4.619   2.054 -0.2060 -0.1688  0.4009
  133OSM   H15B14252   5.063   4.566   2.097 -0.0683 -0.2911 -1.2746
  133OSM   H15C14253   5.185   4.539   2.212 -3.1386 -1.1350  0.4172
  133OSM    C1414254   5.097   4.848   2.098 -0.5558  0.1952 -0.4099
  133OSM   H14A14255   5.000   4.833   2.053 -1.8169 -0.0457  2.1914
  133OSM   H14B14256   5.183   4.856   2.033  0.7336  0.2230  1.2285
  133OSM   H14C14257   5.085   4.947   2.137  1.1673  0.4275 -0.3897
  133OSM    C1314258   5.016   4.734   2.304  0.0260 -0.3311 -0.4084
  133OSM   H13A14259   5.006   4.633   2.341 -3.5733 -0.5586 -1.6083
  133OSM   H13B14260   4.917   4.750   2.262  0.3730 -0.0174 -1.1141
  133OSM   H13C14261   5.028   4.809   2.381 -1.0018 -1.4964  0.9337
  133OSM    C1214262   5.251   4.790   2.288  0.1296 -0.3864 -0.0283
  133OSM   H12A14263   5.338   4.793   2.224 -0.6196 -2.6874 -1.2547
  133OSM   H12B14264   5.281   4.722   2.367 -2.9473 -0.7176  0.9901
  133OSM    C1114265   5.249   4.927   2.362  0.2007  0.2419  0.3108
  133OSM   H11A14266   5.333   4.935   2.434  0.1024  0.1424  0.4377
  133OSM   H11B14267   5.154   4.936   2.420  1.1828 -0.6567  2.1551
  133OSM      P14268   5.355   5.132   2.237 -0.0417 -0.1351  0.1270
  133OSM    O1314269   5.463   5.061   2.159  0.0099  0.0803 -0.3416
  133OSM    O1414270   5.305   5.255   2.178 -0.6614  0.1255  0.6078
  133OSM    O1114271   5.419   5.166   2.368 -0.0372  0.2946 -0.1674
  133OSM    O1214272   5.245   5.032   2.271  0.0556  0.1193  0.0648
  133OSM    C1S14273   5.357   5.238   2.474  0.3027  0.8695  0.6306
  133OSM    H1S14274   5.251   5.258   2.446 -0.2113 -3.8281 -1.7496
  133OSM    H1T14275   5.406   5.335   2.499 -1.2927  1.9973 -0.3567
  133OSM     NF14276   5.269   5.207   2.719  0.1993 -0.5372 -0.6229
  133OSM    HNF14277   5.317   5.237   2.801 -2.8285  1.8383  0.4427
  133OSM    C2S14278   5.347   5.148   2.607 -0.2020 -0.4373  0.4248
  133OSM    H2S14279   5.285   5.059   2.581 -2.4692  0.4494  2.3640
  133OSM    C3S14280   5.490   5.104   2.652 -0.2454  0.8696 -0.1339
  133OSM    H3S14281   5.535   5.197   2.693 -0.6145  1.3598 -0.8275
  133OSM     O314282   5.580   5.059   2.549 -0.0780  0.8432 -0.1357
  133OSM    HO314283   5.542   5.076   2.462  0.1488 -0.3606 -0.4964
  133OSM    C4S14284   5.477   4.997   2.760  0.1928 -1.1687  0.4081
  133OSM    H4S14285   5.497   5.040   2.859  2.3430  0.7255 -0.7383
  133OSM    C5S14286   5.441   4.869   2.741  0.0575  0.2526  0.1658
  133OSM    H5S14287   5.407   4.831   2.644  0.5498  0.1838  0.0183
  133OSM    C6S14288   5.426   4.788   2.860  0.9024  0.2262 -0.0260
  133OSM    H6S14289   5.471   4.828   2.953 -3.3770  4.2450  0.7119
  133OSM    H6T14290   5.459   4.686   2.831 -1.0020  0.1031 -2.0978
  133OSM    C7S14291   5.274   4.789   2.899 -0.6448  0.2022  0.1318
  133OSM    H7S14292   5.222   4.733   2.819  1.2719  0.2761 -1.2300
  133OSM    H7T14293   5.236   4.893   2.898  0.1316  0.5027 -2.1814
  133OSM    C8S14294   5.236   4.708   3.025 -0.1051  0.2714  0.4183
  133OSM    H8S14295   5.280   4.607   3.009  3.0157  1.4112  1.1645
  133OSM    H8T14296   5.126   4.692   3.015  0.1851 -0.5499 -2.4320
  133OSM    C9S14297   5.284   4.759   3.155 -0.4801  0.3217  0.4302
  133OSM    H9S14298   5.267   4.867   3.175  0.3590  0.5035  0.1997
  133OSM    H9T14299   5.394   4.759   3.142 -0.6946 -0.6643 -2.0053
  133OSM   C10S14300   5.242   4.676   3.275  0.1861  0.4929  0.1021
  133OSM   H10S14301   5.267   4.568   3.269  2.7543  0.9801  0.9098
  133OSM   H10T14302   5.133   4.696   3.283  0.4846  2.0043  0.6180
  133OSM   C11S14303   5.289   4.719   3.409  0.4681 -0.0624 -0.6707
  133OSM   H11S14304   5.262   4.824   3.428 -1.0513 -0.4776 -0.4420
  133OSM   H11T14305   5.399   4.730   3.416  0.6717 -1.9735 -0.1845
  133OSM   C12S14306   5.229   4.639   3.530  0.5883 -0.6355 -1.1948
  133OSM   H12S14307   5.254   4.531   3.527 -1.5843 -1.2002 -0.8628
  133OSM   H12T14308   5.118   4.646   3.533  0.6205  0.6592  2.5525
  133OSM   C13S14309   5.283   4.699   3.662 -0.7242  0.2547 -0.0219
  133OSM   H13S14310   5.219   4.785   3.693 -1.6206 -0.5607  0.4637
  133OSM   H13T14311   5.383   4.745   3.655 -0.3154 -0.2608  1.7849
  133OSM   C14S14312   5.297   4.599   3.776  0.9315  0.5160  0.0562
  133OSM   H14S14313   5.356   4.513   3.739 -1.5677 -0.9487 -0.8004
  133OSM   H14T14314   5.193   4.568   3.802  0.4504 -0.5988 -2.8113
  133OSM   C15S14315   5.370   4.663   3.893 -0.0795 -0.0236 -0.4835
  133OSM   H15S14316   5.315   4.756   3.917  0.9842  0.7670 -1.0303
  133OSM   H15T14317   5.476   4.684   3.867 -0.3876  0.9177 -0.9968
  133OSM   C16S14318   5.364   4.577   4.019 -0.3569  0.6514 -0.6421
  133OSM   H16S14319   5.284   4.501   4.006 -0.6767  1.1306 -1.5341
  133OSM   H16T14320   5.348   4.641   4.108  4.0509  1.2583 -0.0901
  133OSM   C17S14321   5.493   4.499   4.044  0.0698 -0.0589  0.0066
  133OSM   H17S14322   5.574   4.568   4.078  0.5542 -0.6435  0.0531
  133OSM   H17T14323   5.525   4.442   3.954 -0.7902 -0.9313  0.2388
  133OSM   C18S14324   5.472   4.388   4.148  0.4391  0.4344 -0.2357
  133OSM   H18S14325   5.554   4.315   4.164 -1.4579 -1.8183 -0.2020
  133OSM   H18T14326   5.399   4.318   4.102  0.3497 -1.1550  2.1778
  133OSM   H18U14327   5.435   4.431   4.243  2.6338  0.4234  0.6778
  133OSM    C1F14328   5.142   5.250   2.706 -0.2500  0.4496  0.5042
  133OSM     OF14329   5.075   5.205   2.610 -0.8383  0.4403 -0.9112
  133OSM    C2F14330   5.090   5.344   2.805  0.0076  0.1342  0.3360
  133OSM    H2F14331   5.020   5.408   2.749  2.7732  1.1365 -2.2580
  133OSM    H2G14332   5.166   5.414   2.846 -0.0228  0.5967 -0.3913
  133OSM    C3F14333   5.016   5.281   2.926  0.0622 -0.0225 -0.2343
  133OSM    H3F14334   5.092   5.234   2.992  2.4750  0.4731 -2.5178
  133OSM    H3G14335   4.954   5.195   2.893  2.2004 -1.8222  0.1753
  133OSM    C4F14336   4.938   5.382   3.007 -0.0074  0.0676  0.1850
  133OSM    H4F14337   4.863   5.325   3.066 -0.0149  1.7704  1.8992
  133OSM    H4G14338   4.890   5.452   2.935 -1.9304  1.1345  2.3575
  133OSM    C5F14339   5.003   5.468   3.115 -0.0778  0.2561 -0.1399
  133OSM    H5F14340   5.070   5.541   3.064 -0.5903  1.5399  0.9741
  133OSM    H5G14341   5.059   5.401   3.183  0.0461 -1.1424 -1.5506
  133OSM    C6F14342   4.882   5.547   3.187 -0.5874 -0.3509  0.6033
  133OSM    H6F14343   4.831   5.469   3.247 -2.4362 -0.5587 -1.1276
  133OSM    H6G14344   4.816   5.582   3.104 -0.0670 -0.6627  0.0512
  133OSM    C7F14345   4.920   5.659   3.289  0.2278  1.0528  0.1024
  133OSM    H7F14346   4.848   5.744   3.286  0.0527  1.1218  3.3451
  133OSM    H7G14347   5.024   5.685   3.258  0.9289 -2.5995 -1.0829
  133OSM    C8F14348   4.939   5.603   3.431 -0.4569 -0.0409  0.5973
  133OSM    H8F14349   4.988   5.678   3.496 -2.8990 -0.3069  2.9015
  133OSM    H8G14350   4.991   5.504   3.429  0.2632  0.3287 -1.2397
  133OSM    C9F14351   4.808   5.559   3.487 -0.2421 -0.3147  0.4995
  133OSM    H9F14352   4.734   5.508   3.424  0.9052  0.3169 -1.4247
  133OSM   C10F14353   4.759   5.574   3.614  0.0223  0.3358 -0.2333
  133OSM   H10F14354   4.656   5.540   3.630 -1.6610  3.0528 -3.7897
  133OSM   C11F14355   4.837   5.631   3.731 -0.0653  0.0725 -0.5537
  133OSM   H11F14356   4.806   5.735   3.753 -0.2201  0.0481 -0.6499
  133OSM   H11G14357   4.947   5.626   3.718  0.2195 -2.3693  1.8698
  133OSM   C12F14358   4.814   5.561   3.866 -1.1063  0.4420 -0.0192
  133OSM   H12F14359   4.859   5.460   3.860 -1.6440  0.1368  0.8991
  133OSM   H12G14360   4.703   5.560   3.874 -1.1925  2.4437 -0.4544
  133OSM   C13F14361   4.885   5.634   3.981 -0.1876  0.0787  0.2636
  133OSM   H13F14362   4.994   5.630   3.958 -0.4141 -0.9715 -0.7255
  133OSM   H13G14363   4.869   5.563   4.065 -1.4584 -0.8847 -0.7511
  133OSM   C14F14364   4.826   5.763   4.026 -0.2553 -0.1510 -0.0645
  133OSM   H14F14365   4.716   5.767   4.017 -0.2971  0.6871  0.7177
  133OSM   H14G14366   4.862   5.834   3.949 -1.3987  1.8072  1.1304
  133OSM   C15F14367   4.875   5.811   4.161  0.3172  0.3296  0.2173
  133OSM   H15F14368   4.986   5.824   4.165  0.4030 -0.5366  0.8982
  133OSM   H15G14369   4.856   5.731   4.236  0.4174 -0.0910 -0.2021
  133OSM   C16F14370   4.826   5.947   4.216 -0.1432  1.1855  0.1960
  133OSM   H16F14371   4.715   5.951   4.217 -0.3705 -1.8331 -1.3939
  133OSM   H16G14372   4.878   6.014   4.145  1.4526 -0.7881 -0.5764
  133OSM   C17F14373   4.876   5.970   4.357 -0.2458 -0.3515 -0.2446
  133OSM   H17F14374   4.872   6.079   4.377 -0.6481 -0.5805  0.9623
  133OSM   H17G14375   4.987   5.959   4.359 -0.1756  0.4419  1.4022
  133OSM   C18F14376   4.820   5.881   4.461  0.5083  0.4485  0.7254
  133OSM   H18F14377   4.713   5.910   4.470  0.3427  0.0076  0.2067
  133OSM   H18G14378   4.854   5.896   4.566 -0.5546  1.0509  1.0066
  133OSM   H18H14379   4.825   5.773   4.438  2.0041  0.8729 -1.1410
  134OSM      N14380   0.506   2.608   2.691  0.5663 -0.0933  0.0088
  134OSM    C1514381   0.468   2.730   2.620 -0.0933 -0.1633  0.0709
  134OSM   H15A14382   0.551   2.799   2.613  0.8859 -1.3074  0.1855
  134OSM   H15B14383   0.382   2.781   2.662 -1.9438  0.1256 -3.7141
  134OSM   H15C14384   0.454   2.699   2.518 -1.0065  2.2727 -0.6250
  134OSM    C1414385   0.397   2.509   2.687 -0.7716  0.0168  0.1300
  134OSM   H14A14386   0.441   2.412   2.707  0.6137  0.0633 -2.2867
  134OSM   H14B14387   0.366   2.498   2.584 -0.0707  0.3858 -0.1195
  134OSM   H14C14388   0.302   2.528   2.734  0.0648  0.6082  1.6304
  134OSM    C1314389   0.631   2.563   2.622 -0.6834 -0.6064 -0.4444
  134OSM   H13A14390   0.606   2.533   2.522 -1.5310 -0.7986 -0.1777
  134OSM   H13B14391   0.671   2.481   2.679 -1.3762 -0.8699 -0.3290
  134OSM   H13C14392   0.708   2.639   2.633 -0.8944 -0.4542  0.0128
  134OSM    C1214393   0.537   2.637   2.839 -0.5423 -0.3022 -0.2419
  134OSM   H12A14394   0.451   2.686   2.881  0.4835  0.1073  1.4551
  134OSM   H12B14395   0.620   2.707   2.840  0.4187 -1.4132  0.0722
  134OSM    C1114396   0.589   2.522   2.933  0.4581 -0.5449 -0.4256
  134OSM   H11A14397   0.502   2.463   2.971  0.2312  1.0346  1.6975
  134OSM   H11B14398   0.636   2.568   3.022 -0.6108  3.3355 -1.6597
  134OSM      P14399   0.703   2.290   2.891  0.1752 -0.0403 -0.1149
  134OSM    O1314400   0.614   2.207   2.804  0.4130 -0.2861  0.2465
  134OSM    O1414401   0.847   2.257   2.872  0.4658 -0.4934  0.1739
  134OSM    O1114402   0.665   2.271   3.046  0.3848  0.4088  0.0120
  134OSM    O1214403   0.685   2.442   2.871  0.6209  0.3405  0.4775
  134OSM    C1S14404   0.652   2.138   3.101 -0.5900 -0.2727  0.8313
  134OSM    H1S14405   0.747   2.082   3.090 -0.4183  0.2639 -0.5839
  134OSM    H1T14406   0.572   2.076   3.055  0.6325  0.2818 -2.2513
  134OSM     NF14407   0.643   2.009   3.306  0.8250  0.5964  0.2746
  134OSM    HNF14408   0.557   1.973   3.342 -0.2999  1.0925 -1.7848
  134OSM    C2S14409   0.628   2.141   3.253  0.7309 -0.4637  0.2093
  134OSM    H2S14410   0.703   2.213   3.290 -0.0865  0.6007 -0.1286
  134OSM    C3S14411   0.485   2.208   3.278 -0.6032 -0.2181 -0.2458
  134OSM    H3S14412   0.405   2.131   3.272 -2.1567  1.0044  2.8024
  134OSM     O314413   0.453   2.303   3.181  0.1659 -0.2105 -0.4507
  134OSM    HO314414   0.504   2.289   3.101 -0.6836 -0.8385 -0.8969
  134OSM    C4S14415   0.473   2.255   3.422  0.5005 -0.0105  0.8428
  134OSM    H4S14416   0.440   2.177   3.492 -2.0767 -1.4065 -1.7259
  134OSM    C5S14417   0.493   2.377   3.469  0.2927 -0.2166  0.1279
  134OSM    H5S14418   0.521   2.460   3.402  0.9776  0.5658  1.3547
  134OSM    C6S14419   0.480   2.427   3.618  0.2354 -0.1501 -0.1393
  134OSM    H6S14420   0.452   2.340   3.681 -0.1817 -1.3722 -1.9194
  134OSM    H6T14421   0.400   2.504   3.613  1.8305  1.5176 -1.4846
  134OSM    C7S14422   0.610   2.503   3.673  0.4527  0.4397  0.3002
  134OSM    H7S14423   0.628   2.583   3.598 -0.3437  0.6322  0.3002
  134OSM    H7T14424   0.695   2.432   3.680  0.5433  0.5179 -0.0027
  134OSM    C8S14425   0.599   2.558   3.815  0.0443 -0.6207 -0.3108
  134OSM    H8S14426   0.616   2.466   3.875  0.6414  0.3751  1.1054
  134OSM    H8T14427   0.491   2.586   3.818 -0.0735 -0.8104 -1.9235
  134OSM    C9S14428   0.693   2.678   3.846 -0.0348  0.7193  0.0701
  134OSM    H9S14429   0.639   2.749   3.913 -0.7831 -0.1282  0.3793
  134OSM    H9T14430   0.734   2.730   3.757  1.3116 -1.0005 -0.3633
  134OSM   C10S14431   0.816   2.633   3.929  0.2321 -0.9337  0.2133
  134OSM   H10S14432   0.850   2.532   3.897 -0.8050 -1.5306  0.9360
  134OSM   H10T14433   0.777   2.637   4.033 -1.5634  1.5852 -0.4668
  134OSM   C11S14434   0.935   2.730   3.918 -0.7284  0.4685 -0.3457
  134OSM   H11S14435   0.897   2.826   3.957  0.6252  1.5438 -1.5706
  134OSM   H11T14436   0.954   2.751   3.811 -0.3408  0.7214 -0.2290
  134OSM   C12S14437   1.062   2.690   3.995 -0.1078  0.0868  0.0680
  134OSM   H12S14438   1.148   2.745   3.951  1.1145 -1.9308 -0.1712
  134OSM   H12T14439   1.095   2.585   3.980  0.7927 -0.0583  2.6264
  134OSM   C13S14440   1.054   2.723   4.146  0.2058 -0.7622 -0.2248
  134OSM   H13S14441   0.968   2.664   4.184 -0.3922 -0.7892 -1.5383
  134OSM   H13T14442   1.039   2.833   4.160  3.2361 -0.4315  1.1714
  134OSM   C14S14443   1.172   2.674   4.224 -0.1943  0.6269 -0.2536
  134OSM   H14S14444   1.248   2.750   4.197  0.8177 -0.0306  0.6396
  134OSM   H14T14445   1.194   2.570   4.194 -2.6464  0.2931 -1.0493
  134OSM   C15S14446   1.152   2.688   4.376  0.0611  0.0890 -0.3203
  134OSM   H15S14447   1.070   2.636   4.429  0.8411 -0.0114  0.8348
  134OSM   H15T14448   1.120   2.793   4.393 -1.4651 -0.4964  0.6393
  134OSM   C16S14449   1.279   2.683   4.463  0.1294 -0.1273 -0.2328
  134OSM   H16S14450   1.356   2.758   4.437  0.8200 -0.9850 -0.7219
  134OSM   H16T14451   1.319   2.582   4.436  0.4162  0.9277 -4.3868
  134OSM   C17S14452   1.280   2.689   4.618  0.3793 -0.5933 -0.7027
  134OSM   H17S14453   1.383   2.726   4.640 -0.1813  1.8820 -1.8727
  134OSM   H17T14454   1.250   2.594   4.666 -1.1169  0.1650 -0.0778
  134OSM   C18S14455   1.177   2.790   4.663 -0.2095  0.7268  0.7585
  134OSM   H18S14456   1.197   2.892   4.624  2.3312  0.2363  0.6072
  134OSM   H18T14457   1.190   2.785   4.773  1.2429 -0.7143  0.5528
  134OSM   H18U14458   1.074   2.760   4.634  0.4983  0.0462 -1.2656
  134OSM    C1F14459   0.751   1.943   3.311 -0.7112 -0.0257  0.5372
  134OSM     OF14460   0.855   2.012   3.306 -0.4899  0.4521  0.4407
  134OSM    C2F14461   0.749   1.793   3.338 -0.0452 -1.1795 -0.2311
  134OSM    H2F14462   0.791   1.737   3.252 -0.7258 -2.2691  0.1180
  134OSM    H2G14463   0.641   1.766   3.339 -1.1840  2.7016  0.4322
  134OSM    C3F14464   0.821   1.765   3.473 -0.2774  0.4386 -0.0785
  134OSM    H3F14465   0.921   1.815   3.472  0.6798 -1.3805 -1.4568
  134OSM    H3G14466   0.847   1.657   3.480  1.2255  0.8205  0.5778
  134OSM    C4F14467   0.741   1.817   3.588 -0.1603 -0.0406  0.1778
  134OSM    H4F14468   0.643   1.767   3.576 -1.0663  1.7295 -0.1602
  134OSM    H4G14469   0.721   1.926   3.579 -2.5681 -0.3689  0.7889
  134OSM    C5F14470   0.791   1.794   3.732  0.4145 -0.0174  0.3219
  134OSM    H5F14471   0.895   1.834   3.728  0.5737 -0.5137 -2.1619
  134OSM    H5G14472   0.803   1.685   3.753 -0.7232  0.1057  1.7554
  134OSM    C6F14473   0.709   1.856   3.856 -0.0171  0.0739  0.1069
  134OSM    H6F14474   0.600   1.834   3.851  0.3956 -1.9539 -1.7942
  134OSM    H6G14475   0.717   1.966   3.848  0.3258  0.0083 -0.4613
  134OSM    C7F14476   0.769   1.814   3.991 -0.0085 -0.5908  0.1652
  134OSM    H7F14477   0.876   1.842   3.996  0.0659 -0.8160 -0.0935
  134OSM    H7G14478   0.757   1.704   4.006 -2.8580 -0.2138  1.2362
  134OSM    C8F14479   0.691   1.882   4.111  0.9849 -0.5684  0.3732
  134OSM    H8F14480   0.708   1.992   4.105 -1.8503 -0.0921 -0.3798
  134OSM    H8G14481   0.749   1.847   4.199 -0.6815 -0.3682  1.5948
  134OSM    C9F14482   0.543   1.856   4.111  0.3396  0.5370  0.4156
  134OSM    H9F14483   0.488   1.890   4.022 -0.7436  1.0138  1.2379
  134OSM   C10F14484   0.472   1.809   4.212  0.2025 -0.6527  0.1101
  134OSM   H10F14485   0.368   1.781   4.188  0.1806 -1.0170  0.5972
  134OSM   C11F14486   0.514   1.772   4.349  0.1578 -1.1429 -0.7459
  134OSM   H11F14487   0.419   1.784   4.405  1.0601 -0.2923  0.6578
  134OSM   H11G14488   0.595   1.833   4.394 -0.4451  0.3806 -1.6240
  134OSM   C12F14489   0.553   1.619   4.357 -0.1067  0.0703  0.8372
  134OSM   H12F14490   0.650   1.607   4.305 -1.0882  0.5821 -1.2085
  134OSM   H12G14491   0.478   1.561   4.300 -1.2765  2.2011  0.0881
  134OSM   C13F14492   0.577   1.576   4.499  0.4931  0.9965 -0.1131
  134OSM   H13F14493   0.557   1.664   4.564 -1.5747  1.5661 -1.4313
  134OSM   H13G14494   0.683   1.545   4.514 -0.1106 -2.2957 -1.6772
  134OSM   C14F14495   0.498   1.448   4.528 -0.2201 -0.1984  0.0328
  134OSM   H14F14496   0.541   1.353   4.491  0.1957 -1.0838  2.5929
  134OSM   H14G14497   0.404   1.457   4.469 -0.0886 -1.0187 -0.3050
  134OSM   C15F14498   0.445   1.424   4.677 -0.3864 -0.1872 -0.1701
  134OSM   H15F14499   0.532   1.440   4.745  0.3114  1.4616 -1.3838
  134OSM   H15G14500   0.409   1.320   4.694 -1.4124  0.1923  0.0371
  134OSM   C16F14501   0.350   1.541   4.718 -0.2051 -0.2850  0.1129
  134OSM   H16F14502   0.273   1.555   4.638 -1.5768  0.4079  1.4980
  134OSM   H16G14503   0.415   1.631   4.721 -0.5114 -0.0683  0.3069
  134OSM   C17F14504   0.270   1.515   4.849 -0.0064 -0.3608  0.1796
  134OSM   H17F14505   0.189   1.442   4.832  0.9737 -1.2955 -0.6102
  134OSM   H17G14506   0.221   1.610   4.879 -2.5067 -1.0098 -1.5198
  134OSM   C18F14507   0.343   1.442   4.965  0.2433  0.4217  0.2324
  134OSM   H18F14508   0.435   1.502   4.980 -0.0289  1.2145 -1.0845
  134OSM   H18G14509   0.372   1.338   4.941 -2.0716 -0.3278  0.3897
  134OSM   H18H14510   0.286   1.447   5.060  0.1888  3.0508  0.1479
  135OSM      N14511   1.297   0.777   2.267 -0.1845 -1.0248 -0.4976
  135OSM    C1514512   1.373   0.907   2.280  0.4075 -0.2562 -0.2855
  135OSM   H15A14513   1.347   0.961   2.191 -2.4118 -1.7612 -0.4878
  135OSM   H15B14514   1.480   0.893   2.287  0.5031 -0.0168 -1.2030
  135OSM   H15C14515   1.337   0.959   2.368 -0.7817 -0.2431 -0.7602
  135OSM    C1414516   1.176   0.803   2.189 -0.0142 -0.7272  0.4554
  135OSM   H14A14517   1.199   0.809   2.083  1.0500 -1.6238  0.6145
  135OSM   H14B14518   1.121   0.885   2.233  0.2223 -0.1861 -0.2253
  135OSM   H14C14519   1.120   0.711   2.188 -0.6177 -0.3738  1.4074
  135OSM    C1314520   1.385   0.675   2.204 -0.3269  0.1963 -0.2097
  135OSM   H13A14521   1.473   0.669   2.266  0.0907 -0.5987 -0.8695
  135OSM   H13B14522   1.413   0.705   2.104  0.8791 -2.4485 -0.7452
  135OSM   H13C14523   1.345   0.575   2.200  0.9166 -0.3820  0.9539
  135OSM    C1214524   1.254   0.735   2.407 -0.4985 -0.2769 -0.9228
  135OSM   H12A14525   1.196   0.644   2.406  1.2126 -1.4071 -1.1681
  135OSM   H12B14526   1.195   0.815   2.449 -0.0821 -0.3399 -0.2026
  135OSM    C1114527   1.359   0.704   2.518  0.2769 -0.0464  0.0504
  135OSM   H11A14528   1.435   0.629   2.484 -0.7310 -1.4135  0.7187
  135OSM   H11B14529   1.312   0.651   2.603 -0.0574  0.8099  0.3997
  135OSM      P14530   1.394   0.926   2.654  0.1421  0.0400  0.0026
  135OSM    O1314531   1.484   1.046   2.647 -0.5823 -0.2268 -0.9302
  135OSM    O1414532   1.250   0.950   2.623 -0.1227 -0.3527 -0.2203
  135OSM    O1114533   1.406   0.848   2.792  0.3392  0.3364  0.0977
  135OSM    O1214534   1.432   0.826   2.553 -0.2070  0.4187  0.1137
  135OSM    C1S14535   1.523   0.787   2.838 -0.2769  0.1680 -0.4453
  135OSM    H1S14536   1.601   0.865   2.850  0.4387 -0.8554  2.0454
  135OSM    H1T14537   1.553   0.704   2.770 -4.2042  0.7814 -3.3258
  135OSM     NF14538   1.620   0.705   3.049 -0.0792 -0.2273 -0.3474
  135OSM    HNF14539   1.661   0.615   3.055  1.8068  0.5871 -0.3723
  135OSM    C2S14540   1.493   0.732   2.976  0.2685  0.2863 -0.0227
  135OSM    H2S14541   1.437   0.806   3.037 -1.7081 -0.2906 -1.0460
  135OSM    C3S14542   1.412   0.603   2.958 -0.0429 -0.2611  1.0677
  135OSM    H3S14543   1.474   0.528   2.906  1.8947  0.0681  2.7832
  135OSM     O314544   1.301   0.615   2.868 -0.2467 -0.0311  0.1673
  135OSM    HO314545   1.305   0.705   2.835  0.3380 -0.2845 -0.4855
  135OSM    C4S14546   1.368   0.548   3.091  0.1242 -0.4420  0.0897
  135OSM    H4S14547   1.429   0.467   3.133  1.3952  1.1379  1.3996
  135OSM    C5S14548   1.282   0.607   3.175  0.1483 -0.4793 -0.1671
  135OSM    H5S14549   1.251   0.710   3.151 -1.6610 -0.8988  0.1702
  135OSM    C6S14550   1.263   0.561   3.316 -0.4640  0.3001 -0.2778
  135OSM    H6S14551   1.206   0.467   3.324 -0.0703  0.2131  3.1382
  135OSM    H6T14552   1.207   0.636   3.376 -3.0740 -3.2291  2.1220
  135OSM    C7S14553   1.387   0.522   3.394 -0.6132  0.0438  0.0727
  135OSM    H7S14554   1.470   0.593   3.373  0.3201 -0.8779  0.5779
  135OSM    H7T14555   1.434   0.423   3.375 -0.2683  0.6156 -2.3604
  135OSM    C8S14556   1.354   0.519   3.550  0.6356 -0.1851 -0.3533
  135OSM    H8S14557   1.249   0.484   3.562  1.4573 -2.6152  0.4579
  135OSM    H8T14558   1.357   0.624   3.584 -1.0115 -0.2053 -0.1013
  135OSM    C9S14559   1.436   0.431   3.639 -0.4916 -0.0685  0.1703
  135OSM    H9S14560   1.544   0.454   3.637 -0.7020  1.2175  1.6884
  135OSM    H9T14561   1.424   0.325   3.606  1.5988 -0.8198  1.6799
  135OSM   C10S14562   1.381   0.428   3.780  0.1267  0.4690  0.5188
  135OSM   H10S14563   1.270   0.423   3.772 -0.0292  2.2197  1.0341
  135OSM   H10T14564   1.394   0.525   3.834 -0.4818  1.3141 -0.7941
  135OSM   C11S14565   1.443   0.325   3.870  0.8737 -0.2518  0.5972
  135OSM   H11S14566   1.548   0.355   3.886  0.9797 -0.0377 -0.4126
  135OSM   H11T14567   1.422   0.228   3.818 -1.6460  1.2220 -1.3995
  135OSM   C12S14568   1.364   0.318   4.002 -0.2753 -0.3229 -0.2612
  135OSM   H12S14569   1.254   0.310   3.989 -0.7781  1.0296  2.4266
  135OSM   H12T14570   1.372   0.416   4.052  0.3762 -0.2749 -0.4402
  135OSM   C13S14571   1.415   0.215   4.104 -0.3820 -0.6085  0.0375
  135OSM   H13S14572   1.522   0.243   4.102 -0.4366 -0.3620 -2.6614
  135OSM   H13T14573   1.399   0.112   4.067 -2.7244  0.3079 -1.8232
  135OSM   C14S14574   1.357   0.224   4.241  1.0289 -0.2638  0.2147
  135OSM   H14S14575   1.248   0.202   4.241  0.4152  2.3377 -0.6838
  135OSM   H14T14576   1.362   0.329   4.278 -1.6757 -0.2524  0.7747
  135OSM   C15S14577   1.425   0.145   4.352 -0.1734 -0.1609  0.4939
  135OSM   H15S14578   1.420   0.190   4.453 -0.0172  0.9597  0.0135
  135OSM   H15T14579   1.531   0.162   4.323 -0.3907 -1.7650 -1.5051
  135OSM   C16S14580   1.404  -0.002   4.352 -0.1730  0.5051 -0.2226
  135OSM   H16S14581   1.489  -0.059   4.308  0.0176  0.7619 -0.1853
  135OSM   H16T14582   1.308  -0.029   4.302  0.2028 -1.7847  0.1503
  135OSM   C17S14583   1.384  -0.057   4.499  0.0950  0.6413 -0.4689
  135OSM   H17S14584   1.297  -0.005   4.543 -0.9026 -1.2985 -0.0194
  135OSM   H17T14585   1.477  -0.029   4.553  1.7168 -1.0190 -2.2249
  135OSM   C18S14586   1.341  -0.201   4.502 -1.0897  0.5374  0.3154
  135OSM   H18S14587   1.332  -0.233   4.608 -0.6557  1.9110  0.7902
  135OSM   H18T14588   1.418  -0.261   4.451 -1.9217 -1.1698  0.9791
  135OSM   H18U14589   1.243  -0.209   4.450 -0.6968 -0.5364 -0.2902
  135OSM    C1F14590   1.699   0.809   3.081 -0.5574  0.7813 -0.2554
  135OSM     OF14591   1.654   0.924   3.084  0.8194 -0.0115  0.2214
  135OSM    C2F14592   1.848   0.788   3.108  0.0052  0.3010  0.5379
  135OSM    H2F14593   1.895   0.772   3.008 -1.4036 -0.8848  0.0420
  135OSM    H2G14594   1.853   0.696   3.169  1.1603 -0.4974 -0.7024
  135OSM    C3F14595   1.908   0.914   3.177 -0.8990  0.5281  1.1767
  135OSM    H3F14596   1.892   1.003   3.113 -0.2025 -0.4856 -0.4586
  135OSM    H3G14597   2.018   0.903   3.182 -0.9018 -2.0699 -1.7328
  135OSM    C4F14598   1.865   0.932   3.325 -0.9771  0.3945  0.0103
  135OSM    H4F14599   1.788   0.856   3.351 -2.0930  1.4007 -0.2614
  135OSM    H4G14600   1.822   1.034   3.333  1.1865  1.4092 -0.5241
  135OSM    C5F14601   1.986   0.932   3.423 -0.8108 -0.2177 -0.4786
  135OSM    H5F14602   2.070   0.998   3.392 -0.2570 -0.9307 -0.5154
  135OSM    H5G14603   2.040   0.835   3.416  1.7656  1.1585 -1.3822
  135OSM    C6F14604   1.943   0.971   3.567 -0.8454 -0.0603 -0.3798
  135OSM    H6F14605   1.870   0.895   3.602  1.6485 -2.8830 -0.8803
  135OSM    H6G14606   1.907   1.076   3.559 -1.7417 -0.3004  0.3932
  135OSM    C7F14607   2.064   0.967   3.661 -0.2444  0.0687  0.0254
  135OSM    H7F14608   2.136   1.048   3.638 -0.1616  1.4104  4.1740
  135OSM    H7G14609   2.109   0.866   3.648 -0.1837  0.2991 -2.0015
  135OSM    C8F14610   2.033   0.976   3.814  0.1357  0.3244  0.6671
  135OSM    H8F14611   2.130   0.986   3.867 -0.5084 -1.4146  2.2947
  135OSM    H8G14612   1.986   0.881   3.846 -0.8884  0.4560 -0.4019
  135OSM    C9F14613   1.944   1.091   3.853 -0.2634 -0.5054  0.1855
  135OSM    H9F14614   1.891   1.138   3.769 -0.4288 -1.2520 -0.1339
  135OSM   C10F14615   1.909   1.119   3.984 -0.5145  0.1621  0.1283
  135OSM   H10F14616   1.845   1.208   3.985 -1.0526 -0.2085 -0.6571
  135OSM   C11F14617   1.973   1.050   4.107  0.4230 -0.0128 -0.0577
  135OSM   H11F14618   2.064   1.100   4.146  0.2609  0.1382  0.1265
  135OSM   H11G14619   2.004   0.946   4.083  3.1519  0.2756  1.8225
  135OSM   C12F14620   1.874   1.033   4.223 -0.0646  0.2278 -0.0473
  135OSM   H12F14621   1.899   0.936   4.272 -0.5703  0.1204  0.0070
  135OSM   H12G14622   1.770   1.020   4.185 -0.6778  1.4690  1.1412
  135OSM   C13F14623   1.875   1.143   4.326  0.2112  0.3963  0.3066
  135OSM   H13F14624   1.848   1.239   4.277  2.0885  0.8020 -0.0128
  135OSM   H13G14625   1.980   1.165   4.357  0.6999  1.9166 -2.1293
  135OSM   C14F14626   1.794   1.106   4.448 -0.5786 -0.2303  0.2479
  135OSM   H14F14627   1.832   1.010   4.491  3.0314  0.9406  0.0081
  135OSM   H14G14628   1.689   1.094   4.415 -0.3028  3.1111 -2.3166
  135OSM   C15F14629   1.794   1.215   4.557 -0.5258 -0.0128 -0.1122
  135OSM   H15F14630   1.708   1.280   4.529 -0.5279  0.0068 -0.0594
  135OSM   H15G14631   1.886   1.277   4.564 -1.9732  2.0408  1.9315
  135OSM   C16F14632   1.788   1.162   4.702  0.7504 -0.2624  0.2622
  135OSM   H16F14633   1.876   1.095   4.715 -1.4757 -3.3003  0.9952
  135OSM   H16G14634   1.701   1.097   4.727  2.7451 -2.7033  1.4422
  135OSM   C17F14635   1.788   1.274   4.812 -0.0564  0.0897 -0.5453
  135OSM   H17F14636   1.884   1.328   4.811 -0.9072  1.7589  1.5010
  135OSM   H17G14637   1.780   1.226   4.912 -0.7745  1.1553 -0.0730
  135OSM   C18F14638   1.682   1.380   4.785 -0.7958  0.2889  1.0483
  135OSM   H18F14639   1.585   1.329   4.769  0.3332 -1.9612  1.0164
  135OSM   H18G14640   1.687   1.454   4.702  0.8693 -0.5509  0.3507
  135OSM   H18H14641   1.666   1.437   4.879 -1.9593  0.6357  0.6548
  136OSM      N14642   5.918   2.488   2.618  0.2566  0.0543  0.1788
  136OSM    C1514643   5.800   2.431   2.546 -0.9457 -0.2014 -0.0971
  136OSM   H15A14644   5.828   2.400   2.446  1.4829  1.6046 -0.0625
  136OSM   H15B14645   5.721   2.502   2.524 -1.1551 -0.7548 -1.2194
  136OSM   H15C14646   5.744   2.356   2.599 -0.5079 -1.0381 -0.7915
  136OSM    C1414647   5.890   2.465   2.765 -0.0608 -1.0946 -0.7489
  136OSM   H14A14648   5.865   2.361   2.782  0.0903 -0.9751  0.2930
  136OSM   H14B14649   5.813   2.526   2.811  1.5937 -0.6888  1.7328
  136OSM   H14C14650   5.975   2.488   2.827 -2.5232  2.6266  1.7090
  136OSM    C1314651   6.039   2.403   2.582  0.0452  0.5286 -0.1756
  136OSM   H13A14652   6.026   2.309   2.634 -0.3073  0.2890 -0.6803
  136OSM   H13B14653   6.134   2.445   2.610  0.3039 -0.4112  0.4020
  136OSM   H13C14654   6.034   2.397   2.474 -1.1639  0.5474 -0.1352
  136OSM    C1214655   5.943   2.634   2.587 -0.3157 -0.1865  0.7192
  136OSM   H12A14656   5.858   2.687   2.626  0.5201 -0.2618  2.7850
  136OSM   H12B14657   5.938   2.649   2.480 -0.1417  2.5320  1.0315
  136OSM    C1114658   6.066   2.709   2.653 -0.2041  0.1445  0.2914
  136OSM   H11A14659   6.066   2.808   2.603 -0.5356 -1.5001 -3.1853
  136OSM   H11B14660   6.154   2.643   2.640  1.5256  1.9990  1.8464
  136OSM      P14661   5.933   2.821   2.843  0.2423 -0.0186 -0.3311
  136OSM    O1314662   6.009   2.946   2.870  0.0738 -0.3660 -0.1481
  136OSM    O1414663   5.820   2.826   2.750  0.1456 -0.0231  0.0015
  136OSM    O1114664   5.882   2.750   2.971 -0.1614 -0.4919  0.4398
  136OSM    O1214665   6.036   2.711   2.790  0.3834 -0.5833  0.0796
  136OSM    C1S14666   5.959   2.741   3.090  0.0885 -0.0185 -0.2083
  136OSM    H1S14667   6.028   2.826   3.106 -1.1428  1.1571 -0.9407
  136OSM    H1T14668   6.014   2.645   3.094  0.7819  0.4118  1.1966
  136OSM     NF14669   5.944   2.763   3.346  0.5361 -0.6433  0.0702
  136OSM    HNF14670   5.971   2.690   3.409 -0.4823  0.2310  1.5952
  136OSM    C2S14671   5.872   2.735   3.218 -0.3566  0.2197 -0.5106
  136OSM    H2S14672   5.798   2.817   3.206  0.1630  0.4518 -2.3254
  136OSM    C3S14673   5.798   2.598   3.228  0.0887 -0.3523  0.8014
  136OSM    H3S14674   5.876   2.522   3.244 -0.8376 -1.1973  1.4269
  136OSM     O314675   5.738   2.548   3.102  0.4018 -0.5654  0.2444
  136OSM    HO314676   5.762   2.611   3.033 -3.1579 -0.2351 -0.9137
  136OSM    C4S14677   5.706   2.583   3.349 -0.0567 -0.0427  0.4870
  136OSM    H4S14678   5.762   2.541   3.433  0.4113  0.5941  0.5070
  136OSM    C5S14679   5.580   2.624   3.376  0.2530 -0.2746  0.0301
  136OSM    H5S14680   5.513   2.657   3.295  1.7233  0.0851 -1.0871
  136OSM    C6S14681   5.519   2.627   3.517 -0.1767  0.1116  0.1885
  136OSM    H6S14682   5.450   2.542   3.532 -1.7801  1.7322  2.8239
  136OSM    H6T14683   5.459   2.721   3.514 -0.5168 -0.1025 -3.2703
  136OSM    C7S14684   5.618   2.631   3.635 -0.2927  0.4836  0.4229
  136OSM    H7S14685   5.688   2.545   3.634  0.9098  1.3572 -2.8683
  136OSM    H7T14686   5.553   2.620   3.724  0.0321  0.3284  0.6463
  136OSM    C8S14687   5.708   2.758   3.645 -0.4553  0.2295 -0.2786
  136OSM    H8S14688   5.642   2.847   3.648 -1.0366 -0.2302  1.2934
  136OSM    H8T14689   5.765   2.760   3.549 -1.2286  0.2638 -0.7447
  136OSM    C9S14690   5.810   2.763   3.760 -0.4402 -0.2314 -0.1110
  136OSM    H9S14691   5.866   2.858   3.746 -0.9144 -0.0796 -1.1218
  136OSM    H9T14692   5.878   2.676   3.760 -1.3240 -0.9545 -1.2697
  136OSM   C10S14693   5.728   2.783   3.898 -0.2174  0.4142  0.5512
  136OSM   H10S14694   5.699   2.685   3.943  1.4947 -0.0858  0.6386
  136OSM   H10T14695   5.640   2.846   3.875  0.4305  0.8160 -0.9053
  136OSM   C11S14696   5.830   2.836   3.997 -0.2804 -0.5053  0.6825
  136OSM   H11S14697   5.912   2.897   3.954 -1.6684 -0.0902 -1.5495
  136OSM   H11T14698   5.877   2.747   4.042 -0.0534  0.2405  1.9478
  136OSM   C12S14699   5.755   2.910   4.104  0.0620 -0.5426 -0.5725
  136OSM   H12S14700   5.654   2.871   4.129 -0.2259  1.1272  1.1731
  136OSM   H12T14701   5.744   3.018   4.079  1.0644 -0.2428  0.2032
  136OSM   C13S14702   5.830   2.902   4.241  0.3600 -0.5020 -1.0021
  136OSM   H13S14703   5.937   2.923   4.221  0.2036  0.8648 -0.5461
  136OSM   H13T14704   5.828   2.805   4.295  2.7390  0.4558  0.9990
  136OSM   C14S14705   5.764   3.010   4.331 -0.4667  0.0659 -0.7924
  136OSM   H14S14706   5.655   2.991   4.336 -0.4683  0.2252 -0.1045
  136OSM   H14T14707   5.781   3.110   4.286  1.4031 -0.3226 -1.0310
  136OSM   C15S14708   5.806   3.020   4.479 -0.3325  0.1677  0.7788
  136OSM   H15S14709   5.774   3.119   4.517 -2.4024 -0.6378  1.2564
  136OSM   H15T14710   5.916   3.021   4.491 -0.5379  0.4760  3.0798
  136OSM   C16S14711   5.731   2.919   4.568 -0.1116 -0.0945 -0.0861
  136OSM   H16S14712   5.780   2.820   4.559 -0.4894 -0.4532  1.4995
  136OSM   H16T14713   5.624   2.901   4.544 -0.0198  1.8584 -2.3142
  136OSM   C17S14714   5.753   2.958   4.715  0.6781 -0.2808 -1.0155
  136OSM   H17S14715   5.663   2.939   4.778  0.9025  1.4374 -0.0953
  136OSM   H17T14716   5.767   3.068   4.723 -0.3859 -0.2592  3.0275
  136OSM   C18S14717   5.882   2.905   4.771  0.5610 -0.7443 -0.6249
  136OSM   H18S14718   5.894   2.925   4.879  0.4649 -1.3575 -0.4974
  136OSM   H18T14719   5.969   2.942   4.714  0.8042 -1.5818 -0.8185
  136OSM   H18U14720   5.881   2.794   4.759  1.9775 -1.0802  1.8335
  136OSM    C1F14721   5.984   2.887   3.379  0.3508  0.5500 -0.0502
  136OSM     OF14722   5.964   2.976   3.297 -0.0686  0.8068  0.2190
  136OSM    C2F14723   6.059   2.917   3.505  1.2090  0.3561  0.3045
  136OSM    H2F14724   6.166   2.902   3.478  0.4859  0.7667 -3.2673
  136OSM    H2G14725   6.038   2.836   3.578  0.7786 -1.4306 -1.6745
  136OSM    C3F14726   6.033   3.061   3.545 -1.2825  0.4792 -0.0698
  136OSM    H3F14727   5.925   3.071   3.571 -1.3174 -0.6856  0.2699
  136OSM    H3G14728   6.047   3.131   3.459 -0.5261  1.3671  0.7573
  136OSM    C4F14729   6.118   3.123   3.657  0.2391 -0.3762  0.0970
  136OSM    H4F14730   6.089   3.230   3.663 -1.6492 -0.8372 -0.1928
  136OSM    H4G14731   6.225   3.113   3.628  0.8502  0.0440  2.0768
  136OSM    C5F14732   6.098   3.064   3.794  0.2399  0.5489  0.1963
  136OSM    H5F14733   6.134   2.960   3.810 -1.5022  0.2513  2.9719
  136OSM    H5G14734   5.990   3.053   3.820  0.3697  0.7682  0.8427
  136OSM    C6F14735   6.168   3.134   3.907 -0.3910  0.4160 -0.4238
  136OSM    H6F14736   6.131   3.238   3.920 -0.2207  0.3559  0.6797
  136OSM    H6G14737   6.279   3.140   3.900 -0.1969 -1.2042  0.7340
  136OSM    C7F14738   6.147   3.051   4.036  0.7269  0.0697  0.0343
  136OSM    H7F14739   6.200   2.954   4.043 -0.9966 -0.8160  1.4482
  136OSM    H7G14740   6.038   3.047   4.056  0.9587  0.0890  1.3791
  136OSM    C8F14741   6.212   3.139   4.152 -0.1788 -0.0117 -0.4430
  136OSM    H8F14742   6.231   3.245   4.123 -1.2560 -0.2328 -2.0610
  136OSM    H8G14743   6.316   3.102   4.167 -0.4594 -0.1786  1.3735
  136OSM    C9F14744   6.130   3.127   4.277 -0.2288 -0.0986 -0.4266
  136OSM    H9F14745   6.025   3.161   4.273 -0.4771 -0.5606  1.2985
  136OSM   C10F14746   6.170   3.091   4.396 -0.0114  0.1799 -0.1611
  136OSM   H10F14747   6.095   3.071   4.473  1.3187  0.1263  1.1709
  136OSM   C11F14748   6.306   3.047   4.437 -0.1800 -0.1738 -0.2060
  136OSM   H11F14749   6.371   3.076   4.351 -1.6945  2.4687 -0.5566
  136OSM   H11G14750   6.304   2.937   4.455 -1.6194 -0.2001 -0.4197
  136OSM   C12F14751   6.360   3.139   4.550  0.7825  0.0985  0.8926
  136OSM   H12F14752   6.300   3.113   4.640  1.4558 -0.7408  1.1130
  136OSM   H12G14753   6.343   3.246   4.525  2.5659  0.0943 -0.5293
  136OSM   C13F14754   6.508   3.117   4.573  0.7196  0.5861 -0.2018
  136OSM   H13F14755   6.563   3.130   4.477  2.1758  2.1942  0.7861
  136OSM   H13G14756   6.523   3.010   4.598 -1.8593 -0.0670 -1.1330
  136OSM   C14F14757   6.566   3.217   4.666  0.0427 -1.0229  0.3804
  136OSM   H14F14758   6.525   3.209   4.769 -1.3267 -2.2264 -0.2166
  136OSM   H14G14759   6.549   3.321   4.634  0.9927 -0.9679  0.0113
  136OSM   C15F14760   6.712   3.200   4.680 -0.1064 -0.2115  0.1624
  136OSM   H15F14761   6.766   3.207   4.583  1.0761  1.5482  0.8949
  136OSM   H15G14762   6.741   3.103   4.724  2.7185 -0.3764 -1.7829
  136OSM   C16F14763   6.776   3.320   4.750 -0.0545 -0.4064  0.2865
  136OSM   H16F14764   6.749   3.343   4.855 -0.7017 -0.1995  0.0831
  136OSM   H16G14765   6.756   3.409   4.686 -1.1926  0.4356  1.7424
  136OSM   C17F14766   6.934   3.307   4.755 -0.1475  0.1796 -0.0153
  136OSM   H17F14767   6.978   3.406   4.779 -1.7212  0.5923  1.4123
  136OSM   H17G14768   6.977   3.308   4.653  2.8035  1.4458  1.1307
  136OSM   C18F14769   6.996   3.212   4.844  0.4710  1.1426 -0.2222
  136OSM   H18F14770   7.104   3.193   4.832 -0.0865 -2.3693 -0.7600
  136OSM   H18G14771   6.937   3.119   4.829  2.2670 -0.0743 -0.0383
  136OSM   H18H14772   6.971   3.240   4.948 -1.5246 -1.6404  0.1657
  137OSM      N14773   1.354   3.517   2.629  0.3226  0.5281  0.1280
  137OSM    C1514774   1.360   3.504   2.778 -1.1407  0.5153  0.5643
  137OSM   H15A14775   1.363   3.401   2.808 -1.4267  0.3041 -0.1058
  137OSM   H15B14776   1.274   3.548   2.827 -1.5836  2.9178 -2.0791
  137OSM   H15C14777   1.448   3.549   2.820 -0.0565 -1.1705  0.1747
  137OSM    C1414778   1.220   3.443   2.585 -1.0066 -0.3053 -0.0363
  137OSM   H14A14779   1.133   3.487   2.631 -0.8108  0.5581 -0.4557
  137OSM   H14B14780   1.237   3.337   2.596  2.2828  0.1660  0.5267
  137OSM   H14C14781   1.210   3.457   2.479 -0.0200  1.5206  0.0623
  137OSM    C1314782   1.343   3.666   2.599 -0.0390  0.1551  0.0130
  137OSM   H13A14783   1.255   3.717   2.636 -1.3209 -0.5891 -1.8370
  137OSM   H13B14784   1.357   3.699   2.497  0.1670  0.0359  0.0028
  137OSM   H13C14785   1.429   3.710   2.646  0.4407 -1.0243  0.2728
  137OSM    C1214786   1.471   3.462   2.555 -1.1834  0.4249  0.1298
  137OSM   H12A14787   1.460   3.467   2.448  3.5784 -1.8177 -0.7386
  137OSM   H12B14788   1.480   3.356   2.571  0.3993  0.0478 -2.5987
  137OSM    C1114789   1.607   3.531   2.582 -0.5861 -0.3827  0.0643
  137OSM   H11A14790   1.692   3.460   2.577  1.8613  2.3144  0.8631
  137OSM   H11B14791   1.617   3.568   2.686 -0.2735 -0.3538  0.0240
  137OSM      P14792   1.656   3.789   2.511  0.0067 -0.1553 -0.1049
  137OSM    O1314793   1.789   3.819   2.463  0.0606 -0.4284  0.0594
  137OSM    O1414794   1.549   3.873   2.455  0.0110 -0.0485  0.9830
  137OSM    O1114795   1.657   3.818   2.669 -0.5483 -0.4390 -0.8070
  137OSM    O1214796   1.633   3.636   2.487  0.0532  0.2510  0.3679
  137OSM    C1S14797   1.774   3.805   2.743 -0.5517 -0.3476 -0.5749
  137OSM    H1S14798   1.851   3.876   2.707 -1.0907  0.4617 -0.1682
  137OSM    H1T14799   1.826   3.708   2.730  2.0254  0.9937 -0.9499
  137OSM     NF14800   1.874   3.847   2.966 -0.2279  0.0521 -0.0499
  137OSM    HNF14801   1.900   3.766   3.018 -0.0134 -1.2563 -2.0794
  137OSM    C2S14802   1.750   3.848   2.894 -0.5982  0.4676  0.7557
  137OSM    H2S14803   1.715   3.953   2.901  2.0611  1.3133  3.5972
  137OSM    C3S14804   1.633   3.771   2.964 -0.1183  0.7758  0.5583
  137OSM    H3S14805   1.658   3.667   2.994 -0.4790 -0.0425 -1.7672
  137OSM     O314806   1.520   3.748   2.879 -0.0617  0.1729 -0.1281
  137OSM    HO314807   1.553   3.784   2.796 -1.0581  0.0947 -0.5677
  137OSM    C4S14808   1.590   3.846   3.087  0.0593  0.4206 -0.3816
  137OSM    H4S14809   1.616   3.792   3.180 -0.7355 -0.1418 -0.4759
  137OSM    C5S14810   1.516   3.953   3.109  0.3651  0.2021 -0.0487
  137OSM    H5S14811   1.480   4.018   3.027 -1.3151  0.8392  1.1281
  137OSM    C6S14812   1.481   4.015   3.244  0.5595  0.0608 -0.2064
  137OSM    H6S14813   1.379   4.056   3.234  1.1980  1.9728  0.7211
  137OSM    H6T14814   1.539   4.104   3.274  2.3978 -0.6386 -1.4620
  137OSM    C7S14815   1.461   3.914   3.369  0.0539 -0.2566  1.0339
  137OSM    H7S14816   1.562   3.868   3.381 -0.3334 -1.2957  0.4733
  137OSM    H7T14817   1.379   3.841   3.354  0.7213 -0.8510  0.1531
  137OSM    C8S14818   1.431   3.988   3.502 -0.8857  0.1367 -0.0313
  137OSM    H8S14819   1.327   4.026   3.488  0.0731  2.7165 -0.6607
  137OSM    H8T14820   1.507   4.066   3.521  0.1058 -0.9650  0.6636
  137OSM    C9S14821   1.442   3.895   3.623 -0.9333  0.5865  0.0628
  137OSM    H9S14822   1.546   3.863   3.643 -1.7853 -1.5122  1.6149
  137OSM    H9T14823   1.394   3.794   3.621 -0.3411  0.2823  0.5979
  137OSM   C10S14824   1.393   3.958   3.751 -0.1852 -0.0475  0.6168
  137OSM   H10S14825   1.284   3.977   3.748 -0.0982  0.5295 -3.0780
  137OSM   H10T14826   1.440   4.058   3.746  1.1698 -0.6748  0.2482
  137OSM   C11S14827   1.411   3.857   3.863 -0.8000  0.7500  0.6703
  137OSM   H11S14828   1.517   3.822   3.865 -0.8891  0.5187  1.3556
  137OSM   H11T14829   1.341   3.774   3.842 -1.1040  1.1115  0.2265
  137OSM   C12S14830   1.373   3.901   4.003  1.2273  0.0839  0.1323
  137OSM   H12S14831   1.269   3.941   4.000  0.4130 -1.9164 -0.3083
  137OSM   H12T14832   1.436   3.985   4.037  2.0180 -1.2074  2.0330
  137OSM   C13S14833   1.367   3.784   4.097 -0.0614  0.7353 -1.3184
  137OSM   H13S14834   1.470   3.745   4.110 -0.3230  0.7641  1.5301
  137OSM   H13T14835   1.301   3.715   4.040 -0.9635 -1.3389  1.9450
  137OSM   C14S14836   1.297   3.824   4.223  0.2592 -0.3979  0.2703
  137OSM   H14S14837   1.191   3.854   4.208  0.3902 -0.5135 -1.0029
  137OSM   H14T14838   1.355   3.915   4.251 -1.2522  1.2161 -1.5037
  137OSM   C15S14839   1.324   3.719   4.333  0.5368 -0.8814  0.7553
  137OSM   H15S14840   1.431   3.689   4.330  0.0497 -2.9797  2.0987
  137OSM   H15T14841   1.282   3.624   4.294  2.4584 -1.4084 -0.1410
  137OSM   C16S14842   1.259   3.764   4.471 -0.2122 -0.3075 -0.6634
  137OSM   H16S14843   1.149   3.780   4.478 -0.0086  0.4140  2.6865
  137OSM   H16T14844   1.314   3.859   4.489  1.0616 -0.8689 -1.4273
  137OSM   C17S14845   1.291   3.668   4.587  0.3938  0.7215  0.4628
  137OSM   H17S14846   1.265   3.714   4.684  1.8202 -2.0376  2.3053
  137OSM   H17T14847   1.402   3.653   4.587  0.2324 -1.3051 -2.0389
  137OSM   C18S14848   1.226   3.526   4.580 -0.0337 -0.4976 -0.2905
  137OSM   H18S14849   1.115   3.528   4.569  0.1344 -1.2210 -2.4525
  137OSM   H18T14850   1.253   3.467   4.670 -0.8584  1.0763  1.0609
  137OSM   H18U14851   1.266   3.472   4.492 -0.6505 -0.9964 -0.2762
  137OSM    C1F14852   1.975   3.928   2.939  0.1648 -0.1466 -0.6888
  137OSM     OF14853   1.972   4.026   2.862  0.3366 -0.1428 -0.2852
  137OSM    C2F14854   2.111   3.903   3.010  0.1575 -0.0509 -0.4059
  137OSM    H2F14855   2.167   3.829   2.948 -0.0424 -0.3950 -0.1842
  137OSM    H2G14856   2.084   3.855   3.107 -0.8615  2.1885  0.4809
  137OSM    C3F14857   2.198   4.023   3.046 -0.1113 -0.2832  0.9715
  137OSM    H3F14858   2.142   4.110   3.088  0.7061  0.0816  1.3247
  137OSM    H3G14859   2.248   4.059   2.953 -1.3034  1.0710  0.8215
  137OSM    C4F14860   2.303   3.992   3.153 -0.0321 -0.4246 -0.9307
  137OSM    H4F14861   2.384   4.068   3.151  0.2579 -0.4642  2.9723
  137OSM    H4G14862   2.354   3.894   3.135 -1.5979 -0.9704 -2.6672
  137OSM    C5F14863   2.239   3.986   3.290  0.7081  0.3513 -0.2215
  137OSM    H5F14864   2.166   3.902   3.298 -1.2937  1.9666 -0.5423
  137OSM    H5G14865   2.183   4.081   3.305 -0.4720 -0.5815  1.7934
  137OSM    C6F14866   2.338   3.967   3.406 -0.9269  0.3133 -0.3453
  137OSM    H6F14867   2.416   4.045   3.417 -0.1371 -0.6492  1.0868
  137OSM    H6G14868   2.391   3.874   3.377 -0.7153  1.1905 -3.1517
  137OSM    C7F14869   2.272   3.961   3.545  0.4136 -0.0893  0.9264
  137OSM    H7F14870   2.212   3.868   3.546  1.2468 -0.7763 -1.9672
  137OSM    H7G14871   2.205   4.049   3.554 -0.3312 -0.3317 -1.5288
  137OSM    C8F14872   2.376   3.953   3.668  0.1001 -0.4337  0.2303
  137OSM    H8F14873   2.439   4.041   3.641 -0.2246 -0.0800  0.6002
  137OSM    H8G14874   2.436   3.867   3.634  0.8131  0.5442 -1.0931
  137OSM    C9F14875   2.313   3.966   3.802 -0.3644 -0.9764 -0.2838
  137OSM    H9F14876   2.292   4.066   3.843  1.4051 -0.4423 -0.6217
  137OSM   C10F14877   2.289   3.860   3.882 -0.9211 -0.2628  0.8141
  137OSM   H10F14878   2.239   3.870   3.980 -2.8320  0.2154 -0.1686
  137OSM   C11F14879   2.320   3.717   3.854 -0.2779  0.3030 -0.1188
  137OSM   H11F14880   2.331   3.712   3.743  0.8503 -1.7053  0.0451
  137OSM   H11G14881   2.233   3.654   3.881  0.1111  0.0320  0.5216
  137OSM   C12F14882   2.443   3.674   3.937  0.0992  0.5150  0.1569
  137OSM   H12F14883   2.530   3.731   3.896  1.5116 -2.4511 -1.2682
  137OSM   H12G14884   2.473   3.568   3.925  1.0876  0.7813  0.1569
  137OSM   C13F14885   2.443   3.701   4.090  0.0717 -0.7787 -0.0913
  137OSM   H13F14886   2.456   3.809   4.109  0.6850 -0.5817 -1.5384
  137OSM   H13G14887   2.539   3.660   4.128 -0.6840  0.0794  3.0222
  137OSM   C14F14888   2.328   3.621   4.161  0.0415  0.0191  0.3147
  137OSM   H14F14889   2.346   3.514   4.138  1.0344  0.5884 -1.7754
  137OSM   H14G14890   2.227   3.654   4.128 -0.7830 -2.2811  0.3770
  137OSM   C15F14891   2.336   3.629   4.320 -0.4452 -0.6210  0.1622
  137OSM   H15F14892   2.378   3.729   4.346 -1.7043 -0.6846  2.7469
  137OSM   H15G14893   2.421   3.563   4.347  0.3890  1.1649  2.1616
  137OSM   C16F14894   2.200   3.581   4.383  0.0501  0.0263 -0.1472
  137OSM   H16F14895   2.145   3.497   4.335 -0.1876  0.2791 -0.3282
  137OSM   H16G14896   2.135   3.672   4.383 -1.2278 -0.8460 -0.9298
  137OSM   C17F14897   2.217   3.548   4.533  0.4498  0.3852 -0.0376
  137OSM   H17F14898   2.283   3.622   4.583  0.5480  0.1518  0.1805
  137OSM   H17G14899   2.278   3.456   4.544 -1.9434 -1.3078 -0.0939
  137OSM   C18F14900   2.088   3.521   4.609  0.2250 -0.4500 -0.3283
  137OSM   H18F14901   2.013   3.600   4.585 -0.4969 -1.5528 -1.8577
  137OSM   H18G14902   2.101   3.532   4.719 -0.9897  0.3379 -0.2420
  137OSM   H18H14903   2.038   3.427   4.577  0.7080 -1.0564  0.6632
  138OSM      N14904   1.689   4.575   2.356 -0.3489  0.1050  0.9143
  138OSM    C1514905   1.786   4.508   2.273 -0.1386 -0.0959  0.1774
  138OSM   H15A14906   1.861   4.580   2.244 -1.5057  0.3873 -2.4784
  138OSM   H15B14907   1.743   4.468   2.183 -1.2570 -2.1853  1.5558
  138OSM   H15C14908   1.837   4.429   2.327  4.2079  0.6592 -2.3810
  138OSM    C1414909   1.582   4.480   2.394  0.1419  0.0574 -1.0434
  138OSM   H14A14910   1.529   4.432   2.313 -2.5554 -0.8286  1.0943
  138OSM   H14B14911   1.500   4.529   2.445  0.5787 -0.9459  0.7221
  138OSM   H14C14912   1.632   4.402   2.450 -1.3191 -0.6184 -0.5991
  138OSM    C1314913   1.752   4.632   2.478  0.3780  0.0554  0.0632
  138OSM   H13A14914   1.793   4.559   2.546 -0.0833  1.0299  1.4333
  138OSM   H13B14915   1.673   4.688   2.524  0.5662  0.9441 -0.6568
  138OSM   H13C14916   1.828   4.705   2.453 -1.5400  1.4349 -2.1806
  138OSM    C1214917   1.633   4.701   2.281  0.5990 -0.1891  0.4171
  138OSM   H12A14918   1.611   4.672   2.179  0.1044  2.3846 -0.2843
  138OSM   H12B14919   1.701   4.785   2.274 -1.9131  1.8874 -0.6087
  138OSM    C1114920   1.499   4.773   2.336 -0.6174 -0.0503 -0.3479
  138OSM   H11A14921   1.417   4.698   2.335 -0.8657  0.1364  1.6249
  138OSM   H11B14922   1.466   4.849   2.262 -1.1940  0.3452  0.3009
  138OSM      P14923   1.521   4.976   2.494  0.0346  0.0822  0.3073
  138OSM    O1314924   1.634   5.026   2.416 -0.1058 -0.0627  0.1028
  138OSM    O1414925   1.385   5.029   2.470 -0.0908 -0.7031 -0.0322
  138OSM    O1114926   1.558   4.982   2.653 -0.5178 -0.1383 -0.1048
  138OSM    O1214927   1.507   4.825   2.473 -0.7357 -0.4261  0.4677
  138OSM    C1S14928   1.467   4.909   2.737 -0.0963 -0.0210 -0.4986
  138OSM    H1S14929   1.445   4.808   2.696  0.7608  0.4292 -2.1819
  138OSM    H1T14930   1.368   4.959   2.751 -0.4540 -1.0432  0.7497
  138OSM     NF14931   1.407   4.786   2.937  0.2002 -0.3720 -0.0285
  138OSM    HNF14932   1.328   4.826   2.984  0.4286  2.7229 -2.0104
  138OSM    C2S14933   1.502   4.885   2.882  0.0617  0.4992  0.1376
  138OSM    H2S14934   1.605   4.843   2.880 -0.3839 -0.6642  0.6835
  138OSM    C3S14935   1.525   5.020   2.957 -0.2470 -0.8920 -0.1340
  138OSM    H3S14936   1.426   5.070   2.959  0.2705  0.2123 -1.1364
  138OSM     O314937   1.613   5.107   2.893 -0.1008  0.7436 -0.5812
  138OSM    HO314938   1.627   5.064   2.809  0.8687 -1.0682  0.4603
  138OSM    C4S14939   1.559   4.990   3.103  0.0192 -1.0915 -0.6642
  138OSM    H4S14940   1.474   4.975   3.171  1.3132 -3.1370  0.6178
  138OSM    C5S14941   1.685   4.982   3.157  0.1775 -0.5300  0.5659
  138OSM    H5S14942   1.774   4.996   3.095 -0.1824 -0.0209  0.1540
  138OSM    C6S14943   1.706   4.962   3.302 -0.5207  1.2711 -0.1515
  138OSM    H6S14944   1.615   4.940   3.363  0.9005  1.3631  2.1505
  138OSM    H6T14945   1.749   5.055   3.346 -0.9261  1.0068  0.8307
  138OSM    C7S14946   1.807   4.847   3.320  0.7622  0.0920  0.4545
  138OSM    H7S14947   1.889   4.855   3.245 -1.0795 -0.8739 -1.7988
  138OSM    H7T14948   1.750   4.754   3.297 -0.0605 -0.7649  5.0041
  138OSM    C8S14949   1.869   4.850   3.462 -0.1964 -0.4870  0.4709
  138OSM    H8S14950   1.937   4.936   3.480 -0.0862 -0.5416  0.3123
  138OSM    H8T14951   1.936   4.762   3.468 -0.5214 -0.7055  0.9409
  138OSM    C9S14952   1.762   4.832   3.570  0.0721  0.4726 -0.1019
  138OSM    H9S14953   1.682   4.758   3.546 -1.7729  2.4911 -0.4820
  138OSM    H9T14954   1.710   4.930   3.579 -1.1277  0.2226 -3.0154
  138OSM   C10S14955   1.823   4.825   3.706  1.0803  0.4428 -0.8959
  138OSM   H10S14956   1.876   4.921   3.725  2.8874 -0.9280  1.7248
  138OSM   H10T14957   1.898   4.744   3.715 -0.9812 -1.4802  0.1017
  138OSM   C11S14958   1.709   4.819   3.820  0.0104 -0.6654  0.9447
  138OSM   H11S14959   1.657   4.722   3.812  2.3587 -1.8664 -1.1067
  138OSM   H11T14960   1.634   4.898   3.796  1.7377  0.7896  0.0705
  138OSM   C12S14961   1.761   4.815   3.963  0.5623  0.1577  0.4521
  138OSM   H12S14962   1.759   4.920   3.998  0.7162  0.3051  0.0293
  138OSM   H12T14963   1.866   4.779   3.961  0.3468 -0.5945  1.6151
  138OSM   C13S14964   1.672   4.731   4.050  0.1462  0.0258  0.2098
  138OSM   H13S14965   1.679   4.626   4.013  1.2031  0.7009 -1.6069
  138OSM   H13T14966   1.566   4.764   4.061  0.2302  0.2522  0.3372
  138OSM   C14S14967   1.714   4.728   4.195 -0.1005  0.1042 -0.9904
  138OSM   H14S14968   1.700   4.827   4.244 -0.0961 -0.5522  0.3946
  138OSM   H14T14969   1.823   4.711   4.196  0.0077  0.5319  1.2642
  138OSM   C15S14970   1.629   4.624   4.280  0.0097 -0.2642  0.7161
  138OSM   H15S14971   1.635   4.524   4.233  1.6711 -0.2581  0.8599
  138OSM   H15T14972   1.526   4.666   4.276  1.2129  2.8644  0.1939
  138OSM   C16S14973   1.668   4.614   4.429  0.0708 -0.1204 -0.6246
  138OSM   H16S14974   1.651   4.715   4.473  0.5440 -0.0104 -0.6911
  138OSM   H16T14975   1.776   4.590   4.442  0.4249  0.9548 -1.4591
  138OSM   C17S14976   1.588   4.514   4.517 -0.2514  0.3324 -0.6049
  138OSM   H17S14977   1.605   4.413   4.474  0.3002  0.4169 -0.5989
  138OSM   H17T14978   1.479   4.534   4.512 -0.5658 -1.3675 -1.1149
  138OSM   C18S14979   1.639   4.511   4.669 -0.2094  0.4386  0.1065
  138OSM   H18S14980   1.635   4.613   4.713  0.1515  0.3369  0.3683
  138OSM   H18T14981   1.748   4.493   4.666 -0.1298  0.8123  0.5939
  138OSM   H18U14982   1.571   4.449   4.731 -0.0646 -0.8974 -1.0242
  138OSM    C1F14983   1.412   4.656   2.901  0.4173 -0.7186 -0.2980
  138OSM     OF14984   1.496   4.610   2.817 -0.4072 -1.0460 -0.5200
  138OSM    C2F14985   1.306   4.564   2.958 -0.5514  0.5013  0.5231
  138OSM    H2F14986   1.251   4.537   2.865  0.7509 -3.0717  0.6245
  138OSM    H2G14987   1.233   4.603   3.031 -2.2179  0.6458 -1.1510
  138OSM    C3F14988   1.353   4.423   3.006 -0.5003  0.7820  0.8663
  138OSM    H3F14989   1.437   4.377   2.950 -2.0965 -0.6569 -0.4261
  138OSM    H3G14990   1.271   4.349   3.002  2.0802 -2.2009 -0.4969
  138OSM    C4F14991   1.397   4.443   3.153  0.0613 -0.0845  0.2480
  138OSM    H4F14992   1.404   4.553   3.171 -0.8880  0.0018  0.1072
  138OSM    H4G14993   1.494   4.394   3.178  0.7405  1.8530  1.6458
  138OSM    C5F14994   1.303   4.380   3.257 -0.5282 -0.8149 -0.8869
  138OSM    H5F14995   1.292   4.275   3.224  0.3326 -1.2842  0.2997
  138OSM    H5G14996   1.205   4.433   3.250 -0.0562  0.4177  1.1112
  138OSM    C6F14997   1.349   4.384   3.403  0.1684  0.0325 -0.2040
  138OSM    H6F14998   1.438   4.318   3.415 -0.2282 -0.7282 -1.3164
  138OSM    H6G14999   1.266   4.355   3.471  0.0272  2.2063  0.6422
  138OSM    C7F15000   1.379   4.525   3.464 -0.2444  0.6800  0.2806
  138OSM    H7F15001   1.292   4.594   3.455 -1.3923 -0.8431 -0.7540
  138OSM    H7G15002   1.456   4.575   3.401  2.4169  0.4985  3.1460
  138OSM    C8F15003   1.424   4.525   3.613 -0.4715  0.2605  0.1489
  138OSM    H8F15004   1.486   4.617   3.617 -1.7081  1.0649  1.8554
  138OSM    H8G15005   1.478   4.430   3.630  0.8071  1.3159  2.4722
  138OSM    C9F15006   1.324   4.552   3.722  0.7205 -0.0407  0.1718
  138OSM    H9F15007   1.261   4.641   3.713 -0.7076 -0.9630  0.7525
  138OSM   C10F15008   1.285   4.466   3.813  0.3642 -0.3105 -0.0964
  138OSM   H10F15009   1.213   4.509   3.884  2.4684  0.3779  1.7222
  138OSM   C11F15010   1.336   4.324   3.844  0.8398 -0.7415 -0.4821
  138OSM   H11F15011   1.384   4.291   3.750 -0.6004  1.0821 -1.9408
  138OSM   H11G15012   1.253   4.250   3.841  0.5927 -0.6412  1.8460
  138OSM   C12F15013   1.422   4.308   3.965 -0.4055 -0.0188 -0.4031
  138OSM   H12F15014   1.515   4.367   3.970 -0.8149  0.7541 -1.6001
  138OSM   H12G15015   1.467   4.206   3.964  2.1253  1.0242 -0.4276
  138OSM   C13F15016   1.346   4.319   4.100  0.3111  0.1567 -0.9953
  138OSM   H13F15017   1.256   4.255   4.084  0.2784 -0.3399  0.8822
  138OSM   H13G15018   1.322   4.422   4.132  1.6798  1.0049 -2.5680
  138OSM   C14F15019   1.431   4.256   4.213  0.2135 -0.4017 -0.1172
  138OSM   H14F15020   1.530   4.306   4.214  0.6823 -1.2999  0.7229
  138OSM   H14G15021   1.459   4.150   4.193 -1.3273 -0.9206  0.3378
  138OSM   C15F15022   1.377   4.268   4.356 -0.1188  0.1147 -0.1190
  138OSM   H15F15023   1.357   4.372   4.389  0.3450  0.3330 -0.5278
  138OSM   H15G15024   1.459   4.250   4.429 -0.7824  0.5946  0.7585
  138OSM   C16F15025   1.258   4.172   4.385 -0.2371 -0.3429 -0.0538
  138OSM   H16F15026   1.289   4.070   4.353  1.2209  0.0207  0.1282
  138OSM   H16G15027   1.183   4.213   4.315  0.6867  0.7341 -0.4449
  138OSM   C17F15028   1.210   4.166   4.533 -0.5800  0.5676 -0.1870
  138OSM   H17F15029   1.294   4.122   4.591 -1.0055 -2.9324 -1.9536
  138OSM   H17G15030   1.126   4.093   4.536 -0.0677 -0.0464 -0.4017
  138OSM   C18F15031   1.167   4.312   4.583  0.6055  0.3751 -0.4999
  138OSM   H18F15032   1.124   4.368   4.496  1.5334  1.9935  0.0302
  138OSM   H18G15033   1.254   4.370   4.621  1.7542 -1.3343 -0.3923
  138OSM   H18H15034   1.092   4.320   4.664 -0.6002  0.4573 -1.6016
  139OSM      N15035   1.884   2.364   2.359 -0.4239 -0.0667 -0.0248
  139OSM    C1515036   1.813   2.246   2.297  0.8941 -0.5720 -1.0554
  139OSM   H15A15037   1.723   2.281   2.249  0.5805 -0.5416 -0.4634
  139OSM   H15B15038   1.776   2.182   2.376  0.2496  0.7643 -0.2264
  139OSM   H15C15039   1.872   2.191   2.226 -2.4597 -2.4051 -2.6604
  139OSM    C1415040   1.941   2.451   2.249 -0.4520  0.6379  0.2048
  139OSM   H14A15041   1.869   2.477   2.173 -0.7544 -1.8523 -0.4573
  139OSM   H14B15042   2.011   2.387   2.196 -1.7875 -0.9078  0.2429
  139OSM   H14C15043   1.986   2.544   2.281  0.0167  1.1683 -1.7961
  139OSM    C1315044   1.783   2.453   2.422 -0.3723 -0.6264  0.2951
  139OSM   H13A15045   1.725   2.494   2.341  0.0610  0.8077  0.6782
  139OSM   H13B15046   1.829   2.533   2.478 -1.8470  2.3794 -2.4800
  139OSM   H13C15047   1.727   2.378   2.477 -0.0972 -1.3973 -0.4584
  139OSM    C1215048   1.992   2.330   2.457 -0.5853 -0.3030 -0.0202
  139OSM   H12A15049   2.047   2.420   2.481 -3.3046  1.8836 -1.4834
  139OSM   H12B15050   2.052   2.250   2.416  1.1070 -0.6901  2.9101
  139OSM    C1115051   1.933   2.281   2.598 -0.4660  0.0905  0.5873
  139OSM   H11A15052   1.867   2.358   2.643  0.5313  0.8039  0.8659
  139OSM   H11B15053   2.021   2.264   2.663  0.1812 -2.4473 -0.8130
  139OSM      P15054   1.916   2.017   2.575  0.1722 -0.4806 -0.0216
  139OSM    O1315055   1.793   1.926   2.600 -0.2380 -0.4619 -0.0769
  139OSM    O1415056   1.993   2.019   2.446  0.4416  0.2395 -0.0804
  139OSM    O1115057   2.021   1.992   2.685 -0.3734 -0.1675  0.0075
  139OSM    O1215058   1.856   2.160   2.587 -0.1725 -0.0405 -0.2736
  139OSM    C1S15059   1.994   2.017   2.822  0.0131  0.6836 -0.1041
  139OSM    H1S15060   1.900   1.971   2.859  1.2215 -0.0641  2.3226
  139OSM    H1T15061   1.974   2.125   2.833  1.1005  1.3934 -3.8146
  139OSM     NF15062   2.071   1.975   3.061  0.4195  0.1628 -0.4153
  139OSM    HNF15063   2.117   2.045   3.115  2.0324 -0.3963 -1.0280
  139OSM    C2S15064   2.109   1.965   2.918 -0.0121 -0.4293  1.1090
  139OSM    H2S15065   2.132   1.860   2.889 -0.5414 -0.9152  2.3838
  139OSM    C3S15066   2.240   2.059   2.888  0.6896  0.1346  0.4985
  139OSM    H3S15067   2.210   2.160   2.923  0.2197  0.1632  0.0294
  139OSM     O315068   2.282   2.082   2.759  0.1586  0.3516 -0.5379
  139OSM    HO315069   2.198   2.068   2.714  0.7630  1.1969 -1.9896
  139OSM    C4S15070   2.352   2.011   2.969  0.0968 -0.0837 -0.3492
  139OSM    H4S15071   2.377   1.904   2.954  2.3613  0.3709 -0.2420
  139OSM    C5S15072   2.437   2.082   3.044 -0.7224 -0.3111 -0.1536
  139OSM    H5S15073   2.441   2.191   3.041  1.5543 -0.3347  0.3820
  139OSM    C6S15074   2.559   2.019   3.117 -0.3334  0.4771  0.0976
  139OSM    H6S15075   2.651   2.035   3.057  0.3132 -0.4969  0.8003
  139OSM    H6T15076   2.559   1.910   3.137 -0.1207  0.8034  2.0683
  139OSM    C7S15077   2.580   2.092   3.252  0.0360  0.2222 -0.2738
  139OSM    H7S15078   2.617   2.196   3.243 -2.5230  1.4112  1.7020
  139OSM    H7T15079   2.671   2.049   3.300  0.4472  2.0144  0.6089
  139OSM    C8S15080   2.463   2.083   3.349  0.6464 -0.1991  0.1420
  139OSM    H8S15081   2.439   1.979   3.379 -1.0643  0.3684  0.8605
  139OSM    H8T15082   2.374   2.116   3.291  0.0222 -1.2505  0.4610
  139OSM    C9S15083   2.485   2.172   3.472  0.2152  0.2658  0.4951
  139OSM    H9S15084   2.505   2.276   3.437  1.8543  0.4681  1.8645
  139OSM    H9T15085   2.579   2.132   3.517 -0.9830 -2.1121  1.0366
  139OSM   C10S15086   2.376   2.164   3.582 -0.2310  0.1678 -0.1470
  139OSM   H10S15087   2.362   2.055   3.599  2.7843 -0.2381  0.3371
  139OSM   H10T15088   2.288   2.214   3.538 -0.5283 -0.4142 -0.2253
  139OSM   C11S15089   2.419   2.217   3.718 -0.6950  0.0889  0.0994
  139OSM   H11S15090   2.510   2.170   3.760 -0.4918  0.2313 -0.1722
  139OSM   H11T15091   2.344   2.200   3.798  1.0728 -1.7306  1.4405
  139OSM   C12S15092   2.459   2.364   3.714 -0.3933  0.1024 -0.1631
  139OSM   H12S15093   2.366   2.421   3.690  1.2824  1.3567 -4.5596
  139OSM   H12T15094   2.525   2.390   3.629  0.4676  2.2274  1.0488
  139OSM   C13S15095   2.538   2.413   3.838 -0.2277  0.1302 -0.1477
  139OSM   H13S15096   2.543   2.524   3.843  0.6250  0.0757  0.3841
  139OSM   H13T15097   2.639   2.367   3.829 -1.0876 -1.4362 -2.8392
  139OSM   C14S15098   2.467   2.364   3.967 -0.6381  0.2549 -0.0419
  139OSM   H14S15099   2.463   2.253   3.960 -0.5128  0.2993 -0.8930
  139OSM   H14T15100   2.360   2.395   3.971 -0.0237  2.9727 -1.8725
  139OSM   C15S15101   2.545   2.425   4.089  0.2138  0.4971 -0.5339
  139OSM   H15S15102   2.477   2.506   4.124 -0.0290  0.3333 -0.6266
  139OSM   H15T15103   2.648   2.449   4.054  0.2743  1.8713  0.5037
  139OSM   C16S15104   2.557   2.319   4.211 -0.0199  0.2394 -0.1840
  139OSM   H16S15105   2.620   2.235   4.176 -0.5768 -0.5877  0.7698
  139OSM   H16T15106   2.454   2.283   4.231 -0.7102  0.6319 -2.6356
  139OSM   C17S15107   2.630   2.373   4.341 -1.3065  0.8929  0.3503
  139OSM   H17S15108   2.570   2.464   4.364  0.1850  1.7406  1.0589
  139OSM   H17T15109   2.737   2.399   4.321 -0.9270 -1.9019 -1.8489
  139OSM   C18S15110   2.639   2.292   4.466 -0.1963 -0.4331  0.1526
  139OSM   H18S15111   2.708   2.205   4.462  1.2277  0.6108  1.2351
  139OSM   H18T15112   2.537   2.268   4.502 -1.3595  1.6116 -1.5497
  139OSM   H18U15113   2.677   2.361   4.544  0.3651 -0.5463 -0.0201
  139OSM    C1F15114   1.991   1.891   3.118 -0.2286 -0.5593 -0.4402
  139OSM     OF15115   1.951   1.798   3.058 -0.3317 -0.0584 -0.1755
  139OSM    C2F15116   1.949   1.907   3.266  0.1200 -0.1081  0.0707
  139OSM    H2F15117   1.851   1.959   3.270 -0.7783 -1.7972  0.8600
  139OSM    H2G15118   2.028   1.971   3.311 -1.7961  1.4521  1.4074
  139OSM    C3F15119   1.937   1.773   3.335  0.2425  0.2817 -0.0928
  139OSM    H3F15120   2.031   1.716   3.317 -0.1521 -1.1671  2.0717
  139OSM    H3G15121   1.863   1.707   3.285  0.1711  1.1765 -1.2138
  139OSM    C4F15122   1.923   1.764   3.486  0.2893 -0.2363 -0.0708
  139OSM    H4F15123   1.915   1.655   3.507 -0.4881  0.2054  2.2342
  139OSM    H4G15124   1.826   1.810   3.514 -0.5121 -2.5229  1.1443
  139OSM    C5F15125   2.038   1.824   3.572  0.5427 -0.5956  0.0431
  139OSM    H5F15126   2.041   1.934   3.556  1.2658 -0.6029  0.1264
  139OSM    H5G15127   2.135   1.780   3.543  0.6776 -0.1122 -0.2558
  139OSM    C6F15128   2.021   1.805   3.722  0.2937 -0.5869 -0.3372
  139OSM    H6F15129   1.972   1.707   3.740 -2.6261  1.0153  1.0500
  139OSM    H6G15130   1.935   1.868   3.752  1.3664  0.3753  0.8028
  139OSM    C7F15131   2.146   1.818   3.805 -0.0581 -0.2883 -0.2187
  139OSM    H7F15132   2.168   1.926   3.819  0.9393 -0.4863 -0.2061
  139OSM    H7G15133   2.233   1.763   3.762  0.3696 -0.6491  1.0494
  139OSM    C8F15134   2.128   1.741   3.947 -0.0775  0.8185 -0.2563
  139OSM    H8F15135   2.231   1.736   3.989  0.2080  1.3997 -0.8852
  139OSM    H8G15136   2.089   1.639   3.923  0.1134  1.0902 -1.8149
  139OSM    C9F15137   2.022   1.808   4.033 -0.7187  0.6255  0.0395
  139OSM    H9F15138   1.982   1.898   3.984 -2.4384 -0.8092 -1.3067
  139OSM   C10F15139   1.972   1.772   4.151  0.1669  0.2761  0.3989
  139OSM   H10F15140   1.891   1.829   4.197 -3.4566 -3.2298 -1.0156
  139OSM   C11F15141   2.006   1.651   4.221  0.7416  0.8200 -0.3305
  139OSM   H11F15142   2.036   1.567   4.156  1.6143  2.0097 -1.5234
  139OSM   H11G15143   1.913   1.622   4.276  0.7114  1.3774 -0.0799
  139OSM   C12F15144   2.119   1.673   4.327 -1.0407  0.4069  0.4419
  139OSM   H12F15145   2.116   1.766   4.388 -3.0465  1.7310 -1.5162
  139OSM   H12G15146   2.212   1.680   4.266 -2.1990 -0.0891 -1.4613
  139OSM   C13F15147   2.129   1.556   4.421 -0.1207 -0.1788 -0.8740
  139OSM   H13F15148   2.097   1.472   4.356  0.6184  0.3561 -1.9458
  139OSM   H13G15149   2.054   1.558   4.504 -0.6826  1.7755 -1.3769
  139OSM   C14F15150   2.265   1.543   4.491 -0.0217  0.9646  0.4047
  139OSM   H14F15151   2.264   1.614   4.577 -1.3519  0.1281  1.1287
  139OSM   H14G15152   2.348   1.549   4.417  0.8665  1.3986  1.4068
  139OSM   C15F15153   2.281   1.407   4.560  0.2244 -0.1973  1.3522
  139OSM   H15F15154   2.343   1.336   4.502 -1.8532 -0.1863 -1.0376
  139OSM   H15G15155   2.177   1.368   4.565  0.1911 -1.0848 -2.8216
  139OSM   C16F15156   2.328   1.428   4.704  0.3309  0.1542  0.5384
  139OSM   H16F15157   2.281   1.513   4.758  2.5196  1.2504  0.8441
  139OSM   H16G15158   2.437   1.452   4.709  0.0309  1.4739  1.3788
  139OSM   C17F15159   2.311   1.299   4.790 -0.0562 -0.1589  1.3086
  139OSM   H17F15160   2.382   1.331   4.870  0.5213  2.0976 -0.0292
  139OSM   H17G15161   2.353   1.215   4.731 -2.1138  1.4317 -2.7738
  139OSM   C18F15162   2.171   1.264   4.838  0.6113 -0.0227  0.1907
  139OSM   H18F15163   2.175   1.161   4.880 -0.0565  0.0196  0.3639
  139OSM   H18G15164   2.081   1.264   4.774  0.3752  0.6269  0.5147
  139OSM   H18H15165   2.137   1.329   4.922 -0.2949  2.5258 -2.0248
  140OSM      N15166   6.766   5.223   2.572 -0.2479  0.2631 -0.0284
  140OSM    C1515167   6.755   5.141   2.696  0.0532 -0.1423 -0.3515
  140OSM   H15A15168   6.838   5.072   2.692  1.5449  1.5277  0.7388
  140OSM   H15B15169   6.663   5.084   2.698 -0.2395  0.3200 -0.4379
  140OSM   H15C15170   6.769   5.188   2.792  1.0809 -0.4443 -0.3406
  140OSM    C1415171   6.639   5.305   2.559  0.3847 -0.2009 -0.5369
  140OSM   H14A15172   6.648   5.374   2.477 -1.2352  0.5970 -0.0847
  140OSM   H14B15173   6.628   5.351   2.656  0.5426 -1.2519 -0.0050
  140OSM   H14C15174   6.555   5.239   2.546 -1.7207  2.4277 -1.0331
  140OSM    C1315175   6.884   5.311   2.590 -0.2041  0.5851  0.1325
  140OSM   H13A15176   6.978   5.257   2.591  0.2876  1.3971 -0.6397
  140OSM   H13B15177   6.883   5.359   2.687  2.1408  0.6043  0.2171
  140OSM   H13C15178   6.898   5.387   2.516 -1.4129  0.3422 -0.3553
  140OSM    C1215179   6.793   5.136   2.454 -0.1243 -0.2766 -0.6940
  140OSM   H12A15180   6.898   5.114   2.452 -0.3800 -1.5199 -2.7764
  140OSM   H12B15181   6.773   5.200   2.370 -0.7470  2.5501  1.4320
  140OSM    C1115182   6.720   5.001   2.441 -0.0505  0.1037  0.3329
  140OSM   H11A15183   6.749   4.945   2.533 -0.4265  0.7905  0.8849
  140OSM   H11B15184   6.744   4.950   2.346 -1.3812 -1.4331  0.7744
  140OSM      P15185   6.481   4.911   2.473 -0.0301  0.2707 -0.0932
  140OSM    O1315186   6.347   4.967   2.429  0.6331  0.2243  0.3092
  140OSM    O1415187   6.525   4.782   2.411  0.1473  0.0991  0.5475
  140OSM    O1115188   6.487   4.913   2.636  0.6622 -0.2306 -0.4975
  140OSM    O1215189   6.580   5.022   2.441 -0.6783 -0.6133 -0.1070
  140OSM    C1S15190   6.384   4.875   2.726 -0.0663 -0.3186 -0.0171
  140OSM    H1S15191   6.399   4.765   2.734  1.3216 -0.1865 -0.5439
  140OSM    H1T15192   6.283   4.900   2.689  0.6215  0.4992 -1.4035
  140OSM     NF15193   6.343   4.858   2.973 -0.2778  0.0250 -0.4868
  140OSM    HNF15194   6.254   4.885   3.010 -0.4778 -1.2603  0.0422
  140OSM    C2S15195   6.401   4.940   2.870 -0.1049 -0.0089 -0.8651
  140OSM    H2S15196   6.510   4.942   2.887 -0.4197 -0.6733  1.5811
  140OSM    C3S15197   6.339   5.087   2.862 -1.1019 -0.2328 -0.0247
  140OSM    H3S15198   6.234   5.064   2.837 -1.1054 -0.1838 -0.0556
  140OSM     O315199   6.374   5.174   2.741 -0.2486  0.7363 -0.0019
  140OSM    HO315200   6.417   5.107   2.686  0.3649 -0.7430  2.1330
  140OSM    C4S15201   6.337   5.163   2.990 -0.2346 -0.6621 -0.0131
  140OSM    H4S15202   6.262   5.123   3.060 -0.2195  2.0007  1.6756
  140OSM    C5S15203   6.411   5.273   3.027  0.6520  0.0599  0.2594
  140OSM    H5S15204   6.477   5.317   2.950  0.2098 -0.2150 -0.2828
  140OSM    C6S15205   6.404   5.349   3.152  0.3496 -0.1443 -0.6817
  140OSM    H6S15206   6.359   5.448   3.132 -1.6047 -0.6073  1.1166
  140OSM    H6T15207   6.509   5.363   3.187  0.2648  0.5788 -0.7046
  140OSM    C7S15208   6.319   5.279   3.262  1.0495  0.3433  0.2946
  140OSM    H7S15209   6.373   5.184   3.283  0.5169 -0.2639 -0.9901
  140OSM    H7T15210   6.214   5.265   3.230  1.3187 -1.5344  0.1527
  140OSM    C8S15211   6.308   5.363   3.390  0.4704 -0.4800  0.3544
  140OSM    H8S15212   6.251   5.457   3.371 -0.4207 -0.7993  1.3181
  140OSM    H8T15213   6.406   5.396   3.431 -0.7835  1.6644  1.8366
  140OSM    C9S15214   6.232   5.306   3.511  0.3156  0.9981 -0.0873
  140OSM    H9S15215   6.290   5.220   3.549 -0.5413  0.1269 -0.7190
  140OSM    H9T15216   6.129   5.287   3.475  0.0923  1.8442  0.0767
  140OSM   C10S15217   6.225   5.403   3.631  0.1461  0.1730  0.0346
  140OSM   H10S15218   6.205   5.511   3.613  1.6460  0.4310 -0.1780
  140OSM   H10T15219   6.323   5.401   3.683  1.4320 -1.5109 -2.2603
  140OSM   C11S15220   6.128   5.337   3.731 -0.0456 -0.1892  0.3586
  140OSM   H11S15221   6.172   5.238   3.755  0.4396  0.0051  0.2765
  140OSM   H11T15222   6.033   5.319   3.676  0.6610 -2.3543 -0.2604
  140OSM   C12S15223   6.105   5.423   3.855 -0.4520 -0.0915  0.0770
  140OSM   H12S15224   6.023   5.383   3.919 -0.7047 -2.0415 -1.3899
  140OSM   H12T15225   6.069   5.521   3.817 -4.2859 -0.9488  1.0431
  140OSM   C13S15226   6.231   5.439   3.939  0.2826 -0.2221  0.3394
  140OSM   H13S15227   6.300   5.511   3.889  0.1605 -0.8082 -0.6936
  140OSM   H13T15228   6.281   5.341   3.955  1.5579  0.4231  0.4522
  140OSM   C14S15229   6.202   5.510   4.074 -0.1159  0.2289 -0.0189
  140OSM   H14S15230   6.143   5.438   4.133  3.0303 -1.4855  1.2926
  140OSM   H14T15231   6.138   5.600   4.065 -0.9231 -0.4118 -0.9179
  140OSM   C15S15232   6.334   5.546   4.150  0.1549  0.3828 -0.3233
  140OSM   H15S15233   6.397   5.611   4.087  2.6362 -1.9424 -0.4447
  140OSM   H15T15234   6.401   5.458   4.165 -0.4549  0.1718  1.4808
  140OSM   C16S15235   6.296   5.599   4.289 -0.9311 -0.5235  0.1799
  140OSM   H16S15236   6.205   5.662   4.282 -0.0784  0.5900 -1.7702
  140OSM   H16T15237   6.379   5.666   4.319 -1.7907  1.4881 -1.6448
  140OSM   C17S15238   6.264   5.493   4.394 -1.2603  0.3192 -0.2231
  140OSM   H17S15239   6.351   5.425   4.406 -0.5513  1.4261  1.1952
  140OSM   H17T15240   6.174   5.434   4.366 -1.6776  0.3723  0.9636
  140OSM   C18S15241   6.242   5.561   4.525 -0.1639  0.0424 -0.4497
  140OSM   H18S15242   6.162   5.639   4.529  1.3460  1.6223  0.9019
  140OSM   H18T15243   6.334   5.607   4.566 -0.5813  1.8477 -1.3850
  140OSM   H18U15244   6.222   5.468   4.582  1.9124 -0.5492 -0.6170
  140OSM    C1F15245   6.387   4.739   3.010 -0.0779 -0.3774  0.0627
  140OSM     OF15246   6.507   4.707   2.990  0.1384 -0.4967  0.0774
  140OSM    C2F15247   6.293   4.641   3.082  0.5153  0.2918  0.3918
  140OSM    H2F15248   6.280   4.553   3.015  3.1110  1.3611 -1.6914
  140OSM    H2G15249   6.193   4.689   3.088  0.2285  0.0531 -1.9194
  140OSM    C3F15250   6.338   4.606   3.225 -0.3754  0.5153 -0.2299
  140OSM    H3F15251   6.339   4.701   3.282 -2.1275  0.1035  0.5202
  140OSM    H3G15252   6.442   4.566   3.220  0.4630  2.0978  2.3873
  140OSM    C4F15253   6.237   4.522   3.301  0.1988 -0.7721  0.1291
  140OSM    H4F15254   6.193   4.445   3.234 -0.9104 -0.9697  1.0609
  140OSM    H4G15255   6.157   4.591   3.334 -0.0028 -0.8592 -0.1760
  140OSM    C5F15256   6.286   4.448   3.422 -0.4526 -0.2602  0.2054
  140OSM    H5F15257   6.350   4.359   3.408  1.4722  1.1364 -0.3684
  140OSM    H5G15258   6.194   4.403   3.464 -1.2122  2.4284  1.6547
  140OSM    C6F15259   6.360   4.536   3.519 -0.6251  0.8649 -0.0510
  140OSM    H6F15260   6.291   4.611   3.564 -1.6935 -0.8739  1.3653
  140OSM    H6G15261   6.451   4.571   3.466 -0.9362 -0.3730 -1.4445
  140OSM    C7F15262   6.403   4.441   3.637 -0.0079 -0.4377  0.0652
  140OSM    H7F15263   6.433   4.342   3.597 -2.2285 -1.9707  1.9059
  140OSM    H7G15264   6.318   4.416   3.704  0.1825 -1.7161 -0.1526
  140OSM    C8F15265   6.517   4.507   3.713  0.4816  0.4786  0.0598
  140OSM    H8F15266   6.596   4.535   3.640  1.4232 -2.4511 -0.1795
  140OSM    H8G15267   6.553   4.418   3.769 -1.5397 -0.6769 -0.3892
  140OSM    C9F15268   6.476   4.613   3.813 -0.8072  0.2239 -0.3651
  140OSM    H9F15269   6.462   4.716   3.778 -1.9431 -0.1843 -1.2132
  140OSM   C10F15270   6.476   4.596   3.953  0.3773 -0.4809 -0.5744
  140OSM   H10F15271   6.432   4.680   4.008 -0.7185 -0.7377 -1.0444
  140OSM   C11F15272   6.505   4.471   4.026 -0.1033 -0.0962  1.0203
  140OSM   H11F15273   6.478   4.383   3.963 -1.8174  0.3218  1.1178
  140OSM   H11G15274   6.434   4.468   4.111 -1.6515  2.7560 -0.0166
  140OSM   C12F15275   6.645   4.466   4.089 -0.2676 -0.9908  0.1135
  140OSM   H12F15276   6.726   4.484   4.014 -0.4857  0.6395  0.2394
  140OSM   H12G15277   6.669   4.364   4.128  2.4573 -1.3893 -2.2346
  140OSM   C13F15278   6.659   4.572   4.203 -0.1228 -0.6176 -0.3783
  140OSM   H13F15279   6.568   4.559   4.265  0.8490 -1.0157  1.0504
  140OSM   H13G15280   6.657   4.673   4.158 -0.9838 -0.4346  0.0434
  140OSM   C14F15281   6.784   4.557   4.292 -0.3269  0.0634  0.0173
  140OSM   H14F15282   6.882   4.543   4.242 -0.4067 -1.5066  0.2636
  140OSM   H14G15283   6.760   4.459   4.338 -0.2086 -0.9791 -2.0352
  140OSM   C15F15284   6.806   4.664   4.407 -0.2723 -0.0588 -0.0295
  140OSM   H15F15285   6.711   4.709   4.443  0.1753  1.3563 -0.5098
  140OSM   H15G15286   6.861   4.746   4.355 -0.3464 -0.0927 -0.1628
  140OSM   C16F15287   6.897   4.604   4.514  0.3447  0.6637  0.7092
  140OSM   H16F15288   6.986   4.560   4.463  1.1864  1.7271  1.2230
  140OSM   H16G15289   6.841   4.515   4.550  1.7184 -0.4411  0.2275
  140OSM   C17F15290   6.920   4.700   4.631  0.5058  0.1180 -0.1286
  140OSM   H17F15291   6.828   4.750   4.670  0.1216  0.0891 -0.9741
  140OSM   H17G15292   7.002   4.768   4.601  2.1218 -0.8845  1.7715
  140OSM   C18F15293   6.985   4.621   4.744 -0.0659  0.0045 -0.0015
  140OSM   H18F15294   6.912   4.548   4.786  1.8900 -1.8038  0.4179
  140OSM   H18G15295   7.021   4.684   4.828 -3.5056  0.7898  1.0531
  140OSM   H18H15296   7.067   4.563   4.695 -0.9947 -1.0078 -0.3994
  141OSM      N15297   3.398   2.404   2.002 -0.4030  0.0251  0.4164
  141OSM    C1515298   3.315   2.471   1.898 -0.0455 -0.4639  0.3747
  141OSM   H15A15299   3.360   2.566   1.872  0.8277 -0.5728  1.4268
  141OSM   H15B15300   3.220   2.497   1.942 -0.3736  1.1695 -1.2024
  141OSM   H15C15301   3.306   2.413   1.807  0.6979 -1.4968  0.9446
  141OSM    C1415302   3.541   2.380   1.944 -0.0291 -0.5385  0.3227
  141OSM   H14A15303   3.577   2.473   1.903 -0.5483  0.2066  1.4951
  141OSM   H14B15304   3.518   2.308   1.867 -2.0665 -0.4003  0.7298
  141OSM   H14C15305   3.599   2.336   2.024  0.9776  3.7233  2.2140
  141OSM    C1315306   3.422   2.487   2.122  0.2376 -0.3696 -0.4997
  141OSM   H13A15307   3.337   2.474   2.188 -0.8637 -0.6759 -1.9233
  141OSM   H13B15308   3.427   2.590   2.088 -0.4596 -0.4262 -0.7939
  141OSM   H13C15309   3.508   2.454   2.179  1.9488  3.3922 -0.5810
  141OSM    C1215310   3.330   2.276   2.031 -0.3580  0.7128  0.2282
  141OSM   H12A15311   3.317   2.223   1.938 -0.5057  1.4698 -0.1861
  141OSM   H12B15312   3.233   2.303   2.070  0.0144  3.0634 -0.3260
  141OSM    C1115313   3.399   2.185   2.137  0.7761 -0.3488 -0.0259
  141OSM   H11A15314   3.504   2.168   2.105  0.7866  1.4676 -1.1226
  141OSM   H11B15315   3.349   2.087   2.124  0.5945 -0.2126 -0.3855
  141OSM      P15316   3.265   2.235   2.358 -0.0790 -0.1938 -0.0332
  141OSM    O1315317   3.221   2.377   2.360 -0.0219  0.1140  0.2788
  141OSM    O1415318   3.172   2.130   2.299  0.6476 -0.0279  0.2238
  141OSM    O1115319   3.312   2.196   2.503  0.3667  0.2152  0.0071
  141OSM    O1215320   3.399   2.238   2.270  0.8043  0.1557 -0.6390
  141OSM    C1S15321   3.449   2.148   2.525 -0.0106  0.8469 -0.6080
  141OSM    H1S15322   3.514   2.238   2.518 -1.0609  1.7435  0.6488
  141OSM    H1T15323   3.481   2.075   2.448 -0.9318  2.1897 -2.3137
  141OSM     NF15324   3.611   2.040   2.677  0.3407 -0.2092 -0.1101
  141OSM    HNF15325   3.629   1.947   2.646  0.6034 -0.6344  1.2632
  141OSM    C2S15326   3.471   2.079   2.665  0.4483 -0.4606  0.4867
  141OSM    H2S15327   3.450   2.166   2.731 -1.2870  1.7529 -2.7260
  141OSM    C3S15328   3.370   1.962   2.697  0.4974  0.9594 -0.2586
  141OSM    H3S15329   3.406   1.879   2.632  0.0702  1.1012 -0.6883
  141OSM     O315330   3.235   1.984   2.652 -0.9191  0.0770  0.2641
  141OSM    HO315331   3.243   2.059   2.592 -0.7752  0.2829  0.5396
  141OSM    C4S15332   3.376   1.923   2.840 -0.6344 -0.4410  0.3056
  141OSM    H4S15333   3.354   2.005   2.910  0.7373 -1.0394  1.4935
  141OSM    C5S15334   3.398   1.804   2.899  0.7879  0.3332 -0.5430
  141OSM    H5S15335   3.405   1.711   2.842 -2.5053 -0.2219 -0.2564
  141OSM    C6S15336   3.413   1.776   3.047  0.3234  0.3882 -0.2746
  141OSM    H6S15337   3.515   1.734   3.060 -0.4010 -1.5249 -0.5512
  141OSM    H6T15338   3.341   1.707   3.095 -1.3103  1.3721 -1.2093
  141OSM    C7S15339   3.401   1.898   3.142 -0.7087  0.4133 -0.2239
  141OSM    H7S15340   3.292   1.920   3.140 -1.3426 -2.3584 -0.4940
  141OSM    H7T15341   3.454   1.983   3.096 -0.4719  0.0301 -0.6610
  141OSM    C8S15342   3.435   1.850   3.283  0.4863 -0.1069  0.4397
  141OSM    H8S15343   3.543   1.827   3.298  0.7199  1.9145  2.4027
  141OSM    H8T15344   3.373   1.758   3.299 -0.6086  0.7169  1.0623
  141OSM    C9S15345   3.404   1.952   3.395 -0.1054 -0.6033 -0.6397
  141OSM    H9S15346   3.294   1.967   3.394  0.2807  3.1966 -0.3424
  141OSM    H9T15347   3.455   2.050   3.381  0.5462 -0.9473 -0.7003
  141OSM   C10S15348   3.441   1.888   3.532 -0.2995  0.3169 -0.1217
  141OSM   H10S15349   3.550   1.868   3.535  0.1730  2.5880 -0.6136
  141OSM   H10T15350   3.378   1.798   3.548 -0.5665  0.1226 -2.0422
  141OSM   C11S15351   3.430   2.002   3.635 -0.1053  0.0635 -0.3835
  141OSM   H11S15352   3.342   2.070   3.632  1.8205  2.6479 -1.4294
  141OSM   H11T15353   3.523   2.063   3.638  0.3844 -0.7037  0.4967
  141OSM   C12S15354   3.428   1.934   3.778  0.0272  0.1394 -0.3218
  141OSM   H12S15355   3.509   1.859   3.792  0.9901  1.1861 -0.1119
  141OSM   H12T15356   3.334   1.881   3.806 -0.8477 -0.3027 -3.7450
  141OSM   C13S15357   3.445   2.048   3.886  0.5533 -0.4620  0.4763
  141OSM   H13S15358   3.372   2.130   3.872  1.8176  0.6176  0.0181
  141OSM   H13T15359   3.550   2.075   3.864  0.6055 -1.7303 -0.9601
  141OSM   C14S15360   3.436   2.024   4.036 -0.4278 -0.1929  0.1007
  141OSM   H14S15361   3.530   1.970   4.062 -0.1169  0.1243 -0.3452
  141OSM   H14T15362   3.349   1.960   4.063 -0.9909  0.7639  0.6048
  141OSM   C15S15363   3.439   2.146   4.126  0.0332 -0.4329  0.3951
  141OSM   H15S15364   3.334   2.180   4.132  0.4093  1.3782 -1.8311
  141OSM   H15T15365   3.487   2.234   4.079 -0.6566 -0.7347 -0.9291
  141OSM   C16S15366   3.500   2.123   4.263 -0.4881  0.0176 -0.2627
  141OSM   H16S15367   3.509   2.218   4.320  1.4376 -0.8176  0.9370
  141OSM   H16T15368   3.604   2.101   4.230 -0.9426 -1.2880 -0.8887
  141OSM   C17S15369   3.424   2.030   4.340 -0.0117 -0.7603  0.0551
  141OSM   H17S15370   3.420   1.930   4.294 -1.2277 -1.8571  2.3491
  141OSM   H17T15371   3.320   2.070   4.341  0.4299  0.5497 -1.3602
  141OSM   C18S15372   3.471   1.996   4.482  0.5095 -1.1518  0.6146
  141OSM   H18S15373   3.396   1.933   4.534 -0.1248  0.0714  1.2464
  141OSM   H18T15374   3.492   2.091   4.536 -0.0265  0.8474 -2.4216
  141OSM   H18U15375   3.566   1.939   4.477  1.4439  0.4231 -0.9978
  141OSM    C1F15376   3.712   2.122   2.677  0.0534 -0.2862  0.0650
  141OSM     OF15377   3.693   2.243   2.686  0.4593  0.1286 -0.2288
  141OSM    C2F15378   3.845   2.063   2.661 -0.0659  0.0275  0.6765
  141OSM    H2F15379   3.917   2.133   2.614 -0.2696  0.5243  1.0954
  141OSM    H2G15380   3.836   1.975   2.593  0.4297 -0.6247  1.4326
  141OSM    C3F15381   3.906   2.004   2.792  0.5597 -0.0865 -0.5449
  141OSM    H3F15382   3.894   2.071   2.880 -0.7639  0.9495 -1.4768
  141OSM    H3G15383   4.013   1.983   2.767  1.2091  2.1057  0.1272
  141OSM    C4F15384   3.853   1.859   2.832  0.3993 -0.0065 -0.3074
  141OSM    H4F15385   3.878   1.795   2.745  1.5516 -0.8510  0.6078
  141OSM    H4G15386   3.743   1.869   2.833  0.4534  0.7791  0.8319
  141OSM    C5F15387   3.921   1.815   2.962 -0.0019 -0.4009  0.0671
  141OSM    H5F15388   3.919   1.896   3.039 -0.3441  0.5506 -0.9098
  141OSM    H5G15389   4.028   1.784   2.959  0.3005  0.5082  0.9166
  141OSM    C6F15390   3.859   1.697   3.035  0.1755 -0.2710  0.1267
  141OSM    H6F15391   3.877   1.611   2.966 -1.6779 -0.9038  0.3583
  141OSM    H6G15392   3.752   1.723   3.050  0.2565 -1.1567  2.5903
  141OSM    C7F15393   3.921   1.664   3.168 -0.6850  0.4951 -0.5071
  141OSM    H7F15394   4.029   1.682   3.156 -1.0038  1.8709 -1.5728
  141OSM    H7G15395   3.902   1.563   3.211 -1.4513  1.2133  0.9220
  141OSM    C8F15396   3.871   1.751   3.285  0.4668 -0.1246 -0.7600
  141OSM    H8F15397   3.768   1.715   3.305  0.6041  0.7257  1.9418
  141OSM    H8G15398   3.861   1.858   3.254  2.0710  0.1292 -0.4866
  141OSM    C9F15399   3.964   1.731   3.401 -0.4175 -0.1043  0.3782
  141OSM    H9F15400   4.056   1.671   3.392 -0.6466 -0.6194  1.3336
  141OSM   C10F15401   3.961   1.787   3.526  0.0773 -0.5021  0.3393
  141OSM   H10F15402   4.035   1.754   3.600  0.0619 -0.0902  0.5381
  141OSM   C11F15403   3.854   1.878   3.578  0.3863  0.0374  0.1285
  141OSM   H11F15404   3.773   1.891   3.503  0.6261 -0.0439 -0.1454
  141OSM   H11G15405   3.903   1.976   3.598  1.3695 -0.2753 -0.6629
  141OSM   C12F15406   3.805   1.827   3.716 -0.6325  0.1610 -0.2317
  141OSM   H12F15407   3.794   1.716   3.711 -0.0743  0.0986 -0.1259
  141OSM   H12G15408   3.702   1.867   3.728 -0.3616  0.1230  4.0284
  141OSM   C13F15409   3.884   1.881   3.831  0.2071  0.4160 -0.5110
  141OSM   H13F15410   3.876   1.991   3.830 -2.0822  0.2964 -0.8235
  141OSM   H13G15411   3.992   1.857   3.821  0.2659  0.1441  0.6410
  141OSM   C14F15412   3.816   1.846   3.967 -0.2339  0.1614  0.5821
  141OSM   H14F15413   3.826   1.737   3.986  0.1956  0.3149  1.2830
  141OSM   H14G15414   3.708   1.866   3.953  0.3312  5.4911  1.6831
  141OSM   C15F15415   3.896   1.919   4.080 -0.2012  0.3740 -0.5769
  141OSM   H15F15416   3.887   2.030   4.073  1.2094  0.4585 -1.4067
  141OSM   H15G15417   4.002   1.886   4.069 -0.5684 -0.2470 -2.6323
  141OSM   C16F15418   3.856   1.869   4.218 -0.0256 -0.6507  0.0526
  141OSM   H16F15419   3.842   1.760   4.197 -0.3198 -0.1267 -2.9410
  141OSM   H16G15420   3.759   1.907   4.258  0.2111  1.9112 -1.6283
  141OSM   C17F15421   3.958   1.900   4.327 -0.1750  0.5967 -0.1781
  141OSM   H17F15422   3.962   2.009   4.350 -4.5313  0.6666  1.0843
  141OSM   H17G15423   4.055   1.881   4.275 -0.5952  1.1114 -1.1863
  141OSM   C18F15424   3.944   1.807   4.452 -0.1928  0.2584  0.3219
  141OSM   H18F15425   4.025   1.834   4.523  0.6539 -3.1776  0.8265
  141OSM   H18G15426   3.967   1.703   4.420 -2.4687  0.3361 -1.8610
  141OSM   H18H15427   3.846   1.807   4.504  0.6246 -2.0944  2.0492
  142OSM      N15428   3.288   4.738   2.224 -0.0301 -0.5556  0.3345
  142OSM    C1515429   3.180   4.649   2.184  0.2485 -0.0446  0.0889
  142OSM   H15A15430   3.172   4.640   2.076  0.6465 -1.0899  0.1403
  142OSM   H15B15431   3.088   4.685   2.229  1.6510  1.9075  1.5652
  142OSM   H15C15432   3.202   4.549   2.216  1.9663  0.5751  0.9669
  142OSM    C1415433   3.415   4.685   2.161  0.2970  0.6467  0.6001
  142OSM   H14A15434   3.400   4.680   2.054 -0.1319 -0.7616  0.7030
  142OSM   H14B15435   3.435   4.590   2.206  1.4972 -0.2313 -1.6426
  142OSM   H14C15436   3.500   4.743   2.194  0.6275  0.5789 -0.1191
  142OSM    C1315437   3.276   4.880   2.178 -0.1917  0.2468  0.0347
  142OSM   H13A15438   3.220   4.934   2.253 -0.3418 -0.3586  0.3652
  142OSM   H13B15439   3.204   4.891   2.099  0.8733  0.6153 -0.9142
  142OSM   H13C15440   3.373   4.927   2.166  1.1882 -2.9998 -3.4671
  142OSM    C1215441   3.296   4.734   2.377 -0.5701 -0.1852  0.2130
  142OSM   H12A15442   3.384   4.793   2.399 -1.0260  0.6836 -0.2121
  142OSM   H12B15443   3.314   4.638   2.422 -0.4592  0.6280  2.0135
  142OSM    C1115444   3.175   4.794   2.461 -0.6323  0.7724  0.7191
  142OSM   H11A15445   3.189   4.752   2.563 -2.0985 -0.0061  0.6320
  142OSM   H11B15446   3.076   4.751   2.436 -0.7040  0.6812  1.1426
  142OSM      P15447   3.277   5.028   2.520  0.0425  0.1874 -0.2486
  142OSM    O1315448   3.412   4.990   2.471 -0.1243  0.1311  0.1693
  142OSM    O1415449   3.225   5.160   2.491  0.2676  0.5726 -0.4262
  142OSM    O1115450   3.262   4.989   2.677  0.0532 -0.1975  0.4331
  142OSM    O1215451   3.166   4.934   2.457  0.1741  0.0822 -0.1698
  142OSM    C1S15452   3.143   4.991   2.752 -0.5256 -0.2779  0.1894
  142OSM    H1S15453   3.111   4.884   2.753  1.0832 -0.7887  1.2056
  142OSM    H1T15454   3.065   5.056   2.708  1.0186  0.4932 -1.5253
  142OSM     NF15455   3.022   5.026   2.970 -0.2845 -1.1388 -0.7544
  142OSM    HNF15456   3.002   5.115   3.010 -2.0457 -1.5697 -0.5872
  142OSM    C2S15457   3.159   5.028   2.899 -0.5918  0.3899  0.2522
  142OSM    H2S15458   3.210   4.944   2.951 -1.7050  0.0118  0.7687
  142OSM    C3S15459   3.252   5.154   2.925 -0.4731  0.5275 -0.4100
  142OSM    H3S15460   3.229   5.232   2.849  1.9768  0.8040 -0.9457
  142OSM     O315461   3.388   5.135   2.892 -0.1550 -0.5848  0.3463
  142OSM    HO315462   3.387   5.048   2.852  0.3498 -0.4914  0.1177
  142OSM    C4S15463   3.233   5.210   3.061 -0.0522 -0.2058 -0.5026
  142OSM    H4S15464   3.172   5.301   3.054  0.2578  0.2697  2.1095
  142OSM    C5S15465   3.294   5.166   3.172 -0.0633  0.2038  0.1132
  142OSM    H5S15466   3.377   5.093   3.175 -0.8206 -0.6553  0.4217
  142OSM    C6S15467   3.262   5.217   3.313 -0.1484 -0.1167  0.8023
  142OSM    H6S15468   3.209   5.128   3.354 -1.4598 -0.4815 -1.5185
  142OSM    H6T15469   3.190   5.302   3.318  2.1505  1.9459  1.1875
  142OSM    C7S15470   3.376   5.238   3.408  0.2433 -0.5644 -0.4277
  142OSM    H7S15471   3.445   5.319   3.375  0.7894  0.1226  2.1788
  142OSM    H7T15472   3.422   5.137   3.413 -2.7833 -1.9703  2.8447
  142OSM    C8S15473   3.340   5.283   3.549 -0.0916 -0.1259 -0.4486
  142OSM    H8S15474   3.258   5.214   3.578 -1.4542  0.9036 -1.7105
  142OSM    H8T15475   3.288   5.381   3.544 -1.2958 -0.8053 -2.6605
  142OSM    C9S15476   3.448   5.272   3.646 -0.3596 -0.7310 -0.3331
  142OSM    H9S15477   3.517   5.356   3.624 -1.3941 -0.2778 -2.0786
  142OSM    H9T15478   3.496   5.174   3.624 -2.3915 -2.0266  0.7061
  142OSM   C10S15479   3.418   5.282   3.791 -0.6109  0.3975  0.2302
  142OSM   H10S15480   3.383   5.182   3.826 -0.2574  1.1507  2.9247
  142OSM   H10T15481   3.337   5.356   3.808 -0.5311  0.1973  1.5708
  142OSM   C11S15482   3.534   5.311   3.890 -0.0807 -0.0564 -0.4607
  142OSM   H11S15483   3.599   5.394   3.854 -0.3815  1.1603  1.6253
  142OSM   H11T15484   3.596   5.219   3.893 -2.1096 -1.4568  1.6622
  142OSM   C12S15485   3.481   5.341   4.032  0.1765 -0.1814 -0.5383
  142OSM   H12S15486   3.444   5.250   4.083 -0.0984 -0.3617 -1.0487
  142OSM   H12T15487   3.399   5.410   4.004 -0.4611 -0.5409  0.4232
  142OSM   C13S15488   3.593   5.417   4.102 -0.2147  0.2921  0.2020
  142OSM   H13S15489   3.619   5.504   4.036  1.4580 -0.0887  0.3067
  142OSM   H13T15490   3.692   5.366   4.108  0.0124  0.7868  0.8893
  142OSM   C14S15491   3.568   5.464   4.249 -0.8831 -0.4996  0.0468
  142OSM   H14S15492   3.485   5.537   4.238 -0.1738  0.3122 -0.0666
  142OSM   H14T15493   3.660   5.523   4.267 -1.2279  1.0723 -2.7021
  142OSM   C15S15494   3.540   5.354   4.352 -0.6386 -0.4183  0.1837
  142OSM   H15S15495   3.450   5.299   4.318 -0.2609 -0.2682 -1.1266
  142OSM   H15T15496   3.511   5.419   4.437 -0.3003  0.6245 -0.4751
  142OSM   C16S15497   3.665   5.272   4.385  0.1705 -0.9721  0.4499
  142OSM   H16S15498   3.746   5.342   4.414 -1.1381  0.6182  0.4201
  142OSM   H16T15499   3.696   5.206   4.301 -1.4658 -2.7297  1.1508
  142OSM   C17S15500   3.655   5.173   4.497  0.5447 -0.0106 -0.5473
  142OSM   H17S15501   3.577   5.095   4.482  2.5969 -1.7176 -3.0441
  142OSM   H17T15502   3.631   5.228   4.592  2.4375  0.9716 -0.5895
  142OSM   C18S15503   3.785   5.095   4.524 -0.0771  0.2889 -0.2854
  142OSM   H18S15504   3.877   5.158   4.522  0.2600 -0.2077 -0.6207
  142OSM   H18T15505   3.811   5.014   4.454  3.7651  1.1488 -0.1254
  142OSM   H18U15506   3.767   5.046   4.622 -2.5621  0.1493 -0.7606
  142OSM    C1F15507   2.945   4.921   2.986  0.4939  0.2322  0.2650
  142OSM     OF15508   2.950   4.822   2.913 -0.2734  0.2123 -0.0344
  142OSM    C2F15509   2.849   4.937   3.099  0.6540 -0.0232  0.2250
  142OSM    H2F15510   2.785   5.025   3.078 -1.2848 -1.4670 -0.1697
  142OSM    H2G15511   2.920   4.952   3.183  1.0491 -2.6617  0.4680
  142OSM    C3F15512   2.766   4.818   3.122  0.6419  0.1466 -0.3799
  142OSM    H3F15513   2.830   4.729   3.142 -1.0664 -0.5830  2.3983
  142OSM    H3G15514   2.698   4.797   3.037  0.3099  0.7240 -0.2581
  142OSM    C4F15515   2.682   4.805   3.253  0.1520  0.7253 -0.4201
  142OSM    H4F15516   2.620   4.713   3.240 -0.5732  1.0349  0.7476
  142OSM    H4G15517   2.620   4.894   3.272  0.0357  0.3985  0.8165
  142OSM    C5F15518   2.764   4.769   3.383  0.7052  0.2102  0.1428
  142OSM    H5F15519   2.838   4.849   3.405 -0.8356  1.6273  0.3072
  142OSM    H5G15520   2.838   4.688   3.367 -0.8602 -1.4380  0.8553
  142OSM    C6F15521   2.669   4.738   3.505 -0.0219 -0.4062  0.4184
  142OSM    H6F15522   2.593   4.661   3.481  0.0076 -0.3813  0.2447
  142OSM    H6G15523   2.624   4.837   3.527 -0.4265 -0.3642 -0.5724
  142OSM    C7F15524   2.744   4.689   3.629 -0.0807  0.3216 -0.3511
  142OSM    H7F15525   2.840   4.745   3.633 -0.3425  0.9799 -2.1801
  142OSM    H7G15526   2.772   4.583   3.612  0.1798  0.8340 -4.0094
  142OSM    C8F15527   2.665   4.702   3.767 -0.1892  0.3788 -0.3785
  142OSM    H8F15528   2.713   4.631   3.838 -2.4028 -0.9520 -0.1130
  142OSM    H8G15529   2.561   4.665   3.753 -0.2316 -0.7040  2.1797
  142OSM    C9F15530   2.647   4.840   3.831  0.2390 -0.7373 -0.9858
  142OSM    H9F15531   2.604   4.917   3.766  0.4601  0.9484  0.8071
  142OSM   C10F15532   2.711   4.887   3.943  0.1544  0.3853 -0.1184
  142OSM   H10F15533   2.680   4.984   3.985  2.2592 -0.1716  3.0762
  142OSM   C11F15534   2.793   4.808   4.043 -0.0441 -0.1898 -0.0493
  142OSM   H11F15535   2.895   4.853   4.050  0.4773 -1.2177 -0.7595
  142OSM   H11G15536   2.791   4.699   4.020 -1.4658 -0.4355  1.1108
  142OSM   C12F15537   2.738   4.818   4.183  0.1631 -0.1169 -1.2519
  142OSM   H12F15538   2.649   4.752   4.189  0.1162  0.0507  0.7736
  142OSM   H12G15539   2.711   4.921   4.212  0.9690 -0.3583  0.5814
  142OSM   C13F15540   2.839   4.768   4.294 -0.1813 -0.2006 -0.2663
  142OSM   H13F15541   2.908   4.848   4.328  1.3896 -1.4229 -0.3998
  142OSM   H13G15542   2.922   4.708   4.250 -0.1787  0.3397 -1.0186
  142OSM   C14F15543   2.773   4.701   4.404  0.3122  0.5796  0.2288
  142OSM   H14F15544   2.688   4.760   4.446  0.6580  0.3399  1.2855
  142OSM   H14G15545   2.850   4.688   4.483 -0.7781 -3.5170  0.8414
  142OSM   C15F15546   2.713   4.562   4.377  0.1274 -0.4144  0.9457
  142OSM   H15F15547   2.782   4.507   4.309 -0.8520  0.8542 -1.1906
  142OSM   H15G15548   2.619   4.566   4.317  0.2127 -1.2423  0.7444
  142OSM   C16F15549   2.685   4.490   4.504  0.0285  0.2965 -1.3975
  142OSM   H16F15550   2.649   4.566   4.577  0.3316 -0.6873 -0.1722
  142OSM   H16G15551   2.778   4.454   4.554 -0.4844 -1.0697 -1.3689
  142OSM   C17F15552   2.574   4.384   4.496  0.2647  0.8687  0.5421
  142OSM   H17F15553   2.509   4.427   4.417 -0.0282 -1.4227 -0.5469
  142OSM   H17G15554   2.515   4.393   4.589 -2.0968  1.7454 -0.9369
  142OSM   C18F15555   2.625   4.239   4.469 -0.7411  0.3337  0.2223
  142OSM   H18F15556   2.539   4.174   4.440 -1.0310  1.1461 -0.7873
  142OSM   H18G15557   2.672   4.198   4.561  1.2690 -0.6686 -1.1822
  142OSM   H18H15558   2.703   4.245   4.391  0.7508 -1.2447  1.5031
  143OSM      N15559   1.852   5.382   2.598  0.2158  0.5047  0.0088
  143OSM    C1515560   1.836   5.457   2.466 -0.2150 -0.3784 -1.3458
  143OSM   H15A15561   1.855   5.392   2.381 -0.4895 -0.2522 -1.5060
  143OSM   H15B15562   1.910   5.535   2.464 -0.4444 -0.1616 -1.4951
  143OSM   H15C15563   1.739   5.504   2.458  0.3639  1.3058  0.6892
  143OSM    C1415564   1.826   5.483   2.717  0.2598  0.1362  0.5215
  143OSM   H14A15565   1.817   5.434   2.813 -0.9108 -1.3426 -0.3008
  143OSM   H14B15566   1.729   5.527   2.701  0.4070  0.0151 -0.8532
  143OSM   H14C15567   1.896   5.565   2.705 -0.1012  0.2361 -1.1350
  143OSM    C1315568   1.762   5.265   2.602  0.0212 -1.3901  0.1665
  143OSM   H13A15569   1.659   5.290   2.586  0.1239  0.3171  1.8154
  143OSM   H13B15570   1.754   5.210   2.695 -3.2507 -2.2055 -0.4972
  143OSM   H13C15571   1.785   5.198   2.520 -4.2548 -1.5442 -1.1234
  143OSM    C1215572   1.988   5.317   2.615  0.1397  0.0184 -0.3631
  143OSM   H12A15573   1.981   5.255   2.702 -0.5979 -0.0134 -0.4393
  143OSM   H12B15574   2.067   5.389   2.632  0.4121 -0.8266  2.2811
  143OSM    C1115575   2.054   5.234   2.502 -0.1660  0.1329  0.2832
  143OSM   H11A15576   2.153   5.202   2.541  0.2987  2.2599  0.9865
  143OSM   H11B15577   2.075   5.295   2.412 -0.0869 -0.8835 -0.4056
  143OSM      P15578   2.000   4.974   2.432 -0.0914 -0.3746 -0.2312
  143OSM    O1315579   1.917   4.879   2.504  0.8041  0.3952 -0.4929
  143OSM    O1415580   1.999   4.968   2.279 -0.1003 -0.5170  0.0391
  143OSM    O1115581   2.147   4.952   2.474  0.3733  0.3088 -0.1498
  143OSM    O1215582   1.966   5.127   2.467 -0.1861  0.0128  0.4418
  143OSM    C1S15583   2.198   4.952   2.605  0.3800  0.4238  0.6347
  143OSM    H1S15584   2.120   4.993   2.673 -1.5131 -0.3029 -0.9762
  143OSM    H1T15585   2.281   5.025   2.607 -0.7614  1.7827 -0.0059
  143OSM     NF15586   2.314   4.815   2.787  0.4933 -0.2548  0.0993
  143OSM    HNF15587   2.411   4.792   2.778  0.1780 -0.8783 -2.9008
  143OSM    C2S15588   2.249   4.811   2.660  0.0507 -0.9688 -0.6894
  143OSM    H2S15589   2.155   4.752   2.665 -0.4338 -0.0776  1.7118
  143OSM    C3S15590   2.335   4.744   2.550  0.3119  0.7007  0.3159
  143OSM    H3S15591   2.436   4.789   2.538  1.0358 -0.2461  2.3106
  143OSM     O315592   2.279   4.748   2.421 -0.9422  0.2574 -0.0777
  143OSM    HO315593   2.215   4.819   2.430 -1.5276 -0.1133 -1.1996
  143OSM    C4S15594   2.345   4.601   2.601 -0.3934 -0.1127 -0.5121
  143OSM    H4S15595   2.441   4.569   2.645 -0.6223  1.2806  1.1053
  143OSM    C5S15596   2.246   4.509   2.602  0.5720  0.2284 -0.3081
  143OSM    H5S15597   2.144   4.529   2.566  0.2142  0.5911  0.8637
  143OSM    C6S15598   2.255   4.361   2.644  0.1671  0.8408 -0.5569
  143OSM    H6S15599   2.267   4.304   2.549  1.7172 -0.7223  0.5330
  143OSM    H6T15600   2.158   4.327   2.685  1.0475 -0.1886  0.7135
  143OSM    C7S15601   2.363   4.322   2.752 -0.6350 -0.1523 -0.3161
  143OSM    H7S15602   2.466   4.341   2.714 -0.1768 -2.1014 -0.1841
  143OSM    H7T15603   2.356   4.217   2.788 -1.0776 -0.2601 -0.7100
  143OSM    C8S15604   2.334   4.407   2.878 -0.4449  1.1675 -0.5377
  143OSM    H8S15605   2.227   4.440   2.878 -1.5757 -2.1406 -0.6953
  143OSM    H8T15606   2.390   4.503   2.880 -0.2738  1.1080 -1.7750
  143OSM    C9S15607   2.362   4.330   3.012  0.7574  0.0195  0.1182
  143OSM    H9S15608   2.457   4.272   3.009 -0.1005 -1.4061 -0.4118
  143OSM    H9T15609   2.281   4.258   3.037  0.7187 -0.0953 -0.3263
  143OSM   C10S15610   2.366   4.429   3.125  0.8313  0.4295  0.8981
  143OSM   H10S15611   2.268   4.480   3.138  0.6630  0.2510  0.3473
  143OSM   H10T15612   2.454   4.497   3.116  0.8994  0.3041  0.5841
  143OSM   C11S15613   2.388   4.338   3.246 -0.6378 -0.3245  0.3885
  143OSM   H11S15614   2.460   4.254   3.238 -1.1014 -0.5737 -2.3935
  143OSM   H11T15615   2.291   4.286   3.263  1.6015 -4.3448  2.4258
  143OSM   C12S15616   2.422   4.416   3.369 -0.3672 -0.3494 -0.2669
  143OSM   H12S15617   2.349   4.498   3.384  1.8620  1.3283  2.4864
  143OSM   H12T15618   2.517   4.470   3.349 -0.5541 -0.3562 -1.2472
  143OSM   C13S15619   2.431   4.332   3.499  0.6217  0.2862  0.4618
  143OSM   H13S15620   2.497   4.244   3.484  1.1330  0.3863  1.9457
  143OSM   H13T15621   2.332   4.282   3.498  0.9468 -0.3850  0.9999
  143OSM   C14S15622   2.443   4.404   3.627 -0.5094 -0.2798  0.2917
  143OSM   H14S15623   2.350   4.459   3.651 -0.6809 -0.1304 -0.7027
  143OSM   H14T15624   2.518   4.485   3.615  2.7071 -3.1758 -0.9323
  143OSM   C15S15625   2.474   4.311   3.745 -1.2929 -0.5322 -0.0464
  143OSM   H15S15626   2.569   4.254   3.735 -0.6753  0.2611  1.0975
  143OSM   H15T15627   2.388   4.244   3.765 -0.2625 -1.0577  3.2398
  143OSM   C16S15628   2.489   4.381   3.877  0.2914 -0.3598  0.4078
  143OSM   H16S15629   2.403   4.449   3.897  1.6101  1.6640 -0.3692
  143OSM   H16T15630   2.569   4.457   3.863 -0.7672  0.5097 -1.3961
  143OSM   C17S15631   2.499   4.288   4.000  0.4577 -0.0925  0.1803
  143OSM   H17S15632   2.583   4.216   3.983  1.6128  1.2367  0.0612
  143OSM   H17T15633   2.407   4.226   4.006  0.8669 -0.6556  0.6987
  143OSM   C18S15634   2.509   4.359   4.137 -0.5959 -0.4718  0.2207
  143OSM   H18S15635   2.522   4.275   4.209  1.5987 -1.3321 -1.0693
  143OSM   H18T15636   2.417   4.415   4.165  0.7607  0.1578  3.9340
  143OSM   H18U15637   2.597   4.424   4.154 -0.2888  0.1018 -2.8828
  143OSM    C1F15638   2.253   4.836   2.898  0.4856 -0.4047  0.5634
  143OSM     OF15639   2.136   4.874   2.896 -0.1637  0.0243  0.6334
  143OSM    C2F15640   2.325   4.805   3.023 -0.3223 -0.4543 -0.0547
  143OSM    H2F15641   2.410   4.872   3.045  0.1495 -1.1228  0.1585
  143OSM    H2G15642   2.352   4.698   3.018  1.7588 -0.0524  1.6375
  143OSM    C3F15643   2.230   4.818   3.149  0.4400  0.1936 -0.6941
  143OSM    H3F15644   2.142   4.753   3.132  0.5514  0.1628 -1.1792
  143OSM    H3G15645   2.194   4.923   3.150  0.7722  0.3086  0.2706
  143OSM    C4F15646   2.299   4.790   3.283  0.1803 -0.4337  0.7150
  143OSM    H4F15647   2.373   4.872   3.294 -1.1144  0.7774  0.7238
  143OSM    H4G15648   2.367   4.703   3.278  0.3175 -0.2407 -1.3057
  143OSM    C5F15649   2.212   4.798   3.406  0.9834  0.1428  0.7239
  143OSM    H5F15650   2.149   4.707   3.407 -1.1488  1.5198  2.4432
  143OSM    H5G15651   2.147   4.888   3.399  1.0332  0.1302  0.0740
  143OSM    C6F15652   2.296   4.801   3.537 -0.3589  0.0417  0.1479
  143OSM    H6F15653   2.355   4.894   3.536 -1.2748  0.6332 -0.8272
  143OSM    H6G15654   2.357   4.711   3.560 -1.6433 -0.4717  1.8219
  143OSM    C7F15655   2.204   4.805   3.658 -0.0673  0.4596 -0.4719
  143OSM    H7F15656   2.119   4.734   3.657 -2.3168  2.8753  1.8366
  143OSM    H7G15657   2.154   4.904   3.657  0.9305  1.0175  1.2499
  143OSM    C8F15658   2.271   4.784   3.792  1.0806 -0.4447  0.6023
  143OSM    H8F15659   2.361   4.850   3.782  1.9439 -1.6878 -0.1352
  143OSM    H8G15660   2.306   4.679   3.803  1.1377 -0.7220 -1.8237
  143OSM    C9F15661   2.176   4.818   3.906 -0.3174  0.8352  0.3589
  143OSM    H9F15662   2.069   4.817   3.884 -0.3550 -2.8100  0.0842
  143OSM   C10F15663   2.211   4.836   4.034  0.0264 -0.3696  0.0296
  143OSM   H10F15664   2.132   4.858   4.108 -0.8988 -2.2078 -0.3477
  143OSM   C11F15665   2.336   4.821   4.106 -0.3034 -0.2011 -0.0688
  143OSM   H11F15666   2.351   4.901   4.182  0.5479  1.5942 -2.0137
  143OSM   H11G15667   2.421   4.837   4.036 -1.5267  0.2365 -1.5113
  143OSM   C12F15668   2.353   4.683   4.169  0.2851 -0.6561 -0.4693
  143OSM   H12F15669   2.450   4.681   4.222 -0.0857 -0.3135  0.2247
  143OSM   H12G15670   2.355   4.613   4.082 -0.0634  1.3717 -2.1803
  143OSM   C13F15671   2.242   4.644   4.271 -0.0271 -0.2828  0.2453
  143OSM   H13F15672   2.243   4.533   4.279  1.0521 -0.3231 -0.2055
  143OSM   H13G15673   2.138   4.675   4.246 -0.2479 -2.4624 -1.8932
  143OSM   C14F15674   2.280   4.684   4.411 -0.5213  0.1418 -0.2195
  143OSM   H14F15675   2.286   4.795   4.416  2.1245  0.1590 -1.9108
  143OSM   H14G15676   2.386   4.652   4.418  0.2188  2.0917 -1.6122
  143OSM   C15F15677   2.184   4.631   4.522 -0.6994 -0.0139  0.0617
  143OSM   H15F15678   2.213   4.525   4.537  1.7623  0.5714 -0.0521
  143OSM   H15G15679   2.081   4.660   4.495 -0.2838  1.7570  0.2574
  143OSM   C16F15680   2.205   4.713   4.655  0.1408  0.1752  0.0875
  143OSM   H16F15681   2.122   4.680   4.721 -0.1146 -0.0168 -0.3284
  143OSM   H16G15682   2.206   4.823   4.645 -1.9025  0.2825  0.6006
  143OSM   C17F15683   2.317   4.660   4.743 -0.1568  0.1904  0.2349
  143OSM   H17F15684   2.346   4.724   4.830  1.1456  0.4490 -0.3696
  143OSM   H17G15685   2.417   4.647   4.695 -0.0006 -1.5861  0.9558
  143OSM   C18F15686   2.292   4.512   4.798 -0.7988 -0.4334 -0.5226
  143OSM   H18F15687   2.349   4.494   4.891 -0.1367 -0.7557 -0.9897
  143OSM   H18G15688   2.319   4.436   4.722  1.2333  0.8404 -1.1306
  143OSM   H18H15689   2.188   4.511   4.837 -0.0465  1.4895  1.7670
  144OSM      N15690   2.842   5.089   2.368  0.4384 -0.0626 -0.0491
  144OSM    C1515691   2.847   4.969   2.277  0.2572 -0.7565 -0.9361
  144OSM   H15A15692   2.935   4.909   2.295  0.5329  0.5470  2.9354
  144OSM   H15B15693   2.841   5.004   2.175  0.7839  2.6907  0.0894
  144OSM   H15C15694   2.759   4.909   2.293 -1.0723  1.6282  1.3288
  144OSM    C1415695   2.958   5.171   2.330 -0.6201 -0.0528 -0.1911
  144OSM   H14A15696   3.054   5.133   2.360  3.0507  4.6576 -4.1992
  144OSM   H14B15697   2.951   5.275   2.361  2.3795 -0.0520  0.8273
  144OSM   H14C15698   2.962   5.190   2.223  0.2248  1.0362  0.0201
  144OSM    C1315699   2.719   5.168   2.339 -0.0488  0.7725 -0.9331
  144OSM   H13A15700   2.714   5.249   2.411  0.3319 -0.6498  0.7595
  144OSM   H13B15701   2.630   5.109   2.357  1.6403 -1.7982 -0.5502
  144OSM   H13C15702   2.710   5.196   2.235  1.1712 -1.6423 -1.7700
  144OSM    C1215703   2.841   5.051   2.515 -0.1419 -0.2474  0.3560
  144OSM   H12A15704   2.914   4.973   2.528 -0.4027 -0.3725  1.1653
  144OSM   H12B15705   2.752   4.996   2.541 -0.6234  0.2705 -0.1662
  144OSM    C1115706   2.859   5.164   2.621  0.1154 -0.1239  0.0197
  144OSM   H11A15707   2.964   5.202   2.613 -0.0499  0.2242 -0.5208
  144OSM   H11B15708   2.852   5.108   2.717 -2.6924 -0.1313 -0.1229
  144OSM      P15709   2.785   5.404   2.664 -0.2925 -0.4147  0.0147
  144OSM    O1315710   2.910   5.451   2.599  0.7488 -0.3733  0.4649
  144OSM    O1415711   2.666   5.497   2.651  0.1665  0.0238  0.2150
  144OSM    O1115712   2.797   5.376   2.820  0.1846  0.6110  0.5963
  144OSM    O1215713   2.753   5.260   2.610 -0.1970 -0.6622  0.0366
  144OSM    C1S15714   2.671   5.367   2.892 -0.7059 -0.3260  0.4628
  144OSM    H1S15715   2.601   5.289   2.854 -2.7245  1.4859  0.2360
  144OSM    H1T15716   2.625   5.468   2.890  2.9355  1.4774  0.7656
  144OSM     NF15717   2.565   5.371   3.113 -0.9329  0.1901  0.0243
  144OSM    HNF15718   2.582   5.444   3.178  1.2453 -0.0648 -0.1724
  144OSM    C2S15719   2.687   5.324   3.044  0.6939 -0.1337  0.6209
  144OSM    H2S15720   2.681   5.213   3.051 -1.7370 -0.2867 -1.9458
  144OSM    C3S15721   2.816   5.375   3.110 -0.1834 -0.6514 -0.1588
  144OSM    H3S15722   2.826   5.484   3.092  1.6949 -0.7432  0.1047
  144OSM     O315723   2.937   5.322   3.054  0.1972 -0.3321 -0.1596
  144OSM    HO315724   2.918   5.336   2.961  0.3013 -1.1870 -0.3137
  144OSM    C4S15725   2.815   5.356   3.265  0.7097 -0.8128 -0.4630
  144OSM    H4S15726   2.788   5.451   3.315 -0.3109 -0.7377 -1.1213
  144OSM    C5S15727   2.846   5.246   3.339  1.0537  0.0216 -0.1430
  144OSM    H5S15728   2.868   5.151   3.287  1.1819  0.5598 -1.1021
  144OSM    C6S15729   2.830   5.253   3.484  0.6541  0.2233 -0.3746
  144OSM    H6S15730   2.759   5.170   3.505 -2.6341  2.4923 -1.7545
  144OSM    H6T15731   2.766   5.337   3.515 -0.1224 -0.6546  0.4569
  144OSM    C7S15732   2.959   5.236   3.574  0.0267 -0.1325  0.4890
  144OSM    H7S15733   3.027   5.322   3.557 -1.4170  0.6968 -1.5881
  144OSM    H7T15734   3.002   5.137   3.549  1.3821  0.6520 -0.4286
  144OSM    C8S15735   2.916   5.238   3.713 -0.0377 -0.4463 -0.5585
  144OSM    H8S15736   2.864   5.143   3.736 -1.5215  0.0257 -1.8190
  144OSM    H8T15737   2.842   5.315   3.743  0.5607  0.5013 -1.4505
  144OSM    C9S15738   3.036   5.247   3.808 -0.2254 -0.1685 -0.0907
  144OSM    H9S15739   3.091   5.341   3.787 -1.2338  0.6735  0.9079
  144OSM    H9T15740   3.104   5.162   3.787  0.4060  0.0521  0.9607
  144OSM   C10S15741   2.998   5.235   3.960 -0.1616 -0.3495  0.3848
  144OSM   H10S15742   2.959   5.132   3.972 -1.3226  0.1727  1.2633
  144OSM   H10T15743   2.917   5.308   3.980 -0.2920  0.8901 -3.7217
  144OSM   C11S15744   3.116   5.250   4.053  0.1564 -0.3681 -0.6000
  144OSM   H11S15745   3.145   5.357   4.054  1.4419 -0.6850 -1.1465
  144OSM   H11T15746   3.207   5.189   4.031 -0.8410 -2.4227  0.6401
  144OSM   C12S15747   3.062   5.213   4.196 -0.5825  0.0172  0.4884
  144OSM   H12S15748   3.049   5.104   4.180 -2.5835  0.3754 -0.6675
  144OSM   H12T15749   2.962   5.257   4.217 -0.1433  0.6627  1.3021
  144OSM   C13S15750   3.158   5.234   4.311  0.5826 -0.4035 -0.4706
  144OSM   H13S15751   3.155   5.342   4.337  0.3771  0.1506 -2.6403
  144OSM   H13T15752   3.259   5.199   4.285 -0.0834 -1.8670 -1.2048
  144OSM   C14S15753   3.124   5.168   4.447  0.7497  0.3589 -0.1053
  144OSM   H14S15754   3.205   5.196   4.518  1.1411  0.6443 -0.6495
  144OSM   H14T15755   3.153   5.062   4.430  2.3446  0.7233  0.1339
  144OSM   C15S15756   2.981   5.188   4.499  0.2135 -0.7005 -0.7457
  144OSM   H15S15757   2.916   5.147   4.418  1.5232 -1.1109 -1.6148
  144OSM   H15T15758   2.971   5.299   4.504  0.7297 -0.6971  0.7121
  144OSM   C16S15759   2.948   5.123   4.629 -1.3329 -0.3322 -0.0213
  144OSM   H16S15760   2.872   5.187   4.679  0.8604  2.0025  0.5180
  144OSM   H16T15761   3.031   5.134   4.701 -1.5769 -3.7589  0.9538
  144OSM   C17S15762   2.914   4.973   4.621 -0.1979 -0.2763 -0.1368
  144OSM   H17S15763   2.992   4.920   4.564 -2.6166 -1.6209 -2.4174
  144OSM   H17T15764   2.817   4.957   4.568 -1.3350 -2.6750  2.3988
  144OSM   C18S15765   2.899   4.907   4.759  0.1685 -0.6695 -0.1095
  144OSM   H18S15766   2.810   4.949   4.810  0.0767  0.3830 -1.1189
  144OSM   H18T15767   2.988   4.934   4.820  0.2528  0.3758 -0.6733
  144OSM   H18U15768   2.881   4.798   4.746 -2.2095 -0.5365  1.4945
  144OSM    C1F15769   2.451   5.314   3.089  0.3574  0.2763  0.2661
  144OSM     OF15770   2.439   5.224   3.006  0.2620 -0.5378 -0.3898
  144OSM    C2F15771   2.337   5.361   3.180  0.0825  1.0177  0.2775
  144OSM    H2F15772   2.251   5.406   3.124 -2.2574 -1.8054  1.3866
  144OSM    H2G15773   2.385   5.443   3.237  2.6122 -1.8161  2.5214
  144OSM    C3F15774   2.270   5.262   3.273 -0.1447  0.0207  0.0670
  144OSM    H3F15775   2.225   5.187   3.203 -1.1966 -0.4158  1.1678
  144OSM    H3G15776   2.189   5.321   3.320 -0.6935  0.9777 -1.9485
  144OSM    C4F15777   2.352   5.192   3.384  0.5788  0.1726 -0.0386
  144OSM    H4F15778   2.449   5.157   3.343  2.0652  0.7159  2.8037
  144OSM    H4G15779   2.299   5.107   3.433  0.8865 -0.1601 -0.2810
  144OSM    C5F15780   2.389   5.288   3.499 -0.8315 -0.0428  0.2257
  144OSM    H5F15781   2.301   5.344   3.538 -0.6522 -1.4852  2.9244
  144OSM    H5G15782   2.466   5.362   3.471 -2.5092  1.3960 -0.7727
  144OSM    C6F15783   2.442   5.221   3.621 -0.3059 -0.5631  0.1636
  144OSM    H6F15784   2.531   5.155   3.610 -0.2740 -0.6858  1.0332
  144OSM    H6G15785   2.357   5.165   3.666 -1.9086  0.0747 -1.8912
  144OSM    C7F15786   2.496   5.330   3.723  0.3967 -0.6179  0.7267
  144OSM    H7F15787   2.417   5.408   3.735  1.0085  0.1329  0.0519
  144OSM    H7G15788   2.573   5.395   3.674 -0.8787 -0.4717 -1.2089
  144OSM    C8F15789   2.544   5.268   3.856 -0.1354 -0.1685  0.6841
  144OSM    H8F15790   2.653   5.254   3.838  0.0495  0.9413  0.8506
  144OSM    H8G15791   2.496   5.171   3.882 -1.3322  0.8631  2.6352
  144OSM    C9F15792   2.537   5.370   3.972 -0.1275 -0.2172  0.7018
  144OSM    H9F15793   2.512   5.470   3.936 -1.6498 -0.7204  0.2757
  144OSM   C10F15794   2.541   5.350   4.105 -0.1256 -0.2519  0.4435
  144OSM   H10F15795   2.539   5.436   4.173 -1.2071 -1.4244  1.9763
  144OSM   C11F15796   2.569   5.214   4.158  0.4007 -0.2113 -0.2788
  144OSM   H11F15797   2.676   5.193   4.138  0.0898 -0.3406 -1.9593
  144OSM   H11G15798   2.511   5.130   4.113 -2.4888  1.9531 -0.9379
  144OSM   C12F15799   2.558   5.199   4.310  0.6384 -0.1529 -0.3265
  144OSM   H12F15800   2.612   5.279   4.364 -2.9166  0.3479  2.8629
  144OSM   H12G15801   2.598   5.101   4.343  0.7593  0.4220  1.3134
  144OSM   C13F15802   2.412   5.182   4.361  0.7869 -0.0567  0.1203
  144OSM   H13F15803   2.370   5.095   4.306  0.5118  0.5696 -0.6885
  144OSM   H13G15804   2.353   5.272   4.333 -1.1882 -1.1919  0.4426
  144OSM   C14F15805   2.398   5.145   4.507 -0.8019 -0.9567  0.2165
  144OSM   H14F15806   2.454   5.050   4.515  0.6578 -0.3222 -1.6615
  144OSM   H14G15807   2.290   5.123   4.518 -0.3353 -2.5699  1.9226
  144OSM   C15F15808   2.448   5.254   4.604 -0.2947 -0.0095  0.3101
  144OSM   H15F15809   2.393   5.234   4.699  1.6301 -1.3190  1.2010
  144OSM   H15G15810   2.412   5.353   4.566  0.6574  0.4286  0.5178
  144OSM   C16F15811   2.601   5.257   4.635  0.3613 -0.0460  0.3735
  144OSM   H16F15812   2.639   5.343   4.576 -0.2151  1.5098  2.1617
  144OSM   H16G15813   2.645   5.157   4.615 -0.8108 -0.5555  0.2527
  144OSM   C17F15814   2.633   5.293   4.775  0.3945  0.5076 -0.4228
  144OSM   H17F15815   2.560   5.368   4.811  1.3960  1.9297 -1.2561
  144OSM   H17G15816   2.733   5.340   4.791  0.9458 -0.9046  0.4347
  144OSM   C18F15817   2.631   5.179   4.879  0.1972  0.0494  0.0962
  144OSM   H18F15818   2.682   5.212   4.972  2.1328  2.7538 -1.7934
  144OSM   H18G15819   2.682   5.095   4.826  1.1733  0.5462  0.2294
  144OSM   H18H15820   2.528   5.146   4.905  0.2118 -0.5305 -0.5565
  145SAPE     N15821   4.855   2.250   7.377 -1.0117  0.3318 -0.1956
  145SAPE   HN115822   4.941   2.307   7.367 -0.2268 -0.8567 -0.5205
  145SAPE   HN215823   4.799   2.237   7.290  0.5666  1.8544 -1.5011
  145SAPE   HN315824   4.794   2.306   7.441 -0.8655  1.4428 -1.0085
  145SAPE   C1215825   4.886   2.113   7.427  0.6893  0.6860  0.6596
  145SAPE  H12A15826   4.956   2.133   7.511  0.8535  1.0956  0.4322
  145SAPE  H12B15827   4.951   2.059   7.355  0.3950 -0.5805  1.3190
  145SAPE   C1115828   4.767   2.023   7.472  0.8944  0.3940 -0.3118
  145SAPE  H11A15829   4.715   2.082   7.552  1.7627  1.6115 -0.6101
  145SAPE  H11B15830   4.802   1.928   7.518 -0.2727  0.6259  1.1440
  145SAPE     P15831   4.530   1.983   7.369 -0.0612 -0.5473  0.1076
  145SAPE   O1315832   4.489   1.852   7.427  0.1429  0.1716  0.5160
  145SAPE   O1415833   4.482   2.102   7.433 -0.0718 -0.2328 -0.6715
  145SAPE   O1215834   4.689   1.986   7.358 -0.3190  0.0516 -0.5685
  145SAPE   O1115835   4.487   1.979   7.216 -0.1952 -0.5717  0.0139
  145SAPE    C115836   4.576   2.021   7.114  0.0126  0.4462  0.1805
  145SAPE    HA15837   4.589   2.131   7.110  2.3822  0.1787 -1.0030
  145SAPE    HB15838   4.675   1.972   7.128 -0.8461 -1.3230  0.4664
  145SAPE    C215839   4.529   1.982   6.969 -0.1875 -0.2248  0.4491
  145SAPE    HS15840   4.536   1.872   6.952 -1.5300 -0.4343  1.0626
  145SAPE   O2115841   4.616   2.054   6.880 -0.1065  0.3105 -0.1868
  145SAPE   C2115842   4.633   1.999   6.767  0.4202 -0.0430 -0.3701
  145SAPE   O2215843   4.574   1.903   6.720  0.6076  0.0869  0.5689
  145SAPE   C2215844   4.743   2.079   6.698 -0.3874 -0.4489  0.4969
  145SAPE   H2R15845   4.703   2.181   6.684  0.1748 -0.0932  1.3489
  145SAPE   H2S15846   4.811   2.100   6.784 -3.3741  4.3362  2.0392
  145SAPE    C315847   4.386   2.024   6.943  0.1922 -0.7038  0.2966
  145SAPE    HX15848   4.377   2.134   6.959 -0.5309 -0.9908  2.0049
  145SAPE    HY15849   4.335   1.994   7.036  1.0166 -1.2913  0.5693
  145SAPE   O3115850   4.322   1.988   6.818 -0.4294  0.4528  0.9942
  145SAPE   C3115851   4.267   1.873   6.817 -0.1577  0.3936  0.2379
  145SAPE   O3215852   4.262   1.794   6.910 -0.3208 -0.4099  0.1730
  145SAPE   C3215853   4.198   1.854   6.686 -0.5385 -0.3620 -0.6689
  145SAPE   H2X15854   4.258   1.897   6.602 -1.8645  2.3264 -0.3652
  145SAPE   H2Y15855   4.111   1.923   6.685  1.4920  2.3903  0.1480
  145SAPE   C2315856   4.806   2.011   6.581  0.5616 -0.2413 -0.0406
  145SAPE   H3R15857   4.825   1.905   6.606 -1.9658 -0.8047 -0.2224
  145SAPE   H3S15858   4.909   2.046   6.560  1.2912 -2.0587  0.3830
  145SAPE   C2415859   4.727   2.011   6.449 -0.0425  0.8017 -0.1555
  145SAPE   H4R15860   4.624   1.972   6.465 -0.5041  2.2439  0.5697
  145SAPE   H4S15861   4.784   1.941   6.385 -1.7976 -1.4494  0.6238
  145SAPE   C2515862   4.726   2.140   6.375  0.2100  0.1960  0.1376
  145SAPE   H5R15863   4.691   2.222   6.441  0.2723  0.2206  0.1393
  145SAPE   C2615864   4.760   2.174   6.251 -0.4235 -0.5525  0.1349
  145SAPE   H6R15865   4.755   2.278   6.215  2.3465  0.2045  1.6670
  145SAPE   C2715866   4.812   2.075   6.145  0.3503  0.5372 -0.2825
  145SAPE   H7R15867   4.769   2.091   6.044  2.2413 -2.1177 -1.6086
  145SAPE   H7S15868   4.781   1.971   6.171  0.2802  0.8091  0.7675
  145SAPE   C2815869   4.962   2.101   6.124 -0.5311 -0.0130  0.4513
  145SAPE   H8R15870   5.024   2.086   6.214 -1.4419 -2.3093  0.7582
  145SAPE   C2915871   5.027   2.134   6.005  0.4107 -0.5189 -0.8581
  145SAPE   H9R15872   5.136   2.144   6.016  0.1373  0.2019  2.0666
  145SAPE  C21015873   4.951   2.154   5.875 -0.5327  0.3704  0.1913
  145SAPE  H10R15874   5.015   2.222   5.816  0.8562 -1.1847 -0.1588
  145SAPE  H10S15875   4.851   2.198   5.896 -0.1428  0.1224  2.9549
  145SAPE  C21115876   4.923   2.019   5.814  0.1962 -0.7056  0.6367
  145SAPE  H11R15877   4.972   1.938   5.869  3.2990  0.2630 -0.4816
  145SAPE  C21215878   4.870   2.012   5.692 -1.0550 -0.1456  0.4858
  145SAPE  H12R15879   4.829   1.912   5.669 -1.5183 -0.0427  0.8430
  145SAPE  C21315880   4.819   2.127   5.601  0.0397 -0.0564 -0.1038
  145SAPE  H13R15881   4.807   2.217   5.666  0.0343  1.0486 -1.5702
  145SAPE  H13S15882   4.726   2.098   5.550 -0.8590 -0.8982  1.8904
  145SAPE  C21415883   4.932   2.147   5.510  0.3327 -0.5889 -0.4672
  145SAPE  H14R15884   5.030   2.175   5.552 -0.5839 -0.0528  1.4051
  145SAPE  C21515885   4.925   2.122   5.377 -0.8725 -0.5583 -0.2554
  145SAPE  H15R15886   5.010   2.159   5.317  0.8072 -1.9809  1.1150
  145SAPE  C21615887   4.813   2.078   5.285  0.2140  0.6537 -0.1029
  145SAPE  H16R15888   4.723   2.108   5.343  0.5502 -1.3235  1.5433
  145SAPE  H16S15889   4.809   1.968   5.276 -1.7258  0.8101 -2.0864
  145SAPE  C21715890   4.789   2.141   5.146  0.6027  0.4011 -0.1996
  145SAPE  H17R15891   4.862   2.101   5.072  2.3981  0.6268  1.3732
  145SAPE  H17S15892   4.825   2.245   5.165 -1.6049  1.1364  0.2325
  145SAPE  C21815893   4.639   2.141   5.107 -0.5568  0.1906 -0.3459
  145SAPE  H18R15894   4.592   2.048   5.144  2.0986 -0.9912  0.2265
  145SAPE  H18S15895   4.635   2.144   4.996 -0.9231 -0.7691 -0.3666
  145SAPE  C21915896   4.551   2.260   5.157 -0.0519  0.2434 -0.0408
  145SAPE  H19R15897   4.591   2.357   5.121 -2.6950  1.1502 -0.8144
  145SAPE  H19S15898   4.555   2.258   5.268  2.4378  0.4892 -0.0703
  145SAPE  C22015899   4.403   2.245   5.101  0.4453 -0.0380  0.2748
  145SAPE  H20R15900   4.346   2.339   5.121 -0.2131  0.6427 -3.8906
  145SAPE  H20S15901   4.354   2.160   5.152  1.5313 -1.4128 -0.8961
  145SAPE  H20T15902   4.407   2.235   4.990 -2.8790 -1.2554  0.1429
  145SAPE   C3315903   4.166   1.705   6.650  0.1410 -0.5153 -0.4079
  145SAPE   H3X15904   4.080   1.676   6.714 -0.8733 -0.5772 -1.7685
  145SAPE   H3Y15905   4.257   1.644   6.670  0.0250 -0.9991 -1.2932
  145SAPE   C3415906   4.110   1.704   6.506 -0.2214 -0.4026  1.1549
  145SAPE   H4X15907   4.058   1.611   6.477 -3.2452  1.9882 -1.9801
  145SAPE   H4Y15908   4.190   1.721   6.431  0.5313 -1.9000  1.5931
  145SAPE   C3515909   4.005   1.812   6.472  1.6344 -0.1440 -0.3970
  145SAPE   H5X15910   4.059   1.908   6.454 -0.2603  1.3510  1.3377
  145SAPE   H5Y15911   3.931   1.823   6.554  2.1810 -1.7483  0.3432
  145SAPE   C3615912   3.914   1.786   6.350  0.1902  1.0318  0.0296
  145SAPE   H6X15913   3.840   1.868   6.346 -0.2627  0.6196 -0.1543
  145SAPE   H6Y15914   3.853   1.694   6.365  0.3162  0.9794  0.2309
  145SAPE   C3715915   3.994   1.772   6.224  0.1502 -0.1501 -0.4843
  145SAPE   H7X15916   4.048   1.675   6.220  3.3950  1.4866  0.2259
  145SAPE   H7Y15917   4.063   1.858   6.213 -0.8919  0.5509 -1.7914
  145SAPE   C3815918   3.889   1.769   6.111 -0.1235 -0.0425 -0.6803
  145SAPE   H8X15919   3.820   1.855   6.122  0.3400  0.1229  1.2072
  145SAPE   H8Y15920   3.831   1.675   6.121  0.8196 -0.4391  1.5863
  145SAPE   C3915921   3.970   1.766   5.978  0.2821  0.5713 -0.9512
  145SAPE   H9X15922   4.034   1.675   5.977  0.4269  0.5871  1.2197
  145SAPE   H9Y15923   4.032   1.856   5.958 -0.3660  1.4061  0.5802
  145SAPE  C31015924   3.871   1.753   5.856 -0.4244 -0.3972 -0.3680
  145SAPE  H10X15925   3.806   1.844   5.859 -0.7321 -0.5924 -1.0495
  145SAPE  H10Y15926   3.804   1.670   5.885  0.4837 -1.2579 -0.6757
  145SAPE  C31115927   3.947   1.731   5.727  0.4240  0.0409 -0.2862
  145SAPE  H11X15928   3.871   1.694   5.656 -0.1970  0.3631  0.2024
  145SAPE  H11Y15929   4.018   1.646   5.737 -1.8358 -2.1710 -1.8846
  145SAPE  C31215930   4.006   1.862   5.681  0.2059 -0.5644 -0.7561
  145SAPE  H12X15931   4.080   1.897   5.756 -0.5951 -1.4230  0.4798
  145SAPE  H12Y15932   3.921   1.934   5.671  1.5473  1.3025  0.5853
  145SAPE  C31315933   4.080   1.852   5.546 -0.4714 -0.2789 -0.1168
  145SAPE  H13X15934   4.129   1.754   5.527 -2.0821 -0.8195 -1.6742
  145SAPE  H13Y15935   4.157   1.931   5.565 -0.5888 -0.5978  1.9996
  145SAPE  C31415936   4.004   1.909   5.428  1.1134 -0.4888 -0.5609
  145SAPE  H14X15937   4.082   1.934   5.353  2.4512  0.1043  0.9612
  145SAPE  H14Y15938   3.954   2.006   5.451 -0.2546 -1.7439  2.2089
  145SAPE  C31515939   3.900   1.805   5.372 -0.4581  0.2143  0.6776
  145SAPE  H15X15940   3.843   1.767   5.459  1.6313  0.2217  2.1328
  145SAPE  H15Y15941   3.964   1.728   5.323  0.3166  1.9518 -1.1464
  145SAPE  C31615942   3.798   1.860   5.264 -0.1223  0.0881  0.0829
  145SAPE  H16X15943   3.851   1.945   5.217  1.6529 -0.5807  0.7853
  145SAPE  H16Y15944   3.699   1.895   5.301  0.2846  3.5224 -1.7295
  145SAPE  C31715945   3.767   1.766   5.150  0.2636 -0.0262  0.2855
  145SAPE  H17X15946   3.702   1.821   5.079  0.9584  0.4925  0.0378
  145SAPE  H17Y15947   3.702   1.680   5.175 -3.8966  2.7835  0.0458
  145SAPE  C31815948   3.893   1.722   5.070 -0.1019  0.0569 -0.6058
  145SAPE  H18X15949   3.953   1.809   5.037 -2.3692  1.0826 -2.3447
  145SAPE  H18Y15950   3.859   1.663   4.982 -1.6637 -0.1111  0.0758
  145SAPE  H18Z15951   3.952   1.658   5.139 -0.0005  0.2488 -0.5149
  146SAPE     N15952   1.076   0.923   7.011 -0.6414  0.5864  0.5048
  146SAPE   HN115953   1.074   0.820   6.997  2.8807  0.3163  1.0890
  146SAPE   HN215954   1.015   0.946   7.091 -2.7387 -0.3787 -0.7417
  146SAPE   HN315955   1.023   0.962   6.931  1.2010 -2.3100 -2.3811
  146SAPE   C1215956   1.217   0.968   7.016 -0.0884  0.6461 -0.6481
  146SAPE  H12A15957   1.267   0.951   6.918  0.9386  0.6746 -0.1459
  146SAPE  H12B15958   1.273   0.911   7.094  1.7996  1.6312 -1.2111
  146SAPE   C1115959   1.232   1.116   7.050 -0.2951 -0.3247 -0.0920
  146SAPE  H11A15960   1.158   1.177   6.995  1.1361  1.8239  0.2776
  146SAPE  H11B15961   1.328   1.156   7.013 -2.0205  1.8918 -2.5181
  146SAPE     P15962   1.177   1.283   7.229 -0.2827  0.0875 -0.1431
  146SAPE   O1315963   1.035   1.297   7.198 -0.2645  0.8764  0.4144
  146SAPE   O1415964   1.220   1.307   7.370  0.2498 -0.2276 -0.1669
  146SAPE   O1215965   1.230   1.142   7.191  0.6003 -0.0438  0.0754
  146SAPE   O1115966   1.270   1.380   7.140 -0.2475 -0.4393 -0.5763
  146SAPE    C115967   1.262   1.520   7.144 -0.6927 -0.0687  0.0596
  146SAPE    HA15968   1.167   1.563   7.181  0.0034  2.3132 -0.7175
  146SAPE    HB15969   1.342   1.563   7.208  1.8650  1.2170 -3.6512
  146SAPE    C215970   1.285   1.585   7.007  0.4533 -0.3924  0.3687
  146SAPE    HS15971   1.320   1.690   7.021  0.8979 -0.2943 -1.3262
  146SAPE   O2115972   1.170   1.574   6.929  0.1014 -0.2323  0.6167
  146SAPE   C2115973   1.124   1.687   6.886 -0.0340 -0.1783  0.3042
  146SAPE   O2215974   1.168   1.798   6.913 -0.9051 -0.1437  0.5500
  146SAPE   C2215975   0.997   1.668   6.808  0.3260 -0.2718 -0.0995
  146SAPE   H2R15976   0.948   1.568   6.819 -1.5228  0.7829  2.2441
  146SAPE   H2S15977   0.919   1.738   6.844 -0.4343 -1.6491  1.0739
  146SAPE    C315978   1.406   1.523   6.929  0.4024  0.1979 -0.2676
  146SAPE    HX15979   1.376   1.417   6.910  1.2183 -0.5570  2.1719
  146SAPE    HY15980   1.487   1.505   7.003 -2.4607  0.3355  3.1639
  146SAPE   O3115981   1.447   1.597   6.811  0.2965 -0.1391 -0.4099
  146SAPE   C3115982   1.508   1.712   6.812 -0.2397 -0.9115  0.5923
  146SAPE   O3215983   1.557   1.771   6.906  0.1651  0.1615  0.4546
  146SAPE   C3215984   1.514   1.750   6.670 -0.2831 -0.3054 -0.4776
  146SAPE   H2X15985   1.414   1.750   6.622 -1.3433 -1.4505  1.6371
  146SAPE   H2Y15986   1.578   1.670   6.627 -0.2000 -1.0362  0.9695
  146SAPE   C2315987   1.015   1.713   6.654  0.5634 -0.4116  0.2591
  146SAPE   H3R15988   1.101   1.657   6.611  0.3578 -0.7231  0.2481
  146SAPE   H3S15989   1.049   1.817   6.637 -0.0586 -0.3446 -0.6088
  146SAPE   C2415990   0.882   1.682   6.578  0.1692  0.2786 -0.6801
  146SAPE   H4R15991   0.858   1.757   6.500 -0.9298 -0.2520 -0.8743
  146SAPE   H4S15992   0.792   1.695   6.642  0.3027  0.8106 -0.6017
  146SAPE   C2515993   0.880   1.550   6.506 -0.0642  0.4026 -0.6853
  146SAPE   H5R15994   0.852   1.472   6.579  1.8881 -0.9896 -1.3556
  146SAPE   C2615995   0.910   1.523   6.379  0.0285 -0.1728  0.0723
  146SAPE   H6R15996   0.881   1.428   6.332 -1.1187  1.7244 -3.4287
  146SAPE   C2715997   0.954   1.635   6.288  0.1840  0.5075  0.2479
  146SAPE   H7R15998   0.886   1.723   6.286  1.6678  1.7013 -1.8963
  146SAPE   H7S15999   0.942   1.593   6.186  0.7326  0.6021  0.1384
  146SAPE   C2816000   1.094   1.680   6.310  0.1122  0.0617 -0.3444
  146SAPE   H8R16001   1.131   1.680   6.414 -0.1181 -1.5814 -0.2220
  146SAPE   C2916002   1.183   1.695   6.209  0.1961  0.5049 -0.1502
  146SAPE   H9R16003   1.283   1.727   6.241 -0.0346  1.0776  0.0099
  146SAPE  C21016004   1.174   1.686   6.052 -0.4596  0.2518 -0.5500
  146SAPE  H10R16005   1.197   1.787   6.012 -3.4033  1.0433 -0.4504
  146SAPE  H10S16006   1.068   1.673   6.024 -0.2839 -0.4042 -0.9225
  146SAPE  C21116007   1.249   1.568   5.997  0.3699  0.0726 -0.1574
  146SAPE  H11R16008   1.213   1.469   6.029 -2.0198 -0.3133 -3.4996
  146SAPE  C21216009   1.325   1.573   5.892 -0.2658 -0.0393 -0.7798
  146SAPE  H12R16010   1.383   1.486   5.860  1.3032  0.7531 -0.1949
  146SAPE  C21316011   1.353   1.701   5.817 -0.5375  0.3694  0.7389
  146SAPE  H13R16012   1.444   1.755   5.854  0.3747  0.2931 -1.2364
  146SAPE  H13S16013   1.270   1.775   5.810 -0.5653  0.2091 -2.0213
  146SAPE  C21416014   1.375   1.661   5.672 -0.1660 -0.3391  0.2493
  146SAPE  H14R16015   1.481   1.649   5.643 -0.6939 -1.7452 -1.2608
  146SAPE  C21516016   1.290   1.645   5.566  0.5152  0.1514  0.5927
  146SAPE  H15R16017   1.332   1.617   5.469  0.0044  1.9345 -0.1934
  146SAPE  C21616018   1.140   1.636   5.580  0.2883  0.4772 -0.4454
  146SAPE  H16R16019   1.110   1.658   5.684  3.1876 -1.9287  1.0308
  146SAPE  H16S16020   1.111   1.530   5.567  3.0458 -0.7250  2.2344
  146SAPE  C21716021   1.057   1.735   5.500 -0.0863  0.4524 -0.8677
  146SAPE  H17R16022   1.099   1.838   5.507 -1.5233  0.9895  0.3842
  146SAPE  H17S16023   0.959   1.744   5.552 -1.0568 -1.0242 -2.3563
  146SAPE  C21816024   1.026   1.694   5.355 -0.1402  0.0275  0.0968
  146SAPE  H18R16025   0.932   1.636   5.346  0.4776 -0.7768 -1.6985
  146SAPE  H18S16026   1.113   1.632   5.325  1.3270  2.0336  0.0397
  146SAPE  C21916027   1.012   1.817   5.267 -0.2115 -0.0056 -0.5202
  146SAPE  H19R16028   1.085   1.896   5.297 -1.3563  0.9569 -0.2007
  146SAPE  H19S16029   0.915   1.868   5.280  0.0200  0.6091 -1.1309
  146SAPE  C22016030   1.025   1.788   5.116 -0.1730  0.0973  0.2350
  146SAPE  H20R16031   0.963   1.703   5.080  0.0163 -0.3587  0.9618
  146SAPE  H20S16032   1.129   1.755   5.092 -0.5888  0.1916 -1.8409
  146SAPE  H20T16033   1.004   1.881   5.061  0.7658 -0.1038 -0.4957
  146SAPE   C3316034   1.583   1.882   6.636  0.1052 -0.2023  0.2353
  146SAPE   H3X16035   1.680   1.873   6.689 -0.0663 -0.6923  0.4761
  146SAPE   H3Y16036   1.523   1.967   6.675 -0.2406 -0.4547  0.2634
  146SAPE   C3416037   1.618   1.886   6.487 -0.3519  0.3271  0.2234
  146SAPE   H4X16038   1.666   1.788   6.467  1.0255  1.3845 -2.0517
  146SAPE   H4Y16039   1.704   1.956   6.477 -1.1845  1.6109  1.6629
  146SAPE   C3516040   1.501   1.919   6.389  0.2749 -0.2298  0.4757
  146SAPE   H5X16041   1.477   2.026   6.399  1.8832  0.5632 -2.7837
  146SAPE   H5Y16042   1.409   1.857   6.394  0.3986 -0.6756 -1.8275
  146SAPE   C3616043   1.556   1.913   6.243 -0.3296  0.1518 -0.5219
  146SAPE   H6X16044   1.613   2.007   6.228 -0.0754  0.2122  0.6895
  146SAPE   H6Y16045   1.465   1.909   6.180 -0.7618 -0.9313  0.1392
  146SAPE   C3716046   1.647   1.794   6.220 -0.6386  0.3284 -0.0759
  146SAPE   H7X16047   1.613   1.711   6.286 -0.3134 -0.3524 -0.7396
  146SAPE   H7Y16048   1.748   1.819   6.261 -1.0905  1.5530  0.3333
  146SAPE   C3816049   1.653   1.768   6.063  0.2660 -0.0839 -0.2364
  146SAPE   H8X16050   1.555   1.736   6.022  0.5774  0.8813 -1.8235
  146SAPE   H8Y16051   1.726   1.687   6.043  0.8285  1.0364 -3.2261
  146SAPE   C3916052   1.700   1.883   5.972  0.7890  0.4914  0.3945
  146SAPE   H9X16053   1.803   1.907   6.004 -0.6640  3.5828  3.4614
  146SAPE   H9Y16054   1.646   1.975   6.004 -0.7120 -1.2181  3.2055
  146SAPE  C31016055   1.687   1.862   5.820 -0.2911  0.1291  0.3376
  146SAPE  H10X16056   1.581   1.873   5.789  0.0344  0.9368 -0.5122
  146SAPE  H10Y16057   1.729   1.762   5.796 -1.3813 -0.1005 -0.7310
  146SAPE  C31116058   1.766   1.973   5.743  0.4727  0.1206  0.5119
  146SAPE  H11X16059   1.870   1.989   5.781  0.1354  1.5386  0.8818
  146SAPE  H11Y16060   1.707   2.066   5.757  0.2178  0.1483 -0.6275
  146SAPE  C31216061   1.772   1.944   5.593 -0.0021  0.1205 -0.2740
  146SAPE  H12X16062   1.675   1.911   5.551 -1.1884  0.0880  2.2898
  146SAPE  H12Y16063   1.842   1.859   5.576 -2.3208 -2.1706  0.9788
  146SAPE  C31316064   1.826   2.064   5.520 -0.0113  0.2764 -0.0554
  146SAPE  H13X16065   1.923   2.094   5.565  0.5747  0.9998 -1.7238
  146SAPE  H13Y16066   1.755   2.145   5.547  0.1777  0.9983 -1.6209
  146SAPE  C31416067   1.834   2.032   5.373  0.4979 -0.8592  0.0914
  146SAPE  H14X16068   1.739   1.983   5.342  0.2747 -0.0112 -0.5920
  146SAPE  H14Y16069   1.911   1.953   5.362  0.2191 -1.3418  1.3879
  146SAPE  C31516070   1.861   2.151   5.285 -0.7002 -0.0415 -0.4604
  146SAPE  H15X16071   1.784   2.230   5.299  0.2745  0.9465 -0.5229
  146SAPE  H15Y16072   1.861   2.127   5.177 -0.3609  2.4065 -1.0724
  146SAPE  C31616073   2.002   2.216   5.315  0.0633 -0.3230 -0.6157
  146SAPE  H16X16074   2.073   2.136   5.286 -0.5746 -0.3347 -2.2352
  146SAPE  H16Y16075   2.022   2.243   5.421  0.3431 -1.2197 -0.4324
  146SAPE  C31716076   2.037   2.342   5.227 -0.0205 -0.1148 -0.6135
  146SAPE  H17X16077   1.986   2.336   5.129 -2.7053 -0.2326  0.6971
  146SAPE  H17Y16078   2.146   2.351   5.209  0.6123 -0.5868  2.5086
  146SAPE  C31816079   2.006   2.477   5.293  0.4690 -0.5051  0.2118
  146SAPE  H18X16080   1.897   2.475   5.318  0.7284 -1.0941  1.4089
  146SAPE  H18Y16081   2.028   2.568   5.234  0.0204  1.0878  2.3495
  146SAPE  H18Z16082   2.067   2.494   5.385  0.2419  1.6466  0.0161
  147SAPE     N16083   5.577   6.244   7.013  0.0162  0.2610 -0.2769
  147SAPE   HN116084   5.530   6.249   7.105  1.8713  2.1069  0.6337
  147SAPE   HN216085   5.655   6.175   7.012  0.7842  1.1089 -1.6533
  147SAPE   HN316086   5.633   6.330   6.999  1.0574 -0.4368 -0.5705
  147SAPE   C1216087   5.507   6.215   6.883  0.0884 -0.3567 -0.2744
  147SAPE  H12A16088   5.399   6.206   6.907  0.8461  0.2526  4.3074
  147SAPE  H12B16089   5.542   6.117   6.845 -0.6736 -1.3468  1.4409
  147SAPE   C1116090   5.525   6.322   6.776  0.2908 -0.3326  0.1839
  147SAPE  H11A16091   5.451   6.311   6.693  0.3066  0.1100  0.1063
  147SAPE  H11B16092   5.621   6.308   6.722  1.1267  0.4536  1.4276
  147SAPE     P16093   5.422   6.558   6.790  0.4902  0.0166  0.1592
  147SAPE   O1316094   5.283   6.520   6.836 -0.2331  0.0796  0.4202
  147SAPE   O1416095   5.473   6.688   6.831 -0.0411 -0.4064 -0.1678
  147SAPE   O1216096   5.528   6.451   6.835  0.6954  0.4976  0.3471
  147SAPE   O1116097   5.419   6.550   6.635 -0.7019  0.0487 -0.0129
  147SAPE    C116098   5.533   6.609   6.565 -0.0864 -0.2620 -0.8299
  147SAPE    HA16099   5.534   6.720   6.574 -0.8843 -0.3635  0.7335
  147SAPE    HB16100   5.627   6.565   6.605  0.0067  0.9253  0.3197
  147SAPE    C216101   5.530   6.580   6.414  0.1430 -0.9056  0.2499
  147SAPE    HS16102   5.626   6.618   6.374 -0.1193  0.7055  1.0718
  147SAPE   O2116103   5.418   6.649   6.355  0.3204  0.1958  0.0466
  147SAPE   C2116104   5.431   6.777   6.329 -0.0228 -0.0848 -0.0126
  147SAPE   O2216105   5.532   6.838   6.345 -0.3328  0.5399  0.4151
  147SAPE   C2216106   5.306   6.829   6.261  0.0881  0.4649 -1.4592
  147SAPE   H2R16107   5.224   6.799   6.330  2.6147 -2.6978  0.4664
  147SAPE   H2S16108   5.307   6.940   6.267 -1.0888  0.4494 -0.5281
  147SAPE    C316109   5.517   6.428   6.379 -0.4482  0.1829 -0.0499
  147SAPE    HX16110   5.421   6.391   6.421  0.1958 -1.2765  0.2139
  147SAPE    HY16111   5.600   6.373   6.427 -1.2036 -0.0838  0.9845
  147SAPE   O3116112   5.536   6.422   6.231 -0.3654 -0.1111 -0.6210
  147SAPE   C3116113   5.430   6.397   6.157  0.2043 -0.6956  0.0673
  147SAPE   O3216114   5.318   6.388   6.200  0.1996 -0.2297  0.1069
  147SAPE   C3216115   5.477   6.365   6.014  0.3258 -0.3463  0.1151
  147SAPE   H2X16116   5.573   6.311   6.028  0.8057  0.6590  0.8772
  147SAPE   H2Y16117   5.502   6.458   5.959  1.3959 -1.2757 -1.0333
  147SAPE   C2316118   5.287   6.769   6.117 -0.0160  0.4062 -0.0323
  147SAPE   H3R16119   5.186   6.725   6.108  0.0772  0.5632 -2.3406
  147SAPE   H3S16120   5.362   6.693   6.086 -1.6623 -0.7105 -1.4666
  147SAPE   C2416121   5.318   6.880   6.006  0.1081 -0.3363 -0.3702
  147SAPE   H4R16122   5.258   6.967   6.040  1.0754 -0.6871  2.4792
  147SAPE   H4S16123   5.285   6.844   5.906 -3.0724 -0.4604  0.6053
  147SAPE   C2516124   5.456   6.928   5.995 -0.0245  0.6466 -0.2117
  147SAPE   H5R16125   5.505   6.962   6.087  0.9521 -2.6019  0.6207
  147SAPE   C2616126   5.528   6.932   5.882 -0.1514  0.2501  0.3595
  147SAPE   H6R16127   5.627   6.978   5.894  0.5256 -1.1040  0.1618
  147SAPE   C2716128   5.488   6.877   5.745 -0.5108 -0.4180 -0.4506
  147SAPE   H7R16129   5.457   6.771   5.755 -0.0766 -0.5640 -0.6658
  147SAPE   H7S16130   5.571   6.861   5.674 -0.8512  1.6018 -1.3678
  147SAPE   C2816131   5.375   6.959   5.686 -0.1113  0.1659  1.2523
  147SAPE   H8R16132   5.304   7.011   5.752 -1.0210  2.1602 -1.1371
  147SAPE   C2916133   5.373   6.996   5.553 -0.0058 -0.0183 -0.2183
  147SAPE   H9R16134   5.288   7.054   5.514  0.5406  0.3389 -0.8974
  147SAPE  C21016135   5.470   6.958   5.438 -0.5948  0.8544  0.0464
  147SAPE  H10R16136   5.411   6.904   5.361  2.7456 -1.2932 -1.2232
  147SAPE  H10S16137   5.543   6.881   5.469  0.8038  1.5200 -1.4821
  147SAPE  C21116138   5.542   7.080   5.390 -0.1376 -0.0139  0.7134
  147SAPE  H11R16139   5.538   7.172   5.451  1.3737  1.0551 -0.7124
  147SAPE  C21216140   5.581   7.099   5.265 -0.8649  0.7413  0.3370
  147SAPE  H12R16141   5.623   7.196   5.236  1.1491 -0.7639 -2.1780
  147SAPE  C21316142   5.584   6.986   5.160  0.0483  0.1525 -0.2238
  147SAPE  H13R16143   5.479   6.951   5.153 -0.1760  0.0215  2.4821
  147SAPE  H13S16144   5.646   6.905   5.203 -0.4384  0.5965  1.4010
  147SAPE  C21416145   5.630   7.017   5.017  0.1913  0.4414 -0.0584
  147SAPE  H14R16146   5.718   6.953   4.998 -2.0398 -2.2418 -2.2117
  147SAPE  C21516147   5.581   7.096   4.920 -0.0593 -0.1443  0.2072
  147SAPE  H15R16148   5.628   7.093   4.821 -0.9115  0.2172 -0.2193
  147SAPE  C21616149   5.451   7.178   4.928  0.6458 -0.4679 -0.3971
  147SAPE  H16R16150   5.406   7.161   5.028 -0.7819  1.4129 -0.6778
  147SAPE  H16S16151   5.374   7.155   4.851 -3.0633  0.7125  2.6622
  147SAPE  C21716152   5.487   7.327   4.916  0.5850  0.1030  0.4777
  147SAPE  H17R16153   5.567   7.349   4.843  0.5139 -0.2976  0.2755
  147SAPE  H17S16154   5.519   7.367   5.014 -0.6345  1.3451  0.4086
  147SAPE  C21816155   5.360   7.410   4.876 -0.0095  0.0801 -0.2345
  147SAPE  H18R16156   5.285   7.378   4.951  1.5171 -0.3321  1.1918
  147SAPE  H18S16157   5.327   7.367   4.780  1.7677 -1.3235 -0.2814
  147SAPE  C21916158   5.376   7.563   4.869  0.3956 -0.3929 -0.6771
  147SAPE  H19R16159   5.465   7.578   4.803 -1.1521 -1.0053 -3.0042
  147SAPE  H19S16160   5.386   7.603   4.972 -2.5306 -1.4295  0.0887
  147SAPE  C22016161   5.247   7.638   4.825 -0.2779  0.2977 -0.3329
  147SAPE  H20R16162   5.215   7.585   4.733 -0.9624 -1.1219  0.6806
  147SAPE  H20S16163   5.275   7.741   4.794  0.2199  0.3655  0.3290
  147SAPE  H20T16164   5.167   7.644   4.902 -1.8804  0.9078 -1.9817
  147SAPE   C3316165   5.370   6.273   5.959 -0.0847  0.1056  0.2193
  147SAPE   H3X16166   5.278   6.335   5.949  0.1170  0.5031  0.7925
  147SAPE   H3Y16167   5.357   6.192   6.034 -1.1796  0.8284  0.8341
  147SAPE   C3416168   5.414   6.203   5.828  0.2650  0.3409  0.3606
  147SAPE   H4X16169   5.338   6.128   5.797 -0.2413  0.7910  0.5026
  147SAPE   H4Y16170   5.504   6.141   5.849  1.0127  1.9415  2.1763
  147SAPE   C3516171   5.445   6.293   5.713  0.0097 -0.7125 -0.0282
  147SAPE   H5X16172   5.480   6.238   5.623  1.9622  1.4535 -0.6772
  147SAPE   H5Y16173   5.530   6.358   5.743 -0.6052 -0.4774  1.2837
  147SAPE   C3616174   5.331   6.393   5.664  0.5656 -0.1461 -0.1757
  147SAPE   H6X16175   5.296   6.456   5.749  0.1071 -3.1861  2.0693
  147SAPE   H6Y16176   5.236   6.351   5.626  0.3912 -0.6177  0.7451
  147SAPE   C3716177   5.393   6.499   5.569  0.0281  0.0129  0.4383
  147SAPE   H7X16178   5.504   6.494   5.563  0.0244 -0.8812  0.9301
  147SAPE   H7Y16179   5.361   6.597   5.610 -2.9813 -1.3694  1.7383
  147SAPE   C3816180   5.341   6.475   5.428  0.6929 -0.1820  0.7723
  147SAPE   H8X16181   5.377   6.561   5.367 -1.8743 -0.3517 -1.1162
  147SAPE   H8Y16182   5.232   6.487   5.443  0.7326  0.0498  0.8877
  147SAPE   C3916183   5.390   6.337   5.375 -0.0520  0.0559 -0.6537
  147SAPE   H9X16184   5.359   6.258   5.447  1.1890 -0.3785 -0.5776
  147SAPE   H9Y16185   5.501   6.326   5.374 -0.0009  0.0804  1.2363
  147SAPE  C31016186   5.343   6.296   5.229  0.8876  0.2277  0.4424
  147SAPE  H10X16187   5.232   6.295   5.219  1.0150 -0.9489 -1.4770
  147SAPE  H10Y16188   5.388   6.196   5.213  1.6559  0.3498  1.7005
  147SAPE  C31116189   5.384   6.399   5.121 -0.0663  0.0477 -0.1055
  147SAPE  H11X16190   5.488   6.429   5.145  0.0446 -0.7691  0.4634
  147SAPE  H11Y16191   5.327   6.493   5.139 -0.7014 -0.7340  2.3733
  147SAPE  C31216192   5.371   6.364   4.976 -0.0147 -0.5119 -0.1861
  147SAPE  H12X16193   5.361   6.462   4.924  1.3354  0.4841  1.3415
  147SAPE  H12Y16194   5.272   6.320   4.952 -0.4434  0.7463 -0.8070
  147SAPE  C31316195   5.476   6.270   4.933 -0.3159  0.4918  1.1214
  147SAPE  H13X16196   5.483   6.169   4.979  0.8552 -2.3185 -4.3096
  147SAPE  H13Y16197   5.578   6.306   4.957  1.1957 -1.9557 -1.0542
  147SAPE  C31416198   5.467   6.244   4.773 -0.1089  0.2512  0.3079
  147SAPE  H14X16199   5.480   6.349   4.740  2.8820  0.2743  1.2546
  147SAPE  H14Y16200   5.366   6.209   4.745 -0.7684  3.9992 -2.9234
  147SAPE  C31516201   5.569   6.142   4.711  0.0720  0.0324 -0.0458
  147SAPE  H15X16202   5.572   6.042   4.758  0.8007 -0.3131 -0.7904
  147SAPE  H15Y16203   5.671   6.185   4.728 -1.0388  2.4653  1.0063
  147SAPE  C31616204   5.552   6.114   4.562  0.0068 -0.5444  0.5894
  147SAPE  H16X16205   5.512   6.206   4.513 -0.4515 -1.7329 -1.3756
  147SAPE  H16Y16206   5.466   6.045   4.544 -0.7718  0.4915  0.2137
  147SAPE  C31716207   5.674   6.064   4.497  0.3936  0.0764  0.2858
  147SAPE  H17X16208   5.694   5.961   4.533 -0.6112 -0.2158  0.0503
  147SAPE  H17Y16209   5.757   6.134   4.518 -1.7224  1.7472  4.1631
  147SAPE  C31816210   5.649   6.029   4.344  0.6017 -0.6556  0.0752
  147SAPE  H18X16211   5.629   6.128   4.297 -2.0426 -0.7066  0.9362
  147SAPE  H18Y16212   5.565   5.958   4.331 -0.4012  0.4039  0.5467
  147SAPE  H18Z16213   5.745   5.983   4.315  1.6212  0.9680  0.7097
  148SAPE     N16214   3.120   0.883   6.946 -0.1685  0.0898 -0.5564
  148SAPE   HN116215   3.214   0.925   6.962 -0.5383  0.8229 -0.2457
  148SAPE   HN216216   3.081   0.917   6.856 -0.3861 -0.6415 -0.7438
  148SAPE   HN316217   3.054   0.908   7.023  0.6720  1.4069 -0.2223
  148SAPE   C1216218   3.154   0.742   6.932  0.5934  0.3005 -0.0594
  148SAPE  H12A16219   3.221   0.730   6.844 -0.1557  1.6803 -0.8703
  148SAPE  H12B16220   3.057   0.690   6.919 -0.1384  1.6107 -0.0162
  148SAPE   C1116221   3.228   0.697   7.064  0.8697 -0.2743 -0.1995
  148SAPE  H11A16222   3.212   0.587   7.070 -0.5836 -0.1449 -1.0735
  148SAPE  H11B16223   3.177   0.750   7.148 -2.0633 -0.2621 -1.8453
  148SAPE     P16224   3.433   0.851   7.114  0.1490 -0.3210  0.4752
  148SAPE   O1316225   3.368   0.967   7.049  0.0835 -0.2714  0.2338
  148SAPE   O1416226   3.443   0.852   7.257  0.4135  0.1627 -0.0358
  148SAPE   O1216227   3.365   0.720   7.058  0.0645  0.4211  0.1697
  148SAPE   O1116228   3.583   0.850   7.071 -0.0465  0.8406 -0.2017
  148SAPE    C116229   3.626   0.794   6.949 -0.2305 -0.0057  0.0886
  148SAPE    HA16230   3.734   0.768   6.949 -0.3410 -0.7750 -2.8950
  148SAPE    HB16231   3.571   0.701   6.924  1.0340 -0.0357 -3.0060
  148SAPE    C216232   3.621   0.891   6.827 -0.1847 -0.0952  0.8799
  148SAPE    HS16233   3.690   0.977   6.844 -0.7742  0.3387  1.0939
  148SAPE   O2116234   3.493   0.931   6.796 -0.1819  0.1878 -0.4289
  148SAPE   C2116235   3.478   1.062   6.763  0.0927 -0.1453  0.1872
  148SAPE   O2216236   3.573   1.141   6.777  0.1519  0.6694  0.2194
  148SAPE   C2216237   3.328   1.103   6.737 -0.0335  0.5824 -0.5774
  148SAPE   H2R16238   3.284   1.035   6.661  0.6073 -3.2621  2.1975
  148SAPE   H2S16239   3.260   1.071   6.818 -0.5950  0.7081 -0.9890
  148SAPE    C316240   3.685   0.828   6.695  0.0534 -0.6981  0.3156
  148SAPE    HX16241   3.617   0.746   6.665 -1.2089  0.5392 -0.3170
  148SAPE    HY16242   3.780   0.784   6.731  1.8134  2.3314 -0.2383
  148SAPE   O3116243   3.707   0.913   6.583  0.2480 -0.5910  0.6023
  148SAPE   C3116244   3.784   0.860   6.486 -0.0941 -0.4596  0.0155
  148SAPE   O3216245   3.829   0.746   6.495  0.4389  0.0968  0.2718
  148SAPE   C3216246   3.793   0.953   6.366  0.1045 -0.1299  0.2116
  148SAPE   H2X16247   3.851   1.040   6.403  2.5479 -1.5383 -0.0701
  148SAPE   H2Y16248   3.688   0.985   6.348 -1.4359 -3.9022  1.4917
  148SAPE   C2316249   3.319   1.255   6.713  0.1680  0.3054 -0.2303
  148SAPE   H3R16250   3.405   1.308   6.760  1.2431 -0.9224 -0.7495
  148SAPE   H3S16251   3.224   1.287   6.761  1.1904  2.2110  0.6888
  148SAPE   C2416252   3.321   1.290   6.565  0.4755  0.9794  0.0247
  148SAPE   H4R16253   3.421   1.271   6.519 -0.1740 -2.2222 -0.3230
  148SAPE   H4S16254   3.305   1.400   6.556  0.1387  0.7597 -5.1140
  148SAPE   C2516255   3.201   1.238   6.476  0.0187  0.0173  0.2369
  148SAPE   H5R16256   3.096   1.255   6.505 -0.3457 -0.3283 -0.8091
  148SAPE   C2616257   3.219   1.175   6.362  0.1478  0.5925 -0.1893
  148SAPE   H6R16258   3.129   1.143   6.308 -0.7709  1.1671  0.9768
  148SAPE   C2716259   3.352   1.138   6.302  0.0765  0.8653  0.3470
  148SAPE   H7R16260   3.418   1.096   6.381  0.9978  0.0966 -0.8174
  148SAPE   H7S16261   3.397   1.230   6.260 -2.4934  2.1636  0.2066
  148SAPE   C2816262   3.336   1.022   6.205 -0.3399 -0.2433  0.5014
  148SAPE   H8R16263   3.327   0.922   6.252  1.9423 -0.7949 -0.1181
  148SAPE   C2916264   3.366   1.025   6.075  0.0876  0.6902 -0.2898
  148SAPE   H9R16265   3.355   0.934   6.013 -0.9021  0.5083  0.1385
  148SAPE  C21016266   3.403   1.146   5.986 -0.0077  0.0742  0.2520
  148SAPE  H10R16267   3.435   1.225   6.057  6.8659 -0.7324 -1.2798
  148SAPE  H10S16268   3.309   1.180   5.938  0.7319  1.3586 -0.3204
  148SAPE  C21116269   3.515   1.137   5.886  0.3996 -0.5305 -0.5170
  148SAPE  H11R16270   3.610   1.160   5.936 -2.0909  1.5725  3.8190
  148SAPE  C21216271   3.501   1.118   5.751  0.0446 -0.5049 -0.5578
  148SAPE  H12R16272   3.583   1.138   5.681  1.1115 -2.4248  0.0639
  148SAPE  C21316273   3.377   1.087   5.665 -0.2034  0.0624 -0.1002
  148SAPE  H13R16274   3.384   1.164   5.586  1.3049  0.0572  0.0024
  148SAPE  H13S16275   3.276   1.100   5.709 -1.2263  1.1253 -2.5698
  148SAPE  C21416276   3.379   0.943   5.619 -0.3609 -0.5176 -0.1765
  148SAPE  H14R16277   3.403   0.869   5.697 -1.7775 -0.6258  0.1803
  148SAPE  C21516278   3.368   0.898   5.494 -0.1959 -1.1132  0.9342
  148SAPE  H15R16279   3.372   0.790   5.479 -1.2476 -0.8592 -1.6845
  148SAPE  C21616280   3.356   0.990   5.368  0.1835  0.0050 -0.1281
  148SAPE  H16R16281   3.446   0.977   5.306 -0.4641 -2.5904 -0.6505
  148SAPE  H16S16282   3.341   1.099   5.384 -1.0277 -0.1443 -0.1110
  148SAPE  C21716283   3.245   0.958   5.263 -0.5234 -0.1377 -0.1291
  148SAPE  H17R16284   3.141   0.961   5.303 -0.5234 -0.6832 -0.0886
  148SAPE  H17S16285   3.270   0.862   5.215  3.3041  1.5345 -1.8842
  148SAPE  C21816286   3.250   1.061   5.153 -0.1311 -0.3035 -0.4608
  148SAPE  H18R16287   3.353   1.082   5.119 -0.2377  0.2478 -0.4553
  148SAPE  H18S16288   3.213   1.158   5.192  2.8796  0.9803 -0.5471
  148SAPE  C21916289   3.155   1.032   5.038  0.1444 -0.5126  0.2377
  148SAPE  H19R16290   3.055   1.006   5.080 -1.0370  0.7498 -1.6474
  148SAPE  H19S16291   3.191   0.936   4.995  0.0935 -0.5377  0.2505
  148SAPE  C22016292   3.140   1.140   4.931  0.0773 -0.4585  0.6310
  148SAPE  H20R16293   3.047   1.128   4.872  1.1785 -0.6665 -1.1044
  148SAPE  H20S16294   3.226   1.135   4.861 -0.4385  2.0601 -0.2998
  148SAPE  H20T16295   3.145   1.245   4.970 -1.0106 -1.2858  3.2734
  148SAPE   C3316296   3.843   0.898   6.230  0.1499 -0.6113  0.3644
  148SAPE   H3X16297   3.778   0.817   6.190  2.2160 -0.5768 -3.4584
  148SAPE   H3Y16298   3.946   0.865   6.257  0.7464  1.8425  1.3323
  148SAPE   C3416299   3.866   1.003   6.120 -0.0077  0.0248 -0.5824
  148SAPE   H4X16300   3.946   1.070   6.159 -1.8305  0.9696  1.8233
  148SAPE   H4Y16301   3.775   1.062   6.094 -1.1452 -1.9115 -1.1415
  148SAPE   C3516302   3.926   0.942   5.991  0.3114  0.3207 -0.1366
  148SAPE   H5X16303   4.013   0.879   6.018  1.1721  1.8294  0.7870
  148SAPE   H5Y16304   3.976   1.024   5.935  1.1238 -0.3638 -0.4303
  148SAPE   C3616305   3.820   0.867   5.910  0.4554 -0.1988  1.2067
  148SAPE   H6X16306   3.738   0.942   5.904 -1.3528 -2.1561 -0.1443
  148SAPE   H6Y16307   3.781   0.776   5.960  0.4821 -1.2799 -0.6391
  148SAPE   C3716308   3.870   0.828   5.765  0.0186  0.2646  0.7891
  148SAPE   H7X16309   3.966   0.772   5.765  0.8670  1.6206 -0.4512
  148SAPE   H7Y16310   3.890   0.919   5.704  0.8742 -0.8069 -0.5847
  148SAPE   C3816311   3.754   0.764   5.677 -0.2533 -0.4473 -0.2656
  148SAPE   H8X16312   3.663   0.822   5.702 -1.0805 -2.9907  3.4405
  148SAPE   H8Y16313   3.734   0.667   5.729  2.4225 -0.4295  0.9773
  148SAPE   C3916314   3.770   0.732   5.527 -0.1412  0.9804 -0.6461
  148SAPE   H9X16315   3.866   0.686   5.497 -0.8593 -0.6646 -0.5029
  148SAPE   H9Y16316   3.768   0.828   5.469 -0.5726  1.4403  0.1120
  148SAPE  C31016317   3.652   0.644   5.476 -0.1705 -0.3546  0.2769
  148SAPE  H10X16318   3.558   0.660   5.532 -0.0877 -0.5995  0.4889
  148SAPE  H10Y16319   3.667   0.537   5.502  1.8986  0.1346  1.3321
  148SAPE  C31116320   3.626   0.649   5.326  0.0565  0.1266  0.9830
  148SAPE  H11X16321   3.720   0.614   5.277  0.3294  0.3378  1.3531
  148SAPE  H11Y16322   3.607   0.755   5.299  1.1734  0.4965  1.5972
  148SAPE  C31216323   3.506   0.566   5.291 -0.5427 -0.1313  0.1647
  148SAPE  H12X16324   3.431   0.604   5.364  1.9858  0.6770  2.5159
  148SAPE  H12Y16325   3.524   0.461   5.323  0.4371  0.3168  1.1410
  148SAPE  C31316326   3.467   0.569   5.148  0.3912  0.0556  0.2545
  148SAPE  H13X16327   3.550   0.541   5.080 -1.3343 -0.9742 -1.5213
  148SAPE  H13Y16328   3.450   0.678   5.135  1.0562  0.0703 -0.5669
  148SAPE  C31416329   3.343   0.486   5.125  0.1338 -0.7618  0.2491
  148SAPE  H14X16330   3.300   0.490   5.023 -2.0106 -2.6760  0.9852
  148SAPE  H14Y16331   3.266   0.520   5.197  1.0352  1.9560  0.0306
  148SAPE  C31516332   3.375   0.340   5.148  0.5158  0.7640 -0.1128
  148SAPE  H15X16333   3.415   0.318   5.250 -0.0438 -3.4949 -0.6261
  148SAPE  H15Y16334   3.449   0.315   5.069  0.6438  0.2911  0.1514
  148SAPE  C31616335   3.255   0.249   5.130  0.4217  0.5654 -0.5412
  148SAPE  H16X16336   3.193   0.265   5.039 -0.2097  1.1185 -0.0310
  148SAPE  H16Y16337   3.180   0.258   5.212 -0.8508 -0.7058 -1.5257
  148SAPE  C31716338   3.297   0.102   5.142  0.1052 -0.1403  0.4012
  148SAPE  H17X16339   3.201   0.048   5.160 -0.9228  1.0327 -1.2199
  148SAPE  H17Y16340   3.346   0.092   5.241 -2.3818  0.0883  1.7593
  148SAPE  C31816341   3.364   0.034   5.025  0.5580 -0.1246 -0.2054
  148SAPE  H18X16342   3.318   0.054   4.926  0.4347 -0.1567 -0.1549
  148SAPE  H18Y16343   3.358  -0.075   5.043 -3.6620 -0.3168 -1.6234
  148SAPE  H18Z16344   3.469   0.069   5.023  1.5705 -2.8959 -0.1905
  149SAPE     N16345   4.838   5.126   7.081 -0.4388  0.1500  0.8885
  149SAPE   HN116346   4.826   5.217   7.034 -0.9265 -0.9259 -1.1894
  149SAPE   HN216347   4.830   5.143   7.183  0.6882  0.2473  0.9708
  149SAPE   HN316348   4.934   5.088   7.067 -0.3060  0.1642  1.7280
  149SAPE   C1216349   4.738   5.022   7.033  0.2681 -0.4607 -0.1119
  149SAPE  H12A16350   4.747   5.005   6.924  2.5038 -0.8574  0.0853
  149SAPE  H12B16351   4.635   5.062   7.049 -0.0036 -1.4357  0.6948
  149SAPE   C1116352   4.757   4.894   7.112  0.5437 -0.3013  0.1110
  149SAPE  H11A16353   4.665   4.834   7.099  0.0421  0.2699  0.9698
  149SAPE  H11B16354   4.757   4.922   7.219  1.7398 -0.7554  0.2469
  149SAPE     P16355   4.888   4.709   6.968 -0.0317  0.2920  0.0410
  149SAPE   O1316356   4.906   4.788   6.844  0.1889  0.2096 -0.0440
  149SAPE   O1416357   4.993   4.611   7.002  0.0746 -0.1562  0.2924
  149SAPE   O1216358   4.873   4.815   7.089  0.0273  0.3872  0.0623
  149SAPE   O1116359   4.747   4.642   6.970  0.3665  0.5442  0.4198
  149SAPE    C116360   4.657   4.672   6.858 -0.6896  0.6733  0.6066
  149SAPE    HA16361   4.601   4.767   6.873  1.6302  2.7436 -2.6597
  149SAPE    HB16362   4.707   4.682   6.760 -2.5236  0.2536 -0.4235
  149SAPE    C216363   4.553   4.559   6.839  0.6272 -0.0854 -0.2924
  149SAPE    HS16364   4.505   4.545   6.938  1.5745  0.7530  0.2991
  149SAPE   O2116365   4.626   4.438   6.800  0.1960  0.2464 -0.0816
  149SAPE   C2116366   4.567   4.326   6.840 -0.0210 -0.0275  0.5272
  149SAPE   O2216367   4.452   4.312   6.871  0.1914 -0.8201  0.2927
  149SAPE   C2216368   4.672   4.217   6.855 -0.2150 -0.1078  0.2623
  149SAPE   H2R16369   4.767   4.255   6.812  0.3294  0.8268  2.1683
  149SAPE   H2S16370   4.685   4.211   6.965 -0.4033  2.1280  0.4502
  149SAPE    C316371   4.435   4.605   6.742 -0.5569 -0.1012 -0.0950
  149SAPE    HX16372   4.395   4.705   6.769 -0.1247 -0.1707  0.8830
  149SAPE    HY16373   4.351   4.533   6.757 -1.1125  0.8656  1.7219
  149SAPE   O3116374   4.471   4.598   6.604 -0.5281 -0.5523  0.1122
  149SAPE   C3116375   4.500   4.714   6.549 -0.2203  0.1447  0.3112
  149SAPE   O3216376   4.556   4.813   6.599  0.4735  0.1862  0.2936
  149SAPE   C3216377   4.467   4.715   6.399  0.7232  0.1338 -0.3163
  149SAPE   H2X16378   4.362   4.687   6.376  0.9639  0.0416 -1.3657
  149SAPE   H2Y16379   4.536   4.644   6.348  2.3416  1.0647  0.4913
  149SAPE   C2316380   4.639   4.082   6.789  0.4656  0.5814 -0.0149
  149SAPE   H3R16381   4.727   4.015   6.778 -0.7098 -0.7993 -1.4737
  149SAPE   H3S16382   4.608   4.092   6.683 -0.8314  2.9322  0.5029
  149SAPE   C2416383   4.530   4.001   6.861  0.2365 -0.7535  0.3053
  149SAPE   H4R16384   4.499   3.920   6.791 -1.5604  0.4166 -0.3315
  149SAPE   H4S16385   4.435   4.056   6.881 -0.1278 -0.0618 -2.7691
  149SAPE   C2516386   4.585   3.952   6.992  0.7155 -0.2513  0.8978
  149SAPE   H5R16387   4.582   4.014   7.083  2.1243  2.0620 -0.5504
  149SAPE   C2616388   4.649   3.828   7.000 -0.9134 -0.0570  0.8799
  149SAPE   H6R16389   4.691   3.798   7.097  3.2412 -0.5693 -0.8915
  149SAPE   C2716390   4.665   3.719   6.898  0.0983 -0.4128  1.4233
  149SAPE   H7R16391   4.612   3.757   6.807 -0.6710  1.8667  2.7528
  149SAPE   H7S16392   4.614   3.623   6.921 -0.5389 -0.6070 -0.5901
  149SAPE   C2816393   4.814   3.694   6.880 -0.1068  0.1518  0.2881
  149SAPE   H8R16394   4.863   3.687   6.978  0.6165  2.2194  0.1250
  149SAPE   C2916395   4.884   3.691   6.767 -0.1842 -0.0069  0.1906
  149SAPE   H9R16396   4.989   3.660   6.770 -0.4726 -1.3757 -2.1153
  149SAPE  C21016397   4.823   3.704   6.623  0.0906  0.3028  0.3725
  149SAPE  H10R16398   4.727   3.760   6.623 -0.2460 -0.2675 -0.1444
  149SAPE  H10S16399   4.785   3.609   6.581 -1.1328  0.5449  0.8723
  149SAPE  C21116400   4.914   3.774   6.521 -0.5770 -0.6524 -0.0782
  149SAPE  H11R16401   5.011   3.811   6.559 -1.0804  0.6507 -0.0398
  149SAPE  C21216402   4.896   3.804   6.396 -0.2829  0.2957  0.3365
  149SAPE  H12R16403   4.974   3.861   6.343 -1.3053  2.5299  1.1118
  149SAPE  C21316404   4.774   3.764   6.306 -0.3601  0.4691  1.0469
  149SAPE  H13R16405   4.705   3.693   6.355 -1.8679 -0.0624 -1.6404
  149SAPE  H13S16406   4.802   3.717   6.209 -3.6603  1.2713 -0.4360
  149SAPE  C21416407   4.693   3.883   6.269 -0.0594 -0.0397 -0.1813
  149SAPE  H14R16408   4.628   3.910   6.353 -1.1854  1.0112 -1.3524
  149SAPE  C21516409   4.673   3.929   6.140 -0.1503 -0.4868  0.5812
  149SAPE  H15R16410   4.604   4.014   6.133 -1.7243 -1.8128 -0.8056
  149SAPE  C21616411   4.744   3.888   6.011 -0.4552 -0.4274  0.3481
  149SAPE  H16R16412   4.710   3.784   5.991  1.6226 -1.4530  1.7346
  149SAPE  H16S16413   4.853   3.875   6.029 -0.4120 -3.1263 -1.2902
  149SAPE  C21716414   4.714   3.989   5.900 -0.4383  0.5511 -0.3188
  149SAPE  H17R16415   4.746   4.092   5.925 -1.8824  0.9662 -0.0645
  149SAPE  H17S16416   4.604   3.990   5.883 -0.5570  1.0791  0.4327
  149SAPE  C21816417   4.783   3.953   5.772  0.5977  0.4926  0.0838
  149SAPE  H18R16418   4.752   3.849   5.747  1.6811  0.0366  0.6043
  149SAPE  H18S16419   4.893   3.967   5.779  0.8406  0.2974 -2.3423
  149SAPE  C21916420   4.738   4.049   5.664 -0.8045  0.2035  0.4371
  149SAPE  H19R16421   4.768   4.152   5.694  0.0208  0.9526 -2.6104
  149SAPE  H19S16422   4.627   4.041   5.661 -0.9440  1.8268  0.3696
  149SAPE  C22016423   4.792   4.021   5.524  0.4768  0.1061 -1.0600
  149SAPE  H20R16424   4.901   4.033   5.506  0.8503  1.1159  1.3774
  149SAPE  H20S16425   4.740   4.080   5.446 -0.0755  0.4158 -0.4722
  149SAPE  H20T16426   4.768   3.913   5.511 -1.0594  0.5346 -1.9047
  149SAPE   C3316427   4.473   4.853   6.331 -0.3132  0.7058 -0.9353
  149SAPE   H3X16428   4.575   4.896   6.324 -0.8107  1.9109 -1.1215
  149SAPE   H3Y16429   4.410   4.935   6.373 -1.1159 -0.1906 -0.3524
  149SAPE   C3416430   4.422   4.838   6.186  0.5600 -0.5974  0.4662
  149SAPE   H4X16431   4.317   4.803   6.180 -0.0885  1.2830  0.0912
  149SAPE   H4Y16432   4.487   4.761   6.138  0.2644 -0.7363  0.2843
  149SAPE   C3516433   4.432   4.978   6.116 -0.2557 -0.0044 -0.0356
  149SAPE   H5X16434   4.535   5.016   6.129 -0.3504  0.3493 -0.3049
  149SAPE   H5Y16435   4.357   5.043   6.167 -0.1768  1.6703 -1.8990
  149SAPE   C3616436   4.392   4.975   5.970  0.8156  0.3743 -1.0556
  149SAPE   H6X16437   4.378   5.080   5.939 -1.9260 -0.2392 -2.1505
  149SAPE   H6Y16438   4.303   4.910   5.952 -1.5889  2.7826  1.2282
  149SAPE   C3716439   4.521   4.937   5.903  0.4344  0.9347  0.0361
  149SAPE   H7X16440   4.573   4.868   5.973 -1.4622  0.9682  1.5562
  149SAPE   H7Y16441   4.576   5.033   5.897 -0.5634  1.4331 -1.7423
  149SAPE   C3816442   4.513   4.874   5.766  0.1057  0.8024 -0.5047
  149SAPE   H8X16443   4.437   4.793   5.756  0.1400  0.9542 -2.2978
  149SAPE   H8Y16444   4.613   4.833   5.739  0.1631 -1.6022  2.7682
  149SAPE   C3916445   4.485   4.987   5.663 -0.1098  0.5440 -0.1874
  149SAPE   H9X16446   4.549   5.077   5.668 -0.9441  1.0874  1.2173
  149SAPE   H9Y16447   4.383   5.025   5.684  0.0412 -0.0975  1.8641
  149SAPE  C31016448   4.495   4.920   5.527 -0.0364 -0.5611  0.3923
  149SAPE  H10X16449   4.456   4.817   5.542 -0.4273 -0.1769  2.2575
  149SAPE  H10Y16450   4.598   4.897   5.491 -0.1505 -1.6230  0.7174
  149SAPE  C31116451   4.431   4.999   5.417  0.7716 -0.8017  0.3221
  149SAPE  H11X16452   4.329   5.019   5.458 -1.0048 -1.7607 -3.1468
  149SAPE  H11Y16453   4.422   4.930   5.330 -0.1722  0.4059 -0.5775
  149SAPE  C31216454   4.504   5.128   5.379 -0.2147 -0.5433 -0.4389
  149SAPE  H12X16455   4.613   5.121   5.356  0.6604  0.1772  2.9519
  149SAPE  H12Y16456   4.495   5.204   5.460  1.2316 -0.0938 -0.6577
  149SAPE  C31316457   4.437   5.209   5.268 -0.3903 -0.5538 -0.5364
  149SAPE  H13X16458   4.331   5.228   5.296  0.0653  1.2554  0.1119
  149SAPE  H13Y16459   4.444   5.151   5.173  0.9730 -0.1369 -0.7066
  149SAPE  C31416460   4.512   5.344   5.243 -0.1768  0.6963 -0.0490
  149SAPE  H14X16461   4.616   5.309   5.225 -0.7700 -0.3764 -1.6970
  149SAPE  H14Y16462   4.513   5.413   5.330  1.9841 -1.8028  2.0785
  149SAPE  C31516463   4.464   5.420   5.114 -0.2821 -0.3908  0.1266
  149SAPE  H15X16464   4.357   5.447   5.128 -0.6148 -1.7250  0.3361
  149SAPE  H15Y16465   4.468   5.349   5.028  0.5731 -1.9476  1.3895
  149SAPE  C31616466   4.554   5.535   5.069 -0.6297 -0.5118 -0.0736
  149SAPE  H16X16467   4.652   5.491   5.041 -0.7499 -0.4876 -0.5502
  149SAPE  H16Y16468   4.563   5.601   5.157 -2.4039 -0.5277  0.1543
  149SAPE  C31716469   4.498   5.610   4.952  0.0165  0.0154  0.7688
  149SAPE  H17X16470   4.398   5.643   4.988  0.1026 -0.8282  1.8635
  149SAPE  H17Y16471   4.472   5.543   4.868 -0.8589 -0.7115  1.5940
  149SAPE  C31816472   4.586   5.733   4.909 -1.3608  0.2275  1.0319
  149SAPE  H18X16473   4.584   5.815   4.984  1.9077  0.5864  0.8629
  149SAPE  H18Y16474   4.552   5.774   4.812  0.0801  0.7880  0.7427
  149SAPE  H18Z16475   4.693   5.705   4.896 -2.0617 -2.0351 -0.6048
  150SAPE     N16476   1.541   3.807   7.385 -0.5768 -0.0043  0.0351
  150SAPE   HN116477   1.485   3.845   7.306  0.4265  2.1454  0.2842
  150SAPE   HN216478   1.633   3.811   7.337 -1.5345  1.2372 -1.8529
  150SAPE   HN316479   1.508   3.712   7.412 -0.0451 -0.2602 -0.1899
  150SAPE   C1216480   1.538   3.912   7.490  0.3217  0.3277  0.2847
  150SAPE  H12A16481   1.553   4.017   7.456  2.1892  0.3083  0.9568
  150SAPE  H12B16482   1.623   3.891   7.558  1.0959 -0.9945 -1.0208
  150SAPE   C1116483   1.394   3.906   7.566  0.1102 -0.3207  0.5111
  150SAPE  H11A16484   1.391   3.984   7.645 -0.6957  1.1967 -0.9511
  150SAPE  H11B16485   1.389   3.808   7.617  0.4026 -1.3298 -1.3117
  150SAPE     P16486   1.140   3.942   7.506  0.1040  0.0345 -0.2722
  150SAPE   O1316487   1.132   3.943   7.651 -0.1985 -0.2635  0.6043
  150SAPE   O1416488   1.090   4.065   7.438 -0.1722 -0.2470  0.2412
  150SAPE   O1216489   1.292   3.912   7.466  0.1564  0.0572 -0.4524
  150SAPE   O1116490   1.059   3.813   7.450 -0.2007  0.3864 -0.2181
  150SAPE    C116491   1.081   3.760   7.320 -0.4570 -0.0975  0.3246
  150SAPE    HA16492   1.189   3.735   7.306 -0.2382  0.7845  0.3654
  150SAPE    HB16493   1.023   3.666   7.312  0.4016 -0.5301 -1.3785
  150SAPE    C216494   1.047   3.859   7.202  1.0344  0.3018 -0.6233
  150SAPE    HS16495   1.097   3.954   7.228  1.7038 -0.5051  1.2431
  150SAPE   O2116496   0.904   3.855   7.182 -0.1309 -0.2147 -0.0937
  150SAPE   C2116497   0.857   3.972   7.126 -0.1920 -0.8321  0.3720
  150SAPE   O2216498   0.923   4.075   7.111  0.0093 -0.0422 -0.0496
  150SAPE   C2216499   0.713   3.959   7.083 -0.2653 -0.1085 -0.0357
  150SAPE   H2R16500   0.700   3.853   7.052  1.8177 -1.0042  1.8071
  150SAPE   H2S16501   0.655   3.970   7.177  2.2023 -2.1013  1.8908
  150SAPE    C316502   1.115   3.818   7.068  0.9168  0.2517  0.6777
  150SAPE    HX16503   1.060   3.723   7.055 -1.2750  1.3383  1.4491
  150SAPE    HY16504   1.223   3.791   7.070  0.9005 -0.4704 -2.4513
  150SAPE   O3116505   1.079   3.886   6.949  0.1498 -0.5426 -0.6126
  150SAPE   C3116506   1.146   3.992   6.921 -0.2336 -0.3674  0.1453
  150SAPE   O3216507   1.256   4.022   6.972 -0.2084  0.3917  0.4216
  150SAPE   C3216508   1.077   4.083   6.818 -0.6334  0.0171 -0.6083
  150SAPE   H2X16509   1.154   4.156   6.784  0.2515 -0.4400  0.3805
  150SAPE   H2Y16510   1.001   4.141   6.875  1.5453 -0.1532  2.6921
  150SAPE   C2316511   0.667   4.051   6.975 -0.8692 -0.2080 -0.0598
  150SAPE   H3R16512   0.755   4.089   6.918 -0.6372  0.6337  0.8349
  150SAPE   H3S16513   0.620   4.138   7.026  0.9217  0.1060  1.1644
  150SAPE   C2416514   0.562   3.987   6.877  0.1740 -0.0264  0.5531
  150SAPE   H4R16515   0.604   3.889   6.844 -0.1144 -0.6832  2.0698
  150SAPE   H4S16516   0.544   4.059   6.794 -2.0391 -1.2574 -0.1310
  150SAPE   C2516517   0.427   3.958   6.948  0.7719  0.1355  0.5000
  150SAPE   H5R16518   0.445   3.893   7.035  1.5921 -0.2716  0.0494
  150SAPE   C2616519   0.307   4.013   6.932 -0.1399  0.0466  0.4258
  150SAPE   H6R16520   0.223   3.970   6.989  0.5285 -0.5130  1.0011
  150SAPE   C2716521   0.278   4.132   6.846 -0.0014  0.2080 -0.3388
  150SAPE   H7R16522   0.179   4.118   6.796 -1.2401  2.5663  1.2641
  150SAPE   H7S16523   0.360   4.148   6.773 -0.4799 -1.9189 -1.4159
  150SAPE   C2816524   0.285   4.265   6.929  0.0833 -0.0416  0.1549
  150SAPE   H8R16525   0.302   4.257   7.037  0.5236  0.1864  0.1063
  150SAPE   C2916526   0.274   4.384   6.866  0.4547 -0.2676  0.7052
  150SAPE   H9R16527   0.294   4.480   6.917  2.7908 -0.2556 -0.1145
  150SAPE  C21016528   0.241   4.394   6.713 -0.0555  0.1539 -0.7665
  150SAPE  H10R16529   0.300   4.317   6.660 -1.7590 -0.9053 -1.1605
  150SAPE  H10S16530   0.274   4.497   6.687 -0.8828  1.2483  2.1459
  150SAPE  C21116531   0.095   4.371   6.684  0.0378  0.0620  0.4084
  150SAPE  H11R16532   0.032   4.368   6.774 -0.7903 -1.9378 -0.1734
  150SAPE  C21216533   0.036   4.353   6.566  0.4104 -0.8031 -0.1467
  150SAPE  H12R16534  -0.071   4.328   6.567  0.0716  0.5635  0.3432
  150SAPE  C21316535   0.102   4.342   6.433  0.0798  0.1106  0.0917
  150SAPE  H13R16536   0.155   4.437   6.413 -1.6781  0.5430 -3.1504
  150SAPE  H13S16537   0.025   4.332   6.354  0.3637  3.4545 -0.7534
  150SAPE  C21416538   0.207   4.242   6.404 -0.8626 -0.1178 -0.2781
  150SAPE  H14R16539   0.266   4.208   6.490 -1.9279 -1.9358 -0.1955
  150SAPE  C21516540   0.242   4.187   6.288 -0.1421 -0.0994 -0.0852
  150SAPE  H15R16541   0.333   4.126   6.280 -0.3218 -0.6630  1.6940
  150SAPE  C21616542   0.183   4.216   6.153 -0.2131 -0.1812 -0.3003
  150SAPE  H16R16543   0.172   4.325   6.136  0.4959 -0.2534 -1.3636
  150SAPE  H16S16544   0.082   4.176   6.128 -1.1616  1.8038  0.1875
  150SAPE  C21716545   0.286   4.195   6.034 -0.7803 -0.5393 -0.1032
  150SAPE  H17R16546   0.329   4.093   6.043  2.3809  0.5266 -1.5703
  150SAPE  H17S16547   0.370   4.265   6.053  2.0677 -2.7853 -3.1826
  150SAPE  C21816548   0.224   4.225   5.899  0.2268  0.0195 -0.3160
  150SAPE  H18R16549   0.156   4.313   5.898 -0.2190 -0.3144 -1.5441
  150SAPE  H18S16550   0.165   4.135   5.871 -1.7766  0.6843  1.5094
  150SAPE  C21916551   0.330   4.241   5.784 -0.1963 -0.3390 -0.3236
  150SAPE  H19R16552   0.419   4.180   5.806 -0.0860 -0.3572 -0.8105
  150SAPE  H19S16553   0.377   4.342   5.794 -0.7394 -0.1443  0.3698
  150SAPE  C22016554   0.274   4.234   5.639 -0.3791 -0.4288 -0.3944
  150SAPE  H20R16555   0.262   4.131   5.598  1.7657 -0.8091 -0.1794
  150SAPE  H20S16556   0.345   4.284   5.568 -0.3861  1.9519  1.1691
  150SAPE  H20T16557   0.177   4.288   5.630  0.8821  2.1418  0.4162
  150SAPE   C3316558   1.008   4.002   6.703 -0.1438  0.8644  0.6030
  150SAPE   H3X16559   0.924   3.932   6.720 -0.7162  0.7993 -2.0166
  150SAPE   H3Y16560   1.089   3.938   6.661 -1.7902  0.4545 -2.1919
  150SAPE   C3416561   0.950   4.087   6.593 -1.0429  0.0165 -0.4319
  150SAPE   H4X16562   0.860   4.137   6.633 -0.5772 -1.1550  2.2995
  150SAPE   H4Y16563   0.917   4.018   6.512 -0.1462 -0.6140 -0.2760
  150SAPE   C3516564   1.045   4.191   6.532  0.1782 -0.7192  0.3772
  150SAPE   H5X16565   1.131   4.131   6.495 -0.2244 -0.8519 -0.3576
  150SAPE   H5Y16566   1.080   4.257   6.614  0.5037 -2.0766  1.3660
  150SAPE   C3616567   0.974   4.265   6.421  0.2707 -0.1037 -0.7748
  150SAPE   H6X16568   0.894   4.332   6.458 -0.1509  0.8733 -3.2223
  150SAPE   H6Y16569   0.924   4.188   6.358 -1.5196  0.6779 -0.3802
  150SAPE   C3716570   1.071   4.341   6.326 -0.4078  0.5964 -0.0336
  150SAPE   H7X16571   1.151   4.270   6.295 -1.2409 -0.3800  0.0117
  150SAPE   H7Y16572   1.122   4.424   6.381 -0.2549 -1.4322  3.1681
  150SAPE   C3816573   1.000   4.393   6.197 -0.1409 -0.9950 -0.1606
  150SAPE   H8X16574   0.932   4.473   6.234  1.3220 -0.3199  1.2004
  150SAPE   H8Y16575   0.952   4.300   6.159 -0.9818 -1.0356  0.9403
  150SAPE   C3916576   1.095   4.456   6.104 -0.1182 -0.5485  0.7082
  150SAPE   H9X16577   1.184   4.396   6.076 -1.0361 -1.8036  0.4243
  150SAPE   H9Y16578   1.139   4.542   6.160 -0.2154 -1.6126  2.5225
  150SAPE  C31016579   1.029   4.505   5.977 -0.4137  0.6484  0.4331
  150SAPE  H10X16580   0.952   4.582   6.000  0.0933  0.8764  1.3899
  150SAPE  H10Y16581   0.974   4.420   5.932  0.9925 -0.6905  1.1492
  150SAPE  C31116582   1.133   4.556   5.878 -0.3441 -0.2899 -0.1782
  150SAPE  H11X16583   1.213   4.479   5.879 -1.0595 -1.1663  3.2594
  150SAPE  H11Y16584   1.181   4.653   5.901 -0.8774  0.6972 -2.8886
  150SAPE  C31216585   1.092   4.560   5.730 -0.0951 -0.8221 -0.1200
  150SAPE  H12X16586   0.998   4.617   5.714  1.0670  1.5743  1.0021
  150SAPE  H12Y16587   1.070   4.455   5.702 -1.0240 -0.7760  0.4060
  150SAPE  C31316588   1.199   4.626   5.647  0.3980  0.3404  0.3486
  150SAPE  H13X16589   1.302   4.588   5.669 -0.8755 -2.6618  1.6341
  150SAPE  H13Y16590   1.196   4.736   5.663 -0.3526  0.5933 -1.3931
  150SAPE  C31416591   1.193   4.621   5.499 -0.6592 -0.9146  0.3730
  150SAPE  H14X16592   1.092   4.660   5.471 -0.2205  0.5142  0.7069
  150SAPE  H14Y16593   1.198   4.515   5.465  0.5206 -0.8425  0.2815
  150SAPE  C31516594   1.302   4.696   5.422 -0.0244 -0.5766 -0.5793
  150SAPE  H15X16595   1.399   4.652   5.454  0.2022  0.0920 -0.3259
  150SAPE  H15Y16596   1.289   4.803   5.448 -0.8738 -1.2539  2.1235
  150SAPE  C31616597   1.274   4.682   5.269 -0.5479 -0.2349  1.2266
  150SAPE  H16X16598   1.165   4.688   5.249 -0.2049  1.4027 -0.4511
  150SAPE  H16Y16599   1.305   4.578   5.243 -0.8121  0.0614 -0.3963
  150SAPE  C31716600   1.358   4.784   5.189  0.5822  0.1179  0.2476
  150SAPE  H17X16601   1.301   4.878   5.204 -2.2715 -1.3101 -0.8941
  150SAPE  H17Y16602   1.347   4.745   5.085  1.2157 -2.2072  1.0032
  150SAPE  C31816603   1.500   4.787   5.242 -0.2903  0.6263  0.2356
  150SAPE  H18X16604   1.513   4.812   5.350 -3.6970 -1.2336  1.2485
  150SAPE  H18Y16605   1.565   4.852   5.180 -0.7739  0.6160 -0.2931
  150SAPE  H18Z16606   1.544   4.684   5.245 -2.2348 -0.2497  2.6304
  151SAPE     N16607   6.475   1.353   7.335  0.0028 -0.9184 -0.1634
  151SAPE   HN116608   6.538   1.379   7.414 -1.3136 -2.2422  1.4200
  151SAPE   HN216609   6.476   1.411   7.249 -2.2422  1.1165  1.0542
  151SAPE   HN316610   6.376   1.359   7.369 -0.5368  0.0800 -1.7901
  151SAPE   C1216611   6.489   1.212   7.291 -0.2710  0.2480 -0.2733
  151SAPE  H12A16612   6.457   1.158   7.383  1.3938 -0.5031 -0.0809
  151SAPE  H12B16613   6.599   1.196   7.283  0.0370  0.8748  2.0698
  151SAPE   C1116614   6.427   1.188   7.148  0.5566  0.5268 -0.4435
  151SAPE  H11A16615   6.328   1.238   7.141 -0.6755 -1.5065  1.1676
  151SAPE  H11B16616   6.404   1.080   7.135 -1.0697  0.6299  1.1550
  151SAPE     P16617   6.507   1.375   6.979 -0.1793  0.4551  0.2273
  151SAPE   O1316618   6.479   1.464   7.095 -0.2453 -0.2277  0.4465
  151SAPE   O1416619   6.630   1.403   6.902 -0.1423 -0.3673 -0.3520
  151SAPE   O1216620   6.512   1.221   7.041  0.0810 -0.6285  0.2247
  151SAPE   O1116621   6.377   1.379   6.886 -0.0289  0.0955 -0.2228
  151SAPE    C116622   6.323   1.262   6.825  0.2380 -0.7707 -0.5785
  151SAPE    HA16623   6.331   1.171   6.888  1.1877 -0.6815 -0.5570
  151SAPE    HB16624   6.216   1.273   6.797  0.0455  0.0371  0.4398
  151SAPE    C216625   6.403   1.231   6.695  0.3559 -0.1501  0.0965
  151SAPE    HS16626   6.512   1.217   6.715  0.4844 -3.0723 -1.9079
  151SAPE   O2116627   6.379   1.334   6.603 -0.2695  0.6504  0.2634
  151SAPE   C2116628   6.483   1.362   6.519  0.2789  0.1320  0.2219
  151SAPE   O2216629   6.593   1.307   6.529 -0.1587  0.0717  0.4455
  151SAPE   C2216630   6.442   1.475   6.416  0.0509 -0.3320 -0.4665
  151SAPE   H2R16631   6.331   1.472   6.408  0.1402 -1.5869 -1.4774
  151SAPE   H2S16632   6.468   1.571   6.466 -2.6796 -0.2555  1.0312
  151SAPE    C316633   6.359   1.088   6.638  0.2386 -0.3423  0.5729
  151SAPE    HX16634   6.251   1.110   6.622  0.2869  1.7430  2.5716
  151SAPE    HY16635   6.386   1.023   6.724  1.2610  0.8358  1.1762
  151SAPE   O3116636   6.437   1.055   6.519  0.2298  0.0219 -0.2767
  151SAPE   C3116637   6.549   0.985   6.539  0.0185  0.1236 -0.3227
  151SAPE   O3216638   6.606   0.971   6.647  0.4948  0.2170  0.2131
  151SAPE   C3216639   6.589   0.907   6.412  0.1002 -0.3739 -0.0586
  151SAPE   H2X16640   6.550   0.944   6.315 -1.0937 -0.5351  0.3416
  151SAPE   H2Y16641   6.552   0.803   6.422 -2.5111  0.5099  0.3464
  151SAPE   C2316642   6.506   1.459   6.273 -1.0933 -0.1086  0.2893
  151SAPE   H3R16643   6.613   1.441   6.299 -1.9833 -2.5010  2.7587
  151SAPE   H3S16644   6.498   1.550   6.210 -1.5358  1.2634  2.2096
  151SAPE   C2416645   6.453   1.348   6.182 -0.1324 -0.3914 -0.2075
  151SAPE   H4R16646   6.436   1.255   6.241 -1.8288 -0.2754 -0.4767
  151SAPE   H4S16647   6.529   1.327   6.104  1.0099  0.8621  0.5078
  151SAPE   C2516648   6.322   1.391   6.127  0.5715 -0.2806 -0.4432
  151SAPE   H5R16649   6.239   1.410   6.196  1.4401  1.7212  0.1178
  151SAPE   C2616650   6.298   1.431   6.003 -0.1784  0.6189 -0.0545
  151SAPE   H6R16651   6.196   1.469   5.989 -0.2922  0.5712  0.6112
  151SAPE   C2716652   6.380   1.421   5.879 -1.0325 -0.0071  0.5333
  151SAPE   H7R16653   6.425   1.320   5.872 -2.5387 -0.5970 -1.9752
  151SAPE   H7S16654   6.470   1.486   5.886 -0.9337 -0.0765 -0.0303
  151SAPE   C2816655   6.312   1.473   5.751 -0.1988  0.0772 -0.1069
  151SAPE   H8R16656   6.253   1.566   5.751 -1.4212 -0.6623  0.9653
  151SAPE   C2916657   6.305   1.403   5.634  0.2668  0.1505  0.2277
  151SAPE   H9R16658   6.242   1.454   5.560  0.5815  1.5557  0.8933
  151SAPE  C21016659   6.370   1.268   5.596 -0.3066  0.4348 -0.4033
  151SAPE  H10R16660   6.463   1.241   5.650 -1.6976 -1.4769  1.1746
  151SAPE  H10S16661   6.399   1.278   5.489 -0.7709  1.6234 -0.4457
  151SAPE  C21116662   6.264   1.165   5.619 -0.1988  0.1552 -0.1999
  151SAPE  H11R16663   6.259   1.117   5.718 -3.1334  1.8659  0.5744
  151SAPE  C21216664   6.176   1.127   5.525  0.0645  0.2118 -0.1644
  151SAPE  H12R16665   6.090   1.066   5.556  0.6020 -0.1616  0.6172
  151SAPE  C21316666   6.162   1.177   5.385  0.1002  0.6726  0.5911
  151SAPE  H13R16667   6.256   1.172   5.327  0.0232  1.3019  0.4007
  151SAPE  H13S16668   6.130   1.284   5.386 -1.9035  0.1106  1.3704
  151SAPE  C21416669   6.054   1.106   5.303  0.7055 -0.3005 -0.3097
  151SAPE  H14R16670   5.965   1.081   5.364  0.6138 -0.4122 -0.4892
  151SAPE  C21516671   6.062   1.065   5.173  0.0810 -0.0386  0.4297
  151SAPE  H15R16672   5.973   1.014   5.134  0.3876 -1.5276  1.5734
  151SAPE  C21616673   6.169   1.093   5.070  0.1622  0.3463 -0.0348
  151SAPE  H16R16674   6.252   1.162   5.099 -0.2833  1.0702 -0.4475
  151SAPE  H16S16675   6.130   1.127   4.972 -0.2176  1.4400  0.4737
  151SAPE  C21716676   6.242   0.961   5.051  0.7978  0.0494 -0.4043
  151SAPE  H17R16677   6.189   0.888   4.986  0.6436 -0.6389  0.4784
  151SAPE  H17S16678   6.263   0.902   5.143 -1.9493 -0.5030 -0.0449
  151SAPE  C21816679   6.381   0.983   4.993  0.4168  0.1917 -0.0794
  151SAPE  H18R16680   6.433   0.885   5.002  0.5591  0.1081 -1.4819
  151SAPE  H18S16681   6.438   1.061   5.047 -1.0680  1.0862  0.2471
  151SAPE  C21916682   6.387   0.989   4.837 -0.1739  0.1820 -0.4635
  151SAPE  H19R16683   6.295   0.949   4.789  0.3279  1.2220 -2.3955
  151SAPE  H19S16684   6.476   0.933   4.802 -0.0490 -1.1397  1.7679
  151SAPE  C22016685   6.411   1.137   4.788 -0.2222 -0.3404 -0.3637
  151SAPE  H20R16686   6.417   1.143   4.678  2.1484 -0.7304 -0.3224
  151SAPE  H20S16687   6.507   1.179   4.826  0.5606 -0.0678 -2.5121
  151SAPE  H20T16688   6.329   1.201   4.827 -0.3872 -0.6533 -0.1902
  151SAPE   C3316689   6.749   0.888   6.410  0.1110 -0.3517 -0.2393
  151SAPE   H3X16690   6.785   0.812   6.337 -1.3307 -0.7172 -0.6005
  151SAPE   H3Y16691   6.782   0.846   6.507  0.2407 -0.1054 -0.1759
  151SAPE   C3416692   6.837   1.016   6.374  0.2827 -0.0197  0.0071
  151SAPE   H4X16693   6.939   0.976   6.358  0.1896 -0.4638  0.5111
  151SAPE   H4Y16694   6.846   1.092   6.454  1.3097 -0.2912  0.1639
  151SAPE   C3516695   6.789   1.079   6.245 -0.0317  0.7562 -0.2329
  151SAPE   H5X16696   6.700   1.143   6.260 -0.4750  0.1130 -0.0763
  151SAPE   H5Y16697   6.758   1.001   6.171 -0.2699 -0.9580  1.5785
  151SAPE   C3616698   6.904   1.175   6.183 -0.0793  0.4284  0.4530
  151SAPE   H6X16699   6.969   1.102   6.131  0.3087  0.3425  1.0434
  151SAPE   H6Y16700   6.951   1.215   6.276 -2.0930 -2.6404  3.0095
  151SAPE   C3716701   6.850   1.292   6.110  0.2605  0.2769 -0.2891
  151SAPE   H7X16702   6.926   1.373   6.108 -0.7094  1.2429  0.6672
  151SAPE   H7Y16703   6.763   1.337   6.162  0.7705 -0.9109  1.6986
  151SAPE   C3816704   6.809   1.259   5.965  0.0495  0.6180 -0.1381
  151SAPE   H8X16705   6.744   1.343   5.932 -1.4299 -0.2329  0.4654
  151SAPE   H8Y16706   6.747   1.168   5.951 -0.4814  0.5688  2.0467
  151SAPE   C3916707   6.936   1.248   5.872  0.1751  0.3019  0.0312
  151SAPE   H9X16708   6.994   1.159   5.904 -1.2418 -1.1254 -1.2011
  151SAPE   H9Y16709   7.001   1.338   5.883  0.3432  0.0320  1.4194
  151SAPE  C31016710   6.903   1.218   5.724  0.2503 -0.1278 -0.0468
  151SAPE  H10X16711   6.816   1.149   5.723 -0.2222  0.4499 -1.2447
  151SAPE  H10Y16712   6.997   1.168   5.689  0.1795  0.5432 -1.2579
  151SAPE  C31116713   6.889   1.339   5.638  0.7761  0.3061  0.2521
  151SAPE  H11X16714   6.967   1.411   5.669  1.0039 -0.1588  0.7818
  151SAPE  H11Y16715   6.790   1.389   5.643  1.1046  1.1033 -0.9204
  151SAPE  C31216716   6.922   1.307   5.486 -0.0855  0.5654 -0.1269
  151SAPE  H12X16717   6.843   1.240   5.446 -0.7730  0.8597  0.7147
  151SAPE  H12Y16718   7.027   1.272   5.484 -0.4374 -0.5047 -1.6721
  151SAPE  C31316719   6.936   1.428   5.397 -0.1033  0.0206  0.2531
  151SAPE  H13X16720   7.022   1.405   5.331  2.0306  1.6399  2.3181
  151SAPE  H13Y16721   6.964   1.507   5.469  0.5012 -0.8911  1.0508
  151SAPE  C31416722   6.806   1.452   5.315  0.4092 -0.0308  0.6256
  151SAPE  H14X16723   6.791   1.562   5.316  1.6883  0.1834 -0.6190
  151SAPE  H14Y16724   6.714   1.422   5.370 -1.6893  3.3298 -0.7396
  151SAPE  C31516725   6.798   1.401   5.167  0.2631 -0.5834 -0.2705
  151SAPE  H15X16726   6.879   1.450   5.108 -0.9667  1.5457 -0.3137
  151SAPE  H15Y16727   6.703   1.427   5.115  0.8675  2.6567  0.0326
  151SAPE  C31616728   6.828   1.245   5.161  0.2146  0.0914  0.3783
  151SAPE  H16X16729   6.757   1.210   5.238  0.3040  2.6642  1.7280
  151SAPE  H16Y16730   6.926   1.198   5.186  0.6293 -0.8324 -2.5714
  151SAPE  C31716731   6.805   1.180   5.025  0.2777 -0.4692  0.2835
  151SAPE  H17X16732   6.895   1.186   4.960  0.4419 -0.7220  0.4877
  151SAPE  H17Y16733   6.716   1.227   4.977  0.1433 -1.1155 -0.1132
  151SAPE  C31816734   6.777   1.027   5.039 -0.8261 -0.0337  0.3804
  151SAPE  H18X16735   6.860   0.976   5.091 -0.6059 -0.1649 -0.0982
  151SAPE  H18Y16736   6.774   0.982   4.937  1.1040 -0.2404  0.3826
  151SAPE  H18Z16737   6.683   1.002   5.093  1.0575 -0.3824  3.7400
  152SAPE     N16738   3.728   3.627   7.689 -0.2579 -0.2325  0.4081
  152SAPE   HN116739   3.676   3.538   7.673  1.1162 -0.9085 -0.4629
  152SAPE   HN216740   3.806   3.601   7.752  1.0267 -3.1106 -2.1245
  152SAPE   HN316741   3.668   3.699   7.735  0.3591  0.0003  0.8553
  152SAPE   C1216742   3.781   3.699   7.567 -0.1109 -0.3345  0.6687
  152SAPE  H12A16743   3.847   3.632   7.508 -0.5294  0.7830 -1.1753
  152SAPE  H12B16744   3.836   3.785   7.610 -0.1407  0.2123 -0.3500
  152SAPE   C1116745   3.673   3.748   7.461  0.6036 -0.3618  0.5593
  152SAPE  H11A16746   3.627   3.656   7.419  0.9132 -0.4077  0.3204
  152SAPE  H11B16747   3.725   3.817   7.391 -0.2044  1.8384  1.9983
  152SAPE     P16748   3.492   3.936   7.467  0.3422 -0.1616 -0.0515
  152SAPE   O1316749   3.349   3.905   7.482 -0.0594  0.4355 -0.3086
  152SAPE   O1416750   3.538   4.067   7.515  0.0477 -0.1231  0.0165
  152SAPE   O1216751   3.567   3.815   7.529 -0.1476  0.5457 -0.1184
  152SAPE   O1116752   3.520   3.926   7.316 -0.2649  0.2334 -0.0263
  152SAPE    C116753   3.428   3.887   7.209  0.6357 -0.2277  0.1847
  152SAPE    HA16754   3.361   3.806   7.245  1.0676 -0.3415  0.7604
  152SAPE    HB16755   3.365   3.975   7.186  1.1252  0.0197 -0.2381
  152SAPE    C216756   3.494   3.830   7.080 -0.1032 -0.3064  0.2067
  152SAPE    HS16757   3.556   3.746   7.118  0.4295 -0.5200 -1.0937
  152SAPE   O2116758   3.568   3.933   7.006  0.4144  0.2686  0.0983
  152SAPE   C2116759   3.701   3.948   7.038  0.3186 -1.2503 -0.2550
  152SAPE   O2216760   3.764   3.894   7.125  0.1147 -0.4426  0.0362
  152SAPE   C2216761   3.760   4.069   6.958  0.0711 -0.1933  0.2258
  152SAPE   H2R16762   3.680   4.107   6.892  1.2993  0.7866 -0.7440
  152SAPE   H2S16763   3.794   4.146   7.031  1.6820 -0.6244 -0.0176
  152SAPE    C316764   3.385   3.783   6.984 -0.0132 -0.4855 -0.2585
  152SAPE    HX16765   3.306   3.861   6.980  0.9018  0.4596 -0.2691
  152SAPE    HY16766   3.341   3.686   7.017  0.3954 -0.5219  0.1894
  152SAPE   O3116767   3.436   3.740   6.858 -0.1506  0.3032 -0.5548
  152SAPE   C3116768   3.372   3.780   6.749  0.0051 -0.6839  0.6720
  152SAPE   O3216769   3.278   3.860   6.745  0.4021  0.1863  0.4222
  152SAPE   C3216770   3.426   3.716   6.619 -0.1531 -0.1307 -0.0743
  152SAPE   H2X16771   3.507   3.644   6.644 -0.7969 -1.0973 -0.6989
  152SAPE   H2Y16772   3.465   3.797   6.554 -1.2195  1.3965  1.1183
  152SAPE   C2316773   3.873   4.022   6.862  0.5322 -0.3843 -0.2824
  152SAPE   H3R16774   3.963   3.989   6.918 -0.4792 -2.4437  0.2358
  152SAPE   H3S16775   3.901   4.098   6.786 -2.1054 -1.0098 -2.0376
  152SAPE   C2416776   3.813   3.912   6.771  0.5019  0.0156 -0.1017
  152SAPE   H4R16777   3.716   3.936   6.722  0.9765 -0.4672 -1.3275
  152SAPE   H4S16778   3.779   3.821   6.826 -2.0723  1.1828  0.3934
  152SAPE   C2516779   3.919   3.882   6.669  0.7338  0.0684 -0.2840
  152SAPE   H5R16780   4.024   3.894   6.698  0.5014 -0.8472  1.0256
  152SAPE   C2616781   3.896   3.855   6.544  0.2944  0.0670  0.2984
  152SAPE   H6R16782   3.986   3.855   6.481 -0.4979  0.5042 -0.8605
  152SAPE   C2716783   3.761   3.849   6.475 -0.0220  0.2388  0.7804
  152SAPE   H7R16784   3.745   3.946   6.422  1.9158 -0.5583 -1.4920
  152SAPE   H7S16785   3.678   3.838   6.547  0.1395  0.6387  1.0297
  152SAPE   C2816786   3.766   3.722   6.390  0.4980 -0.2973 -0.1360
  152SAPE   H8R16787   3.821   3.639   6.438 -0.1065  0.6859  2.4041
  152SAPE   C2916788   3.713   3.702   6.269 -0.1757  0.1700  0.0109
  152SAPE   H9R16789   3.727   3.604   6.220 -0.0943  1.0279 -1.7757
  152SAPE  C21016790   3.648   3.809   6.184 -0.8727 -0.1074  0.8689
  152SAPE  H10R16791   3.626   3.899   6.245  0.9579  0.8454  0.1823
  152SAPE  H10S16792   3.554   3.771   6.139 -1.1053  1.9260 -0.5167
  152SAPE  C21116793   3.734   3.877   6.080  0.1510  0.3274  0.7011
  152SAPE  H11R16794   3.788   3.964   6.118 -0.7217  0.0799  2.6291
  152SAPE  C21216795   3.734   3.847   5.948  0.4557  0.1395  0.1545
  152SAPE  H12R16796   3.800   3.906   5.882 -1.3338 -0.2738 -2.1201
  152SAPE  C21316797   3.663   3.736   5.875  0.3906  0.2242  0.2709
  152SAPE  H13R16798   3.572   3.770   5.821 -0.4400  1.5151  2.3425
  152SAPE  H13S16799   3.623   3.663   5.949 -1.0604 -0.2838 -0.9661
  152SAPE  C21416800   3.763   3.681   5.782  0.0947  0.1752 -0.0922
  152SAPE  H14R16801   3.756   3.712   5.677  1.8554 -0.3492 -0.3941
  152SAPE  C21516802   3.844   3.575   5.808 -0.7047 -0.3033 -0.2721
  152SAPE  H15R16803   3.923   3.539   5.740  1.9610  1.6350  1.6280
  152SAPE  C21616804   3.857   3.507   5.945 -0.3756  0.5368  0.1303
  152SAPE  H16R16805   3.876   3.577   6.029 -0.3756  0.1652  0.4430
  152SAPE  H16S16806   3.945   3.439   5.946 -0.7082  0.1027  0.3857
  152SAPE  C21716807   3.737   3.414   5.983 -0.6046 -0.4900  0.1741
  152SAPE  H17R16808   3.645   3.470   5.961 -0.6540  0.2548  2.0890
  152SAPE  H17S16809   3.748   3.419   6.093  0.8009 -0.6473  0.0656
  152SAPE  C21816810   3.736   3.272   5.933 -0.3093 -0.2832  0.2719
  152SAPE  H18R16811   3.652   3.216   5.981 -0.8484 -1.2335 -1.6424
  152SAPE  H18S16812   3.835   3.225   5.951  0.8658 -0.2887 -4.6832
  152SAPE  C21916813   3.723   3.271   5.781  0.8340  0.3008  0.7996
  152SAPE  H19R16814   3.801   3.328   5.726 -0.4781  1.6137  0.2415
  152SAPE  H19S16815   3.626   3.318   5.753 -0.1599 -2.2663 -0.4272
  152SAPE  C22016816   3.712   3.138   5.703 -0.3859 -0.1010  0.3272
  152SAPE  H20R16817   3.809   3.087   5.718  0.9177  2.1152 -0.1618
  152SAPE  H20S16818   3.686   3.153   5.596 -0.1798 -0.2420  0.2583
  152SAPE  H20T16819   3.638   3.066   5.746 -0.6626  0.0775  0.1508
  152SAPE   C3316820   3.316   3.641   6.534  0.2918 -0.2435  0.4933
  152SAPE   H3X16821   3.227   3.708   6.533 -2.1903 -3.3200  0.3812
  152SAPE   H3Y16822   3.279   3.547   6.579 -2.3023  1.2216  1.6470
  152SAPE   C3416823   3.368   3.625   6.390 -0.3698 -0.1478  0.3005
  152SAPE   H4X16824   3.447   3.546   6.398 -1.4066 -1.5330 -2.2218
  152SAPE   H4Y16825   3.425   3.717   6.366 -1.5791  0.8510  1.1620
  152SAPE   C3516826   3.264   3.585   6.285  0.9244  0.5587 -0.4695
  152SAPE   H5X16827   3.194   3.672   6.284 -0.3845 -0.4596 -0.7350
  152SAPE   H5Y16828   3.209   3.493   6.313 -2.0637  1.4444 -2.8163
  152SAPE   C3616829   3.332   3.560   6.149  1.2073  0.0351  0.5646
  152SAPE   H6X16830   3.390   3.466   6.161 -0.6493 -1.4283 -1.2550
  152SAPE   H6Y16831   3.385   3.654   6.125  1.2206 -0.0179  0.3902
  152SAPE   C3716832   3.236   3.548   6.029  0.1215  0.4629  0.2446
  152SAPE   H7X16833   3.167   3.635   6.024  2.2044  2.2548  1.2847
  152SAPE   H7Y16834   3.190   3.447   6.042 -0.9394  0.9865  0.6897
  152SAPE   C3816835   3.326   3.529   5.901 -0.0351  0.0898  1.4137
  152SAPE   H8X16836   3.366   3.426   5.894 -0.5488 -0.1316  1.6724
  152SAPE   H8Y16837   3.415   3.596   5.896 -0.8370  1.0907 -0.7070
  152SAPE   C3916838   3.243   3.562   5.781  0.0297  0.1495  0.0809
  152SAPE   H9X16839   3.222   3.670   5.796 -2.4756 -0.6021  2.8968
  152SAPE   H9Y16840   3.149   3.504   5.791 -0.7047  0.7588 -2.5277
  152SAPE  C31016841   3.308   3.537   5.640 -0.5764 -0.1861 -0.4718
  152SAPE  H10X16842   3.401   3.598   5.638 -1.6399  1.5660  0.7454
  152SAPE  H10Y16843   3.244   3.588   5.564 -1.3184 -2.2462 -1.3036
  152SAPE  C31116844   3.320   3.390   5.598 -0.3086 -0.4322  0.0199
  152SAPE  H11X16845   3.222   3.343   5.624 -0.7805  0.7278  0.4449
  152SAPE  H11Y16846   3.396   3.346   5.666  1.3017  0.7319 -0.9600
  152SAPE  C31216847   3.361   3.376   5.450 -0.6244  0.1715  0.0817
  152SAPE  H12X16848   3.299   3.442   5.384 -1.6182 -1.0517 -0.2405
  152SAPE  H12Y16849   3.332   3.275   5.414 -0.9859 -0.2801  1.5881
  152SAPE  C31316850   3.510   3.398   5.417 -0.2620  0.5413 -0.2860
  152SAPE  H13X16851   3.561   3.318   5.473 -2.0003  0.5403  1.3884
  152SAPE  H13Y16852   3.541   3.498   5.456  0.3729  1.8775 -3.7945
  152SAPE  C31416853   3.538   3.387   5.271 -0.8165 -0.0039 -0.6402
  152SAPE  H14X16854   3.460   3.438   5.211 -1.1715 -1.0390 -1.0720
  152SAPE  H14Y16855   3.525   3.278   5.254  1.1607 -0.7436  1.8625
  152SAPE  C31516856   3.688   3.427   5.250 -0.3270  0.3157  0.8032
  152SAPE  H15X16857   3.725   3.356   5.173  1.4447  0.2544  1.6718
  152SAPE  H15Y16858   3.737   3.408   5.348 -1.0764  0.9342  1.3138
  152SAPE  C31616859   3.717   3.569   5.212 -0.2100 -0.1758 -0.5361
  152SAPE  H16X16860   3.711   3.581   5.101  0.8514 -0.5751 -0.6449
  152SAPE  H16Y16861   3.825   3.582   5.232  0.2575 -4.7764  1.1402
  152SAPE  C31716862   3.633   3.673   5.277 -0.4735  0.9713 -0.1921
  152SAPE  H17X16863   3.645   3.668   5.388 -1.0721  0.3229 -0.1494
  152SAPE  H17Y16864   3.525   3.646   5.273 -0.6841  0.9564  2.7561
  152SAPE  C31816865   3.661   3.814   5.237  0.0549  0.3035  0.1296
  152SAPE  H18X16866   3.612   3.892   5.299  0.9274 -1.9048  3.8888
  152SAPE  H18Y16867   3.634   3.825   5.130  2.1411 -0.1250 -0.4826
  152SAPE  H18Z16868   3.770   3.830   5.252  1.0656 -2.7802 -2.7342
  153SAPE     N16869   2.194   3.795   7.369 -0.6128  0.1329  0.1185
  153SAPE   HN116870   2.094   3.810   7.394 -0.7469 -0.2906 -0.1435
  153SAPE   HN216871   2.239   3.734   7.440  1.8101  2.9772  1.2696
  153SAPE   HN316872   2.242   3.887   7.362  0.3485 -0.3248  0.5346
  153SAPE   C1216873   2.207   3.746   7.226 -0.1049  0.1019  0.3495
  153SAPE  H12A16874   2.232   3.639   7.241 -0.0590 -0.0264 -0.6065
  153SAPE  H12B16875   2.301   3.785   7.182 -0.7097  0.4999 -0.6153
  153SAPE   C1116876   2.090   3.779   7.137 -0.0536  0.1275  0.0212
  153SAPE  H11A16877   2.101   3.716   7.046 -3.3297  0.8854 -1.0495
  153SAPE  H11B16878   2.099   3.888   7.113  0.5654  0.1244  0.2246
  153SAPE     P16879   1.839   3.780   7.128  0.2037 -0.0942  0.0795
  153SAPE   O1316880   1.736   3.795   7.233 -0.1762  0.0690  0.2296
  153SAPE   O1416881   1.862   3.905   7.048 -0.4974  0.3464  0.2329
  153SAPE   O1216882   1.974   3.749   7.204  0.5602 -0.2166  0.0804
  153SAPE   O1116883   1.807   3.654   7.028 -0.3344 -0.1104 -0.2301
  153SAPE    C116884   1.834   3.523   7.080  0.0367  0.5220  0.1253
  153SAPE    HA16885   1.945   3.512   7.084 -0.1047 -1.0254  0.3417
  153SAPE    HB16886   1.781   3.502   7.175 -2.3827  0.4502 -1.1759
  153SAPE    C216887   1.791   3.407   6.974 -0.2937  0.1482  0.1115
  153SAPE    HS16888   1.830   3.310   7.011 -1.7123 -0.2052  0.7274
  153SAPE   O2116889   1.849   3.432   6.845 -0.0893  0.1058  0.3417
  153SAPE   C2116890   1.824   3.344   6.755 -0.4022  0.4614  0.9244
  153SAPE   O2216891   1.783   3.232   6.777  0.3449  0.6242 -0.5769
  153SAPE   C2216892   1.859   3.391   6.610  0.0601 -0.7400 -0.1266
  153SAPE   H2R16893   1.796   3.478   6.581  1.3488  0.7403  1.3492
  153SAPE   H2S16894   1.962   3.432   6.608 -0.7457  1.3555 -1.8587
  153SAPE    C316895   1.632   3.395   6.967 -0.1221 -0.1331  0.4045
  153SAPE    HX16896   1.605   3.368   7.071  0.0042 -0.6247  0.3147
  153SAPE    HY16897   1.607   3.313   6.896 -0.7588  0.6535 -0.2979
  153SAPE   O3116898   1.576   3.522   6.919  0.6080 -0.5380 -0.3087
  153SAPE   C3116899   1.466   3.565   6.979 -0.5588  0.0018 -0.0350
  153SAPE   O3216900   1.414   3.523   7.083  0.6101  0.1633  0.3007
  153SAPE   C3216901   1.411   3.676   6.895 -0.0760  0.4904  0.6353
  153SAPE   H2X16902   1.473   3.766   6.912  1.5148 -0.4448  0.0165
  153SAPE   H2Y16903   1.312   3.717   6.924 -0.1710  2.7487 -2.4713
  153SAPE   C2316904   1.828   3.276   6.513  0.2153  0.2468  1.0989
  153SAPE   H3R16905   1.719   3.254   6.505  0.2540  0.6721 -2.2368
  153SAPE   H3S16906   1.870   3.182   6.554  0.4809 -0.4722 -0.7148
  153SAPE   C2416907   1.895   3.298   6.377 -0.6159 -0.8027 -0.1697
  153SAPE   H4R16908   1.903   3.195   6.336  2.2744 -0.9844  0.6192
  153SAPE   H4S16909   1.999   3.332   6.398 -0.9644  0.1704  0.0302
  153SAPE   C2516910   1.817   3.380   6.285 -0.4098  0.1283  0.6076
  153SAPE   H5R16911   1.794   3.482   6.321 -0.6799  0.0840  0.5597
  153SAPE   C2616912   1.754   3.328   6.180 -0.3265 -0.5977 -0.1870
  153SAPE   H6R16913   1.693   3.397   6.119  0.7730  1.2368  0.7244
  153SAPE   C2716914   1.768   3.182   6.130  0.2844 -0.5594  0.2720
  153SAPE   H7R16915   1.752   3.111   6.214 -3.4047 -1.2512 -0.8091
  153SAPE   H7S16916   1.869   3.154   6.093  0.0322 -1.9787  0.5835
  153SAPE   C2816917   1.666   3.156   6.022 -0.2988  0.5063 -0.2833
  153SAPE   H8R16918   1.570   3.117   6.058 -1.2448  1.3747 -1.7308
  153SAPE   C2916919   1.688   3.165   5.889 -0.1661  0.7346 -0.1164
  153SAPE   H9R16920   1.611   3.133   5.817  2.2125  0.2722 -2.5848
  153SAPE  C21016921   1.818   3.191   5.822  0.4937  0.3389 -0.8300
  153SAPE  H10R16922   1.842   3.104   5.756  0.5155 -1.9496  1.9659
  153SAPE  H10S16923   1.901   3.198   5.896 -0.4664  0.2621  0.2772
  153SAPE  C21116924   1.835   3.322   5.758 -0.3337  0.0429  0.5448
  153SAPE  H11R16925   1.851   3.403   5.831 -0.6276  1.1886 -0.6163
  153SAPE  C21216926   1.845   3.357   5.624 -0.0743 -0.7469 -0.4467
  153SAPE  H12R16927   1.848   3.466   5.606 -2.8367 -0.6272 -0.5829
  153SAPE  C21316928   1.832   3.265   5.502  0.2444 -0.5935  0.2428
  153SAPE  H13R16929   1.809   3.160   5.529  1.0927 -1.5994 -2.5310
  153SAPE  H13S16930   1.936   3.257   5.465  0.0371  0.1268 -0.5356
  153SAPE  C21416931   1.740   3.322   5.389  0.4125  0.2430  0.3561
  153SAPE  H14R16932   1.633   3.315   5.410  0.7261 -2.5818  1.4216
  153SAPE  C21516933   1.783   3.375   5.273 -0.1008 -0.5063 -0.3310
  153SAPE  H15R16934   1.718   3.408   5.190 -0.2799  0.0890  0.0482
  153SAPE  C21616935   1.937   3.392   5.229 -0.4513  0.7802 -0.5414
  153SAPE  H16R16936   1.996   3.319   5.289  1.1237  1.9006 -0.6803
  153SAPE  H16S16937   1.991   3.486   5.250  0.7368  0.0758 -0.3684
  153SAPE  C21716938   1.936   3.370   5.075  0.1925 -0.5096 -0.1250
  153SAPE  H17R16939   1.889   3.274   5.045 -1.5457 -0.0157  0.8831
  153SAPE  H17S16940   2.042   3.359   5.044  0.2370  1.8618 -1.0724
  153SAPE  C21816941   1.877   3.485   4.993 -0.3516  0.1487 -0.1374
  153SAPE  H18R16942   1.948   3.544   4.932 -0.2123 -1.3241 -1.4576
  153SAPE  H18S16943   1.827   3.547   5.071  0.9259  0.2169  0.6647
  153SAPE  C21916944   1.771   3.425   4.904 -0.6404  0.0459  0.6123
  153SAPE  H19R16945   1.707   3.345   4.946  0.4916 -1.0647  0.2698
  153SAPE  H19S16946   1.826   3.372   4.823 -0.1619  0.6719  0.5208
  153SAPE  C22016947   1.688   3.534   4.831 -0.0535 -0.6561  0.0421
  153SAPE  H20R16948   1.593   3.482   4.805 -1.0697  0.9124  0.4823
  153SAPE  H20S16949   1.728   3.583   4.739 -1.0473  0.8657  0.3951
  153SAPE  H20T16950   1.661   3.618   4.897  1.5845 -0.4356  0.4728
  153SAPE   C3316951   1.411   3.652   6.741 -0.4827 -0.4220  0.0085
  153SAPE   H3X16952   1.512   3.621   6.709 -1.4271 -2.1260 -1.4687
  153SAPE   H3Y16953   1.403   3.755   6.699 -0.9782 -1.0963 -1.6209
  153SAPE   C3416954   1.297   3.562   6.686 -0.2995  0.0387  0.2659
  153SAPE   H4X16955   1.201   3.603   6.726 -0.6460  1.1442 -1.5525
  153SAPE   H4Y16956   1.312   3.456   6.716  1.7256  0.3644  0.5057
  153SAPE   C3516957   1.274   3.591   6.537 -0.0770  0.2200  0.4313
  153SAPE   H5X16958   1.205   3.515   6.496  1.1145 -0.0473 -1.1790
  153SAPE   H5Y16959   1.376   3.585   6.493 -0.5175 -1.2005 -0.4746
  153SAPE   C3616960   1.224   3.726   6.503  0.3353 -0.0363  0.2692
  153SAPE   H6X16961   1.296   3.801   6.542  0.1963 -0.2377  0.9187
  153SAPE   H6Y16962   1.127   3.748   6.554  0.1547  0.3260 -0.2187
  153SAPE   C3716963   1.220   3.761   6.355  0.6385 -0.4872  0.6669
  153SAPE   H7X16964   1.183   3.668   6.305 -0.8954  0.1311  0.6122
  153SAPE   H7Y16965   1.325   3.786   6.330 -0.0826  1.7025 -0.4325
  153SAPE   C3816966   1.118   3.871   6.323 -0.0612  0.1599 -0.5183
  153SAPE   H8X16967   1.157   3.965   6.368  2.0395 -0.8208 -0.1579
  153SAPE   H8Y16968   1.023   3.869   6.381  0.8592  2.4997  1.2574
  153SAPE   C3916969   1.086   3.882   6.174 -0.0067 -0.5683 -0.7866
  153SAPE   H9X16970   1.004   3.956   6.164  1.3615  1.3357  1.1259
  153SAPE   H9Y16971   1.029   3.792   6.142  0.8452 -1.2188 -0.5073
  153SAPE  C31016972   1.204   3.901   6.082  0.1204 -0.0294 -0.3823
  153SAPE  H10X16973   1.274   3.816   6.080  0.3080  0.1246 -1.5622
  153SAPE  H10Y16974   1.249   3.995   6.119  1.2979 -0.7853  0.1361
  153SAPE  C31116975   1.154   3.930   5.940 -0.3574 -0.5632 -0.4658
  153SAPE  H11X16976   1.102   4.028   5.951  2.9798  1.2013  1.2766
  153SAPE  H11Y16977   1.077   3.859   5.904  0.9042 -1.1680 -2.0434
  153SAPE  C31216978   1.275   3.956   5.846 -0.2361 -0.3458  0.0045
  153SAPE  H12X16979   1.330   3.861   5.832 -0.3896 -0.5670  0.8326
  153SAPE  H12Y16980   1.354   4.021   5.890 -0.5220  1.1625 -1.5993
  153SAPE  C31316981   1.249   4.025   5.708 -0.0300  0.8022 -0.3233
  153SAPE  H13X16982   1.180   4.111   5.720 -2.5381 -1.0361 -0.7283
  153SAPE  H13Y16983   1.197   3.949   5.646 -0.7840  0.4713  0.6894
  153SAPE  C31416984   1.372   4.074   5.631  0.6545 -0.5648 -1.0160
  153SAPE  H14X16985   1.424   3.986   5.587 -0.8478 -1.5394 -0.9002
  153SAPE  H14Y16986   1.442   4.126   5.701 -0.0683  1.3629 -1.6435
  153SAPE  C31516987   1.337   4.180   5.528 -0.1340  0.1644 -0.3195
  153SAPE  H15X16988   1.315   4.280   5.571 -0.7182 -0.9172  2.0610
  153SAPE  H15Y16989   1.246   4.141   5.478 -1.0906  1.5754  0.2543
  153SAPE  C31616990   1.451   4.211   5.428 -0.1558 -0.4923  0.0036
  153SAPE  H16X16991   1.504   4.117   5.402  2.4504  0.6194  1.0101
  153SAPE  H16Y16992   1.511   4.287   5.483  0.0728  0.1103 -1.0542
  153SAPE  C31716993   1.394   4.278   5.300  0.5908  0.2301  0.8226
  153SAPE  H17X16994   1.322   4.360   5.320 -0.6149  0.0817 -2.3638
  153SAPE  H17Y16995   1.332   4.204   5.246  2.0789  0.9471 -2.1027
  153SAPE  C31816996   1.498   4.316   5.201  0.4308 -0.3555 -0.0264
  153SAPE  H18X16997   1.562   4.227   5.186  2.1743  0.5841  1.4681
  153SAPE  H18Y16998   1.554   4.398   5.251 -0.4582  0.6067 -0.5708
  153SAPE  H18Z16999   1.462   4.364   5.108 -1.9215  0.7680  1.3517
  154SAPE     N17000   5.303   1.991   7.185  0.6451  0.1955  0.3004
  154SAPE   HN117001   5.398   2.029   7.204  0.9314 -0.3550 -0.0123
  154SAPE   HN217002   5.236   2.069   7.191  0.7925  0.3460  0.0137
  154SAPE   HN317003   5.278   1.913   7.250  1.7786  1.3294  2.2248
  154SAPE   C1217004   5.312   1.937   7.048 -0.4684  0.1237 -0.1031
  154SAPE  H12A17005   5.209   1.896   7.036  0.2907 -1.9969  0.2670
  154SAPE  H12B17006   5.385   1.854   7.048 -1.9006 -1.1962 -1.5782
  154SAPE   C1117007   5.357   2.041   6.944  0.2405 -0.2586  0.1158
  154SAPE  H11A17008   5.285   2.125   6.941 -1.7499 -1.8686  0.3730
  154SAPE  H11B17009   5.351   2.010   6.837  0.5421  0.4690 -0.1185
  154SAPE     P17010   5.547   2.212   6.940 -0.0182 -0.0664 -0.2445
  154SAPE   O1317011   5.472   2.316   7.015 -0.0933 -0.3262 -0.7381
  154SAPE   O1417012   5.693   2.215   6.960  0.9845 -0.7534  0.6827
  154SAPE   O1217013   5.497   2.068   6.961 -0.1330  0.6218  0.2568
  154SAPE   O1117014   5.518   2.244   6.795 -1.1377 -0.3451  0.3799
  154SAPE    C117015   5.588   2.179   6.687 -0.1448 -0.2391 -0.1905
  154SAPE    HA17016   5.668   2.110   6.720  2.2673  2.6896  0.5877
  154SAPE    HB17017   5.505   2.135   6.629  0.4001 -0.1437 -1.0630
  154SAPE    C217018   5.656   2.286   6.587  0.6992 -0.8920 -0.8711
  154SAPE    HS17019   5.657   2.235   6.488 -0.0081 -1.1789 -0.7307
  154SAPE   O2117020   5.784   2.331   6.644  0.2106  0.1926  0.4634
  154SAPE   C2117021   5.880   2.237   6.637  0.2638 -0.3276 -0.1524
  154SAPE   O2217022   5.855   2.124   6.595  0.5579  0.6173  0.0582
  154SAPE   C2217023   6.021   2.280   6.674  0.4404  0.1823 -0.1900
  154SAPE   H2R17024   6.034   2.259   6.783 -0.1090 -0.3375 -0.2171
  154SAPE   H2S17025   6.092   2.211   6.625 -0.7550 -1.2635  0.0335
  154SAPE    C317026   5.560   2.407   6.580  0.3150 -0.1755 -0.5869
  154SAPE    HX17027   5.572   2.468   6.672  0.1054  0.2953 -0.8649
  154SAPE    HY17028   5.459   2.362   6.582 -0.1731  0.8967  0.8428
  154SAPE   O3117029   5.578   2.482   6.460  0.6065 -0.3405 -0.6628
  154SAPE   C3117030   5.507   2.594   6.458 -0.0326 -0.7422  0.7546
  154SAPE   O3217031   5.417   2.626   6.533  0.2399  0.0577 -0.1355
  154SAPE   C3217032   5.538   2.675   6.335 -0.0109  0.6976 -0.2690
  154SAPE   H2X17033   5.583   2.608   6.259 -0.7717  1.0220 -1.0213
  154SAPE   H2Y17034   5.612   2.744   6.381 -0.5731 -1.2071  3.9972
  154SAPE   C2317035   6.068   2.419   6.641  0.1857  0.1416 -0.0284
  154SAPE   H3R17036   6.176   2.422   6.667  0.2917 -0.0229 -0.4406
  154SAPE   H3S17037   6.024   2.504   6.697  1.2050  0.1619  0.7729
  154SAPE   C2417038   6.074   2.458   6.494 -0.5850 -0.3839  0.8296
  154SAPE   H4R17039   6.127   2.384   6.430 -0.4224  1.8549 -1.8317
  154SAPE   H4S17040   6.133   2.552   6.493  0.7879 -1.1648  2.3345
  154SAPE   C2517041   5.941   2.478   6.425 -0.5005  0.6284 -0.6605
  154SAPE   H5R17042   5.857   2.506   6.490 -1.4159 -2.6881 -0.2633
  154SAPE   C2617043   5.913   2.465   6.295 -0.5090 -0.2888 -0.1659
  154SAPE   H6R17044   5.806   2.455   6.272 -1.2505 -2.3389  3.3302
  154SAPE   C2717045   6.007   2.424   6.187 -0.7747  0.1993 -0.8223
  154SAPE   H7R17046   6.113   2.424   6.220 -1.0573 -1.5504  0.1733
  154SAPE   H7S17047   6.008   2.501   6.107  2.4983  2.4578  1.1317
  154SAPE   C2817048   5.984   2.287   6.134 -0.5256  0.4731  0.4169
  154SAPE   H8R17049   5.887   2.241   6.157 -0.1864 -0.0986  0.7311
  154SAPE   C2917050   6.055   2.228   6.041  0.0811 -0.3311  0.3124
  154SAPE   H9R17051   6.023   2.126   6.016 -1.7903  0.3279 -0.2289
  154SAPE  C21017052   6.164   2.278   5.950  0.4698 -1.2045 -0.2160
  154SAPE  H10R17053   6.181   2.381   5.988  0.5175 -2.0317  2.1936
  154SAPE  H10S17054   6.120   2.299   5.850 -1.8509 -1.8822  0.5936
  154SAPE  C21117055   6.298   2.213   5.959  0.2380  0.0944 -0.7821
  154SAPE  H11R17056   6.339   2.216   6.062 -0.8074 -0.6703 -0.3290
  154SAPE  C21217057   6.360   2.145   5.864  0.3157  0.0505  0.1658
  154SAPE  H12R17058   6.453   2.092   5.886  2.2472  3.0939 -0.0121
  154SAPE  C21317059   6.314   2.132   5.720 -0.0218 -0.0412  0.6371
  154SAPE  H13R17060   6.203   2.138   5.708  0.0475  1.9589  0.7695
  154SAPE  H13S17061   6.348   2.036   5.676  2.4198  1.2719 -0.5079
  154SAPE  C21417062   6.374   2.245   5.643  0.2717  0.0482  0.5320
  154SAPE  H14R17063   6.461   2.300   5.684  0.8728  0.5726 -1.3256
  154SAPE  C21517064   6.324   2.279   5.523  0.8730 -0.5479 -0.3367
  154SAPE  H15R17065   6.373   2.364   5.472 -0.0790 -0.1699 -0.6478
  154SAPE  C21617066   6.209   2.214   5.444  0.0033 -0.7378 -0.9537
  154SAPE  H16R17067   6.179   2.123   5.499 -0.7376  0.9909  1.6593
  154SAPE  H16S17068   6.260   2.181   5.351 -0.5407  1.2073 -2.0054
  154SAPE  C21717069   6.098   2.314   5.411  0.6407  0.2971  0.1228
  154SAPE  H17R17070   6.143   2.395   5.349  1.0118 -0.1658 -0.2208
  154SAPE  H17S17071   6.065   2.347   5.512  0.8502 -0.5935  0.4913
  154SAPE  C21817072   5.992   2.252   5.321 -0.6011 -0.1040  0.4997
  154SAPE  H18R17073   6.020   2.166   5.257  0.1857  1.2803 -1.0818
  154SAPE  H18S17074   5.962   2.320   5.238 -2.8779 -1.9203 -0.2971
  154SAPE  C21917075   5.864   2.227   5.403  1.0512  0.0490  0.1736
  154SAPE  H19R17076   5.856   2.295   5.490 -0.1212 -0.4780  0.4880
  154SAPE  H19S17077   5.876   2.125   5.446 -0.1934 -0.8865 -1.5651
  154SAPE  C22017078   5.738   2.220   5.319 -0.0814  0.5018  0.0655
  154SAPE  H20R17079   5.755   2.157   5.229  1.1731 -0.1943  0.7614
  154SAPE  H20S17080   5.716   2.327   5.297  0.7312  0.9289  1.2164
  154SAPE  H20T17081   5.655   2.180   5.380  0.8776 -1.8723 -0.0887
  154SAPE   C3317082   5.412   2.736   6.274 -0.3442  0.5428  0.9724
  154SAPE   H3X17083   5.367   2.802   6.352  0.0660  2.3786 -0.2765
  154SAPE   H3Y17084   5.345   2.652   6.246  0.3210  0.3062  0.0485
  154SAPE   C3417085   5.450   2.822   6.152  0.8282  0.0042 -0.3669
  154SAPE   H4X17086   5.506   2.768   6.074 -0.4346 -0.0694 -1.2565
  154SAPE   H4Y17087   5.512   2.907   6.188  0.0653  1.1571 -1.6896
  154SAPE   C3517088   5.326   2.893   6.085 -0.2349  0.3815  0.4954
  154SAPE   H5X17089   5.295   2.973   6.155  0.3510 -0.5495  1.8745
  154SAPE   H5Y17090   5.241   2.824   6.070 -0.9010  1.1399  0.7126
  154SAPE   C3617091   5.370   2.980   5.965  0.2548  0.9650  0.8282
  154SAPE   H6X17092   5.466   3.029   5.991  0.7854  0.7046 -0.5271
  154SAPE   H6Y17093   5.297   3.059   5.934 -0.4404 -0.0269 -0.1307
  154SAPE   C3717094   5.390   2.893   5.841 -0.3660  0.4237 -0.5911
  154SAPE   H7X17095   5.460   2.811   5.867  0.9863  1.3557 -1.1964
  154SAPE   H7Y17096   5.452   2.942   5.763  0.8822 -0.2212 -0.0247
  154SAPE   C3817097   5.268   2.845   5.766 -0.1846  0.8788 -0.5430
  154SAPE   H8X17098   5.198   2.812   5.846  2.1671 -1.2933  0.7897
  154SAPE   H8Y17099   5.306   2.753   5.716 -3.1652 -1.6788  1.4644
  154SAPE   C3917100   5.212   2.939   5.661 -0.2665  0.0874 -0.6067
  154SAPE   H9X17101   5.279   3.028   5.657  1.1018 -0.8868 -0.1277
  154SAPE   H9Y17102   5.113   2.977   5.693 -0.9252 -1.8093 -0.3165
  154SAPE  C31017103   5.204   2.883   5.517 -0.3653 -0.4036  0.4788
  154SAPE  H10X17104   5.135   2.796   5.515 -0.8120 -0.1044  1.9137
  154SAPE  H10Y17105   5.306   2.849   5.487  0.8591  2.3983  1.1370
  154SAPE  C31117106   5.169   2.981   5.418 -0.2946 -0.3569 -0.1150
  154SAPE  H11X17107   5.248   3.059   5.424  0.2134 -0.7769 -1.1069
  154SAPE  H11Y17108   5.074   3.036   5.437 -1.2920 -1.7270 -0.9638
  154SAPE  C31217109   5.168   2.923   5.283 -0.2036 -0.5479  0.2249
  154SAPE  H12X17110   5.252   2.850   5.284  0.5901  0.2790 -1.6256
  154SAPE  H12Y17111   5.169   3.008   5.212  0.5796 -0.8982 -0.2032
  154SAPE  C31317112   5.034   2.849   5.246  0.5517 -0.0529 -1.2443
  154SAPE  H13X17113   4.961   2.931   5.228 -0.0839 -0.7176 -1.7462
  154SAPE  H13Y17114   5.003   2.795   5.338  2.7669  0.9205  0.1665
  154SAPE  C31417115   5.040   2.761   5.117  0.9911 -0.2255 -0.4119
  154SAPE  H14X17116   5.107   2.809   5.043  1.6688  0.9011  0.8811
  154SAPE  H14Y17117   4.935   2.761   5.082  1.3937 -1.6599 -1.6954
  154SAPE  C31517118   5.072   2.620   5.148 -0.1196 -0.6790  0.3208
  154SAPE  H15X17119   5.002   2.581   5.225 -1.4119  0.6164 -0.1576
  154SAPE  H15Y17120   5.173   2.627   5.194 -0.7955 -1.1127  1.9616
  154SAPE  C31617121   5.088   2.538   5.022  0.0523 -0.0911 -0.5820
  154SAPE  H16X17122   5.195   2.509   5.011 -0.0232 -1.4387  1.6715
  154SAPE  H16Y17123   5.057   2.596   4.933 -0.9836 -0.5360 -0.5234
  154SAPE  C31717124   5.001   2.408   5.027  0.0371  0.1540 -0.3176
  154SAPE  H17X17125   4.894   2.436   5.021  0.2382  0.7246 -1.5587
  154SAPE  H17Y17126   5.014   2.341   5.114 -1.0080 -0.4730 -0.6260
  154SAPE  C31817127   5.036   2.326   4.902 -0.0226 -0.1034  0.7987
  154SAPE  H18X17128   5.144   2.302   4.910 -0.5953 -2.7550  1.5670
  154SAPE  H18Y17129   5.011   2.390   4.815 -0.9213 -0.6336  0.6528
  154SAPE  H18Z17130   4.978   2.231   4.902  1.3728 -0.9958  0.2751
  155SAPE     N17131   0.482   2.496   7.316  0.0875  0.2118 -0.0333
  155SAPE   HN117132   0.381   2.494   7.342 -0.4225 -0.1396 -1.9390
  155SAPE   HN217133   0.533   2.513   7.405 -1.0100  0.8912  0.4941
  155SAPE   HN317134   0.494   2.580   7.256  0.1505  0.8554  0.8588
  155SAPE   C1217135   0.539   2.374   7.250 -0.6677  0.2407  0.2267
  155SAPE  H12A17136   0.482   2.341   7.161 -0.2375 -3.0284  1.0142
  155SAPE  H12B17137   0.530   2.289   7.321  2.6288 -1.4832 -1.1710
  155SAPE   C1117138   0.693   2.385   7.218 -0.6796  0.0562  1.1754
  155SAPE  H11A17139   0.710   2.464   7.142 -0.3443 -1.4332 -0.3676
  155SAPE  H11B17140   0.722   2.288   7.173  1.1490  0.0465  2.2837
  155SAPE     P17141   0.924   2.458   7.315 -0.1627  0.8992 -0.1013
  155SAPE   O1317142   0.936   2.596   7.364  0.8616 -0.1717  0.1155
  155SAPE   O1417143   1.007   2.355   7.387 -0.0749 -0.6516 -0.0322
  155SAPE   O1217144   0.771   2.421   7.330 -0.0348 -0.1746 -0.1056
  155SAPE   O1117145   0.946   2.454   7.158 -0.0591  0.1381 -0.2587
  155SAPE    C117146   1.076   2.449   7.103  0.4607 -0.2360 -0.1505
  155SAPE    HA17147   1.133   2.356   7.124  3.4921  1.2112 -1.3766
  155SAPE    HB17148   1.055   2.447   6.994 -0.0705  1.0525 -0.0953
  155SAPE    C217149   1.169   2.571   7.134 -0.4452  0.7584 -0.3108
  155SAPE    HS17150   1.197   2.561   7.241 -1.1108  1.4885 -0.0545
  155SAPE   O2117151   1.104   2.693   7.107 -0.4122 -0.3757 -0.1391
  155SAPE   C2117152   1.163   2.796   7.147 -0.7544  0.1388  0.2938
  155SAPE   O2217153   1.262   2.806   7.219  0.4190 -0.1167 -0.3089
  155SAPE   C2217154   1.084   2.916   7.086 -0.7892 -0.6737  0.5735
  155SAPE   H2R17155   1.068   2.896   6.978 -3.8918 -1.1928  1.0265
  155SAPE   H2S17156   0.987   2.924   7.140 -1.1953  5.0515 -0.2973
  155SAPE    C317157   1.311   2.549   7.065  0.2627  0.0591 -0.2050
  155SAPE    HX17158   1.352   2.450   7.095  0.5027 -0.8044 -3.1394
  155SAPE    HY17159   1.378   2.628   7.106  2.2812 -1.9462  0.5423
  155SAPE   O3117160   1.292   2.545   6.925 -0.0859 -0.5612  0.5380
  155SAPE   C3117161   1.357   2.631   6.851 -0.8993 -0.7259 -1.1840
  155SAPE   O3217162   1.439   2.711   6.905  0.2324  0.3467  0.2736
  155SAPE   C3217163   1.309   2.631   6.711  0.6221  0.4578 -0.0468
  155SAPE   H2X17164   1.289   2.527   6.676 -0.3885  1.3380 -2.2761
  155SAPE   H2Y17165   1.391   2.677   6.651  0.1946  0.0546 -0.9652
  155SAPE   C2317166   1.158   3.050   7.107 -0.6282  0.2492 -0.2284
  155SAPE   H3R17167   1.207   3.058   7.207 -0.0103  1.6209 -0.6058
  155SAPE   H3S17168   1.082   3.130   7.113  1.9150  2.7565  2.1019
  155SAPE   C2417169   1.249   3.080   6.982  0.0734 -0.0398  0.5889
  155SAPE   H4R17170   1.318   2.993   6.978  0.1337  0.0283  0.0875
  155SAPE   H4S17171   1.315   3.167   7.001  0.4733  0.1338 -1.4005
  155SAPE   C2517172   1.178   3.097   6.849  0.0792 -0.5065  0.6808
  155SAPE   H5R17173   1.070   3.086   6.866  0.2637 -0.3517  2.0360
  155SAPE   C2617174   1.239   3.122   6.727  0.1481 -0.4060  0.1073
  155SAPE   H6R17175   1.172   3.127   6.640  0.3558  2.5853  0.0204
  155SAPE   C2717176   1.380   3.140   6.685 -0.0643 -0.1870  0.3210
  155SAPE   H7R17177   1.437   3.171   6.776 -0.3390  1.0055  0.0956
  155SAPE   H7S17178   1.381   3.230   6.620  2.6788  1.2633  2.1300
  155SAPE   C2817179   1.449   3.018   6.624 -0.6273  0.4071 -0.3116
  155SAPE   H8R17180   1.469   2.943   6.702 -1.5748 -0.9136 -1.2849
  155SAPE   C2917181   1.482   2.988   6.494  0.0475 -0.2599  0.6018
  155SAPE   H9R17182   1.539   2.896   6.475 -1.4994 -1.6195  2.1720
  155SAPE  C21017183   1.456   3.074   6.369  0.1206  0.6315 -0.4366
  155SAPE  H10R17184   1.543   3.068   6.300 -0.7610 -1.0470 -1.4734
  155SAPE  H10S17185   1.449   3.180   6.401 -0.1474  0.0937  1.4021
  155SAPE  C21117186   1.337   3.029   6.289  0.4008  0.7323 -0.0579
  155SAPE  H11R17187   1.336   2.920   6.275  0.3589  0.9001 -1.4886
  155SAPE  C21217188   1.239   3.105   6.241 -0.6956 -0.1247 -0.5414
  155SAPE  H12R17189   1.147   3.059   6.202 -2.6276  1.7693  1.5025
  155SAPE  C21317190   1.217   3.249   6.255  0.5904 -0.2204  0.0005
  155SAPE  H13R17191   1.192   3.279   6.359 -1.5925  0.2813 -0.6275
  155SAPE  H13S17192   1.124   3.281   6.203 -1.5639  0.1820  3.7467
  155SAPE  C21417193   1.327   3.343   6.195 -0.2093  0.1827 -0.5700
  155SAPE  H14R17194   1.384   3.389   6.278 -1.7240  1.0842  0.0120
  155SAPE  C21517195   1.368   3.356   6.065  0.0360  0.1073  0.1700
  155SAPE  H15R17196   1.450   3.424   6.041  1.8782 -1.8747  0.5271
  155SAPE  C21617197   1.293   3.293   5.946  0.2357 -0.2349 -0.2994
  155SAPE  H16R17198   1.197   3.243   5.971 -0.4974  0.3488 -1.8413
  155SAPE  H16S17199   1.358   3.209   5.914 -0.1792 -1.2087  1.3021
  155SAPE  C21717200   1.258   3.379   5.821  1.2002 -0.2940 -0.4769
  155SAPE  H17R17201   1.190   3.462   5.851  1.1180  0.9525 -3.6745
  155SAPE  H17S17202   1.193   3.319   5.753 -2.3799  2.0725  0.5210
  155SAPE  C21817203   1.387   3.432   5.756  0.1072  0.3681  0.8796
  155SAPE  H18R17204   1.448   3.346   5.721 -0.4301  0.6326 -0.7705
  155SAPE  H18S17205   1.434   3.509   5.822  1.7685  0.1616 -0.0122
  155SAPE  C21917206   1.359   3.501   5.634  0.2100  0.1138  1.4789
  155SAPE  H19R17207   1.454   3.536   5.587  0.7018 -0.8754  1.7197
  155SAPE  H19S17208   1.301   3.593   5.658 -1.9815  0.8973 -4.8726
  155SAPE  C22017209   1.287   3.432   5.514 -0.5533  0.2131 -0.3790
  155SAPE  H20R17210   1.186   3.398   5.547 -0.0778 -0.4776  0.3917
  155SAPE  H20S17211   1.335   3.342   5.470 -1.3907  0.1857 -1.2866
  155SAPE  H20T17212   1.271   3.509   5.436 -0.3946  1.2559  0.5972
  155SAPE   C3317213   1.179   2.710   6.685 -0.0052 -0.1952 -0.0461
  155SAPE   H3X17214   1.198   2.819   6.673 -0.8299  0.0370  0.6977
  155SAPE   H3Y17215   1.114   2.698   6.774  0.0601  1.6931  0.2852
  155SAPE   C3417216   1.095   2.652   6.569 -0.9873 -0.6731 -0.1073
  155SAPE   H4X17217   0.993   2.694   6.572 -0.8243 -0.3193  0.6816
  155SAPE   H4Y17218   1.085   2.542   6.586  1.5820 -1.1018 -0.8485
  155SAPE   C3517219   1.157   2.667   6.436  0.0513  0.0578  0.5654
  155SAPE   H5X17220   1.259   2.622   6.430  0.3182  0.6500  0.5537
  155SAPE   H5Y17221   1.162   2.776   6.414 -0.9914  0.1612  0.7928
  155SAPE   C3617222   1.072   2.592   6.330  0.0620  0.4690  0.0936
  155SAPE   H6X17223   0.964   2.616   6.342  0.5235  2.7809  0.0407
  155SAPE   H6Y17224   1.084   2.485   6.356  2.7920  0.7487  0.2563
  155SAPE   C3717225   1.116   2.606   6.183  0.3165 -0.4625  0.0210
  155SAPE   H7X17226   1.222   2.570   6.184  0.0794 -1.2363  1.4965
  155SAPE   H7Y17227   1.117   2.716   6.174 -1.1352 -0.3025  1.4073
  155SAPE   C3817228   1.032   2.532   6.079  0.5522  0.4158 -0.3954
  155SAPE   H8X17229   0.927   2.568   6.083  0.4752  0.1146  2.0628
  155SAPE   H8Y17230   1.025   2.428   6.117 -0.1990 -0.1438 -1.9944
  155SAPE   C3917231   1.088   2.537   5.939  0.7748 -0.5726 -1.1494
  155SAPE   H9X17232   1.168   2.461   5.924 -0.1122 -1.4524 -1.4522
  155SAPE   H9Y17233   1.126   2.642   5.935 -2.2430  0.6364 -0.3141
  155SAPE  C31017234   0.971   2.515   5.845 -0.3823  0.3349 -0.1346
  155SAPE  H10X17235   0.874   2.565   5.867 -0.5429  0.8261 -1.8046
  155SAPE  H10Y17236   0.958   2.406   5.854 -0.0672  0.3461  0.5799
  155SAPE  C31117237   1.003   2.551   5.700  0.3829  0.7440  0.5070
  155SAPE  H11X17238   1.017   2.661   5.694  1.5659  0.5294 -1.5177
  155SAPE  H11Y17239   0.905   2.532   5.652 -0.5157  0.4838  2.3603
  155SAPE  C31217240   1.123   2.480   5.637  0.2969  0.6148  0.4533
  155SAPE  H12X17241   1.117   2.375   5.673  1.3229  0.2184 -0.4621
  155SAPE  H12Y17242   1.223   2.523   5.657  0.9729 -0.6675 -0.0509
  155SAPE  C31317243   1.110   2.480   5.480  0.1946 -0.1369 -0.9208
  155SAPE  H13X17244   1.120   2.587   5.451 -1.1215  0.3897  0.4477
  155SAPE  H13Y17245   1.007   2.457   5.445 -1.1750  2.6443  0.9015
  155SAPE  C31417246   1.218   2.391   5.412  0.7804 -0.1881  0.2094
  155SAPE  H14X17247   1.179   2.286   5.414  0.4497 -0.0596  0.7186
  155SAPE  H14Y17248   1.311   2.383   5.472 -0.0071 -1.7441  1.3031
  155SAPE  C31517249   1.242   2.434   5.268 -0.7894 -0.6407  0.2991
  155SAPE  H15X17250   1.153   2.406   5.208 -0.6966  0.1785 -0.2417
  155SAPE  H15Y17251   1.329   2.377   5.229 -0.5003  0.1184 -0.1870
  155SAPE  C31617252   1.299   2.579   5.256  0.0415 -0.3394 -0.1646
  155SAPE  H16X17253   1.377   2.590   5.335  0.1339 -2.9142  0.1975
  155SAPE  H16Y17254   1.220   2.657   5.264  0.2181 -0.0361 -1.2319
  155SAPE  C31717255   1.356   2.593   5.118  0.0807 -0.7738  0.2983
  155SAPE  H17X17256   1.445   2.529   5.105  0.4682  0.0264 -1.1907
  155SAPE  H17Y17257   1.392   2.698   5.114  0.3663 -0.8975 -0.4306
  155SAPE  C31817258   1.262   2.566   4.996  0.0433 -0.0759  0.2930
  155SAPE  H18X17259   1.281   2.627   4.905 -1.0456 -2.6548 -1.7779
  155SAPE  H18Y17260   1.161   2.589   5.036 -0.8265 -1.6079 -0.9162
  155SAPE  H18Z17261   1.258   2.456   4.984 -2.4577 -0.3277  2.4807
  156SAPE     N17262   2.812   3.281   7.819  0.7770 -0.1275  0.5119
  156SAPE   HN117263   2.912   3.258   7.802  1.4107  2.4274  0.3706
  156SAPE   HN217264   2.803   3.355   7.892  0.7775  2.0082 -1.5354
  156SAPE   HN317265   2.772   3.192   7.856 -0.5321  0.4661  0.5965
  156SAPE   C1217266   2.735   3.322   7.697 -0.2995  0.5036  0.3703
  156SAPE  H12A17267   2.759   3.430   7.683 -1.4588  0.6351 -0.7351
  156SAPE  H12B17268   2.629   3.309   7.724 -0.6206 -0.8053 -1.3556
  156SAPE   C1117269   2.774   3.226   7.572 -0.1659  0.9655 -0.4319
  156SAPE  H11A17270   2.751   3.119   7.589 -0.1182  0.9196 -0.6511
  156SAPE  H11B17271   2.885   3.218   7.570 -0.1894 -0.4700  1.0360
  156SAPE     P17272   2.564   3.288   7.430  0.0214 -0.3028  0.2170
  156SAPE   O1317273   2.502   3.178   7.497 -0.3212  0.5584  0.1424
  156SAPE   O1417274   2.528   3.418   7.482 -0.9084 -1.2492  0.1429
  156SAPE   O1217275   2.719   3.266   7.445 -0.6344 -0.1021 -0.0654
  156SAPE   O1117276   2.530   3.284   7.281  0.5740  0.0649 -0.3800
  156SAPE    C117277   2.592   3.364   7.184  0.3683  0.4204 -0.1572
  156SAPE    HA17278   2.602   3.468   7.219  2.5657 -0.1092  1.0284
  156SAPE    HB17279   2.692   3.321   7.160  0.2019 -0.4202  0.6157
  156SAPE    C217280   2.507   3.376   7.055 -0.4009  0.3724 -0.5391
  156SAPE    HS17281   2.415   3.430   7.087  0.9110  1.9402  0.7473
  156SAPE   O2117282   2.479   3.243   6.994 -0.2589 -0.8103  0.1307
  156SAPE   C2117283   2.375   3.257   6.912 -0.4814 -0.2500 -0.0686
  156SAPE   O2217284   2.295   3.352   6.914 -0.8484  0.0348  0.8584
  156SAPE   C2217285   2.358   3.138   6.830 -0.2795  0.2836  0.5760
  156SAPE   H2R17286   2.458   3.106   6.794 -0.8250 -0.2520 -0.5279
  156SAPE   H2S17287   2.328   3.050   6.892 -0.2730  1.4608  2.3372
  156SAPE    C317288   2.578   3.466   6.961 -0.6294  0.0794  0.9659
  156SAPE    HX17289   2.616   3.551   7.022  1.8187  0.3318 -0.7869
  156SAPE    HY17290   2.509   3.519   6.892 -1.4807 -1.4160  0.6305
  156SAPE   O3117291   2.691   3.407   6.895 -0.5868 -0.3292 -0.1871
  156SAPE   C3117292   2.676   3.346   6.778  0.5720 -0.1525  0.2064
  156SAPE   O3217293   2.578   3.360   6.709 -0.1548  0.0020 -0.0266
  156SAPE   C3217294   2.792   3.259   6.751  0.1104  0.2843  0.2034
  156SAPE   H2X17295   2.841   3.247   6.850  0.6154 -0.4126 -0.1167
  156SAPE   H2Y17296   2.869   3.312   6.691  0.7792  1.7059  2.2019
  156SAPE   C2317297   2.261   3.143   6.705  0.7136  0.7022  0.4102
  156SAPE   H3R17298   2.291   3.211   6.622 -2.2127  1.1120 -0.4454
  156SAPE   H3S17299   2.166   3.183   6.749 -0.2815 -1.0753 -0.0290
  156SAPE   C2417300   2.226   3.001   6.650 -0.5967 -0.2483 -0.5607
  156SAPE   H4R17301   2.316   2.938   6.666 -0.0629  0.9999  1.6811
  156SAPE   H4S17302   2.215   3.014   6.540 -0.3960 -1.8827 -0.8086
  156SAPE   C2517303   2.106   2.932   6.716  0.0713  0.0452 -0.0013
  156SAPE   H5R17304   2.098   2.941   6.825 -1.3801 -0.3492 -0.0510
  156SAPE   C2617305   2.023   2.843   6.664 -0.5705 -0.3001  0.4274
  156SAPE   H6R17306   1.948   2.797   6.730 -0.2557  0.2085  1.1555
  156SAPE   C2717307   2.006   2.806   6.517  0.1917 -0.0214 -0.9601
  156SAPE   H7R17308   1.983   2.698   6.525  1.9394 -0.2828  2.0734
  156SAPE   H7S17309   2.102   2.814   6.461  0.7537 -0.0932 -0.0305
  156SAPE   C2817310   1.891   2.881   6.450 -0.1740 -0.5823  0.2561
  156SAPE   H8R17311   1.830   2.946   6.514 -0.5078 -0.3363 -0.3027
  156SAPE   C2917312   1.853   2.860   6.321  0.0629  0.3738  0.8886
  156SAPE   H9R17313   1.770   2.926   6.291 -1.2710 -1.8826 -0.7837
  156SAPE  C21017314   1.911   2.780   6.209  0.0910 -0.3025  0.1357
  156SAPE  H10R17315   1.885   2.672   6.215  1.9777 -0.8157 -0.2685
  156SAPE  H10S17316   2.021   2.787   6.222 -0.1670  0.8333  1.9783
  156SAPE  C21117317   1.883   2.840   6.071 -0.3856  0.3217 -0.5848
  156SAPE  H11R17318   1.947   2.922   6.035  0.8709 -0.4031 -0.0838
  156SAPE  C21217319   1.778   2.801   5.996  0.2086  0.0303 -0.1981
  156SAPE  H12R17320   1.758   2.850   5.899  0.6236  0.2891 -0.1560
  156SAPE  C21317321   1.677   2.698   6.035  0.1760  0.5761  0.4167
  156SAPE  H13R17322   1.707   2.623   6.112 -0.0304  0.3428  0.2733
  156SAPE  H13S17323   1.650   2.646   5.941 -0.0554  0.8198  0.3497
  156SAPE  C21417324   1.547   2.756   6.086  0.3710  0.5631  0.0979
  156SAPE  H14R17325   1.558   2.780   6.193  0.6680 -2.7431  0.9110
  156SAPE  C21517326   1.429   2.789   6.019  0.0017  0.0886 -0.4483
  156SAPE  H15R17327   1.348   2.843   6.071  1.3608  2.8852 -1.0952
  156SAPE  C21617328   1.393   2.777   5.872 -0.2236  0.0323  0.9278
  156SAPE  H16R17329   1.313   2.702   5.856 -0.4340  0.2314  1.0326
  156SAPE  H16S17330   1.481   2.747   5.812 -0.9868  0.7656 -0.6141
  156SAPE  C21717331   1.352   2.909   5.810  0.4081  0.1901  0.2425
  156SAPE  H17R17332   1.446   2.967   5.797  1.9609 -1.6419  2.4923
  156SAPE  H17S17333   1.283   2.949   5.887 -0.0454  1.7754 -0.9376
  156SAPE  C21817334   1.299   2.905   5.667  0.6051  0.2408  0.4348
  156SAPE  H18R17335   1.200   2.856   5.668  1.5756 -1.8274  1.4800
  156SAPE  H18S17336   1.352   2.844   5.591 -0.3448  2.5346 -2.2618
  156SAPE  C21917337   1.301   3.047   5.606 -0.2882  0.0752  0.3464
  156SAPE  H19R17338   1.406   3.061   5.574  0.0726 -0.1862  1.3887
  156SAPE  H19S17339   1.262   3.122   5.679 -2.1264 -0.7426  0.2741
  156SAPE  C22017340   1.223   3.061   5.474  0.6338  0.6644  0.4105
  156SAPE  H20R17341   1.119   3.036   5.503  0.3437  0.8971 -0.4116
  156SAPE  H20S17342   1.253   2.991   5.394  1.0435 -0.8202  1.8223
  156SAPE  H20T17343   1.237   3.167   5.443  0.2095  0.0980 -1.9205
  156SAPE   C3317344   2.761   3.120   6.688  0.2025  0.0177  0.1044
  156SAPE   H3X17345   2.664   3.077   6.722  1.5878 -4.0370 -0.5679
  156SAPE   H3Y17346   2.836   3.043   6.716 -0.1483  0.2767  1.8635
  156SAPE   C3417347   2.737   3.136   6.537 -0.6665 -0.8751  0.9478
  156SAPE   H4X17348   2.841   3.148   6.500 -0.3598 -1.9181  1.4377
  156SAPE   H4Y17349   2.708   3.242   6.519  0.1027 -0.7311  0.4872
  156SAPE   C3517350   2.675   3.020   6.455 -0.1824 -0.9931 -0.1954
  156SAPE   H5X17351   2.574   3.004   6.499 -0.8644 -0.4936 -1.5211
  156SAPE   H5Y17352   2.748   2.939   6.476  0.5398 -0.2201  0.3166
  156SAPE   C3617353   2.657   3.050   6.304 -0.5922 -0.4751 -0.5821
  156SAPE   H6X17354   2.642   2.960   6.241  1.7598 -2.2679  1.2099
  156SAPE   H6Y17355   2.754   3.087   6.265  0.8854 -1.9689  1.4075
  156SAPE   C3717356   2.547   3.155   6.271  0.3662  0.4512 -0.7776
  156SAPE   H7X17357   2.557   3.188   6.165 -0.1734  3.9156  0.1106
  156SAPE   H7Y17358   2.575   3.249   6.324 -0.4447  0.4160 -0.2660
  156SAPE   C3817359   2.411   3.099   6.310  1.7874 -0.4907 -0.0076
  156SAPE   H8X17360   2.400   3.120   6.419  0.8187 -0.4519 -0.1006
  156SAPE   H8Y17361   2.395   2.989   6.313 -1.6862 -0.0764  1.1328
  156SAPE   C3917362   2.286   3.175   6.247  0.2984 -0.4158  0.6122
  156SAPE   H9X17363   2.278   3.277   6.290 -2.7049 -0.0497 -0.6184
  156SAPE   H9Y17364   2.195   3.125   6.284 -0.5481  1.1467  0.6954
  156SAPE  C31017365   2.279   3.178   6.094  0.0283  0.1167 -0.1854
  156SAPE  H10X17366   2.373   3.225   6.058 -0.5857  2.2895  0.8469
  156SAPE  H10Y17367   2.196   3.247   6.068  0.8155  1.5415  0.9317
  156SAPE  C31117368   2.241   3.034   6.049 -0.4924 -0.8520 -0.0789
  156SAPE  H11X17369   2.166   2.999   6.123 -0.2599  1.6966  1.4978
  156SAPE  H11Y17370   2.330   2.968   6.058  0.0885 -0.2788 -1.3639
  156SAPE  C31217371   2.170   3.029   5.912  0.3244  0.2867  0.0053
  156SAPE  H12X17372   2.080   3.090   5.937  1.1733  1.4574  0.3228
  156SAPE  H12Y17373   2.133   2.925   5.908 -1.0058  0.6876  1.0681
  156SAPE  C31317374   2.257   3.077   5.801 -0.6016 -0.2882 -0.0098
  156SAPE  H13X17375   2.352   3.020   5.804 -0.3805 -0.1229 -2.4501
  156SAPE  H13Y17376   2.277   3.186   5.800  0.2079 -0.4154 -2.1427
  156SAPE  C31417377   2.209   3.035   5.661 -0.0001 -0.1661  0.2193
  156SAPE  H14X17378   2.121   3.096   5.631 -0.9796 -1.9170 -0.6823
  156SAPE  H14Y17379   2.164   2.933   5.670 -0.2303 -0.0381  0.5113
  156SAPE  C31517380   2.313   3.057   5.558 -0.9151 -0.5790 -0.2803
  156SAPE  H15X17381   2.380   2.968   5.558 -0.9074 -0.6205  1.8947
  156SAPE  H15Y17382   2.387   3.137   5.581  1.4243 -2.6462 -0.1533
  156SAPE  C31617383   2.253   3.092   5.423 -0.4897  0.0039  0.2664
  156SAPE  H16X17384   2.343   3.106   5.359 -0.0552 -0.9726  0.6437
  156SAPE  H16Y17385   2.198   3.189   5.425  0.6774  0.6690  0.9576
  156SAPE  C31717386   2.169   2.979   5.372 -0.4370  0.0586 -0.0718
  156SAPE  H17X17387   2.090   2.963   5.449 -1.0900 -3.4623 -1.2923
  156SAPE  H17Y17388   2.247   2.900   5.367  0.9713  1.2943  1.2188
  156SAPE  C31817389   2.113   2.995   5.230  0.3547 -0.1771 -0.1310
  156SAPE  H18X17390   2.194   3.030   5.162  1.2558  0.4605  1.2120
  156SAPE  H18Y17391   2.028   3.067   5.224 -0.4637 -1.1093  0.0248
  156SAPE  H18Z17392   2.080   2.897   5.190  0.3040  0.0866 -0.7502
  157SAPE     N17393   2.253   5.421   7.434  0.4000  0.2190  0.4901
  157SAPE   HN117394   2.192   5.444   7.353  0.3953  0.4218  0.5491
  157SAPE   HN217395   2.218   5.326   7.458  0.4400  0.1488  0.2670
  157SAPE   HN317396   2.230   5.481   7.516  1.3937  0.8171  0.3416
  157SAPE   C1217397   2.391   5.418   7.390 -0.1538 -0.2335  0.0577
  157SAPE  H12A17398   2.451   5.466   7.471 -1.5931  0.6248  0.6440
  157SAPE  H12B17399   2.383   5.486   7.303 -0.1643 -0.4428 -0.1060
  157SAPE   C1117400   2.439   5.277   7.360 -0.4193  0.1016  0.2229
  157SAPE  H11A17401   2.422   5.214   7.450  1.3480 -0.7649 -0.0123
  157SAPE  H11B17402   2.549   5.285   7.349 -0.3867 -1.6541 -1.1165
  157SAPE     P17403   2.354   5.070   7.219  0.2317  0.0125 -0.2779
  157SAPE   O1317404   2.482   5.012   7.173 -0.0144  0.3261 -0.2939
  157SAPE   O1417405   2.280   5.011   7.328 -0.4132  0.4095 -0.1618
  157SAPE   O1217406   2.371   5.226   7.245 -0.0036 -1.0674 -0.2289
  157SAPE   O1117407   2.255   5.062   7.092 -0.8927 -0.1858  0.0030
  157SAPE    C117408   2.255   5.171   6.996  0.4590  0.1142 -0.0876
  157SAPE    HA17409   2.236   5.268   7.048 -0.4381 -1.4346  2.6493
  157SAPE    HB17410   2.357   5.180   6.953 -0.0975 -1.5712 -1.8698
  157SAPE    C217411   2.149   5.164   6.882  0.5160  0.3264 -0.5723
  157SAPE    HS17412   2.053   5.148   6.937  0.3520  0.3234 -0.8563
  157SAPE   O2117413   2.182   5.063   6.790 -0.2726 -0.1430  0.3237
  157SAPE   C2117414   2.096   4.960   6.796  0.1142 -0.0598  0.2444
  157SAPE   O2217415   1.994   4.951   6.858 -0.0207 -0.7331 -0.9598
  157SAPE   C2217416   2.130   4.849   6.702  0.1563  0.5649 -0.0772
  157SAPE   H2R17417   2.223   4.876   6.648 -0.6504  2.3071 -0.6891
  157SAPE   H2S17418   2.159   4.765   6.769 -2.0079 -0.3433 -0.1969
  157SAPE    C317419   2.131   5.304   6.806  0.1995  0.0745 -0.0370
  157SAPE    HX17420   2.229   5.356   6.802  0.0971  0.2027 -1.6451
  157SAPE    HY17421   2.059   5.364   6.865 -2.3886 -0.0254 -2.8081
  157SAPE   O3117422   2.078   5.270   6.674 -0.1614  0.8427  0.1922
  157SAPE   C3117423   2.133   5.342   6.574  0.8974 -0.6985 -0.1722
  157SAPE   O3217424   2.214   5.432   6.587  0.3531  0.2705 -0.3534
  157SAPE   C3217425   2.054   5.324   6.450 -0.1787  0.0451 -0.9167
  157SAPE   H2X17426   1.945   5.316   6.470 -0.2864 -1.0952 -1.8316
  157SAPE   H2Y17427   2.084   5.225   6.410  0.9896  0.5003 -1.1916
  157SAPE   C2317428   2.019   4.794   6.605  0.3774 -0.1466  0.1310
  157SAPE   H3R17429   1.933   4.739   6.651 -0.1655 -1.1334 -1.9185
  157SAPE   H3S17430   2.063   4.719   6.536  0.2807  0.7780 -0.9711
  157SAPE   C2417431   1.961   4.907   6.517  0.0243 -0.0697  0.0361
  157SAPE   H4R17432   1.940   4.988   6.590  1.4183  0.9807 -0.6828
  157SAPE   H4S17433   1.865   4.867   6.479 -0.7655  1.7201  0.0527
  157SAPE   C2517434   2.061   4.965   6.419 -0.6314  0.2073  0.5417
  157SAPE   H5R17435   2.150   5.008   6.468 -1.1009  1.5141  0.2979
  157SAPE   C2617436   2.046   4.982   6.282 -0.0187 -0.0703 -0.0869
  157SAPE   H6R17437   2.133   5.015   6.223  0.6875 -1.3579  0.2034
  157SAPE   C2717438   1.933   4.940   6.196  0.3479  0.7416 -0.1099
  157SAPE   H7R17439   1.887   5.030   6.150 -0.2014 -0.1433 -1.3735
  157SAPE   H7S17440   1.860   4.904   6.272  0.1521  2.5404  0.5979
  157SAPE   C2817441   1.953   4.839   6.081 -0.1339  0.6428 -0.3320
  157SAPE   H8R17442   1.922   4.735   6.103  0.8763  0.3534 -0.2095
  157SAPE   C2917443   2.016   4.859   5.962  0.1795 -0.5344  0.4712
  157SAPE   H9R17444   2.033   4.779   5.889  3.3323 -1.1058  1.6486
  157SAPE  C21017445   2.071   4.996   5.926 -0.3581 -0.4383  0.4154
  157SAPE  H10R17446   2.177   4.994   5.893  0.8311  0.8181  3.6988
  157SAPE  H10S17447   2.078   5.067   6.011  3.5620  0.7191 -0.6848
  157SAPE  C21117448   1.972   5.047   5.819  0.2562  0.5033 -0.1111
  157SAPE  H11R17449   1.873   5.062   5.863  1.0888  1.6075  1.5153
  157SAPE  C21217450   2.000   5.110   5.702  0.1473  0.2416 -0.2648
  157SAPE  H12R17451   1.922   5.154   5.638 -1.7913 -1.7651  0.5715
  157SAPE  C21317452   2.138   5.138   5.647  0.0168  0.1761  0.5598
  157SAPE  H13R17453   2.145   5.072   5.558  0.8158  3.6366 -2.1787
  157SAPE  H13S17454   2.225   5.106   5.708  0.9263  0.1066 -0.7286
  157SAPE  C21417455   2.175   5.272   5.595  0.4761  0.2188  0.6089
  157SAPE  H14R17456   2.133   5.356   5.653 -2.3262 -0.8352  0.2584
  157SAPE  C21517457   2.251   5.297   5.487 -0.1058  0.1273 -0.0621
  157SAPE  H15R17458   2.270   5.403   5.461 -1.0988 -0.0036 -1.4498
  157SAPE  C21617459   2.301   5.193   5.395  0.0258  0.7393  0.4684
  157SAPE  H16R17460   2.296   5.085   5.420 -0.1178  0.8751  1.0278
  157SAPE  H16S17461   2.405   5.209   5.360 -0.8238  1.0698 -2.1249
  157SAPE  C21717462   2.221   5.221   5.269 -0.5859 -0.1164  0.6655
  157SAPE  H17R17463   2.216   5.331   5.256  1.4692 -0.0382  0.2928
  157SAPE  H17S17464   2.114   5.195   5.282 -1.5542  3.1479  0.2329
  157SAPE  C21817465   2.269   5.159   5.136  0.6455  0.3758  0.0478
  157SAPE  H18R17466   2.294   5.052   5.145 -1.7915 -0.3992 -1.3271
  157SAPE  H18S17467   2.359   5.218   5.108  1.1028 -0.2909  0.0941
  157SAPE  C21917468   2.169   5.165   5.017  0.3088  0.1231  0.5397
  157SAPE  H19R17469   2.154   5.265   4.970 -1.6127 -0.2085  0.3489
  157SAPE  H19S17470   2.067   5.128   5.041  0.0680  0.0113 -0.5679
  157SAPE  C22017471   2.211   5.062   4.909  0.1698 -0.1121 -0.0224
  157SAPE  H20R17472   2.299   5.101   4.854  0.8444  1.0804  1.7965
  157SAPE  H20S17473   2.128   5.050   4.836  0.5756 -1.0202 -0.3455
  157SAPE  H20T17474   2.227   4.965   4.961 -2.3799 -0.6759 -0.1581
  157SAPE   C3317475   2.082   5.427   6.341 -0.2560 -0.2289 -0.5669
  157SAPE   H3X17476   2.188   5.451   6.317 -0.5115 -0.8488 -2.4702
  157SAPE   H3Y17477   2.032   5.521   6.370  2.7825  1.9009 -1.6971
  157SAPE   C3417478   2.025   5.372   6.215 -0.2322  0.2923  0.5454
  157SAPE   H4X17479   1.918   5.345   6.226 -0.6535  1.0848 -1.2560
  157SAPE   H4Y17480   2.077   5.277   6.189 -0.5308 -0.3768  2.2582
  157SAPE   C3517481   2.041   5.472   6.094 -0.0663  0.0411 -0.6211
  157SAPE   H5X17482   2.148   5.496   6.078  1.0996 -2.3935  2.5117
  157SAPE   H5Y17483   1.996   5.569   6.124  2.5276  1.5124 -1.1890
  157SAPE   C3617484   1.986   5.428   5.964  0.0250 -0.2370 -0.5153
  157SAPE   H6X17485   1.881   5.399   5.986 -0.2564  1.8607  1.1229
  157SAPE   H6Y17486   2.040   5.341   5.921  0.8565 -0.0847  0.1996
  157SAPE   C3717487   1.971   5.546   5.865  0.0183 -0.0398 -0.0541
  157SAPE   H7X17488   2.073   5.591   5.859  0.9732 -1.8957  1.2248
  157SAPE   H7Y17489   1.901   5.618   5.911 -1.2884 -0.7260 -0.9144
  157SAPE   C3817490   1.909   5.518   5.718 -0.4254 -0.4679 -0.2067
  157SAPE   H8X17491   1.804   5.481   5.716  0.4054 -3.0723 -2.0317
  157SAPE   H8Y17492   1.968   5.441   5.663 -0.7676 -0.6407 -0.3356
  157SAPE   C3917493   1.917   5.650   5.630  0.6202  0.2248  0.4159
  157SAPE   H9X17494   2.024   5.681   5.629  1.4669 -2.4113  0.6500
  157SAPE   H9Y17495   1.864   5.725   5.692  2.5176 -0.2869  2.8286
  157SAPE  C31017496   1.861   5.635   5.491 -0.2398  0.0771 -0.3610
  157SAPE  H10X17497   1.833   5.735   5.452  0.6097  0.9429  1.1627
  157SAPE  H10Y17498   1.763   5.583   5.494 -0.3882  0.4168  1.2543
  157SAPE  C31117499   1.960   5.565   5.401 -0.0160  0.3618  0.3225
  157SAPE  H11X17500   1.974   5.460   5.433 -0.0808  0.3408  0.2825
  157SAPE  H11Y17501   2.062   5.609   5.398  0.5462 -0.9292 -1.6233
  157SAPE  C31217502   1.922   5.551   5.247  0.0879  0.0741 -0.5800
  157SAPE  H12X17503   1.855   5.464   5.229  0.5645  0.1223 -2.9017
  157SAPE  H12Y17504   2.018   5.525   5.198 -0.9085 -1.7652 -1.6619
  157SAPE  C31317505   1.862   5.688   5.190 -0.2607  0.0126 -0.1314
  157SAPE  H13X17506   1.940   5.763   5.215  1.3137 -1.2808 -0.9518
  157SAPE  H13Y17507   1.771   5.731   5.238  0.7816  3.3273 -0.9078
  157SAPE  C31417508   1.836   5.681   5.038  0.9304 -0.3878  0.5978
  157SAPE  H14X17509   1.741   5.625   5.032  0.5425  0.0659  2.1645
  157SAPE  H14Y17510   1.918   5.631   4.981 -0.5644  0.7411 -2.8149
  157SAPE  C31517511   1.822   5.811   4.957  0.1556  0.6509  0.0014
  157SAPE  H15X17512   1.775   5.784   4.860 -2.9457  0.8411  1.3270
  157SAPE  H15Y17513   1.924   5.851   4.941  0.4825  0.0067  0.4085
  157SAPE  C31617514   1.756   5.929   5.031  0.4976 -0.5699  0.3886
  157SAPE  H16X17515   1.821   5.945   5.119 -1.3673  1.6374  1.5005
  157SAPE  H16Y17516   1.655   5.904   5.071  0.7948 -2.1151  0.2400
  157SAPE  C31717517   1.745   6.043   4.941  0.4520 -0.2674 -0.3682
  157SAPE  H17X17518   1.680   6.024   4.853  0.1099 -1.8334  0.1793
  157SAPE  H17Y17519   1.849   6.059   4.904  1.0315  1.7241  1.8653
  157SAPE  C31817520   1.700   6.174   5.012 -0.2348  0.2964  0.8188
  157SAPE  H18X17521   1.703   6.257   4.938 -0.6540  1.0579  1.6337
  157SAPE  H18Y17522   1.761   6.206   5.099  4.4130  0.5417 -2.1773
  157SAPE  H18Z17523   1.592   6.167   5.034 -0.8487  0.2227 -1.8120
  158SAPE     N17524   4.227   5.617   6.802 -0.3113 -0.0824 -0.2552
  158SAPE   HN117525   4.125   5.637   6.804 -0.7944 -2.4119  0.4887
  158SAPE   HN217526   4.283   5.695   6.762  0.6005 -0.7071 -0.2250
  158SAPE   HN317527   4.236   5.536   6.738  2.2183  1.5072 -2.1384
  158SAPE   C1217528   4.280   5.590   6.932  0.3136  0.1348 -0.5138
  158SAPE  H12A17529   4.390   5.580   6.927  0.0962 -3.3955 -1.1101
  158SAPE  H12B17530   4.228   5.499   6.968 -2.4329  1.3742 -1.0581
  158SAPE   C1117531   4.244   5.705   7.030 -0.2127 -0.9201  0.2453
  158SAPE  H11A17532   4.278   5.684   7.133  1.0666 -0.4810 -0.0728
  158SAPE  H11B17533   4.133   5.702   7.033 -0.2316 -2.2662 -0.7243
  158SAPE     P17534   4.248   5.956   7.076  0.0514  0.1373  0.2678
  158SAPE   O1317535   4.264   5.924   7.220 -0.2007 -0.0230  0.1801
  158SAPE   O1417536   4.321   6.076   7.022  0.4621  0.3408 -0.0696
  158SAPE   O1217537   4.282   5.835   6.986  0.3638  0.0832  0.6327
  158SAPE   O1117538   4.091   5.973   7.053 -0.0981  0.1670  0.1705
  158SAPE    C117539   4.033   6.057   6.957 -0.1534 -0.0468  0.8756
  158SAPE    HA17540   3.925   6.064   6.982 -0.0724 -0.5220  1.3789
  158SAPE    HB17541   4.083   6.156   6.960 -2.2222  1.1453 -0.9987
  158SAPE    C217542   4.043   6.002   6.815  0.1616 -0.3338  0.6472
  158SAPE    HS17543   4.044   5.891   6.818  1.7395 -0.3519  0.0892
  158SAPE   O2117544   4.164   6.058   6.758  0.2299  0.5159 -0.4333
  158SAPE   C2117545   4.237   5.983   6.687  0.1018 -0.7595  1.1121
  158SAPE   O2217546   4.223   5.866   6.661  0.7627  0.1163  0.3027
  158SAPE   C2217547   4.349   6.071   6.624  0.3496 -0.3354  0.4652
  158SAPE   H2R17548   4.361   6.147   6.705 -1.5560 -0.4879  0.9476
  158SAPE   H2S17549   4.441   6.011   6.611  0.7206  0.3733 -0.2553
  158SAPE    C317550   3.930   6.060   6.723  0.3498 -0.1882  0.1484
  158SAPE    HX17551   3.939   6.171   6.721 -0.2845 -0.1392 -0.3411
  158SAPE    HY17552   3.838   6.036   6.780  0.5036  0.8917  0.8797
  158SAPE   O3117553   3.914   6.012   6.588 -0.1978 -0.7382  0.3129
  158SAPE   C3117554   3.832   5.911   6.561 -0.2858  0.8368 -0.3446
  158SAPE   O3217555   3.779   5.841   6.644  0.2790  0.5476  0.3891
  158SAPE   C3217556   3.812   5.889   6.412 -0.1962 -0.0887  0.4168
  158SAPE   H2X17557   3.702   5.896   6.392 -0.3135 -0.1795  0.9999
  158SAPE   H2Y17558   3.855   5.791   6.385  4.5753  1.7189  0.5293
  158SAPE   C2317559   4.304   6.147   6.506 -0.6822 -0.5793  0.3692
  158SAPE   H3R17560   4.384   6.219   6.477 -2.2582  0.9278 -0.3915
  158SAPE   H3S17561   4.217   6.212   6.526 -1.0909 -1.3666  1.1673
  158SAPE   C2417562   4.284   6.054   6.385 -0.4047 -0.1885  0.1462
  158SAPE   H4R17563   4.244   6.125   6.310  1.5022  2.8688  1.8181
  158SAPE   H4S17564   4.203   5.978   6.395 -0.6745  0.0628 -0.0909
  158SAPE   C2517565   4.417   5.995   6.332 -0.6435  0.1560 -0.1004
  158SAPE   H5R17566   4.486   5.962   6.411 -1.8652 -0.0328  0.9186
  158SAPE   C2617567   4.455   5.973   6.203 -0.0540 -0.1944 -0.2699
  158SAPE   H6R17568   4.552   5.923   6.186  0.3025  0.3143  0.2581
  158SAPE   C2717569   4.374   6.013   6.085 -0.9642 -0.0418  0.9595
  158SAPE   H7R17570   4.402   6.119   6.067  2.8468 -1.2765 -1.7991
  158SAPE   H7S17571   4.266   6.000   6.108 -0.9538 -2.1515  0.0423
  158SAPE   C2817572   4.397   5.922   5.963  0.4888 -0.0220 -0.5602
  158SAPE   H8R17573   4.349   5.826   5.985  0.5937 -0.4582 -2.1168
  158SAPE   C2917574   4.481   5.933   5.852  0.6712 -0.7628 -0.1829
  158SAPE   H9R17575   4.477   5.849   5.780 -1.5854  0.0487 -1.0894
  158SAPE  C21017576   4.566   6.053   5.819 -0.2909 -0.0650 -0.1166
  158SAPE  H10R17577   4.667   6.011   5.799 -0.3031 -0.7810  1.2572
  158SAPE  H10S17578   4.577   6.097   5.920  0.1027 -0.9592  0.2405
  158SAPE  C21117579   4.525   6.147   5.701  0.0207 -0.4112 -0.4013
  158SAPE  H11R17580   4.486   6.245   5.732 -0.0818  0.4707 -3.0602
  158SAPE  C21217581   4.531   6.125   5.566 -0.2599  0.1084 -0.1006
  158SAPE  H12R17582   4.502   6.206   5.497  2.6775  0.9611 -0.4897
  158SAPE  C21317583   4.589   6.002   5.500 -0.0877  0.4483  0.1328
  158SAPE  H13R17584   4.630   5.922   5.565  0.2426  1.0834  0.7225
  158SAPE  H13S17585   4.683   6.036   5.451 -1.3508  1.0603 -2.0079
  158SAPE  C21417586   4.505   5.945   5.382  0.3918  1.1099  0.1078
  158SAPE  H14R17587   4.440   5.859   5.405 -1.1526  2.5444  1.4339
  158SAPE  C21517588   4.489   5.992   5.256 -0.0354  0.0967  0.2845
  158SAPE  H15R17589   4.420   5.943   5.186 -0.2929 -1.9552  1.8785
  158SAPE  C21617590   4.563   6.108   5.194  1.0571 -0.3090 -0.2452
  158SAPE  H16R17591   4.663   6.071   5.162  1.1794 -1.3957  1.2525
  158SAPE  H16S17592   4.584   6.186   5.271  1.9799 -1.4218  0.6696
  158SAPE  C21717593   4.493   6.160   5.069  0.6939 -0.4851  0.4970
  158SAPE  H17R17594   4.408   6.227   5.094  1.2622 -0.3971  2.3411
  158SAPE  H17S17595   4.451   6.078   5.008 -0.3215  1.2084 -1.1849
  158SAPE  C21817596   4.579   6.234   4.960  0.2902 -0.0785 -0.2247
  158SAPE  H18R17597   4.527   6.252   4.864  2.4333  0.9184 -1.2767
  158SAPE  H18S17598   4.671   6.181   4.928  0.6959 -0.6636  1.7576
  158SAPE  C21917599   4.606   6.373   5.007  0.1727  0.5052 -0.3865
  158SAPE  H19R17600   4.684   6.428   4.950  0.7108  2.6245  2.2329
  158SAPE  H19S17601   4.621   6.371   5.117 -1.7749 -1.5865 -0.0855
  158SAPE  C22017602   4.489   6.469   4.994  0.0959 -0.4374 -0.1392
  158SAPE  H20R17603   4.406   6.443   5.063 -1.3744  1.2567 -1.1846
  158SAPE  H20S17604   4.448   6.469   4.891 -2.2004 -2.7663  0.6705
  158SAPE  H20T17605   4.517   6.565   5.044 -2.7151  0.8265 -0.8286
  158SAPE   C3317606   3.876   5.989   6.315 -0.4443 -0.2948 -0.3076
  158SAPE   H3X17607   3.986   5.977   6.317 -0.3159  0.8688  0.3044
  158SAPE   H3Y17608   3.856   6.096   6.336 -0.8300 -0.4225 -0.0112
  158SAPE   C3417609   3.831   5.980   6.168  0.1489  0.1260 -0.4826
  158SAPE   H4X17610   3.727   6.018   6.164  0.9982  2.5521 -1.6960
  158SAPE   H4Y17611   3.840   5.873   6.141  2.8989  0.0469  0.4608
  158SAPE   C3517612   3.933   6.049   6.075 -0.5212  0.0612 -0.1285
  158SAPE   H5X17613   4.024   5.989   6.094 -0.8285 -0.0803  0.9378
  158SAPE   H5Y17614   3.935   6.155   6.107 -1.3836 -0.2298  0.9182
  158SAPE   C3617615   3.890   6.050   5.924 -0.7507  0.4527 -0.0002
  158SAPE   H6X17616   3.789   6.095   5.913 -0.5236  1.1997  0.8396
  158SAPE   H6Y17617   3.880   5.945   5.887 -4.5738  0.9942 -0.8880
  158SAPE   C3717618   3.995   6.124   5.833 -0.2364  0.2676 -0.2336
  158SAPE   H7X17619   4.100   6.101   5.862  0.0136  1.7536  0.1414
  158SAPE   H7Y17620   3.990   6.232   5.859  0.2986  0.6961 -1.8204
  158SAPE   C3817621   3.976   6.120   5.680  0.1832 -0.5074  0.8858
  158SAPE   H8X17622   4.067   6.150   5.626 -0.0435  2.6688  2.0453
  158SAPE   H8Y17623   3.897   6.194   5.654  0.4463  0.0662  1.6630
  158SAPE   C3917624   3.929   5.986   5.626  0.3865 -0.2601 -0.1741
  158SAPE   H9X17625   3.825   5.976   5.665  0.9806  0.9665  1.9111
  158SAPE   H9Y17626   3.992   5.903   5.662  1.8527  0.7104 -0.4287
  158SAPE  C31017627   3.913   5.992   5.473  0.1342  0.1576 -0.5572
  158SAPE  H10X17628   3.902   6.101   5.456  0.2498  0.5999  1.8727
  158SAPE  H10Y17629   3.819   5.938   5.452  0.2522 -1.4916  2.5556
  158SAPE  C31117630   4.035   5.940   5.400  0.4667  0.3369 -0.1756
  158SAPE  H11X17631   4.080   5.848   5.444  0.0169 -0.1517 -0.7189
  158SAPE  H11Y17632   4.109   6.022   5.412  1.4972 -0.4757 -0.8786
  158SAPE  C31217633   4.005   5.908   5.256 -0.3633 -0.3823  0.6116
  158SAPE  H12X17634   3.955   5.992   5.204 -1.0745 -1.0582  0.1888
  158SAPE  H12Y17635   3.944   5.817   5.242  1.5789 -1.6986  0.2884
  158SAPE  C31317636   4.126   5.877   5.167 -0.3107 -0.5947 -0.3619
  158SAPE  H13X17637   4.170   5.786   5.212 -2.3573 -0.7955  1.3897
  158SAPE  H13Y17638   4.200   5.958   5.186 -2.2805  1.5220 -1.2260
  158SAPE  C31417639   4.090   5.877   5.017  0.1844 -0.6827 -0.3681
  158SAPE  H14X17640   4.029   5.968   5.001  0.5092 -0.3503  0.2479
  158SAPE  H14Y17641   4.030   5.789   4.984  0.1426  0.2924 -3.1091
  158SAPE  C31517642   4.214   5.888   4.930 -0.3878 -0.0717 -0.1023
  158SAPE  H15X17643   4.275   5.801   4.960  0.4963  0.9839  1.2994
  158SAPE  H15Y17644   4.259   5.985   4.962 -2.0162 -0.0183  2.2464
  158SAPE  C31617645   4.194   5.875   4.776  0.2877  0.1625  0.4644
  158SAPE  H16X17646   4.295   5.855   4.733  1.0868  0.9928  1.8607
  158SAPE  H16Y17647   4.160   5.976   4.743 -0.4904 -0.5405 -0.9775
  158SAPE  C31717648   4.107   5.774   4.702 -0.1141  0.3936  0.1534
  158SAPE  H17X17649   4.061   5.817   4.611 -0.5744 -1.0139 -0.3114
  158SAPE  H17Y17650   4.016   5.755   4.761 -0.1363  1.7128  0.5580
  158SAPE  C31817651   4.174   5.634   4.674 -0.0065 -0.4477 -0.0858
  158SAPE  H18X17652   4.269   5.654   4.621  0.1513 -0.9294  0.0121
  158SAPE  H18Y17653   4.103   5.574   4.613 -0.7747  1.2958 -0.9697
  158SAPE  H18Z17654   4.191   5.575   4.767  0.5277  0.2428  0.2574
  159SAPE     N17655   5.701   6.740   2.205  0.3646 -0.1279 -0.3930
  159SAPE   HN117656   5.795   6.738   2.248  1.0436 -1.4020 -1.8533
  159SAPE   HN217657   5.682   6.665   2.135 -1.6067  1.5989 -1.8431
  159SAPE   HN317658   5.700   6.824   2.144 -0.1193 -0.2561 -0.5662
  159SAPE   C1217659   5.596   6.722   2.309 -0.0446 -0.2528  0.9254
  159SAPE  H12A17660   5.600   6.622   2.358  0.1857 -0.1376  1.1423
  159SAPE  H12B17661   5.495   6.726   2.263  0.6452  0.1026 -0.6357
  159SAPE   C1117662   5.614   6.829   2.416 -0.3746 -0.8032 -0.1539
  159SAPE  H11A17663   5.539   6.812   2.496 -0.6956 -1.1394 -0.5206
  159SAPE  H11B17664   5.591   6.930   2.376  0.7024 -1.1235 -1.6669
  159SAPE     P17665   5.856   6.936   2.439 -0.0060  0.2424 -0.2897
  159SAPE   O1317666   5.909   6.894   2.305 -0.1936  0.4666 -0.0139
  159SAPE   O1417667   5.803   7.073   2.450  0.3975 -0.2281 -0.1966
  159SAPE   O1217668   5.748   6.834   2.482 -0.0344  0.2749 -0.0277
  159SAPE   O1117669   5.969   6.915   2.545  0.2547  0.2296  0.6746
  159SAPE    C117670   5.995   6.783   2.607  0.5601 -0.2402  0.0930
  159SAPE    HA17671   5.955   6.696   2.551  1.3544 -1.0681  0.7828
  159SAPE    HB17672   6.106   6.777   2.612  0.4433 -2.1666  1.4843
  159SAPE    C217673   5.922   6.774   2.747 -0.1016  0.1441 -0.1247
  159SAPE    HS17674   5.816   6.746   2.730  0.6662 -2.3026 -1.4368
  159SAPE   O2117675   5.951   6.894   2.815  0.0372 -0.3890  0.4328
  159SAPE   C2117676   5.845   6.947   2.878 -0.3421  0.6995 -0.0979
  159SAPE   O2217677   5.729   6.926   2.860 -0.3807 -0.1344  0.5860
  159SAPE   C2217678   5.886   7.052   2.980 -0.3884  0.3322 -0.7161
  159SAPE   H2R17679   5.973   7.016   3.039 -0.5563  0.7651 -0.2018
  159SAPE   H2S17680   5.934   7.134   2.922  1.6796  1.0421  1.8239
  159SAPE    C317681   5.985   6.662   2.840 -0.7024  0.0806  0.8603
  159SAPE    HX17682   6.090   6.699   2.844 -1.4263  2.3628  0.6750
  159SAPE    HY17683   5.982   6.565   2.787 -1.0852  1.8196 -2.5280
  159SAPE   O3117684   5.924   6.666   2.968  0.0057  0.4259 -0.6020
  159SAPE   C3117685   6.007   6.636   3.068 -0.1806 -0.1567 -0.4505
  159SAPE   O3217686   6.129   6.625   3.059  0.3677 -0.1475  0.4954
  159SAPE   C3217687   5.929   6.637   3.203  0.0473  0.2090 -0.7826
  159SAPE   H2X17688   5.818   6.635   3.196 -0.1864  0.9042  1.7100
  159SAPE   H2Y17689   5.955   6.729   3.259 -1.2645  0.0335  0.1825
  159SAPE   C2317690   5.782   7.128   3.059 -0.5919  0.1574  0.6926
  159SAPE   H3R17691   5.753   7.079   3.154 -0.9538  0.7444  0.8951
  159SAPE   H3S17692   5.696   7.146   2.990  0.1979  1.4819  0.0018
  159SAPE   C2417693   5.829   7.270   3.110 -0.1445  1.2268 -0.5550
  159SAPE   H4R17694   5.750   7.304   3.181  1.5309 -2.2070  3.4548
  159SAPE   H4S17695   5.839   7.340   3.025 -3.3544  2.4967  0.0034
  159SAPE   C2517696   5.956   7.268   3.186  0.2555 -0.4993  0.7197
  159SAPE   H5R17697   6.042   7.290   3.121 -1.5166  2.0809 -0.9375
  159SAPE   C2617698   5.969   7.253   3.315 -0.3925  0.3516  0.3678
  159SAPE   H6R17699   6.063   7.286   3.362 -0.7809 -0.0015  1.4181
  159SAPE   C2717700   5.857   7.227   3.414 -0.2502  0.5782 -0.1078
  159SAPE   H7R17701   5.887   7.163   3.500 -0.9866 -1.3367 -1.2008
  159SAPE   H7S17702   5.778   7.168   3.363  0.2633 -1.1927  1.0327
  159SAPE   C2817703   5.792   7.352   3.469  0.4210 -0.8237 -0.1921
  159SAPE   H8R17704   5.821   7.439   3.408  0.8917 -0.6138  0.3194
  159SAPE   C2917705   5.736   7.377   3.590 -0.1250 -0.7563 -0.4463
  159SAPE   H9R17706   5.710   7.481   3.613  0.7128 -0.4735 -0.7245
  159SAPE  C21017707   5.705   7.265   3.693  0.5950  0.4209  0.8042
  159SAPE  H10R17708   5.785   7.188   3.697 -0.0837 -0.2712  1.3981
  159SAPE  H10S17709   5.625   7.206   3.643  0.9837  0.8586 -0.3860
  159SAPE  C21117710   5.666   7.312   3.826  0.4716 -0.0710 -0.1067
  159SAPE  H11R17711   5.624   7.414   3.821  0.7796  0.0237 -0.8887
  159SAPE  C21217712   5.665   7.245   3.944 -0.2313 -0.1023 -0.1277
  159SAPE  H12R17713   5.625   7.288   4.036 -2.3232 -1.4213 -0.3495
  159SAPE  C21317714   5.704   7.098   3.957 -0.4262  0.3718 -0.3318
  159SAPE  H13R17715   5.740   7.064   3.857  1.5704 -3.0184  1.3939
  159SAPE  H13S17716   5.608   7.046   3.979 -0.2593  0.1782 -0.0591
  159SAPE  C21417717   5.804   7.056   4.058 -0.7986 -0.1406 -0.3561
  159SAPE  H14R17718   5.905   7.035   4.021 -1.5508 -1.0301 -1.9885
  159SAPE  C21517719   5.775   7.014   4.181 -0.5432 -0.6012  0.2387
  159SAPE  H15R17720   5.845   6.953   4.240 -2.5854 -2.3709  0.9487
  159SAPE  C21617721   5.648   7.026   4.253  0.2832 -0.1938 -0.1111
  159SAPE  H16R17722   5.571   7.007   4.176  0.9118 -0.1894 -0.7567
  159SAPE  H16S17723   5.639   7.123   4.307  0.7381 -0.0493 -0.2845
  159SAPE  C21717724   5.620   6.921   4.356 -0.7035  0.9065  0.0092
  159SAPE  H17R17725   5.701   6.924   4.432 -2.7656 -0.3856  2.3829
  159SAPE  H17S17726   5.614   6.824   4.301 -2.3767  1.1628 -0.3038
  159SAPE  C21817727   5.488   6.943   4.438 -0.5042  1.2953  0.1732
  159SAPE  H18R17728   5.414   6.870   4.398  0.5240  0.6219 -0.5400
  159SAPE  H18S17729   5.446   7.046   4.432  0.8523  2.0210  2.0986
  159SAPE  C21917730   5.494   6.918   4.584 -0.0247  0.0058 -0.5122
  159SAPE  H19R17731   5.571   6.991   4.618  1.0657  0.2573 -3.2466
  159SAPE  H19S17732   5.544   6.821   4.606  1.7533  0.4216 -2.3989
  159SAPE  C22017733   5.360   6.922   4.664  0.1523 -0.3841 -0.7728
  159SAPE  H20R17734   5.299   7.012   4.641 -0.3195 -1.3683 -3.6796
  159SAPE  H20S17735   5.386   6.911   4.772  0.9496  2.0480 -0.6497
  159SAPE  H20T17736   5.295   6.841   4.627 -1.7707  1.6437 -2.1225
  159SAPE   C3317737   5.958   6.518   3.295  0.0154  0.1156  0.0384
  159SAPE   H3X17738   6.034   6.449   3.253 -0.8131 -1.7641  1.4640
  159SAPE   H3Y17739   5.864   6.467   3.326  0.1114  1.0789  2.0748
  159SAPE   C3417740   6.030   6.574   3.424 -0.0366  0.1122  0.2743
  159SAPE   H4X17741   5.950   6.625   3.481 -1.0071 -0.3874 -0.6064
  159SAPE   H4Y17742   6.104   6.650   3.394 -0.0310  0.8217  1.9631
  159SAPE   C3517743   6.098   6.463   3.506  0.2932 -0.1350  0.0958
  159SAPE   H5X17744   6.202   6.446   3.470  0.5691 -3.6569  2.1047
  159SAPE   H5Y17745   6.032   6.374   3.504 -0.9973  0.8026 -0.6693
  159SAPE   C3617746   6.110   6.508   3.657  0.1836 -0.0748 -0.0932
  159SAPE   H6X17747   6.135   6.417   3.717 -1.5431  0.4892  1.6044
  159SAPE   H6Y17748   6.007   6.539   3.686 -0.1243 -1.1987  0.0782
  159SAPE   C3717749   6.206   6.626   3.674  0.0795 -0.2201 -0.2668
  159SAPE   H7X17750   6.167   6.702   3.603 -0.8819 -0.1217  0.3462
  159SAPE   H7Y17751   6.301   6.592   3.628 -1.0624  0.5238 -3.4380
  159SAPE   C3817752   6.207   6.671   3.818  0.1091  0.4031  0.0809
  159SAPE   H8X17753   6.251   6.589   3.878  1.3234  1.2628  0.4080
  159SAPE   H8Y17754   6.099   6.687   3.842  0.0846  0.0697  0.2024
  159SAPE   C3917755   6.294   6.796   3.841  0.1676 -0.9952  0.6092
  159SAPE   H9X17756   6.256   6.881   3.781  0.6598 -1.2598 -0.0931
  159SAPE   H9Y17757   6.397   6.774   3.805  0.0420 -0.6096  0.0127
  159SAPE  C31017758   6.291   6.834   3.994 -0.3467  0.3455  0.0633
  159SAPE  H10X17759   6.345   6.754   4.050  0.7159  3.7065  4.3540
  159SAPE  H10Y17760   6.190   6.815   4.034  0.7500 -1.3587  2.2522
  159SAPE  C31117761   6.356   6.968   4.041 -0.5656  0.4335 -0.2678
  159SAPE  H11X17762   6.302   7.061   4.011  1.2565  2.3795  2.0589
  159SAPE  H11Y17763   6.455   6.980   3.993  0.4064 -1.7738  1.0299
  159SAPE  C31217764   6.374   6.982   4.194  0.2555  0.7612  0.2772
  159SAPE  H12X17765   6.428   7.075   4.223  3.0308 -0.9356  0.9548
  159SAPE  H12Y17766   6.437   6.905   4.244 -0.9915  0.1110  0.8800
  159SAPE  C31317767   6.238   6.991   4.264 -0.3089  0.6730 -0.6803
  159SAPE  H13X17768   6.173   6.906   4.236 -0.5711  0.2822  1.0244
  159SAPE  H13Y17769   6.182   7.080   4.229  0.0206  0.3928 -1.9940
  159SAPE  C31417770   6.253   6.978   4.419 -0.1707 -1.0130  0.4970
  159SAPE  H14X17771   6.339   7.040   4.453 -1.6383  1.2703  0.2953
  159SAPE  H14Y17772   6.282   6.872   4.435 -0.4232 -1.3208 -0.9715
  159SAPE  C31517773   6.124   7.020   4.502  0.8710  0.8065 -1.3392
  159SAPE  H15X17774   6.032   6.965   4.473  0.6653 -1.2241  2.5773
  159SAPE  H15Y17775   6.106   7.127   4.479  1.1680  1.3347  0.7345
  159SAPE  C31617776   6.151   6.976   4.649  0.0484 -0.3511 -0.9513
  159SAPE  H16X17777   6.237   7.034   4.690  0.3522 -2.2802  1.4295
  159SAPE  H16Y17778   6.187   6.871   4.652  1.3315  0.0271 -2.2520
  159SAPE  C31717779   6.022   6.988   4.736  0.4971  0.0918 -0.2159
  159SAPE  H17X17780   5.945   6.910   4.719 -1.9406  2.7672 -2.3285
  159SAPE  H17Y17781   5.972   7.083   4.708  0.4971  1.5104  3.8893
  159SAPE  C31817782   6.048   6.999   4.887  0.2454  0.4257 -0.0416
  159SAPE  H18X17783   6.130   6.934   4.925  1.5978  2.7122  1.1596
  159SAPE  H18Y17784   5.960   6.976   4.951  1.3362  1.5532  1.9693
  159SAPE  H18Z17785   6.083   7.099   4.921 -0.1960  1.2785 -2.0039
  160SAPE     N17786   4.486   4.711   1.643  0.1043  0.5925 -0.1713
  160SAPE   HN117787   4.471   4.749   1.547 -0.5069 -0.9960 -0.7281
  160SAPE   HN217788   4.553   4.632   1.634  1.7390  1.8372  0.4049
  160SAPE   HN317789   4.396   4.669   1.673 -0.0859  2.3234  2.0049
  160SAPE   C1217790   4.545   4.802   1.739  0.3407 -0.0586  0.4538
  160SAPE  H12A17791   4.472   4.883   1.760 -1.1942 -1.2377 -0.2181
  160SAPE  H12B17792   4.643   4.831   1.697  0.5304 -1.9792 -0.5320
  160SAPE   C1117793   4.582   4.733   1.870  0.4567 -0.4648  0.5498
  160SAPE  H11A17794   4.503   4.665   1.907  0.1941 -0.5145 -0.0925
  160SAPE  H11B17795   4.598   4.807   1.952  0.8387  1.0347 -0.8107
  160SAPE     P17796   4.834   4.681   1.909 -0.3286  0.4646 -0.2971
  160SAPE   O1317797   4.917   4.562   1.915 -0.9574  0.7187 -0.1478
  160SAPE   O1417798   4.894   4.786   1.826 -0.0264  0.6863  0.4932
  160SAPE   O1217799   4.694   4.647   1.848 -0.0842  0.1852  0.1304
  160SAPE   O1117800   4.803   4.733   2.053 -0.0608 -0.3663 -0.0501
  160SAPE    C117801   4.734   4.646   2.138 -0.4739 -0.7360  0.1302
  160SAPE    HA17802   4.674   4.566   2.090  0.0980 -2.7223  2.5376
  160SAPE    HB17803   4.809   4.586   2.194  0.0257  0.6842  1.0365
  160SAPE    C217804   4.644   4.718   2.242 -0.3104 -0.8946 -0.3622
  160SAPE    HS17805   4.546   4.730   2.190  0.2510 -0.9658 -1.4765
  160SAPE   O2117806   4.698   4.849   2.270 -0.5069 -0.4838 -0.1113
  160SAPE   C2117807   4.619   4.940   2.319  0.0035 -0.3169 -0.2059
  160SAPE   O2217808   4.505   4.918   2.355 -0.5724 -0.2031  0.0863
  160SAPE   C2217809   4.690   5.071   2.322  0.7229 -0.1682 -0.6083
  160SAPE   H2R17810   4.707   5.108   2.218 -0.5300  2.8449  0.1504
  160SAPE   H2S17811   4.628   5.135   2.389 -0.5360 -1.4119 -0.5516
  160SAPE    C317812   4.622   4.645   2.373  0.0344  0.4996 -0.5073
  160SAPE    HX17813   4.604   4.539   2.346 -2.5107  1.0865 -1.4501
  160SAPE    HY17814   4.528   4.682   2.420  1.3516  1.2101  1.6703
  160SAPE   O3117815   4.744   4.651   2.455  0.1821  0.2435  0.0559
  160SAPE   C3117816   4.719   4.609   2.576 -0.3925 -0.7011  0.0391
  160SAPE   O3217817   4.606   4.585   2.618  0.5006 -0.6726 -0.0373
  160SAPE   C3217818   4.841   4.583   2.665 -1.0621 -0.2423 -0.9509
  160SAPE   H2X17819   4.850   4.684   2.711 -1.4584 -1.4101  1.9392
  160SAPE   H2Y17820   4.929   4.548   2.607  1.5540  2.0458  1.3513
  160SAPE   C2317821   4.829   5.050   2.382  0.1932 -0.0753  0.3433
  160SAPE   H3R17822   4.863   5.155   2.366 -2.0435  0.5003 -1.0094
  160SAPE   H3S17823   4.900   5.000   2.312  2.0194  1.0054  1.3141
  160SAPE   C2417824   4.828   5.004   2.528 -1.2038 -0.1311 -0.2663
  160SAPE   H4R17825   4.928   4.991   2.574 -1.4440  1.1193  0.6930
  160SAPE   H4S17826   4.785   4.902   2.534  1.4685 -1.3528 -0.5166
  160SAPE   C2517827   4.751   5.109   2.620 -1.0323 -0.5974  0.4592
  160SAPE   H5R17828   4.808   5.202   2.633 -1.0266 -0.7989  1.9915
  160SAPE   C2617829   4.646   5.075   2.703  0.4026  0.2221  0.3205
  160SAPE   H6R17830   4.604   5.146   2.775  1.2859  2.9609 -1.6865
  160SAPE   C2717831   4.569   4.940   2.689 -0.3409  0.9365 -0.2868
  160SAPE   H7R17832   4.637   4.854   2.672 -1.4012 -0.5520  2.3705
  160SAPE   H7S17833   4.510   4.924   2.596  0.4317 -2.9790 -0.2689
  160SAPE   C2817834   4.493   4.915   2.820 -0.0077  0.1841 -0.2267
  160SAPE   H8R17835   4.384   4.908   2.810 -0.0176 -0.6006  0.2718
  160SAPE   C2917836   4.547   4.882   2.935 -0.0957 -0.1999 -0.4553
  160SAPE   H9R17837   4.477   4.877   3.020  0.3665 -0.5073 -0.0911
  160SAPE  C21017838   4.695   4.875   2.977  0.2870 -0.8494 -0.1665
  160SAPE  H10R17839   4.724   4.943   3.060  0.3318 -0.1908 -0.7136
  160SAPE  H10S17840   4.754   4.887   2.883 -1.8249 -1.0594 -1.5889
  160SAPE  C21117841   4.737   4.747   3.041 -0.4236  0.3728  0.0159
  160SAPE  H11R17842   4.708   4.663   2.976 -0.3191  1.1519 -1.0580
  160SAPE  C21217843   4.797   4.715   3.161 -0.3643  0.4486  0.4392
  160SAPE  H12R17844   4.817   4.609   3.185  0.3352 -0.2505 -2.8344
  160SAPE  C21317845   4.842   4.814   3.265 -0.2661 -0.2848 -0.0391
  160SAPE  H13R17846   4.867   4.770   3.363 -2.2265 -1.4733 -0.0185
  160SAPE  H13S17847   4.754   4.878   3.289  0.9750  0.8954  1.6121
  160SAPE  C21417848   4.954   4.903   3.238  0.0811 -0.3492 -0.7440
  160SAPE  H14R17849   4.958   4.913   3.129 -2.0703  0.0928 -0.8290
  160SAPE  C21517850   5.035   4.980   3.312 -0.5117  0.7906  0.1622
  160SAPE  H15R17851   5.116   5.037   3.264 -1.4618  2.6181  0.6325
  160SAPE  C21617852   5.034   5.007   3.459  0.4110  0.6061 -0.4502
  160SAPE  H16R17853   5.138   4.996   3.497 -0.2106 -0.4673  1.0752
  160SAPE  H16S17854   4.971   4.931   3.510 -1.3762  2.2886 -0.0342
  160SAPE  C21717855   4.976   5.143   3.481 -0.4707  0.1421 -0.6142
  160SAPE  H17R17856   4.865   5.141   3.472 -0.5053 -1.9037 -0.0999
  160SAPE  H17S17857   5.018   5.210   3.403  0.0965  0.3691 -0.1287
  160SAPE  C21817858   5.024   5.203   3.615 -0.6410  0.1301  0.1743
  160SAPE  H18R17859   4.966   5.296   3.635 -0.2142  0.6688 -1.0076
  160SAPE  H18S17860   5.132   5.227   3.606 -1.0172  1.5760 -0.8497
  160SAPE  C21917861   4.991   5.104   3.723  0.5562  0.5835 -0.2984
  160SAPE  H19R17862   5.041   5.006   3.707 -3.4190 -1.8848  1.0613
  160SAPE  H19S17863   4.882   5.085   3.731  0.5736  0.1414 -1.0373
  160SAPE  C22017864   5.033   5.163   3.858  0.4513  0.3285 -0.2585
  160SAPE  H20R17865   4.986   5.263   3.868 -0.8165 -0.0520 -1.8025
  160SAPE  H20S17866   5.143   5.176   3.863  0.9024 -2.3065 -1.6166
  160SAPE  H20T17867   4.992   5.100   3.939 -1.3151  1.4688 -0.1993
  160SAPE   C3317868   4.809   4.474   2.781  0.2540 -0.7467  0.1502
  160SAPE   H3X17869   4.786   4.378   2.729  1.1556 -1.0061  0.2165
  160SAPE   H3Y17870   4.717   4.504   2.836 -0.5398 -2.7868  0.0207
  160SAPE   C3417871   4.927   4.458   2.878  0.1695 -0.7612  0.2786
  160SAPE   H4X17872   4.966   4.561   2.896 -1.4317  0.2064 -1.3952
  160SAPE   H4Y17873   5.012   4.404   2.830  1.2093 -0.2130  1.4362
  160SAPE   C3517874   4.877   4.384   3.000 -0.2695 -0.1193  0.2745
  160SAPE   H5X17875   4.871   4.276   2.971  0.4698 -0.2395  0.5539
  160SAPE   H5Y17876   4.777   4.425   3.026  0.7115  2.6944 -0.0272
  160SAPE   C3617877   4.975   4.382   3.114  0.4896 -0.7329 -0.2129
  160SAPE   H6X17878   5.007   4.484   3.146 -0.6111 -1.1459  2.3824
  160SAPE   H6Y17879   5.064   4.318   3.095  0.6232 -0.9682  1.1401
  160SAPE   C3717880   4.914   4.340   3.252  0.0850  0.1527  0.1890
  160SAPE   H7X17881   4.934   4.231   3.252  1.5422  0.4034 -0.8417
  160SAPE   H7Y17882   4.803   4.343   3.254 -0.0178 -2.0506  0.7594
  160SAPE   C3817883   4.970   4.396   3.384  1.0220 -1.3608  0.6307
  160SAPE   H8X17884   4.925   4.498   3.384 -1.8140 -2.4595 -1.8155
  160SAPE   H8Y17885   5.081   4.398   3.385  1.1492  2.7187 -1.3206
  160SAPE   C3917886   4.930   4.308   3.506 -0.2588 -0.3926  0.1198
  160SAPE   H9X17887   4.976   4.209   3.488  0.0563 -0.1779 -0.2406
  160SAPE   H9Y17888   4.819   4.295   3.511 -0.5189  1.5441  0.2333
  160SAPE  C31017889   5.004   4.355   3.638  0.1696  0.0904 -0.4761
  160SAPE  H10X17890   4.969   4.459   3.658  1.6922  0.8135 -1.3901
  160SAPE  H10Y17891   5.114   4.352   3.628  0.1634 -2.3491 -0.5036
  160SAPE  C31117892   4.962   4.272   3.762 -0.2751  0.3907 -0.3332
  160SAPE  H11X17893   5.005   4.170   3.755  0.7270  0.8028 -0.4456
  160SAPE  H11Y17894   4.851   4.265   3.763 -0.3058 -0.5048 -2.7435
  160SAPE  C31217895   5.006   4.334   3.892  0.2799 -0.2556  0.3988
  160SAPE  H12X17896   4.958   4.435   3.894  0.7261 -0.0374  0.0917
  160SAPE  H12Y17897   5.115   4.354   3.888  0.1355  0.5433  0.1626
  160SAPE  C31317898   4.972   4.253   4.022  0.0467 -0.3184  0.7828
  160SAPE  H13X17899   5.023   4.156   4.009  2.6674  1.0920 -0.2865
  160SAPE  H13Y17900   4.862   4.238   4.028  0.0356 -0.8293 -0.3972
  160SAPE  C31417901   5.014   4.325   4.145  0.1463  0.7779  0.2790
  160SAPE  H14X17902   4.939   4.403   4.170 -0.6186 -0.2285  1.1615
  160SAPE  H14Y17903   5.113   4.371   4.120 -0.2281  1.2825 -0.3176
  160SAPE  C31517904   5.030   4.211   4.258 -0.1928 -0.3646 -0.3225
  160SAPE  H15X17905   5.100   4.135   4.217 -0.0442  0.4980 -1.7120
  160SAPE  H15Y17906   4.937   4.151   4.267 -1.7838  1.9740 -0.2487
  160SAPE  C31617907   5.073   4.254   4.398  0.0196 -0.1500 -0.1278
  160SAPE  H16X17908   5.057   4.176   4.476 -2.3327 -0.1460 -0.5197
  160SAPE  H16Y17909   5.006   4.337   4.432 -0.5442 -1.1161  1.2179
  160SAPE  C31717910   5.223   4.298   4.407 -0.0625  0.8718 -0.2081
  160SAPE  H17X17911   5.244   4.387   4.342 -0.6763  1.2036  0.0442
  160SAPE  H17Y17912   5.282   4.220   4.355  0.2986  1.6609 -1.0308
  160SAPE  C31817913   5.285   4.326   4.548 -0.3870 -0.1505 -0.0223
  160SAPE  H18X17914   5.292   4.236   4.614 -1.1111 -0.4012 -0.2779
  160SAPE  H18Y17915   5.225   4.402   4.602  0.2210 -0.2990  0.8849
  160SAPE  H18Z17916   5.388   4.367   4.539 -0.7489  0.3775 -2.1388
  161SAPE     N17917   6.368   1.085   2.600  0.5243  0.2675 -0.6757
  161SAPE   HN117918   6.442   1.156   2.618  0.7754 -0.2002  0.1305
  161SAPE   HN217919   6.271   1.121   2.611 -0.0064 -1.5483  1.0083
  161SAPE   HN317920   6.384   1.030   2.686  1.5725 -0.0072 -1.0341
  161SAPE   C1217921   6.364   0.997   2.479 -0.2705  0.4117 -0.2610
  161SAPE  H12A17922   6.452   0.930   2.489  0.3247  0.9716 -1.6134
  161SAPE  H12B17923   6.370   1.068   2.395 -0.5718 -0.1825 -0.7947
  161SAPE   C1117924   6.234   0.915   2.483 -0.3121 -0.5718  0.6660
  161SAPE  H11A17925   6.240   0.846   2.570  1.4306  0.4839  1.4480
  161SAPE  H11B17926   6.235   0.858   2.388  1.9772  1.8678 -0.9002
  161SAPE     P17927   5.984   0.929   2.472 -0.1997 -0.2110 -0.1024
  161SAPE   O1317928   5.904   1.021   2.394 -0.1842  0.3015  0.1955
  161SAPE   O1417929   6.001   0.794   2.418  0.3684  0.1708 -0.1579
  161SAPE   O1217930   6.122   1.004   2.497 -0.0267 -0.2634  0.0646
  161SAPE   O1117931   5.925   0.930   2.616  0.0971 -0.1353  0.3015
  161SAPE    C117932   5.947   1.043   2.705  0.1710 -0.2104 -0.1549
  161SAPE    HA17933   6.036   1.103   2.680 -1.2496  2.9530  1.8044
  161SAPE    HB17934   5.855   1.106   2.702 -1.4475 -2.3282  1.3024
  161SAPE    C217935   5.963   0.985   2.854  0.2028  0.5698 -0.5175
  161SAPE    HS17936   5.865   0.952   2.893 -0.3571  0.6453 -1.8099
  161SAPE   O2117937   6.021   1.097   2.934 -0.0337 -0.5854 -0.2179
  161SAPE   C2117938   6.154   1.126   2.929  0.1970  1.1329 -0.1128
  161SAPE   O2217939   6.237   1.073   2.858 -0.0224  0.8380  0.6417
  161SAPE   C2217940   6.194   1.246   3.018 -0.1735  0.1552  0.3181
  161SAPE   H2R17941   6.236   1.318   2.944  1.5699 -0.2428  0.8770
  161SAPE   H2S17942   6.104   1.289   3.069 -1.5820 -2.8896  0.6093
  161SAPE    C317943   6.050   0.850   2.863 -0.5829  0.1959  0.6661
  161SAPE    HX17944   6.145   0.860   2.807  0.4047 -1.1742  2.0057
  161SAPE    HY17945   5.994   0.765   2.820  2.3420 -1.9550  0.7427
  161SAPE   O3117946   6.084   0.824   3.002  0.6206 -0.2363  0.2754
  161SAPE   C3117947   6.187   0.748   3.025 -0.4916  0.1790  0.3153
  161SAPE   O3217948   6.269   0.716   2.938 -0.4616 -0.2869 -0.5768
  161SAPE   C3217949   6.194   0.717   3.172  0.6285  0.4541 -0.0817
  161SAPE   H2X17950   6.285   0.762   3.217 -0.3056  0.4176  1.9601
  161SAPE   H2Y17951   6.196   0.607   3.191  0.7702  0.7930  2.1325
  161SAPE   C2317952   6.306   1.213   3.118  0.8561 -0.4764  0.4813
  161SAPE   H3R17953   6.334   1.313   3.158 -0.1923  0.7649 -1.7212
  161SAPE   H3S17954   6.394   1.166   3.069  0.4407 -1.1112  0.3261
  161SAPE   C2417955   6.259   1.116   3.234  0.5624 -0.1964  1.0474
  161SAPE   H4R17956   6.357   1.100   3.285  1.1608  0.4801  0.1537
  161SAPE   H4S17957   6.230   1.020   3.188  0.5332  0.6229 -0.7268
  161SAPE   C2517958   6.156   1.173   3.326  0.0955  0.0634 -0.4146
  161SAPE   H5R17959   6.056   1.188   3.282  0.2839 -1.2488 -1.3700
  161SAPE   C2617960   6.175   1.198   3.459  0.8203 -0.2038  0.2298
  161SAPE   H6R17961   6.096   1.239   3.523 -0.4503 -1.3367 -0.5448
  161SAPE   C2717962   6.299   1.173   3.537 -0.6536  0.1898  0.0790
  161SAPE   H7R17963   6.390   1.188   3.475  1.0714  0.3009  2.4856
  161SAPE   H7S17964   6.296   1.065   3.562 -3.4854 -0.4090 -2.2500
  161SAPE   C2817965   6.318   1.255   3.669  0.0201 -0.0809  0.4857
  161SAPE   H8R17966   6.368   1.350   3.648  0.7888 -0.2800  1.3535
  161SAPE   C2917967   6.290   1.222   3.791  0.2651  0.3422  1.1955
  161SAPE   H9R17968   6.321   1.302   3.861 -0.6677  1.2323  0.6287
  161SAPE  C21017969   6.229   1.087   3.835  0.1444 -0.1787 -0.1525
  161SAPE  H10R17970   6.225   1.014   3.751  0.0637 -0.1705 -0.1561
  161SAPE  H10S17971   6.121   1.103   3.856  0.3146  3.1833 -1.3481
  161SAPE  C21117972   6.294   1.007   3.950  0.4033  0.1811 -0.1789
  161SAPE  H11R17973   6.388   0.954   3.925  0.7310  0.4583  0.4431
  161SAPE  C21217974   6.246   0.983   4.074  0.0692 -0.2667  0.0048
  161SAPE  H12R17975   6.308   0.928   4.147  0.2570  0.1848  0.1904
  161SAPE  C21317976   6.118   1.036   4.131 -0.0359  0.3123 -0.4648
  161SAPE  H13R17977   6.047   0.951   4.137 -0.6337  0.4099 -4.0496
  161SAPE  H13S17978   6.060   1.109   4.071 -2.6114 -0.3050  1.1045
  161SAPE  C21417979   6.131   1.091   4.271  0.2359  0.3531  0.1689
  161SAPE  H14R17980   6.079   1.031   4.347 -1.2598 -1.9493 -2.4952
  161SAPE  C21517981   6.193   1.203   4.306 -0.3374  0.1611  0.1466
  161SAPE  H15R17982   6.212   1.215   4.414 -0.3269  1.0610  0.0581
  161SAPE  C21617983   6.252   1.304   4.221 -0.0541 -0.1875  0.3590
  161SAPE  H16R17984   6.190   1.396   4.230  0.7325  0.3950 -0.0044
  161SAPE  H16S17985   6.270   1.269   4.117 -2.2298 -1.8980  0.4918
  161SAPE  C21717986   6.406   1.333   4.252  0.6570  0.2856 -0.3939
  161SAPE  H17R17987   6.455   1.233   4.245  0.4194  0.2044 -0.9094
  161SAPE  H17S17988   6.403   1.367   4.357 -0.5440  1.0532 -0.6624
  161SAPE  C21817989   6.479   1.428   4.156  0.2701  0.1340 -0.0061
  161SAPE  H18R17990   6.486   1.379   4.056 -0.0251 -0.7203  0.3775
  161SAPE  H18S17991   6.584   1.448   4.185  0.5797  0.3652 -1.2240
  161SAPE  C21917992   6.405   1.558   4.132 -0.0984  0.1417 -0.0558
  161SAPE  H19R17993   6.376   1.600   4.231 -0.7291 -0.5249  0.0548
  161SAPE  H19S17994   6.310   1.532   4.082  1.9292 -4.4015 -2.1437
  161SAPE  C22017995   6.475   1.666   4.049 -0.0500 -0.7604 -0.5883
  161SAPE  H20R17996   6.566   1.705   4.100  0.0943  0.5058 -1.7583
  161SAPE  H20S17997   6.402   1.749   4.038  0.7998  0.0071 -0.6195
  161SAPE  H20T17998   6.500   1.634   3.946 -1.5718  1.7346 -1.8553
  161SAPE   C3317999   6.069   0.773   3.255 -0.4039  0.0988 -0.2423
  161SAPE   H3X18000   5.984   0.703   3.239 -0.0678  0.1674 -2.6872
  161SAPE   H3Y18001   6.050   0.881   3.236  2.1039  0.6716  0.1143
  161SAPE   C3418002   6.109   0.775   3.403  0.7536 -0.1347 -0.2371
  161SAPE   H4X18003   6.206   0.826   3.422 -0.3594  1.4355  1.4847
  161SAPE   H4Y18004   6.124   0.671   3.439  1.1041 -0.3910 -1.0959
  161SAPE   C3518005   6.000   0.854   3.475 -0.1284  0.1018 -0.6434
  161SAPE   H5X18006   5.904   0.812   3.437 -1.2531  0.2844  1.7872
  161SAPE   H5Y18007   6.010   0.962   3.453  0.4679  0.1335 -0.2465
  161SAPE   C3618008   5.981   0.832   3.624 -0.0440 -0.0822 -0.2005
  161SAPE   H6X18009   6.073   0.859   3.681  0.6302  2.5282 -2.3259
  161SAPE   H6Y18010   5.960   0.723   3.628  0.8610 -0.3073 -1.1278
  161SAPE   C3718011   5.861   0.908   3.690  0.0802 -0.8492  0.5240
  161SAPE   H7X18012   5.772   0.901   3.624  0.6171  0.5457 -0.3921
  161SAPE   H7Y18013   5.883   1.016   3.679  2.6877 -1.5311 -2.9876
  161SAPE   C3818014   5.824   0.869   3.831  0.3335  0.5603  0.2191
  161SAPE   H8X18015   5.902   0.910   3.899  1.2052  1.7910 -1.4589
  161SAPE   H8Y18016   5.828   0.758   3.839  1.0868  0.5770  0.1952
  161SAPE   C3918017   5.692   0.929   3.885  0.5566 -0.8912  0.0649
  161SAPE   H9X18018   5.611   0.919   3.809  1.0468  0.8151 -0.7292
  161SAPE   H9Y18019   5.707   1.038   3.897  0.5664 -0.7587 -0.9991
  161SAPE  C31018020   5.662   0.862   4.014 -0.1747  0.0408  0.0911
  161SAPE  H10X18021   5.637   0.755   3.999 -2.7543  0.8532 -2.2277
  161SAPE  H10Y18022   5.576   0.923   4.047  1.8624  2.8808  0.5529
  161SAPE  C31118023   5.774   0.881   4.116 -0.4131 -0.2941 -0.2782
  161SAPE  H11X18024   5.827   0.979   4.112 -0.0775 -0.4968 -0.9909
  161SAPE  H11Y18025   5.856   0.806   4.114 -0.2978 -0.1883  0.3074
  161SAPE  C31218026   5.729   0.875   4.264 -0.0664  0.2727 -0.2650
  161SAPE  H12X18027   5.643   0.944   4.281 -0.2484 -0.5780  2.9097
  161SAPE  H12Y18028   5.812   0.912   4.328  1.6058 -1.7302 -1.1443
  161SAPE  C31318029   5.690   0.727   4.305 -0.2911 -0.2716 -0.0297
  161SAPE  H13X18030   5.782   0.666   4.290  0.5084  0.7925  0.3204
  161SAPE  H13Y18031   5.612   0.689   4.237 -0.7730  1.4809 -0.4949
  161SAPE  C31418032   5.647   0.725   4.453 -0.3567 -0.3001  0.0265
  161SAPE  H14X18033   5.552   0.781   4.461  0.5514  1.6922 -2.1002
  161SAPE  H14Y18034   5.730   0.777   4.505 -0.0126 -0.6434 -0.1667
  161SAPE  C31518035   5.645   0.579   4.501  0.2879 -0.2154 -0.3066
  161SAPE  H15X18036   5.567   0.527   4.442 -0.4374  2.3633 -1.7833
  161SAPE  H15Y18037   5.629   0.587   4.611  0.1439 -0.8709 -0.2759
  161SAPE  C31618038   5.755   0.492   4.472 -0.4257  0.5329 -0.1329
  161SAPE  H16X18039   5.758   0.468   4.363 -1.3068 -0.0690 -0.0283
  161SAPE  H16Y18040   5.739   0.396   4.525  0.1856  0.6691  0.3111
  161SAPE  C31718041   5.889   0.544   4.519  0.0797  0.1421 -0.0587
  161SAPE  H17X18042   5.921   0.629   4.455  0.8535 -0.5370 -0.5936
  161SAPE  H17Y18043   5.961   0.460   4.508 -1.3202 -1.2588  1.0145
  161SAPE  C31818044   5.895   0.589   4.673  0.1670 -0.9610  0.3430
  161SAPE  H18X18045   6.002   0.610   4.696 -0.0297 -0.6810  1.0185
  161SAPE  H18Y18046   5.854   0.509   4.738 -1.8683  0.0590  0.3779
  161SAPE  H18Z18047   5.843   0.685   4.692 -1.5180 -1.9642  1.0596
  162SAPE     N18048   6.395   2.468   3.332 -0.1153 -0.1120 -0.3934
  162SAPE   HN118049   6.420   2.552   3.388  2.2758  0.4001 -2.0409
  162SAPE   HN218050   6.485   2.419   3.316  1.2503  1.4407  2.0002
  162SAPE   HN318051   6.356   2.500   3.241 -0.8726  1.2283  0.3732
  162SAPE   C1218052   6.288   2.385   3.406 -0.0004  0.3272 -0.1242
  162SAPE  H12A18053   6.198   2.447   3.425 -1.5230 -1.5683 -0.9147
  162SAPE  H12B18054   6.341   2.359   3.501 -0.5464  1.5338  0.5358
  162SAPE   C1118055   6.254   2.259   3.334 -0.2030  0.7658  0.9131
  162SAPE  H11A18056   6.164   2.208   3.374  1.3848 -0.1164  3.6786
  162SAPE  H11B18057   6.339   2.192   3.359 -0.0901 -0.0261 -1.3635
  162SAPE     P18058   6.144   2.358   3.124 -0.1958  0.1474  0.2031
  162SAPE   O1318059   6.189   2.497   3.136 -0.1609 -0.4638 -0.1071
  162SAPE   O1418060   6.112   2.308   2.990 -0.3828 -0.1719  0.0584
  162SAPE   O1218061   6.256   2.267   3.196 -0.5020 -0.3758  0.1222
  162SAPE   O1118062   6.023   2.330   3.217  0.5332  0.2994  0.7640
  162SAPE    C118063   5.961   2.202   3.201  0.5679 -0.5271 -0.2181
  162SAPE    HA18064   5.895   2.213   3.112  2.2427  1.6997 -1.2888
  162SAPE    HB18065   6.023   2.111   3.184  0.9326 -0.5074  0.9206
  162SAPE    C218066   5.859   2.190   3.318  0.7734 -0.0101 -0.2453
  162SAPE    HS18067   5.806   2.288   3.322  0.0285 -0.2557 -2.4190
  162SAPE   O2118068   5.915   2.155   3.448  0.0773  0.6002  0.5770
  162SAPE   C2118069   5.910   2.237   3.544 -0.3375 -0.6583  0.3336
  162SAPE   O2218070   5.851   2.347   3.545 -0.0891 -0.2217  0.3728
  162SAPE   C2218071   5.996   2.184   3.659  0.0708 -0.0776  0.0399
  162SAPE   H2R18072   5.970   2.076   3.662 -1.7487  0.2999 -0.7227
  162SAPE   H2S18073   6.100   2.192   3.622  0.9739  2.6859  2.7138
  162SAPE    C318074   5.757   2.085   3.284  0.2101 -0.2556  0.1739
  162SAPE    HX18075   5.808   1.988   3.265 -0.3373 -1.1684  2.8954
  162SAPE    HY18076   5.724   2.110   3.181  2.2760 -0.5276 -0.6098
  162SAPE   O3118077   5.658   2.071   3.392 -0.0052 -0.2029 -0.1819
  162SAPE   C3118078   5.559   2.158   3.374  0.4231 -0.3168  0.0474
  162SAPE   O3218079   5.546   2.228   3.280  1.1168  0.1166  0.7976
  162SAPE   C3218080   5.455   2.132   3.479 -0.1235  0.0460  0.2696
  162SAPE   H2X18081   5.447   2.028   3.518 -0.8866  0.1743  0.4614
  162SAPE   H2Y18082   5.357   2.158   3.435 -0.6592 -1.8765  0.2143
  162SAPE   C2318083   5.974   2.260   3.793 -0.1487 -0.1525  0.5573
  162SAPE   H3R18084   5.997   2.367   3.778  0.1763 -0.3988 -0.9245
  162SAPE   H3S18085   6.045   2.236   3.874  1.6591  2.6226 -0.0763
  162SAPE   C2418086   5.836   2.229   3.855 -0.1330  0.7725 -0.3842
  162SAPE   H4R18087   5.816   2.121   3.864 -0.8675  1.0187  1.2161
  162SAPE   H4S18088   5.758   2.260   3.782 -2.1006 -1.7818  0.4959
  162SAPE   C2518089   5.828   2.307   3.983  0.0340  0.3314 -0.2815
  162SAPE   H5R18090   5.763   2.395   3.983  1.0889  1.1365  0.3821
  162SAPE   C2618091   5.876   2.267   4.105 -0.5820  0.0401  0.3748
  162SAPE   H6R18092   5.878   2.335   4.191  1.8258 -0.4865  0.8034
  162SAPE   C2718093   5.955   2.136   4.124  0.2900 -0.3125 -0.7435
  162SAPE   H7R18094   5.960   2.078   4.030 -0.5668 -1.3880 -0.1560
  162SAPE   H7S18095   5.892   2.068   4.185  0.5019 -0.1336 -0.3213
  162SAPE   C2818096   6.095   2.150   4.183  0.3854  0.5934  0.3091
  162SAPE   H8R18097   6.171   2.151   4.103  2.0934 -1.9329  1.7347
  162SAPE   C2918098   6.124   2.172   4.310 -0.4397  0.1299 -0.2196
  162SAPE   H9R18099   6.229   2.183   4.341 -0.4552 -0.7594  0.1890
  162SAPE  C21018100   6.025   2.169   4.418  0.4212 -0.1439  0.4318
  162SAPE  H10R18101   5.931   2.116   4.388  1.5152 -1.6081 -0.5892
  162SAPE  H10S18102   6.004   2.270   4.459  1.5819 -0.0385  0.7990
  162SAPE  C21118103   6.082   2.091   4.539  0.1696 -0.4337 -0.0960
  162SAPE  H11R18104   6.175   2.032   4.528  0.2618 -0.7650  2.0351
  162SAPE  C21218105   6.013   2.057   4.650 -0.0323  0.6263  0.4423
  162SAPE  H12R18106   6.075   2.014   4.730  0.9420 -1.6233 -1.3864
  162SAPE  C21318107   5.857   2.077   4.669 -0.8302 -0.5132  0.1738
  162SAPE  H13R18108   5.823   2.167   4.613 -0.6429 -1.3714 -1.3681
  162SAPE  H13S18109   5.836   2.103   4.775 -0.8230 -0.1300  0.0848
  162SAPE  C21418110   5.796   1.946   4.633 -0.5965  0.3645  0.4086
  162SAPE  H14R18111   5.790   1.919   4.527 -0.1159  0.5789  0.3216
  162SAPE  C21518112   5.737   1.866   4.720  0.1619  0.0981  0.0173
  162SAPE  H15R18113   5.704   1.768   4.682  2.2015  0.4808 -3.0942
  162SAPE  C21618114   5.716   1.894   4.868 -0.2745  0.3811  0.3185
  162SAPE  H16R18115   5.698   2.002   4.890 -2.3031  0.1602 -0.0065
  162SAPE  H16S18116   5.813   1.860   4.909 -0.7245 -0.7912  0.4530
  162SAPE  C21718117   5.613   1.797   4.932 -0.2047 -0.2603 -0.1021
  162SAPE  H17R18118   5.520   1.807   4.873 -0.2258  3.3220  0.2911
  162SAPE  H17S18119   5.597   1.824   5.039 -0.2538 -2.0524  0.3656
  162SAPE  C21818120   5.656   1.650   4.933  0.0335  0.8851 -0.1458
  162SAPE  H18R18121   5.749   1.642   4.994 -0.2460  1.9227  0.4304
  162SAPE  H18S18122   5.673   1.621   4.827 -1.0863  0.8534 -0.3321
  162SAPE  C21918123   5.553   1.549   4.985  0.2932 -0.2395  0.2608
  162SAPE  H19R18124   5.461   1.591   4.940  0.5431 -0.3109 -0.3317
  162SAPE  H19S18125   5.542   1.561   5.095  0.8628 -0.5939  0.3630
  162SAPE  C22018126   5.593   1.410   4.954  0.0626  0.1978 -0.0561
  162SAPE  H20R18127   5.703   1.395   4.956  0.2400  1.3392 -0.6550
  162SAPE  H20S18128   5.571   1.389   4.847  0.5253  3.1479 -0.7980
  162SAPE  H20T18129   5.531   1.338   5.012 -0.0989 -1.5280 -2.2312
  162SAPE   C3318130   5.479   2.230   3.599 -0.7407  0.1745 -0.3567
  162SAPE   H3X18131   5.513   2.328   3.559  0.2107 -0.3776 -0.9289
  162SAPE   H3Y18132   5.560   2.183   3.658 -0.8942  0.0470 -0.2481
  162SAPE   C3418133   5.365   2.247   3.696  0.2198  0.9924  0.1109
  162SAPE   H4X18134   5.305   2.159   3.726 -3.0261  3.9425  3.4611
  162SAPE   H4Y18135   5.286   2.316   3.660  0.6456  2.2901  1.5341
  162SAPE   C3518136   5.428   2.288   3.833  0.1528  0.4153  0.0739
  162SAPE   H5X18137   5.491   2.379   3.824  0.0932  0.7808  2.5284
  162SAPE   H5Y18138   5.474   2.197   3.877 -4.2502 -2.1625 -0.0678
  162SAPE   C3618139   5.321   2.320   3.939 -0.4168  0.3295  0.9658
  162SAPE   H6X18140   5.244   2.243   3.918  0.7188 -0.7620  0.7352
  162SAPE   H6Y18141   5.279   2.418   3.906 -1.7915 -0.0036  1.6380
  162SAPE   C3718142   5.378   2.314   4.087 -0.2173 -0.2901 -0.4500
  162SAPE   H7X18143   5.418   2.213   4.110 -1.7403 -0.8325 -0.0437
  162SAPE   H7Y18144   5.294   2.340   4.155  0.1899 -0.1391  0.0005
  162SAPE   C3818145   5.483   2.427   4.105  0.8666  0.6043 -0.2398
  162SAPE   H8X18146   5.436   2.526   4.089  0.9433  0.2547 -3.1659
  162SAPE   H8Y18147   5.563   2.411   4.029  0.8327 -0.7857 -0.0165
  162SAPE   C3918148   5.553   2.415   4.247 -0.2668 -0.2515  0.3427
  162SAPE   H9X18149   5.609   2.321   4.260 -1.1160 -0.7232  0.6663
  162SAPE   H9Y18150   5.472   2.415   4.324  0.6380 -0.4402  1.3066
  162SAPE  C31018151   5.644   2.539   4.270  0.5050  0.3725 -0.0968
  162SAPE  H10X18152   5.588   2.629   4.236  1.3191  0.8820 -0.1344
  162SAPE  H10Y18153   5.733   2.531   4.204  0.4544  2.6502 -0.5221
  162SAPE  C31118154   5.680   2.546   4.418 -0.2292  0.1157 -0.8078
  162SAPE  H11X18155   5.585   2.541   4.474 -0.7305 -2.3090 -1.7282
  162SAPE  H11Y18156   5.715   2.651   4.425 -1.8934  0.6113  0.9477
  162SAPE  C31218157   5.782   2.444   4.475 -0.0348 -0.2982 -0.2151
  162SAPE  H12X18158   5.873   2.455   4.412  0.7417  3.9977  1.3742
  162SAPE  H12Y18159   5.735   2.343   4.467  2.1197 -1.2013 -2.6257
  162SAPE  C31318160   5.810   2.462   4.631 -0.4193  0.0809  1.1027
  162SAPE  H13X18161   5.858   2.562   4.623  1.6875 -0.9852 -1.1158
  162SAPE  H13Y18162   5.887   2.385   4.656  1.2069  1.1480 -0.3526
  162SAPE  C31418163   5.689   2.469   4.732  0.2261  0.1140  0.3379
  162SAPE  H14X18164   5.628   2.382   4.701 -0.2186  0.1925  0.9553
  162SAPE  H14Y18165   5.637   2.565   4.711 -0.8131 -0.7755 -1.3769
  162SAPE  C31518166   5.732   2.452   4.875 -0.0290 -0.2527  0.4115
  162SAPE  H15X18167   5.782   2.353   4.883  0.0177 -0.4947 -1.9704
  162SAPE  H15Y18168   5.635   2.452   4.929 -0.5280  1.9374 -0.3915
  162SAPE  C31618169   5.817   2.564   4.930  0.5329  0.8026 -0.6852
  162SAPE  H16X18170   5.750   2.652   4.939 -2.8143 -1.6271 -0.3277
  162SAPE  H16Y18171   5.901   2.596   4.865  0.9528 -1.1306 -1.1601
  162SAPE  C31718172   5.867   2.516   5.069  1.0126 -0.0949  0.2470
  162SAPE  H17X18173   5.922   2.421   5.051 -1.9819 -1.8289 -0.4924
  162SAPE  H17Y18174   5.780   2.482   5.129  0.5075 -1.9034 -1.4218
  162SAPE  C31818175   5.951   2.619   5.146  0.4662  0.2556 -0.5760
  162SAPE  H18X18176   5.899   2.714   5.171 -1.3158 -1.4189  2.8292
  162SAPE  H18Y18177   6.048   2.637   5.096  0.9506  1.2735  0.6730
  162SAPE  H18Z18178   5.973   2.569   5.243  0.7562  2.4580  0.5515
  163SAPE     N18179   0.169   2.776   3.160 -0.0548 -0.2771  0.2335
  163SAPE   HN118180   0.065   2.768   3.166  0.0417 -1.1505  0.9279
  163SAPE   HN218181   0.199   2.817   3.069  0.0380  0.3646  0.5494
  163SAPE   HN318182   0.217   2.684   3.165  1.0681  0.3434  1.4026
  163SAPE   C1218183   0.205   2.885   3.262  0.3807 -0.6657  0.3914
  163SAPE  H12A18184   0.142   2.975   3.243  1.5857  0.2076  0.3755
  163SAPE  H12B18185   0.312   2.911   3.250  0.3498 -1.1499 -1.0129
  163SAPE   C1118186   0.174   2.828   3.407 -0.5087  0.7003 -0.2233
  163SAPE  H11A18187   0.207   2.908   3.476 -0.1702 -0.3971  0.9179
  163SAPE  H11B18188   0.242   2.743   3.429 -0.9945  0.4909  0.5094
  163SAPE     P18189  -0.016   2.651   3.437  0.2031  0.1996 -0.0858
  163SAPE   O1318190  -0.164   2.659   3.443 -0.3817  0.3507 -0.5210
  163SAPE   O1418191   0.053   2.581   3.328 -0.1857  0.3857  0.5299
  163SAPE   O1218192   0.038   2.799   3.426  0.3797  0.2637 -0.4720
  163SAPE   O1118193   0.041   2.606   3.573  1.0211  0.6210  0.2748
  163SAPE    C118194  -0.044   2.559   3.680 -0.0218 -1.0211 -0.2755
  163SAPE    HA18195  -0.033   2.621   3.772  0.0048  0.5858 -1.3224
  163SAPE    HB18196  -0.150   2.554   3.646  0.7670  1.6528 -3.7675
  163SAPE    C218197  -0.019   2.408   3.715  0.4656  0.1360  0.5336
  163SAPE    HS18198  -0.105   2.368   3.774 -2.0265  0.1582 -2.8084
  163SAPE   O2118199   0.106   2.382   3.789 -0.0478 -0.5122 -0.2353
  163SAPE   C2118200   0.108   2.425   3.915 -0.1930 -0.7837  0.0908
  163SAPE   O2218201   0.019   2.493   3.966 -0.3622 -0.4624  0.6675
  163SAPE   C2218202   0.247   2.404   3.979 -0.3037 -0.1361 -0.1413
  163SAPE   H2R18203   0.320   2.389   3.897 -0.4129 -0.8739 -0.1147
  163SAPE   H2S18204   0.268   2.503   4.026 -1.5468 -0.6952  1.7011
  163SAPE    C318205  -0.019   2.315   3.582  0.5170 -0.2527 -0.1042
  163SAPE    HX18206   0.077   2.330   3.527  1.7890  2.1470  2.5197
  163SAPE    HY18207  -0.092   2.357   3.510  1.0662 -2.6193 -2.1816
  163SAPE   O3118208  -0.054   2.179   3.599  0.5142  0.1026  0.8770
  163SAPE   C3118209  -0.188   2.165   3.631 -0.1064 -0.3059 -0.1877
  163SAPE   O3218210  -0.274   2.246   3.637  0.2973 -1.0078 -0.2848
  163SAPE   C3218211  -0.224   2.016   3.658  0.1387 -0.6562  0.0617
  163SAPE   H2X18212  -0.147   1.973   3.726 -0.8508 -0.7180  1.1706
  163SAPE   H2Y18213  -0.222   1.962   3.561  0.8351 -4.2043  1.8719
  163SAPE   C2318214   0.255   2.296   4.084 -0.7031 -0.0707  0.8050
  163SAPE   H3R18215   0.168   2.298   4.153 -1.5008  1.0785 -0.1859
  163SAPE   H3S18216   0.356   2.298   4.129  0.4927 -0.2275 -1.6649
  163SAPE   C2418217   0.243   2.159   4.013  0.2226 -0.4719 -0.8042
  163SAPE   H4R18218   0.145   2.170   3.962 -0.1247  0.3354 -0.0057
  163SAPE   H4S18219   0.225   2.076   4.085 -0.0118 -0.0437 -0.3610
  163SAPE   C2518220   0.355   2.128   3.923  0.0031 -0.0492 -1.1250
  163SAPE   H5R18221   0.449   2.152   3.976 -1.1564  1.5671  0.3039
  163SAPE   C2618222   0.360   2.076   3.802 -0.1674 -0.1982 -0.3709
  163SAPE   H6R18223   0.457   2.067   3.750 -0.0723  0.7920 -0.3869
  163SAPE   C2718224   0.226   2.058   3.726 -0.8585  0.2296 -0.4985
  163SAPE   H7R18225   0.191   2.158   3.693 -1.7092  0.3507  0.6813
  163SAPE   H7S18226   0.146   2.018   3.792 -0.5659 -0.3891 -0.5151
  163SAPE   C2818227   0.248   1.953   3.617 -0.7272  0.2835  0.0141
  163SAPE   H8R18228   0.309   1.993   3.534  1.4831 -1.9345  0.4447
  163SAPE   C2918229   0.223   1.823   3.618  0.1182 -0.4387 -0.2168
  163SAPE   H9R18230   0.264   1.756   3.541 -2.6663 -1.6085 -0.8062
  163SAPE  C21018231   0.163   1.748   3.730  1.5594  0.8730 -0.5802
  163SAPE  H10R18232   0.098   1.665   3.695  1.4329  1.2057 -1.1402
  163SAPE  H10S18233   0.086   1.813   3.776  1.2778 -0.8116  1.5350
  163SAPE  C21118234   0.262   1.706   3.837 -0.0287  0.0402  0.1475
  163SAPE  H11R18235   0.370   1.715   3.814  0.2505 -2.6292  0.1170
  163SAPE  C21218236   0.224   1.659   3.960  0.1164  0.7686 -0.4771
  163SAPE  H12R18237   0.296   1.623   4.034 -1.1997  2.4055  1.7467
  163SAPE  C21318238   0.084   1.642   4.010  0.2410  0.8724  1.0987
  163SAPE  H13R18239   0.074   1.542   4.057 -1.9537  2.1869  3.7617
  163SAPE  H13S18240   0.018   1.638   3.921 -0.3101  0.9070  1.5003
  163SAPE  C21418241   0.046   1.756   4.098 -0.7469  0.2275  0.3456
  163SAPE  H14R18242   0.022   1.845   4.039 -0.5737 -0.2909 -0.5202
  163SAPE  C21518243   0.052   1.767   4.229 -0.1629  0.1733 -0.1863
  163SAPE  H15R18244   0.010   1.858   4.274 -0.6946  0.9065 -2.0602
  163SAPE  C21618245   0.095   1.664   4.321  0.1957 -0.3344 -0.3799
  163SAPE  H16R18246   0.159   1.702   4.403 -0.3983 -2.6194  1.2494
  163SAPE  H16S18247   0.171   1.599   4.270 -1.9911 -1.7599 -2.0160
  163SAPE  C21718248  -0.018   1.581   4.378  0.3711  0.1646  0.1763
  163SAPE  H17R18249  -0.061   1.522   4.295 -0.2514  1.5379 -0.5208
  163SAPE  H17S18250  -0.101   1.648   4.407 -1.1234 -0.7522 -1.7908
  163SAPE  C21818251   0.029   1.492   4.488 -0.1099  0.7718 -0.3287
  163SAPE  H18R18252   0.073   1.557   4.567 -0.7508  0.3775  0.3611
  163SAPE  H18S18253   0.106   1.428   4.442  0.4610  2.6718 -2.1577
  163SAPE  C21918254  -0.080   1.399   4.540  0.6019 -0.2554 -0.6436
  163SAPE  H19R18255  -0.097   1.329   4.455 -0.1028  0.5508 -1.1884
  163SAPE  H19S18256  -0.172   1.457   4.560  1.5652 -0.1210  4.8387
  163SAPE  C22018257  -0.057   1.321   4.672 -0.1940  0.1625  0.3074
  163SAPE  H20R18258  -0.067   1.394   4.755 -0.8156  2.4153 -1.6118
  163SAPE  H20S18259   0.047   1.283   4.660  0.3012  0.3875  3.0970
  163SAPE  H20T18260  -0.135   1.243   4.681 -1.1389  0.7176 -2.1517
  163SAPE   C3318261  -0.370   2.008   3.719 -0.6558  0.6820 -0.6301
  163SAPE   H3X18262  -0.390   1.899   3.730 -0.4867  0.7339  0.2179
  163SAPE   H3Y18263  -0.447   2.044   3.648 -1.9361  0.2805  0.5129
  163SAPE   C3418264  -0.401   2.069   3.858 -0.2956  0.1303 -0.0976
  163SAPE   H4X18265  -0.495   2.022   3.893  0.4996 -1.3084  0.1657
  163SAPE   H4Y18266  -0.412   2.180   3.851  1.6784  0.4068  0.6150
  163SAPE   C3518267  -0.294   2.048   3.966 -0.6589  0.2668 -0.2013
  163SAPE   H5X18268  -0.215   2.122   3.942  0.6541 -0.4735  1.5947
  163SAPE   H5Y18269  -0.251   1.947   3.951  1.1513  1.2365 -1.9281
  163SAPE   C3618270  -0.337   2.072   4.120  0.7590  0.5533 -0.2086
  163SAPE   H6X18271  -0.416   1.996   4.142  0.9267  0.5942  0.5523
  163SAPE   H6Y18272  -0.395   2.167   4.125 -1.3407 -0.4109 -3.1010
  163SAPE   C3718273  -0.213   2.053   4.203  0.1152 -0.4912 -0.0227
  163SAPE   H7X18274  -0.142   2.127   4.160 -1.7704  0.4061 -1.7923
  163SAPE   H7Y18275  -0.185   1.948   4.183  1.2315 -0.3911  0.8876
  163SAPE   C3818276  -0.235   2.066   4.354  0.0255 -0.5551 -1.1842
  163SAPE   H8X18277  -0.266   2.168   4.386 -0.3417 -0.8249 -0.6470
  163SAPE   H8Y18278  -0.134   2.052   4.398 -0.3997 -0.3048 -0.0750
  163SAPE   C3918279  -0.327   1.962   4.414 -0.4528  1.0792 -0.4049
  163SAPE   H9X18280  -0.356   1.887   4.337 -1.4916  0.0355  0.9442
  163SAPE   H9Y18281  -0.416   2.022   4.445 -0.8398  0.1144  0.4322
  163SAPE  C31018282  -0.273   1.885   4.539 -0.3674  0.1024  0.3325
  163SAPE  H10X18283  -0.185   1.824   4.507 -0.5216  0.1170 -0.1277
  163SAPE  H10Y18284  -0.358   1.824   4.576 -0.5814 -0.1121 -0.5012
  163SAPE  C31118285  -0.236   1.978   4.655 -0.2751 -0.9583 -0.4821
  163SAPE  H11X18286  -0.329   2.037   4.671  1.1200  1.4084 -0.5862
  163SAPE  H11Y18287  -0.166   2.058   4.625 -0.8270 -0.5656 -0.7356
  163SAPE  C31218288  -0.199   1.909   4.785  0.4760 -0.3486  0.5557
  163SAPE  H12X18289  -0.284   1.846   4.819  1.0664 -1.4616  0.0167
  163SAPE  H12Y18290  -0.180   1.987   4.861 -0.2560  1.2293 -0.8128
  163SAPE  C31318291  -0.080   1.816   4.778  0.0536  0.7690 -0.5107
  163SAPE  H13X18292  -0.083   1.748   4.690  0.2599 -0.0553  0.1013
  163SAPE  H13Y18293  -0.081   1.755   4.870 -3.2843  3.3213  1.3513
  163SAPE  C31418294   0.061   1.884   4.782  0.3763 -0.5439  0.1881
  163SAPE  H14X18295   0.137   1.815   4.824 -0.6301 -1.1599  1.0399
  163SAPE  H14Y18296   0.055   1.960   4.862 -3.1090 -1.0008  0.5190
  163SAPE  C31518297   0.111   1.932   4.643 -0.3765  0.3678 -0.7044
  163SAPE  H15X18298   0.033   2.002   4.606 -1.1056 -0.0441  0.0212
  163SAPE  H15Y18299   0.125   1.846   4.574  1.0704  0.0005 -0.0032
  163SAPE  C31618300   0.247   2.002   4.672  0.1814 -0.1129  0.3987
  163SAPE  H16X18301   0.305   1.935   4.740 -1.0365 -0.4182  1.1608
  163SAPE  H16Y18302   0.232   2.097   4.727  0.5780 -0.3060  0.8553
  163SAPE  C31718303   0.315   2.042   4.542  0.5042 -0.1217  0.2464
  163SAPE  H17X18304   0.340   1.945   4.494  1.6678 -1.1027  2.6927
  163SAPE  H17Y18305   0.405   2.105   4.561  1.0757 -1.2381  1.3895
  163SAPE  C31818306   0.222   2.121   4.447  0.5581 -0.7668  0.1968
  163SAPE  H18X18307   0.209   2.224   4.486  0.8987 -0.6252 -0.0640
  163SAPE  H18Y18308   0.117   2.091   4.428 -0.3845  1.2651  1.7669
  163SAPE  H18Z18309   0.275   2.127   4.350 -0.7586  0.2881 -0.4875
  164SAPE     N18310   1.861   2.906   3.060  0.0087 -0.0430 -0.2422
  164SAPE   HN118311   1.768   2.914   3.107 -1.0129 -1.1491 -1.9517
  164SAPE   HN218312   1.912   2.827   3.104 -0.6791  0.1018  0.8502
  164SAPE   HN318313   1.923   2.985   3.085  0.5460 -0.1713 -1.1494
  164SAPE   C1218314   1.832   2.881   2.914 -0.4600 -0.4563 -0.5118
  164SAPE  H12A18315   1.745   2.812   2.914 -1.8501  1.1591  1.4386
  164SAPE  H12B18316   1.925   2.844   2.866  0.3356 -1.2324  1.5173
  164SAPE   C1118317   1.791   3.007   2.830  0.1849  0.3686  0.0012
  164SAPE  H11A18318   1.701   3.046   2.881 -0.0255 -1.9894  1.5761
  164SAPE  H11B18319   1.756   2.995   2.725  0.9836 -3.1122  0.0243
  164SAPE     P18320   1.893   3.245   2.802  0.0995 -0.0724  0.2519
  164SAPE   O1318321   2.015   3.311   2.855  0.0621  0.5210  0.5714
  164SAPE   O1418322   1.867   3.242   2.654 -0.1763 -0.2576 -0.1498
  164SAPE   O1218323   1.900   3.095   2.847 -0.3534  0.1561  0.2997
  164SAPE   O1118324   1.763   3.298   2.878  0.4762 -0.1329  0.5199
  164SAPE    C118325   1.758   3.421   2.944 -0.0324 -0.0735  0.1356
  164SAPE    HA18326   1.809   3.507   2.897 -1.8637  0.2525 -1.3896
  164SAPE    HB18327   1.655   3.462   2.939  0.3940  1.2159  1.3357
  164SAPE    C218328   1.793   3.409   3.097  0.7725  0.0335  0.2179
  164SAPE    HS18329   1.741   3.494   3.145 -0.2830  0.2318 -1.2098
  164SAPE   O2118330   1.937   3.410   3.121  0.1201 -0.5245 -0.4890
  164SAPE   C2118331   1.985   3.525   3.150  0.7522 -0.5704 -0.6142
  164SAPE   O2218332   1.928   3.630   3.168 -0.3043 -0.1252  0.4897
  164SAPE   C2218333   2.142   3.520   3.147  0.2264  0.3575  0.0706
  164SAPE   H2R18334   2.161   3.445   3.066 -3.4012  1.3867 -1.9559
  164SAPE   H2S18335   2.159   3.622   3.108 -4.5480  1.0667 -0.6925
  164SAPE    C318336   1.718   3.287   3.152  1.0552 -0.1231 -0.5401
  164SAPE    HX18337   1.760   3.192   3.111  1.1501 -0.7197  0.8913
  164SAPE    HY18338   1.613   3.288   3.117  1.2216  2.0199 -1.0857
  164SAPE   O3118339   1.724   3.292   3.298  0.1970 -0.6991  0.6498
  164SAPE   C3118340   1.832   3.226   3.351  0.0441 -0.1647  0.0555
  164SAPE   O3218341   1.917   3.163   3.291 -1.0740 -0.6303  0.1361
  164SAPE   C3218342   1.831   3.239   3.495  0.1298 -0.2016 -0.4531
  164SAPE   H2X18343   1.794   3.337   3.533 -1.7813 -1.5358  1.3868
  164SAPE   H2Y18344   1.934   3.232   3.537 -1.0382 -1.6868  2.4460
  164SAPE   C2318345   2.202   3.488   3.286  0.6596  0.6830 -0.4282
  164SAPE   H3R18346   2.312   3.474   3.282  0.5223 -0.3550 -0.7637
  164SAPE   H3S18347   2.161   3.393   3.327  0.5856  1.8993  2.5808
  164SAPE   C2418348   2.170   3.597   3.396  0.2730 -0.5407 -0.5955
  164SAPE   H4R18349   2.109   3.684   3.367 -0.3070 -1.0255 -0.8568
  164SAPE   H4S18350   2.267   3.641   3.428 -0.7134 -0.0068  1.8311
  164SAPE   C2518351   2.127   3.522   3.520  0.0805 -0.3852 -0.5334
  164SAPE   H5R18352   2.201   3.448   3.554  0.1365 -0.8488 -1.6088
  164SAPE   C2618353   2.004   3.534   3.578 -0.0933 -0.5332 -0.1290
  164SAPE   H6R18354   1.989   3.479   3.672  1.6386 -0.7788  0.0354
  164SAPE   C2718355   1.896   3.624   3.542 -0.2277 -0.0001 -0.0827
  164SAPE   H7R18356   1.838   3.588   3.455  0.6809  1.5414 -1.3782
  164SAPE   H7S18357   1.944   3.716   3.504  2.4868 -1.6502 -0.9757
  164SAPE   C2818358   1.806   3.657   3.661  0.2130  0.3856  0.5010
  164SAPE   H8R18359   1.700   3.646   3.633 -0.4905  1.9573  2.3366
  164SAPE   C2918360   1.822   3.683   3.792 -0.2117 -0.0347 -0.2239
  164SAPE   H9R18361   1.734   3.719   3.847 -1.2094 -2.0729 -0.4268
  164SAPE  C21018362   1.953   3.700   3.866  0.1385 -0.1225  0.4646
  164SAPE  H10R18363   1.972   3.808   3.884 -0.4360 -0.1083  1.0382
  164SAPE  H10S18364   2.043   3.665   3.811  2.0445  2.4448  1.7121
  164SAPE  C21118365   1.945   3.633   3.998  0.0625  0.3484 -0.6035
  164SAPE  H11R18366   1.954   3.524   4.004  2.2569  0.5412  3.2403
  164SAPE  C21218367   1.916   3.692   4.116 -0.2469  0.2644  0.6826
  164SAPE  H12R18368   1.934   3.621   4.198  1.0107 -3.0485 -2.1898
  164SAPE  C21318369   1.887   3.836   4.156  0.4413  0.6131  0.9915
  164SAPE  H13R18370   1.777   3.841   4.142  0.6947 -0.2553 -2.0725
  164SAPE  H13S18371   1.910   3.910   4.077  1.2675 -0.6454 -0.0002
  164SAPE  C21418372   1.948   3.893   4.282  0.6118 -0.6730  0.2715
  164SAPE  H14R18373   2.056   3.914   4.286  0.4140  0.3228  0.8203
  164SAPE  C21518374   1.889   3.914   4.399  0.8888 -0.9652 -0.3189
  164SAPE  H15R18375   1.943   3.950   4.487 -2.6125 -0.8440  1.9588
  164SAPE  C21618376   1.738   3.897   4.417  0.2727 -0.1505 -0.4376
  164SAPE  H16R18377   1.707   3.791   4.418 -0.0231 -0.0703  0.5639
  164SAPE  H16S18378   1.680   3.931   4.329 -0.9661  0.2444  0.4994
  164SAPE  C21718379   1.675   3.971   4.533  0.1530 -0.1554 -0.2092
  164SAPE  H17R18380   1.566   3.951   4.538 -0.3818  1.7269 -2.6524
  164SAPE  H17S18381   1.690   4.081   4.530 -0.5072 -0.0115  1.0933
  164SAPE  C21818382   1.741   3.934   4.668  0.4800 -0.6286  0.4101
  164SAPE  H18R18383   1.835   3.994   4.671  0.4756 -0.6499  2.1397
  164SAPE  H18S18384   1.769   3.827   4.672  1.3196 -0.3814  1.7362
  164SAPE  C21918385   1.637   3.956   4.782  0.1574 -0.4306 -1.0588
  164SAPE  H19R18386   1.578   3.862   4.790 -2.2435  1.1694  3.0189
  164SAPE  H19S18387   1.574   4.043   4.757 -0.6156 -0.2636  1.2533
  164SAPE  C22018388   1.706   3.971   4.920  0.4597  0.1009  0.0108
  164SAPE  H20R18389   1.789   4.045   4.919  1.4015 -0.9319 -0.6197
  164SAPE  H20S18390   1.733   3.874   4.966  2.5603  1.3114  1.5346
  164SAPE  H20T18391   1.623   4.012   4.982  0.2681 -0.8536  0.4011
  164SAPE   C3318392   1.752   3.126   3.569  0.0170 -0.0788  1.0595
  164SAPE   H3X18393   1.765   3.023   3.531 -1.6889  0.4573 -1.1818
  164SAPE   H3Y18394   1.644   3.149   3.557 -0.4998 -2.3982  0.7880
  164SAPE   C3418395   1.779   3.120   3.718  0.1414 -0.2845  0.6026
  164SAPE   H4X18396   1.765   3.223   3.757 -1.3855 -0.3412  0.2567
  164SAPE   H4Y18397   1.886   3.099   3.739  0.3445  0.7550  0.6766
  164SAPE   C3518398   1.679   3.034   3.796  0.1912 -0.0643 -0.0693
  164SAPE   H5X18399   1.691   2.927   3.770 -0.8067  0.4508 -2.9595
  164SAPE   H5Y18400   1.575   3.067   3.774  0.1782 -1.0587 -1.6138
  164SAPE   C3618401   1.701   3.051   3.943  0.1230  0.2045 -0.4212
  164SAPE   H6X18402   1.613   3.093   3.997  0.5336  0.1599  0.3024
  164SAPE   H6Y18403   1.789   3.113   3.971  0.7481 -0.8095 -0.0608
  164SAPE   C3718404   1.733   2.920   4.019 -0.0393  0.4105 -0.8749
  164SAPE   H7X18405   1.823   2.867   3.980  0.2934  0.6633 -0.4704
  164SAPE   H7Y18406   1.642   2.857   4.020 -0.7355  1.3235  1.4943
  164SAPE   C3818407   1.769   2.951   4.168 -0.0367  0.0471  0.3168
  164SAPE   H8X18408   1.828   3.045   4.171  2.3114 -1.1907 -2.2727
  164SAPE   H8Y18409   1.827   2.870   4.217  0.4711  0.8955  1.1433
  164SAPE   C3918410   1.645   2.957   4.256 -0.1728  0.5737  0.0062
  164SAPE   H9X18411   1.576   2.872   4.235  0.8408  0.1390 -1.7781
  164SAPE   H9Y18412   1.585   3.035   4.206  0.1475 -0.7702 -2.6598
  164SAPE  C31018413   1.682   2.987   4.406  0.2068  0.5740 -1.2362
  164SAPE  H10X18414   1.756   3.070   4.399  0.2368  0.4718 -2.1572
  164SAPE  H10Y18415   1.740   2.904   4.453  0.2286  1.3493  0.1793
  164SAPE  C31118416   1.557   3.017   4.496 -0.1765  0.3734  1.2462
  164SAPE  H11X18417   1.470   2.950   4.475  0.0866  0.3210  0.3031
  164SAPE  H11Y18418   1.520   3.115   4.458  0.0734 -0.3494 -0.9757
  164SAPE  C31218419   1.577   3.035   4.645  0.1119  0.0207 -0.5112
  164SAPE  H12X18420   1.673   3.090   4.658  0.2722 -0.3028 -0.3266
  164SAPE  H12Y18421   1.588   2.935   4.693  0.4547  1.4077  2.5325
  164SAPE  C31318422   1.445   3.097   4.706 -0.3934  0.5881 -0.5379
  164SAPE  H13X18423   1.368   3.017   4.703 -1.0107  0.8603  2.9242
  164SAPE  H13Y18424   1.393   3.182   4.656 -0.3822  0.5457 -0.6208
  164SAPE  C31418425   1.474   3.116   4.858 -0.4737  0.7262  0.2800
  164SAPE  H14X18426   1.561   3.186   4.858  0.7069 -0.6465 -1.0856
  164SAPE  H14Y18427   1.509   3.026   4.914  1.2922  1.0198 -0.2894
  164SAPE  C31518428   1.351   3.139   4.938  0.6135 -0.6790 -0.0862
  164SAPE  H15X18429   1.277   3.059   4.914  1.5091 -1.7533  0.6478
  164SAPE  H15Y18430   1.298   3.231   4.904 -1.0287 -2.2198 -1.9579
  164SAPE  C31618431   1.377   3.143   5.090 -0.2818  1.2137  0.7459
  164SAPE  H16X18432   1.412   3.050   5.140  1.7841  1.4095 -0.1965
  164SAPE  H16Y18433   1.281   3.167   5.139 -0.5541  0.2230  0.7228
  164SAPE  C31718434   1.478   3.248   5.128 -0.2552 -0.4797  0.6020
  164SAPE  H17X18435   1.578   3.218   5.092 -2.2154 -1.9121 -4.5417
  164SAPE  H17Y18436   1.468   3.253   5.239 -1.7286  0.3896  0.4640
  164SAPE  C31818437   1.442   3.392   5.079  0.1585 -0.3745 -0.2782
  164SAPE  H18X18438   1.415   3.382   4.972 -0.3814 -1.2482 -0.0739
  164SAPE  H18Y18439   1.527   3.463   5.076  0.0665 -0.1735  1.0520
  164SAPE  H18Z18440   1.371   3.437   5.151  0.5483 -3.2309  2.0994
  165SAPE     N18441   5.984   3.694   2.777  0.2100  0.7025 -0.5996
  165SAPE   HN118442   6.070   3.732   2.733  1.6519 -0.7456  0.8327
  165SAPE   HN218443   5.989   3.591   2.789  0.4779  0.8521  0.7068
  165SAPE   HN318444   5.892   3.711   2.731 -0.7730  0.1203  1.0668
  165SAPE   C1218445   5.956   3.738   2.924 -0.2160  0.1006  0.0395
  165SAPE  H12A18446   5.860   3.685   2.942  0.2211 -0.7881 -0.1512
  165SAPE  H12B18447   5.944   3.848   2.926  0.6764  0.1935  1.6156
  165SAPE   C1118448   6.064   3.690   3.027 -0.0225 -1.1333  0.2427
  165SAPE  H11A18449   6.039   3.590   3.069  0.8208 -1.0261  1.0231
  165SAPE  H11B18450   6.054   3.756   3.116 -0.3048 -0.1405 -0.5018
  165SAPE     P18451   6.320   3.631   3.054 -0.3466 -0.1529  0.2323
  165SAPE   O1318452   6.291   3.497   3.102  0.6001 -0.0074  0.1776
  165SAPE   O1418453   6.431   3.642   2.958  0.0450 -0.7452 -0.1871
  165SAPE   O1218454   6.196   3.699   2.978 -0.0255 -0.0621 -0.7326
  165SAPE   O1118455   6.348   3.733   3.170 -0.9095  0.4824 -0.2481
  165SAPE    C118456   6.449   3.834   3.157  0.2805 -0.3743 -0.1058
  165SAPE    HA18457   6.542   3.781   3.127 -0.6855 -0.1953 -3.9262
  165SAPE    HB18458   6.428   3.897   3.068 -0.9148  0.9900  1.0743
  165SAPE    C218459   6.475   3.909   3.286  0.0909 -0.0412 -0.4778
  165SAPE    HS18460   6.375   3.949   3.313  0.3502  0.7932 -0.7417
  165SAPE   O2118461   6.576   4.002   3.262 -0.2019  0.3074  0.0077
  165SAPE   C2118462   6.562   4.115   3.331  0.0956 -0.1758 -0.0702
  165SAPE   O2218463   6.472   4.133   3.411  0.2166 -0.0492 -0.4079
  165SAPE   C2218464   6.680   4.214   3.296  0.0845  0.3994 -0.4437
  165SAPE   H2R18465   6.760   4.138   3.303 -0.3410  0.0019  0.2397
  165SAPE   H2S18466   6.683   4.245   3.189 -1.1237  0.4927 -0.4624
  165SAPE    C318467   6.514   3.815   3.404 -0.0931  0.5661  0.9497
  165SAPE    HX18468   6.611   3.761   3.398 -0.1575  0.5555 -0.3122
  165SAPE    HY18469   6.449   3.726   3.416  1.5937 -0.5679  1.9152
  165SAPE   O3118470   6.519   3.888   3.527 -0.4098 -0.0644 -0.1193
  165SAPE   C3118471   6.400   3.914   3.582  0.2487 -0.4382  0.2905
  165SAPE   O3218472   6.296   3.892   3.524 -0.3960  0.0590 -0.3302
  165SAPE   C3218473   6.419   3.986   3.717  0.4080 -0.4004 -0.3354
  165SAPE   H2X18474   6.421   4.094   3.690  2.5407 -0.6452 -1.4409
  165SAPE   H2Y18475   6.515   3.951   3.761 -0.5788 -0.5406  1.8301
  165SAPE   C2318476   6.687   4.329   3.402 -0.0781 -0.8061 -0.0158
  165SAPE   H3R18477   6.688   4.281   3.502  1.1951  1.3058  1.0642
  165SAPE   H3S18478   6.597   4.393   3.394 -1.2099 -2.3920 -0.2324
  165SAPE   C2418479   6.806   4.425   3.393  0.0785  0.5299 -0.0671
  165SAPE   H4R18480   6.811   4.499   3.477  0.9432  2.0729 -1.4069
  165SAPE   H4S18481   6.797   4.490   3.303 -4.3744 -1.8382 -1.6156
  165SAPE   C2518482   6.932   4.341   3.381 -0.1045 -0.6731  0.3648
  165SAPE   H5R18483   6.952   4.303   3.280  1.7106 -0.7881  0.7279
  165SAPE   C2618484   7.026   4.313   3.476 -0.3296  0.0903  0.1084
  165SAPE   H6R18485   7.115   4.251   3.458 -1.4347 -1.3359 -0.5673
  165SAPE   C2718486   7.052   4.382   3.611  0.2831 -0.5140  0.2193
  165SAPE   H7R18487   6.982   4.468   3.612  0.9175  0.0392 -0.9274
  165SAPE   H7S18488   7.154   4.425   3.620 -0.1844  0.4073  1.3290
  165SAPE   C2818489   7.020   4.286   3.721 -0.2404  0.1512  0.8607
  165SAPE   H8R18490   6.912   4.274   3.738 -0.3244 -1.4489 -0.5390
  165SAPE   C2918491   7.101   4.238   3.807 -0.2987  0.7890 -0.7328
  165SAPE   H9R18492   7.056   4.172   3.883  1.7142  0.6908  0.4482
  165SAPE  C21018493   7.252   4.254   3.801  0.6527  0.1535  0.6363
  165SAPE  H10R18494   7.273   4.362   3.789  0.9553 -0.0175 -0.5034
  165SAPE  H10S18495   7.289   4.202   3.709  0.7015  1.1306  0.0901
  165SAPE  C21118496   7.332   4.203   3.916 -0.7190 -0.3758 -0.1885
  165SAPE  H11R18497   7.370   4.100   3.913 -2.3851 -0.9930 -2.0583
  165SAPE  C21218498   7.366   4.270   4.026  1.1016 -0.7685 -0.1128
  165SAPE  H12R18499   7.426   4.217   4.101  1.1188  1.2519  1.3596
  165SAPE  C21318500   7.324   4.419   4.045 -1.0419  0.1411  0.5676
  165SAPE  H13R18501   7.268   4.470   3.964  0.0749  0.2531 -0.1566
  165SAPE  H13S18502   7.422   4.472   4.045 -0.9440 -0.0080 -0.8846
  165SAPE  C21418503   7.249   4.435   4.174 -0.4689 -0.3043  0.0462
  165SAPE  H14R18504   7.171   4.359   4.188 -1.1884  0.5305  0.6486
  165SAPE  C21518505   7.278   4.517   4.276 -0.9806  0.4069  0.3033
  165SAPE  H15R18506   7.227   4.502   4.372  1.2974 -1.4628  1.3064
  165SAPE  C21618507   7.375   4.630   4.280 -0.3670 -0.2515 -0.5146
  165SAPE  H16R18508   7.322   4.728   4.280  2.5354  1.4239 -0.8499
  165SAPE  H16S18509   7.447   4.621   4.197  1.0883 -0.2356  0.6970
  165SAPE  C21718510   7.450   4.643   4.419 -0.2466 -0.0869 -0.1198
  165SAPE  H17R18511   7.539   4.576   4.419  1.1153  1.6377  1.4011
  165SAPE  H17S18512   7.385   4.612   4.503  2.0667 -1.0421  1.4095
  165SAPE  C21818513   7.501   4.784   4.447  0.6695 -0.3775 -0.1794
  165SAPE  H18R18514   7.431   4.869   4.434  2.0876  0.9332  0.3506
  165SAPE  H18S18515   7.590   4.799   4.382  1.9070  0.8842  1.6975
  165SAPE  C21918516   7.557   4.788   4.590  0.3279 -0.5474 -0.0167
  165SAPE  H19R18517   7.637   4.713   4.605  0.8349  0.0602  0.3524
  165SAPE  H19S18518   7.472   4.763   4.656 -2.8037  1.5419 -2.8563
  165SAPE  C22018519   7.596   4.927   4.631  0.1460  0.9857  0.3360
  165SAPE  H20R18520   7.517   5.004   4.615 -0.2258  0.1976 -2.0060
  165SAPE  H20S18521   7.692   4.948   4.580  0.5246 -1.4483 -0.0694
  165SAPE  H20T18522   7.624   4.926   4.739  2.6115 -0.4433 -0.2572
  165SAPE   C3318523   6.307   3.960   3.827 -0.8787 -0.1882 -0.0135
  165SAPE   H3X18524   6.301   3.852   3.851  0.2244 -0.8974 -2.5873
  165SAPE   H3Y18525   6.205   3.996   3.803 -0.7828  0.9796  1.2170
  165SAPE   C3418526   6.334   4.028   3.966  1.1231 -0.1091 -0.4965
  165SAPE   H4X18527   6.313   4.134   3.945 -1.0785 -0.7562 -1.8498
  165SAPE   H4Y18528   6.439   3.998   3.987  0.4901 -1.8920  0.4049
  165SAPE   C3518529   6.246   3.956   4.071  0.1393 -0.0932 -0.3080
  165SAPE   H5X18530   6.272   3.848   4.077 -0.2604 -0.2261 -0.8820
  165SAPE   H5Y18531   6.138   3.965   4.045 -0.7207  0.0830  2.9224
  165SAPE   C3618532   6.249   4.012   4.213  0.3841  0.1117  0.3604
  165SAPE   H6X18533   6.220   4.119   4.216 -0.2130 -0.0589  2.9372
  165SAPE   H6Y18534   6.351   4.007   4.259  2.6370 -1.3056 -4.2072
  165SAPE   C3718535   6.156   3.943   4.308 -0.1761  0.1541 -0.3454
  165SAPE   H7X18536   6.175   3.835   4.324  1.0292  0.3289 -0.4873
  165SAPE   H7Y18537   6.053   3.942   4.267 -0.4646  1.1268  0.3058
  165SAPE   C3818538   6.154   4.010   4.451  0.0571  0.1956  0.3293
  165SAPE   H8X18539   6.099   4.106   4.442  1.2105  1.1932  3.0444
  165SAPE   H8Y18540   6.256   4.041   4.480  0.6618  1.9931 -3.0984
  165SAPE   C3918541   6.090   3.918   4.560 -1.1725 -0.1050 -0.2356
  165SAPE   H9X18542   6.146   3.823   4.573 -3.3189 -1.2456  1.2725
  165SAPE   H9Y18543   5.993   3.883   4.520  1.0136 -3.2388 -3.3640
  165SAPE  C31018544   6.082   3.978   4.697 -0.1468 -0.3112 -0.4259
  165SAPE  H10X18545   6.034   3.900   4.760 -0.7452 -0.9979 -1.7029
  165SAPE  H10Y18546   6.033   4.078   4.692  1.8377  0.8638  1.3134
  165SAPE  C31118547   6.218   4.023   4.756  0.0405  0.4811  0.3693
  165SAPE  H11X18548   6.268   4.101   4.695 -0.3496  0.6459  0.2557
  165SAPE  H11Y18549   6.277   3.929   4.763 -3.1798 -1.6871  0.4042
  165SAPE  C31218550   6.189   4.070   4.902 -0.1800 -0.1605 -0.0901
  165SAPE  H12X18551   6.139   3.980   4.945 -0.0912 -0.4164 -0.5142
  165SAPE  H12Y18552   6.122   4.158   4.912 -0.6506 -0.3405 -1.4606
  165SAPE  C31318553   6.314   4.102   4.986 -1.0773  0.7589  0.0257
  165SAPE  H13X18554   6.387   4.177   4.949 -0.3442  1.1236  2.0730
  165SAPE  H13Y18555   6.367   4.005   5.000 -1.6272  0.6439  1.5246
  165SAPE  C31418556   6.277   4.138   5.131  0.3520 -0.3135 -0.2346
  165SAPE  H14X18557   6.226   4.052   5.180  0.2348 -0.0293  0.1438
  165SAPE  H14Y18558   6.200   4.217   5.118 -0.4288 -0.9378  0.4738
  165SAPE  C31518559   6.396   4.176   5.217  0.0164  0.2867 -0.6272
  165SAPE  H15X18560   6.454   4.255   5.164 -3.5367  2.1297 -2.1296
  165SAPE  H15Y18561   6.457   4.086   5.239 -0.3231 -0.2218 -1.7013
  165SAPE  C31618562   6.335   4.226   5.346 -0.0411 -0.1414 -0.9749
  165SAPE  H16X18563   6.287   4.143   5.402 -0.6254  0.4500 -0.5871
  165SAPE  H16Y18564   6.260   4.307   5.348  1.3523  1.1976  0.5363
  165SAPE  C31718565   6.445   4.283   5.437  0.2083 -1.0795 -0.4225
  165SAPE  H17X18566   6.493   4.379   5.411 -0.3751 -0.6320  0.1030
  165SAPE  H17Y18567   6.523   4.204   5.437 -1.8808 -3.2737  0.7486
  165SAPE  C31818568   6.402   4.286   5.586 -0.4113 -0.1071 -0.6954
  165SAPE  H18X18569   6.334   4.202   5.612  0.4025 -0.3230  0.8186
  165SAPE  H18Y18570   6.338   4.374   5.605 -0.5251 -0.1043 -1.0715
  165SAPE  H18Z18571   6.490   4.284   5.654 -1.8524  2.7329  1.4410
  166SAPE     N18572   6.813   3.257   2.956  0.0939  0.9967  0.2751
  166SAPE   HN118573   6.814   3.161   2.995 -3.8685  0.7246  0.1397
  166SAPE   HN218574   6.767   3.318   3.027 -2.2237 -0.3324  0.0378
  166SAPE   HN318575   6.754   3.247   2.871  1.1748 -0.5182 -0.3437
  166SAPE   C1218576   6.957   3.301   2.918  0.3864 -0.0355 -0.7498
  166SAPE  H12A18577   7.010   3.299   3.015 -1.6428  0.4174  0.4274
  166SAPE  H12B18578   6.944   3.405   2.882  1.7046  1.0347  1.6530
  166SAPE   C1118579   7.042   3.216   2.821  0.3848  0.1116  0.5366
  166SAPE  H11A18580   7.139   3.267   2.805 -0.0459  1.9055  2.9044
  166SAPE  H11B18581   6.983   3.221   2.727  2.2675 -2.1098 -0.8600
  166SAPE     P18582   7.166   2.999   2.907  0.3371  0.7906 -0.2711
  166SAPE   O1318583   7.116   2.857   2.935 -0.2144 -0.6579 -0.3027
  166SAPE   O1418584   7.270   3.010   2.803 -0.4268  0.0805  0.7318
  166SAPE   O1218585   7.038   3.084   2.871 -0.5931  0.2817  0.7677
  166SAPE   O1118586   7.217   3.046   3.049  0.2257 -0.1754  0.5693
  166SAPE    C118587   7.244   3.184   3.086 -0.0836 -0.0656  0.2170
  166SAPE    HA18588   7.269   3.241   2.993  1.5843  1.0228  1.2814
  166SAPE    HB18589   7.157   3.223   3.142 -2.0924 -2.6285 -0.9015
  166SAPE    C218590   7.370   3.189   3.178  0.3595  0.4945 -0.7769
  166SAPE    HS18591   7.455   3.137   3.129 -0.7633 -1.8058 -0.4083
  166SAPE   O2118592   7.343   3.136   3.314 -0.4988  0.0648  0.2289
  166SAPE   C2118593   7.454   3.092   3.379  0.5258 -0.3639  0.6749
  166SAPE   O2218594   7.564   3.074   3.331 -0.3198 -0.5282  0.5946
  166SAPE   C2218595   7.402   3.039   3.513  0.1185 -0.2094 -0.1968
  166SAPE   H2R18596   7.305   2.987   3.498 -0.2404 -0.0522  1.4061
  166SAPE   H2S18597   7.470   2.960   3.551  1.3626  0.3917 -1.0829
  166SAPE    C318598   7.417   3.334   3.199  0.3716  0.4486 -0.7936
  166SAPE    HX18599   7.328   3.398   3.216 -1.0427 -1.9319  1.3181
  166SAPE    HY18600   7.461   3.368   3.102 -1.9182  0.3242 -1.9422
  166SAPE   O3118601   7.507   3.355   3.313 -0.5113  0.6324  0.5092
  166SAPE   C3118602   7.637   3.360   3.277 -0.1973  0.4893 -0.6357
  166SAPE   O3218603   7.684   3.326   3.168  0.3562 -0.3045 -0.0149
  166SAPE   C3218604   7.717   3.412   3.396  0.0594 -0.4048  0.6799
  166SAPE   H2X18605   7.645   3.455   3.469 -0.7265 -1.4272  0.5341
  166SAPE   H2Y18606   7.782   3.497   3.365 -0.0554 -0.8047 -0.7649
  166SAPE   C2318607   7.374   3.157   3.609 -0.6131  0.0330  0.0488
  166SAPE   H3R18608   7.323   3.240   3.555 -1.0392 -0.4279 -0.2698
  166SAPE   H3S18609   7.466   3.208   3.644 -0.9968  1.5567 -1.0416
  166SAPE   C2418610   7.289   3.115   3.727  0.0188  0.0547 -0.4140
  166SAPE   H4R18611   7.291   3.195   3.804  1.8838 -0.5174  0.1873
  166SAPE   H4S18612   7.318   3.032   3.795  1.1395  1.3090  0.7065
  166SAPE   C2518613   7.150   3.074   3.689 -0.2487  0.0299  0.6674
  166SAPE   H5R18614   7.140   2.965   3.677  3.0498 -0.4634  1.3729
  166SAPE   C2618615   7.055   3.160   3.636  0.3405 -0.8827  0.6494
  166SAPE   H6R18616   6.957   3.115   3.615  1.0588 -1.4707 -1.7342
  166SAPE   C2718617   7.056   3.314   3.641 -0.3385  0.5691 -0.1324
  166SAPE   H7R18618   7.070   3.357   3.540  1.2311 -0.5379 -0.4146
  166SAPE   H7S18619   7.147   3.353   3.692  1.0286  0.9208 -2.6849
  166SAPE   C2818620   6.937   3.364   3.714  0.0981  0.3807  0.6539
  166SAPE   H8R18621   6.852   3.377   3.646 -0.8368  1.6519  2.0089
  166SAPE   C2918622   6.930   3.386   3.844 -0.4053 -0.2896 -0.6085
  166SAPE   H9R18623   6.845   3.439   3.889  1.0232  0.2140  1.6259
  166SAPE  C21018624   7.047   3.375   3.945 -0.1925  0.7094  0.2474
  166SAPE  H10R18625   7.127   3.439   3.901  0.5219 -0.5349 -0.3282
  166SAPE  H10S18626   7.097   3.276   3.939  0.5033  1.1205 -1.1567
  166SAPE  C21118627   7.028   3.420   4.084 -0.4327  0.0234  0.2874
  166SAPE  H11R18628   7.047   3.528   4.091  0.5043 -0.2167  2.3389
  166SAPE  C21218629   7.015   3.355   4.199 -0.2637  0.0053 -0.4186
  166SAPE  H12R18630   7.007   3.409   4.295  0.6579  0.8948 -0.8311
  166SAPE  C21318631   7.003   3.201   4.203  0.0478  0.4047  0.0562
  166SAPE  H13R18632   6.994   3.152   4.104 -0.6061  1.3409 -0.3653
  166SAPE  H13S18633   6.903   3.182   4.247  0.6246  3.5737  3.2870
  166SAPE  C21418634   7.114   3.138   4.280  0.2593 -0.0539  0.0100
  166SAPE  H14R18635   7.209   3.174   4.236  0.3680 -1.5455 -1.0689
  166SAPE  C21518636   7.099   3.045   4.379 -0.2702 -0.4678  0.2204
  166SAPE  H15R18637   7.194   3.011   4.423 -0.4641 -0.6681  0.4856
  166SAPE  C21618638   6.973   2.993   4.428 -0.0367  0.7112 -0.3113
  166SAPE  H16R18639   6.942   2.918   4.352  1.1687 -1.0950  0.9035
  166SAPE  H16S18640   6.902   3.078   4.438  0.9224  1.3334  1.9385
  166SAPE  C21718641   6.986   2.910   4.563 -0.2336 -0.2229 -0.3119
  166SAPE  H17R18642   6.884   2.918   4.607 -0.0070 -1.3328  0.4524
  166SAPE  H17S18643   7.048   2.966   4.637 -1.2473  2.3952 -1.3323
  166SAPE  C21818644   7.037   2.771   4.538  0.4106  0.1316 -0.2083
  166SAPE  H18R18645   7.140   2.771   4.495  0.4498 -0.8021 -0.1359
  166SAPE  H18S18646   6.963   2.722   4.471 -2.5581  1.1647  2.1147
  166SAPE  C21918647   7.034   2.672   4.658  0.3914  0.6544 -0.6623
  166SAPE  H19R18648   6.937   2.683   4.712 -0.1864 -1.7864 -1.0949
  166SAPE  H19S18649   7.113   2.711   4.726 -0.6526  0.6340  0.6129
  166SAPE  C22018650   7.054   2.520   4.625  0.3438 -0.3313  0.2033
  166SAPE  H20R18651   7.157   2.507   4.587 -0.2575  1.5793 -2.3602
  166SAPE  H20S18652   6.992   2.485   4.539  1.9627  0.9613 -1.5722
  166SAPE  H20T18653   7.041   2.459   4.717 -0.8139 -1.1665 -0.4834
  166SAPE   C3318654   7.803   3.308   3.472 -0.0198  0.0480  0.5940
  166SAPE   H3X18655   7.873   3.259   3.401 -0.5694 -0.4906  0.4257
  166SAPE   H3Y18656   7.744   3.229   3.524 -2.5624  0.7940 -1.0281
  166SAPE   C3418657   7.885   3.374   3.589  0.5671  0.5064  0.9830
  166SAPE   H4X18658   7.931   3.469   3.552 -0.7467  0.6404 -0.3660
  166SAPE   H4Y18659   7.973   3.314   3.620 -1.2410 -2.1797  1.2304
  166SAPE   C3518660   7.793   3.388   3.709 -0.6232  0.1596 -0.7946
  166SAPE   H5X18661   7.752   3.287   3.730  1.6764 -0.6938 -0.0371
  166SAPE   H5Y18662   7.716   3.465   3.688 -1.2889 -0.0263  0.8091
  166SAPE   C3618663   7.879   3.428   3.831 -0.3662 -0.2199  0.6992
  166SAPE   H6X18664   7.938   3.515   3.795 -2.5075 -0.8333 -5.2930
  166SAPE   H6Y18665   7.948   3.344   3.855 -0.2545 -0.1203  0.7296
  166SAPE   C3718666   7.793   3.472   3.951 -0.1102 -0.5289  0.4018
  166SAPE   H7X18667   7.718   3.394   3.976  1.4604 -2.5294 -0.8767
  166SAPE   H7Y18668   7.746   3.570   3.927  0.5633  0.3821  2.4960
  166SAPE   C3818669   7.883   3.492   4.079  0.9465 -0.2408  0.7888
  166SAPE   H8X18670   7.960   3.571   4.065  1.4541 -0.7131  0.9332
  166SAPE   H8Y18671   7.933   3.395   4.094 -0.8348 -1.1012  1.4485
  166SAPE   C3918672   7.798   3.518   4.202  0.1554 -0.3464  0.0395
  166SAPE   H9X18673   7.856   3.503   4.296  1.4161 -1.2352 -0.8512
  166SAPE   H9Y18674   7.724   3.436   4.200 -0.3350  0.1084 -1.0617
  166SAPE  C31018675   7.717   3.651   4.202 -0.3489  0.4760  0.8812
  166SAPE  H10X18676   7.649   3.650   4.115  1.7787 -0.9483 -0.8849
  166SAPE  H10Y18677   7.787   3.737   4.192 -0.0832  0.1226 -0.5774
  166SAPE  C31118678   7.633   3.664   4.328  0.0502  0.7099  0.0691
  166SAPE  H11X18679   7.592   3.562   4.346  1.8473 -0.3084 -1.2624
  166SAPE  H11Y18680   7.554   3.739   4.309 -0.5868 -0.2202 -1.1301
  166SAPE  C31218681   7.714   3.701   4.455  0.4621  0.0358 -0.0323
  166SAPE  H12X18682   7.755   3.803   4.441 -0.3024  0.7080  2.1623
  166SAPE  H12Y18683   7.793   3.623   4.466 -0.1849 -0.5177  0.8716
  166SAPE  C31318684   7.625   3.720   4.585  0.1575 -0.2996  0.1581
  166SAPE  H13X18685   7.574   3.624   4.607 -0.3492  0.5182  3.1085
  166SAPE  H13Y18686   7.557   3.808   4.572  0.6451  0.3791  1.9029
  166SAPE  C31418687   7.701   3.744   4.718 -0.1739  0.5610  0.2541
  166SAPE  H14X18688   7.777   3.667   4.745  2.1117  2.4417 -0.5411
  166SAPE  H14Y18689   7.626   3.760   4.798  0.5639 -1.1199  1.3370
  166SAPE  C31518690   7.783   3.876   4.720  0.5866 -0.3173  0.4559
  166SAPE  H15X18691   7.723   3.959   4.678  2.6425  1.6597  1.2461
  166SAPE  H15Y18692   7.872   3.863   4.655  0.3847  0.1788  0.0775
  166SAPE  C31618693   7.825   3.903   4.863  0.5168 -0.2666  0.7148
  166SAPE  H16X18694   7.910   3.833   4.880  0.9022 -0.2330 -0.9332
  166SAPE  H16Y18695   7.743   3.881   4.934 -0.1763 -1.0756 -0.3182
  166SAPE  C31718696   7.881   4.040   4.885 -0.1959 -0.9082 -0.1290
  166SAPE  H17X18697   7.795   4.109   4.870  0.1763 -0.8790 -2.6605
  166SAPE  H17Y18698   7.966   4.064   4.816  0.9545  1.2221  1.8742
  166SAPE  C31818699   7.936   4.062   5.027  0.0622 -0.7697  0.1071
  166SAPE  H18X18700   8.029   4.004   5.045  1.1179  0.9970  0.6016
  166SAPE  H18Y18701   7.852   4.050   5.099 -1.1921  1.9768 -0.7515
  166SAPE  H18Z18702   7.963   4.169   5.043  0.4672 -0.3152 -3.0436
  167SAPE     N18703   6.782   0.346   1.947  0.0750  0.4525  0.0969
  167SAPE   HN118704   6.752   0.418   1.878  2.1914 -0.3199 -1.7518
  167SAPE   HN218705   6.698   0.299   1.986  0.0140 -0.9899 -1.6492
  167SAPE   HN318706   6.831   0.400   2.021  0.7817 -0.5585  0.3924
  167SAPE   C1218707   6.884   0.242   1.898 -0.1708  0.0813  0.6255
  167SAPE  H12A18708   6.966   0.302   1.853 -1.2568  2.0412  1.1214
  167SAPE  H12B18709   6.834   0.185   1.817  3.9580 -1.4942 -1.1000
  167SAPE   C1118710   6.913   0.147   2.020  0.5652 -0.4833  0.1666
  167SAPE  H11A18711   6.943   0.216   2.103  1.2993  0.0652 -0.5402
  167SAPE  H11B18712   7.004   0.091   1.990  0.2288 -1.8735  1.5854
  167SAPE     P18713   6.804  -0.012   2.186 -0.3738 -0.3899  0.1110
  167SAPE   O1318714   6.728  -0.137   2.169 -0.2564  0.0699 -0.6697
  167SAPE   O1418715   6.941  -0.018   2.248  0.4079  0.4608  0.5197
  167SAPE   O1218716   6.801   0.059   2.044 -0.1198 -0.1748 -0.3536
  167SAPE   O1118717   6.718   0.103   2.259 -0.1717  0.5629 -0.2457
  167SAPE    C118718   6.654   0.081   2.391  0.1463  0.1529  0.2340
  167SAPE    HA18719   6.566   0.147   2.404 -1.9738 -2.1652 -1.4352
  167SAPE    HB18720   6.636  -0.028   2.403 -2.5632  0.2072 -2.2191
  167SAPE    C218721   6.757   0.124   2.500  0.1166  0.4123  0.3700
  167SAPE    HS18722   6.831   0.044   2.523  0.4661  0.2033 -1.3309
  167SAPE   O2118723   6.689   0.163   2.625 -0.5596 -0.1387  0.2441
  167SAPE   C2118724   6.631   0.064   2.685  0.4253  0.2992  0.7807
  167SAPE   O2218725   6.651  -0.052   2.664 -0.5725  0.2280 -0.4223
  167SAPE   C2218726   6.523   0.125   2.778  1.4451  0.2234  0.2233
  167SAPE   H2R18727   6.573   0.152   2.874 -0.4742  0.4008  1.2159
  167SAPE   H2S18728   6.489   0.217   2.724 -0.7097  1.2210  3.0327
  167SAPE    C318729   6.850   0.243   2.447 -0.6868 -0.5529 -0.7818
  167SAPE    HX18730   6.799   0.318   2.382  1.3438  3.0549  1.4010
  167SAPE    HY18731   6.926   0.195   2.383  0.0951  0.7035 -0.8337
  167SAPE   O3118732   6.908   0.316   2.558  0.5923  0.1367 -0.1805
  167SAPE   C3118733   6.997   0.255   2.625 -0.5556  0.7843 -0.0257
  167SAPE   O3218734   7.041   0.136   2.605  0.4237 -0.7992  0.3084
  167SAPE   C3218735   7.042   0.330   2.750 -0.0932 -0.1776 -0.3060
  167SAPE   H2X18736   6.954   0.381   2.795  0.2017 -0.5410  0.7022
  167SAPE   H2Y18737   7.110   0.410   2.716  1.1320  0.0183  2.3553
  167SAPE   C2318738   6.397   0.033   2.810  0.0479  0.1031  0.2227
  167SAPE   H3R18739   6.425  -0.069   2.843 -0.6624  0.5515  2.3792
  167SAPE   H3S18740   6.317   0.034   2.734  0.0696  1.0758  0.2026
  167SAPE   C2418741   6.324   0.098   2.930  0.5279  0.8302 -0.4420
  167SAPE   H4R18742   6.395   0.085   3.015 -0.0574 -2.4596 -0.3150
  167SAPE   H4S18743   6.228   0.047   2.952 -0.2449  2.6855  0.6900
  167SAPE   C2518744   6.281   0.233   2.892 -0.4016  0.6495  0.1449
  167SAPE   H5R18745   6.198   0.233   2.820  1.3820  0.3616 -2.0319
  167SAPE   C2618746   6.326   0.346   2.947  0.6322 -0.1222 -0.9476
  167SAPE   H6R18747   6.295   0.440   2.899 -3.8438 -0.9282 -0.0314
  167SAPE   C2718748   6.430   0.354   3.055 -0.1902 -0.1352 -0.2536
  167SAPE   H7R18749   6.511   0.277   3.055 -0.4358 -0.4804  2.4861
  167SAPE   H7S18750   6.377   0.314   3.143  2.0349 -2.0746  0.3173
  167SAPE   C2818751   6.481   0.491   3.075  0.9875 -0.3460 -0.2020
  167SAPE   H8R18752   6.444   0.568   3.005 -0.1422  0.4377  1.2034
  167SAPE   C2918753   6.572   0.522   3.169 -0.1231  0.6837  0.3551
  167SAPE   H9R18754   6.609   0.626   3.172 -1.9082  1.3871 -0.6996
  167SAPE  C21018755   6.629   0.417   3.260 -1.3279  0.5827 -0.0726
  167SAPE  H10R18756   6.560   0.334   3.286 -1.3024  0.3120 -0.8412
  167SAPE  H10S18757   6.643   0.471   3.356 -0.4374 -1.9814  1.3387
  167SAPE  C21118758   6.755   0.355   3.211 -0.5460  0.5495  0.1193
  167SAPE  H11R18759   6.782   0.346   3.105  0.1116 -0.8155  0.3680
  167SAPE  C21218760   6.842   0.282   3.291  0.3514 -0.2789 -0.0578
  167SAPE  H12R18761   6.931   0.244   3.239  1.2890 -0.4980  1.6206
  167SAPE  C21318762   6.841   0.281   3.442  0.2241 -0.6404 -0.3337
  167SAPE  H13R18763   6.743   0.319   3.478 -0.0915 -1.5369 -0.2251
  167SAPE  H13S18764   6.925   0.349   3.468  0.0587 -0.9045  0.9973
  167SAPE  C21418765   6.866   0.141   3.503  0.4310 -0.2126 -0.3584
  167SAPE  H14R18766   6.973   0.122   3.494  0.5100  1.0204 -3.1147
  167SAPE  C21518767   6.772   0.050   3.535 -0.5444  0.2217  1.2543
  167SAPE  H15R18768   6.806  -0.053   3.555  0.4322  0.2204 -0.2202
  167SAPE  C21618769   6.621   0.064   3.535  0.8446 -0.2027 -0.0696
  167SAPE  H16R18770   6.587   0.167   3.510 -1.5660 -0.5378  1.4355
  167SAPE  H16S18771   6.576   0.050   3.636 -2.0222  1.8327 -0.9310
  167SAPE  C21718772   6.561  -0.028   3.432 -0.0864 -0.8193 -0.0182
  167SAPE  H17R18773   6.575  -0.134   3.461  0.4368 -0.5876  0.6064
  167SAPE  H17S18774   6.616  -0.010   3.337 -0.5699  2.3660  0.1985
  167SAPE  C21818775   6.410  -0.018   3.406  0.2135  0.4171  0.3863
  167SAPE  H18R18776   6.358  -0.058   3.496 -0.2346  1.6146  0.6744
  167SAPE  H18S18777   6.394  -0.098   3.330  0.3766 -1.8500  2.5956
  167SAPE  C21918778   6.363   0.116   3.363 -0.5332  0.4565  0.4234
  167SAPE  H19R18779   6.411   0.142   3.265  0.1300  0.0792  0.6391
  167SAPE  H19S18780   6.389   0.186   3.445 -0.9205 -0.0618  0.9911
  167SAPE  C22018781   6.214   0.122   3.334  0.3722  0.4581  0.3077
  167SAPE  H20R18782   6.173   0.225   3.338  0.8092  0.6473  0.0116
  167SAPE  H20S18783   6.161   0.058   3.409 -1.2181  0.0405 -1.1000
  167SAPE  H20T18784   6.184   0.086   3.233 -0.2037  1.2800  0.1786
  167SAPE   C3318785   7.103   0.231   2.867 -0.0742  0.0014  0.0390
  167SAPE   H3X18786   7.170   0.155   2.821 -2.4242 -1.1165 -1.7520
  167SAPE   H3Y18787   7.016   0.183   2.917 -0.6312  0.4586 -0.4683
  167SAPE   C3418788   7.183   0.297   2.979 -0.9009  0.3479 -0.4819
  167SAPE   H4X18789   7.119   0.381   3.014  1.4920  1.1522  2.4010
  167SAPE   H4Y18790   7.278   0.343   2.945 -0.6101  1.0242  1.1455
  167SAPE   C3518791   7.221   0.199   3.093  0.7722 -0.4983  0.8248
  167SAPE   H5X18792   7.274   0.108   3.058 -0.5162 -1.0193  0.1696
  167SAPE   H5Y18793   7.126   0.156   3.132  0.4502  0.5160  1.2108
  167SAPE   C3618794   7.303   0.270   3.202 -0.6721 -0.4796 -0.1081
  167SAPE   H6X18795   7.233   0.350   3.233  0.6593  0.2229  1.2249
  167SAPE   H6Y18796   7.389   0.326   3.161  0.1754 -2.0542 -0.5576
  167SAPE   C3718797   7.361   0.179   3.314  0.0421 -0.1259  0.0986
  167SAPE   H7X18798   7.452   0.230   3.350  0.8426  0.5363 -2.6075
  167SAPE   H7Y18799   7.386   0.079   3.272 -2.2332 -0.0456 -1.6591
  167SAPE   C3818800   7.253   0.170   3.422  0.4830 -0.5046 -0.7377
  167SAPE   H8X18801   7.152   0.145   3.382 -0.7663  2.5171  0.2543
  167SAPE   H8Y18802   7.231   0.273   3.457 -1.7573 -0.8983 -0.8045
  167SAPE   C3918803   7.283   0.082   3.538 -0.6664 -0.6707 -0.8696
  167SAPE   H9X18804   7.284  -0.023   3.502  2.3567 -1.0580  0.0235
  167SAPE   H9Y18805   7.199   0.086   3.610  0.3931 -2.2896  0.5427
  167SAPE  C31018806   7.416   0.115   3.621 -0.3883  0.1260 -0.4034
  167SAPE  H10X18807   7.506   0.099   3.559  1.0137 -0.4053  1.6612
  167SAPE  H10Y18808   7.420   0.029   3.691 -3.9987 -1.6273 -2.0584
  167SAPE  C31118809   7.419   0.259   3.675 -0.1122  0.2056  0.0785
  167SAPE  H11X18810   7.436   0.333   3.594 -1.8816  0.3956 -0.1612
  167SAPE  H11Y18811   7.514   0.254   3.733 -0.5114 -2.0760  0.6362
  167SAPE  C31218812   7.296   0.313   3.753 -0.4664 -0.3976  0.3041
  167SAPE  H12X18813   7.204   0.254   3.737 -0.5378  0.0249 -0.8914
  167SAPE  H12Y18814   7.280   0.411   3.704 -0.4403 -0.2180  0.6511
  167SAPE  C31318815   7.332   0.348   3.900 -0.1451 -0.0084  0.3758
  167SAPE  H13X18816   7.262   0.418   3.950  0.4523  1.9247 -1.3733
  167SAPE  H13Y18817   7.426   0.406   3.913 -1.2989  1.6590  1.6612
  167SAPE  C31418818   7.359   0.210   3.966  0.0578 -0.1953 -0.1030
  167SAPE  H14X18819   7.438   0.159   3.907 -1.7500 -1.5949 -1.4502
  167SAPE  H14Y18820   7.262   0.157   3.950 -1.5817  1.9997  1.8598
  167SAPE  C31518821   7.375   0.208   4.113  0.1620 -0.6495  0.2460
  167SAPE  H15X18822   7.285   0.261   4.150  0.4939  0.5972 -0.6644
  167SAPE  H15Y18823   7.468   0.262   4.142 -1.3629  1.9720  0.5136
  167SAPE  C31618824   7.394   0.064   4.159  0.1643  0.8791 -0.3320
  167SAPE  H16X18825   7.500   0.032   4.144 -0.0945  0.7577 -2.1050
  167SAPE  H16Y18826   7.324   0.004   4.097 -2.8645  2.4904  1.2875
  167SAPE  C31718827   7.361   0.042   4.307 -0.7556  0.0537  0.4633
  167SAPE  H17X18828   7.426   0.109   4.368 -0.8564  0.5942 -0.0108
  167SAPE  H17Y18829   7.387  -0.063   4.328 -0.4774  0.2967  1.3746
  167SAPE  C31818830   7.214   0.064   4.343  0.1762  0.3157  0.0528
  167SAPE  H18X18831   7.135  -0.008   4.310 -1.4267  1.2595  1.6356
  167SAPE  H18Y18832   7.180   0.155   4.291 -1.3619  0.4480  1.2038
  167SAPE  H18Z18833   7.210   0.053   4.454 -0.0125 -0.9411 -0.0656
  168SAPE     N18834   4.815   2.682   2.366  0.6946  0.4120 -0.8465
  168SAPE   HN118835   4.890   2.707   2.433  0.3500  0.2406 -0.3901
  168SAPE   HN218836   4.862   2.661   2.276  0.8633  0.6530 -0.8139
  168SAPE   HN318837   4.769   2.768   2.332  1.6248  0.9607 -0.7306
  168SAPE   C1218838   4.723   2.582   2.425 -0.3547 -0.1506  0.0290
  168SAPE  H12A18839   4.649   2.560   2.345  0.4131  1.1920 -1.0845
  168SAPE  H12B18840   4.681   2.626   2.518 -0.0034  0.8387 -0.2669
  168SAPE   C1118841   4.805   2.458   2.472  0.1667 -0.8706  0.7895
  168SAPE  H11A18842   4.833   2.391   2.389 -2.9542 -2.6797  1.0382
  168SAPE  H11B18843   4.724   2.403   2.524 -0.4954  1.7984  2.8281
  168SAPE     P18844   5.033   2.412   2.602 -0.3032 -0.0841  0.0949
  168SAPE   O1318845   4.981   2.273   2.588  0.3380  0.0784  0.3993
  168SAPE   O1418846   5.137   2.455   2.513 -0.0656 -0.1136 -0.2458
  168SAPE   O1218847   4.908   2.502   2.570  0.6011  0.3118 -0.2880
  168SAPE   O1118848   5.062   2.434   2.758  0.6118 -0.5879 -0.2585
  168SAPE    C118849   5.116   2.556   2.807  0.3218  0.1212  0.2392
  168SAPE    HA18850   5.227   2.555   2.813  0.3608 -2.2084  0.1037
  168SAPE    HB18851   5.091   2.645   2.745  0.5704 -1.4277 -2.2162
  168SAPE    C218852   5.043   2.599   2.938 -0.7772 -0.2200 -0.1461
  168SAPE    HS18853   5.087   2.700   2.953 -0.2285 -0.5230  0.3472
  168SAPE   O2118854   5.057   2.510   3.051  0.1905 -0.3610  0.3903
  168SAPE   C2118855   5.180   2.491   3.072 -0.3269 -0.6250 -0.1094
  168SAPE   O2218856   5.283   2.553   3.041  0.0718 -0.0334 -0.3058
  168SAPE   C2218857   5.196   2.372   3.174 -0.3371  0.3025  0.2475
  168SAPE   H2R18858   5.127   2.294   3.135  1.5093 -0.8856 -0.7948
  168SAPE   H2S18859   5.297   2.327   3.159  0.6734  2.2067  1.0029
  168SAPE    C318860   4.890   2.619   2.917 -0.5411 -0.1644  0.1998
  168SAPE    HX18861   4.841   2.525   2.886 -1.0950  0.9997 -2.8197
  168SAPE    HY18862   4.874   2.695   2.837  0.1090 -0.5802 -0.3314
  168SAPE   O3118863   4.830   2.664   3.041  0.0652  0.4068 -0.0756
  168SAPE   C3118864   4.702   2.667   3.038 -0.3462 -0.4757  0.0902
  168SAPE   O3218865   4.625   2.623   2.953  0.1297  0.3699  0.0393
  168SAPE   C3218866   4.644   2.724   3.170  0.3118  0.0966  0.0943
  168SAPE   H2X18867   4.533   2.727   3.157  0.3344  0.0265 -0.1326
  168SAPE   H2Y18868   4.671   2.832   3.170  0.1234  0.2268 -2.7135
  168SAPE   C2318869   5.162   2.401   3.320  0.3303 -0.1780 -0.1621
  168SAPE   H3R18870   5.232   2.482   3.352  0.2684 -0.4098  0.5627
  168SAPE   H3S18871   5.193   2.306   3.367 -1.6353  0.1072  1.8783
  168SAPE   C2418872   5.022   2.445   3.355 -0.4827 -0.0770  0.0097
  168SAPE   H4R18873   5.008   2.540   3.300 -2.3398 -0.2393  0.1467
  168SAPE   H4S18874   5.023   2.461   3.465  1.2972 -1.2614  0.2184
  168SAPE   C2518875   4.924   2.340   3.312  0.0549 -0.2222  0.0458
  168SAPE   H5R18876   4.899   2.346   3.205  2.9754  1.2115 -0.6520
  168SAPE   C2618877   4.858   2.252   3.385  0.4628  0.1834  0.4723
  168SAPE   H6R18878   4.796   2.172   3.341  1.0118  0.7747 -1.4633
  168SAPE   C2718879   4.885   2.231   3.534  0.0626  0.0172 -0.3738
  168SAPE   H7R18880   4.993   2.236   3.558  0.0779  1.0073 -0.6170
  168SAPE   H7S18881   4.860   2.128   3.566 -1.5131  0.6837  0.6775
  168SAPE   C2818882   4.804   2.324   3.621  0.5318  0.2812  1.0938
  168SAPE   H8R18883   4.714   2.373   3.580  1.2835  0.0104 -1.0025
  168SAPE   C2918884   4.831   2.338   3.749 -1.1334 -0.0820 -0.1088
  168SAPE   H9R18885   4.771   2.400   3.817 -0.6199 -0.9653  1.1767
  168SAPE  C21018886   4.943   2.268   3.823  0.4184 -1.0774  0.2828
  168SAPE  H10R18887   5.041   2.272   3.771  0.4077 -1.3026  0.2444
  168SAPE  H10S18888   4.920   2.160   3.834  0.3841 -1.2419 -1.1902
  168SAPE  C21118889   4.966   2.336   3.956  0.5478 -0.4199 -0.1565
  168SAPE  H11R18890   4.974   2.446   3.950 -1.0658 -0.3240 -1.0819
  168SAPE  C21218891   4.975   2.281   4.077 -0.1379  0.9612 -0.1092
  168SAPE  H12R18892   4.969   2.360   4.153  0.7164  1.7138 -0.8056
  168SAPE  C21318893   4.955   2.133   4.125 -0.5240 -0.1538 -0.0666
  168SAPE  H13R18894   4.911   2.083   4.037 -2.9572  1.0369  0.4076
  168SAPE  H13S18895   4.870   2.116   4.194 -0.0133 -1.0214  0.3774
  168SAPE  C21418896   5.076   2.047   4.167 -0.0085 -1.0989 -0.0477
  168SAPE  H14R18897   5.170   2.100   4.186 -0.5064 -0.0728 -0.3796
  168SAPE  C21518898   5.063   1.926   4.226 -0.0884  0.6014 -0.8521
  168SAPE  H15R18899   5.152   1.866   4.249  0.3561  1.8349  0.8644
  168SAPE  C21618900   4.932   1.846   4.236  0.2350 -0.1559  0.1945
  168SAPE  H16R18901   4.953   1.739   4.216 -0.1203 -0.2981  0.5777
  168SAPE  H16S18902   4.853   1.887   4.169 -0.0184 -1.4922 -0.3581
  168SAPE  C21718903   4.883   1.852   4.382 -0.3893  1.0794 -0.0075
  168SAPE  H17R18904   4.950   1.791   4.446 -1.4807 -1.4154 -1.1020
  168SAPE  H17S18905   4.788   1.794   4.388  0.2030  0.0652 -0.1812
  168SAPE  C21818906   4.844   1.983   4.439  0.1244  0.0220  0.1114
  168SAPE  H18R18907   4.740   2.010   4.411  0.2164 -1.1354 -1.4769
  168SAPE  H18S18908   4.901   2.071   4.402 -1.7798  1.2833  0.0438
  168SAPE  C21918909   4.877   1.983   4.591  0.2295 -0.2858 -0.2403
  168SAPE  H19R18910   4.848   2.083   4.630 -1.4008 -0.5031 -0.8169
  168SAPE  H19S18911   4.987   1.970   4.596  0.2650 -0.5583 -1.4364
  168SAPE  C22018912   4.808   1.871   4.677 -0.7374  0.7689  0.4892
  168SAPE  H20R18913   4.835   1.769   4.645  1.9600  0.4587  3.3232
  168SAPE  H20S18914   4.697   1.877   4.678 -1.0118 -2.5368  0.0256
  168SAPE  H20T18915   4.848   1.885   4.779  4.2169  0.5714 -1.1799
  168SAPE   C3318916   4.691   2.660   3.302 -0.2670 -0.0272 -0.7553
  168SAPE   H3X18917   4.800   2.638   3.290 -0.3397 -0.8529  0.0135
  168SAPE   H3Y18918   4.642   2.565   3.333  1.0077 -0.5753 -0.3160
  168SAPE   C3418919   4.678   2.762   3.424  0.2486  0.6622 -0.6280
  168SAPE   H4X18920   4.570   2.754   3.447  0.8641  0.4820  2.7734
  168SAPE   H4Y18921   4.691   2.870   3.402  0.5475  0.7559 -0.0275
  168SAPE   C3518922   4.742   2.709   3.547 -0.2446  0.2956  0.2088
  168SAPE   H5X18923   4.853   2.713   3.540  0.0071 -3.4125  0.1602
  168SAPE   H5Y18924   4.715   2.601   3.549 -0.7419  0.1693 -3.8595
  168SAPE   C3618925   4.691   2.797   3.666  0.2807  0.7568  0.0877
  168SAPE   H6X18926   4.583   2.811   3.645 -0.7218 -0.7394  3.4229
  168SAPE   H6Y18927   4.742   2.894   3.677  0.1767  0.6145  2.5935
  168SAPE   C3718928   4.710   2.724   3.800  0.3738  0.4496 -0.1162
  168SAPE   H7X18929   4.819   2.727   3.822  0.4566  1.5460 -0.5766
  168SAPE   H7Y18930   4.680   2.618   3.786 -1.5118  0.9924 -0.4226
  168SAPE   C3818931   4.636   2.776   3.920  0.2092 -0.3683 -0.9419
  168SAPE   H8X18932   4.526   2.772   3.905  0.2856 -2.2493 -1.3009
  168SAPE   H8Y18933   4.657   2.883   3.942  2.0367 -1.0488  0.9092
  168SAPE   C3918934   4.675   2.702   4.045 -0.2088  0.5960  0.6373
  168SAPE   H9X18935   4.784   2.720   4.057  0.3173 -1.2790 -0.7949
  168SAPE   H9Y18936   4.656   2.593   4.036  1.7563  0.0806  2.1021
  168SAPE  C31018937   4.610   2.760   4.165  0.0127  0.0882 -0.1297
  168SAPE  H10X18938   4.502   2.748   4.142 -0.1376 -1.4214  1.2180
  168SAPE  H10Y18939   4.630   2.869   4.177 -0.1220  0.0756  0.2432
  168SAPE  C31118940   4.657   2.679   4.290 -0.4863 -0.3747 -1.0803
  168SAPE  H11X18941   4.755   2.726   4.313 -1.6801  0.6262  2.8212
  168SAPE  H11Y18942   4.684   2.573   4.271  0.9640 -0.3993  0.7550
  168SAPE  C31218943   4.558   2.685   4.407  0.1338 -0.4056  0.1885
  168SAPE  H12X18944   4.558   2.789   4.448 -0.2328 -1.5807  3.4098
  168SAPE  H12Y18945   4.598   2.622   4.489  2.6141 -4.1113 -3.4916
  168SAPE  C31318946   4.414   2.649   4.381 -0.7284  0.1792 -0.2977
  168SAPE  H13X18947   4.408   2.544   4.347  1.3013 -0.5885  1.5129
  168SAPE  H13Y18948   4.382   2.709   4.292 -0.2604 -0.2217 -0.7413
  168SAPE  C31418949   4.320   2.672   4.500 -0.3686  0.5643  0.2822
  168SAPE  H14X18950   4.217   2.664   4.459 -0.9413 -2.2448  1.9779
  168SAPE  H14Y18951   4.322   2.777   4.536  1.1368 -0.1292  2.3974
  168SAPE  C31518952   4.340   2.566   4.614 -0.7726 -0.1124  0.5491
  168SAPE  H15X18953   4.447   2.567   4.645 -0.1508 -1.1757 -1.3845
  168SAPE  H15Y18954   4.321   2.470   4.562  0.4507 -1.0277  1.7328
  168SAPE  C31618955   4.251   2.576   4.737 -0.1106 -0.0106  0.0658
  168SAPE  H16X18956   4.154   2.568   4.683  1.0686  1.4202 -2.4006
  168SAPE  H16Y18957   4.243   2.673   4.790  0.7280 -0.9593  2.0401
  168SAPE  C31718958   4.260   2.465   4.844  0.0067  0.2776 -0.2302
  168SAPE  H17X18959   4.368   2.444   4.863 -0.5539 -1.7788  0.9650
  168SAPE  H17Y18960   4.213   2.373   4.805 -0.6558  0.2313  0.6472
  168SAPE  C31818961   4.184   2.510   4.965  0.7774  0.5661 -0.4850
  168SAPE  H18X18962   4.225   2.590   5.031  2.2154  0.3847 -1.1201
  168SAPE  H18Y18963   4.175   2.420   5.030  0.7861 -0.4653 -1.8599
  168SAPE  H18Z18964   4.079   2.532   4.934  0.6524 -0.5410 -0.8854
  169SAPE     N18965   1.054   2.147   2.977 -0.2848 -0.5307  0.5896
  169SAPE   HN118966   1.141   2.143   2.921  0.9071  2.1580  2.0463
  169SAPE   HN218967   1.004   2.056   2.982 -2.9162  0.8445  1.1853
  169SAPE   HN318968   0.988   2.216   2.936  3.0595  2.0186 -0.9898
  169SAPE   C1218969   1.089   2.197   3.109 -0.5159 -0.0201  0.0841
  169SAPE  H12A18970   1.169   2.129   3.145 -0.4321 -0.3409 -0.6927
  169SAPE  H12B18971   1.003   2.192   3.179  1.2456 -0.2190  2.3494
  169SAPE   C1118972   1.150   2.348   3.115  0.4534  0.1726 -0.1748
  169SAPE  H11A18973   1.245   2.364   3.058  0.6793 -2.5402 -0.6635
  169SAPE  H11B18974   1.174   2.353   3.224  1.4755  0.1208 -0.3887
  169SAPE     P18975   1.085   2.595   3.094  0.2313  0.4779 -0.1463
  169SAPE   O1318976   1.232   2.607   3.109 -0.7354 -0.0449  0.3141
  169SAPE   O1418977   1.013   2.686   3.005  0.6549  0.3647  0.3362
  169SAPE   O1218978   1.046   2.444   3.075  0.2386  0.2233 -0.3314
  169SAPE   O1118979   1.024   2.602   3.241 -0.1223  0.1977  0.2884
  169SAPE    C118980   0.978   2.733   3.283 -0.8602  0.1669 -0.6813
  169SAPE    HA18981   1.004   2.814   3.211 -1.3951  0.2172 -0.8224
  169SAPE    HB18982   0.869   2.735   3.303 -0.7178 -0.3901  0.1751
  169SAPE    C218983   1.046   2.774   3.427 -0.2044  0.6711 -0.0611
  169SAPE    HS18984   1.155   2.782   3.407  0.1585 -2.5420  0.0689
  169SAPE   O2118985   1.016   2.668   3.520 -0.2551 -0.1003 -0.1568
  169SAPE   C2118986   1.107   2.571   3.540  0.7366 -0.4627 -0.2190
  169SAPE   O2218987   1.218   2.576   3.497 -0.0486 -0.0636 -0.0505
  169SAPE   C2218988   1.043   2.450   3.622 -0.2594 -0.3249 -0.2153
  169SAPE   H2R18989   1.125   2.403   3.680  0.7776 -0.3917 -1.6757
  169SAPE   H2S18990   0.975   2.507   3.689 -0.2386  0.5423 -0.9082
  169SAPE    C318991   0.995   2.905   3.479  0.2738  0.2652 -0.3316
  169SAPE    HX18992   0.892   2.885   3.516  1.5729 -1.9137  2.5897
  169SAPE    HY18993   1.004   2.978   3.396  1.3809  0.1568 -0.3253
  169SAPE   O3118994   1.068   2.947   3.596  0.0563  0.0063 -0.0963
  169SAPE   C3118995   1.188   2.991   3.578  0.8046  1.0340 -0.5727
  169SAPE   O3218996   1.234   3.024   3.472  0.2935  0.1466  0.5863
  169SAPE   C3218997   1.269   2.987   3.713  0.2273  0.9355 -0.5939
  169SAPE   H2X18998   1.352   3.058   3.693 -0.2892  1.2757 -1.6121
  169SAPE   H2Y18999   1.308   2.885   3.731 -1.2895 -0.2450 -3.3342
  169SAPE   C2319000   0.970   2.337   3.543  0.0963  0.3793 -0.4096
  169SAPE   H3R19001   1.029   2.301   3.456 -0.4771  0.0641 -0.6810
  169SAPE   H3S19002   0.879   2.389   3.506 -0.2225  1.8437  2.2228
  169SAPE   C2419003   0.926   2.212   3.629 -0.5225  0.0855  0.3713
  169SAPE   H4R19004   0.871   2.151   3.553 -1.1729 -0.5909  1.3680
  169SAPE   H4S19005   0.860   2.254   3.707  0.3104 -0.1549  1.2271
  169SAPE   C2519006   1.042   2.131   3.685  0.7926  0.0132  0.0619
  169SAPE   H5R19007   1.103   2.109   3.596 -1.8374  0.2715 -1.9123
  169SAPE   C2619008   1.088   2.115   3.809  0.1914  0.4519  0.9087
  169SAPE   H6R19009   1.177   2.052   3.821  0.6907  0.1243 -3.0734
  169SAPE   C2719010   1.004   2.141   3.929  0.3163 -0.0311  0.2421
  169SAPE   H7R19011   1.035   2.065   4.004  0.0476 -2.3206 -1.8302
  169SAPE   H7S19012   0.898   2.113   3.909 -0.1431  2.0557 -0.5044
  169SAPE   C2819013   1.015   2.277   3.992  0.0403 -0.1358  0.0401
  169SAPE   H8R19014   1.048   2.344   3.911  1.3775 -1.7223 -0.7839
  169SAPE   C2919015   0.980   2.324   4.113 -0.1270 -0.3017 -0.2690
  169SAPE   H9R19016   1.006   2.426   4.145  2.8915 -0.5354 -1.6300
  169SAPE  C21019017   0.923   2.243   4.223 -0.2900  0.5055 -0.2738
  169SAPE  H10R19018   0.992   2.251   4.310  0.5700 -3.5045 -0.3871
  169SAPE  H10S19019   0.932   2.135   4.200 -1.3446  0.6259 -1.3736
  169SAPE  C21119020   0.783   2.279   4.271  0.4473 -0.1515  0.5613
  169SAPE  H11R19021   0.699   2.223   4.229  1.7908 -1.1842 -0.8600
  169SAPE  C21219022   0.751   2.370   4.364  0.7305 -0.4344 -0.0573
  169SAPE  H12R19023   0.643   2.377   4.385  0.5687  1.7747 -1.3648
  169SAPE  C21319024   0.838   2.462   4.432 -0.2594 -0.3495 -0.1946
  169SAPE  H13R19025   0.812   2.569   4.415  1.0476  0.1001  0.5152
  169SAPE  H13S19026   0.937   2.465   4.383 -0.6111  1.7244 -0.8751
  169SAPE  C21419027   0.863   2.439   4.578 -0.0760 -0.1615  0.4139
  169SAPE  H14R19028   0.965   2.408   4.606  0.1373  1.0616  1.0178
  169SAPE  C21519029   0.778   2.456   4.682 -0.4085 -0.1623  0.1395
  169SAPE  H15R19030   0.822   2.446   4.783  2.3500  1.6628 -0.7503
  169SAPE  C21619031   0.633   2.495   4.673 -0.5809 -0.2136 -0.3224
  169SAPE  H16R19032   0.581   2.426   4.743  1.7933 -0.6136  1.1746
  169SAPE  H16S19033   0.596   2.472   4.571  0.0821  1.0198 -0.8598
  169SAPE  C21719034   0.599   2.646   4.699  0.2483 -0.5005  0.6838
  169SAPE  H17R19035   0.493   2.664   4.671  1.0073  0.6401 -1.7118
  169SAPE  H17S19036   0.670   2.698   4.631  1.0089 -1.2048  0.9183
  169SAPE  C21819037   0.626   2.705   4.842 -0.4593  0.1406  0.5574
  169SAPE  H18R19038   0.736   2.688   4.850 -0.4814 -1.9447 -2.0833
  169SAPE  H18S19039   0.567   2.644   4.914  0.6161 -1.5151  0.0960
  169SAPE  C21919040   0.576   2.848   4.847  0.2791  0.7972  0.1045
  169SAPE  H19R19041   0.466   2.855   4.838  0.1329 -0.2724  0.8853
  169SAPE  H19S19042   0.616   2.912   4.765 -4.6377  0.4879 -2.9124
  169SAPE  C22019043   0.615   2.911   4.980  0.5427  0.3334  0.1597
  169SAPE  H20R19044   0.570   2.869   5.072 -0.3535  0.7334 -0.0870
  169SAPE  H20S19045   0.576   3.015   4.982  1.7666  0.8889 -1.8589
  169SAPE  H20T19046   0.724   2.904   5.004  0.4513 -1.5710  0.1614
  169SAPE   C3319047   1.195   3.035   3.842 -0.7303 -0.0091 -0.0585
  169SAPE   H3X19048   1.105   2.973   3.862  0.5749 -1.5671  1.2767
  169SAPE   H3Y19049   1.146   3.132   3.817  1.0142  0.4346 -2.0258
  169SAPE   C3419050   1.277   3.036   3.971 -0.1059 -0.1427  0.3831
  169SAPE   H4X19051   1.362   3.106   3.963 -1.8004  2.2353  1.6086
  169SAPE   H4Y19052   1.313   2.934   3.996  2.6321  0.5535 -0.4288
  169SAPE   C3519053   1.199   3.078   4.101  0.8667  0.4150 -0.0422
  169SAPE   H5X19054   1.137   2.987   4.119  0.6972  0.3384 -0.9464
  169SAPE   H5Y19055   1.152   3.175   4.075  1.8839  0.7338 -0.7545
  169SAPE   C3619056   1.288   3.115   4.225 -0.4490 -0.3274  0.2643
  169SAPE   H6X19057   1.373   3.175   4.185  0.9779 -1.5711  1.3312
  169SAPE   H6Y19058   1.344   3.023   4.251  2.0744  0.8016 -0.8088
  169SAPE   C3719059   1.219   3.179   4.345 -0.1942  0.4564 -0.2647
  169SAPE   H7X19060   1.179   3.280   4.321 -0.9703 -0.0171 -1.0374
  169SAPE   H7Y19061   1.292   3.212   4.422  1.4429  0.7714 -1.9127
  169SAPE   C3819062   1.111   3.103   4.425 -0.1400  0.4589  1.0810
  169SAPE   H8X19063   1.146   3.000   4.450 -0.4264  0.0197 -0.2389
  169SAPE   H8Y19064   1.028   3.082   4.354  1.0665  1.2377 -0.6212
  169SAPE   C3919065   1.068   3.164   4.554 -0.4667  0.0666  0.0659
  169SAPE   H9X19066   1.027   3.260   4.514  1.2256  0.1254 -1.6609
  169SAPE   H9Y19067   1.157   3.179   4.619 -0.4389 -0.2347  0.0974
  169SAPE  C31019068   0.962   3.073   4.629  0.1163  0.0740 -0.2537
  169SAPE  H10X19069   0.997   2.995   4.700 -1.2620 -0.1378  0.2266
  169SAPE  H10Y19070   0.923   3.022   4.538 -1.2700  2.9529 -1.4053
  169SAPE  C31119071   0.862   3.151   4.718 -0.1874 -0.5346 -0.1673
  169SAPE  H11X19072   0.788   3.079   4.757  0.4974 -1.7970 -1.1110
  169SAPE  H11Y19073   0.813   3.224   4.650  1.8365  0.1914 -0.9378
  169SAPE  C31219074   0.923   3.225   4.834 -0.4304  0.4547 -0.5293
  169SAPE  H12X19075   1.000   3.299   4.802  0.9637 -2.1332 -3.7788
  169SAPE  H12Y19076   0.977   3.149   4.895 -0.7680  0.7193  0.1025
  169SAPE  C31319077   0.820   3.297   4.919  0.0615 -0.3661  0.2526
  169SAPE  H13X19078   0.861   3.297   5.022 -1.2732 -1.8151  0.8312
  169SAPE  H13Y19079   0.724   3.240   4.926 -2.8730  4.2406  1.7011
  169SAPE  C31419080   0.798   3.441   4.871  0.3824  0.9869 -0.4486
  169SAPE  H14X19081   0.757   3.438   4.768  1.6547  0.1862 -0.9581
  169SAPE  H14Y19082   0.897   3.491   4.868  1.1202 -0.3961 -0.1691
  169SAPE  C31519083   0.721   3.520   4.969  0.6681 -0.1397 -0.2496
  169SAPE  H15X19084   0.621   3.481   4.997 -0.3722  0.0298 -3.4014
  169SAPE  H15Y19085   0.704   3.619   4.922 -1.1057 -0.8851 -1.2990
  169SAPE  C31619086   0.803   3.556   5.096 -0.1406  0.8099 -0.1386
  169SAPE  H16X19087   0.897   3.610   5.073  0.5745 -0.2588  0.1648
  169SAPE  H16Y19088   0.827   3.461   5.149 -0.4715 -0.4798 -2.1851
  169SAPE  C31719089   0.734   3.654   5.194  0.6250 -0.5818 -0.7923
  169SAPE  H17X19090   0.801   3.672   5.280 -1.2485  2.8276  0.1650
  169SAPE  H17Y19091   0.642   3.599   5.225 -0.7813  1.5056 -1.0353
  169SAPE  C31819092   0.689   3.787   5.129 -0.6231 -0.3669  0.5428
  169SAPE  H18X19093   0.628   3.759   5.040 -0.3551 -0.2768  0.3310
  169SAPE  H18Y19094   0.771   3.846   5.084 -0.8146  1.4699  2.4812
  169SAPE  H18Z19095   0.614   3.844   5.188  1.2105  0.5442  2.0798
  170SAPE     N19096   2.066   3.854   2.416 -0.0356 -0.2810  0.6504
  170SAPE   HN119097   2.092   3.918   2.338 -1.1586  0.9856  1.2771
  170SAPE   HN219098   2.127   3.770   2.413  0.1045 -0.1620 -1.9792
  170SAPE   HN319099   1.969   3.819   2.400  0.1085 -0.3071 -0.2505
  170SAPE   C1219100   2.078   3.913   2.549 -0.1628 -0.6284 -0.0770
  170SAPE  H12A19101   2.052   3.831   2.620 -0.3939  0.8484  1.6052
  170SAPE  H12B19102   1.997   3.989   2.558 -0.6877 -1.0886 -0.7676
  170SAPE   C1119103   2.206   3.985   2.579  0.0846  0.1712  0.0648
  170SAPE  H11A19104   2.212   4.022   2.683  1.1704 -0.0869  0.1079
  170SAPE  H11B19105   2.218   4.071   2.509  1.4346 -1.2862 -1.6227
  170SAPE     P19106   2.363   3.793   2.652  0.3680  0.6695  0.1551
  170SAPE   O1319107   2.244   3.704   2.662  0.0223  0.0268  0.2379
  170SAPE   O1419108   2.491   3.737   2.602 -0.0184  0.2512  0.1197
  170SAPE   O1219109   2.319   3.907   2.556  0.3809 -0.3392  0.5618
  170SAPE   O1119110   2.386   3.878   2.790 -0.2540  0.4347  0.1133
  170SAPE    C119111   2.481   3.984   2.803 -0.4092  1.0204  0.2683
  170SAPE    HA19112   2.473   4.056   2.719  0.3650  0.4867 -0.2824
  170SAPE    HB19113   2.463   4.041   2.896  2.3139  1.4305  0.6395
  170SAPE    C219114   2.631   3.949   2.826 -0.3007 -0.9181  0.3436
  170SAPE    HS19115   2.663   3.860   2.768  2.4914  0.6901 -0.8417
  170SAPE   O2119116   2.667   3.942   2.967  0.5206 -0.2241  0.1468
  170SAPE   C2119117   2.732   3.848   3.005 -0.5801  0.5659 -0.1880
  170SAPE   O2219118   2.795   3.765   2.936  0.1854 -0.3537  0.2885
  170SAPE   C2219119   2.732   3.839   3.162  0.2206 -0.1246 -0.1157
  170SAPE   H2R19120   2.629   3.798   3.169 -0.0467 -0.3904 -3.6053
  170SAPE   H2S19121   2.813   3.774   3.200 -0.8461 -1.4643 -0.0795
  170SAPE    C319122   2.724   4.053   2.755  0.1736  0.1539 -0.1552
  170SAPE    HX19123   2.683   4.059   2.653  0.3034 -0.6782 -0.2687
  170SAPE    HY19124   2.827   4.009   2.757 -0.0586 -0.3832  0.6185
  170SAPE   O3119125   2.723   4.181   2.813  0.1326  0.3902  0.8238
  170SAPE   C3119126   2.810   4.200   2.915  0.1545 -0.0943  0.1204
  170SAPE   O3219127   2.905   4.128   2.934 -0.9427 -0.1827  0.0862
  170SAPE   C3219128   2.763   4.313   3.008  1.3370 -0.3039 -0.0956
  170SAPE   H2X19129   2.672   4.268   3.054  1.5906 -2.9141 -1.9376
  170SAPE   H2Y19130   2.715   4.397   2.954  1.4809  1.0332  1.7724
  170SAPE   C2319131   2.728   3.979   3.229 -0.5252  0.2287  0.4727
  170SAPE   H3R19132   2.649   4.044   3.185 -1.5424 -1.1525  0.1979
  170SAPE   H3S19133   2.824   4.028   3.201  1.0603 -2.1952  1.3396
  170SAPE   C2419134   2.716   3.970   3.384 -1.0504  0.5662  0.1662
  170SAPE   H4R19135   2.630   3.903   3.409 -0.5350 -0.4955 -0.7702
  170SAPE   H4S19136   2.696   4.073   3.419 -1.3771  0.9896 -1.1952
  170SAPE   C2519137   2.845   3.913   3.441 -0.0663  0.2357  0.3361
  170SAPE   H5R19138   2.913   3.898   3.356 -0.4855  0.1400  0.0153
  170SAPE   C2619139   2.878   3.898   3.571  0.2205  0.4850  0.4502
  170SAPE   H6R19140   2.967   3.840   3.599 -1.0554 -1.8768 -0.1123
  170SAPE   C2719141   2.774   3.921   3.687 -0.9402 -0.0673  0.1345
  170SAPE   H7R19142   2.766   3.826   3.745 -2.0588 -0.0302  0.0721
  170SAPE   H7S19143   2.671   3.955   3.663 -0.5231 -0.2079 -2.0957
  170SAPE   C2819144   2.830   4.015   3.783  0.1846 -0.1021  0.2674
  170SAPE   H8R19145   2.870   4.108   3.741 -1.4512  0.6948  0.4062
  170SAPE   C2919146   2.815   4.009   3.921 -0.1484 -0.1294 -0.1659
  170SAPE   H9R19147   2.876   4.080   3.978 -0.7470  0.1512  0.1405
  170SAPE  C21019148   2.747   3.909   4.010  0.1340  0.0070 -0.3753
  170SAPE  H10R19149   2.818   3.824   4.022  1.4835  0.9661 -1.2029
  170SAPE  H10S19150   2.657   3.867   3.960 -0.4007 -2.0935  2.1672
  170SAPE  C21119151   2.702   3.964   4.145  0.7325 -0.0011 -0.4632
  170SAPE  H11R19152   2.649   4.061   4.139  4.9627  2.5785 -0.0447
  170SAPE  C21219153   2.730   3.915   4.267  0.0190  0.2257 -0.8359
  170SAPE  H12R19154   2.683   3.966   4.352 -0.8000  1.5783 -2.0525
  170SAPE  C21319155   2.795   3.780   4.313  0.1100 -0.0848  0.3895
  170SAPE  H13R19156   2.887   3.756   4.257  0.0684 -0.2073  0.3728
  170SAPE  H13S19157   2.743   3.689   4.275  0.9193  0.3859 -2.0117
  170SAPE  C21419158   2.829   3.766   4.459 -0.8078  0.0115  0.5272
  170SAPE  H14R19159   2.937   3.774   4.481 -1.0807  1.5321  1.4640
  170SAPE  C21519160   2.747   3.748   4.559  0.1380  0.7187 -0.5363
  170SAPE  H15R19161   2.795   3.721   4.654  1.0541 -0.8736 -1.3983
  170SAPE  C21619162   2.597   3.729   4.559  0.2155  0.7662  0.1388
  170SAPE  H16R19163   2.569   3.624   4.580 -0.4306  0.8670 -0.1975
  170SAPE  H16S19164   2.555   3.748   4.458 -2.8658 -1.6868  0.8042
  170SAPE  C21719165   2.516   3.817   4.660  0.7881  0.0249  0.0020
  170SAPE  H17R19166   2.410   3.782   4.653  0.9413 -0.4392 -0.0063
  170SAPE  H17S19167   2.506   3.921   4.622 -2.6111  0.3454  1.3863
  170SAPE  C21819168   2.564   3.817   4.802 -0.1779 -0.1112 -0.3565
  170SAPE  H18R19169   2.495   3.877   4.864  0.6555 -0.2117  0.6925
  170SAPE  H18S19170   2.664   3.866   4.806 -0.5257  0.7377 -1.5589
  170SAPE  C21919171   2.573   3.674   4.871  0.0463 -0.7009  0.7769
  170SAPE  H19R19172   2.621   3.611   4.793  0.0002  0.2414 -0.0297
  170SAPE  H19S19173   2.468   3.648   4.896 -0.0420 -1.5021 -0.3900
  170SAPE  C22019174   2.656   3.670   5.001 -0.2512  0.1733  0.6399
  170SAPE  H20R19175   2.616   3.728   5.087  0.2437  0.9029  0.3892
  170SAPE  H20S19176   2.763   3.695   4.984 -1.1683  2.9177 -2.2181
  170SAPE  H20T19177   2.641   3.565   5.031 -1.5262  0.0490 -0.3300
  170SAPE   C3319178   2.875   4.365   3.104  0.9188 -0.2566 -0.2347
  170SAPE   H3X19179   2.875   4.476   3.094  0.4913 -0.2527 -0.2420
  170SAPE   H3Y19180   2.977   4.343   3.067  0.3533  0.7229 -2.6229
  170SAPE   C3419181   2.847   4.345   3.252  0.2947  0.2795 -0.0744
  170SAPE   H4X19182   2.849   4.237   3.277  1.1672  0.6885  1.8285
  170SAPE   H4Y19183   2.749   4.387   3.283 -0.2322 -1.0073  0.0907
  170SAPE   C3519184   2.953   4.409   3.341 -0.5376  0.0187 -0.1637
  170SAPE   H5X19185   2.944   4.519   3.355 -0.5407 -0.0972  0.7794
  170SAPE   H5Y19186   3.051   4.392   3.290  0.4145  0.5198  1.4134
  170SAPE   C3619187   2.970   4.360   3.481 -0.0635  0.1813 -1.4074
  170SAPE   H6X19188   2.958   4.250   3.492  2.5033 -0.0075  0.6481
  170SAPE   H6Y19189   2.881   4.403   3.531  0.7685 -0.4239  0.7041
  170SAPE   C3719190   3.098   4.415   3.548 -0.3414  0.2756  0.3247
  170SAPE   H7X19191   3.099   4.526   3.549 -0.0309  0.2793  1.6548
  170SAPE   H7Y19192   3.178   4.375   3.482 -0.2415 -2.4463  1.9358
  170SAPE   C3819193   3.110   4.367   3.692 -0.2840 -0.1013 -0.3960
  170SAPE   H8X19194   3.211   4.402   3.724 -1.1102  0.7704  1.3724
  170SAPE   H8Y19195   3.103   4.257   3.699 -0.4392 -0.0429  0.4315
  170SAPE   C3919196   3.004   4.428   3.780 -0.8474  0.0416 -0.3887
  170SAPE   H9X19197   2.908   4.374   3.762 -1.0274  0.4515 -0.6909
  170SAPE   H9Y19198   2.998   4.535   3.750 -2.2399  0.1583  0.2315
  170SAPE  C31019199   3.047   4.427   3.925  0.9141  0.4136 -0.3665
  170SAPE  H10X19200   3.121   4.508   3.942  0.4676  0.9707 -1.0395
  170SAPE  H10Y19201   3.099   4.331   3.949  0.1194 -0.0054 -0.2646
  170SAPE  C31119202   2.925   4.433   4.024  0.1436 -0.2810  0.3254
  170SAPE  H11X19203   2.834   4.406   3.966  0.2319 -0.3132  0.2033
  170SAPE  H11Y19204   2.916   4.541   4.051  0.5566  0.1397 -1.1565
  170SAPE  C31219205   2.953   4.348   4.144 -0.3035  0.4086 -0.5648
  170SAPE  H12X19206   2.989   4.249   4.108  1.9742  1.7679 -2.3367
  170SAPE  H12Y19207   2.857   4.331   4.197 -0.1298  1.3827  0.0876
  170SAPE  C31319208   3.057   4.409   4.245 -1.1250 -0.1167  0.2713
  170SAPE  H13X19209   3.005   4.494   4.294 -1.3228 -0.5265  0.7770
  170SAPE  H13Y19210   3.149   4.443   4.192 -0.8712 -0.3914  0.5374
  170SAPE  C31419211   3.104   4.304   4.353  0.5848  0.0864 -0.7198
  170SAPE  H14X19212   3.149   4.369   4.432 -1.8433 -2.5690  3.2085
  170SAPE  H14Y19213   3.186   4.235   4.323  1.1321  0.3282  0.1719
  170SAPE  C31519214   2.985   4.235   4.430 -0.5678 -0.1100  0.1490
  170SAPE  H15X19215   2.905   4.205   4.358  1.1091 -1.3430 -1.2849
  170SAPE  H15Y19216   2.960   4.320   4.497 -0.2640  0.4904 -0.4932
  170SAPE  C31619217   3.021   4.122   4.518 -0.1848  0.4302 -0.2598
  170SAPE  H16X19218   3.120   4.141   4.563 -1.1181  1.1075  1.6024
  170SAPE  H16Y19219   3.033   4.026   4.464  2.1940 -0.3190  1.4534
  170SAPE  C31719220   2.918   4.097   4.631  0.9557 -0.1142 -0.1016
  170SAPE  H17X19221   2.823   4.066   4.584  0.3077  0.8371  0.5427
  170SAPE  H17Y19222   2.887   4.192   4.681 -0.4566  0.1210 -1.3629
  170SAPE  C31819223   2.961   4.000   4.742 -0.4263  0.0687 -0.0444
  170SAPE  H18X19224   3.065   4.023   4.773 -0.6062  0.6604  0.1290
  170SAPE  H18Y19225   2.951   3.901   4.692 -1.8860 -0.8643  1.9541
  170SAPE  H18Z19226   2.891   3.994   4.828  0.0954 -1.1284  0.3233
  171SAPE     N19227   4.108   2.693   2.691 -0.1761 -0.1146  0.0884
  171SAPE   HN119228   4.188   2.704   2.626  0.0536  0.5919  0.4729
  171SAPE   HN219229   4.041   2.769   2.665 -0.3847 -0.3116  0.0476
  171SAPE   HN319230   4.131   2.719   2.789 -0.5820  1.1397 -0.1278
  171SAPE   C1219231   4.051   2.559   2.680 -0.3672  0.3243 -0.9349
  171SAPE  H12A19232   4.127   2.481   2.704  1.6795  2.7549  1.0593
  171SAPE  H12B19233   4.012   2.539   2.578 -0.9316  0.5925 -0.7739
  171SAPE   C1119234   3.930   2.543   2.773  0.1252 -0.1494 -0.5915
  171SAPE  H11A19235   3.969   2.540   2.877 -0.0264 -2.3460 -0.5655
  171SAPE  H11B19236   3.877   2.447   2.758 -1.1834  0.7630 -2.1308
  171SAPE     P19237   3.806   2.758   2.866 -0.3321  0.1850  0.0862
  171SAPE   O1319238   3.931   2.805   2.920 -0.4742 -0.1293 -0.4862
  171SAPE   O1419239   3.716   2.861   2.807 -0.1307 -0.0655 -0.0074
  171SAPE   O1219240   3.837   2.649   2.756 -0.6705 -0.0320 -0.3865
  171SAPE   O1119241   3.726   2.676   2.973  0.3145 -0.2945  0.3943
  171SAPE    C119242   3.741   2.686   3.115  0.6375 -0.4366  0.2338
  171SAPE    HA19243   3.784   2.782   3.151 -2.0808  1.2519 -0.7264
  171SAPE    HB19244   3.640   2.669   3.159 -0.1161 -1.7500 -1.8393
  171SAPE    C219245   3.830   2.573   3.176  0.2581  0.3694  0.3528
  171SAPE    HS19246   3.924   2.573   3.117  0.1986 -1.2456  0.2202
  171SAPE   O2119247   3.749   2.449   3.162 -0.3255 -0.2706 -0.5413
  171SAPE   C2119248   3.808   2.356   3.098  0.2426 -0.3558  0.0400
  171SAPE   O2219249   3.918   2.351   3.053 -0.3528  0.5769  0.0304
  171SAPE   C2219250   3.710   2.240   3.098  0.2748  0.8966  0.1142
  171SAPE   H2R19251   3.607   2.268   3.130  0.5084  0.0931  1.6389
  171SAPE   H2S19252   3.697   2.211   2.992  0.2696 -1.4498  0.7147
  171SAPE    C319253   3.857   2.584   3.329 -0.3316 -0.1352  0.8236
  171SAPE    HX19254   3.890   2.481   3.353 -0.3167 -1.0315 -2.5373
  171SAPE    HY19255   3.763   2.592   3.388 -0.8133  1.0146 -0.0716
  171SAPE   O3119256   3.941   2.691   3.381  0.1289  0.3599 -0.4474
  171SAPE   C3119257   4.067   2.708   3.353  1.0475 -0.2633 -0.0686
  171SAPE   O3219258   4.142   2.630   3.295 -0.3158 -0.4977 -0.6915
  171SAPE   C3219259   4.116   2.840   3.407 -0.0869  0.7174 -0.0736
  171SAPE   H2X19260   4.028   2.901   3.378 -0.1473 -0.0126 -1.5159
  171SAPE   H2Y19261   4.206   2.867   3.349 -0.1158  1.7624  0.3476
  171SAPE   C2319262   3.757   2.121   3.179  0.1248  0.0719 -0.6063
  171SAPE   H3R19263   3.855   2.092   3.137  0.5543  2.8512 -1.7239
  171SAPE   H3S19264   3.684   2.039   3.162  0.8612 -1.1720  1.7784
  171SAPE   C2419265   3.790   2.147   3.328  0.1504 -0.3167  0.2311
  171SAPE   H4R19266   3.884   2.207   3.332  0.5215 -0.5229 -3.0224
  171SAPE   H4S19267   3.795   2.043   3.368  1.0505 -0.2170  0.4079
  171SAPE   C2519268   3.676   2.216   3.399 -0.5582  0.3200 -0.7332
  171SAPE   H5R19269   3.583   2.209   3.340 -0.2032 -1.6842 -1.1320
  171SAPE   C2619270   3.675   2.280   3.514 -0.2912 -0.2606  0.4798
  171SAPE   H6R19271   3.582   2.323   3.553 -1.2998 -1.2564 -0.7128
  171SAPE   C2719272   3.794   2.299   3.610  0.5491  0.0665 -0.0100
  171SAPE   H7R19273   3.816   2.406   3.627 -0.2947  0.2306  0.1003
  171SAPE   H7S19274   3.880   2.239   3.573 -1.7348 -4.1392  0.8601
  171SAPE   C2819275   3.746   2.241   3.742 -1.2201  0.6083  0.8968
  171SAPE   H8R19276   3.739   2.131   3.741  1.4898  0.3407 -1.4868
  171SAPE   C2919277   3.739   2.301   3.859  0.1480  0.5760 -0.1676
  171SAPE   H9R19278   3.701   2.242   3.944 -1.5153  0.4359 -0.9626
  171SAPE  C21019279   3.757   2.446   3.880  0.4005 -0.5211 -0.3968
  171SAPE  H10R19280   3.706   2.514   3.809 -0.5602 -0.3406  0.4571
  171SAPE  H10S19281   3.865   2.470   3.865  0.0462  0.2533 -1.9247
  171SAPE  C21119282   3.726   2.486   4.026 -0.0992 -0.0058 -0.5678
  171SAPE  H11R19283   3.630   2.538   4.037 -0.0075  0.3850 -1.4842
  171SAPE  C21219284   3.788   2.461   4.141 -0.2476 -0.0507 -0.3546
  171SAPE  H12R19285   3.750   2.490   4.240  0.5188 -2.4476  0.7283
  171SAPE  C21319286   3.926   2.400   4.162  1.0500 -0.3744 -0.1517
  171SAPE  H13R19287   3.989   2.410   4.071  1.4206 -1.3887 -0.0240
  171SAPE  H13S19288   3.903   2.295   4.191 -0.3175  0.6888  3.0285
  171SAPE  C21419289   3.995   2.465   4.280  0.0387  0.2382  0.0296
  171SAPE  H14R19290   4.061   2.549   4.254 -0.3188  0.3244 -0.5995
  171SAPE  C21519291   3.974   2.438   4.409 -0.3881  0.5134  0.2815
  171SAPE  H15R19292   4.050   2.467   4.483 -1.3309 -0.8283  1.8410
  171SAPE  C21619293   3.872   2.339   4.457  0.3298  0.6229 -0.2768
  171SAPE  H16R19294   3.856   2.259   4.381 -1.2315 -0.9249  1.5697
  171SAPE  H16S19295   3.773   2.389   4.470 -0.5645 -1.0114 -0.3930
  171SAPE  C21719296   3.895   2.285   4.600  1.2664  0.0115  0.7518
  171SAPE  H17R19297   3.902   2.368   4.674 -2.2477  0.8550  0.3442
  171SAPE  H17S19298   3.994   2.236   4.601  0.4362 -1.8822 -1.3093
  171SAPE  C21819299   3.782   2.183   4.630  0.2229  0.5410 -0.4514
  171SAPE  H18R19300   3.791   2.100   4.556 -0.5816  0.1976 -0.1781
  171SAPE  H18S19301   3.680   2.227   4.638 -1.6148 -3.4002  0.2120
  171SAPE  C21919302   3.805   2.118   4.776  0.1899  0.8828  0.4276
  171SAPE  H19R19303   3.715   2.062   4.808 -0.0579  0.9937 -0.0624
  171SAPE  H19S19304   3.809   2.190   4.861  1.8548  0.8045  0.4490
  171SAPE  C22019305   3.936   2.026   4.788  0.3579 -0.2921  0.6499
  171SAPE  H20R19306   3.956   2.004   4.895 -1.4733 -1.7154  0.7407
  171SAPE  H20S19307   4.025   2.084   4.755 -1.3051 -0.1722 -4.4498
  171SAPE  H20T19308   3.928   1.937   4.723 -1.9383  1.4307 -1.6040
  171SAPE   C3319309   4.152   2.840   3.557  0.2440  0.2015  0.0282
  171SAPE   H3X19310   4.191   2.940   3.584 -3.1363  1.1637  1.9152
  171SAPE   H3Y19311   4.230   2.763   3.577 -0.5779 -0.2260  1.7467
  171SAPE   C3419312   4.028   2.824   3.642  0.1837  0.1674  0.7629
  171SAPE   H4X19313   3.983   2.723   3.646  0.7851 -0.0781  2.0803
  171SAPE   H4Y19314   3.957   2.896   3.596  0.3704  1.1839  2.0089
  171SAPE   C3519315   4.041   2.864   3.790 -0.3263 -0.5937  0.6256
  171SAPE   H5X19316   3.942   2.856   3.840 -0.4264  0.5971  0.6358
  171SAPE   H5Y19317   4.077   2.968   3.802  1.1852 -1.0280  0.0649
  171SAPE   C3619318   4.153   2.785   3.860  0.6185  0.3024 -0.5455
  171SAPE   H6X19319   4.244   2.792   3.797 -0.2543  0.4510 -1.8329
  171SAPE   H6Y19320   4.133   2.675   3.867  0.1905  0.3387 -1.0928
  171SAPE   C3719321   4.162   2.830   4.006 -0.4727 -0.6011  0.0145
  171SAPE   H7X19322   4.203   2.933   4.018 -0.1249 -0.8922  1.6089
  171SAPE   H7Y19323   4.240   2.768   4.054  0.7898  1.1203  0.2740
  171SAPE   C3819324   4.038   2.804   4.084  0.3028 -0.1687 -0.3546
  171SAPE   H8X19325   4.004   2.698   4.081 -0.7524  0.1859 -1.6741
  171SAPE   H8Y19326   3.955   2.856   4.031 -1.0442 -0.8278  1.0262
  171SAPE   C3919327   4.041   2.854   4.233  0.5527  0.3059  0.4571
  171SAPE   H9X19328   4.083   2.956   4.244 -1.0829  0.9280  1.1039
  171SAPE   H9Y19329   4.109   2.778   4.276 -2.8517 -3.0761  0.3526
  171SAPE  C31019330   3.905   2.836   4.302  0.8018 -0.6311 -0.5795
  171SAPE  H10X19331   3.848   2.748   4.265 -2.0394  0.2960  1.2249
  171SAPE  H10Y19332   3.836   2.923   4.293 -0.0041 -0.8191  2.4390
  171SAPE  C31119333   3.929   2.819   4.453  1.1628  0.0625  0.7655
  171SAPE  H11X19334   3.974   2.915   4.487 -0.4105  0.7056  1.1026
  171SAPE  H11Y19335   3.983   2.725   4.481  1.2225  0.8797  3.7734
  171SAPE  C31219336   3.792   2.802   4.534  0.7535  0.1360 -0.1029
  171SAPE  H12X19337   3.740   2.705   4.520 -3.4129  2.1471 -0.1520
  171SAPE  H12Y19338   3.722   2.882   4.501 -0.8548 -1.2131 -0.0814
  171SAPE  C31319339   3.808   2.831   4.688 -0.8529 -0.3540 -0.0606
  171SAPE  H13X19340   3.878   2.916   4.696 -2.4052  0.9760 -0.1457
  171SAPE  H13Y19341   3.851   2.741   4.737 -0.5613  0.5575  1.4200
  171SAPE  C31419342   3.677   2.862   4.755  0.5123  0.7226  0.3580
  171SAPE  H14X19343   3.650   2.970   4.753 -0.9654  0.3693  0.2051
  171SAPE  H14Y19344   3.684   2.839   4.864 -0.3642  2.0297  0.7122
  171SAPE  C31519345   3.558   2.782   4.686 -0.2463  0.3687  0.0372
  171SAPE  H15X19346   3.586   2.674   4.685  2.0467  0.9203  0.0890
  171SAPE  H15Y19347   3.527   2.806   4.582 -0.6379  0.1349  0.0973
  171SAPE  C31619348   3.430   2.792   4.764  0.4538 -0.3658 -0.2774
  171SAPE  H16X19349   3.382   2.885   4.727 -1.3934 -1.4285 -0.7148
  171SAPE  H16Y19350   3.444   2.808   4.873  0.1906 -2.8947  0.1997
  171SAPE  C31719351   3.339   2.674   4.725 -0.1106  0.3143 -0.3174
  171SAPE  H17X19352   3.372   2.581   4.776  0.4448  0.8989  0.4014
  171SAPE  H17Y19353   3.341   2.660   4.614  0.1025 -1.3521 -0.1353
  171SAPE  C31819354   3.191   2.695   4.757  0.3546 -0.1966 -0.3144
  171SAPE  H18X19355   3.139   2.613   4.703 -0.9451  1.1188 -1.1146
  171SAPE  H18Y19356   3.143   2.780   4.706 -1.3382 -0.5975  0.5157
  171SAPE  H18Z19357   3.179   2.696   4.868  2.1797  2.6009 -0.0621
  172SAPE     N19358   3.089   5.778   2.360 -0.3912 -0.1966  0.1031
  172SAPE   HN119359   2.995   5.809   2.391 -0.8151 -0.7251 -0.6220
  172SAPE   HN219360   3.135   5.857   2.310 -2.0519  0.3045 -0.7059
  172SAPE   HN319361   3.074   5.699   2.294  0.6072  0.4303 -0.9111
  172SAPE   C1219362   3.159   5.743   2.484  0.3334 -0.0194 -0.7084
  172SAPE  H12A19363   3.245   5.676   2.464 -0.1429 -0.6687 -0.6099
  172SAPE  H12B19364   3.080   5.685   2.536  0.6919 -0.4654 -0.6551
  172SAPE   C1119365   3.193   5.866   2.569  0.0662 -0.1408 -0.4779
  172SAPE  H11A19366   3.260   5.925   2.502  1.3677 -0.9104  0.0894
  172SAPE  H11B19367   3.255   5.818   2.648  1.3563  1.7419 -0.2701
  172SAPE     P19368   2.997   5.905   2.744 -0.0311  0.1758  0.0615
  172SAPE   O1319369   3.022   5.997   2.847  0.2372  0.5070 -0.5369
  172SAPE   O1419370   2.860   5.895   2.690  0.0287  0.5451  0.1405
  172SAPE   O1219371   3.080   5.946   2.619  0.0554  0.2489  0.0615
  172SAPE   O1119372   3.049   5.766   2.776 -0.3720  0.2263  0.3805
  172SAPE    C119373   3.010   5.691   2.892  0.1286  0.4452 -0.4687
  172SAPE    HA19374   2.938   5.748   2.955 -0.8580 -1.3849  0.1415
  172SAPE    HB19375   2.952   5.601   2.864 -1.7024  1.4091  0.0149
  172SAPE    C219376   3.136   5.652   2.974  0.5199  0.8160 -0.5810
  172SAPE    HS19377   3.096   5.610   3.069 -0.9180  0.5107 -1.2948
  172SAPE   O2119378   3.222   5.770   2.997 -0.2358  0.1077  0.1841
  172SAPE   C2119379   3.182   5.855   3.092  0.0568  0.3226 -0.7877
  172SAPE   O2219380   3.076   5.854   3.150 -0.5682  0.0591  0.5090
  172SAPE   C2219381   3.294   5.953   3.128 -0.1656  0.3771  0.3168
  172SAPE   H2R19382   3.303   5.946   3.239  1.9854  0.0105  0.1653
  172SAPE   H2S19383   3.395   5.929   3.088 -1.2396 -0.7268 -1.9133
  172SAPE    C319384   3.222   5.553   2.888  0.1617 -0.1097  0.5848
  172SAPE    HX19385   3.264   5.615   2.806 -3.0246  2.9362  1.0103
  172SAPE    HY19386   3.152   5.481   2.841  0.1867 -0.3094  0.8484
  172SAPE   O3119387   3.320   5.487   2.967  0.2438 -0.2637 -0.2761
  172SAPE   C3119388   3.445   5.532   2.963  0.2098  0.8544  0.6725
  172SAPE   O3219389   3.491   5.612   2.885 -0.3436 -0.6512 -0.4720
  172SAPE   C3219390   3.543   5.461   3.059  0.1115  0.0446 -0.7586
  172SAPE   H2X19391   3.647   5.472   3.021  0.0270  0.3315 -0.9011
  172SAPE   H2Y19392   3.515   5.353   3.062 -1.4685  0.4631  1.2200
  172SAPE   C2319393   3.262   6.104   3.091  0.1808 -0.1417 -0.4464
  172SAPE   H3R19394   3.165   6.121   3.142 -0.4737 -2.0700 -0.9341
  172SAPE   H3S19395   3.245   6.106   2.981 -0.5904 -0.8439 -0.3546
  172SAPE   C2419396   3.359   6.210   3.151  0.0997 -0.8426 -1.1350
  172SAPE   H4R19397   3.385   6.192   3.258  1.0781  0.2192 -1.1694
  172SAPE   H4S19398   3.297   6.302   3.149  0.0833 -0.7950  0.3206
  172SAPE   C2519399   3.487   6.227   3.066 -0.3858  0.1871 -0.2399
  172SAPE   H5R19400   3.474   6.274   2.967  0.0297 -0.1155 -0.4397
  172SAPE   C2619401   3.615   6.207   3.105  0.2483 -0.6344  0.0189
  172SAPE   H6R19402   3.690   6.252   3.039 -1.4043  1.6527 -0.3988
  172SAPE   C2719403   3.662   6.168   3.235 -0.1344  0.1810 -0.9321
  172SAPE   H7R19404   3.594   6.091   3.277 -1.3276 -0.0217 -3.1059
  172SAPE   H7S19405   3.658   6.253   3.306  0.8364 -1.1305  0.7541
  172SAPE   C2819406   3.804   6.116   3.225  0.5372 -0.2379  0.0264
  172SAPE   H8R19407   3.822   6.059   3.133 -2.6876 -0.8484 -0.3551
  172SAPE   C2919408   3.904   6.126   3.310  1.0880 -0.1904  0.0011
  172SAPE   H9R19409   4.001   6.079   3.287  0.8535 -0.4063 -0.5729
  172SAPE  C21019410   3.884   6.193   3.443 -0.5278 -1.2104  0.0589
  172SAPE  H10R19411   3.793   6.155   3.494  0.5559  0.9305  3.9265
  172SAPE  H10S19412   3.871   6.298   3.407  2.2370 -1.1686 -1.0543
  172SAPE  C21119413   4.014   6.196   3.522  0.4138  0.6086  0.1651
  172SAPE  H11R19414   4.106   6.178   3.464 -0.4016 -2.2132 -0.4376
  172SAPE  C21219415   4.023   6.202   3.651  0.1201 -0.0591 -0.0691
  172SAPE  H12R19416   4.120   6.221   3.699 -0.1442  1.8437 -0.1910
  172SAPE  C21319417   3.899   6.219   3.734  0.1111 -0.3901  0.1656
  172SAPE  H13R19418   3.868   6.119   3.773 -0.0012  0.4222  2.2995
  172SAPE  H13S19419   3.807   6.250   3.681 -1.1097  0.0064  2.3729
  172SAPE  C21419420   3.908   6.303   3.864 -0.4432  0.4913 -0.7922
  172SAPE  H14R19421   3.877   6.409   3.857 -1.6152  0.1442 -1.1044
  172SAPE  C21519422   3.940   6.263   3.987  0.6852 -0.0138 -0.5084
  172SAPE  H15R19423   3.938   6.326   4.076 -0.0242 -0.1612 -0.4178
  172SAPE  C21619424   3.992   6.130   4.034 -0.7091  0.3619 -0.2801
  172SAPE  H16R19425   4.103   6.133   4.028 -0.5440  1.0207  1.9906
  172SAPE  H16S19426   3.954   6.055   3.962 -1.9685  1.2276 -0.5470
  172SAPE  C21719427   3.946   6.073   4.171 -0.3396  0.0440  0.1582
  172SAPE  H17R19428   3.990   5.978   4.208 -0.6552  0.1923  0.9435
  172SAPE  H17S19429   3.839   6.043   4.170 -0.8688  1.8282 -0.3602
  172SAPE  C21819430   3.975   6.165   4.300  0.5971 -0.3158  0.1627
  172SAPE  H18R19431   4.058   6.236   4.277  0.1481  0.7049  1.5680
  172SAPE  H18S19432   3.994   6.089   4.379 -3.6011 -0.3258  1.4217
  172SAPE  C21919433   3.846   6.238   4.339 -0.3364  0.7249  0.5227
  172SAPE  H19R19434   3.771   6.162   4.366 -3.1641  2.5359 -1.6267
  172SAPE  H19S19435   3.801   6.295   4.255 -3.2399 -0.7844  0.9257
  172SAPE  C22019436   3.846   6.326   4.461 -0.0420 -0.2711  0.2684
  172SAPE  H20R19437   3.883   6.428   4.438 -1.4588  0.3679  0.6873
  172SAPE  H20S19438   3.921   6.291   4.536 -1.1360  1.5553  2.3548
  172SAPE  H20T19439   3.743   6.325   4.502 -0.9918 -0.5376 -2.0096
  172SAPE   C3319440   3.522   5.521   3.203 -0.0119  0.2930  0.1463
  172SAPE   H3X19441   3.568   5.453   3.278 -0.2681 -1.1532 -0.9645
  172SAPE   H3Y19442   3.414   5.514   3.224  0.2310  0.3854  1.4785
  172SAPE   C3419443   3.577   5.661   3.221  0.0721  0.7952  0.3156
  172SAPE   H4X19444   3.517   5.735   3.165 -1.9702 -0.7442  0.3560
  172SAPE   H4Y19445   3.687   5.667   3.205  0.1724  0.6764  0.9457
  172SAPE   C3519446   3.580   5.699   3.371 -0.2831 -0.4706 -0.9578
  172SAPE   H5X19447   3.654   5.636   3.425  0.4396 -0.9769 -2.4815
  172SAPE   H5Y19448   3.487   5.668   3.422  2.7173 -3.0560  3.6634
  172SAPE   C3619449   3.602   5.849   3.402 -0.2241 -0.2690 -0.6243
  172SAPE   H6X19450   3.527   5.890   3.331  1.3625 -3.0397 -4.2209
  172SAPE   H6Y19451   3.703   5.889   3.378  0.0902 -0.3721  0.4824
  172SAPE   C3719452   3.561   5.890   3.541 -0.8357  0.0484 -0.5023
  172SAPE   H7X19453   3.462   5.847   3.569  0.4805 -2.4840  0.5671
  172SAPE   H7Y19454   3.543   6.000   3.540 -0.7107  0.0921  0.7994
  172SAPE   C3819455   3.669   5.865   3.650 -0.3430 -0.0642 -0.5401
  172SAPE   H8X19456   3.766   5.916   3.630  0.6915 -2.2112 -1.4533
  172SAPE   H8Y19457   3.700   5.758   3.641 -0.3350 -0.1540  0.4568
  172SAPE   C3919458   3.616   5.880   3.792  0.6709 -1.1022  0.4044
  172SAPE   H9X19459   3.514   5.835   3.796 -0.4796  1.2943 -0.3297
  172SAPE   H9Y19460   3.606   5.989   3.808 -0.6509 -0.9061 -1.4122
  172SAPE  C31019461   3.704   5.818   3.902 -0.3777 -0.3744 -0.3267
  172SAPE  H10X19462   3.806   5.863   3.902  0.8482 -2.8941 -2.5405
  172SAPE  H10Y19463   3.726   5.713   3.875  1.9040  0.4138 -1.8589
  172SAPE  C31119464   3.641   5.829   4.043 -0.6859  0.3759 -0.2291
  172SAPE  H11X19465   3.546   5.772   4.027 -1.4802  1.8021 -0.7322
  172SAPE  H11Y19466   3.613   5.933   4.069 -0.8757  0.2797 -0.0379
  172SAPE  C31219467   3.747   5.779   4.151  0.5388  0.0181  0.0360
  172SAPE  H12X19468   3.840   5.838   4.140  1.2550 -0.9722  0.6254
  172SAPE  H12Y19469   3.765   5.670   4.154  0.5866  0.0057  3.4055
  172SAPE  C31319470   3.696   5.800   4.300 -0.6707  0.0266  0.3135
  172SAPE  H13X19471   3.605   5.739   4.318 -0.3347 -1.2388 -1.8860
  172SAPE  H13Y19472   3.678   5.909   4.306  0.1954  0.2103 -0.1392
  172SAPE  C31419473   3.804   5.765   4.402  0.5612  0.2877 -0.2468
  172SAPE  H14X19474   3.895   5.829   4.404  1.2530 -0.6767  1.0314
  172SAPE  H14Y19475   3.849   5.665   4.387  0.2732 -0.2192  1.8960
  172SAPE  C31519476   3.743   5.762   4.543 -0.0061  0.1422 -0.2241
  172SAPE  H15X19477   3.696   5.861   4.562  0.5118  0.2297  0.6815
  172SAPE  H15Y19478   3.817   5.764   4.626  0.2118 -0.5994 -0.3942
  172SAPE  C31619479   3.650   5.635   4.583  0.4405 -0.4266  0.0426
  172SAPE  H16X19480   3.712   5.547   4.556 -1.3769 -1.4211 -1.0286
  172SAPE  H16Y19481   3.565   5.628   4.512  0.9157 -0.7118 -0.5097
  172SAPE  C31719482   3.597   5.637   4.725 -0.3585  0.1497  0.0252
  172SAPE  H17X19483   3.505   5.700   4.729  0.0101  0.6286  1.3148
  172SAPE  H17Y19484   3.677   5.683   4.787  0.3371 -0.6332 -0.2782
  172SAPE  C31819485   3.556   5.494   4.773  0.3960  0.3788  0.2785
  172SAPE  H18X19486   3.490   5.495   4.862  0.9331 -0.0973  0.6873
  172SAPE  H18Y19487   3.649   5.442   4.805 -0.7621 -3.0592 -1.3273
  172SAPE  H18Z19488   3.509   5.444   4.685 -0.0340  2.5536 -0.7865
  173SLPC     N19489   0.088   0.139   7.192 -0.4679  0.1108 -0.1163
  173SLPC   C1319490  -0.041   0.126   7.264 -0.3062 -0.7500  0.3442
  173SLPC  H13A19491  -0.114   0.186   7.213  2.6000  1.7146 -1.2970
  173SLPC  H13B19492  -0.071   0.022   7.262  0.0096 -0.8361 -2.0844
  173SLPC  H13C19493  -0.035   0.153   7.369  0.0861  0.8256 -0.0473
  173SLPC   C1419494   0.192   0.060   7.276 -0.2895 -0.9317  0.9066
  173SLPC  H14A19495   0.214   0.108   7.370  0.4689 -0.0336  0.2971
  173SLPC  H14B19496   0.157  -0.039   7.301 -1.8129  0.3993  4.7899
  173SLPC  H14C19497   0.279   0.049   7.214 -1.1630 -0.0290 -0.5653
  173SLPC   C1519498   0.146   0.280   7.165  0.3566 -0.0902 -0.1416
  173SLPC  H15A19499   0.249   0.281   7.134  0.3263  0.0331 -0.2408
  173SLPC  H15B19500   0.097   0.325   7.079 -0.4426 -1.1607 -0.2718
  173SLPC  H15C19501   0.144   0.345   7.251 -0.6948 -0.3721  0.0588
  173SLPC   C1219502   0.073   0.077   7.052  0.2410  0.4621  0.1227
  173SLPC  H12A19503  -0.017   0.122   7.012  0.8147 -0.1831 -2.0448
  173SLPC  H12B19504   0.063  -0.030   7.060 -0.3363  0.6258  1.7426
  173SLPC   C1119505   0.182   0.104   6.950 -0.2502 -0.4311 -0.9377
  173SLPC  H11A19506   0.178   0.209   6.913 -0.9279 -0.8921 -2.2161
  173SLPC  H11B19507   0.165   0.037   6.863  0.0448 -2.2900  0.3628
  173SLPC     P19508   0.439   0.153   6.969  0.0049 -0.1082 -0.6573
  173SLPC   O1319509   0.411   0.293   7.010 -0.4270 -0.2192 -0.4674
  173SLPC   O1419510   0.546   0.098   7.047 -0.0243  0.0129  0.2125
  173SLPC   O1219511   0.306   0.063   6.999 -0.2262 -0.2642 -0.0925
  173SLPC   O1119512   0.463   0.148   6.811  0.3679  0.3203  0.1801
  173SLPC    C119513   0.417   0.038   6.729  1.3412  0.0022  0.1356
  173SLPC    HA19514   0.400  -0.057   6.786 -2.5975  0.7555  0.5421
  173SLPC    HB19515   0.315   0.061   6.691  0.8297  0.4057  1.6825
  173SLPC    C219516   0.513   0.002   6.612  0.6324 -0.1546  0.5869
  173SLPC    HS19517   0.605  -0.020   6.670 -0.1232  0.2061  1.9623
  173SLPC   O2119518   0.527   0.119   6.525 -0.5501  0.1812  0.1670
  173SLPC   C2119519   0.647   0.134   6.466  0.9335 -0.3324  0.4652
  173SLPC   O2219520   0.747   0.070   6.482 -0.3606 -0.0355 -0.3593
  173SLPC   C2219521   0.642   0.265   6.380  0.4089  0.5901  0.3896
  173SLPC   H2R19522   0.547   0.267   6.323  0.0347  1.6192  1.0185
  173SLPC   H2S19523   0.656   0.354   6.445  1.3389 -0.5099  1.7652
  173SLPC    C319524   0.468  -0.125   6.543  0.3628  0.5609  0.3627
  173SLPC    HX19525   0.362  -0.101   6.518  0.2514  0.6209  0.8876
  173SLPC    HY19526   0.469  -0.201   6.623 -2.2788 -0.2650 -0.2727
  173SLPC   O3119527   0.542  -0.154   6.425 -0.5889 -0.1502 -0.0372
  173SLPC   C3119528   0.666  -0.206   6.458  0.3578 -0.6455  0.0138
  173SLPC   O3219529   0.699  -0.223   6.571  0.0392  0.4262 -0.8597
  173SLPC   C3219530   0.753  -0.202   6.333 -1.3164 -0.6352  0.6215
  173SLPC   H2X19531   0.854  -0.202   6.380 -1.6498 -3.3525  1.4745
  173SLPC   H2Y19532   0.735  -0.111   6.272  0.3575 -0.7610 -0.1340
  173SLPC   C2319533   0.752   0.292   6.276 -0.0143 -0.5980 -0.4090
  173SLPC   H3R19534   0.850   0.284   6.327 -0.2270  0.1194  0.1155
  173SLPC   H3S19535   0.740   0.398   6.246  1.2018 -0.2735  0.1877
  173SLPC   C2419536   0.743   0.211   6.149 -0.1264  0.4119 -0.2306
  173SLPC   H4R19537   0.645   0.219   6.098 -0.2188  1.6672  0.1157
  173SLPC   H4S19538   0.746   0.103   6.173  0.4820  0.3498 -0.5611
  173SLPC   C2519539   0.857   0.225   6.048 -1.1230 -0.0174  0.2360
  173SLPC   H5R19540   0.959   0.216   6.089  0.4345  2.9563 -2.5516
  173SLPC   H5S19541   0.858   0.326   6.003 -0.3848 -0.3988 -0.6359
  173SLPC   C2619542   0.841   0.131   5.920  0.3104 -0.2912 -0.4059
  173SLPC   H6R19543   0.811   0.028   5.948 -1.0549  0.7772  2.3461
  173SLPC   H6S19544   0.939   0.118   5.868 -0.2524  0.1642 -1.6385
  173SLPC   C2719545   0.730   0.180   5.818  0.2988  0.2171  0.1107
  173SLPC   H7R19546   0.751   0.288   5.805  0.4907 -0.0322 -2.0273
  173SLPC   H7S19547   0.641   0.172   5.883  0.1487 -0.5533 -0.1754
  173SLPC   C2819548   0.729   0.096   5.691 -0.3537 -0.0225  0.7400
  173SLPC   H8R19549   0.722  -0.012   5.717 -0.9028 -0.1917 -0.0523
  173SLPC   H8S19550   0.830   0.112   5.647 -0.4852  0.6197  0.6686
  173SLPC   C2919551   0.622   0.142   5.602 -0.1591 -0.1089  0.7687
  173SLPC   H9R19552   0.525   0.090   5.603 -0.1182 -0.2457  2.7286
  173SLPC  C21019553   0.644   0.231   5.492  0.2177 -0.5305 -0.1680
  173SLPC  H10R19554   0.559   0.236   5.422 -0.2747 -1.4793  0.3445
  173SLPC  C21119555   0.771   0.293   5.444 -0.3620  0.1824  0.3916
  173SLPC  H11R19556   0.814   0.355   5.525 -0.8492 -0.4259  1.1246
  173SLPC  H11S19557   0.755   0.365   5.361  2.7314  0.7055  0.1153
  173SLPC  C21219558   0.867   0.190   5.399 -0.2119 -0.0021 -0.3975
  173SLPC  H12R19559   0.828   0.094   5.364  1.6089 -1.0897  0.4296
  173SLPC  C21319560   1.001   0.197   5.407  0.1126  0.5722  0.3418
  173SLPC  H13R19561   1.062   0.114   5.368  1.6512  1.4557  0.7962
  173SLPC  C21419562   1.082   0.312   5.453 -0.3368  0.0446  0.3073
  173SLPC  H14R19563   1.052   0.403   5.396  3.8748  1.2340 -0.3299
  173SLPC  H14S19564   1.190   0.294   5.434 -0.7923 -1.3246 -1.2874
  173SLPC  C21519565   1.078   0.347   5.604  0.6342 -0.8351 -0.2132
  173SLPC  H15R19566   0.977   0.342   5.649  0.3122 -1.4226 -0.9905
  173SLPC  H15S19567   1.106   0.454   5.619 -0.5685 -0.7916  2.0405
  173SLPC  C21619568   1.178   0.270   5.692  0.7574 -0.5689  0.0271
  173SLPC  H16R19569   1.278   0.263   5.644 -0.6265 -2.8258 -2.8153
  173SLPC  H16S19570   1.136   0.167   5.689  0.5281 -0.4708 -0.2415
  173SLPC  C21719571   1.191   0.307   5.847  0.3395 -0.1218  0.4941
  173SLPC  H17R19572   1.296   0.303   5.881 -0.0537  0.6615  1.8835
  173SLPC  H17S19573   1.129   0.227   5.895 -0.5310 -0.1417 -0.6186
  173SLPC  C21819574   1.122   0.440   5.889 -0.1821 -0.3762 -0.6147
  173SLPC  H18R19575   1.017   0.447   5.854  0.3033  1.0965 -1.8674
  173SLPC  H18S19576   1.176   0.526   5.845  1.3960 -0.4970  0.9688
  173SLPC  H18T19577   1.108   0.461   5.997 -2.3444 -4.5651  0.1239
  173SLPC   C3319578   0.737  -0.333   6.261 -0.3696  0.3130  0.1612
  173SLPC   H3X19579   0.630  -0.351   6.237  0.0344  1.3376 -2.7146
  173SLPC   H3Y19580   0.788  -0.409   6.325  1.1517 -1.5003 -2.9725
  173SLPC   C3419581   0.817  -0.344   6.131  0.2398 -0.1834 -0.8770
  173SLPC   H4X19582   0.922  -0.326   6.162  0.2517 -1.0427 -0.4142
  173SLPC   H4Y19583   0.789  -0.262   6.061  0.9455  2.5757  1.8726
  173SLPC   C3519584   0.809  -0.481   6.070 -0.2344  0.0186 -0.8387
  173SLPC   H5X19585   0.705  -0.520   6.065 -0.8600  1.1901  1.4816
  173SLPC   H5Y19586   0.871  -0.549   6.131  2.0338 -0.1416 -3.1781
  173SLPC   C3619587   0.867  -0.491   5.927 -0.5728 -0.6700 -0.3356
  173SLPC   H6X19588   0.889  -0.599   5.916  1.8729 -0.4249  1.3724
  173SLPC   H6Y19589   0.962  -0.435   5.927 -1.1740  0.4180  1.2083
  173SLPC   C3719590   0.785  -0.419   5.817  0.2178  0.2760  0.1189
  173SLPC   H7X19591   0.774  -0.310   5.835 -3.0837  0.4960 -2.2121
  173SLPC   H7Y19592   0.686  -0.470   5.819  1.2461 -1.7957  0.7278
  173SLPC   C3819593   0.858  -0.420   5.682  0.8350 -0.5712 -0.5684
  173SLPC   H8X19594   0.894  -0.524   5.676  2.7716 -0.2157  2.4682
  173SLPC   H8Y19595   0.946  -0.352   5.689 -1.1357  1.9969  1.9774
  173SLPC   C3919596   0.764  -0.370   5.568  0.1680 -0.3144 -0.0021
  173SLPC   H9X19597   0.819  -0.375   5.471 -0.8674 -0.1303 -0.6115
  173SLPC   H9Y19598   0.752  -0.260   5.580  2.8830  0.1698 -0.9181
  173SLPC  C31019599   0.617  -0.430   5.552 -0.9991  0.2142 -0.0005
  173SLPC  H10X19600   0.568  -0.410   5.649  0.2824 -1.5735  1.0789
  173SLPC  H10Y19601   0.623  -0.540   5.539 -0.7790  0.0971  1.0079
  173SLPC  C31119602   0.548  -0.362   5.431 -0.4134  0.4240 -0.2997
  173SLPC  H11X19603   0.608  -0.388   5.341 -0.0374 -1.8340  0.5414
  173SLPC  H11Y19604   0.558  -0.253   5.449 -1.3178  0.3275  0.9255
  173SLPC  C31219605   0.409  -0.407   5.409 -0.6224 -0.1458 -0.3163
  173SLPC  H12X19606   0.403  -0.517   5.414  1.6417 -0.4373 -1.8723
  173SLPC  H12Y19607   0.375  -0.377   5.307  2.0128  1.6565 -0.7940
  173SLPC  C31319608   0.323  -0.340   5.523 -0.2747 -0.0305  0.7858
  173SLPC  H13X19609   0.346  -0.231   5.523  0.4538 -0.1303 -1.3696
  173SLPC  H13Y19610   0.353  -0.386   5.620 -0.6590 -1.7264  0.1464
  173SLPC  C31419611   0.170  -0.354   5.508 -0.3390 -0.0255 -0.3639
  173SLPC  H14X19612   0.120  -0.320   5.601  0.1313  0.3293 -0.2351
  173SLPC  H14Y19613   0.133  -0.458   5.497  0.3506 -0.1313 -2.1361
  173SLPC  C31519614   0.113  -0.282   5.385 -0.6651 -0.1366 -0.0384
  173SLPC  H15X19615   0.158  -0.311   5.288 -1.2768 -0.9626 -0.0848
  173SLPC  H15Y19616   0.147  -0.177   5.397  0.0838 -0.4903  1.1200
  173SLPC  C31619617  -0.038  -0.284   5.363  0.1978  0.1587  0.2763
  173SLPC  H16X19618  -0.066  -0.234   5.268 -0.3655  0.8932  0.8172
  173SLPC  H16Y19619  -0.088  -0.228   5.445  4.0228  0.4215  2.6893
  173SLPC  C31719620  -0.105  -0.425   5.364 -0.2097  0.1047  0.0233
  173SLPC  H17X19621  -0.116  -0.452   5.471 -3.6061  1.0249  0.0071
  173SLPC  H17Y19622  -0.033  -0.492   5.312  1.6025  2.1182 -0.1868
  173SLPC  C31819623  -0.241  -0.428   5.294  0.5669 -0.2396  0.0813
  173SLPC  H18X19624  -0.321  -0.376   5.351  0.5758  1.9448 -1.7201
  173SLPC  H18Y19625  -0.278  -0.532   5.283  0.2086  0.0935 -2.6855
  173SLPC  H18Z19626  -0.237  -0.388   5.190  2.2197 -0.9729 -0.1640
  174SLPC     N19627   4.908   0.579   7.248 -0.7316  0.8089 -0.3092
  174SLPC   C1319628   4.851   0.712   7.291 -0.1134 -0.2639  0.1356
  174SLPC  H13A19629   4.768   0.734   7.226  1.0414  0.4308 -1.1505
  174SLPC  H13B19630   4.817   0.713   7.393 -1.4380  0.2365 -0.2894
  174SLPC  H13C19631   4.927   0.788   7.284  0.9153 -1.3667 -1.2526
  174SLPC   C1419632   4.819   0.472   7.293  0.3405  0.2001 -0.3269
  174SLPC  H14A19633   4.857   0.375   7.263  0.9348  0.4228 -0.3076
  174SLPC  H14B19634   4.792   0.475   7.398 -0.3574  1.6841 -0.5304
  174SLPC  H14C19635   4.734   0.487   7.228  1.1466  3.0405 -0.8388
  174SLPC   C1519636   5.036   0.568   7.324  0.1629  0.0345  0.0648
  174SLPC  H15A19637   5.016   0.604   7.425  0.2630  1.5914 -0.4369
  174SLPC  H15B19638   5.070   0.466   7.323 -0.1220 -0.1002  1.4162
  174SLPC  H15C19639   5.102   0.633   7.269  1.5880 -2.0774 -0.8153
  174SLPC   C1219640   4.928   0.584   7.094  0.0515  0.6570  0.1257
  174SLPC  H12A19641   4.957   0.486   7.058  0.2630  0.9558 -0.5307
  174SLPC  H12B19642   5.018   0.635   7.063  0.1227 -0.9247 -2.6182
  174SLPC   C1119643   4.817   0.649   7.016  0.1629 -0.2733  0.3963
  174SLPC  H11A19644   4.839   0.637   6.908  1.0710  1.5407  0.3260
  174SLPC  H11B19645   4.829   0.760   7.024 -0.2844 -0.1298 -0.6921
  174SLPC     P19646   4.558   0.691   7.023 -0.1091 -0.0738 -0.0463
  174SLPC   O1319647   4.436   0.608   7.042  0.3312 -0.0262 -0.5010
  174SLPC   O1419648   4.562   0.811   7.109  0.2146 -0.0932 -0.3580
  174SLPC   O1219649   4.686   0.605   7.053  0.0569  0.2303  0.0904
  174SLPC   O1119650   4.560   0.724   6.870 -0.0239  0.1722  0.2990
  174SLPC    C119651   4.610   0.844   6.823 -0.5944  0.5762 -0.0130
  174SLPC    HA19652   4.559   0.931   6.870  0.8620  0.9645  0.9158
  174SLPC    HB19653   4.720   0.849   6.838 -0.7377 -0.2821  1.4887
  174SLPC    C219654   4.583   0.851   6.674 -0.0300 -0.0254 -0.4525
  174SLPC    HS19655   4.472   0.841   6.667 -0.1307  0.5448  0.2606
  174SLPC   O2119656   4.643   0.748   6.594 -0.0838 -0.6925  0.3215
  174SLPC   C2119657   4.772   0.750   6.586  0.2202  0.7024 -0.1314
  174SLPC   O2219658   4.852   0.837   6.626 -0.1316  0.9335 -0.0670
  174SLPC   C2219659   4.816   0.615   6.533 -0.3376  0.1813 -0.4793
  174SLPC   H2R19660   4.916   0.599   6.578  0.1839 -0.4512 -1.8255
  174SLPC   H2S19661   4.744   0.538   6.566  1.1585 -0.8292  0.5776
  174SLPC    C319662   4.612   0.996   6.618  0.6898 -0.7403  0.1451
  174SLPC    HX19663   4.702   1.032   6.672 -0.4722 -0.3220  1.9078
  174SLPC    HY19664   4.539   1.069   6.659 -0.1788 -1.6970  0.3615
  174SLPC   O3119665   4.618   1.006   6.470 -0.4212  0.3105  0.2339
  174SLPC   C3119666   4.501   1.025   6.407 -0.1390 -0.3523 -0.8741
  174SLPC   O3219667   4.396   1.050   6.467  1.1359 -0.2212  0.1057
  174SLPC   C3219668   4.525   1.029   6.257  0.2127  1.1099 -0.4189
  174SLPC   H2X19669   4.592   0.943   6.236  1.2298  1.4028  1.4344
  174SLPC   H2Y19670   4.580   1.120   6.226  2.1347  0.0124 -0.3893
  174SLPC   C2319671   4.847   0.617   6.381  0.0939  0.5155  0.9212
  174SLPC   H3R19672   4.903   0.524   6.356  0.0933  0.2471  1.8937
  174SLPC   H3S19673   4.909   0.706   6.354  0.5675 -0.6674 -2.3417
  174SLPC   C2419674   4.723   0.628   6.285 -0.2110  0.7239 -0.1343
  174SLPC   H4R19675   4.660   0.716   6.306 -0.0077  1.5314 -2.5374
  174SLPC   H4S19676   4.660   0.537   6.295  2.3733 -1.2152 -0.4002
  174SLPC   C2519677   4.758   0.629   6.132  0.0988 -0.3391 -0.3976
  174SLPC   H5R19678   4.821   0.540   6.109 -2.4406 -1.9761 -1.4323
  174SLPC   H5S19679   4.815   0.719   6.101 -1.2304  0.6015 -0.1911
  174SLPC   C2619680   4.644   0.611   6.032  0.6194 -0.8340  0.4076
  174SLPC   H6R19681   4.582   0.702   6.042 -1.7246 -2.2925 -0.0403
  174SLPC   H6S19682   4.582   0.522   6.059  1.1880 -1.5494 -0.5755
  174SLPC   C2719683   4.701   0.584   5.895 -0.4425 -0.5013 -0.0780
  174SLPC   H7R19684   4.745   0.482   5.889  1.7585  0.4566 -1.5436
  174SLPC   H7S19685   4.795   0.642   5.893  0.0345 -1.1540  1.5294
  174SLPC   C2819686   4.615   0.607   5.772 -0.4055  0.3356  0.4467
  174SLPC   H8R19687   4.512   0.579   5.804 -1.3917  0.9438 -1.9081
  174SLPC   H8S19688   4.642   0.532   5.694 -0.1328  1.2010 -0.3190
  174SLPC   C2919689   4.633   0.754   5.719 -0.8659  0.4620 -0.2388
  174SLPC   H9R19690   4.621   0.829   5.799 -0.6361  0.5441 -0.2788
  174SLPC  C21019691   4.633   0.791   5.590  0.2463  0.3170  0.3825
  174SLPC  H10R19692   4.659   0.895   5.568  0.5996 -0.1811 -1.8669
  174SLPC  C21119693   4.622   0.695   5.469 -0.1226 -0.6134 -0.1177
  174SLPC  H11R19694   4.588   0.751   5.380  0.2298 -2.2549 -1.3374
  174SLPC  H11S19695   4.550   0.616   5.500  0.6764 -1.7864 -1.1476
  174SLPC  C21219696   4.752   0.644   5.419 -0.8365  0.0321 -0.1853
  174SLPC  H12R19697   4.826   0.630   5.500 -1.3304  0.6737  0.3808
  174SLPC  C21319698   4.787   0.599   5.294  0.6477  0.5884 -0.2737
  174SLPC  H13R19699   4.893   0.574   5.277  0.3945 -0.8102  0.0895
  174SLPC  C21419700   4.695   0.596   5.171 -0.2100  0.5436 -0.1809
  174SLPC  H14R19701   4.590   0.617   5.198 -0.7766 -1.1714 -0.9133
  174SLPC  H14S19702   4.699   0.498   5.119  1.5375  0.7107 -0.4402
  174SLPC  C21519703   4.724   0.700   5.054  0.7012 -0.7339 -0.3497
  174SLPC  H15R19704   4.653   0.676   4.972  0.9749 -0.5482 -0.6391
  174SLPC  H15S19705   4.828   0.694   5.015  0.5113  1.7486 -1.4271
  174SLPC  C21619706   4.704   0.848   5.087  0.0575 -0.2102  0.1234
  174SLPC  H16R19707   4.777   0.861   5.169  0.9332  0.7974 -0.7802
  174SLPC  H16S19708   4.599   0.861   5.121  0.1026 -1.2364  0.7103
  174SLPC  C21719709   4.732   0.931   4.964  0.0958  0.4064 -0.3514
  174SLPC  H17R19710   4.704   1.032   5.000  2.7447  0.6086  1.3991
  174SLPC  H17S19711   4.672   0.890   4.879  0.6544  2.5696 -1.8882
  174SLPC  C21819712   4.880   0.936   4.920  0.2493 -0.3846 -0.3572
  174SLPC  H18R19713   4.898   1.027   4.859 -0.4523 -1.3079 -2.0382
  174SLPC  H18S19714   4.897   0.846   4.856  1.2874 -0.0168 -0.6193
  174SLPC  H18T19715   4.953   0.925   5.003  0.3640 -1.1577 -0.5505
  174SLPC   C3319716   4.395   1.015   6.173 -0.6342 -0.2277 -0.7939
  174SLPC   H3X19717   4.325   1.099   6.197 -0.8735 -1.1715  2.3158
  174SLPC   H3Y19718   4.331   0.926   6.193 -0.6445 -0.0196  0.1972
  174SLPC   C3419719   4.422   1.036   6.024  0.1910  0.6578  0.4613
  174SLPC   H4X19720   4.518   0.986   6.001 -0.5840 -0.1086 -1.2816
  174SLPC   H4Y19721   4.430   1.146   6.011  0.1471  0.4677 -1.3147
  174SLPC   C3519722   4.312   0.986   5.924  0.6165  1.0668  0.5202
  174SLPC   H5X19723   4.218   1.022   5.971 -0.3129 -2.6622  1.8986
  174SLPC   H5Y19724   4.304   0.875   5.921  1.3286  1.0231 -0.1986
  174SLPC   C3619725   4.337   1.043   5.784  0.0637  1.0467  0.6478
  174SLPC   H6X19726   4.419   0.985   5.735 -0.2423  0.3730  0.9172
  174SLPC   H6Y19727   4.364   1.151   5.786 -0.8120  1.2657  2.4846
  174SLPC   C3719728   4.210   1.039   5.704  0.4051  0.1783  0.3729
  174SLPC   H7X19729   4.140   1.107   5.756  0.1965  0.6847 -0.5388
  174SLPC   H7Y19730   4.161   0.941   5.685  0.5202 -0.0840  1.3675
  174SLPC   C3819731   4.224   1.125   5.566 -0.7618 -0.1457  0.3844
  174SLPC   H8X19732   4.294   1.211   5.576  2.9902 -2.8829 -0.2785
  174SLPC   H8Y19733   4.123   1.167   5.548  0.7335  2.6291 -2.4674
  174SLPC   C3919734   4.266   1.034   5.449  0.1138 -0.8012  0.4358
  174SLPC   H9X19735   4.182   0.964   5.424  0.2921 -0.3114 -1.7373
  174SLPC   H9Y19736   4.362   0.979   5.462 -0.2130 -1.3770  0.4621
  174SLPC  C31019737   4.264   1.121   5.321 -0.7978 -0.2986 -0.0881
  174SLPC  H10X19738   4.328   1.211   5.330 -2.0767  0.5615  0.9416
  174SLPC  H10Y19739   4.166   1.170   5.300 -1.1390 -0.5037  0.9594
  174SLPC  C31119740   4.304   1.040   5.199 -0.5888  0.5913 -0.2716
  174SLPC  H11X19741   4.227   0.960   5.196  0.0370 -0.1263  1.2675
  174SLPC  H11Y19742   4.405   0.997   5.220 -0.3121  0.9110 -0.9071
  174SLPC  C31219743   4.311   1.133   5.081 -0.1864 -0.0034  0.0912
  174SLPC  H12X19744   4.381   1.216   5.104  0.0001 -0.0308 -0.3768
  174SLPC  H12Y19745   4.217   1.186   5.054  1.6765  3.0524 -0.9268
  174SLPC  C31319746   4.352   1.060   4.950  0.3354 -0.6525  0.0617
  174SLPC  H13X19747   4.267   0.996   4.920 -0.7952  0.3394  1.0421
  174SLPC  H13Y19748   4.443   1.000   4.968  0.4779 -0.0697  1.3673
  174SLPC  C31419749   4.371   1.162   4.833  0.4231 -0.3884 -0.1383
  174SLPC  H14X19750   4.458   1.229   4.846  0.3530 -0.3338  0.0600
  174SLPC  H14Y19751   4.273   1.214   4.826  0.9737  0.5088 -1.3476
  174SLPC  C31519752   4.386   1.099   4.695 -0.2505  0.4515  0.3241
  174SLPC  H15X19753   4.373   1.182   4.621 -1.2321 -0.6994 -0.8320
  174SLPC  H15Y19754   4.297   1.038   4.670 -1.0062  1.7287 -0.2386
  174SLPC  C31619755   4.525   1.027   4.676 -0.2314  0.5108  1.0123
  174SLPC  H16X19756   4.535   0.936   4.739  0.1558 -0.8525 -0.9176
  174SLPC  H16Y19757   4.606   1.101   4.692  0.5676  0.0320 -0.6172
  174SLPC  C31719758   4.535   0.971   4.530 -0.2190 -0.4827 -0.2720
  174SLPC  H17X19759   4.510   1.052   4.458  0.0149 -1.5167 -1.5361
  174SLPC  H17Y19760   4.463   0.887   4.520  0.0163 -0.6165 -0.8719
  174SLPC  C31819761   4.670   0.913   4.493  0.4299 -0.1588  0.2131
  174SLPC  H18X19762   4.742   0.997   4.489  1.8876 -1.1876  2.5711
  174SLPC  H18Y19763   4.661   0.869   4.392 -1.2755  0.9010 -0.1394
  174SLPC  H18Z19764   4.700   0.835   4.568 -0.7459  1.6682  2.7348
  175SLPC     N19765   6.603   0.086   6.722 -0.3513  0.1868  0.4058
  175SLPC   C1319766   6.571   0.080   6.577  0.6936 -0.0762  0.0110
  175SLPC  H13A19767   6.472   0.042   6.558  0.2416 -0.5093  2.7873
  175SLPC  H13B19768   6.570   0.180   6.536  1.4199 -0.6550 -1.4879
  175SLPC  H13C19769   6.634   0.020   6.514  1.6432 -0.4964  1.3145
  175SLPC   C1419770   6.751   0.106   6.727  1.0378 -1.3775 -0.2358
  175SLPC  H14A19771   6.780   0.109   6.831  0.9472 -1.0319 -0.2180
  175SLPC  H14B19772   6.800   0.021   6.682 -0.4843 -2.1691 -0.4869
  175SLPC  H14C19773   6.783   0.192   6.671 -2.4082  0.6834  0.6379
  175SLPC   C1519774   6.576  -0.052   6.783 -0.4577 -0.0535  0.3723
  175SLPC  H15A19775   6.626  -0.130   6.729 -1.0933  0.5261 -1.1197
  175SLPC  H15B19776   6.591  -0.063   6.889  0.7219  2.2010  0.5030
  175SLPC  H15C19777   6.474  -0.072   6.753  0.3626 -2.1838 -1.2747
  175SLPC   C1219778   6.517   0.192   6.797 -0.6011 -0.3373  0.2713
  175SLPC  H12A19779   6.414   0.167   6.776 -0.2987 -1.2761 -0.1587
  175SLPC  H12B19780   6.543   0.287   6.753 -0.2930 -0.7047 -0.3516
  175SLPC   C1119781   6.538   0.213   6.948 -0.1708 -0.7181  0.2331
  175SLPC  H11A19782   6.534   0.115   7.000  1.3790 -1.4836 -0.9889
  175SLPC  H11B19783   6.455   0.278   6.980  0.0236  0.6983 -1.8926
  175SLPC     P19784   6.701   0.415   6.955  0.4167 -0.0328 -0.1778
  175SLPC   O1319785   6.692   0.478   7.089  0.1786  0.2610  0.4106
  175SLPC   O1419786   6.841   0.422   6.894  0.1339  0.1869 -0.0015
  175SLPC   O1219787   6.675   0.261   6.973  0.0743  0.1510 -0.5493
  175SLPC   O1119788   6.594   0.458   6.857  0.3913  0.2323  0.3814
  175SLPC    C119789   6.540   0.593   6.856  0.5154 -1.0210  0.1817
  175SLPC    HA19790   6.488   0.607   6.953 -0.4834  2.7710 -0.7385
  175SLPC    HB19791   6.615   0.674   6.843  0.1404 -0.9505 -1.9084
  175SLPC    C219792   6.437   0.608   6.740  0.2621 -0.0096  0.5960
  175SLPC    HS19793   6.368   0.521   6.748 -1.1316  1.1148  1.2470
  175SLPC   O2119794   6.507   0.611   6.619 -0.1717 -0.2674  0.5348
  175SLPC   C2119795   6.541   0.497   6.569 -0.0710  0.0815 -1.0854
  175SLPC   O2219796   6.491   0.389   6.595 -0.2109 -0.8531  0.0554
  175SLPC   C2219797   6.641   0.508   6.461 -0.3305  0.2139  0.1744
  175SLPC   H2R19798   6.696   0.603   6.479 -1.1431  0.4054  1.8413
  175SLPC   H2S19799   6.710   0.425   6.486  0.1546  0.6436  0.2658
  175SLPC    C319800   6.359   0.741   6.757  0.4272 -0.2104  0.2711
  175SLPC    HX19801   6.427   0.826   6.780 -2.4055  2.1654  0.4780
  175SLPC    HY19802   6.295   0.742   6.848  0.8312  0.4828  0.5603
  175SLPC   O3119803   6.268   0.786   6.653 -0.4824  0.2176  0.2305
  175SLPC   C3119804   6.155   0.709   6.649  0.3986  0.4016  0.1044
  175SLPC   O3219805   6.128   0.613   6.717  0.0378  0.0387 -0.3309
  175SLPC   C3219806   6.058   0.758   6.541  0.2865 -1.2201  0.2199
  175SLPC   H2X19807   5.982   0.801   6.610 -0.1430  1.1794 -1.5949
  175SLPC   H2Y19808   6.021   0.673   6.480  0.7716 -0.8832 -0.5766
  175SLPC   C2319809   6.596   0.481   6.321  0.7131  0.1727 -0.0218
  175SLPC   H3R19810   6.517   0.553   6.291 -0.2953 -0.7949  0.1920
  175SLPC   H3S19811   6.558   0.377   6.310  0.5016  0.1164  1.1454
  175SLPC   C2419812   6.714   0.489   6.214  0.3637  0.4636  0.4145
  175SLPC   H4R19813   6.790   0.419   6.253 -0.1710 -0.5303 -0.2949
  175SLPC   H4S19814   6.750   0.594   6.213  0.1775  0.5479  1.5402
  175SLPC   C2519815   6.673   0.425   6.081  1.0588 -0.8143 -0.0732
  175SLPC   H5R19816   6.588   0.488   6.045  1.0600  0.0884  1.4087
  175SLPC   H5S19817   6.637   0.322   6.101 -1.6052 -0.1358 -0.9405
  175SLPC   C2619818   6.771   0.447   5.969  0.2902  0.1573 -0.5055
  175SLPC   H6R19819   6.853   0.374   5.989 -1.8253 -1.3532  3.6463
  175SLPC   H6S19820   6.819   0.548   5.973  1.5597 -0.4439  0.1636
  175SLPC   C2719821   6.715   0.431   5.828 -0.9389 -0.2557  0.0675
  175SLPC   H7R19822   6.612   0.473   5.823 -0.7531  0.0536 -2.5202
  175SLPC   H7S19823   6.705   0.321   5.810  1.3118 -0.5895  0.5978
  175SLPC   C2819824   6.802   0.486   5.708  0.7128  0.4925 -0.2820
  175SLPC   H8R19825   6.822   0.592   5.736  0.3145  0.5660 -0.2614
  175SLPC   H8S19826   6.735   0.489   5.619  2.3835  0.1379 -1.6138
  175SLPC   C2919827   6.924   0.415   5.659  0.3737  0.1330  0.3118
  175SLPC   H9R19828   7.014   0.420   5.722  0.5788 -1.1759  0.1575
  175SLPC  C21019829   6.943   0.342   5.547 -0.5864  0.3293 -0.0845
  175SLPC  H10R19830   7.041   0.301   5.518 -0.9977 -0.9789  0.2975
  175SLPC  C21119831   6.832   0.315   5.444  0.0722  0.0739 -0.6386
  175SLPC  H11R19832   6.848   0.383   5.357  0.0299  0.2202 -0.5324
  175SLPC  H11S19833   6.731   0.329   5.488  0.6718  0.4089  0.6826
  175SLPC  C21219834   6.840   0.176   5.390 -0.0576 -0.9839  0.2520
  175SLPC  H12R19835   6.802   0.097   5.457  1.1311 -2.3627 -0.6516
  175SLPC  C21319836   6.897   0.142   5.273 -0.2411  0.5254 -0.3150
  175SLPC  H13R19837   6.867   0.042   5.238  0.0137  1.3913 -3.2174
  175SLPC  C21419838   6.992   0.212   5.179  0.3885  0.5046 -0.0684
  175SLPC  H14R19839   7.006   0.320   5.199  1.0124  1.0255 -2.9034
  175SLPC  H14S19840   6.958   0.193   5.075 -2.2323 -0.7137  0.9053
  175SLPC  C21519841   7.136   0.159   5.196  0.0674 -0.1992  0.2950
  175SLPC  H15R19842   7.175   0.184   5.297 -0.2471  2.5121 -0.1699
  175SLPC  H15S19843   7.202   0.222   5.133 -1.2418 -0.0237 -0.9534
  175SLPC  C21619844   7.156   0.010   5.159 -0.0745  0.5005 -0.0103
  175SLPC  H16R19845   7.142  -0.004   5.049  2.5743  1.2257 -0.5290
  175SLPC  H16S19846   7.082  -0.056   5.209  1.3559 -0.5910  0.7373
  175SLPC  C21719847   7.302  -0.045   5.176 -0.0013  0.4730 -0.0076
  175SLPC  H17R19848   7.307  -0.152   5.150  0.7449 -0.1688  2.4856
  175SLPC  H17S19849   7.310  -0.063   5.285 -2.2636 -1.7789 -0.1287
  175SLPC  C21819850   7.426   0.026   5.110 -0.3747  0.2910 -0.3354
  175SLPC  H18R19851   7.436   0.009   5.001 -2.5865 -0.4175 -0.4669
  175SLPC  H18S19852   7.521  -0.001   5.161 -0.3292  0.6403 -0.2249
  175SLPC  H18T19853   7.411   0.136   5.122 -1.4797  0.0364  0.8371
  175SLPC   C3319854   6.096   0.866   6.441  0.2210  0.2726 -0.3306
  175SLPC   H3X19855   6.166   0.938   6.488  0.4355 -0.7895  1.0314
  175SLPC   H3Y19856   6.008   0.923   6.405 -0.9344  0.1518  2.1066
  175SLPC   C3419857   6.172   0.812   6.325  0.2239  0.0659  0.5328
  175SLPC   H4X19858   6.102   0.754   6.262  0.9044  0.2294 -0.3941
  175SLPC   H4Y19859   6.251   0.742   6.361  0.1886 -0.4014 -0.2923
  175SLPC   C3519860   6.238   0.930   6.253  0.4972 -0.7774  0.3090
  175SLPC   H5X19861   6.293   0.992   6.327  2.2460 -0.2436 -1.3564
  175SLPC   H5Y19862   6.162   1.004   6.221  0.2597 -0.8422  0.7151
  175SLPC   C3619863   6.320   0.888   6.130 -0.2599 -0.2159  0.0413
  175SLPC   H6X19864   6.267   0.830   6.052  1.8140 -0.3848 -1.3434
  175SLPC   H6Y19865   6.398   0.818   6.169  2.6791  2.0607 -1.3246
  175SLPC   C3719866   6.387   1.008   6.061  0.4138 -0.2624 -0.4859
  175SLPC   H7X19867   6.420   1.078   6.141  0.0612 -0.8953  0.2223
  175SLPC   H7Y19868   6.315   1.057   5.991 -1.4443 -1.4507  0.4992
  175SLPC   C3819869   6.510   0.970   5.985 -0.0032  0.3271  0.2880
  175SLPC   H8X19870   6.583   0.928   6.058  0.8223  1.4019  0.1024
  175SLPC   H8Y19871   6.559   1.061   5.946  0.2521  0.1497  0.1971
  175SLPC   C3919872   6.477   0.855   5.884  0.3084 -0.2730  0.0257
  175SLPC   H9X19873   6.393   0.884   5.818  1.0220 -0.8614 -1.1694
  175SLPC   H9Y19874   6.445   0.768   5.944 -1.0102  1.1759  1.5327
  175SLPC  C31019875   6.592   0.805   5.793  0.3618  0.3064 -0.0305
  175SLPC  H10X19876   6.551   0.718   5.737  1.1832 -0.5745  0.7115
  175SLPC  H10Y19877   6.670   0.772   5.864 -1.7138 -0.5663  1.9688
  175SLPC  C31119878   6.653   0.918   5.704 -0.0584 -0.3921  1.0792
  175SLPC  H11X19879   6.672   1.008   5.765  0.1629 -1.2150  2.2424
  175SLPC  H11Y19880   6.569   0.947   5.637 -1.2170  1.1153  3.0767
  175SLPC  C31219881   6.771   0.864   5.626  1.3021  0.1689  0.8158
  175SLPC  H12X19882   6.843   0.810   5.691  2.1696 -1.0076 -1.0431
  175SLPC  H12Y19883   6.826   0.947   5.577  2.2036 -1.2092 -0.6029
  175SLPC  C31319884   6.726   0.774   5.507  0.4341  0.1473 -0.6394
  175SLPC  H13X19885   6.639   0.820   5.454 -0.9741 -0.6752  0.8881
  175SLPC  H13Y19886   6.692   0.671   5.532 -0.0543  0.4238 -0.1448
  175SLPC  C31419887   6.842   0.767   5.407  0.3948 -0.0650 -0.1629
  175SLPC  H14X19888   6.898   0.679   5.444 -0.4274 -0.7569 -0.5199
  175SLPC  H14Y19889   6.907   0.857   5.397  1.3817 -0.9319 -2.1340
  175SLPC  C31519890   6.788   0.731   5.264  0.7407  0.5806 -0.0838
  175SLPC  H15X19891   6.730   0.814   5.218  1.3009  1.6949  1.1692
  175SLPC  H15Y19892   6.722   0.642   5.280 -0.9225  1.6168 -0.8978
  175SLPC  C31619893   6.904   0.690   5.170 -0.4514  0.1381 -0.3369
  175SLPC  H16X19894   6.952   0.613   5.233 -2.1723 -0.0328  0.8187
  175SLPC  H16Y19895   6.968   0.779   5.148 -0.3714  0.6216  1.7133
  175SLPC  C31719896   6.849   0.632   5.034 -0.1043  0.7658  0.0571
  175SLPC  H17X19897   6.763   0.688   4.991 -0.2310 -0.8471 -1.9802
  175SLPC  H17Y19898   6.805   0.533   5.059 -3.3861  2.3000  0.9868
  175SLPC  C31819899   6.965   0.622   4.930 -0.3274  0.6132 -0.1320
  175SLPC  H18X19900   7.055   0.575   4.976  1.1561  1.5717 -1.9420
  175SLPC  H18Y19901   6.980   0.727   4.896 -0.9868  1.4119  1.9209
  175SLPC  H18Z19902   6.936   0.561   4.842  0.8812 -0.0156 -0.1168
  176SLPC     N19903   1.279   1.695   7.657 -0.3132 -0.0057 -0.1660
  176SLPC   C1319904   1.311   1.773   7.784  0.1885 -0.4574 -0.3634
  176SLPC  H13A19905   1.271   1.726   7.873 -1.2512  0.2604 -0.6043
  176SLPC  H13B19906   1.418   1.786   7.793 -0.1003  2.3832 -0.3019
  176SLPC  H13C19907   1.256   1.866   7.791 -0.3891 -0.8415  0.4091
  176SLPC   C1419908   1.351   1.566   7.660  0.0748  0.0317 -0.5237
  176SLPC  H14A19909   1.459   1.573   7.650  0.1793  0.9562  0.9492
  176SLPC  H14B19910   1.324   1.502   7.743 -1.8685 -0.4778 -1.4944
  176SLPC  H14C19911   1.327   1.511   7.570 -0.4577 -0.5289 -0.0442
  176SLPC   C1519912   1.326   1.778   7.538  0.0662  0.1800 -0.5859
  176SLPC  H15A19913   1.317   1.732   7.440 -0.9494 -0.5503 -0.1695
  176SLPC  H15B19914   1.276   1.874   7.543  0.4418  0.3190  1.1288
  176SLPC  H15C19915   1.432   1.796   7.551 -0.0851  1.6661 -1.1940
  176SLPC   C1219916   1.133   1.672   7.641  0.4087  0.7565  0.5481
  176SLPC  H12A19917   1.071   1.758   7.618 -2.2981 -1.0555  0.5628
  176SLPC  H12B19918   1.093   1.646   7.738 -0.0149  2.1271  0.7586
  176SLPC   C1119919   1.086   1.579   7.525  0.2191  0.4375  0.5701
  176SLPC  H11A19920   1.111   1.474   7.553 -2.0431 -0.0814  0.7709
  176SLPC  H11B19921   1.146   1.595   7.433  0.2633  0.4476  0.6004
  176SLPC     P19922   0.883   1.708   7.436 -0.1369 -0.1466 -0.3068
  176SLPC   O1319923   0.737   1.679   7.428 -0.2705 -0.1438 -0.1875
  176SLPC   O1419924   0.933   1.836   7.498 -0.5748  0.4042 -0.0667
  176SLPC   O1219925   0.947   1.588   7.510 -0.0733 -0.0070 -0.6025
  176SLPC   O1119926   0.933   1.690   7.284  0.1433 -0.3182  0.0526
  176SLPC    C119927   0.983   1.808   7.209  0.3553  0.0759 -0.4898
  176SLPC    HA19928   1.046   1.874   7.272 -1.3549 -0.4946  1.9551
  176SLPC    HB19929   1.028   1.780   7.111 -0.6657 -1.3296 -0.5928
  176SLPC    C219930   0.866   1.895   7.162 -0.2092 -0.2243  0.5349
  176SLPC    HS19931   0.793   1.898   7.245 -1.6542 -1.0227 -0.6667
  176SLPC   O2119932   0.809   1.833   7.049  0.5509  0.5776  0.0220
  176SLPC   C2119933   0.691   1.880   7.011 -0.3511  0.2577  0.6255
  176SLPC   O2219934   0.625   1.962   7.073 -0.5314  0.1237  0.4696
  176SLPC   C2219935   0.666   1.832   6.870 -0.5601  0.0572  0.5384
  176SLPC   H2R19936   0.748   1.876   6.809 -0.5604 -0.9770 -0.2267
  176SLPC   H2S19937   0.682   1.722   6.870  0.5554  0.1693 -1.4438
  176SLPC    C319938   0.919   2.047   7.143  0.0792 -0.0021 -0.4700
  176SLPC    HX19939   0.953   2.079   7.244  2.1920  0.8749 -1.3841
  176SLPC    HY19940   0.824   2.102   7.131 -1.2313 -2.4213 -1.8918
  176SLPC   O3119941   1.021   2.065   7.038 -0.4345  0.6276  0.2452
  176SLPC   C3119942   0.987   2.114   6.926  0.0889 -0.0810 -0.3284
  176SLPC   O3219943   0.875   2.154   6.883 -0.0757 -0.1286 -0.1748
  176SLPC   C3219944   1.115   2.117   6.845  0.7848  0.4439  0.3327
  176SLPC   H2X19945   1.184   2.030   6.859  1.1737  0.8200  0.8058
  176SLPC   H2Y19946   1.184   2.201   6.868 -1.0794  1.8770  0.9888
  176SLPC   C2319947   0.534   1.874   6.801  0.6227  0.3169  0.5161
  176SLPC   H3R19948   0.511   1.982   6.819 -0.5964  0.0755  0.5220
  176SLPC   H3S19949   0.456   1.807   6.842 -0.9967  0.2797 -2.3379
  176SLPC   C2419950   0.529   1.837   6.648  0.3145 -0.4293  0.0058
  176SLPC   H4R19951   0.427   1.823   6.606  0.9631 -0.6228 -1.5894
  176SLPC   H4S19952   0.570   1.734   6.644 -0.1702 -0.6648  0.8269
  176SLPC   C2519953   0.593   1.945   6.563  0.0160  0.9498 -0.4201
  176SLPC   H5R19954   0.687   1.966   6.617 -0.0764 -2.1014  1.1575
  176SLPC   H5S19955   0.531   2.036   6.576  0.2879  1.4445 -2.3047
  176SLPC   C2619956   0.597   1.898   6.418  0.0755 -0.3192  0.3072
  176SLPC   H6R19957   0.633   1.793   6.421  0.4222 -0.4381 -3.2565
  176SLPC   H6S19958   0.675   1.952   6.360 -0.4701  1.2738  1.0087
  176SLPC   C2719959   0.468   1.918   6.346  0.0124  0.2251 -0.2017
  176SLPC   H7R19960   0.427   2.019   6.363 -2.6702 -1.0494  1.6468
  176SLPC   H7S19961   0.393   1.842   6.376  0.0370 -0.2443 -1.2795
  176SLPC   C2819962   0.488   1.900   6.190  0.4958  0.6624 -0.7436
  176SLPC   H8R19963   0.557   1.814   6.183 -0.7907 -0.5400  0.5756
  176SLPC   H8S19964   0.538   1.992   6.151 -0.7469  1.5537 -0.3225
  176SLPC   C2919965   0.358   1.863   6.119  0.2042 -0.6764  0.3486
  176SLPC   H9R19966   0.290   1.792   6.169  0.5520 -1.6268 -0.4937
  176SLPC  C21019967   0.343   1.911   5.990  0.9586 -0.1291  0.1872
  176SLPC  H10R19968   0.248   1.884   5.942  0.7172  2.8047 -1.2027
  176SLPC  C21119969   0.428   2.014   5.923  0.0703  0.2387 -0.5684
  176SLPC  H11R19970   0.521   1.962   5.892  1.2814  0.7800  1.9126
  176SLPC  H11S19971   0.439   2.095   5.998 -2.6144  1.1594 -1.0667
  176SLPC  C21219972   0.377   2.080   5.794  0.1945  0.0858 -0.6541
  176SLPC  H12R19973   0.348   2.186   5.800 -1.1124 -0.2238 -1.1235
  176SLPC  C21319974   0.356   2.031   5.670 -0.1243  0.0511 -0.4843
  176SLPC  H13R19975   0.298   2.088   5.596  0.7621  1.3265 -0.2361
  176SLPC  C21419976   0.385   1.890   5.634  0.0141 -0.3896  0.2173
  176SLPC  H14R19977   0.434   1.828   5.712 -0.0689 -1.2727 -0.4159
  176SLPC  H14S19978   0.453   1.881   5.546 -1.3703  0.3332 -0.9589
  176SLPC  C21519979   0.256   1.812   5.596  0.1223  1.1079 -0.1107
  176SLPC  H15R19980   0.178   1.858   5.661  0.5717 -0.1479  1.3869
  176SLPC  H15S19981   0.274   1.706   5.622  2.0321  1.6686  1.1128
  176SLPC  C21619982   0.228   1.821   5.452  0.7697  0.0925  0.3173
  176SLPC  H16R19983   0.288   1.742   5.401  0.9998 -0.2036  1.0330
  176SLPC  H16S19984   0.273   1.915   5.412 -0.0986  0.2284 -0.3933
  176SLPC  C21719985   0.086   1.805   5.410 -0.0341 -0.1630 -0.1649
  176SLPC  H17R19986   0.018   1.876   5.462  0.2967  0.9033 -1.1493
  176SLPC  H17S19987   0.058   1.700   5.435  0.8181 -0.4815 -0.5278
  176SLPC  C21819988   0.064   1.813   5.253  0.2763  0.2582  0.4034
  176SLPC  H18R19989  -0.041   1.782   5.232  1.3307 -3.1380 -0.4049
  176SLPC  H18S19990   0.140   1.749   5.203 -1.8640 -0.0588 -2.7361
  176SLPC  H18T19991   0.084   1.917   5.218 -0.2233 -0.1236 -1.1010
  176SLPC   C3319992   1.085   2.136   6.697 -0.1604  0.1854  0.1292
  176SLPC   H3X19993   1.065   2.242   6.670 -0.6627 -0.1402 -0.8209
  176SLPC   H3Y19994   0.990   2.088   6.666  0.9141 -1.4193 -0.7848
  176SLPC   C3419995   1.200   2.084   6.600  0.0517  0.2102  0.5453
  176SLPC   H4X19996   1.195   1.973   6.597 -0.5095  0.2463 -0.4066
  176SLPC   H4Y19997   1.295   2.112   6.650  1.5497  0.3069 -2.1380
  176SLPC   C3519998   1.181   2.136   6.452  0.7434 -0.2442 -0.1497
  176SLPC   H5X19999   1.284   2.133   6.409  1.0242  0.1334  0.4719
  176SLPC   H5Y20000   1.155   2.244   6.453  2.4242  0.2772 -2.7656
  176SLPC   C3620001   1.078   2.056   6.376 -0.2518  0.3900  0.4193
  176SLPC   H6X20002   0.980   2.075   6.425 -1.6309 -0.3193 -1.8707
  176SLPC   H6Y20003   1.092   1.946   6.391  3.4065  0.6346 -0.4011
  176SLPC   C3720004   1.078   2.085   6.230 -0.8458  0.4651  0.4957
  176SLPC   H7X20005   1.170   2.038   6.188 -0.1089 -0.7930  3.2944
  176SLPC   H7Y20006   1.091   2.195   6.219 -1.1692  0.4438 -0.1983
  176SLPC   C3820007   0.953   2.048   6.160  0.1439  0.1318 -0.0072
  176SLPC   H8X20008   0.872   2.101   6.215  1.2895 -0.7612  2.7287
  176SLPC   H8Y20009   0.939   1.938   6.156 -0.3742  0.1783  0.4162
  176SLPC   C3920010   0.956   2.099   6.015  0.3763  0.0544  0.5537
  176SLPC   H9X20011   1.021   2.032   5.955 -3.1933 -1.2173 -2.2789
  176SLPC   H9Y20012   0.993   2.204   6.012  0.7295 -0.0661  0.6597
  176SLPC  C31020013   0.820   2.071   5.951  0.7805 -0.2931 -0.5854
  176SLPC  H10X20014   0.753   2.130   6.017  0.0556 -3.0005  1.2317
  176SLPC  H10Y20015   0.803   1.962   5.952 -3.5179  0.2260 -1.0182
  176SLPC  C31120016   0.818   2.119   5.801 -0.0776 -0.2085 -0.3807
  176SLPC  H11X20017   0.862   2.221   5.806 -0.9264  0.1263  0.7413
  176SLPC  H11Y20018   0.712   2.119   5.767 -0.4877 -0.8924  0.8515
  176SLPC  C31220019   0.908   2.029   5.705  0.1618 -0.0713  0.3340
  176SLPC  H12X20020   0.880   1.922   5.704  0.7068 -0.2786  2.4888
  176SLPC  H12Y20021   1.015   2.041   5.732 -0.2508  0.4490  1.8294
  176SLPC  C31320022   0.891   2.073   5.552 -0.2022 -0.4352  0.4142
  176SLPC  H13X20023   0.955   2.003   5.494 -2.1569 -0.6068 -1.6635
  176SLPC  H13Y20024   0.935   2.175   5.540  0.1368 -0.8635 -3.1272
  176SLPC  C31420025   0.739   2.083   5.514 -0.4612 -0.2090  0.4398
  176SLPC  H14X20026   0.691   2.157   5.581 -0.9724 -0.8459  0.7785
  176SLPC  H14Y20027   0.699   1.980   5.515  2.8476 -1.6231 -0.2760
  176SLPC  C31520028   0.731   2.130   5.369 -0.0562  0.3354 -0.6208
  176SLPC  H15X20029   0.780   2.066   5.294  1.6654 -0.6243  1.2450
  176SLPC  H15Y20030   0.786   2.227   5.362  1.0071 -0.1761  0.2833
  176SLPC  C31620031   0.588   2.149   5.310  1.3746 -0.0564  0.3846
  176SLPC  H16X20032   0.527   2.058   5.291 -1.1002  2.0255 -2.7408
  176SLPC  H16Y20033   0.599   2.203   5.214  0.5679  0.9571  0.8428
  176SLPC  C31720034   0.489   2.236   5.389 -0.2348 -0.0570 -0.3724
  176SLPC  H17X20035   0.528   2.340   5.399 -1.2231  0.1688  1.5762
  176SLPC  H17Y20036   0.486   2.199   5.493  2.0934  0.4089 -0.0888
  176SLPC  C31820037   0.350   2.245   5.328 -0.8918  0.1053  0.5265
  176SLPC  H18X20038   0.358   2.267   5.220  0.5062  0.3560  0.6622
  176SLPC  H18Y20039   0.291   2.322   5.384 -0.6989  0.1926  0.6100
  176SLPC  H18Z20040   0.291   2.152   5.323  1.7223 -1.7716  2.0099
  177SLPC     N20041   1.940   4.213   7.206  0.3124 -0.0119 -0.0217
  177SLPC   C1320042   1.988   4.135   7.335 -0.3244  0.4816  0.4457
  177SLPC  H13A20043   2.091   4.102   7.326 -0.0182  1.7671 -1.0827
  177SLPC  H13B20044   1.983   4.202   7.419 -0.9413  0.9118  0.0771
  177SLPC  H13C20045   1.923   4.050   7.351 -0.1237  0.2705  0.1689
  177SLPC   C1420046   2.034   4.176   7.100 -0.3320 -0.7373  0.5595
  177SLPC  H14A20047   2.137   4.199   7.125 -0.0713 -1.5727  0.2884
  177SLPC  H14B20048   2.033   4.071   7.078  2.4346 -0.6464 -0.3472
  177SLPC  H14C20049   2.006   4.229   7.010 -0.7863 -2.0545 -0.1028
  177SLPC   C1520050   1.971   4.361   7.235 -0.3025  0.4369  0.6755
  177SLPC  H15A20051   1.960   4.425   7.148  0.2510 -0.0230  0.2514
  177SLPC  H15B20052   1.904   4.405   7.306 -1.4052  0.4700 -0.3504
  177SLPC  H15C20053   2.072   4.368   7.273 -0.0102  1.0876 -0.1655
  177SLPC   C1220054   1.793   4.186   7.172 -0.6630  0.3051 -0.5345
  177SLPC  H12A20055   1.785   4.078   7.168 -0.7281  0.2781  0.1436
  177SLPC  H12B20056   1.777   4.222   7.072  4.2781 -0.7902 -2.0095
  177SLPC   C1120057   1.689   4.256   7.268  0.5696  0.3160 -0.4085
  177SLPC  H11A20058   1.719   4.237   7.374  0.6501  0.4684 -0.4031
  177SLPC  H11B20059   1.592   4.209   7.244  0.8539 -0.8202  0.5625
  177SLPC     P20060   1.589   4.471   7.152 -0.2309  0.2623 -0.1478
  177SLPC   O1320061   1.450   4.465   7.206 -0.3923  0.8904  1.4736
  177SLPC   O1420062   1.637   4.609   7.137  0.7757  0.3195  0.3900
  177SLPC   O1220063   1.681   4.398   7.258  0.2637  0.0450 -0.2144
  177SLPC   O1120064   1.606   4.394   7.016  0.0258  0.1081 -0.5151
  177SLPC    C120065   1.515   4.369   6.907 -0.3108  0.2121  0.4562
  177SLPC    HA20066   1.450   4.281   6.926  0.4301 -0.3853  0.2963
  177SLPC    HB20067   1.441   4.449   6.885 -0.8920 -0.8526 -1.8378
  177SLPC    C220068   1.602   4.345   6.774  0.3778  0.4235 -1.0188
  177SLPC    HS20069   1.557   4.414   6.699 -2.3053 -0.2916 -0.1900
  177SLPC   O2120070   1.570   4.215   6.731  0.9382  0.2235  0.4068
  177SLPC   C2120071   1.450   4.182   6.677  0.1640  0.1450  0.6497
  177SLPC   O2220072   1.350   4.251   6.678 -0.5952  0.5625  0.1538
  177SLPC   C2220073   1.451   4.041   6.624  0.0145  0.2595  0.4366
  177SLPC   H2R20074   1.483   3.979   6.710  1.1516  0.4309  0.1570
  177SLPC   H2S20075   1.345   4.023   6.595 -0.0179  3.1249 -1.6662
  177SLPC    C320076   1.756   4.357   6.799  0.3197  0.5212  0.0546
  177SLPC    HX20077   1.787   4.286   6.879  0.3720  1.9305  1.3427
  177SLPC    HY20078   1.766   4.460   6.841 -3.0456  0.9080  0.2555
  177SLPC   O3120079   1.832   4.326   6.678 -0.0784 -0.0063  0.3676
  177SLPC   C3120080   1.858   4.429   6.598  0.3979  0.1435  0.3356
  177SLPC   O3220081   1.804   4.540   6.618  0.2579 -0.2326  0.5805
  177SLPC   C3220082   1.956   4.391   6.481 -0.5305 -0.5125  0.1154
  177SLPC   H2X20083   1.959   4.280   6.484 -2.9032 -0.5961  1.2972
  177SLPC   H2Y20084   2.057   4.430   6.507 -0.1966 -1.4767  0.3220
  177SLPC   C2320085   1.543   4.011   6.498 -0.4023  0.2818  0.0498
  177SLPC   H3R20086   1.575   4.109   6.458 -0.6606  0.6380  0.6976
  177SLPC   H3S20087   1.474   3.964   6.425  0.3025  1.4886 -1.4532
  177SLPC   C2420088   1.660   3.919   6.536 -1.1324 -0.4669 -0.4131
  177SLPC   H4R20089   1.624   3.818   6.566  3.1231 -2.1933 -0.4036
  177SLPC   H4S20090   1.707   3.943   6.633 -0.9225 -2.4086  0.0149
  177SLPC   C2520091   1.769   3.883   6.436  0.3996  0.0265  0.4119
  177SLPC   H5R20092   1.821   3.793   6.475 -1.9581 -2.8814 -2.6265
  177SLPC   H5S20093   1.841   3.965   6.415  0.4958 -0.1187  0.1797
  177SLPC   C2620094   1.723   3.840   6.292  0.4516 -0.4809 -0.5245
  177SLPC   H6R20095   1.675   3.931   6.249  0.9106 -0.6808 -1.4893
  177SLPC   H6S20096   1.648   3.760   6.312 -0.9162 -0.5445 -4.7478
  177SLPC   C2720097   1.837   3.793   6.205  0.8596  0.9969 -0.4236
  177SLPC   H7R20098   1.868   3.695   6.248  0.8845  0.3089 -1.9681
  177SLPC   H7S20099   1.928   3.855   6.220  1.5039 -0.7259  5.5300
  177SLPC   C2820100   1.801   3.768   6.061  0.6412 -0.3290 -0.4515
  177SLPC   H8R20101   1.700   3.722   6.052  1.2111 -1.6725 -0.2459
  177SLPC   H8S20102   1.861   3.695   6.002  0.7389  0.3881 -1.2765
  177SLPC   C2920103   1.803   3.890   5.981 -0.3052 -0.2441 -0.3352
  177SLPC   H9R20104   1.826   3.982   6.037 -0.7552  0.5441 -1.4139
  177SLPC  C21020105   1.758   3.905   5.855 -0.4890 -0.2254 -0.3938
  177SLPC  H10R20106   1.769   3.994   5.792 -0.9064 -0.9684 -1.5533
  177SLPC  C21120107   1.708   3.795   5.760  0.1775  0.0596  0.7122
  177SLPC  H11R20108   1.625   3.840   5.702  1.7710  1.6011 -0.4801
  177SLPC  H11S20109   1.672   3.719   5.832 -1.4251 -1.0401 -1.1526
  177SLPC  C21220110   1.823   3.738   5.686 -0.3575 -0.0875 -0.4679
  177SLPC  H12R20111   1.912   3.707   5.742  1.5155  2.7971 -1.5721
  177SLPC  C21320112   1.845   3.736   5.559 -0.2109  0.3001  0.7362
  177SLPC  H13R20113   1.940   3.698   5.520 -0.0873  0.0675  1.2603
  177SLPC  C21420114   1.764   3.788   5.443 -0.5637 -0.3792 -0.8244
  177SLPC  H14R20115   1.819   3.746   5.356  0.7522 -1.9422  0.6560
  177SLPC  H14S20116   1.780   3.898   5.443  0.9016 -0.5570 -1.7606
  177SLPC  C21520117   1.620   3.735   5.445  0.0712 -0.9514  0.0163
  177SLPC  H15R20118   1.562   3.795   5.518  1.0719 -1.9445  1.6684
  177SLPC  H15S20119   1.627   3.631   5.482 -0.3802 -1.0285 -0.1068
  177SLPC  C21620120   1.552   3.753   5.303 -0.1184 -0.1145 -0.5286
  177SLPC  H16R20121   1.587   3.667   5.242  1.1151  0.2637 -0.3881
  177SLPC  H16S20122   1.588   3.850   5.263  0.0862  0.4605  0.9920
  177SLPC  C21720123   1.402   3.756   5.317  0.0130  0.7512 -0.2111
  177SLPC  H17R20124   1.373   3.844   5.379  0.2834 -0.1679  1.2657
  177SLPC  H17S20125   1.370   3.672   5.382  2.0847 -1.3664 -1.7478
  177SLPC  C21820126   1.333   3.749   5.187 -0.0090  0.3164 -0.5491
  177SLPC  H18R20127   1.226   3.772   5.207  0.1291  0.4796  0.0176
  177SLPC  H18S20128   1.342   3.647   5.145  0.0120 -0.3875  1.0898
  177SLPC  H18T20129   1.376   3.811   5.106  4.0301 -0.8034  0.5328
  177SLPC   C3320130   1.901   4.424   6.343  0.1534 -0.4522 -0.0336
  177SLPC   H3X20131   1.910   4.531   6.317 -1.4127  0.3696  2.4407
  177SLPC   H3Y20132   1.792   4.405   6.332  0.3608 -0.1482 -3.8589
  177SLPC   C3420133   1.970   4.356   6.223 -0.2359 -0.3270 -0.1608
  177SLPC   H4X20134   2.079   4.368   6.242 -0.3738  2.6611 -0.6477
  177SLPC   H4Y20135   1.947   4.410   6.128  1.4613  0.3928 -0.1988
  177SLPC   C3520136   1.942   4.202   6.225 -0.3162  0.0991  0.8298
  177SLPC   H5X20137   1.843   4.200   6.174  1.2447  0.1082 -2.4760
  177SLPC   H5Y20138   1.922   4.158   6.325  2.2040 -0.5847  1.0989
  177SLPC   C3620139   2.040   4.114   6.147  0.0678 -0.3150 -0.1441
  177SLPC   H6X20140   2.017   4.006   6.156  2.4059 -0.9565 -1.2410
  177SLPC   H6Y20141   2.144   4.130   6.181  0.8144 -0.7009 -2.1106
  177SLPC   C3720142   2.040   4.154   5.993  0.1450 -0.1135 -0.2918
  177SLPC   H7X20143   2.081   4.257   5.982 -0.4957  0.4417  1.9997
  177SLPC   H7Y20144   1.941   4.161   5.942  0.6787 -0.6155 -1.4465
  177SLPC   C3820145   2.118   4.062   5.912 -0.2928  0.0272  0.4676
  177SLPC   H8X20146   2.067   3.963   5.916 -2.9991  1.0872 -2.7821
  177SLPC   H8Y20147   2.215   4.029   5.955 -0.2660 -0.6634 -0.0959
  177SLPC   C3920148   2.130   4.089   5.762 -0.5131  0.5418 -0.5234
  177SLPC   H9X20149   2.215   4.158   5.744 -1.4285  2.0769  0.7951
  177SLPC   H9Y20150   2.026   4.121   5.739 -1.2551  1.5551  3.5011
  177SLPC  C31020151   2.158   3.961   5.678 -0.0018  0.0127  0.1550
  177SLPC  H10X20152   2.076   3.889   5.697 -0.5306  0.2706 -1.0338
  177SLPC  H10Y20153   2.256   3.913   5.702 -0.6730 -0.9891  0.9805
  177SLPC  C31120154   2.153   3.980   5.528  1.2629  0.7507 -0.2874
  177SLPC  H11X20155   2.204   4.073   5.496  4.7160 -1.0161 -0.3561
  177SLPC  H11Y20156   2.047   3.995   5.497  1.3133 -0.1458 -0.9411
  177SLPC  C31220157   2.204   3.854   5.443  0.5790 -0.0026  0.0437
  177SLPC  H12X20158   2.172   3.760   5.493 -0.8423 -0.1207 -1.0388
  177SLPC  H12Y20159   2.314   3.844   5.431  0.1959 -1.2422 -3.5913
  177SLPC  C31320160   2.131   3.861   5.307  0.7422 -0.5159 -0.5950
  177SLPC  H13X20161   2.160   3.962   5.271  2.4832 -0.4459  0.8388
  177SLPC  H13Y20162   2.023   3.854   5.331  0.7784  0.2255 -0.1974
  177SLPC  C31420163   2.181   3.753   5.213 -0.4440  0.8263  0.6553
  177SLPC  H14X20164   2.172   3.654   5.263 -1.5496  1.1783  1.1840
  177SLPC  H14Y20165   2.289   3.761   5.188 -0.6279  0.7767 -0.1966
  177SLPC  C31520166   2.106   3.752   5.077  0.4926  0.1249 -0.1990
  177SLPC  H15X20167   1.998   3.737   5.099  0.2929  0.1950 -1.1050
  177SLPC  H15Y20168   2.135   3.662   5.019 -0.4310 -0.2847 -0.0469
  177SLPC  C31620169   2.137   3.878   5.010  0.0451 -0.2656  0.4588
  177SLPC  H16X20170   2.247   3.893   5.000  0.8137 -4.2925  1.2293
  177SLPC  H16Y20171   2.101   3.958   5.078  2.3786 -0.3588  1.9198
  177SLPC  C31720172   2.070   3.876   4.874  0.5889 -0.8645 -0.6404
  177SLPC  H17X20173   1.961   3.890   4.887  0.3485 -1.6115 -1.7025
  177SLPC  H17Y20174   2.079   3.771   4.838 -2.0407 -1.6063  0.5951
  177SLPC  C31820175   2.109   3.985   4.781  0.2691 -0.1517  0.1656
  177SLPC  H18X20176   2.090   4.079   4.837  0.0742  1.2728 -2.1571
  177SLPC  H18Y20177   2.040   3.988   4.695  1.1612  1.8511 -0.5314
  177SLPC  H18Z20178   2.218   3.989   4.757  0.2500  1.5157  0.2425
  178SLPC     N20179   3.725   1.526   7.301  0.1720  0.1551 -0.4467
  178SLPC   C1320180   3.593   1.476   7.267 -0.6169  0.1929 -0.5201
  178SLPC  H13A20181   3.549   1.426   7.352  0.6216  1.7779  1.1187
  178SLPC  H13B20182   3.523   1.554   7.241  0.8432  1.5945 -0.4227
  178SLPC  H13C20183   3.595   1.396   7.194  0.4615  0.4787 -0.8275
  178SLPC   C1420184   3.795   1.584   7.192 -0.1053 -0.1898  0.7029
  178SLPC  H14A20185   3.903   1.589   7.197  0.0807  1.1400 -2.2517
  178SLPC  H14B20186   3.774   1.531   7.100  2.8156  0.8095 -0.7043
  178SLPC  H14C20187   3.764   1.683   7.161  0.6510 -0.5121 -1.2673
  178SLPC   C1520188   3.807   1.409   7.341  0.0372  0.2156 -1.1352
  178SLPC  H15A20189   3.910   1.441   7.349 -0.5694  2.3144 -1.2460
  178SLPC  H15B20190   3.766   1.360   7.428  0.4371 -0.9030 -1.5604
  178SLPC  H15C20191   3.804   1.332   7.265  3.3510  0.6084 -1.7943
  178SLPC   C1220192   3.720   1.632   7.412 -0.1960 -0.2329 -0.1538
  178SLPC  H12A20193   3.816   1.682   7.418 -0.2711  0.4108 -3.0852
  178SLPC  H12B20194   3.693   1.588   7.507 -0.1792 -1.0721 -0.5331
  178SLPC   C1120195   3.625   1.746   7.387  0.2337  0.1928  0.3492
  178SLPC  H11A20196   3.625   1.810   7.478  0.9638  0.0210  0.4826
  178SLPC  H11B20197   3.523   1.709   7.366  0.3217 -0.1940  0.6001
  178SLPC     P20198   3.785   1.926   7.295 -0.3206  0.2697 -0.2084
  178SLPC   O1320199   3.750   2.018   7.404  0.0345 -0.0970 -0.0993
  178SLPC   O1420200   3.904   1.846   7.328 -0.2286 -0.4387 -0.1421
  178SLPC   O1220201   3.667   1.826   7.280 -0.2515  0.3720 -0.4579
  178SLPC   O1120202   3.803   1.999   7.159 -0.1366 -0.0410  0.5118
  178SLPC    C120203   3.688   2.061   7.099 -0.3138 -0.0014  0.0069
  178SLPC    HA20204   3.623   2.116   7.170 -2.3472  1.0060 -2.4830
  178SLPC    HB20205   3.730   2.134   7.027 -0.0040  3.5526  3.4276
  178SLPC    C220206   3.601   1.960   7.014 -0.1638  0.1561 -0.1160
  178SLPC    HS20207   3.539   1.901   7.084 -0.1011  1.7882  1.3726
  178SLPC   O2120208   3.690   1.879   6.931 -0.2801  0.7659  0.2464
  178SLPC   C2120209   3.647   1.758   6.915  0.4818  0.1700  0.1754
  178SLPC   O2220210   3.546   1.707   6.965 -0.0763 -0.4183  0.1423
  178SLPC   C2220211   3.733   1.682   6.822  0.3126  0.0514  0.2582
  178SLPC   H2R20212   3.816   1.754   6.801 -1.2731  2.5094  1.9283
  178SLPC   H2S20213   3.769   1.595   6.880  1.3033 -0.7110 -1.4176
  178SLPC    C320214   3.507   2.045   6.925  0.7161 -0.5417  0.5220
  178SLPC    HX20215   3.443   2.101   6.997  1.3311  1.6240 -0.5300
  178SLPC    HY20216   3.441   1.977   6.866  0.8376 -2.0832  2.0782
  178SLPC   O3120217   3.580   2.155   6.855  0.4665  0.3647 -0.2909
  178SLPC   C3120218   3.610   2.118   6.730 -0.1778 -0.4746 -0.0082
  178SLPC   O3220219   3.586   2.014   6.676 -0.1792  0.2062 -0.1982
  178SLPC   C3220220   3.682   2.238   6.672 -0.3406  0.0133 -0.1904
  178SLPC   H2X20221   3.788   2.233   6.707 -0.4442  0.4288  0.1889
  178SLPC   H2Y20222   3.637   2.332   6.710  2.4126  1.6276 -0.6173
  178SLPC   C2320223   3.657   1.632   6.698  0.2133  0.1289  0.2947
  178SLPC   H3R20224   3.618   1.713   6.633  3.3241  0.1201 -1.7990
  178SLPC   H3S20225   3.574   1.570   6.740 -1.2028  1.4449 -0.4926
  178SLPC   C2420226   3.740   1.537   6.613  0.3359 -0.5156  0.5503
  178SLPC   H4R20227   3.762   1.444   6.670 -2.3346 -2.0900 -0.7785
  178SLPC   H4S20228   3.835   1.583   6.578 -1.5270  3.0068 -0.3529
  178SLPC   C2520229   3.667   1.501   6.481  0.3513  0.4246  0.0442
  178SLPC   H5R20230   3.666   1.584   6.406  0.3189  0.1564 -0.2550
  178SLPC   H5S20231   3.562   1.477   6.508  0.6297 -0.4150  0.4233
  178SLPC   C2620232   3.739   1.379   6.414 -0.2499  0.5373 -0.7271
  178SLPC   H6R20233   3.731   1.296   6.487  1.8097  1.5512  0.7266
  178SLPC   H6S20234   3.844   1.397   6.384  0.5718 -1.9556  0.4330
  178SLPC   C2720235   3.686   1.331   6.279  0.9657  0.2397  0.1114
  178SLPC   H7R20236   3.576   1.322   6.287  0.8702  2.4587  2.7901
  178SLPC   H7S20237   3.719   1.228   6.251 -0.1761  0.0417 -0.5361
  178SLPC   C2820238   3.723   1.421   6.163 -0.0380  0.0132 -0.4669
  178SLPC   H8R20239   3.700   1.522   6.201  2.5698  0.3823  0.3419
  178SLPC   H8S20240   3.653   1.389   6.083 -2.1180  0.9237  0.8959
  178SLPC   C2920241   3.873   1.412   6.126 -0.7778 -0.0329 -0.1094
  178SLPC   H9R20242   3.936   1.459   6.203 -0.7002 -0.5204  0.1267
  178SLPC  C21020243   3.918   1.372   6.009 -0.5944  0.5658 -0.0676
  178SLPC  H10R20244   4.025   1.391   5.993 -0.6979  1.4088  0.1982
  178SLPC  C21120245   3.837   1.321   5.890 -0.3164  0.3471  0.3032
  178SLPC  H11R20246   3.738   1.372   5.891 -0.6233 -0.2234  1.1093
  178SLPC  H11S20247   3.818   1.212   5.906 -1.2808  0.7249  1.9736
  178SLPC  C21220248   3.923   1.341   5.763  0.5883 -0.1618  0.1528
  178SLPC  H12R20249   4.029   1.359   5.784  0.3710  2.8667 -0.8816
  178SLPC  C21320250   3.871   1.357   5.641 -0.1809  0.5519  0.3973
  178SLPC  H13R20251   3.943   1.367   5.559 -0.8072  2.0181 -0.0073
  178SLPC  C21420252   3.727   1.373   5.601 -0.2066 -0.0815 -0.2870
  178SLPC  H14R20253   3.711   1.479   5.573  2.2225  0.7158  1.0705
  178SLPC  H14S20254   3.653   1.364   5.684 -0.8236  2.6814 -0.4520
  178SLPC  C21520255   3.700   1.273   5.484 -1.1561 -0.1545 -0.3736
  178SLPC  H15R20256   3.590   1.273   5.464 -0.9223 -0.3684 -1.7433
  178SLPC  H15S20257   3.729   1.175   5.528 -0.2544  0.6735  0.9705
  178SLPC  C21620258   3.784   1.313   5.365  0.2161  0.8449  0.1008
  178SLPC  H16R20259   3.892   1.289   5.379  0.5207  1.6639 -0.7157
  178SLPC  H16S20260   3.769   1.422   5.347  1.2388  0.9992  0.0883
  178SLPC  C21720261   3.736   1.235   5.238  0.0397  0.1712 -0.1163
  178SLPC  H17R20262   3.626   1.248   5.236 -0.1651 -1.4018 -2.3215
  178SLPC  H17S20263   3.761   1.129   5.262  1.1311  0.7083  1.2386
  178SLPC  C21820264   3.815   1.289   5.114  0.0212  0.7912 -0.2467
  178SLPC  H18R20265   3.787   1.397   5.107 -0.2497  0.6707 -1.2918
  178SLPC  H18S20266   3.782   1.239   5.020 -1.8529  1.4128  0.0246
  178SLPC  H18T20267   3.924   1.294   5.131  0.1707  0.8057 -1.1579
  178SLPC   C3320268   3.672   2.237   6.526  0.2967  0.0962  0.5368
  178SLPC   H3X20269   3.703   2.339   6.498 -0.2101  0.4675  1.2799
  178SLPC   H3Y20270   3.574   2.207   6.483  0.8367 -0.5566 -0.2708
  178SLPC   C3420271   3.776   2.150   6.449  0.2986  0.7024  0.1047
  178SLPC   H4X20272   3.758   2.042   6.466 -1.3200  0.6729 -1.4916
  178SLPC   H4Y20273   3.872   2.179   6.496 -0.8047  2.2719  1.4916
  178SLPC   C3520274   3.778   2.183   6.298  0.4030 -0.0467  0.6703
  178SLPC   H5X20275   3.752   2.288   6.270 -0.3534 -0.6096 -0.8257
  178SLPC   H5Y20276   3.705   2.115   6.250  1.5348 -1.4488  0.8749
  178SLPC   C3620277   3.907   2.150   6.222  0.0766  0.0766  0.3655
  178SLPC   H6X20278   3.920   2.041   6.239 -0.9864  0.0942  1.4319
  178SLPC   H6Y20279   4.002   2.189   6.263  0.9403 -2.6237  1.1248
  178SLPC   C3720280   3.906   2.181   6.069  1.1353 -0.6981 -0.2398
  178SLPC   H7X20281   3.989   2.124   6.021  1.3050  1.1059 -2.2551
  178SLPC   H7Y20282   3.927   2.290   6.062 -1.7845  0.1940  2.4597
  178SLPC   C3820283   3.777   2.137   5.997  0.2354 -0.1290 -0.3147
  178SLPC   H8X20284   3.678   2.160   6.042 -0.2222  0.1155 -1.4172
  178SLPC   H8Y20285   3.776   2.027   5.978  2.6094 -0.2353 -0.1947
  178SLPC   C3920286   3.777   2.201   5.852  0.2715 -0.4270  0.2326
  178SLPC   H9X20287   3.882   2.183   5.820  0.7159  2.0619  0.0985
  178SLPC   H9Y20288   3.763   2.311   5.862 -0.5763 -0.6387  1.5705
  178SLPC  C31020289   3.677   2.126   5.764  0.3118 -0.2350  0.0953
  178SLPC  H10X20290   3.579   2.133   5.815 -0.0551 -1.8461 -0.3214
  178SLPC  H10Y20291   3.699   2.019   5.745 -1.3909 -0.7288  0.7371
  178SLPC  C31120292   3.655   2.195   5.631  0.4219 -0.9507 -0.5176
  178SLPC  H11X20293   3.754   2.203   5.582  0.7676  0.0061  0.2925
  178SLPC  H11Y20294   3.604   2.293   5.643  0.1978 -1.0977 -0.2617
  178SLPC  C31220295   3.566   2.112   5.535  0.5391 -0.0451 -0.1755
  178SLPC  H12X20296   3.461   2.141   5.556  0.7246  0.5201 -0.0074
  178SLPC  H12Y20297   3.569   2.002   5.549 -0.2463 -0.0543 -0.0373
  178SLPC  C31320298   3.593   2.135   5.383 -0.0150  0.0246 -0.0445
  178SLPC  H13X20299   3.697   2.102   5.361 -0.3381 -1.8506  0.9628
  178SLPC  H13Y20300   3.587   2.245   5.374  1.7169  0.0686 -1.2373
  178SLPC  C31420301   3.490   2.074   5.285 -0.2120 -0.4560 -1.2829
  178SLPC  H14X20302   3.391   2.113   5.319  0.4817 -1.3266  2.0942
  178SLPC  H14Y20303   3.492   1.967   5.314 -2.3639  0.4388  3.0473
  178SLPC  C31520304   3.517   2.088   5.134 -0.3547  0.4996  0.1575
  178SLPC  H15X20305   3.617   2.048   5.106 -0.2237  0.7451  0.2776
  178SLPC  H15Y20306   3.507   2.191   5.096  0.2747  1.4747  2.4608
  178SLPC  C31620307   3.409   2.012   5.057  0.0541  0.3203  0.0523
  178SLPC  H16X20308   3.306   2.052   5.050 -0.3004 -0.6848 -0.7352
  178SLPC  H16Y20309   3.389   1.913   5.103 -0.4280 -0.4400 -1.6974
  178SLPC  C31720310   3.445   1.982   4.909 -0.5795 -0.6814  0.3283
  178SLPC  H17X20311   3.367   1.926   4.853 -2.1368  0.0109  1.7498
  178SLPC  H17Y20312   3.544   1.932   4.901 -0.1088  0.3649 -0.7150
  178SLPC  C31820313   3.452   2.114   4.826  0.1078 -0.6738  0.0972
  178SLPC  H18X20314   3.495   2.093   4.726  0.4439  1.4912 -0.2425
  178SLPC  H18Y20315   3.521   2.189   4.868  3.2318 -2.5691 -1.2791
  178SLPC  H18Z20316   3.348   2.152   4.823  0.2678 -0.0377  1.6848
  179SLPC     N20317   3.418   0.449   2.313 -0.2623  0.0978  0.0801
  179SLPC   C1320318   3.476   0.450   2.174  0.1861  0.3924 -0.0586
  179SLPC  H13A20319   3.570   0.398   2.180 -0.1448 -0.1812  0.2203
  179SLPC  H13B20320   3.413   0.401   2.101 -2.2996 -0.5371  2.5111
  179SLPC  H13C20321   3.485   0.554   2.144 -1.2336  0.8341  0.9035
  179SLPC   C1420322   3.341   0.569   2.341  0.3415 -0.2773 -0.3785
  179SLPC  H14A20323   3.243   0.563   2.295 -1.1211 -3.6545  2.6345
  179SLPC  H14B20324   3.319   0.582   2.446  1.1607  0.9093 -0.3358
  179SLPC  H14C20325   3.388   0.661   2.309  0.2025  0.1252  0.5209
  179SLPC   C1520326   3.522   0.442   2.423 -0.0346 -0.5309 -0.0855
  179SLPC  H15A20327   3.592   0.361   2.412  1.4555  0.8672 -1.4088
  179SLPC  H15B20328   3.579   0.534   2.421 -0.0309 -0.5392 -0.4424
  179SLPC  H15C20329   3.476   0.422   2.519  1.5869 -1.1038  0.6254
  179SLPC   C1220330   3.330   0.322   2.316  0.1319  1.2143 -0.1184
  179SLPC  H12A20331   3.388   0.235   2.287  2.0554  1.8912  1.4620
  179SLPC  H12B20332   3.243   0.325   2.252 -1.5643  0.0774  2.0116
  179SLPC   C1120333   3.264   0.295   2.455  0.1153 -0.6811 -0.1809
  179SLPC  H11A20334   3.188   0.214   2.455 -1.7421  0.9717  0.7229
  179SLPC  H11B20335   3.211   0.392   2.463  1.9478  0.4133 -0.7129
  179SLPC     P20336   3.402   0.144   2.628 -0.1903 -0.3386  0.2238
  179SLPC   O1320337   3.298   0.083   2.709  0.4111  0.6700  0.2017
  179SLPC   O1420338   3.458   0.061   2.516  0.7500  0.1533  0.3936
  179SLPC   O1220339   3.355   0.277   2.565 -0.3686 -0.0787  0.5435
  179SLPC   O1120340   3.510   0.201   2.727 -0.2785 -0.6967  0.2259
  179SLPC    C120341   3.484   0.216   2.862 -0.7656  1.0101 -0.9124
  179SLPC    HA20342   3.427   0.131   2.904  0.3645  1.1055  0.9560
  179SLPC    HB20343   3.582   0.217   2.914  0.4041  3.7911 -2.9259
  179SLPC    C220344   3.411   0.351   2.883  0.6140 -0.3958 -0.4244
  179SLPC    HS20345   3.323   0.356   2.815 -1.7325 -1.3645  2.3404
  179SLPC   O2120346   3.494   0.468   2.875  0.1319  0.0088  0.0503
  179SLPC   C2120347   3.439   0.579   2.861  0.1308  0.0087  0.0798
  179SLPC   O2220348   3.318   0.598   2.842 -0.4205  0.0261  0.0086
  179SLPC   C2220349   3.548   0.692   2.880  0.7674 -0.0750 -0.1526
  179SLPC   H2R20350   3.640   0.660   2.825 -0.5301 -3.9863 -0.3400
  179SLPC   H2S20351   3.518   0.795   2.854  0.2960  0.5349  2.5773
  179SLPC    C320352   3.358   0.348   3.028 -0.3481  0.0795  0.3007
  179SLPC    HX20353   3.293   0.259   3.044 -0.2121  0.0030  0.4284
  179SLPC    HY20354   3.298   0.441   3.027 -1.6419 -0.5574  4.0374
  179SLPC   O3120355   3.468   0.357   3.124  0.4738 -0.3435  0.0429
  179SLPC   C3120356   3.501   0.249   3.186  0.0766  0.3940 -0.4804
  179SLPC   O3220357   3.451   0.141   3.175  0.2212  0.0489 -0.4390
  179SLPC   C3220358   3.618   0.291   3.281 -0.4027 -0.0186 -1.4827
  179SLPC   H2X20359   3.582   0.362   3.359  1.0866 -1.2151  0.3769
  179SLPC   H2Y20360   3.691   0.340   3.215  1.3582 -1.4259 -0.6601
  179SLPC   C2320361   3.595   0.700   3.028  0.2242 -0.1387 -0.5675
  179SLPC   H3R20362   3.685   0.764   3.041  0.7873 -1.3373  1.9831
  179SLPC   H3S20363   3.622   0.599   3.064  1.5084  0.1950 -0.5326
  179SLPC   C2420364   3.491   0.761   3.118 -0.5089 -0.5974  1.0731
  179SLPC   H4R20365   3.399   0.700   3.108  1.2074 -3.1678 -0.1180
  179SLPC   H4S20366   3.475   0.869   3.099  0.5641 -0.6158 -0.0416
  179SLPC   C2520367   3.532   0.748   3.264  0.3745 -0.5575  0.0868
  179SLPC   H5R20368   3.625   0.803   3.289  0.4384 -0.2389 -0.7991
  179SLPC   H5S20369   3.550   0.643   3.295 -0.2229 -0.2893  1.4316
  179SLPC   C2620370   3.410   0.797   3.349  0.3151  0.3692  0.3414
  179SLPC   H6R20371   3.319   0.757   3.299 -0.4611  1.4650  0.8282
  179SLPC   H6S20372   3.409   0.906   3.325 -0.3857  0.0797 -1.0651
  179SLPC   C2720373   3.417   0.771   3.505 -0.0133 -0.6000  0.2017
  179SLPC   H7R20374   3.484   0.847   3.551  0.6142 -0.4880 -0.8669
  179SLPC   H7S20375   3.450   0.666   3.525  0.3506 -0.5550 -0.1583
  179SLPC   C2820376   3.279   0.793   3.568 -0.4173  0.0763 -0.9475
  179SLPC   H8R20377   3.267   0.741   3.666  0.0564 -0.2530 -1.0601
  179SLPC   H8S20378   3.205   0.735   3.509 -0.6176 -1.2987  0.5680
  179SLPC   C2920379   3.226   0.932   3.580  0.4110 -0.0799 -0.4605
  179SLPC   H9R20380   3.224   0.989   3.486 -2.2386 -0.6880 -0.8403
  179SLPC  C21020381   3.180   0.996   3.690  0.0063 -0.7358 -0.8583
  179SLPC  H10R20382   3.142   1.097   3.667  0.8595 -0.4779 -1.1967
  179SLPC  C21120383   3.183   0.948   3.833 -0.4149 -0.1198 -0.1599
  179SLPC  H11R20384   3.177   0.838   3.848  0.0006 -0.0934  0.2329
  179SLPC  H11S20385   3.089   0.980   3.883  1.1148  1.0256  2.1350
  179SLPC  C21220386   3.291   1.012   3.917 -0.2334 -0.0581  0.1566
  179SLPC  H12R20387   3.390   0.996   3.872 -0.3168 -0.8593  0.2497
  179SLPC  C21320388   3.288   1.059   4.039  0.5191  0.1453  0.0208
  179SLPC  H13R20389   3.381   1.101   4.081  1.0539 -1.2974  0.3316
  179SLPC  C21420390   3.164   1.085   4.125  0.5357 -0.4662  0.1276
  179SLPC  H14R20391   3.139   0.986   4.168  0.6356 -0.4499  0.2251
  179SLPC  H14S20392   3.078   1.114   4.062 -0.1168 -3.4393 -0.4682
  179SLPC  C21520393   3.197   1.189   4.230 -0.4450  0.1775 -0.4282
  179SLPC  H15R20394   3.213   1.283   4.174  0.0939  0.3642  0.0273
  179SLPC  H15S20395   3.290   1.167   4.287 -0.5418  0.0432 -0.3205
  179SLPC  C21620396   3.084   1.210   4.334 -0.3106  0.0297 -0.2436
  179SLPC  H16R20397   2.992   1.229   4.275  0.2985 -0.3883 -1.3547
  179SLPC  H16S20398   3.108   1.301   4.394  2.2812  0.8604 -2.3170
  179SLPC  C21720399   3.053   1.089   4.414 -0.1179 -0.0076 -0.1761
  179SLPC  H17R20400   3.060   0.996   4.353 -1.3894 -1.8735  2.3023
  179SLPC  H17S20401   2.945   1.100   4.440  0.2876  1.0248  1.1290
  179SLPC  C21820402   3.134   1.079   4.540  0.4210 -0.2533  0.9776
  179SLPC  H18R20403   3.104   1.163   4.606  0.0578  1.8045 -1.6424
  179SLPC  H18S20404   3.244   1.078   4.523  0.6226 -2.0559  2.0827
  179SLPC  H18T20405   3.096   0.990   4.595 -2.1733  0.0620 -0.1599
  179SLPC   C3320406   3.675   0.176   3.364 -0.6115 -0.0517  0.4851
  179SLPC   H3X20407   3.783   0.193   3.381 -0.2964 -2.0744  0.7750
  179SLPC   H3Y20408   3.666   0.086   3.298 -0.1977  0.3210 -0.0922
  179SLPC   C3420409   3.615   0.149   3.501  0.2678 -0.3393  0.7552
  179SLPC   H4X20410   3.654   0.055   3.546 -1.0370 -0.6521  1.2745
  179SLPC   H4Y20411   3.507   0.124   3.489  0.3849 -0.7947  0.6549
  179SLPC   C3520412   3.632   0.266   3.596  0.0237  0.4331  0.3666
  179SLPC   H5X20413   3.741   0.283   3.609  0.3068 -0.8167 -0.2287
  179SLPC   H5Y20414   3.571   0.358   3.578  1.0847  0.8252 -1.4222
  179SLPC   C3620415   3.577   0.229   3.730  0.0719  0.5186 -0.4951
  179SLPC   H6X20416   3.629   0.138   3.767  0.2576  0.7376 -0.2119
  179SLPC   H6Y20417   3.468   0.212   3.713 -0.3403  2.4236  0.0484
  179SLPC   C3720418   3.611   0.338   3.837 -0.2035  0.5940 -0.1715
  179SLPC   H7X20419   3.550   0.430   3.824 -0.0145  0.4929 -2.0591
  179SLPC   H7Y20420   3.720   0.362   3.836  0.0484 -0.4100  0.9440
  179SLPC   C3820421   3.582   0.290   3.981 -0.7517 -0.5972  0.2191
  179SLPC   H8X20422   3.611   0.183   3.984 -2.0016 -0.9462  0.6232
  179SLPC   H8Y20423   3.471   0.279   3.990 -0.7247 -1.7509 -0.6267
  179SLPC   C3920424   3.652   0.371   4.088  0.0478 -0.0712  0.0685
  179SLPC   H9X20425   3.625   0.478   4.077 -0.5492 -0.0092  1.8699
  179SLPC   H9Y20426   3.762   0.372   4.070 -0.1685  1.1187 -1.4138
  179SLPC  C31020427   3.631   0.328   4.232 -0.5877  0.5235 -0.9093
  179SLPC  H10X20428   3.639   0.218   4.247 -0.5247  0.4221 -1.6744
  179SLPC  H10Y20429   3.527   0.363   4.248 -0.3521  0.6437  0.5204
  179SLPC  C31120430   3.718   0.403   4.339  0.2782 -0.7001  0.2134
  179SLPC  H11X20431   3.718   0.509   4.307  1.4619 -0.8805 -0.4308
  179SLPC  H11Y20432   3.823   0.367   4.328  0.4950  0.4751 -2.2389
  179SLPC  C31220433   3.659   0.383   4.481 -0.9331 -0.8739  0.2859
  179SLPC  H12X20434   3.620   0.279   4.487 -4.2905  0.3348  2.1449
  179SLPC  H12Y20435   3.571   0.450   4.485  0.5776  1.5695 -3.0295
  179SLPC  C31320436   3.761   0.423   4.584  0.1278 -0.7812 -0.0388
  179SLPC  H13X20437   3.849   0.356   4.589  2.0634  1.5701 -0.6308
  179SLPC  H13Y20438   3.711   0.407   4.682  0.0957 -0.5060 -0.0100
  179SLPC  C31420439   3.803   0.573   4.566 -0.1668 -0.3268  0.3577
  179SLPC  H14X20440   3.705   0.624   4.570  0.1708  0.4230 -0.4929
  179SLPC  H14Y20441   3.848   0.595   4.467  0.3192  0.3555  0.7207
  179SLPC  C31520442   3.892   0.632   4.673 -0.3438 -0.2306 -0.5715
  179SLPC  H15X20443   3.989   0.578   4.665 -0.5305 -0.7531  0.5992
  179SLPC  H15Y20444   3.854   0.616   4.776  0.5361 -0.5200 -0.2844
  179SLPC  C31620445   3.914   0.782   4.649 -0.0846 -1.0652 -0.0302
  179SLPC  H16X20446   3.814   0.831   4.649 -0.0878 -0.6438  4.5976
  179SLPC  H16Y20447   3.966   0.797   4.552  0.9666  0.6945  0.7669
  179SLPC  C31720448   4.006   0.842   4.755  0.1449 -0.1306 -0.0987
  179SLPC  H17X20449   4.108   0.800   4.749 -0.0628 -0.6217 -0.3306
  179SLPC  H17Y20450   3.962   0.810   4.853  0.8714  0.8101  0.5438
  179SLPC  C31820451   4.004   0.994   4.762 -0.5484  0.1367  0.4402
  179SLPC  H18X20452   4.060   1.036   4.848  2.3616 -2.1750 -0.1492
  179SLPC  H18Y20453   3.901   1.030   4.782 -0.0942  1.7418  0.0909
  179SLPC  H18Z20454   4.041   1.031   4.664  0.4962 -1.2296  0.2833
  180SLPC     N20455   2.712   0.119   2.818  0.7852 -0.0938  0.2082
  180SLPC   C1320456   2.712  -0.031   2.828 -0.4463 -1.0090 -0.2012
  180SLPC  H13A20457   2.674  -0.071   2.735 -1.1783  0.3380 -0.5120
  180SLPC  H13B20458   2.811  -0.073   2.831  0.1205  0.2976  0.3320
  180SLPC  H13C20459   2.642  -0.069   2.900 -2.2164 -1.9089 -2.2736
  180SLPC   C1420460   2.570   0.174   2.807  0.8171 -0.1052  0.1036
  180SLPC  H14A20461   2.574   0.281   2.813  0.4544 -0.0830 -0.0558
  180SLPC  H14B20462   2.527   0.152   2.711  0.2733  0.9571  0.0915
  180SLPC  H14C20463   2.496   0.138   2.877  1.6443 -3.1875 -0.4251
  180SLPC   C1520464   2.790   0.158   2.700 -0.2765  0.0755  0.7089
  180SLPC  H15A20465   2.783   0.265   2.693 -0.3799  0.2344  2.8067
  180SLPC  H15B20466   2.894   0.128   2.704 -0.0275  0.9876  1.2519
  180SLPC  H15C20467   2.741   0.114   2.614  0.5733  1.2202 -0.3880
  180SLPC   C1220468   2.786   0.176   2.939  0.1622  0.1072 -0.3070
  180SLPC  H12A20469   2.782   0.283   2.922  0.8016  0.1721 -0.0705
  180SLPC  H12B20470   2.884   0.133   2.925  0.5360  1.2280 -1.2553
  180SLPC   C1120471   2.746   0.144   3.086 -0.2344  0.0524  0.3548
  180SLPC  H11A20472   2.804   0.223   3.138 -0.7318  1.7168 -1.5024
  180SLPC  H11B20473   2.789   0.047   3.119  0.7397  0.2222 -0.3577
  180SLPC     P20474   2.539   0.293   3.154 -0.0523  0.1600 -0.0963
  180SLPC   O1320475   2.555   0.393   3.051 -0.0916 -0.1670  0.3457
  180SLPC   O1420476   2.403   0.248   3.186  0.5638 -0.5989 -0.2523
  180SLPC   O1220477   2.611   0.150   3.111  0.0977  0.1983  0.0387
  180SLPC   O1120478   2.630   0.334   3.282  0.0671  0.2455 -0.2219
  180SLPC    C120479   2.566   0.311   3.407 -0.5134 -0.0413 -0.4383
  180SLPC    HA20480   2.627   0.361   3.485  1.1874 -2.5863  0.0270
  180SLPC    HB20481   2.464   0.352   3.413  0.6678  3.0610  0.2380
  180SLPC    C220482   2.578   0.160   3.452 -0.9706  0.1817  0.2864
  180SLPC    HS20483   2.561   0.100   3.360 -0.1495  1.3189 -0.6246
  180SLPC   O2120484   2.482   0.129   3.553  0.2255 -0.4156 -0.1995
  180SLPC   C2120485   2.463  -0.002   3.581  0.5232  0.8091 -0.3518
  180SLPC   O2220486   2.501  -0.096   3.513 -1.0631  0.3974  0.2220
  180SLPC   C2220487   2.381  -0.020   3.712 -0.2230  0.5551  0.3439
  180SLPC   H2R20488   2.439   0.032   3.790  0.3528 -2.0170  1.7279
  180SLPC   H2S20489   2.282   0.031   3.703  0.8956  2.7754  0.0670
  180SLPC    C320490   2.726   0.137   3.496  0.1025 -0.1451  0.3830
  180SLPC    HX20491   2.782   0.168   3.405  2.5039 -2.5685  0.9133
  180SLPC    HY20492   2.755   0.030   3.504 -0.9152 -0.6321 -1.7619
  180SLPC   O3120493   2.764   0.223   3.601  0.6301 -0.1520  0.0420
  180SLPC   C3120494   2.747   0.168   3.721  0.0415  0.2115 -0.2871
  180SLPC   O3220495   2.723   0.046   3.744  0.4818 -0.4266 -0.0141
  180SLPC   C3220496   2.753   0.283   3.825  0.1345 -0.1165  0.4326
  180SLPC   H2X20497   2.650   0.322   3.840 -0.4093 -0.2566 -2.3361
  180SLPC   H2Y20498   2.824   0.358   3.783  1.9739 -1.5470  0.8457
  180SLPC   C2320499   2.374  -0.168   3.767 -1.0628 -0.5864  0.4535
  180SLPC   H3R20500   2.476  -0.210   3.785 -1.0524 -2.1150 -2.4315
  180SLPC   H3S20501   2.334  -0.224   3.680 -0.1886 -0.0939 -0.2881
  180SLPC   C2420502   2.280  -0.189   3.887 -0.5562  0.4493  0.2200
  180SLPC   H4R20503   2.234  -0.290   3.882  1.7714 -0.7839  1.6426
  180SLPC   H4S20504   2.196  -0.117   3.879 -1.2637 -0.4937 -1.1302
  180SLPC   C2520505   2.342  -0.156   4.023  0.1050 -0.1512  0.1129
  180SLPC   H5R20506   2.358  -0.047   4.033 -0.1144  0.2128 -2.7434
  180SLPC   H5S20507   2.440  -0.206   4.027 -0.0878 -0.4462  2.5609
  180SLPC   C2620508   2.258  -0.217   4.140  0.5434 -0.2795 -0.2079
  180SLPC   H6R20509   2.248  -0.328   4.137 -0.7124 -0.2362  1.1198
  180SLPC   H6S20510   2.157  -0.171   4.142  0.6405 -0.0912  1.8360
  180SLPC   C2720511   2.320  -0.190   4.275  0.5270 -0.3288  0.3991
  180SLPC   H7R20512   2.296  -0.086   4.307  1.1729 -0.1504  0.3180
  180SLPC   H7S20513   2.430  -0.200   4.265  0.7214  1.5995  0.0942
  180SLPC   C2820514   2.274  -0.273   4.393 -0.4136  0.9175 -0.0029
  180SLPC   H8R20515   2.344  -0.255   4.478  0.6612 -0.6507 -0.5166
  180SLPC   H8S20516   2.299  -0.375   4.358  2.6988  2.3963 -2.6778
  180SLPC   C2920517   2.131  -0.265   4.442  0.9303 -0.9409 -0.0047
  180SLPC   H9R20518   2.051  -0.300   4.376 -0.3385  1.5932  0.0757
  180SLPC  C21020519   2.096  -0.240   4.569  0.1371  0.5863  0.0165
  180SLPC  H10R20520   1.988  -0.252   4.586  0.3065 -0.7820  0.2340
  180SLPC  C21120521   2.188  -0.201   4.688 -0.3754 -0.5268 -0.4562
  180SLPC  H11R20522   2.269  -0.130   4.662 -1.0902 -0.2126 -1.9386
  180SLPC  H11S20523   2.225  -0.294   4.735 -0.9576 -0.2888  0.5033
  180SLPC  C21220524   2.114  -0.130   4.792  0.5984 -0.3858  0.2120
  180SLPC  H12R20525   2.146  -0.024   4.798 -1.6238  0.3384  0.2302
  180SLPC  C21320526   2.007  -0.172   4.871  0.4321  0.5373 -0.1527
  180SLPC  H13R20527   1.953  -0.099   4.934 -2.5397  0.5821 -2.5178
  180SLPC  C21420528   1.946  -0.309   4.884  0.6945  0.0609  0.8647
  180SLPC  H14R20529   1.965  -0.354   4.983  1.5156  0.7051  1.0098
  180SLPC  H14S20530   1.997  -0.375   4.810 -1.2442  0.1992 -0.6910
  180SLPC  C21520531   1.802  -0.326   4.842 -0.0216 -0.7255 -0.4444
  180SLPC  H15R20532   1.780  -0.430   4.812 -0.8691 -0.1602 -1.8688
  180SLPC  H15S20533   1.780  -0.274   4.746 -3.1850 -0.6840  0.1866
  180SLPC  C21620534   1.707  -0.289   4.951 -0.5284  0.4815  0.2319
  180SLPC  H16R20535   1.730  -0.188   4.990 -1.4165  0.3307  1.1916
  180SLPC  H16S20536   1.724  -0.357   5.037  3.0390 -0.6750 -1.1775
  180SLPC  C21720537   1.559  -0.304   4.911 -0.1148  0.3885  0.1358
  180SLPC  H17R20538   1.556  -0.413   4.892  1.1248  0.0668  1.5644
  180SLPC  H17S20539   1.537  -0.247   4.818  0.3619 -0.0305 -0.2412
  180SLPC  C21820540   1.469  -0.254   5.026  0.8852  0.0006 -0.3408
  180SLPC  H18R20541   1.488  -0.146   5.042 -1.2200  0.8777 -2.9072
  180SLPC  H18S20542   1.486  -0.303   5.124 -1.1315  2.0668  1.1621
  180SLPC  H18T20543   1.361  -0.269   5.004  1.1300 -1.8364 -0.4569
  180SLPC   C3320544   2.804   0.227   3.954 -0.9160 -0.0858  0.5761
  180SLPC   H3X20545   2.901   0.173   3.945  0.6063  2.7107 -1.0575
  180SLPC   H3Y20546   2.741   0.149   4.001  0.5314 -1.1425  0.8428
  180SLPC   C3420547   2.839   0.338   4.054  0.0518 -0.2205  0.5659
  180SLPC   H4X20548   2.762   0.417   4.035 -0.7221 -0.3648  2.7701
  180SLPC   H4Y20549   2.938   0.383   4.033 -0.5717 -0.1229 -2.5975
  180SLPC   C3520550   2.814   0.298   4.195 -0.0038  0.2778  0.1396
  180SLPC   H5X20551   2.880   0.353   4.266  1.7989 -1.0516 -0.4050
  180SLPC   H5Y20552   2.843   0.192   4.216  2.5432  0.1646 -3.1100
  180SLPC   C3620553   2.674   0.306   4.254  0.1327 -0.0159 -0.7984
  180SLPC   H6X20554   2.603   0.252   4.187  1.0636 -2.2193 -0.0582
  180SLPC   H6Y20555   2.653   0.416   4.253  0.6061  0.0859 -0.1880
  180SLPC   C3720556   2.661   0.253   4.398  0.2997 -0.1979  0.8012
  180SLPC   H7X20557   2.739   0.310   4.453  1.4382 -0.7468 -0.1910
  180SLPC   H7Y20558   2.693   0.146   4.400  0.4144 -0.1720  0.3065
  180SLPC   C3820559   2.528   0.282   4.458 -0.1906  0.0249  0.1990
  180SLPC   H8X20560   2.463   0.236   4.379  2.0311  1.2155 -2.5058
  180SLPC   H8Y20561   2.510   0.391   4.468  0.2108  0.2238 -1.0247
  180SLPC   C3920562   2.507   0.224   4.596 -0.5186 -0.1694 -0.0864
  180SLPC   H9X20563   2.559   0.282   4.675  0.3225  1.8801 -2.0515
  180SLPC   H9Y20564   2.529   0.116   4.603 -0.3671 -0.2563 -1.5885
  180SLPC  C31020565   2.362   0.243   4.633  0.2495  0.2323 -0.0625
  180SLPC  H10X20566   2.294   0.184   4.567  0.7123  0.8514 -1.1200
  180SLPC  H10Y20567   2.334   0.350   4.639  0.2167  0.1598  1.2500
  180SLPC  C31120568   2.337   0.203   4.776  0.0866 -1.1234 -0.4920
  180SLPC  H11X20569   2.425   0.228   4.839 -0.1212  1.6281 -1.1642
  180SLPC  H11Y20570   2.315   0.094   4.787 -0.9990 -0.7821  1.1243
  180SLPC  C31220571   2.208   0.278   4.833  0.3417  0.8122  0.0589
  180SLPC  H12X20572   2.131   0.240   4.763  0.6364  3.1294 -1.6578
  180SLPC  H12Y20573   2.220   0.388   4.820  1.3878  0.6735 -0.3326
  180SLPC  C31320574   2.174   0.237   4.964 -0.3917 -0.7327 -0.2180
  180SLPC  H13X20575   2.257   0.261   5.033 -0.2759  0.9096 -0.8882
  180SLPC  H13Y20576   2.152   0.128   4.963 -1.8877 -0.4478 -1.0132
  180SLPC  C31420577   2.056   0.310   5.015 -0.4070  0.3606  0.1050
  180SLPC  H14X20578   1.969   0.284   4.949  0.0226  0.1908 -0.4018
  180SLPC  H14Y20579   2.085   0.417   5.004  0.6535  0.2091  1.2218
  180SLPC  C31520580   2.028   0.273   5.167 -0.1218 -0.3117 -0.5971
  180SLPC  H15X20581   2.112   0.319   5.224 -0.1964  0.8269 -1.3589
  180SLPC  H15Y20582   2.025   0.166   5.193 -0.4218  0.6100  3.9485
  180SLPC  C31620583   1.887   0.334   5.208 -0.0018  0.3656  0.8234
  180SLPC  H16X20584   1.805   0.271   5.166  0.6954  0.4016 -0.6678
  180SLPC  H16Y20585   1.876   0.435   5.164  0.4862  0.1877  0.2841
  180SLPC  C31720586   1.879   0.364   5.354  0.5723 -0.3861 -0.1044
  180SLPC  H17X20587   1.887   0.265   5.403 -0.3113 -0.2291  0.3773
  180SLPC  H17Y20588   1.776   0.402   5.372 -0.5849 -2.4795 -1.7871
  180SLPC  C31820589   1.978   0.465   5.413 -0.4154 -0.3160  0.2582
  180SLPC  H18X20590   2.082   0.440   5.382 -1.1334 -0.8324 -1.9817
  180SLPC  H18Y20591   1.977   0.473   5.523  1.3769  0.7269  0.2365
  180SLPC  H18Z20592   1.967   0.557   5.351  0.8772 -1.2780 -1.5004
  181SLPC     N20593   1.023   0.185   2.285 -0.1950  0.8268 -0.1964
  181SLPC   C1320594   1.120   0.265   2.347  0.0376 -0.2771 -0.0837
  181SLPC  H13A20595   1.174   0.324   2.275  1.6102 -1.3383  0.1627
  181SLPC  H13B20596   1.068   0.333   2.413 -0.1472 -1.0318  0.5618
  181SLPC  H13C20597   1.191   0.214   2.411  0.4808  3.1832  2.5221
  181SLPC   C1420598   1.091   0.104   2.180  0.0405  0.4000  0.5759
  181SLPC  H14A20599   1.138   0.160   2.101 -0.3768 -2.7178 -2.1258
  181SLPC  H14B20600   1.171   0.039   2.213 -0.5877 -0.7034 -0.0064
  181SLPC  H14C20601   1.023   0.038   2.127 -0.7713  1.0138  0.8425
  181SLPC   C1520602   0.924   0.264   2.215 -0.8823 -0.1440  0.1843
  181SLPC  H15A20603   0.878   0.330   2.286 -2.1142  1.4956 -1.9915
  181SLPC  H15B20604   0.956   0.331   2.136 -1.2385 -0.8238 -0.5600
  181SLPC  H15C20605   0.841   0.217   2.165  0.7276 -1.8249 -1.0366
  181SLPC   C1220606   0.953   0.109   2.392 -0.2672  0.4427  0.0159
  181SLPC  H12A20607   0.884   0.041   2.346  1.2506 -0.1287 -1.5171
  181SLPC  H12B20608   0.902   0.176   2.460  1.2089  2.1431 -0.4677
  181SLPC   C1120609   1.037   0.030   2.500 -0.0087  0.9814 -0.5679
  181SLPC  H11A20610   0.968  -0.030   2.563  0.5046 -1.2236 -1.9935
  181SLPC  H11B20611   1.081   0.103   2.571 -0.6208  0.1470  0.7096
  181SLPC     P20612   1.282  -0.066   2.499 -0.0431  0.3043  0.5557
  181SLPC   O1320613   1.325  -0.203   2.478 -0.2793  0.2950  0.1434
  181SLPC   O1420614   1.360   0.041   2.426 -0.2135  0.4501  0.3456
  181SLPC   O1220615   1.132  -0.057   2.445  0.4945  0.4596  0.1578
  181SLPC   O1120616   1.277  -0.038   2.653 -0.2186  0.0029  0.1814
  181SLPC    C120617   1.189  -0.101   2.747  0.2545 -0.6503  0.1761
  181SLPC    HA20618   1.107  -0.032   2.773 -0.5195 -1.0189 -1.1932
  181SLPC    HB20619   1.128  -0.185   2.707 -0.7461  0.0487  0.2056
  181SLPC    C220620   1.278  -0.139   2.872  0.1247  0.8534 -0.1318
  181SLPC    HS20621   1.216  -0.206   2.936 -0.6886  1.2840 -0.4489
  181SLPC   O2120622   1.330  -0.018   2.936  0.6455 -0.2786  0.2780
  181SLPC   C2120623   1.339  -0.032   3.067  0.0772 -0.1967 -0.5096
  181SLPC   O2220624   1.315  -0.124   3.138  0.8796 -0.3116 -0.0528
  181SLPC   C2220625   1.395   0.104   3.116  0.6284 -0.0055  0.4092
  181SLPC   H2R20626   1.488   0.123   3.057  1.7036  0.7679  2.2380
  181SLPC   H2S20627   1.333   0.189   3.081  0.0955 -0.1221  1.0489
  181SLPC    C320628   1.395  -0.228   2.829  0.2014 -0.2538 -0.7674
  181SLPC    HX20629   1.448  -0.171   2.750 -0.9666 -0.5135 -1.7564
  181SLPC    HY20630   1.349  -0.313   2.774 -2.7690  0.6389  0.2054
  181SLPC   O3120631   1.481  -0.268   2.936 -0.1502 -0.7234 -0.3560
  181SLPC   C3120632   1.448  -0.363   3.010  0.3416 -0.6745 -0.3784
  181SLPC   O3220633   1.354  -0.443   2.982  0.3281 -0.3807 -0.2938
  181SLPC   C3220634   1.542  -0.377   3.125  0.2045  0.3475 -0.4242
  181SLPC   H2X20635   1.607  -0.288   3.142  0.2665  0.6996 -2.3199
  181SLPC   H2Y20636   1.608  -0.464   3.108  1.5552  0.8178  1.9601
  181SLPC   C2320637   1.416   0.114   3.271  0.4132 -0.1676  0.5626
  181SLPC   H3R20638   1.327   0.083   3.329  0.4517  0.1570  0.8000
  181SLPC   H3S20639   1.440   0.220   3.296 -2.3545  0.3752  1.2178
  181SLPC   C2420640   1.535   0.042   3.308 -0.4775  0.2195 -0.2882
  181SLPC   H4R20641   1.608   0.070   3.230  0.4435 -0.1984  0.3989
  181SLPC   H4S20642   1.525  -0.067   3.292 -1.1583  0.2350 -0.0151
  181SLPC   C2520643   1.575   0.070   3.453 -0.0956 -0.1635 -0.2485
  181SLPC   H5R20644   1.533   0.168   3.485  1.0860  0.3913 -0.3329
  181SLPC   H5S20645   1.685   0.072   3.468 -0.2520 -1.7230  1.3074
  181SLPC   C2620646   1.504  -0.039   3.529 -0.3925  0.3595 -0.9724
  181SLPC   H6R20647   1.553  -0.135   3.503 -0.7121  0.0376 -0.3935
  181SLPC   H6S20648   1.397  -0.054   3.505 -0.4975 -0.4205 -0.0702
  181SLPC   C2720649   1.505  -0.030   3.685 -0.3145 -0.0396  0.3634
  181SLPC   H7R20650   1.414   0.022   3.720 -0.6393 -1.7773  2.3092
  181SLPC   H7S20651   1.592   0.025   3.727 -0.7098  0.9511 -0.1075
  181SLPC   C2820652   1.505  -0.174   3.755 -0.6200 -0.4682 -0.0317
  181SLPC   H8R20653   1.598  -0.224   3.720 -0.7740 -1.5547  1.0615
  181SLPC   H8S20654   1.430  -0.239   3.705  1.7041 -2.2056 -1.4783
  181SLPC   C2920655   1.486  -0.171   3.906  0.8866 -0.0802  0.2521
  181SLPC   H9R20656   1.400  -0.116   3.949  1.5453 -1.5991  3.9449
  181SLPC  C21020657   1.553  -0.244   3.995  0.3693 -0.2769  0.0988
  181SLPC  H10R20658   1.522  -0.216   4.096 -1.3429  0.7519 -0.6687
  181SLPC  C21120659   1.672  -0.333   3.980  0.6675  0.6886 -0.0361
  181SLPC  H11R20660   1.701  -0.331   3.873  0.3335 -0.2308 -0.1510
  181SLPC  H11S20661   1.648  -0.438   4.007  1.2227  0.2080 -1.3724
  181SLPC  C21220662   1.781  -0.288   4.071 -0.1207  0.6327 -0.1881
  181SLPC  H12R20663   1.846  -0.217   4.018  0.4283  0.1670 -0.1402
  181SLPC  C21320664   1.825  -0.333   4.186 -0.1593 -0.0421  0.5884
  181SLPC  H13R20665   1.918  -0.297   4.231  0.6539 -0.5846 -0.6062
  181SLPC  C21420666   1.761  -0.439   4.273 -0.1668  0.2230  0.0081
  181SLPC  H14R20667   1.830  -0.521   4.303  1.1744  0.6461 -1.7577
  181SLPC  H14S20668   1.671  -0.487   4.228  1.2713 -3.0704  0.3017
  181SLPC  C21520669   1.707  -0.367   4.403 -0.4552  0.1140  0.1072
  181SLPC  H15R20670   1.671  -0.264   4.378 -2.0411  0.8606  4.5174
  181SLPC  H15S20671   1.802  -0.364   4.461  0.2524 -2.0515 -0.8343
  181SLPC  C21620672   1.596  -0.442   4.475 -0.2712 -0.2725  0.3961
  181SLPC  H16R20673   1.506  -0.461   4.413 -0.3407 -1.8168  0.9200
  181SLPC  H16S20674   1.563  -0.390   4.567  0.6946 -0.0356  0.6147
  181SLPC  C21720675   1.633  -0.586   4.517 -0.3318 -0.2702  0.3831
  181SLPC  H17R20676   1.717  -0.591   4.589 -0.2481 -0.1020  0.2975
  181SLPC  H17S20677   1.673  -0.635   4.426  1.3870  1.0649  0.3647
  181SLPC  C21820678   1.515  -0.671   4.553 -0.3360 -0.3945  0.0713
  181SLPC  H18R20679   1.538  -0.778   4.567  0.7498 -0.2177 -0.2580
  181SLPC  H18S20680   1.434  -0.671   4.478  0.7955  0.5260 -1.2165
  181SLPC  H18T20681   1.470  -0.643   4.651  1.5315  2.0055  0.3670
  181SLPC   C3320682   1.475  -0.403   3.263  0.0797 -0.0485  0.4438
  181SLPC   H3X20683   1.422  -0.501   3.261 -1.1092  0.4797  2.6878
  181SLPC   H3Y20684   1.404  -0.322   3.291 -0.3657 -0.1749 -0.2858
  181SLPC   C3420685   1.582  -0.420   3.374 -0.5100  0.0035  0.5583
  181SLPC   H4X20686   1.649  -0.335   3.398 -2.0160  1.1569  0.7820
  181SLPC   H4Y20687   1.651  -0.504   3.349 -1.2297 -0.1332 -1.1725
  181SLPC   C3520688   1.520  -0.473   3.506 -0.0261 -0.1247  1.3647
  181SLPC   H5X20689   1.435  -0.540   3.485 -1.1349  1.4071  0.8043
  181SLPC   H5Y20690   1.478  -0.384   3.558  0.0827  1.6659 -1.3946
  181SLPC   C3620691   1.624  -0.537   3.601  0.1395 -0.3120 -0.2377
  181SLPC   H6X20692   1.694  -0.458   3.636  1.0707 -1.3671  0.3427
  181SLPC   H6Y20693   1.693  -0.609   3.552  1.7959  1.6796 -0.9922
  181SLPC   C3720694   1.576  -0.591   3.733 -0.3052  0.0473 -0.0247
  181SLPC   H7X20695   1.503  -0.520   3.779  0.9633  0.3372  1.6481
  181SLPC   H7Y20696   1.668  -0.616   3.790  1.7723  0.7896 -2.8400
  181SLPC   C3820697   1.503  -0.730   3.722 -0.3699  0.0061 -0.2975
  181SLPC   H8X20698   1.562  -0.786   3.646  0.3056  0.5658 -0.2029
  181SLPC   H8Y20699   1.402  -0.704   3.685 -0.7852 -0.2518  0.6398
  181SLPC   C3920700   1.493  -0.800   3.855  0.0719 -0.4285  0.1437
  181SLPC   H9X20701   1.594  -0.807   3.902  0.8271 -0.2435 -1.3614
  181SLPC   H9Y20702   1.451  -0.900   3.834  0.4812 -1.0849  2.2698
  181SLPC  C31020703   1.408  -0.722   3.958 -0.2910 -0.1307  0.4259
  181SLPC  H10X20704   1.303  -0.712   3.924  0.1437  0.0988 -0.9212
  181SLPC  H10Y20705   1.453  -0.620   3.967  0.0036 -0.4587  3.8726
  181SLPC  C31120706   1.410  -0.790   4.096 -1.1669 -0.8048  0.0238
  181SLPC  H11X20707   1.423  -0.710   4.172 -1.4910 -1.2379  0.5400
  181SLPC  H11Y20708   1.503  -0.851   4.100 -0.1365  0.3855 -3.0443
  181SLPC  C31220709   1.291  -0.879   4.123 -0.0780  0.0793 -0.6359
  181SLPC  H12X20710   1.315  -0.958   4.198  0.5259 -0.0759 -0.9864
  181SLPC  H12Y20711   1.264  -0.929   4.027 -1.6534  1.3130 -0.8871
  181SLPC  C31320712   1.156  -0.811   4.170  0.0546  0.0999 -0.2191
  181SLPC  H13X20713   1.083  -0.889   4.202 -1.2041  0.9856 -0.8726
  181SLPC  H13Y20714   1.116  -0.727   4.110  0.6918  1.7861  1.5844
  181SLPC  C31420715   1.184  -0.728   4.302 -0.0655  0.4271  0.2830
  181SLPC  H14X20716   1.249  -0.640   4.282 -0.1657  0.9742  2.1892
  181SLPC  H14Y20717   1.240  -0.795   4.370  0.9290 -1.5506 -2.2969
  181SLPC  C31520718   1.064  -0.666   4.375  0.2323 -0.0698 -0.1319
  181SLPC  H15X20719   0.993  -0.745   4.409 -0.3864 -0.4400 -2.1720
  181SLPC  H15Y20720   1.015  -0.595   4.306  2.7251  0.4325 -1.4991
  181SLPC  C31620721   1.109  -0.573   4.490  0.1686 -0.2541  0.1231
  181SLPC  H16X20722   1.200  -0.516   4.461 -0.4406  0.3091 -0.6959
  181SLPC  H16Y20723   1.135  -0.625   4.585  0.7534 -0.2858 -0.0536
  181SLPC  C31720724   0.998  -0.484   4.543 -0.0269 -0.2457 -0.6534
  181SLPC  H17X20725   0.976  -0.403   4.470 -0.4208 -0.0896 -0.3678
  181SLPC  H17Y20726   1.032  -0.446   4.642  0.5482  0.4459 -1.1040
  181SLPC  C31820727   0.869  -0.570   4.568 -0.1314 -0.4958 -0.0911
  181SLPC  H18X20728   0.887  -0.640   4.652 -2.9694  0.3215  1.3140
  181SLPC  H18Y20729   0.825  -0.624   4.481 -3.1462 -1.5058  1.8960
  181SLPC  H18Z20730   0.791  -0.497   4.598  0.0897 -0.6892  0.9849
  182SLPC     N20731   5.812   5.222   2.250  0.5745 -0.2037  0.7660
  182SLPC   C1320732   5.711   5.268   2.140  0.0573  0.1977  0.7087
  182SLPC  H13A20733   5.670   5.363   2.172  1.0155  0.5829  0.8162
  182SLPC  H13B20734   5.751   5.274   2.040 -0.2200  1.7797  0.6666
  182SLPC  H13C20735   5.629   5.198   2.143 -0.1133  0.4191  1.5668
  182SLPC   C1420736   5.931   5.309   2.237  0.4010 -0.3346 -0.3365
  182SLPC  H14A20737   6.017   5.282   2.297  1.6391  1.9830 -0.9376
  182SLPC  H14B20738   5.955   5.321   2.132 -2.1502  2.1473 -0.7658
  182SLPC  H14C20739   5.894   5.409   2.254 -3.9489 -2.0412  1.5776
  182SLPC   C1520740   5.856   5.084   2.219 -1.0363 -0.1703  0.3192
  182SLPC  H15A20741   5.935   5.057   2.288  1.1526 -0.3356 -2.1067
  182SLPC  H15B20742   5.778   5.010   2.215 -1.2439  0.0367  0.4651
  182SLPC  H15C20743   5.908   5.088   2.125  0.8039 -0.5080  1.2789
  182SLPC   C1220744   5.754   5.230   2.387 -0.4678  0.3563  0.0455
  182SLPC  H12A20745   5.821   5.189   2.461 -2.2143 -1.1352  0.8897
  182SLPC  H12B20746   5.677   5.154   2.397  1.0394 -1.3653 -0.7509
  182SLPC   C1120747   5.702   5.366   2.427  0.8004  0.9257  0.3187
  182SLPC  H11A20748   5.641   5.355   2.518 -0.9816 -0.4114 -0.9675
  182SLPC  H11B20749   5.631   5.401   2.349  0.9225 -1.2842 -0.8651
  182SLPC     P20750   5.861   5.498   2.587 -0.4365 -0.1326  0.1416
  182SLPC   O1320751   6.006   5.532   2.591 -0.6964  0.6262  0.5213
  182SLPC   O1420752   5.775   5.607   2.641 -0.4103 -0.4066 -0.3404
  182SLPC   O1220753   5.813   5.453   2.440  0.2859  0.2970 -0.0048
  182SLPC   O1120754   5.824   5.385   2.687 -0.2752  0.4366  0.2587
  182SLPC    C120755   5.908   5.269   2.712  0.8039  0.4074  0.7876
  182SLPC    HA20756   5.866   5.185   2.652 -1.7744  2.1697 -0.0569
  182SLPC    HB20757   6.014   5.279   2.680  0.1534  1.8942 -1.0940
  182SLPC    C220758   5.899   5.232   2.863 -0.2072 -0.1326  0.0795
  182SLPC    HS20759   5.800   5.264   2.902  1.3921  4.5528  1.0852
  182SLPC   O2120760   6.003   5.299   2.941 -0.0521 -0.1035 -0.4296
  182SLPC   C2120761   5.980   5.426   2.968 -0.0959 -0.1263  0.2658
  182SLPC   O2220762   5.873   5.479   2.961  0.5622 -0.6719 -0.1413
  182SLPC   C2220763   6.114   5.502   2.994 -0.3153 -0.0927 -0.0308
  182SLPC   H2R20764   6.185   5.428   3.037 -0.2912  0.0598  0.1918
  182SLPC   H2S20765   6.159   5.531   2.897 -0.3210  3.0518  0.8033
  182SLPC    C320766   5.915   5.083   2.873 -0.2893 -0.5870  0.4108
  182SLPC    HX20767   6.015   5.053   2.836 -0.4053 -0.7753  0.2428
  182SLPC    HY20768   5.850   5.025   2.804  0.7016 -1.1233 -0.0853
  182SLPC   O3120769   5.872   5.038   3.002  0.2080  0.4629  0.4422
  182SLPC   C3120770   5.960   4.978   3.077  0.6951  0.6382 -0.6611
  182SLPC   O3220771   6.076   4.947   3.049 -0.6874  1.0393 -0.2340
  182SLPC   C3220772   5.897   4.940   3.218  1.2982 -0.2169  0.0048
  182SLPC   H2X20773   5.878   4.830   3.218 -1.9061  0.2436 -0.7613
  182SLPC   H2Y20774   5.805   5.002   3.230  0.1649 -1.8368  0.0397
  182SLPC   C2320775   6.110   5.637   3.079 -0.4192  0.1719 -0.0859
  182SLPC   H3R20776   6.065   5.707   3.005 -1.0594 -0.1025  0.0377
  182SLPC   H3S20777   6.214   5.668   3.104 -1.0969  3.6982 -1.0987
  182SLPC   C2420778   6.030   5.625   3.212 -0.7167  0.0831  0.6045
  182SLPC   H4R20779   6.073   5.543   3.274  3.4889  0.9300 -0.9104
  182SLPC   H4S20780   5.929   5.587   3.185 -0.3318 -0.4670 -0.0830
  182SLPC   C2520781   6.022   5.755   3.284 -0.1900  0.0259  0.2126
  182SLPC   H5R20782   5.958   5.835   3.240  0.8143  2.9374  3.5442
  182SLPC   H5S20783   6.126   5.795   3.282  0.3739 -1.1111  2.8745
  182SLPC   C2620784   5.991   5.738   3.431  0.6235 -0.6938 -0.3352
  182SLPC   H6R20785   6.075   5.697   3.492  1.1234  0.7635 -0.0153
  182SLPC   H6S20786   5.904   5.669   3.427 -0.7500  0.9909 -4.2424
  182SLPC   C2720787   5.936   5.864   3.491  0.5547  0.3742  0.0480
  182SLPC   H7R20788   5.866   5.911   3.418  0.9114 -1.3514 -1.4875
  182SLPC   H7S20789   6.021   5.934   3.504  0.8198  0.7269 -2.9676
  182SLPC   C2820790   5.854   5.829   3.619  0.3134 -0.4616  0.5129
  182SLPC   H8R20791   5.773   5.757   3.595  2.2656 -2.5063 -0.2854
  182SLPC   H8S20792   5.798   5.918   3.654  0.4749 -0.0274 -0.3020
  182SLPC   C2920793   5.938   5.768   3.723  0.3583  0.3415 -0.4006
  182SLPC   H9R20794   6.037   5.729   3.697  0.6707 -1.7056  3.2258
  182SLPC  C21020795   5.908   5.743   3.852 -0.1476  0.0688  0.1798
  182SLPC  H10R20796   5.980   5.689   3.916  0.9908  0.3472 -0.8198
  182SLPC  C21120797   5.782   5.773   3.922  0.3855  0.1061 -0.4341
  182SLPC  H11R20798   5.707   5.693   3.908 -1.6616  1.1399  3.2559
  182SLPC  H11S20799   5.738   5.856   3.864  1.7532  0.7687 -0.5759
  182SLPC  C21220800   5.782   5.801   4.072 -0.1716  0.5622 -0.3706
  182SLPC  H12R20801   5.797   5.906   4.097  0.9616  0.0212  1.3854
  182SLPC  C21320802   5.776   5.702   4.166 -0.1407  0.4950 -0.8840
  182SLPC  H13R20803   5.775   5.726   4.273 -2.6076  0.9096 -0.9447
  182SLPC  C21420804   5.756   5.551   4.138 -1.3522  0.2565  0.5993
  182SLPC  H14R20805   5.849   5.509   4.095 -1.1525  2.0390 -0.8282
  182SLPC  H14S20806   5.680   5.543   4.057  0.1892  0.9101 -0.9634
  182SLPC  C21520807   5.716   5.472   4.260 -0.4383 -0.3164 -0.3366
  182SLPC  H15R20808   5.676   5.376   4.222 -0.3492  0.0502 -1.3880
  182SLPC  H15S20809   5.643   5.520   4.329 -0.2632 -0.1176 -0.2887
  182SLPC  C21620810   5.844   5.439   4.341  0.7060 -0.3822  0.0197
  182SLPC  H16R20811   5.876   5.529   4.398 -1.7404  0.8561 -0.4188
  182SLPC  H16S20812   5.934   5.402   4.286  0.2010 -0.4401 -0.7818
  182SLPC  C21720813   5.826   5.320   4.437  0.8751 -0.6266  0.0393
  182SLPC  H17R20814   5.735   5.341   4.498  1.8946 -0.6059  1.5889
  182SLPC  H17S20815   5.914   5.310   4.503  0.5651 -0.9654  0.4083
  182SLPC  C21820816   5.807   5.185   4.363 -0.2992 -0.4766  0.1240
  182SLPC  H18R20817   5.801   5.105   4.439  1.5887 -0.7683  0.0100
  182SLPC  H18S20818   5.900   5.166   4.305 -1.5426  1.0361 -2.5481
  182SLPC  H18T20819   5.721   5.199   4.294 -0.1801  1.0438  0.2349
  182SLPC   C3320820   5.988   4.961   3.338  0.0124 -0.3572  0.2977
  182SLPC   H3X20821   5.925   4.950   3.429 -0.3898  2.3703  0.4530
  182SLPC   H3Y20822   6.021   5.066   3.355 -0.0050 -0.4336  0.8322
  182SLPC   C3420823   6.108   4.854   3.350  0.0875 -0.7671  0.1043
  182SLPC   H4X20824   6.174   4.850   3.261 -0.9608 -2.6755 -0.6536
  182SLPC   H4Y20825   6.072   4.752   3.377  1.7768 -1.2145  0.7864
  182SLPC   C3520826   6.191   4.887   3.472  0.5479  0.0781 -0.4672
  182SLPC   H5X20827   6.250   4.979   3.453  1.5976 -0.1442  1.4396
  182SLPC   H5Y20828   6.275   4.814   3.479  0.7799  0.2647 -1.2138
  182SLPC   C3620829   6.120   4.900   3.604 -0.3326 -0.1250 -0.1547
  182SLPC   H6X20830   6.048   4.818   3.626 -1.9002  1.6884  1.9217
  182SLPC   H6Y20831   6.053   4.989   3.602 -0.3484 -0.1507 -1.3068
  182SLPC   C3720832   6.217   4.926   3.721  1.1452 -0.0801 -0.1668
  182SLPC   H7X20833   6.290   5.004   3.692  0.3028  1.1402  0.8775
  182SLPC   H7Y20834   6.276   4.834   3.743  1.1238 -0.0076  0.2065
  182SLPC   C3820835   6.154   4.969   3.851 -0.2084 -0.3743 -0.0652
  182SLPC   H8X20836   6.087   4.891   3.894 -0.9333  0.0707 -0.3561
  182SLPC   H8Y20837   6.089   5.059   3.840 -2.5682 -1.9515  0.1172
  182SLPC   C3920838   6.259   4.992   3.953  0.7027 -0.2113  0.2673
  182SLPC   H9X20839   6.319   5.082   3.925  0.1093  0.4155  0.9399
  182SLPC   H9Y20840   6.322   4.902   3.938 -2.0282 -1.9216 -1.9417
  182SLPC  C31020841   6.212   4.989   4.096  0.6931 -0.0902  0.6664
  182SLPC  H10X20842   6.130   4.914   4.100 -0.6264  1.2509 -0.3904
  182SLPC  H10Y20843   6.165   5.086   4.122  0.2192 -0.3316  0.7166
  182SLPC  C31120844   6.324   4.963   4.194 -0.0478  0.6623 -0.1167
  182SLPC  H11X20845   6.418   5.023   4.193  2.1718 -2.4990  1.2071
  182SLPC  H11Y20846   6.353   4.859   4.167  2.1526  1.1362  0.2523
  182SLPC  C31220847   6.270   4.955   4.342  0.8747 -0.2587 -0.7210
  182SLPC  H12X20848   6.181   4.890   4.337  0.0444  0.7934  0.0361
  182SLPC  H12Y20849   6.250   5.061   4.370  1.1724 -0.4863  0.3863
  182SLPC  C31320850   6.383   4.892   4.422  0.4377 -0.2059 -1.1623
  182SLPC  H13X20851   6.473   4.958   4.427 -1.3604  2.5451 -2.5226
  182SLPC  H13Y20852   6.412   4.801   4.366  0.3590  0.8174 -2.9398
  182SLPC  C31420853   6.334   4.846   4.562 -0.7743 -0.5274  1.2527
  182SLPC  H14X20854   6.392   4.760   4.603  0.9885  0.7347  1.5296
  182SLPC  H14Y20855   6.230   4.810   4.546 -0.7591  0.3690 -1.1191
  182SLPC  C31520856   6.338   4.960   4.663 -0.2029  0.1286 -0.2865
  182SLPC  H15X20857   6.278   5.048   4.634 -1.2524 -0.4364  0.1069
  182SLPC  H15Y20858   6.441   5.000   4.671 -0.1740  0.2452 -1.1920
  182SLPC  C31620859   6.296   4.904   4.796 -0.0466 -0.0497 -0.0534
  182SLPC  H16X20860   6.323   4.797   4.807 -0.4800 -0.0049  1.8380
  182SLPC  H16Y20861   6.186   4.913   4.802 -0.1165 -1.1925  0.5445
  182SLPC  C31720862   6.359   4.970   4.921 -0.1649  0.0269 -0.7803
  182SLPC  H17X20863   6.465   4.938   4.923 -0.4372 -0.8757 -0.2457
  182SLPC  H17Y20864   6.303   4.929   5.007 -0.0714  2.2122  0.4061
  182SLPC  C31820865   6.342   5.124   4.925 -0.0020 -0.5181 -0.1249
  182SLPC  H18X20866   6.348   5.173   5.024 -0.1691 -1.4573  0.3601
  182SLPC  H18Y20867   6.240   5.144   4.885 -0.8953 -2.0321  1.2732
  182SLPC  H18Z20868   6.407   5.176   4.852 -1.7660  0.7424 -0.8801
  183SLPC     N20869   1.154   1.846   2.464  0.2734 -0.3070 -0.7592
  183SLPC   C1320870   1.179   1.760   2.349  0.4135  0.5994  0.9075
  183SLPC  H13A20871   1.190   1.656   2.373 -2.3763  0.2286  0.7953
  183SLPC  H13B20872   1.100   1.757   2.275  2.1923 -1.2443 -1.0733
  183SLPC  H13C20873   1.271   1.799   2.306  0.1720  1.2916  1.0120
  183SLPC   C1420874   1.103   1.980   2.423 -0.8896 -0.6766  0.2280
  183SLPC  H14A20875   1.017   1.973   2.358 -0.5567  0.1594 -0.3179
  183SLPC  H14B20876   1.065   2.038   2.506 -0.3865 -1.2973  0.9093
  183SLPC  H14C20877   1.186   2.022   2.368 -0.1245 -1.5738  0.6610
  183SLPC   C1520878   1.280   1.855   2.546  0.2813 -0.0510 -0.3798
  183SLPC  H15A20879   1.362   1.907   2.499  1.2891 -0.0607  1.2886
  183SLPC  H15B20880   1.258   1.905   2.639  1.2010 -0.2522 -0.0466
  183SLPC  H15C20881   1.310   1.760   2.586 -3.6143 -0.2948  2.6011
  183SLPC   C1220882   1.049   1.781   2.554 -0.7431 -0.0554 -0.4757
  183SLPC  H12A20883   1.085   1.681   2.574  2.0357  0.3996 -2.5837
  183SLPC  H12B20884   0.957   1.779   2.498 -1.3205 -1.9432  0.4542
  183SLPC   C1120885   1.017   1.841   2.691  0.6047 -0.0951  0.5161
  183SLPC  H11A20886   0.970   1.941   2.684 -0.3556 -0.4346  1.7220
  183SLPC  H11B20887   1.116   1.858   2.740  2.6012  0.8384 -3.4607
  183SLPC     P20888   0.891   1.790   2.899  0.2756  0.1564 -0.2082
  183SLPC   O1320889   0.987   1.880   2.967 -0.1105  0.6345  0.4835
  183SLPC   O1420890   0.756   1.841   2.897  0.3330 -0.5180  0.2669
  183SLPC   O1220891   0.933   1.749   2.754 -0.0319  0.0326  0.4491
  183SLPC   O1120892   0.893   1.649   2.966 -0.0774  0.1593  0.3375
  183SLPC    C120893   1.018   1.580   2.973 -0.3539 -0.5031 -0.2010
  183SLPC    HA20894   1.016   1.498   2.898  0.2310 -0.0826 -0.6876
  183SLPC    HB20895   1.106   1.643   2.947 -2.1197  1.7749 -0.9698
  183SLPC    C220896   1.052   1.514   3.116 -0.3065  0.5988 -0.5822
  183SLPC    HS20897   1.150   1.462   3.103 -0.6251 -0.0423 -0.4394
  183SLPC   O2120898   0.947   1.429   3.147 -0.8828 -0.0683  0.0817
  183SLPC   C2120899   0.955   1.296   3.122  0.3684  0.4294  0.1886
  183SLPC   O2220900   1.052   1.232   3.089 -0.4321  0.1358  0.0934
  183SLPC   C2220901   0.822   1.230   3.152  0.2058 -0.2012 -0.1191
  183SLPC   H2R20902   0.768   1.226   3.055 -0.3205 -0.5666  0.1856
  183SLPC   H2S20903   0.850   1.124   3.171  0.3598 -0.5356 -2.0445
  183SLPC    C320904   1.079   1.613   3.229 -0.0858 -0.1270  0.1979
  183SLPC    HX20905   0.978   1.649   3.258 -0.8607 -1.9492 -0.0795
  183SLPC    HY20906   1.130   1.705   3.193 -1.1207  1.6151  2.8798
  183SLPC   O3120907   1.154   1.552   3.340  0.3386 -0.0958 -0.3499
  183SLPC   C3120908   1.177   1.638   3.433  0.1758 -0.1423  0.2358
  183SLPC   O3220909   1.159   1.760   3.422  0.5327  0.4103 -0.3322
  183SLPC   C3220910   1.216   1.580   3.568  0.0289 -0.0424  0.9583
  183SLPC   H2X20911   1.320   1.540   3.562  0.0068  0.0431 -0.2810
  183SLPC   H2Y20912   1.162   1.483   3.564  0.9228 -0.5226  0.0975
  183SLPC   C2320913   0.749   1.275   3.276 -0.0150  0.3284  0.2913
  183SLPC   H3R20914   0.655   1.219   3.293  0.9535 -1.1668  0.9409
  183SLPC   H3S20915   0.721   1.382   3.265  0.4580  0.7163  2.4021
  183SLPC   C2420916   0.837   1.280   3.401  0.2331 -0.2568  0.2612
  183SLPC   H4R20917   0.920   1.350   3.379 -0.2002 -0.0442 -0.7792
  183SLPC   H4S20918   0.866   1.174   3.418  0.7570 -0.1473  0.0646
  183SLPC   C2520919   0.748   1.324   3.519  0.1296 -0.7172  0.1245
  183SLPC   H5R20920   0.669   1.246   3.521  0.9247 -1.5306  0.9515
  183SLPC   H5S20921   0.707   1.426   3.523 -0.3258 -0.9250  0.9972
  183SLPC   C2620922   0.828   1.317   3.646 -0.0978  0.3541  0.5048
  183SLPC   H6R20923   0.908   1.394   3.638  0.5436 -0.5136 -4.0005
  183SLPC   H6S20924   0.864   1.212   3.657 -0.8300 -0.2404 -2.1577
  183SLPC   C2720925   0.738   1.342   3.765 -0.1541  0.0439  0.7668
  183SLPC   H7R20926   0.664   1.264   3.793 -1.9879  1.3978 -0.1458
  183SLPC   H7S20927   0.675   1.433   3.753  1.4640  1.1152  0.0431
  183SLPC   C2820928   0.815   1.371   3.898 -0.7869  0.8137 -0.0467
  183SLPC   H8R20929   0.882   1.456   3.873 -1.3735  0.9116 -1.3781
  183SLPC   H8S20930   0.884   1.287   3.922 -1.6762 -0.3345 -1.3527
  183SLPC   C2920931   0.746   1.414   4.025 -0.2974  0.3638  0.7354
  183SLPC   H9R20932   0.677   1.499   4.016  0.3255  0.7977 -0.0771
  183SLPC  C21020933   0.747   1.345   4.139 -0.0551 -0.7817 -0.3082
  183SLPC  H10R20934   0.687   1.390   4.219 -0.1700  1.6323 -1.6634
  183SLPC  C21120935   0.831   1.229   4.185  0.0851 -0.0116  0.2125
  183SLPC  H11R20936   0.861   1.251   4.290 -3.5609  3.1728  0.8266
  183SLPC  H11S20937   0.925   1.225   4.127  1.0012 -1.7554  1.7163
  183SLPC  C21220938   0.771   1.088   4.167  0.4120 -0.8632  0.4339
  183SLPC  H12R20939   0.714   1.072   4.074  0.8739  1.2284 -0.2715
  183SLPC  C21320940   0.783   0.987   4.257  0.6843 -0.4004 -0.4563
  183SLPC  H13R20941   0.752   0.886   4.227 -0.5127 -0.1282 -0.1845
  183SLPC  C21420942   0.844   0.988   4.393 -0.4891 -0.2300  0.5084
  183SLPC  H14R20943   0.920   1.069   4.400 -1.2697  0.8843 -2.2741
  183SLPC  H14S20944   0.904   0.895   4.403 -1.4618 -0.9196  0.0751
  183SLPC  C21520945   0.723   1.002   4.480  0.0385  0.2629 -0.4630
  183SLPC  H15R20946   0.649   0.920   4.462  1.6518 -1.1792 -0.8068
  183SLPC  H15S20947   0.676   1.102   4.472 -2.4329 -0.7182  0.6559
  183SLPC  C21620948   0.757   0.990   4.632 -0.3357  0.4695  0.2665
  183SLPC  H16R20949   0.681   1.038   4.697  0.0755  0.1587  0.9922
  183SLPC  H16S20950   0.852   1.046   4.639 -0.1598  0.2260 -0.1218
  183SLPC  C21720951   0.770   0.843   4.690 -0.0855  0.3585  0.4953
  183SLPC  H17R20952   0.803   0.849   4.796  0.4499 -2.6991  0.5880
  183SLPC  H17S20953   0.858   0.807   4.633  0.2008  0.0474  1.1164
  183SLPC  C21820954   0.635   0.761   4.680  0.1104  0.5965 -0.4447
  183SLPC  H18R20955   0.584   0.762   4.582 -0.4579 -1.2317 -0.1933
  183SLPC  H18S20956   0.562   0.788   4.759  0.5826  0.0689  0.1827
  183SLPC  H18T20957   0.670   0.658   4.701  0.9393  1.3862  2.4948
  183SLPC   C3320958   1.188   1.668   3.691 -0.6244 -0.4714  0.3207
  183SLPC   H3X20959   1.081   1.696   3.694 -0.3725  0.5927 -0.1782
  183SLPC   H3Y20960   1.242   1.764   3.698  0.3896 -1.1452  3.6530
  183SLPC   C3420961   1.239   1.596   3.822  0.9791  0.3627  0.1297
  183SLPC   H4X20962   1.350   1.597   3.821  0.9822  0.3608 -0.9356
  183SLPC   H4Y20963   1.217   1.487   3.817  1.6844  0.2126  0.2063
  183SLPC   C3520964   1.174   1.664   3.950  0.0174  0.8208  0.5627
  183SLPC   H5X20965   1.076   1.714   3.938 -0.6414  0.5917  4.0718
  183SLPC   H5Y20966   1.246   1.745   3.969  1.4153  0.5577 -2.8709
  183SLPC   C3620967   1.152   1.574   4.072 -0.8268  0.0340 -0.3106
  183SLPC   H6X20968   1.241   1.510   4.090 -0.5923  0.2074 -0.8376
  183SLPC   H6Y20969   1.069   1.504   4.046 -0.2329 -0.8054  0.0128
  183SLPC   C3720970   1.125   1.652   4.205  0.2783  0.6346 -0.8115
  183SLPC   H7X20971   1.043   1.725   4.184 -0.2936  0.1831 -0.1593
  183SLPC   H7Y20972   1.211   1.712   4.242  1.0629 -0.6203 -0.5498
  183SLPC   C3820973   1.087   1.559   4.321 -0.0158 -0.0279 -0.3758
  183SLPC   H8X20974   1.175   1.496   4.347  0.4251  1.0408  0.8405
  183SLPC   H8Y20975   1.010   1.490   4.280 -0.0885 -0.0888 -0.1423
  183SLPC   C3920976   1.024   1.625   4.441  1.0784 -0.1452 -0.2080
  183SLPC   H9X20977   0.925   1.668   4.415  0.9836 -0.5856 -0.5786
  183SLPC   H9Y20978   1.080   1.714   4.479  0.0386  0.6841 -0.5687
  183SLPC  C31020979   1.012   1.529   4.556 -0.0354 -0.5932  0.0044
  183SLPC  H10X20980   1.119   1.512   4.582  0.9394  2.2015 -1.6523
  183SLPC  H10Y20981   0.956   1.441   4.517 -0.6519 -0.3943  0.4417
  183SLPC  C31120982   0.946   1.586   4.682  0.1774 -0.1232  0.5609
  183SLPC  H11X20983   0.836   1.596   4.672 -0.2698 -3.2341  1.5419
  183SLPC  H11Y20984   0.976   1.691   4.704  1.7422 -0.7442  1.6055
  183SLPC  C31220985   0.972   1.501   4.800 -0.2550  0.2098  0.2242
  183SLPC  H12X20986   0.951   1.564   4.889  1.0823  0.2775  0.5246
  183SLPC  H12Y20987   1.076   1.460   4.794 -0.2142 -0.4639  3.4691
  183SLPC  C31320988   0.869   1.386   4.818 -0.2295  0.0766 -0.1954
  183SLPC  H13X20989   0.929   1.298   4.786  1.6039  0.8222  0.9689
  183SLPC  H13Y20990   0.779   1.402   4.756 -0.5439  0.0342  0.2488
  183SLPC  C31420991   0.823   1.357   4.962  0.2718  0.7170 -0.5191
  183SLPC  H14X20992   0.752   1.272   4.958 -0.7877  1.5191  0.6009
  183SLPC  H14Y20993   0.761   1.445   4.991  0.8824  0.4456  1.7830
  183SLPC  C31520994   0.918   1.312   5.069 -0.6134  0.1870 -0.2968
  183SLPC  H15X20995   0.995   1.389   5.091 -1.1655  0.8043 -0.5146
  183SLPC  H15Y20996   0.986   1.234   5.027  0.4286  1.9633 -2.0822
  183SLPC  C31620997   0.848   1.259   5.195 -0.2255 -0.0865  0.0116
  183SLPC  H16X20998   0.807   1.157   5.179  1.3402 -0.8591  0.7398
  183SLPC  H16Y20999   0.765   1.330   5.215  1.0158  1.4693 -0.1978
  183SLPC  C31721000   0.932   1.242   5.318  0.6803  0.2716  0.0712
  183SLPC  H17X21001   0.957   1.348   5.340 -1.5128  1.6147 -3.1637
  183SLPC  H17Y21002   1.026   1.186   5.296  0.9543 -0.2492  2.2839
  183SLPC  C31821003   0.848   1.172   5.430  0.3944 -0.1414 -0.2367
  183SLPC  H18X21004   0.900   1.177   5.529 -0.1304  1.8384 -0.0186
  183SLPC  H18Y21005   0.828   1.067   5.402 -2.6832  0.2721  0.0896
  183SLPC  H18Z21006   0.755   1.232   5.444  1.4377  1.1574  1.7401
  184SLPC     N21007   0.937   0.666   2.778  0.1157  0.4023 -0.2597
  184SLPC   C1321008   0.999   0.796   2.728 -0.2550 -1.0424  0.5246
  184SLPC  H13A21009   1.106   0.785   2.729 -0.0558  0.5201 -0.0361
  184SLPC  H13B21010   0.977   0.831   2.628 -0.9693  0.7528  1.2669
  184SLPC  H13C21011   0.970   0.873   2.798  0.3061 -0.8302  0.5298
  184SLPC   C1421012   0.788   0.683   2.772  0.1991 -0.4135 -0.5940
  184SLPC  H14A21013   0.746   0.755   2.841 -0.3838 -0.3474 -1.0097
  184SLPC  H14B21014   0.758   0.727   2.678  3.1193 -0.1645 -1.5208
  184SLPC  H14C21015   0.732   0.592   2.781  1.0079 -1.4711 -4.4366
  184SLPC   C1521016   0.970   0.650   2.924 -0.6802 -0.1179 -0.4369
  184SLPC  H15A21017   1.076   0.632   2.926 -1.0370 -2.7861 -1.5384
  184SLPC  H15B21018   0.940   0.735   2.984 -1.7627 -1.8106  1.5319
  184SLPC  H15C21019   0.919   0.566   2.968 -0.3159 -0.3427 -0.4425
  184SLPC   C1221020   0.992   0.539   2.705 -0.0818  0.4438  0.4370
  184SLPC  H12A21021   1.100   0.533   2.702 -0.1268 -2.4277  1.7265
  184SLPC  H12B21022   0.955   0.553   2.604 -0.0912  0.0319  0.3795
  184SLPC   C1121023   0.931   0.401   2.740 -0.3681 -0.2158  0.1122
  184SLPC  H11A21024   0.965   0.400   2.846 -0.7022  2.7143  0.3181
  184SLPC  H11B21025   0.991   0.324   2.686  1.9334  1.9077 -0.5261
  184SLPC     P21026   0.725   0.388   2.597 -0.4884 -0.1702 -0.0585
  184SLPC   O1321027   0.603   0.474   2.586 -0.3391 -0.2615  0.0766
  184SLPC   O1421028   0.828   0.418   2.496  0.2017 -0.1445  0.3194
  184SLPC   O1221029   0.790   0.390   2.737  0.1975 -0.0712 -0.6640
  184SLPC   O1121030   0.676   0.238   2.585 -0.1300 -0.1269  0.3423
  184SLPC    C121031   0.609   0.174   2.693 -0.1963  0.2499 -0.0699
  184SLPC    HA21032   0.612   0.237   2.784  3.3669 -0.1911  0.2778
  184SLPC    HB21033   0.502   0.156   2.672 -0.4172 -0.2077  1.3145
  184SLPC    C221034   0.680   0.039   2.723  0.5000 -0.6080  0.2141
  184SLPC    HS21035   0.791   0.050   2.725  0.7516 -2.5037  3.1753
  184SLPC   O2121036   0.647  -0.055   2.615 -0.3174  0.0126  0.2865
  184SLPC   C2121037   0.707  -0.167   2.621 -0.5709 -0.1318 -0.0861
  184SLPC   O2221038   0.799  -0.198   2.693 -0.4089  0.0704 -0.9476
  184SLPC   C2221039   0.661  -0.258   2.509  0.4484  0.5694 -0.1691
  184SLPC   H2R21040   0.707  -0.214   2.418 -1.0448 -0.6499 -1.6014
  184SLPC   H2S21041   0.703  -0.358   2.532 -0.1332  0.1793 -0.7371
  184SLPC    C321042   0.644  -0.018   2.862  0.7099 -0.0893 -0.0674
  184SLPC    HX21043   0.676  -0.123   2.877 -3.1245 -1.5520 -1.0470
  184SLPC    HY21044   0.534  -0.024   2.871  0.6802  0.3635 -0.0974
  184SLPC   O3121045   0.694   0.071   2.970  0.6753 -0.4510  0.9948
  184SLPC   C3121046   0.813   0.041   3.023 -0.2447  1.2373  0.0866
  184SLPC   O3221047   0.881  -0.060   3.002 -0.2708  0.3572  0.1538
  184SLPC   C3221048   0.869   0.144   3.120  0.3194 -0.2698 -0.0609
  184SLPC   H2X21049   0.788   0.209   3.160  2.4183  2.0262  0.6318
  184SLPC   H2Y21050   0.939   0.207   3.062  0.1375  0.4232  0.4687
  184SLPC   C2321051   0.511  -0.271   2.475 -0.0351  0.0655 -0.3955
  184SLPC   H3R21052   0.520  -0.342   2.390  1.9838  0.0311 -0.1877
  184SLPC   H3S21053   0.467  -0.171   2.452  0.0369  0.2868  0.3989
  184SLPC   C2421054   0.413  -0.322   2.587  0.1016  0.0294  0.0168
  184SLPC   H4R21055   0.317  -0.316   2.532 -0.6725  0.5559  1.3919
  184SLPC   H4S21056   0.412  -0.245   2.667 -1.9649  2.1360 -1.8985
  184SLPC   C2521057   0.451  -0.463   2.631  0.0644  0.7330 -0.1613
  184SLPC   H5R21058   0.546  -0.455   2.687  1.0100 -1.7699 -1.2632
  184SLPC   H5S21059   0.484  -0.531   2.549 -0.8240 -1.9286  1.5501
  184SLPC   C2621060   0.343  -0.526   2.720 -0.2468  0.5115  0.0012
  184SLPC   H6R21061   0.336  -0.630   2.679  1.1803  0.2156  0.4550
  184SLPC   H6S21062   0.243  -0.478   2.712 -0.5044 -0.0471 -0.2340
  184SLPC   C2721063   0.395  -0.527   2.864  0.1597 -0.0352  0.1244
  184SLPC   H7R21064   0.421  -0.420   2.881 -2.5843  0.6483  0.3826
  184SLPC   H7S21065   0.480  -0.598   2.877  1.5313  1.6663  0.8270
  184SLPC   C2821066   0.286  -0.555   2.969 -0.3182 -0.1513 -0.2606
  184SLPC   H8R21067   0.196  -0.497   2.941  1.4451  2.6886 -0.4634
  184SLPC   H8S21068   0.325  -0.517   3.066  1.5269 -0.4918 -0.8396
  184SLPC   C2921069   0.264  -0.700   2.991  0.0353  0.1062  0.1206
  184SLPC   H9R21070   0.287  -0.762   2.903 -4.2719 -0.4123 -0.8959
  184SLPC  C21021071   0.241  -0.765   3.108 -0.0584 -0.4641 -0.1341
  184SLPC  H10R21072   0.253  -0.874   3.110 -2.7081 -0.8055  0.5826
  184SLPC  C21121073   0.210  -0.693   3.239 -0.3615 -0.1287 -0.0904
  184SLPC  H11R21074   0.280  -0.607   3.240 -1.2475  0.6436  2.6632
  184SLPC  H11S21075   0.237  -0.746   3.332  0.4219  2.6764  1.3989
  184SLPC  C21221076   0.069  -0.650   3.245 -0.3455  0.0040  0.4202
  184SLPC  H12R21077  -0.009  -0.707   3.191  0.0091 -0.8825  0.8225
  184SLPC  C21321078   0.030  -0.548   3.316  0.6843 -0.0220 -0.6121
  184SLPC  H13R21079  -0.077  -0.524   3.320  0.6325  0.0331 -2.0138
  184SLPC  C21421080   0.118  -0.463   3.408  0.0130  0.4524 -0.5299
  184SLPC  H14R21081   0.121  -0.357   3.373 -0.5093  0.3490 -0.8986
  184SLPC  H14S21082   0.226  -0.488   3.403 -0.1958 -0.8572  0.8228
  184SLPC  C21521083   0.072  -0.474   3.556 -0.7566  0.3615 -0.0994
  184SLPC  H15R21084   0.154  -0.425   3.613 -1.4298 -0.2477  1.4470
  184SLPC  H15S21085   0.072  -0.579   3.590 -0.4254  0.3023 -0.2793
  184SLPC  C21621086  -0.068  -0.411   3.576  0.2790  0.3687 -0.4859
  184SLPC  H16R21087  -0.146  -0.473   3.528 -1.5195  1.6479  0.6608
  184SLPC  H16S21088  -0.077  -0.313   3.524 -0.2732  0.8115  0.4264
  184SLPC  C21721089  -0.108  -0.410   3.727 -0.0936 -0.8119  0.0662
  184SLPC  H17R21090  -0.020  -0.364   3.777  1.8684 -1.5979 -2.4507
  184SLPC  H17S21091  -0.127  -0.516   3.755  1.2645 -0.5571  2.2403
  184SLPC  C21821092  -0.229  -0.321   3.762 -0.3522 -0.3166 -0.8264
  184SLPC  H18R21093  -0.317  -0.343   3.698 -1.4599 -0.4692  0.6752
  184SLPC  H18S21094  -0.203  -0.213   3.753 -0.7772 -0.3012 -2.0083
  184SLPC  H18T21095  -0.276  -0.326   3.863  0.3398  1.2865 -0.3836
  184SLPC   C3321096   0.960   0.086   3.236  0.3603  0.1827  0.0165
  184SLPC   H3X21097   1.064   0.091   3.199  0.1723  1.5110 -0.3925
  184SLPC   H3Y21098   0.934  -0.016   3.272 -0.2691  0.8032  1.4125
  184SLPC   C3421099   0.954   0.165   3.371 -0.0762 -0.6884 -0.1319
  184SLPC   H4X21100   0.848   0.186   3.397  0.4321  2.2615 -0.0039
  184SLPC   H4Y21101   1.001   0.264   3.354 -1.4928  0.3999  1.8004
  184SLPC   C3521102   1.029   0.082   3.475  0.7192  0.4001  0.4401
  184SLPC   H5X21103   1.112   0.019   3.436  1.6557  0.2429  2.5817
  184SLPC   H5Y21104   0.956   0.015   3.525  0.3850  1.1891  1.0239
  184SLPC   C3621105   1.084   0.165   3.591  0.3473 -0.4505 -0.0559
  184SLPC   H6X21106   1.010   0.242   3.623  0.9313 -0.9343  2.7810
  184SLPC   H6Y21107   1.174   0.211   3.546  1.1679 -1.0835  0.8895
  184SLPC   C3721108   1.120   0.087   3.718 -0.3330 -0.3319 -0.6691
  184SLPC   H7X21109   1.190   0.153   3.773  0.0985  0.7196 -2.4038
  184SLPC   H7Y21110   1.175  -0.006   3.691 -0.5667 -0.5316 -0.4646
  184SLPC   C3821111   1.003   0.052   3.808  0.3394 -0.3604 -0.6763
  184SLPC   H8X21112   0.937  -0.032   3.779 -1.4223 -0.2492  2.5891
  184SLPC   H8Y21113   0.940   0.141   3.830 -2.2832 -2.0528 -0.9039
  184SLPC   C3921114   1.068   0.007   3.944 -0.3897  0.1539  0.5154
  184SLPC   H9X21115   1.137   0.090   3.968 -0.1925 -0.0708  0.7326
  184SLPC   H9Y21116   1.123  -0.089   3.930  1.0164  0.8046  1.3408
  184SLPC  C31021117   0.968  -0.005   4.057 -0.3477  0.8754 -0.9321
  184SLPC  H10X21118   0.892  -0.077   4.021  0.4876 -0.7105  0.3411
  184SLPC  H10Y21119   0.925   0.096   4.074  0.2537  0.6861  2.3382
  184SLPC  C31121120   1.024  -0.045   4.202 -0.3073  0.1990 -0.4636
  184SLPC  H11X21121   1.112   0.022   4.217 -0.0103 -0.2522 -0.1676
  184SLPC  H11Y21122   1.061  -0.150   4.205  0.3935  0.4348 -0.4686
  184SLPC  C31221123   0.928  -0.023   4.319 -0.9610  0.2931 -0.4389
  184SLPC  H12X21124   0.873  -0.120   4.321  1.7280 -1.3200  0.9790
  184SLPC  H12Y21125   0.865   0.067   4.305 -2.2914 -0.3482  1.0426
  184SLPC  C31321126   0.986  -0.020   4.459  0.1367  0.1643 -0.1238
  184SLPC  H13X21127   1.047   0.073   4.459 -1.3721  1.1809  0.0295
  184SLPC  H13Y21128   1.054  -0.105   4.482  1.9331  0.8625 -2.3795
  184SLPC  C31421129   0.870   0.000   4.561 -0.4477  0.2169 -0.7379
  184SLPC  H14X21130   0.802  -0.086   4.548 -0.0674 -0.2202  0.0893
  184SLPC  H14Y21131   0.821   0.095   4.529 -1.2793  1.1035  2.7546
  184SLPC  C31521132   0.924   0.006   4.703  0.9446 -0.1179  0.1527
  184SLPC  H15X21133   0.863   0.070   4.770  0.2209  0.7942 -1.3362
  184SLPC  H15Y21134   1.021   0.060   4.712  1.0258 -0.3078  0.4201
  184SLPC  C31621135   0.925  -0.133   4.774  0.7557 -0.2540  0.5434
  184SLPC  H16X21136   1.000  -0.188   4.713 -2.2985 -2.3371 -1.6963
  184SLPC  H16Y21137   0.827  -0.186   4.765  0.3240  0.3975  1.3055
  184SLPC  C31721138   0.948  -0.138   4.925 -0.0897 -0.3735  0.0861
  184SLPC  H17X21139   0.935  -0.039   4.973 -1.9616 -0.7420  0.3907
  184SLPC  H17Y21140   1.057  -0.142   4.945 -0.6200 -0.9427  3.4861
  184SLPC  C31821141   0.884  -0.258   4.993 -0.0414  0.2563 -0.2975
  184SLPC  H18X21142   0.921  -0.261   5.098 -1.4744  0.0747  0.2296
  184SLPC  H18Y21143   0.921  -0.357   4.958 -0.6787 -0.2165  0.3222
  184SLPC  H18Z21144   0.774  -0.257   4.977 -0.6156 -5.5489  1.0087
  185POPC     N21145   0.767   0.437   6.907 -0.2033 -0.2227 -0.0203
  185POPC   C1221146   0.866   0.535   6.849 -0.3248 -0.1405  0.0169
  185POPC  H12A21147   0.964   0.490   6.846 -0.6033 -0.7746 -2.6753
  185POPC  H12B21148   0.877   0.622   6.912 -2.4251 -0.6264  1.1771
  185POPC   C1321149   0.626   0.493   6.899  0.2305  0.0515 -0.1889
  185POPC  H13A21150   0.634   0.591   6.942  3.4633 -1.1682  2.4162
  185POPC  H13B21151   0.582   0.485   6.801 -1.0054 -4.4806  0.4714
  185POPC  H13C21152   0.567   0.436   6.970 -1.0349 -0.7399 -1.8251
  185POPC   C1421153   0.775   0.299   6.861  0.5078 -0.2731  0.0300
  185POPC  H14A21154   0.712   0.240   6.926 -0.6039  0.5352 -0.2760
  185POPC  H14B21155   0.733   0.290   6.762  0.6940 -1.3413  0.0372
  185POPC  H14C21156   0.878   0.268   6.855  1.7077  2.6041  2.8055
  185POPC   C1521157   0.798   0.418   7.054 -0.1082 -0.3875 -0.0308
  185POPC  H15A21158   0.745   0.334   7.097  2.1564 -1.5403  0.6741
  185POPC  H15B21159   0.762   0.498   7.116 -1.2638 -1.0731  0.2142
  185POPC  H15C21160   0.904   0.400   7.066  0.4922  0.7162 -2.8069
  185POPC   C1121161   0.845   0.583   6.705  0.3832  0.5056 -0.2553
  185POPC  H11A21162   0.838   0.493   6.640  2.9291 -0.3099  0.4773
  185POPC  H11B21163   0.940   0.624   6.664  0.4840 -0.0389 -0.5737
  185POPC     P21164   0.743   0.815   6.767 -0.0150 -0.1130  0.2667
  185POPC   O1321165   0.878   0.835   6.823  0.2893 -0.5583 -0.0895
  185POPC   O1421166   0.631   0.815   6.866  0.1261  0.1420 -0.3597
  185POPC   O1221167   0.735   0.675   6.686  0.0828  0.0376 -0.1125
  185POPC   O1121168   0.715   0.930   6.665 -0.4708  0.1933 -0.6394
  185POPC    C121169   0.592   0.978   6.612 -0.5268  0.2085  0.1581
  185POPC    HA21170   0.609   1.086   6.595  0.7807 -0.2684 -1.8863
  185POPC    HB21171   0.515   0.971   6.692 -2.0664 -1.7518 -1.3963
  185POPC    C221172   0.529   0.885   6.503  0.0587  0.3116 -0.3524
  185POPC    HS21173   0.524   0.791   6.562 -4.1121  0.3324 -0.3445
  185POPC   O2121174   0.624   0.875   6.398  0.5353 -0.0076 -0.6644
  185POPC   C2121175   0.611   0.761   6.332 -0.6393  0.8375  0.1708
  185POPC   O2221176   0.529   0.674   6.359 -0.4298  0.0109 -0.1374
  185POPC   C2221177   0.718   0.752   6.217 -0.4693  0.0622 -0.3247
  185POPC   H2R21178   0.736   0.643   6.213 -2.0954 -0.2601  0.4241
  185POPC   H2S21179   0.813   0.804   6.242 -1.6779  1.6444  1.2774
  185POPC    C321180   0.393   0.939   6.458  0.1903 -0.1575  0.2284
  185POPC    HX21181   0.322   0.945   6.543 -1.1149 -0.0616 -0.8497
  185POPC    HY21182   0.351   0.878   6.376  0.0833  1.4320 -0.9193
  185POPC   O3121183   0.394   1.079   6.417 -0.1550  0.6190 -0.6405
  185POPC   C3121184   0.443   1.100   6.291  0.4419  0.1809  0.0929
  185POPC   O3221185   0.470   1.017   6.209 -0.4283  0.1785  0.3816
  185POPC   C3221186   0.454   1.254   6.269 -0.6845  0.8637  0.3140
  185POPC   H2X21187   0.508   1.308   6.349  2.5726  2.4184 -2.6495
  185POPC   H2Y21188   0.351   1.293   6.257 -1.1367 -0.1216  0.9286
  185POPC   C2321189   0.678   0.801   6.076 -0.4821  0.7413  0.2721
  185POPC   H3R21190   0.665   0.910   6.056 -0.0633  0.7809  0.2052
  185POPC   H3S21191   0.590   0.755   6.026  0.7361  0.5947 -1.8402
  185POPC   C2421192   0.792   0.761   5.975 -0.1677 -0.2493  0.1442
  185POPC   H4R21193   0.807   0.651   5.971  1.1753 -0.0756  0.0513
  185POPC   H4S21194   0.891   0.782   6.021 -0.6627  1.0950  0.6370
  185POPC   C2521195   0.785   0.810   5.830 -0.0162 -0.7735 -0.4474
  185POPC   H5R21196   0.815   0.917   5.826 -2.3395 -0.1078 -1.9720
  185POPC   H5S21197   0.677   0.806   5.804  0.0163 -0.5930 -0.6116
  185POPC   C2621198   0.879   0.729   5.737  0.4006 -0.0597 -0.1977
  185POPC   H6R21199   0.828   0.633   5.714  0.7166 -0.0289 -1.0602
  185POPC   H6S21200   0.973   0.720   5.796 -0.3157  0.3232  1.0410
  185POPC   C2721201   0.900   0.790   5.595  0.0294  0.4694  0.3735
  185POPC   H7R21202   0.911   0.900   5.610 -1.7965  0.7429  0.0336
  185POPC   H7S21203   0.806   0.765   5.540  0.1340  2.1413 -0.6476
  185POPC   C2821204   1.024   0.726   5.530 -0.0677 -0.2331 -0.4652
  185POPC   H8R21205   1.005   0.617   5.514  1.8691 -1.0118  1.9048
  185POPC   H8S21206   1.104   0.735   5.606 -0.3958  0.7726 -0.2289
  185POPC   C2921207   1.069   0.809   5.415 -0.0751 -0.0483 -0.0228
  185POPC   H9121208   1.166   0.856   5.437  0.4175 -0.8927 -0.3086
  185POPC  C21021209   1.022   0.826   5.295  0.0861 -0.1853  0.2311
  185POPC  H10121210   1.077   0.881   5.217  0.5619 -2.5330 -1.2035
  185POPC  C21121211   0.894   0.774   5.230  0.3968  0.0606 -0.4964
  185POPC  H11R21212   0.856   0.860   5.171 -2.3876  1.1709  2.5948
  185POPC  H11S21213   0.824   0.739   5.309  0.5453  0.5918 -0.1201
  185POPC  C21221214   0.904   0.659   5.134  0.4912 -0.1798  0.1678
  185POPC  H12R21215   0.970   0.576   5.167 -1.5569 -1.7206  0.5737
  185POPC  H12S21216   0.934   0.686   5.030 -1.6525 -2.2380 -1.0694
  185POPC  C21321217   0.766   0.602   5.125 -0.5238  0.5327 -0.1604
  185POPC  H13R21218   0.739   0.568   5.226 -1.2776  0.4972 -0.3723
  185POPC  H13S21219   0.775   0.518   5.052 -2.5230 -0.3377  0.5479
  185POPC  C21421220   0.673   0.702   5.055 -1.3213  0.1454  0.1650
  185POPC  H14R21221   0.714   0.756   4.968  1.2380 -2.2126 -0.2368
  185POPC  H14S21222   0.654   0.789   5.121  0.1848 -0.0880  0.9308
  185POPC  C21521223   0.540   0.643   5.011  1.0473  0.1511 -0.1617
  185POPC  H15R21224   0.550   0.593   4.912 -2.7521 -1.2152 -0.0392
  185POPC  H15S21225   0.476   0.730   4.988  0.0173  0.1038  2.1653
  185POPC  C21621226   0.482   0.542   5.106 -0.3846 -0.3681  0.0873
  185POPC  H16R21227   0.551   0.463   5.140 -0.6960 -0.3850  0.6874
  185POPC  H16S21228   0.405   0.478   5.057  0.5096 -1.6500  0.3153
  185POPC  C21721229   0.423   0.613   5.229  0.7051 -0.1768 -0.1099
  185POPC  H17R21230   0.351   0.693   5.203  1.0433 -0.9858 -4.1804
  185POPC  H17S21231   0.503   0.679   5.270  0.9330 -0.2957 -0.3548
  185POPC  C21821232   0.381   0.517   5.338  0.1901 -0.7236 -0.5506
  185POPC  H18R21233   0.447   0.427   5.342  0.0550 -0.7922  0.6948
  185POPC  H18S21234   0.273   0.491   5.333  0.1791 -0.8652  0.3198
  185POPC  H18T21235   0.395   0.567   5.436 -0.0805  0.0336 -0.8942
  185POPC   C3321236   0.548   1.269   6.146 -0.4070  0.5095 -0.3809
  185POPC   H3X21237   0.488   1.231   6.061 -0.7322 -0.8138  0.4059
  185POPC   H3Y21238   0.639   1.205   6.154 -1.5093 -0.9505  1.4079
  185POPC   C3421239   0.574   1.419   6.112 -0.0642  0.8460 -0.4207
  185POPC   H4X21240   0.631   1.456   6.200  0.8167 -2.3951  0.5027
  185POPC   H4Y21241   0.474   1.467   6.103 -0.0385  0.5721 -2.5405
  185POPC   C3521242   0.660   1.442   5.990 -0.3882 -0.6290  0.1378
  185POPC   H5X21243   0.765   1.407   5.984 -0.6500 -1.2043 -1.5011
  185POPC   H5Y21244   0.680   1.552   5.984  0.0279 -0.7759 -1.7227
  185POPC   C3621245   0.587   1.400   5.859  0.7451 -0.7821 -0.5114
  185POPC   H6X21246   0.481   1.419   5.886 -0.5178 -2.6397 -3.6639
  185POPC   H6Y21247   0.585   1.290   5.842 -0.6590 -0.9298  0.4724
  185POPC   C3721248   0.632   1.474   5.738  0.5648 -0.4668 -0.2946
  185POPC   H7X21249   0.743   1.475   5.728  0.5499  1.0580 -0.5902
  185POPC   H7Y21250   0.604   1.581   5.733 -1.1045 -0.8098  1.1267
  185POPC   C3821251   0.575   1.416   5.610  0.1889 -0.0102 -0.5856
  185POPC   H8X21252   0.466   1.423   5.630  0.7270 -0.1966  3.0374
  185POPC   H8Y21253   0.590   1.307   5.599  2.6956  0.2846 -0.6216
  185POPC   C3921254   0.618   1.494   5.492 -0.1834  1.0157  0.8879
  185POPC   H9X21255   0.719   1.456   5.465 -0.5028  1.7420 -1.6347
  185POPC   H9Y21256   0.620   1.600   5.522  1.6556  1.0988  0.5462
  185POPC  C31021257   0.528   1.484   5.370 -0.0152 -0.4310 -0.7681
  185POPC  H10X21258   0.432   1.531   5.401  1.9765  2.7852  1.0326
  185POPC  H10Y21259   0.518   1.375   5.350  3.1951 -0.7032 -1.4700
  185POPC  C31121260   0.584   1.550   5.243 -0.5897  0.0612 -0.4920
  185POPC  H11X21261   0.536   1.522   5.146  1.8240 -1.5978 -1.3026
  185POPC  H11Y21262   0.690   1.522   5.226 -0.0751  2.3550 -1.4562
  185POPC  C31221263   0.576   1.702   5.255 -0.1794 -0.0503 -0.5662
  185POPC  H12X21264   0.610   1.738   5.354 -1.2715 -0.2815 -0.0976
  185POPC  H12Y21265   0.478   1.753   5.267  0.2131  0.2301  2.0220
  185POPC  C31321266   0.669   1.776   5.148 -0.2222 -0.3632 -0.2453
  185POPC  H13X21267   0.774   1.741   5.145 -0.5466 -1.3846  0.1666
  185POPC  H13Y21268   0.656   1.882   5.181  1.6991 -0.8594  2.3850
  185POPC  C31421269   0.628   1.752   5.001  0.3503 -0.0978  0.0081
  185POPC  H14X21270   0.533   1.695   5.008 -0.7992  1.5176 -1.7313
  185POPC  H14Y21271   0.708   1.689   4.956  0.2476 -0.2937  0.0985
  185POPC  C31521272   0.593   1.876   4.916  0.3091 -0.2372  0.4056
  185POPC  H15X21273   0.562   1.844   4.814  0.6502 -1.7889  0.7661
  185POPC  H15Y21274   0.683   1.940   4.905 -0.3490  0.6820  0.2383
  185POPC  C31621275   0.480   1.962   4.974  0.2808 -0.0289  0.8620
  185POPC  H16X21276   0.400   1.890   5.003 -0.4848  1.1136  1.6677
  185POPC  H16Y21277   0.447   2.039   4.902  1.3738 -0.6698 -0.3726
  185POPC  H16Z21278   0.504   2.014   5.070 -0.7133 -1.1898  1.7809
  186POPC     N21279   3.287   0.336   7.433  0.0383 -0.1339  0.1669
  186POPC   C1221280   3.358   0.330   7.303 -0.0237  0.0915 -0.2332
  186POPC  H12A21281   3.461   0.317   7.334  0.0591  0.4182 -0.3693
  186POPC  H12B21282   3.349   0.427   7.256  0.3031 -0.5947 -1.7805
  186POPC   C1321283   3.335   0.220   7.509  0.5049  0.5121 -0.3898
  186POPC  H13A21284   3.277   0.209   7.599  1.6666  3.8650  0.9609
  186POPC  H13B21285   3.333   0.127   7.454 -2.1157  0.9892 -1.2301
  186POPC  H13C21286   3.435   0.228   7.549 -0.5239  0.9763  2.2845
  186POPC   C1421287   3.310   0.461   7.510  0.5062 -0.6881 -0.6401
  186POPC  H14A21288   3.411   0.498   7.498  1.5290 -3.0385 -0.0497
  186POPC  H14B21289   3.243   0.542   7.488 -0.8661 -0.9094  2.1889
  186POPC  H14C21290   3.300   0.456   7.618 -1.0062  0.0031 -0.7238
  186POPC   C1521291   3.142   0.324   7.412  0.2753 -0.0695 -0.6815
  186POPC  H15A21292   3.131   0.235   7.352  0.8919 -0.6313  0.0082
  186POPC  H15B21293   3.105   0.414   7.367 -0.1672  0.8150  1.3205
  186POPC  H15C21294   3.095   0.300   7.507 -2.2324  0.2637 -1.7638
  186POPC   C1121295   3.326   0.218   7.200  0.1039  0.3231 -0.3801
  186POPC  H11A21296   3.405   0.218   7.121  0.8611 -1.2297  0.3388
  186POPC  H11B21297   3.226   0.237   7.154 -0.9579  0.3872  1.8264
  186POPC     P21298   3.208  -0.016   7.235 -0.5523  0.2328  0.1337
  186POPC   O1321299   3.080   0.025   7.289  0.0357 -0.3005 -0.4319
  186POPC   O1421300   3.259  -0.153   7.267 -0.6816 -0.3690 -0.0181
  186POPC   O1221301   3.335   0.091   7.261 -0.1553  0.3683 -0.3768
  186POPC   O1121302   3.198  -0.008   7.080 -0.1865 -0.0208  0.4012
  186POPC    C121303   3.292  -0.078   6.997 -0.2112  0.4711  1.0923
  186POPC    HA21304   3.279  -0.188   7.006 -0.5089  0.3675 -0.4145
  186POPC    HB21305   3.394  -0.042   7.024 -0.1478 -1.1691  3.3444
  186POPC    C221306   3.291  -0.046   6.846  0.4078 -0.1999  0.0804
  186POPC    HS21307   3.316   0.062   6.838  3.4417 -0.6911  1.4702
  186POPC   O2121308   3.177  -0.093   6.775  0.4969  0.1440 -0.9933
  186POPC   C2121309   3.091   0.003   6.734 -0.0410 -0.6213  0.7443
  186POPC   O2221310   3.108   0.126   6.737 -0.2904  0.1477 -0.4239
  186POPC   C2221311   2.971  -0.058   6.671  0.8150  0.0183  0.3255
  186POPC   H2R21312   2.891   0.020   6.670 -0.8522 -1.6029 -1.5577
  186POPC   H2S21313   2.931  -0.133   6.743  0.8307  0.1667  0.4924
  186POPC    C321314   3.412  -0.116   6.771  0.6230  0.6319  0.2370
  186POPC    HX21315   3.389  -0.223   6.788 -1.7753  1.3324  2.0223
  186POPC    HY21316   3.509  -0.090   6.818  0.9254 -0.0491 -0.0017
  186POPC   O3121317   3.418  -0.080   6.635 -0.0239 -0.1998 -0.3277
  186POPC   C3121318   3.379  -0.172   6.540 -0.0247  0.1704  0.1288
  186POPC   O3221319   3.350  -0.285   6.562 -0.4052  0.4709 -0.4713
  186POPC   C3221320   3.379  -0.114   6.407  0.0087 -0.7045  1.0320
  186POPC   H2X21321   3.453  -0.034   6.389 -1.6408  1.3505  2.7836
  186POPC   H2Y21322   3.278  -0.070   6.389  0.1493 -0.6174  0.4352
  186POPC   C2321323   2.980  -0.108   6.526 -0.0697  0.2962  0.3712
  186POPC   H3R21324   2.901  -0.182   6.497 -1.6173  1.7403  0.7293
  186POPC   H3S21325   3.081  -0.152   6.518  0.0305  0.4450  0.7991
  186POPC   C2421326   2.961   0.004   6.426 -0.7825 -0.1892 -0.6957
  186POPC   H4R21327   3.051   0.069   6.434 -0.7088 -0.0896 -2.0284
  186POPC   H4S21328   2.866   0.060   6.440 -2.7573 -3.6525  1.4153
  186POPC   C2521329   2.956  -0.057   6.281  1.3718  0.3399 -0.4126
  186POPC   H5R21330   3.040  -0.129   6.268  0.4833 -1.5417  2.9937
  186POPC   H5S21331   2.974   0.033   6.218  0.0322 -0.5982 -2.2154
  186POPC   C2621332   2.827  -0.123   6.222  0.2946 -0.2066 -0.0680
  186POPC   H6R21333   2.755  -0.038   6.230 -0.1425 -0.5820  0.0564
  186POPC   H6S21334   2.801  -0.219   6.271  2.7117 -1.3204 -0.8586
  186POPC   C2721335   2.836  -0.153   6.076 -0.3010  0.0762 -0.7241
  186POPC   H7R21336   2.929  -0.211   6.061  0.5214  1.1978 -0.0436
  186POPC   H7S21337   2.850  -0.053   6.032 -1.0754  0.4268 -0.2095
  186POPC   C2821338   2.716  -0.219   6.013 -0.2473  0.5154  0.3622
  186POPC   H8R21339   2.624  -0.158   6.027 -0.6990 -0.4457  1.8368
  186POPC   H8S21340   2.706  -0.318   6.064 -0.6798  0.1626 -0.3912
  186POPC   C2921341   2.773  -0.245   5.868 -0.0628 -0.1816  0.0732
  186POPC   H9121342   2.872  -0.292   5.867 -0.5987 -1.3851 -1.4548
  186POPC  C21021343   2.734  -0.188   5.754 -0.1362 -0.1768  0.9217
  186POPC  H10121344   2.801  -0.204   5.668 -0.8957  1.1358  0.0585
  186POPC  C21121345   2.613  -0.094   5.740 -0.6386 -0.3312  0.0275
  186POPC  H11R21346   2.651   0.009   5.726 -1.7772  0.0731 -0.2081
  186POPC  H11S21347   2.543  -0.103   5.826  1.7108 -2.3089  1.9168
  186POPC  C21221348   2.532  -0.117   5.611  0.2912 -0.5354 -0.1510
  186POPC  H12R21349   2.505  -0.224   5.606  1.1182 -0.6923 -3.0749
  186POPC  H12S21350   2.591  -0.090   5.521  0.4310 -2.6891 -0.7590
  186POPC  C21321351   2.397  -0.039   5.610 -0.3132  0.0253  0.4079
  186POPC  H13R21352   2.414   0.069   5.629 -0.3567  0.5373 -2.1065
  186POPC  H13S21353   2.341  -0.076   5.699  0.3984  3.1025  2.2717
  186POPC  C21421354   2.319  -0.067   5.481 -0.0132  0.4004  0.3444
  186POPC  H14R21355   2.321  -0.173   5.449 -0.1946  0.5826 -0.2919
  186POPC  H14S21356   2.372  -0.001   5.410 -0.1211 -0.3195 -0.4159
  186POPC  C21521357   2.168  -0.046   5.488  0.6750  0.3486  0.1130
  186POPC  H15R21358   2.147   0.063   5.486 -0.2533  0.1745 -1.0146
  186POPC  H15S21359   2.131  -0.074   5.588  1.6125  0.2887  0.4556
  186POPC  C21621360   2.088  -0.106   5.373  0.1925  0.0472 -0.2208
  186POPC  H16R21361   2.156  -0.155   5.300 -0.7349 -0.4822 -0.7407
  186POPC  H16S21362   2.033  -0.030   5.314 -0.8698  1.4936  2.4702
  186POPC  C21721363   2.001  -0.227   5.419  0.0528  0.3909  0.1046
  186POPC  H17R21364   1.953  -0.196   5.514  0.1307 -0.7133  0.5239
  186POPC  H17S21365   2.064  -0.313   5.453  0.8375  0.8585 -0.1376
  186POPC  C21821366   1.902  -0.280   5.320 -0.3419  0.0050  0.4943
  186POPC  H18R21367   1.947  -0.308   5.223 -0.6489  2.6648 -0.4899
  186POPC  H18S21368   1.822  -0.203   5.314 -0.1222  0.1242 -1.5406
  186POPC  H18T21369   1.860  -0.372   5.366  0.6606  0.3845  2.2592
  186POPC   C3321370   3.385  -0.223   6.298  0.0569  0.7524 -0.2793
  186POPC   H3X21371   3.296  -0.290   6.298  1.4909 -1.2519  1.6314
  186POPC   H3Y21372   3.472  -0.290   6.305 -0.3910  0.2893  1.0466
  186POPC   C3421373   3.417  -0.147   6.167  0.1894  0.7089 -0.3569
  186POPC   H4X21374   3.526  -0.158   6.149 -0.2913 -1.8714 -2.3905
  186POPC   H4Y21375   3.393  -0.038   6.173 -0.5621  0.4831  1.2637
  186POPC   C3521376   3.338  -0.214   6.054 -0.0510  0.5777 -0.1340
  186POPC   H5X21377   3.230  -0.215   6.080  0.8017  0.3917  4.2259
  186POPC   H5Y21378   3.364  -0.322   6.058 -1.2825  0.2168 -1.3575
  186POPC   C3621379   3.363  -0.157   5.915  0.6695 -0.1053  0.0594
  186POPC   H6X21380   3.459  -0.111   5.883  1.3948 -1.0864  0.7822
  186POPC   H6Y21381   3.290  -0.074   5.902  0.4327 -0.3540 -0.2309
  186POPC   C3721382   3.340  -0.263   5.806  0.9224 -0.1095 -0.8292
  186POPC   H7X21383   3.256  -0.329   5.834  0.2043  1.7251  1.7167
  186POPC   H7Y21384   3.436  -0.319   5.804  1.0426 -0.0143  0.9076
  186POPC   C3821385   3.310  -0.196   5.670 -0.6334  0.2485 -0.6076
  186POPC   H8X21386   3.389  -0.137   5.618 -1.7324  1.7461 -0.6294
  186POPC   H8Y21387   3.236  -0.114   5.683 -0.8708 -0.2357  1.3127
  186POPC   C3921388   3.267  -0.299   5.565  0.0486  0.5180 -0.1308
  186POPC   H9X21389   3.181  -0.363   5.597 -0.3283  0.2047 -1.7090
  186POPC   H9Y21390   3.351  -0.364   5.532 -0.5908 -0.5283  0.2346
  186POPC  C31021391   3.224  -0.221   5.438 -0.3361 -0.5648 -0.1130
  186POPC  H10X21392   3.302  -0.144   5.416 -0.9174 -0.3689 -1.6096
  186POPC  H10Y21393   3.135  -0.163   5.469  0.2456 -0.1109  0.7589
  186POPC  C31121394   3.200  -0.294   5.308  0.3375 -0.2970  0.3023
  186POPC  H11X21395   3.297  -0.343   5.281 -0.0852 -0.1741 -1.5918
  186POPC  H11Y21396   3.181  -0.226   5.222 -0.2925 -0.6195  0.1818
  186POPC  C31221397   3.092  -0.403   5.312  0.0729  0.4353  0.2006
  186POPC  H12X21398   3.113  -0.485   5.383  2.9426  1.6506  0.8992
  186POPC  H12Y21399   3.083  -0.447   5.210  1.4387 -2.3422  1.1930
  186POPC  C31321400   2.960  -0.332   5.358 -0.6573 -0.2252  0.5054
  186POPC  H13X21401   2.945  -0.235   5.305  0.5226  0.2000  0.9363
  186POPC  H13Y21402   2.957  -0.305   5.466  0.1262 -0.2367  0.5314
  186POPC  C31421403   2.841  -0.425   5.322 -0.1096 -0.1966 -0.0389
  186POPC  H14X21404   2.852  -0.528   5.363 -1.4855 -0.8252 -1.1580
  186POPC  H14Y21405   2.836  -0.431   5.211 -2.2672  0.7678 -0.0286
  186POPC  C31521406   2.702  -0.375   5.372  0.3960  0.4316  0.8032
  186POPC  H15X21407   2.677  -0.275   5.329  1.5291  0.2810 -0.2606
  186POPC  H15Y21408   2.705  -0.360   5.482  0.6094 -2.8811  1.3547
  186POPC  C31621409   2.594  -0.474   5.331 -0.0222  0.2057 -0.9321
  186POPC  H16X21410   2.492  -0.439   5.357 -0.5402 -0.5534 -1.8776
  186POPC  H16Y21411   2.614  -0.576   5.371 -2.7317 -0.1543 -0.3177
  186POPC  H16Z21412   2.588  -0.462   5.221 -1.7922  1.6925 -0.7219
  187POPC     N21413   0.662   4.159   2.668 -0.1592 -0.1403 -0.5996
  187POPC   C1221414   0.591   4.130   2.798  0.2560 -0.1273  0.5618
  187POPC  H12A21415   0.487   4.110   2.777  0.8654 -2.4951 -0.5902
  187POPC  H12B21416   0.604   4.221   2.855  0.3826  2.5091 -3.3027
  187POPC   C1321417   0.810   4.163   2.688  0.0468  0.1383  0.1950
  187POPC  H13A21418   0.839   4.068   2.729  0.4967 -0.0466 -0.5360
  187POPC  H13B21419   0.854   4.156   2.589  2.5581  1.0028  1.1677
  187POPC  H13C21420   0.847   4.242   2.752  1.8586  0.0987 -0.7373
  187POPC   C1421421   0.632   4.062   2.559 -0.2512  0.3646 -0.1725
  187POPC  H14A21422   0.653   3.959   2.586  0.7077  0.7775  0.7395
  187POPC  H14B21423   0.525   4.055   2.543 -0.3728 -1.6465  1.0890
  187POPC  H14C21424   0.691   4.070   2.469  1.7068  0.4649  1.0611
  187POPC   C1521425   0.630   4.300   2.620 -0.0534 -0.0283 -0.7723
  187POPC  H15A21426   0.664   4.371   2.693 -1.5756 -0.1199  0.0818
  187POPC  H15B21427   0.526   4.326   2.605  0.2570  2.7518  1.1311
  187POPC  H15C21428   0.687   4.320   2.531  2.5434  0.9034  0.9799
  187POPC   C1121429   0.635   4.003   2.872 -0.3234 -1.5144 -0.2821
  187POPC  H11A21430   0.569   4.004   2.960  0.9790  1.8990  0.8212
  187POPC  H11B21431   0.739   4.011   2.910 -0.6481  2.0068  0.2033
  187POPC     P21432   0.733   3.780   2.779 -0.0039  0.3060  0.0145
  187POPC   O1321433   0.864   3.852   2.792 -0.3353  0.2615  0.2960
  187POPC   O1421434   0.697   3.695   2.661  0.5152  1.0956 -0.8561
  187POPC   O1221435   0.613   3.887   2.797 -0.1811 -0.0798 -0.5124
  187POPC   O1121436   0.722   3.673   2.902  0.4546 -0.1499 -0.3598
  187POPC    C121437   0.806   3.685   3.017 -0.2597 -0.0458 -0.2838
  187POPC    HA21438   0.905   3.728   2.994 -0.9059  1.1880 -0.8725
  187POPC    HB21439   0.825   3.586   3.064  0.6770 -1.1862 -2.8617
  187POPC    C221440   0.752   3.775   3.130 -0.2563 -0.2441 -0.1526
  187POPC    HS21441   0.731   3.876   3.090 -0.9349 -0.9262 -1.5690
  187POPC   O2121442   0.856   3.765   3.223 -0.0488  0.0611 -0.2549
  187POPC   C2121443   0.888   3.891   3.272 -0.7446  0.6047 -0.1668
  187POPC   O2221444   0.830   3.995   3.247  0.1750 -0.5194  0.0303
  187POPC   C2221445   1.005   3.874   3.363 -0.4895 -0.4549 -0.5622
  187POPC   H2R21446   1.087   3.931   3.316 -0.1026  0.2594  0.9376
  187POPC   H2S21447   1.027   3.765   3.358 -3.4060 -1.0835 -2.6518
  187POPC    C321448   0.619   3.718   3.195  0.2956 -1.1449  0.3829
  187POPC    HX21449   0.630   3.608   3.201 -1.7322 -1.2915  2.3793
  187POPC    HY21450   0.539   3.745   3.123  0.5091 -0.4542  0.3942
  187POPC   O3121451   0.607   3.776   3.327 -0.2281  0.0913  0.2309
  187POPC   C3121452   0.514   3.715   3.394 -0.7915  1.0300  0.2746
  187POPC   O3221453   0.441   3.626   3.350  0.1869 -0.2908  0.2210
  187POPC   C3221454   0.523   3.747   3.548 -0.3261 -0.3916 -0.1210
  187POPC   H2X21455   0.448   3.827   3.564  0.5207  0.4662 -0.3637
  187POPC   H2Y21456   0.620   3.794   3.576 -1.2027  0.7643  1.1528
  187POPC   C2321457   0.983   3.905   3.515  0.4805 -0.0815 -0.0257
  187POPC   H3R21458   0.921   3.995   3.532 -0.1147 -0.8630  2.2190
  187POPC   H3S21459   1.087   3.928   3.545  0.7088 -2.1873  0.9644
  187POPC   C2421460   0.935   3.778   3.598  0.3372 -0.4038  0.0446
  187POPC   H4R21461   0.991   3.686   3.569  0.2472 -0.6668  0.6914
  187POPC   H4S21462   0.827   3.768   3.574  0.1155 -0.0669  0.8542
  187POPC   C2521463   0.958   3.797   3.746 -0.4230 -0.3080  0.3423
  187POPC   H5R21464   1.067   3.776   3.756 -0.1370  1.1448  0.6035
  187POPC   H5S21465   0.895   3.725   3.803 -2.7440  0.7364 -0.7694
  187POPC   C2621466   0.927   3.941   3.803 -0.1198 -0.4693 -0.3693
  187POPC   H6R21467   0.824   3.964   3.767 -0.3792 -1.0952 -0.0438
  187POPC   H6S21468   1.006   4.014   3.776 -1.2375  1.1011  0.4277
  187POPC   C2721469   0.927   3.940   3.956  0.4834 -0.3753  0.4804
  187POPC   H7R21470   1.005   3.874   3.999  1.4214  2.0815  2.8388
  187POPC   H7S21471   0.829   3.901   3.991 -0.9944  2.4181 -0.2153
  187POPC   C2821472   0.958   4.080   4.018 -0.5392 -0.1975  0.3534
  187POPC   H8R21473   0.874   4.152   4.007  0.7163  1.3788  0.5863
  187POPC   H8S21474   1.045   4.113   3.957 -0.8045  2.8063  1.4425
  187POPC   C2921475   1.001   4.073   4.161  0.1761  0.0448 -1.0965
  187POPC   H9121476   1.107   4.068   4.189 -0.0809 -0.4115 -0.1585
  187POPC  C21021477   0.911   4.054   4.265  0.2539  0.2712 -0.2591
  187POPC  H10121478   0.952   4.045   4.367 -1.0186 -2.2495  0.1297
  187POPC  C21121479   0.758   4.047   4.246 -0.7080  0.7151  0.3506
  187POPC  H11R21480   0.729   3.942   4.268 -1.1464  1.0388  1.4217
  187POPC  H11S21481   0.728   4.063   4.140  0.2009 -2.3338 -0.4744
  187POPC  C21221482   0.684   4.140   4.343  0.5301  0.4854 -0.7281
  187POPC  H12R21483   0.573   4.133   4.341  0.3698  2.4470 -2.3166
  187POPC  H12S21484   0.694   4.243   4.303  0.0954  0.0605 -2.0072
  187POPC  C21321485   0.737   4.143   4.491  0.7572 -0.2805  0.3306
  187POPC  H13R21486   0.840   4.186   4.491  0.8717 -0.5274  1.2371
  187POPC  H13S21487   0.723   4.045   4.543  0.2353 -0.5016 -0.2166
  187POPC  C21421488   0.659   4.249   4.565  0.4519 -0.1918 -0.3086
  187POPC  H14R21489   0.556   4.208   4.575  0.3154 -0.1012 -1.2684
  187POPC  H14S21490   0.660   4.350   4.517  2.2766 -0.2938 -0.5545
  187POPC  C21521491   0.713   4.269   4.707  0.0972 -0.0468 -0.0231
  187POPC  H15R21492   0.822   4.287   4.696  0.2347 -1.0258 -0.3294
  187POPC  H15S21493   0.702   4.173   4.763  1.0912  0.8155  1.7391
  187POPC  C21621494   0.660   4.395   4.779 -0.5880 -0.1041  0.1817
  187POPC  H16R21495   0.549   4.392   4.786 -0.5613 -0.2609  0.5774
  187POPC  H16S21496   0.693   4.492   4.735  0.5070 -0.0334  1.0964
  187POPC  C21721497   0.708   4.405   4.926 -0.2827 -0.2507 -0.4164
  187POPC  H17R21498   0.716   4.306   4.976 -0.7263 -1.1272 -1.9999
  187POPC  H17S21499   0.626   4.458   4.978 -0.5963 -1.7364  0.6625
  187POPC  C21821500   0.850   4.468   4.952 -0.2146  0.0074 -0.6559
  187POPC  H18R21501   0.854   4.577   4.931  0.1549  0.1093 -0.0651
  187POPC  H18S21502   0.940   4.419   4.909  0.1518 -1.8786  2.0448
  187POPC  H18T21503   0.874   4.454   5.059  1.8752 -0.3952 -1.1331
  187POPC   C3321504   0.512   3.627   3.646  0.7904  0.2570 -0.1268
  187POPC   H3X21505   0.606   3.576   3.675  0.7490 -0.1912 -0.7675
  187POPC   H3Y21506   0.447   3.548   3.604 -0.3895  0.6600  0.8758
  187POPC   C3421507   0.452   3.672   3.780 -0.4988  0.1983 -0.2354
  187POPC   H4X21508   0.444   3.583   3.846 -0.8973 -0.8342 -1.6247
  187POPC   H4Y21509   0.354   3.722   3.765 -1.0547 -0.8319 -0.1256
  187POPC   C3521510   0.547   3.758   3.861 -0.7915 -1.0613 -0.1445
  187POPC   H5X21511   0.558   3.861   3.820  1.5892  0.0156  2.7870
  187POPC   H5Y21512   0.648   3.711   3.861  1.6368  3.1837  4.4399
  187POPC   C3621513   0.499   3.767   4.009 -0.0928 -0.0284 -0.2675
  187POPC   H6X21514   0.572   3.831   4.063 -0.1453 -0.1731 -0.0266
  187POPC   H6Y21515   0.481   3.668   4.057 -1.4126  0.7269  0.8421
  187POPC   C3721516   0.369   3.840   4.026 -0.3631 -0.4822 -0.1004
  187POPC   H7X21517   0.282   3.774   4.007 -1.0939  0.9955 -2.1597
  187POPC   H7Y21518   0.364   3.930   3.962  0.9516  0.0834  0.5576
  187POPC   C3821519   0.344   3.895   4.167  0.0505 -0.1992 -0.1375
  187POPC   H8X21520   0.243   3.941   4.153  0.8791  1.3753 -1.1889
  187POPC   H8Y21521   0.424   3.967   4.193 -0.9859  1.5713 -1.6259
  187POPC   C3921522   0.356   3.790   4.274  0.2737 -0.1261  0.1172
  187POPC   H9X21523   0.460   3.752   4.267 -0.0626 -1.1050  0.2299
  187POPC   H9Y21524   0.285   3.705   4.259 -0.9715  0.8378  0.4113
  187POPC  C31021525   0.329   3.837   4.413  1.1797 -0.1054  0.1325
  187POPC  H10X21526   0.233   3.893   4.424  2.3509  1.8655  0.8808
  187POPC  H10Y21527   0.405   3.912   4.445 -1.8056  3.2920 -0.0201
  187POPC  C31121528   0.324   3.727   4.516 -1.1470 -0.7261 -0.2083
  187POPC  H11X21529   0.427   3.685   4.517 -1.6211 -1.9869 -1.2042
  187POPC  H11Y21530   0.256   3.640   4.498 -1.0092 -0.5143 -1.8251
  187POPC  C31221531   0.319   3.781   4.659  0.0860 -0.0979  0.2863
  187POPC  H12X21532   0.246   3.864   4.649  0.5018  0.1202 -1.1080
  187POPC  H12Y21533   0.420   3.813   4.693  0.0128  0.5919 -0.1107
  187POPC  C31321534   0.270   3.684   4.770 -0.6258 -0.1082  0.7646
  187POPC  H13X21535   0.341   3.599   4.770 -1.0275 -0.6563 -3.1113
  187POPC  H13Y21536   0.170   3.646   4.738 -0.2742 -1.0912  0.7850
  187POPC  C31421537   0.246   3.770   4.899  0.6355  1.0703  0.3386
  187POPC  H14X21538   0.164   3.843   4.886  0.5324  1.1221  1.2169
  187POPC  H14Y21539   0.339   3.821   4.932  0.8198 -0.9244  3.3152
  187POPC  C31521540   0.216   3.689   5.025 -0.0090 -0.0022  0.0631
  187POPC  H15X21541   0.132   3.618   5.012 -1.3559  1.4421  0.5763
  187POPC  H15Y21542   0.161   3.764   5.086 -1.2706  0.4226 -1.5318
  187POPC  C31621543   0.335   3.626   5.090 -0.3292  0.5951 -0.3568
  187POPC  H16X21544   0.307   3.564   5.178  0.1210 -1.1882 -1.4189
  187POPC  H16Y21545   0.410   3.701   5.125 -2.5123  2.2856  0.9532
  187POPC  H16Z21546   0.378   3.549   5.023  1.0368  1.9015 -1.0262
  188POPC     N21547   0.142   1.326   2.394  0.5591  0.1884 -0.4812
  188POPC   C1221548   0.152   1.282   2.537 -0.2169  0.2533 -0.3817
  188POPC  H12A21549   0.256   1.273   2.563  0.5409 -0.8202 -3.3675
  188POPC  H12B21550   0.109   1.184   2.549  1.5585 -0.6942 -1.3002
  188POPC   C1321551   0.013   1.377   2.371 -0.4826  0.2624  0.7846
  188POPC  H13A21552   0.010   1.404   2.266  0.1198  0.0724  0.7143
  188POPC  H13B21553  -0.069   1.309   2.392  0.5655 -1.7720 -1.2246
  188POPC  H13C21554  -0.005   1.471   2.421  1.2212  2.6551 -2.6452
  188POPC   C1421555   0.240   1.436   2.368  0.0790  0.3173  0.3750
  188POPC  H14A21556   0.230   1.516   2.440 -0.0192 -0.4502  1.2274
  188POPC  H14B21557   0.338   1.400   2.395 -0.1521 -0.1907  0.5363
  188POPC  H14C21558   0.237   1.484   2.271  0.2876  2.6464  1.4348
  188POPC   C1521559   0.169   1.204   2.302  0.7187 -0.3178  0.6304
  188POPC  H15A21560   0.157   1.214   2.195 -1.0690 -0.6350  0.7667
  188POPC  H15B21561   0.093   1.131   2.328 -0.1644  0.2428 -0.2841
  188POPC  H15C21562   0.265   1.161   2.326  0.5972 -0.2494  1.2354
  188POPC   C1121563   0.078   1.373   2.643 -0.4756 -0.7798 -0.3498
  188POPC  H11A21564   0.124   1.474   2.631  2.1601 -1.9041 -0.2591
  188POPC  H11B21565   0.117   1.346   2.744  0.7145  2.0796  0.0665
  188POPC     P21566  -0.152   1.247   2.691  0.4703 -0.3837  0.0882
  188POPC   O1321567  -0.082   1.128   2.642 -0.1986 -0.8715 -0.3805
  188POPC   O1421568  -0.292   1.268   2.639  0.2978 -0.9263 -0.0381
  188POPC   O1221569  -0.068   1.374   2.645 -0.4607 -0.3144  0.0171
  188POPC   O1121570  -0.145   1.244   2.845  0.7870  0.8128  0.3544
  188POPC    C121571  -0.186   1.347   2.932 -0.6024  0.3390  0.2549
  188POPC    HA21572  -0.215   1.298   3.027 -0.0977  1.5025  1.0302
  188POPC    HB21573  -0.271   1.410   2.896  1.1547  1.7136 -1.7461
  188POPC    C221574  -0.068   1.440   2.976 -0.0906  0.2670 -0.8775
  188POPC    HS21575  -0.008   1.439   2.882 -0.9272 -3.1492 -1.4925
  188POPC   O2121576   0.005   1.374   3.083  0.1141 -0.0819 -0.1954
  188POPC   C2121577   0.125   1.424   3.115  0.7768 -0.0865  1.0248
  188POPC   O2221578   0.178   1.527   3.066 -0.3635 -0.3863  0.4066
  188POPC   C2221579   0.178   1.352   3.242  0.4259 -0.7365  0.7371
  188POPC   H2R21580   0.152   1.246   3.224  0.7397 -0.3750 -2.6295
  188POPC   H2S21581   0.100   1.390   3.311  0.3881  0.3442  0.1259
  188POPC    C321582  -0.122   1.588   3.010 -0.3364  0.2419  0.0764
  188POPC    HX21583  -0.161   1.628   2.914 -1.7342 -2.2725 -0.5022
  188POPC    HY21584  -0.040   1.657   3.040 -0.7973  1.0374 -0.4615
  188POPC   O3121585  -0.218   1.571   3.105  0.4817  0.0906 -0.3321
  188POPC   C3121586  -0.208   1.652   3.210  0.0623  0.0125 -0.4745
  188POPC   O3221587  -0.145   1.756   3.219  0.1408 -0.3256  0.2776
  188POPC   C3221588  -0.303   1.609   3.315  0.1094 -0.2683  0.0658
  188POPC   H2X21589  -0.407   1.587   3.283  0.2810 -0.8083 -0.1272
  188POPC   H2Y21590  -0.306   1.695   3.385  0.2457 -0.7440  0.6630
  188POPC   C2321591   0.313   1.383   3.288 -0.9285 -0.4865 -0.2891
  188POPC   H3R21592   0.340   1.474   3.231 -0.6403  0.5507  1.4420
  188POPC   H3S21593   0.384   1.308   3.247 -1.2782 -1.3540  0.6577
  188POPC   C2421594   0.325   1.396   3.445  0.0050 -0.3980 -0.0812
  188POPC   H4R21595   0.255   1.478   3.469 -2.0101 -1.1248 -2.9886
  188POPC   H4S21596   0.426   1.435   3.469 -0.5928  0.6182  0.8261
  188POPC   C2521597   0.307   1.274   3.528  0.3956  0.9437  0.7574
  188POPC   H5R21598   0.370   1.191   3.491 -1.3820 -0.1402  0.0734
  188POPC   H5S21599   0.201   1.247   3.510  1.1412 -1.4276 -0.4213
  188POPC   C2621600   0.327   1.291   3.681  0.7974 -0.0980  0.7524
  188POPC   H6R21601   0.298   1.391   3.720  1.9126  1.1701 -1.4756
  188POPC   H6S21602   0.434   1.275   3.705  0.2137 -1.3937  2.7497
  188POPC   C2721603   0.243   1.184   3.754 -0.0227  0.7580  0.4213
  188POPC   H7R21604   0.282   1.089   3.711  0.4192  1.2539 -0.2969
  188POPC   H7S21605   0.139   1.193   3.715  0.8995  3.6185 -1.7772
  188POPC   C2821606   0.252   1.181   3.906  0.1177  0.0492  0.1387
  188POPC   H8R21607   0.356   1.148   3.924  0.8150 -0.5486 -3.9761
  188POPC   H8S21608   0.207   1.084   3.938  2.8929 -2.1485 -2.0450
  188POPC   C2921609   0.195   1.291   3.989  0.2594 -0.0590  0.1465
  188POPC   H9121610   0.188   1.388   3.938 -0.0348 -1.1166 -1.9288
  188POPC  C21021611   0.186   1.287   4.125 -0.2317  0.6819 -0.3141
  188POPC  H10121612   0.151   1.373   4.185 -0.1300  0.9352 -0.6169
  188POPC  C21121613   0.227   1.160   4.195  0.8114 -0.1464  0.1488
  188POPC  H11R21614   0.315   1.180   4.260  0.4601 -1.3664  1.0320
  188POPC  H11S21615   0.259   1.071   4.137  0.2772 -0.6659  0.6402
  188POPC  C21221616   0.106   1.091   4.282 -0.6033 -0.4595  0.1287
  188POPC  H12R21617   0.017   1.081   4.217  0.0999 -0.8436 -0.7979
  188POPC  H12S21618   0.077   1.162   4.363  1.5596  1.0883 -0.3648
  188POPC  C21321619   0.156   0.968   4.372 -0.3594  0.8187  0.3089
  188POPC  H13R21620   0.220   1.000   4.457 -0.4162  0.5405  0.4568
  188POPC  H13S21621   0.208   0.901   4.300  1.6348  1.5239  1.0125
  188POPC  C21421622   0.029   0.916   4.436  0.2410 -0.4195 -0.6119
  188POPC  H14R21623  -0.035   0.870   4.357 -1.4782  0.3177  0.2925
  188POPC  H14S21624  -0.028   0.996   4.489 -4.0373 -2.5864 -1.4473
  188POPC  C21521625   0.058   0.806   4.541 -0.0956  0.4468 -0.3605
  188POPC  H15R21626   0.123   0.846   4.621 -1.9358 -0.7637  1.8510
  188POPC  H15S21627   0.109   0.726   4.482  1.3462 -0.1460  1.6049
  188POPC  C21621628  -0.070   0.741   4.605 -0.1790  0.2009  0.2565
  188POPC  H16R21629  -0.164   0.798   4.587 -0.8932 -1.2665 -0.9296
  188POPC  H16S21630  -0.053   0.747   4.715 -0.3350 -2.4004  0.4817
  188POPC  C21721631  -0.097   0.598   4.567 -0.2957  0.3657  0.8376
  188POPC  H17R21632  -0.195   0.561   4.603 -0.8368 -0.9355 -1.7005
  188POPC  H17S21633  -0.026   0.543   4.633  1.2541  0.7756 -0.4072
  188POPC  C21821634  -0.077   0.551   4.423 -0.1136 -0.2807  0.1276
  188POPC  H18R21635  -0.116   0.625   4.350  2.2510  0.7329 -0.2077
  188POPC  H18S21636  -0.136   0.458   4.408  1.2733 -1.1794  0.0806
  188POPC  H18T21637   0.025   0.531   4.382 -0.8418 -1.8300 -1.0239
  188POPC   C3321638  -0.246   1.487   3.381  0.6262  0.0938 -0.0009
  188POPC   H3X21639  -0.202   1.420   3.304 -1.4964  0.5903 -1.7369
  188POPC   H3Y21640  -0.318   1.428   3.442  0.7080 -0.8356 -0.7845
  188POPC   C3421641  -0.135   1.524   3.485  0.4158 -0.3584 -0.0149
  188POPC   H4X21642  -0.156   1.619   3.540  0.9087 -0.7207  0.8253
  188POPC   H4Y21643  -0.047   1.539   3.419  0.4830  1.2072  0.3672
  188POPC   C3521644  -0.101   1.423   3.583 -0.4519  0.2891  0.2983
  188POPC   H5X21645   0.009   1.418   3.598 -0.1441 -1.2598 -2.0341
  188POPC   H5Y21646  -0.126   1.322   3.544  0.2043 -0.5787  2.0138
  188POPC   C3621647  -0.162   1.450   3.719  0.9674 -0.6117 -0.3470
  188POPC   H6X21648  -0.273   1.444   3.728  1.1039 -0.1928  2.4896
  188POPC   H6Y21649  -0.141   1.555   3.749  0.1322 -0.9203  1.5115
  188POPC   C3721650  -0.107   1.353   3.829  0.5666 -0.4200 -0.3844
  188POPC   H7X21651  -0.131   1.394   3.930  1.6062 -1.6762  0.4079
  188POPC   H7Y21652   0.004   1.359   3.823  0.5254  0.5219 -0.3843
  188POPC   C3821653  -0.154   1.206   3.809 -0.5818 -0.2991  0.7604
  188POPC   H8X21654  -0.138   1.181   3.702  0.5524  2.5231  0.1693
  188POPC   H8Y21655  -0.263   1.209   3.831 -0.7487  0.3291 -0.0949
  188POPC   C3921656  -0.086   1.111   3.910 -0.0069  0.4889  0.8014
  188POPC   H9X21657  -0.039   1.166   3.994  3.4452  0.2111 -0.7460
  188POPC   H9Y21658  -0.002   1.068   3.852 -1.1608 -1.4586  0.4861
  188POPC  C31021659  -0.175   0.997   3.955  0.6189 -0.2258 -0.3785
  188POPC  H10X21660  -0.252   0.983   3.876  0.2459 -1.1615  0.1423
  188POPC  H10Y21661  -0.213   1.028   4.055 -0.1080  2.3355 -1.3631
  188POPC  C31121662  -0.089   0.874   3.978 -0.8450  0.4253  0.4670
  188POPC  H11X21663   0.002   0.892   4.039  0.5692  0.9408 -1.6562
  188POPC  H11Y21664  -0.048   0.845   3.879 -0.4140  1.4281  0.3393
  188POPC  C31221665  -0.168   0.753   4.032  0.0669  0.5991  0.2232
  188POPC  H12X21666  -0.255   0.727   3.968 -1.0825  0.3695  1.8209
  188POPC  H12Y21667  -0.209   0.791   4.128 -2.2703  2.3658 -1.3426
  188POPC  C31321668  -0.090   0.619   4.044  0.4827  0.6431  0.4786
  188POPC  H13X21669  -0.152   0.544   4.097 -1.5015  2.1073  0.3242
  188POPC  H13Y21670  -0.001   0.626   4.110  1.8036  0.3942 -1.2184
  188POPC  C31421671  -0.044   0.551   3.914 -0.6464  0.2354 -1.4271
  188POPC  H14X21672   0.031   0.615   3.863  0.2615  0.5339  0.2325
  188POPC  H14Y21673  -0.129   0.536   3.844 -1.8459  1.9402 -0.4084
  188POPC  C31521674   0.014   0.405   3.925  0.0318 -0.0674 -0.1978
  188POPC  H15X21675  -0.075   0.339   3.933 -1.6766  2.1244 -0.0979
  188POPC  H15Y21676   0.088   0.391   4.007 -1.5963  0.0591  1.3473
  188POPC  C31621677   0.094   0.377   3.798  0.5293 -0.6410  0.5959
  188POPC  H16X21678   0.192   0.425   3.818 -0.5228  0.8525  2.5345
  188POPC  H16Y21679   0.042   0.425   3.712  0.8414  0.9375  1.2510
  188POPC  H16Z21680   0.111   0.267   3.790 -0.9110 -0.8118 -0.7553
  189SAPI   C1221681   2.651   2.373   7.414 -0.2173  0.1187  0.4262
  189SAPI    H221682   2.554   2.353   7.465 -0.3416  0.2792  0.2591
  189SAPI    O221683   2.703   2.493   7.471  0.2854  0.5213  0.6326
  189SAPI   HO221684   2.641   2.560   7.440 -3.0414 -2.5053 -0.0163
  189SAPI   C1321685   2.739   2.249   7.434  1.0467 -0.3988 -0.3551
  189SAPI    H321686   2.694   2.159   7.386 -3.0146  0.8753  0.6733
  189SAPI    O321687   2.746   2.215   7.569  0.4255  0.1934  0.4333
  189SAPI   HO321688   2.791   2.131   7.564 -0.4307 -0.2011 -1.3726
  189SAPI   C1421689   2.877   2.270   7.374 -0.7213  0.3397 -0.6080
  189SAPI    H421690   2.921   2.344   7.444 -2.3340  1.0453 -0.3081
  189SAPI    O421691   2.949   2.147   7.385  0.4640 -0.3335 -0.1485
  189SAPI   HO421692   3.041   2.167   7.400  0.3443  0.1559 -0.0255
  189SAPI   C1521693   2.876   2.331   7.231 -0.9590 -0.0945 -0.5591
  189SAPI    H521694   2.861   2.245   7.161 -0.0361 -0.9020  0.2097
  189SAPI    O521695   3.000   2.389   7.195 -0.6362 -0.6556 -0.1873
  189SAPI   HO521696   3.012   2.472   7.242 -1.4294 -0.8361  0.3575
  189SAPI   C1621697   2.763   2.426   7.194 -0.2741 -0.3273 -0.8467
  189SAPI    H621698   2.803   2.522   7.234  2.0321 -2.1939  1.7070
  189SAPI    O621699   2.731   2.434   7.056  0.2124  0.2357 -0.0183
  189SAPI   HO621700   2.694   2.351   7.026 -0.0407 -0.6599  2.5528
  189SAPI   C1121701   2.629   2.397   7.264 -0.0471  0.1912  0.1453
  189SAPI    H121702   2.602   2.300   7.217  1.6522  0.7128 -2.0737
  189SAPI     P21703   2.378   2.492   7.213  0.0405  0.1520 -0.0321
  189SAPI   O1321704   2.291   2.611   7.249 -0.4905  0.0240  0.1782
  189SAPI   O1421705   2.339   2.362   7.274  0.0978 -0.3491  0.4161
  189SAPI   O1221706   2.540   2.513   7.243 -0.4224 -0.0090 -0.1747
  189SAPI   O1121707   2.389   2.473   7.062  0.0155  0.2179  0.5285
  189SAPI    C121708   2.414   2.591   6.978  0.2136 -0.5403 -0.5115
  189SAPI    HA21709   2.382   2.687   7.025  1.9133  1.8405 -3.8000
  189SAPI    HB21710   2.523   2.597   6.958  0.1070 -2.8948 -2.1962
  189SAPI    C221711   2.349   2.589   6.841  0.3082  0.4292 -0.0425
  189SAPI    HS21712   2.350   2.693   6.800 -1.2080  1.7067  2.8191
  189SAPI   O2121713   2.211   2.544   6.834 -0.3360 -0.0890 -0.6956
  189SAPI   C2121714   2.121   2.608   6.916  0.6518  0.0961 -0.3306
  189SAPI   O2221715   2.137   2.718   6.962 -0.5232  0.2086 -0.0850
  189SAPI   C2221716   1.997   2.519   6.928  0.0867 -0.4234 -0.4737
  189SAPI   H2R21717   1.926   2.574   6.993 -0.1639 -1.7546  0.4147
  189SAPI   H2S21718   1.939   2.512   6.834 -1.6925 -1.3917  0.6510
  189SAPI    C321719   2.434   2.497   6.745  0.1177  0.5965 -1.1760
  189SAPI    HX21720   2.423   2.397   6.790  1.3575  1.2166  0.6572
  189SAPI    HY21721   2.544   2.515   6.755  0.4142 -1.2209 -0.8420
  189SAPI   O3121722   2.388   2.492   6.608  0.0191 -0.1918 -0.2771
  189SAPI   C3121723   2.422   2.610   6.548 -0.2169  0.0789 -0.2582
  189SAPI   O3221724   2.469   2.708   6.597  0.4853  0.4817  0.2349
  189SAPI   C3221725   2.372   2.605   6.400 -0.1156  0.6732  0.3922
  189SAPI   H2X21726   2.270   2.646   6.381  0.0546  0.7095 -0.5184
  189SAPI   H2Y21727   2.364   2.498   6.373  1.6354  0.4268  0.7164
  189SAPI   C2321728   2.015   2.389   7.008 -0.6077  0.0694  0.5831
  189SAPI   H3R21729   1.920   2.351   7.049 -2.3162  3.2779 -0.0714
  189SAPI   H3S21730   2.090   2.396   7.089 -1.4483 -1.2265  1.4898
  189SAPI   C2421731   2.077   2.275   6.919  0.1220  0.1799  0.8814
  189SAPI   H4R21732   2.130   2.197   6.978 -1.1817 -2.0901 -0.7728
  189SAPI   H4S21733   2.158   2.332   6.869  0.9986  0.5635  2.6664
  189SAPI   C2521734   1.993   2.189   6.824  0.2346 -0.1753  0.2989
  189SAPI   H5R21735   1.907   2.144   6.874 -0.7505  2.6242  1.3395
  189SAPI   C2621736   2.004   2.194   6.686 -0.0937  0.2861  0.0904
  189SAPI   H6R21737   1.941   2.129   6.624 -0.4328  0.2807  0.4374
  189SAPI   C2721738   2.122   2.247   6.601 -0.1375 -0.4468 -0.2695
  189SAPI   H7R21739   2.177   2.169   6.545 -0.9792  0.6870 -2.8333
  189SAPI   H7S21740   2.201   2.296   6.662  1.4640 -2.2158 -0.8171
  189SAPI   C2821741   2.066   2.352   6.504  0.6475  0.3303 -0.3120
  189SAPI   H8R21742   2.040   2.453   6.539 -1.5921 -0.7630  1.4153
  189SAPI   C2921743   2.039   2.315   6.378  0.6047 -0.5337 -0.2109
  189SAPI   H9R21744   2.020   2.393   6.302  0.0399 -2.1949 -1.8370
  189SAPI  C21021745   2.057   2.186   6.316 -0.2024 -0.0181  1.2960
  189SAPI  H10R21746   2.032   2.095   6.376 -0.9184  0.0915  1.1687
  189SAPI  H10S21747   2.162   2.170   6.283 -0.3208  2.1675 -0.2799
  189SAPI  C21121748   1.967   2.174   6.194  0.2026  0.3384  0.0321
  189SAPI  H11R21749   1.873   2.121   6.213  1.5034 -1.4519  1.8927
  189SAPI  C21221750   1.993   2.213   6.062  0.4302  0.0255  0.0398
  189SAPI  H12R21751   1.910   2.200   5.991  0.4496 -2.7113  0.4294
  189SAPI  C21321752   2.115   2.296   6.011  0.5358 -0.0377 -0.6357
  189SAPI  H13R21753   2.167   2.234   5.935 -0.0527  0.7081 -1.6640
  189SAPI  H13S21754   2.198   2.290   6.084  1.7286  0.6402 -1.9068
  189SAPI  C21421755   2.082   2.442   5.974  0.2130  0.5817 -0.2852
  189SAPI  H14R21756   2.078   2.519   6.053  0.3871  1.3385 -0.9944
  189SAPI  C21521757   2.072   2.482   5.845  0.2924  0.0894 -0.3392
  189SAPI  H15R21758   2.063   2.591   5.829  2.0053  0.5156  1.2948
  189SAPI  C21621759   2.053   2.392   5.725 -0.3256 -0.6396 -0.4606
  189SAPI  H16R21760   2.026   2.286   5.746  0.6846 -0.6530  0.9185
  189SAPI  H16S21761   2.138   2.382   5.653  0.3960  2.0177 -0.0832
  189SAPI  C21721762   1.935   2.453   5.656 -0.1962 -0.0599 -0.1441
  189SAPI  H17R21763   1.927   2.411   5.553 -2.8494 -0.4996  0.1758
  189SAPI  H17S21764   1.943   2.563   5.640  2.5834  0.2868  2.6958
  189SAPI  C21821765   1.801   2.419   5.719  0.2032 -0.4515  0.3017
  189SAPI  H18R21766   1.817   2.432   5.828  0.8835  2.4401 -0.0643
  189SAPI  H18S21767   1.784   2.310   5.708  0.9519 -0.6345  0.8536
  189SAPI  C21921768   1.677   2.498   5.684 -0.3678  1.1808  0.3359
  189SAPI  H19R21769   1.714   2.601   5.702 -0.0747  0.9506  1.0874
  189SAPI  H19S21770   1.596   2.460   5.750 -1.4726 -3.1180 -2.9837
  189SAPI  C22021771   1.634   2.482   5.534  0.4599 -0.0970  0.0071
  189SAPI  H20R21772   1.726   2.502   5.475  0.1766 -1.7271 -1.0586
  189SAPI  H20S21773   1.555   2.556   5.508  1.1612  1.1650  1.3504
  189SAPI  H20T21774   1.598   2.380   5.507  0.3404  0.1220 -0.6808
  189SAPI   C3321775   2.456   2.669   6.287  0.3000 -0.6108  0.2006
  189SAPI   H3X21776   2.548   2.608   6.279  2.5609  2.3510  1.7345
  189SAPI   H3Y21777   2.506   2.766   6.305  0.7256 -0.7285 -0.3392
  189SAPI   C3421778   2.373   2.669   6.156  0.3929  0.0071  0.0924
  189SAPI   H4X21779   2.294   2.746   6.173  0.1462 -0.3089  0.3920
  189SAPI   H4Y21780   2.323   2.570   6.144 -0.3872  0.3022  0.7749
  189SAPI   C3521781   2.465   2.698   6.034 -0.2433  0.3066  1.0082
  189SAPI   H5X21782   2.539   2.617   6.016  0.3606  0.9482  0.5444
  189SAPI   H5Y21783   2.518   2.796   6.037  0.3999 -0.0343  1.0237
  189SAPI   C3621784   2.371   2.694   5.908 -0.8130 -0.1900  0.5647
  189SAPI   H6X21785   2.282   2.760   5.911 -1.1635 -0.2792 -3.2911
  189SAPI   H6Y21786   2.326   2.594   5.922 -1.4731  0.4436  3.8883
  189SAPI   C3721787   2.438   2.715   5.767 -0.1880  0.0370 -0.5724
  189SAPI   H7X21788   2.548   2.699   5.776 -0.0150  1.0321 -0.7831
  189SAPI   H7Y21789   2.424   2.819   5.731 -3.2984 -0.8119 -2.0874
  189SAPI   C3821790   2.395   2.614   5.661 -0.0088 -0.5982  0.8378
  189SAPI   H8X21791   2.289   2.642   5.642 -0.2967 -0.5888  2.3118
  189SAPI   H8Y21792   2.388   2.507   5.688 -0.8987 -0.5178  0.9602
  189SAPI   C3921793   2.475   2.639   5.531  0.1571 -0.1853 -0.6498
  189SAPI   H9X21794   2.567   2.576   5.531 -0.6601 -1.4306 -0.3945
  189SAPI   H9Y21795   2.493   2.746   5.508  0.2207  0.1149  0.7609
  189SAPI  C31021796   2.397   2.584   5.418  0.6489 -0.4210  0.7023
  189SAPI  H10X21797   2.287   2.595   5.432  0.4366 -1.1465 -0.2537
  189SAPI  H10Y21798   2.414   2.474   5.425 -0.3311 -0.5002  2.6537
  189SAPI  C31121799   2.445   2.646   5.287 -0.3122 -0.0353  0.7386
  189SAPI  H11X21800   2.554   2.665   5.281 -0.4872  1.0974  0.9280
  189SAPI  H11Y21801   2.389   2.741   5.273 -3.4155 -2.1016 -2.5702
  189SAPI  C31221802   2.397   2.564   5.170 -0.4624  0.1404  0.3518
  189SAPI  H12X21803   2.311   2.504   5.204 -0.9652 -0.4080 -1.7609
  189SAPI  H12Y21804   2.480   2.497   5.138 -0.6764  1.0147 -2.2850
  189SAPI  C31321805   2.347   2.646   5.052 -0.4807 -0.8750  0.1282
  189SAPI  H13X21806   2.432   2.692   4.997 -1.8851  2.9925  0.8603
  189SAPI  H13Y21807   2.287   2.729   5.095  0.6317  0.1933 -0.3267
  189SAPI  C31421808   2.259   2.563   4.955  0.6742  0.0215  0.2916
  189SAPI  H14X21809   2.241   2.612   4.856  1.3974 -2.5645 -1.2321
  189SAPI  H14Y21810   2.159   2.548   5.000  0.5640 -0.9104 -0.2267
  189SAPI  C31521811   2.305   2.421   4.931  0.0879  0.6359 -0.3994
  189SAPI  H15X21812   2.342   2.374   5.024 -0.3756 -1.0390 -1.0300
  189SAPI  H15Y21813   2.394   2.433   4.865 -0.2176  2.0695 -0.5941
  189SAPI  C31621814   2.212   2.325   4.855 -0.2252  0.3259 -0.6017
  189SAPI  H16X21815   2.176   2.372   4.761  0.6211  1.3201 -0.4609
  189SAPI  H16Y21816   2.120   2.311   4.915  0.6474  0.4931  0.8208
  189SAPI  C31721817   2.265   2.184   4.827  0.1822  0.6149 -0.2369
  189SAPI  H17X21818   2.203   2.105   4.778  1.1223 -0.9340  1.0086
  189SAPI  H17Y21819   2.282   2.136   4.925  0.1612  1.1077  0.0124
  189SAPI  C31821820   2.398   2.176   4.752  0.1816  0.5907  0.4526
  189SAPI  H18X21821   2.394   2.224   4.652  1.0525 -0.1982  0.0247
  189SAPI  H18Y21822   2.422   2.070   4.730  0.1731  0.7777 -0.5109
  189SAPI  H18Z21823   2.483   2.223   4.806 -0.4750  3.5712 -0.8764
  190SAPI   C1221824   3.382   3.513   7.584  0.2299 -0.4551  0.6867
  190SAPI    H221825   3.413   3.610   7.539  0.1840  0.3992  2.4125
  190SAPI    O221826   3.504   3.456   7.628  0.5681  0.4882  0.0992
  190SAPI   HO221827   3.506   3.380   7.569  1.5322  2.2555 -2.3156
  190SAPI   C1321828   3.311   3.554   7.704  0.2268  0.1126 -0.4837
  190SAPI    H321829   3.219   3.611   7.679  0.1430  0.7982  1.2430
  190SAPI    O321830   3.388   3.638   7.796  0.2943  0.2333  0.5078
  190SAPI   HO321831   3.346   3.724   7.803  0.6131  0.5193 -0.9119
  190SAPI   C1421832   3.249   3.441   7.785 -0.1125 -0.3168 -0.1676
  190SAPI    H421833   3.332   3.378   7.823  2.1645  2.5847 -0.0573
  190SAPI    O421834   3.165   3.486   7.897 -0.2175 -0.5460  1.0292
  190SAPI   HO421835   3.079   3.504   7.858 -0.7228 -0.5315  2.1413
  190SAPI   C1521836   3.158   3.367   7.689 -0.3365  0.1116  0.5539
  190SAPI    H521837   3.080   3.443   7.664  0.5483  0.9358  0.1961
  190SAPI    O521838   3.082   3.259   7.746  0.4062  0.0887 -0.1556
  190SAPI   HO521839   3.147   3.191   7.762  0.8385  0.3850 -0.6256
  190SAPI   C1621840   3.229   3.324   7.561 -0.2376  0.1439 -0.0195
  190SAPI    H621841   3.297   3.241   7.590 -0.4907 -2.2171 -5.0810
  190SAPI    O621842   3.132   3.273   7.468  0.2471  0.2541 -0.4996
  190SAPI   HO621843   3.184   3.210   7.419  2.5983  0.6191  1.3392
  190SAPI   C1121844   3.298   3.438   7.492  0.2345 -0.3687  0.1946
  190SAPI    H121845   3.218   3.502   7.449  0.4861 -0.2230 -0.0618
  190SAPI     P21846   3.390   3.466   7.243 -0.1213  0.1176  0.1661
  190SAPI   O1321847   3.286   3.570   7.241  0.3343 -0.0031  0.4616
  190SAPI   O1421848   3.398   3.376   7.126 -0.7569  0.0052 -0.0667
  190SAPI   O1221849   3.381   3.381   7.391  0.1292  0.6128  0.3866
  190SAPI   O1121850   3.533   3.532   7.257 -0.2835 -0.7208 -0.6207
  190SAPI    C121851   3.645   3.439   7.266 -0.0082  0.5912  0.1648
  190SAPI    HA21852   3.716   3.487   7.337 -1.5843 -0.2394  2.3816
  190SAPI    HB21853   3.621   3.337   7.304 -0.5752  0.7573  0.2477
  190SAPI    C221854   3.722   3.413   7.132 -0.6209 -0.3209  0.0985
  190SAPI    HS21855   3.674   3.323   7.087  3.1735 -1.8187 -1.3561
  190SAPI   O2121856   3.861   3.393   7.172 -0.1146 -0.1788  0.7041
  190SAPI   C2121857   3.932   3.320   7.094 -0.2407 -0.3656 -0.1163
  190SAPI   O2221858   3.894   3.249   6.999 -0.0759  0.1731 -0.2022
  190SAPI   C2221859   4.080   3.325   7.128  0.1115 -0.6711  0.0324
  190SAPI   H2R21860   4.083   3.280   7.230  0.3115  0.4874  0.5542
  190SAPI   H2S21861   4.146   3.254   7.074 -0.1444 -2.6053  2.0850
  190SAPI    C321862   3.702   3.525   7.032 -0.7369  0.3408 -0.2277
  190SAPI    HX21863   3.750   3.611   7.084  2.1399 -1.6736  0.6948
  190SAPI    HY21864   3.594   3.543   7.013 -0.3181  0.8367 -2.4376
  190SAPI   O3121865   3.765   3.512   6.903 -0.0595  0.0049 -0.6001
  190SAPI   C3121866   3.704   3.422   6.823 -0.4727 -0.9484  0.1601
  190SAPI   O3221867   3.598   3.369   6.842  0.5702 -0.4446  0.1966
  190SAPI   C3221868   3.780   3.429   6.695 -0.8597  0.2721  0.9214
  190SAPI   H2X21869   3.887   3.423   6.726 -0.7195 -0.6406  0.2835
  190SAPI   H2Y21870   3.755   3.518   6.633  0.9497  1.6993  2.1078
  190SAPI   C2321871   4.146   3.468   7.124  0.5537 -0.4659  0.1753
  190SAPI   H3R21872   4.200   3.486   7.220  1.5210 -0.4963 -0.3485
  190SAPI   H3S21873   4.067   3.546   7.117  0.3383 -0.6265  0.7736
  190SAPI   C2421874   4.254   3.481   7.013 -0.0275 -0.7098 -0.7044
  190SAPI   H4R21875   4.205   3.447   6.919  0.0103 -0.9383 -0.6425
  190SAPI   H4S21876   4.335   3.411   7.043 -1.3587 -2.2989 -0.6765
  190SAPI   C2521877   4.317   3.613   7.018  0.4350  0.2451  0.8446
  190SAPI   H5R21878   4.350   3.640   7.120  0.2478  0.0250  0.9654
  190SAPI   C2621879   4.329   3.699   6.911  0.0780 -0.6940  0.0692
  190SAPI   H6R21880   4.395   3.787   6.916 -0.2985 -0.4311  0.5213
  190SAPI   C2721881   4.255   3.668   6.782 -0.3047 -0.0614  0.2999
  190SAPI   H7R21882   4.146   3.659   6.805 -0.7077  1.9996 -0.6210
  190SAPI   H7S21883   4.285   3.569   6.741  1.1323  1.4462 -2.5285
  190SAPI   C2821884   4.269   3.785   6.683  0.2830  0.5539  0.7761
  190SAPI   H8R21885   4.259   3.887   6.724  1.2085  1.2224 -0.5949
  190SAPI   C2921886   4.284   3.777   6.552  0.2645 -0.0583 -0.6303
  190SAPI   H9R21887   4.311   3.871   6.503  2.3363 -0.5617 -0.5145
  190SAPI  C21021888   4.272   3.654   6.467 -0.0092  0.0579 -0.5195
  190SAPI  H10R21889   4.298   3.556   6.512  0.0198 -0.6638 -2.0415
  190SAPI  H10S21890   4.347   3.678   6.388  0.6392  1.0890  0.3852
  190SAPI  C21121891   4.138   3.641   6.400  0.8298  0.2671  0.5002
  190SAPI  H11R21892   4.058   3.595   6.460 -1.0173  2.0502 -0.4805
  190SAPI  C21221893   4.112   3.671   6.272  0.0788  0.0099  0.2107
  190SAPI  H12R21894   4.019   3.634   6.225  0.2431  1.6348 -1.5216
  190SAPI  C21321895   4.203   3.728   6.169 -0.3235  0.2871 -0.5698
  190SAPI  H13R21896   4.166   3.691   6.071 -1.4800 -0.4352  0.1182
  190SAPI  H13S21897   4.301   3.676   6.173 -0.6664 -0.4972 -1.7456
  190SAPI  C21421898   4.195   3.878   6.174  0.5796 -0.4517 -0.1815
  190SAPI  H14R21899   4.203   3.925   6.273  0.7739 -0.2037 -0.3131
  190SAPI  C21521900   4.167   3.954   6.074  0.0138 -0.3669 -0.0457
  190SAPI  H15R21901   4.158   4.062   6.091 -2.0250 -0.3453 -0.9787
  190SAPI  C21621902   4.156   3.926   5.926 -0.3225  0.0363 -1.2196
  190SAPI  H16R21903   4.062   3.970   5.886  0.0634  0.2626 -1.8829
  190SAPI  H16S21904   4.142   3.817   5.911 -0.0941 -0.1497 -0.1825
  190SAPI  C21721905   4.274   3.987   5.853  0.1209 -0.4511  0.2626
  190SAPI  H17R21906   4.364   3.943   5.900 -0.6546 -2.1686  0.2229
  190SAPI  H17S21907   4.278   4.095   5.879 -0.0017 -0.4895  0.4447
  190SAPI  C21821908   4.270   3.972   5.700  0.2782 -0.2113 -0.2679
  190SAPI  H18R21909   4.234   3.867   5.692  2.6725 -0.9987 -1.5814
  190SAPI  H18S21910   4.378   3.972   5.676  0.9434 -2.7187  2.1771
  190SAPI  C21921911   4.175   4.079   5.632  0.6290 -0.4930  0.3553
  190SAPI  H19R21912   4.145   4.154   5.708 -1.5388  0.0557 -0.9414
  190SAPI  H19S21913   4.082   4.029   5.597  0.5450 -0.4262  0.4828
  190SAPI  C22021914   4.234   4.148   5.506  0.5032  0.1858 -0.1320
  190SAPI  H20R21915   4.178   4.239   5.477  0.2486 -0.1856 -0.8213
  190SAPI  H20S21916   4.228   4.074   5.423 -2.5482 -0.3894  0.5054
  190SAPI  H20T21917   4.341   4.179   5.517  0.3905  1.1133 -1.4130
  190SAPI   C3321918   3.755   3.305   6.598  0.0724 -0.9828  0.3642
  190SAPI   H3X21919   3.717   3.224   6.663 -0.9832 -0.2020  0.7402
  190SAPI   H3Y21920   3.849   3.276   6.546 -0.5886 -0.6358 -1.0611
  190SAPI   C3421921   3.640   3.336   6.501 -0.1289 -0.1782  0.0570
  190SAPI   H4X21922   3.651   3.438   6.458  0.7085  0.0394  0.7717
  190SAPI   H4Y21923   3.548   3.326   6.562  2.0407 -0.6147  3.5336
  190SAPI   C3521924   3.637   3.237   6.381  0.1081 -0.3238  0.2834
  190SAPI   H5X21925   3.729   3.241   6.320 -0.9533  1.0836 -1.3230
  190SAPI   H5Y21926   3.546   3.247   6.318 -0.2642  0.5533  0.9330
  190SAPI   C3621927   3.630   3.099   6.421  0.3942  0.2401  0.4595
  190SAPI   H6X21928   3.538   3.077   6.479 -1.0404 -2.2537 -2.4718
  190SAPI   H6Y21929   3.715   3.071   6.488  0.4945 -1.2192 -0.2263
  190SAPI   C3721930   3.630   2.993   6.305 -0.1544 -0.0904 -0.5042
  190SAPI   H7X21931   3.726   3.009   6.251  0.3683 -1.7326 -0.1138
  190SAPI   H7Y21932   3.540   3.000   6.240 -0.3269  0.7552 -0.1831
  190SAPI   C3821933   3.636   2.847   6.357 -0.5534  0.7113  0.3610
  190SAPI   H8X21934   3.552   2.838   6.430 -1.7602 -0.7616 -1.1216
  190SAPI   H8Y21935   3.737   2.845   6.402  0.3215 -0.1845 -1.5424
  190SAPI   C3921936   3.613   2.741   6.241  0.4694 -0.5184  0.0156
  190SAPI   H9X21937   3.504   2.738   6.222  0.1588  4.5881 -0.3288
  190SAPI   H9Y21938   3.645   2.640   6.276  0.7155 -1.1910 -2.0325
  190SAPI  C31021939   3.690   2.770   6.110 -0.0526  0.5635 -0.1511
  190SAPI  H10X21940   3.787   2.814   6.142  0.1649 -0.0446  0.0255
  190SAPI  H10Y21941   3.634   2.846   6.051 -0.0085  1.4882  0.9587
  190SAPI  C31121942   3.715   2.646   6.031  0.1065  0.8158  0.0364
  190SAPI  H11X21943   3.624   2.587   6.005  1.1808 -0.0673 -1.9677
  190SAPI  H11Y21944   3.785   2.578   6.085  0.6032  0.7820 -0.6394
  190SAPI  C31221945   3.781   2.681   5.896 -0.7549 -0.7079  0.3874
  190SAPI  H12X21946   3.841   2.592   5.866  1.0462  0.7661 -0.6227
  190SAPI  H12Y21947   3.852   2.764   5.918  0.9254 -1.9044 -0.3313
  190SAPI  C31321948   3.692   2.730   5.779 -0.3584  0.5812 -0.2459
  190SAPI  H13X21949   3.666   2.834   5.807 -0.2413  0.6783 -0.4929
  190SAPI  H13Y21950   3.597   2.673   5.769  1.0064 -1.4671 -2.7452
  190SAPI  C31421951   3.761   2.724   5.647 -0.8084  0.3917  0.1732
  190SAPI  H14X21952   3.761   2.618   5.613 -2.1384 -0.1938  1.8397
  190SAPI  H14Y21953   3.862   2.770   5.647 -0.9850  0.7825 -0.6650
  190SAPI  C31521954   3.681   2.808   5.545  0.3439  0.1019  0.0295
  190SAPI  H15X21955   3.656   2.905   5.593 -0.2389  0.2750 -0.6088
  190SAPI  H15Y21956   3.581   2.761   5.537 -0.3638  1.3683  1.0800
  190SAPI  C31621957   3.743   2.827   5.406  0.5835 -0.6875  0.3002
  190SAPI  H16X21958   3.739   2.733   5.348  1.1191 -0.3003 -0.3780
  190SAPI  H16Y21959   3.849   2.859   5.412  0.0082  1.1045  1.9604
  190SAPI  C31721960   3.658   2.930   5.333  0.3449  0.5100  0.2945
  190SAPI  H17X21961   3.639   3.015   5.401  0.5337 -0.5864  1.7841
  190SAPI  H17Y21962   3.555   2.891   5.325  0.2303  0.9919 -0.6787
  190SAPI  C31821963   3.704   2.966   5.192 -0.1264  0.1069 -0.5719
  190SAPI  H18X21964   3.715   2.874   5.131  0.0069  0.2516 -0.7634
  190SAPI  H18Y21965   3.804   3.014   5.192 -1.1761  2.4437 -1.7285
  190SAPI  H18Z21966   3.632   3.029   5.135 -0.0031  2.1528  1.3738
  191SAPI   C1221967   6.432   1.674   2.592 -0.6960  0.1277  0.5063
  191SAPI    H221968   6.400   1.650   2.489 -1.8987 -1.3673  1.1869
  191SAPI    O221969   6.549   1.608   2.639 -0.8355  0.0295  0.5390
  191SAPI   HO221970   6.533   1.513   2.635  1.0021 -0.2715 -2.1669
  191SAPI   C1321971   6.462   1.826   2.597  0.3171  0.4658  0.6830
  191SAPI    H321972   6.374   1.888   2.568  0.5471  0.2556 -0.5175
  191SAPI    O321973   6.562   1.871   2.507  0.8934  0.0142 -0.0069
  191SAPI   HO321974   6.641   1.821   2.527 -0.2785 -1.9559 -0.0906
  191SAPI   C1421975   6.494   1.872   2.740  0.1268 -0.2620 -0.1595
  191SAPI    H421976   6.598   1.839   2.760 -0.4398 -1.3150  1.2139
  191SAPI    O421977   6.503   2.017   2.754  0.4394  0.7196 -0.0643
  191SAPI   HO421978   6.423   2.056   2.791 -0.6075 -0.9894 -0.4339
  191SAPI   C1521979   6.406   1.814   2.848  0.6659 -0.9312  1.1044
  191SAPI    H521980   6.315   1.876   2.839  1.1631 -0.4984 -2.3145
  191SAPI    O521981   6.457   1.827   2.981 -0.3926  0.5007  0.7077
  191SAPI   HO521982   6.394   1.884   3.024 -1.1287 -1.5334  2.5118
  191SAPI   C1621983   6.342   1.672   2.823 -0.2547 -0.2124 -0.1595
  191SAPI    H621984   6.420   1.600   2.856  1.0166  1.5815  0.9169
  191SAPI    O621985   6.213   1.655   2.893  0.1249 -0.2528  0.4791
  191SAPI   HO621986   6.174   1.583   2.843 -1.1519  0.4515  0.4115
  191SAPI   C1121987   6.321   1.636   2.677  0.4996 -0.0148 -0.6448
  191SAPI    H121988   6.234   1.696   2.644  1.2271  0.1429 -2.3885
  191SAPI     P21989   6.155   1.431   2.630 -0.5014 -0.3198  0.3742
  191SAPI   O1321990   6.167   1.284   2.601 -0.3885  0.1672  0.0518
  191SAPI   O1421991   6.090   1.524   2.535  0.4697  0.0270 -0.5413
  191SAPI   O1221992   6.299   1.497   2.663 -0.2786 -1.0218 -0.3069
  191SAPI   O1121993   6.091   1.444   2.775  0.3798 -0.1686  0.5406
  191SAPI    C121994   5.948   1.420   2.782  0.2435  0.9040  0.0467
  191SAPI    HA21995   5.898   1.439   2.685 -1.3146 -0.6891  0.4731
  191SAPI    HB21996   5.920   1.314   2.802 -0.3107  0.9983 -0.2106
  191SAPI    C221997   5.883   1.514   2.891  0.7411 -0.2328  0.0957
  191SAPI    HS21998   5.897   1.617   2.852 -0.2233  0.0207  0.3705
  191SAPI   O2121999   5.960   1.503   3.014 -0.0573 -0.5865  0.3976
  191SAPI   C2122000   5.957   1.616   3.089  0.0045  0.0550  0.1441
  191SAPI   O2222001   5.910   1.722   3.052  0.0802 -0.3462  0.3072
  191SAPI   C2222002   6.016   1.595   3.231  0.6186 -0.2288  0.8831
  191SAPI   H2R22003   5.984   1.491   3.251 -3.9750  0.8506  0.3097
  191SAPI   H2S22004   6.127   1.591   3.218  0.4541  1.5663 -2.3034
  191SAPI    C322005   5.728   1.485   2.913  0.2050 -0.8076 -0.4142
  191SAPI    HX22006   5.676   1.498   2.815 -0.9577  2.3065  0.5158
  191SAPI    HY22007   5.688   1.568   2.974 -0.6046 -1.5952  0.1656
  191SAPI   O3122008   5.702   1.356   2.975  0.5071  0.7510  0.5372
  191SAPI   C3122009   5.702   1.349   3.100 -0.2778  0.4022  0.3390
  191SAPI   O3222010   5.719   1.436   3.179  0.0700  0.3919  0.3847
  191SAPI   C3222011   5.686   1.198   3.129  0.0021 -0.1608  0.1443
  191SAPI   H2X22012   5.752   1.142   3.059  0.0833 -0.0465  0.1301
  191SAPI   H2Y22013   5.586   1.165   3.091  0.1685 -2.7476  1.6851
  191SAPI   C2322014   5.952   1.697   3.327 -0.7680 -0.3819  0.1547
  191SAPI   H3R22015   5.968   1.668   3.433  1.6617  0.1669 -0.0085
  191SAPI   H3S22016   5.841   1.694   3.318 -0.6824 -2.0480 -0.7554
  191SAPI   C2422017   6.013   1.844   3.326 -0.1959  0.1874  0.7960
  191SAPI   H4R22018   5.971   1.897   3.414 -0.7933 -0.7700  1.0946
  191SAPI   H4S22019   5.983   1.901   3.236  0.3912 -1.2209 -0.3317
  191SAPI   C2522020   6.165   1.843   3.351  0.0375  0.0936  0.5720
  191SAPI   H5R22021   6.230   1.834   3.262  0.8677 -0.1742  1.1907
  191SAPI   C2622022   6.217   1.827   3.472  0.3156  0.1218  0.5946
  191SAPI   H6R22023   6.325   1.809   3.482 -0.2026 -2.6074  2.4798
  191SAPI   C2722024   6.141   1.815   3.601 -0.3620  0.6378  0.1656
  191SAPI   H7R22025   6.037   1.793   3.571 -0.3264  0.8508 -0.1170
  191SAPI   H7S22026   6.142   1.916   3.649  1.0317  1.5970 -1.7643
  191SAPI   C2822027   6.178   1.700   3.688 -0.0016 -1.0539 -0.0585
  191SAPI   H8R22028   6.197   1.606   3.634 -1.0087 -1.1029 -0.3470
  191SAPI   C2922029   6.184   1.698   3.824 -0.4461  0.6759 -0.0825
  191SAPI   H9R22030   6.206   1.601   3.872  2.4890  1.3440  0.0555
  191SAPI  C21022031   6.143   1.811   3.908 -0.3113 -0.0224  0.2186
  191SAPI  H10R22032   6.107   1.903   3.857  3.3681  2.7480  2.1974
  191SAPI  H10S22033   6.226   1.846   3.972 -0.0359  0.9761 -0.6512
  191SAPI  C21122034   6.027   1.766   3.994  0.1505 -0.4335 -1.1074
  191SAPI  H11R22035   5.934   1.747   3.938 -1.1290 -0.5678  0.9428
  191SAPI  C21222036   6.018   1.751   4.130 -0.6428  0.2122  0.4210
  191SAPI  H12R22037   5.927   1.701   4.166  0.1748 -0.3170  1.8393
  191SAPI  C21322038   6.130   1.758   4.232 -0.3104  0.3218  0.4042
  191SAPI  H13R22039   6.208   1.831   4.203 -0.7722  0.3833 -0.7093
  191SAPI  H13S22040   6.182   1.660   4.239 -1.7237 -0.6494 -1.6476
  191SAPI  C21422041   6.062   1.802   4.358 -1.3936 -0.1337 -0.3031
  191SAPI  H14R22042   5.986   1.881   4.366 -0.4333  0.6743  2.1321
  191SAPI  C21522043   6.086   1.739   4.476 -0.3913  0.1589  0.4968
  191SAPI  H15R22044   6.026   1.766   4.564  1.0921  1.3794  1.1817
  191SAPI  C21622045   6.168   1.612   4.494  0.3491 -1.0349  0.2904
  191SAPI  H16R22046   6.276   1.634   4.481  0.6818 -2.7950 -0.0951
  191SAPI  H16S22047   6.127   1.543   4.417  0.2810 -0.5507 -0.1146
  191SAPI  C21722048   6.150   1.548   4.633  0.6320 -0.3577  0.2677
  191SAPI  H17R22049   6.192   1.445   4.638  1.6249  0.0336  0.2266
  191SAPI  H17S22050   6.044   1.518   4.635 -0.2428  2.3802 -0.6041
  191SAPI  C21822051   6.177   1.626   4.766  0.5839  0.1489 -0.1295
  191SAPI  H18R22052   6.118   1.583   4.850  0.2259 -0.1811 -0.5472
  191SAPI  H18S22053   6.138   1.730   4.758 -0.8517 -0.3947 -0.4322
  191SAPI  C21922054   6.324   1.644   4.809 -0.0691 -0.7994 -0.4342
  191SAPI  H19R22055   6.325   1.692   4.909 -1.1572 -1.8892  0.1306
  191SAPI  H19S22056   6.365   1.724   4.744 -0.1299 -0.4804 -0.0773
  191SAPI  C22022057   6.415   1.525   4.805 -0.5302 -0.0051  0.2864
  191SAPI  H20R22058   6.423   1.471   4.708  0.6176 -1.9735  1.4039
  191SAPI  H20S22059   6.396   1.451   4.886  2.2213 -0.9921  0.1301
  191SAPI  H20T22060   6.515   1.560   4.837 -0.5151  0.2844 -0.0735
  191SAPI   C3322061   5.733   1.154   3.267 -0.2719  0.6090 -0.4758
  191SAPI   H3X22062   5.833   1.198   3.287 -0.6579  1.9433 -1.3814
  191SAPI   H3Y22063   5.749   1.044   3.267  1.5583  0.7921  1.7837
  191SAPI   C3422064   5.647   1.193   3.386  0.4928  0.0134 -0.1035
  191SAPI   H4X22065   5.573   1.114   3.408 -1.1176  1.4564 -0.1360
  191SAPI   H4Y22066   5.587   1.281   3.356 -0.3776 -0.1834  1.0300
  191SAPI   C3522067   5.748   1.222   3.503 -0.6790 -0.4893  0.0522
  191SAPI   H5X22068   5.837   1.157   3.488 -0.6253 -0.7967  1.5330
  191SAPI   H5Y22069   5.689   1.192   3.593 -0.2278  2.5601  1.4977
  191SAPI   C3622070   5.785   1.370   3.516 -0.6797 -0.1763  0.3275
  191SAPI   H6X22071   5.694   1.434   3.511 -0.6742 -0.2091 -0.2212
  191SAPI   H6Y22072   5.855   1.394   3.433 -1.5192 -1.7847 -0.9023
  191SAPI   C3722073   5.868   1.403   3.637 -0.3160 -0.0607 -0.1247
  191SAPI   H7X22074   5.938   1.489   3.643  0.0822 -0.4930  2.9379
  191SAPI   H7Y22075   5.937   1.316   3.643  1.1572  0.8453 -2.6096
  191SAPI   C3822076   5.788   1.425   3.758  0.2441 -0.1016 -0.5835
  191SAPI   H8X22077   5.683   1.392   3.743 -0.3737  1.7128 -0.5044
  191SAPI   H8Y22078   5.773   1.534   3.775 -2.7881 -0.5906  0.4724
  191SAPI   C3922079   5.856   1.377   3.889  0.1745  0.3275  0.3132
  191SAPI   H9X22080   5.962   1.411   3.885 -0.6384  3.0650 -2.3676
  191SAPI   H9Y22081   5.846   1.267   3.883  2.2601  0.1709 -2.5041
  191SAPI  C31022082   5.797   1.429   4.016 -0.5753 -1.1413 -0.6906
  191SAPI  H10X22083   5.686   1.430   4.022 -0.6979  4.0172  0.6931
  191SAPI  H10Y22084   5.810   1.539   4.005 -2.0447 -0.9391 -0.7320
  191SAPI  C31122085   5.863   1.360   4.135 -0.2853  0.5707 -0.2193
  191SAPI  H11X22086   5.973   1.363   4.116 -0.5562 -3.0557 -3.4353
  191SAPI  H11Y22087   5.840   1.252   4.128  0.8605  0.4029 -3.3002
  191SAPI  C31222088   5.843   1.426   4.271  0.3652 -0.0935  0.5109
  191SAPI  H12X22089   5.880   1.531   4.262 -1.0420  0.5967  2.1500
  191SAPI  H12Y22090   5.915   1.390   4.348 -0.0241 -0.6002  0.6461
  191SAPI  C31322091   5.703   1.419   4.331  0.3151 -0.3915 -0.1240
  191SAPI  H13X22092   5.635   1.447   4.247  1.3191  1.0108 -0.5051
  191SAPI  H13Y22093   5.697   1.485   4.420  0.4671  0.1646 -0.5219
  191SAPI  C31422094   5.661   1.275   4.377 -0.5752 -0.2001 -0.3554
  191SAPI  H14X22095   5.651   1.216   4.283  0.6647  1.2307 -1.4390
  191SAPI  H14Y22096   5.564   1.278   4.429 -0.8493  0.1775 -0.8817
  191SAPI  C31522097   5.758   1.199   4.480 -0.3711  0.0273 -0.3032
  191SAPI  H15X22098   5.853   1.176   4.426  1.2918  3.2728  0.9015
  191SAPI  H15Y22099   5.695   1.111   4.501  1.7119 -1.3381  0.5655
  191SAPI  C31622100   5.781   1.282   4.608  0.1890 -0.5485  0.2078
  191SAPI  H16X22101   5.681   1.306   4.649 -0.7844 -2.4736 -0.9232
  191SAPI  H16Y22102   5.829   1.381   4.589 -1.4723  0.0126 -1.2692
  191SAPI  C31722103   5.859   1.213   4.718  0.1225 -0.1409  0.2725
  191SAPI  H17X22104   5.791   1.136   4.762  0.4950  0.0115  1.1389
  191SAPI  H17Y22105   5.883   1.285   4.799  1.7418  0.3468 -0.6120
  191SAPI  C31822106   5.985   1.136   4.680 -0.0070  0.2151  0.7450
  191SAPI  H18X22107   6.058   1.194   4.620  0.4193 -0.0868  0.9641
  191SAPI  H18Y22108   5.956   1.049   4.618  0.0260 -0.0135  1.0444
  191SAPI  H18Z22109   6.038   1.099   4.771  1.8837 -2.5436 -1.3106
  192SAPI   C1222110   0.866   6.132   2.568 -0.1035  0.4915 -0.5149
  192SAPI    H222111   0.900   6.130   2.674 -3.7935  0.9956  0.8214
  192SAPI    O222112   0.732   6.181   2.576 -0.5364  0.2506  0.0998
  192SAPI   HO222113   0.674   6.105   2.573 -1.5345  0.9790  0.2846
  192SAPI   C1322114   0.957   6.222   2.483  0.1402  0.7064 -0.2078
  192SAPI    H322115   1.061   6.183   2.487  1.5796  4.1231 -0.7251
  192SAPI    O322116   0.972   6.347   2.556 -0.1341 -0.2834 -0.2825
  192SAPI   HO322117   0.887   6.381   2.583 -0.9350  1.1184 -3.9689
  192SAPI   C1422118   0.914   6.240   2.339 -0.6418  0.3237  0.0638
  192SAPI    H422119   0.811   6.280   2.348 -1.0347 -1.0642  3.3061
  192SAPI    O422120   0.990   6.326   2.257  0.1742  0.0685  0.7533
  192SAPI   HO422121   1.083   6.303   2.260  0.9597  2.9071  1.2120
  192SAPI   C1522122   0.897   6.095   2.280 -0.7610  0.4890  1.0353
  192SAPI    H522123   1.001   6.063   2.258 -0.6817  0.7068  1.0923
  192SAPI    O522124   0.832   6.101   2.146  0.1262  0.2631 -0.2620
  192SAPI   HO522125   0.903   6.118   2.084 -0.5618  2.9080 -0.4524
  192SAPI   C1622126   0.830   5.991   2.366  0.2769 -0.1799  0.6495
  192SAPI    H622127   0.725   6.028   2.368  1.0191  2.1295  0.8343
  192SAPI    O622128   0.846   5.863   2.312  0.7966 -0.0268 -0.9704
  192SAPI   HO622129   0.937   5.861   2.282  1.2303 -0.3834  0.3235
  192SAPI   C1122130   0.870   5.994   2.509  0.1671  0.1768  0.1105
  192SAPI    H122131   0.973   5.953   2.512 -0.2573 -1.4583 -3.2141
  192SAPI     P22132   0.826   5.806   2.700  0.1330  0.1281  0.2455
  192SAPI   O1322133   0.950   5.735   2.657 -0.4274 -0.7486  0.1754
  192SAPI   O1422134   0.705   5.726   2.738 -0.5185 -0.0159 -0.2039
  192SAPI   O1222135   0.775   5.911   2.584 -0.0672 -0.1055 -0.0847
  192SAPI   O1122136   0.859   5.895   2.824  0.5031  0.2543 -0.4770
  192SAPI    C122137   0.751   5.971   2.883  0.0373  0.0569 -0.3415
  192SAPI    HA22138   0.692   6.034   2.813  0.5226  2.2708  1.1136
  192SAPI    HB22139   0.686   5.896   2.931  2.2391 -1.4974  0.3824
  192SAPI    C222140   0.798   6.059   3.010 -0.2699  0.0975  0.1625
  192SAPI    HS22141   0.883   6.002   3.053 -0.0002 -1.0533 -1.7966
  192SAPI   O2122142   0.681   6.079   3.095  0.5877 -0.0004 -0.4342
  192SAPI   C2122143   0.716   6.068   3.222 -0.1175  0.0487 -0.1499
  192SAPI   O2222144   0.827   6.035   3.261  0.6235 -0.1314  0.0674
  192SAPI   C2222145   0.604   6.106   3.321 -0.6442 -0.3747 -0.4082
  192SAPI   H2R22146   0.554   6.201   3.291 -1.3249  0.1361  2.0803
  192SAPI   H2S22147   0.539   6.017   3.306 -2.3381  1.0625 -2.3219
  192SAPI    C322148   0.850   6.191   2.971  0.2294 -0.5016  0.9249
  192SAPI    HX22149   0.768   6.239   2.914  1.1074 -0.4700 -0.3607
  192SAPI    HY22150   0.935   6.183   2.899 -0.3387  0.8063  0.0688
  192SAPI   O3122151   0.887   6.280   3.074  0.2037  0.1250  0.4227
  192SAPI   C3122152   1.002   6.278   3.132 -0.1181 -0.8595  0.6270
  192SAPI   O3222153   1.099   6.216   3.096  0.0096  0.4146  0.4745
  192SAPI   C3222154   0.994   6.360   3.257 -0.4405 -0.1541 -0.1246
  192SAPI   H2X22155   0.996   6.289   3.342 -3.7116 -0.7551 -0.4200
  192SAPI   H2Y22156   0.893   6.405   3.266  0.1691  1.6772 -1.8145
  192SAPI   C2322157   0.662   6.130   3.465  0.2857  0.3632  0.3591
  192SAPI   H3R22158   0.702   6.233   3.472  2.5970 -0.5267  1.1149
  192SAPI   H3S22159   0.742   6.055   3.481 -0.8101 -1.1181 -0.8234
  192SAPI   C2422160   0.569   6.092   3.581  0.0825 -0.0343  0.1100
  192SAPI   H4R22161   0.618   6.100   3.680 -1.8646 -0.5291  1.1573
  192SAPI   H4S22162   0.541   5.985   3.576  0.7706 -0.1739 -2.6065
  192SAPI   C2522163   0.444   6.181   3.581 -0.7820  0.0418  1.1512
  192SAPI   H5R22164   0.398   6.181   3.481  3.0122 -1.4734 -0.8451
  192SAPI   C2622165   0.392   6.242   3.681  0.1224 -0.2734  0.6486
  192SAPI   H6R22166   0.298   6.297   3.667  0.9344  0.9327 -0.2662
  192SAPI   C2722167   0.445   6.238   3.826 -0.6367 -0.0273 -0.3793
  192SAPI   H7R22168   0.526   6.162   3.839  0.6918  1.3293 -0.3895
  192SAPI   H7S22169   0.368   6.215   3.903 -1.5155  1.2329 -0.8625
  192SAPI   C2822170   0.509   6.369   3.867 -0.2531 -0.9873  0.1677
  192SAPI   H8R22171   0.612   6.393   3.837 -0.7279  1.7170  0.4563
  192SAPI   C2922172   0.444   6.467   3.925 -0.1052 -0.3195  0.3187
  192SAPI   H9R22173   0.501   6.561   3.937  2.1863 -1.5096 -0.6147
  192SAPI  C21022174   0.305   6.460   3.977  0.1586 -0.0587 -0.3285
  192SAPI  H10R22175   0.295   6.366   4.035 -1.2174  0.5438  0.4713
  192SAPI  H10S22176   0.236   6.447   3.891  2.1420 -2.4861 -1.6737
  192SAPI  C21122177   0.296   6.586   4.070 -0.1095  0.0731  0.2554
  192SAPI  H11R22178   0.345   6.568   4.166  0.5901 -1.1261 -0.2925
  192SAPI  C21222179   0.220   6.691   4.051  0.5518 -0.2237  0.8053
  192SAPI  H12R22180   0.219   6.770   4.128 -0.9921  0.0750  0.5144
  192SAPI  C21322181   0.118   6.717   3.940 -0.1679  0.0053 -0.2213
  192SAPI  H13R22182   0.120   6.629   3.872  0.4232  1.1032 -1.6936
  192SAPI  H13S22183   0.139   6.810   3.883 -1.1278 -0.2246 -0.9854
  192SAPI  C21422184  -0.028   6.730   3.993  0.1331 -0.4152  0.4918
  192SAPI  H14R22185  -0.104   6.665   3.948  1.1268  0.0585 -2.0643
  192SAPI  C21522186  -0.074   6.820   4.080  0.2561  0.0542  0.0875
  192SAPI  H15R22187  -0.178   6.806   4.110  0.6132 -2.3182  0.3892
  192SAPI  C21622188  -0.003   6.931   4.161 -0.8698 -0.0358 -0.5835
  192SAPI  H16R22189  -0.054   7.028   4.176  2.8444  1.8013  1.4280
  192SAPI  H16S22190   0.097   6.957   4.122 -1.3270  1.6920 -0.6815
  192SAPI  C21722191   0.011   6.881   4.310  0.6103  0.6062 -0.6455
  192SAPI  H17R22192   0.078   6.956   4.357  0.1548  1.6434 -1.6140
  192SAPI  H17S22193   0.060   6.781   4.314 -1.5264 -0.4898 -0.4720
  192SAPI  C21822194  -0.125   6.888   4.391  0.3972  0.0738 -0.1601
  192SAPI  H18R22195  -0.197   6.811   4.357 -0.1424 -0.7172  2.5313
  192SAPI  H18S22196  -0.160   6.991   4.366 -1.1720  0.0976  1.7954
  192SAPI  C21922197  -0.119   6.868   4.546 -0.2461  0.5435  0.1028
  192SAPI  H19R22198  -0.226   6.857   4.577 -1.0054  3.1954 -1.3169
  192SAPI  H19S22199  -0.079   6.966   4.579 -1.5955  1.2783 -0.3657
  192SAPI  C22022200  -0.033   6.748   4.584 -0.6119 -0.2581  0.1613
  192SAPI  H20R22201  -0.073   6.648   4.556  0.7693 -0.6568 -0.4764
  192SAPI  H20S22202  -0.018   6.744   4.694 -1.5976  0.4508  0.3374
  192SAPI  H20T22203   0.067   6.744   4.536  0.2829 -0.1608  1.9727
  192SAPI   C3322204   1.105   6.469   3.256  0.3894 -0.0782  1.2661
  192SAPI   H3X22205   1.084   6.543   3.176  3.2895 -0.5851 -0.1303
  192SAPI   H3Y22206   1.202   6.427   3.222  0.2124 -1.0332  1.8922
  192SAPI   C3422207   1.124   6.541   3.388 -0.2379  0.3830 -0.0101
  192SAPI   H4X22208   1.047   6.620   3.395  2.0359  2.7214 -0.1628
  192SAPI   H4Y22209   1.219   6.598   3.391 -0.4804  0.7688  0.7053
  192SAPI   C3522210   1.118   6.448   3.516 -0.5407  0.5373  0.7518
  192SAPI   H5X22211   1.207   6.384   3.503 -0.7303  0.8350 -3.5162
  192SAPI   H5Y22212   1.026   6.386   3.505 -0.9799  1.4208 -0.9918
  192SAPI   C3622213   1.127   6.509   3.651 -0.5924 -0.0376 -0.3717
  192SAPI   H6X22214   1.041   6.575   3.677 -1.1856 -1.0523  0.3095
  192SAPI   H6Y22215   1.212   6.581   3.649 -0.9466  0.4818  1.1934
  192SAPI   C3722216   1.138   6.417   3.771 -0.2747 -0.1232  0.2745
  192SAPI   H7X22217   1.190   6.479   3.847  0.0382 -1.7552  1.4438
  192SAPI   H7Y22218   1.214   6.340   3.747 -0.8373 -1.3895  2.3617
  192SAPI   C3822219   1.017   6.354   3.831 -0.6578  0.0048  1.0085
  192SAPI   H8X22220   1.057   6.263   3.881 -0.3999 -0.4225  0.0501
  192SAPI   H8Y22221   0.962   6.312   3.744 -0.4497 -0.2038  0.9757
  192SAPI   C3922222   0.939   6.448   3.920  0.3999  0.0067 -1.2412
  192SAPI   H9X22223   0.894   6.527   3.856  2.6158  3.0923  0.6932
  192SAPI   H9Y22224   1.010   6.507   3.982  0.0107  1.1333 -1.8361
  192SAPI  C31022225   0.851   6.364   4.010 -0.3383 -0.2027 -0.8895
  192SAPI  H10X22226   0.911   6.286   4.061 -1.6324  0.9698  2.7300
  192SAPI  H10Y22227   0.764   6.323   3.954 -0.4957 -0.4805 -0.4390
  192SAPI  C31122228   0.804   6.446   4.134  0.1985  0.8405 -0.3868
  192SAPI  H11X22229   0.769   6.546   4.100 -0.2470  1.4311  1.6423
  192SAPI  H11Y22230   0.895   6.465   4.196 -0.0530 -0.9836  0.6032
  192SAPI  C31222231   0.701   6.380   4.222 -0.8692  0.0732 -0.7945
  192SAPI  H12X22232   0.758   6.306   4.282 -0.4595  0.5224 -0.6243
  192SAPI  H12Y22233   0.624   6.331   4.159 -3.4690  3.2896 -0.3862
  192SAPI  C31322234   0.622   6.478   4.311 -0.1386 -0.1910 -0.0982
  192SAPI  H13X22235   0.572   6.542   4.234 -0.5582 -1.5912 -1.0153
  192SAPI  H13Y22236   0.704   6.535   4.361  1.0594 -0.4702 -1.6570
  192SAPI  C31422237   0.528   6.430   4.416 -0.3180  0.2355  0.2346
  192SAPI  H14X22238   0.584   6.344   4.460 -0.7830  0.7134  1.8089
  192SAPI  H14Y22239   0.441   6.392   4.357  2.0029 -1.3332 -2.4953
  192SAPI  C31522240   0.491   6.529   4.526 -0.2877 -0.1029 -0.0369
  192SAPI  H15X22241   0.441   6.612   4.471  1.1929 -0.6003 -2.2543
  192SAPI  H15Y22242   0.584   6.573   4.567 -0.2053 -1.0658  0.8405
  192SAPI  C31622243   0.419   6.457   4.638 -0.0105  0.2644  0.5922
  192SAPI  H16X22244   0.479   6.373   4.678  0.4889  0.6015  0.5600
  192SAPI  H16Y22245   0.331   6.406   4.593  0.9938  0.5340 -1.8307
  192SAPI  C31722246   0.385   6.554   4.758 -0.2978  0.3551 -0.0560
  192SAPI  H17X22247   0.362   6.654   4.716  1.1393  0.6486 -0.2020
  192SAPI  H17Y22248   0.481   6.582   4.806  0.6461  1.3046 -2.3628
  192SAPI  C31822249   0.278   6.513   4.853  0.0133  0.3290  0.3866
  192SAPI  H18X22250   0.176   6.529   4.813  0.0201 -1.6367 -0.5545
  192SAPI  H18Y22251   0.289   6.578   4.942 -0.9956 -1.5567  1.9512
  192SAPI  H18Z22252   0.297   6.406   4.875  0.8554  0.4875  0.4816
  193SOD    SOD22253   0.535   6.097   0.707 -0.2625 -0.5523 -0.1673
  194SOD    SOD22254   1.442   3.144   1.605 -0.1892 -0.1319  0.1595
  195SOD    SOD22255   2.768   6.466   6.936  0.0762 -0.0951  0.0439
  196SOD    SOD22256   2.522   0.083   1.094  0.0314  0.0382  0.3333
  197SOD    SOD22257   0.023   2.437   2.907  0.0956  0.2372  0.1142
  198SOD    SOD22258   1.975   2.470   1.505 -0.9352  0.3899  0.0038
  199SOD    SOD22259   4.045   6.684   7.152 -0.1577  0.5901 -0.1711
  200SOD    SOD22260   4.646   5.585   1.681 -0.2113  0.0753  1.2845
  201SOD    SOD22261   5.698   6.214   2.736  0.1069 -0.5869  0.6206
  202SOD    SOD22262   5.714   4.821   6.983 -0.7062  0.0192  0.3479
  203SOD    SOD22263   0.483   5.537   2.373  0.4745  0.0622  0.4052
  204SOD    SOD22264   3.021   1.912   2.725 -0.1337  0.2142 -0.0040
  205SOD    SOD22265   0.026   3.346   7.103  0.2665  0.1114 -0.0354
  206SOD    SOD22266   1.733   3.453   2.322 -0.2683  0.5700  0.0038
  207SOD    SOD22267   0.376   3.516   2.364 -0.1715 -0.0159  0.1829
  208SOD    SOD22268   1.020   4.465   7.378  0.4374  0.2266  0.3055
  209SOD    SOD22269   5.186   4.683   7.427  0.4506 -0.2875 -0.1464
  210SOD    SOD22270   1.343   5.144   8.125  0.3005  0.7640  0.3630
  211SOD    SOD22271   0.434   0.574   1.892  0.2794  0.5051 -0.1296
  212SOD    SOD22272   4.221   5.328   2.399 -0.2472  0.2685 -0.2688
  213SOD    SOD22273   0.122   3.690   0.551 -0.0390  0.1968  0.7372
  214SOD    SOD22274   0.007   2.927   7.547 -0.5747 -0.0878  0.1180
  215SOD    SOD22275   2.717   1.558   8.414  0.7129 -0.1952 -0.0465
  216SOD    SOD22276   6.150   0.619   8.484 -0.2802  0.1229  0.5240
  217SOD    SOD22277   4.965   5.913   0.093 -0.1004 -0.1178  0.2319
  218SOD    SOD22278   6.110   1.345   1.914  0.0040  0.0456  0.1934
  219SOD    SOD22279   5.141   4.193   0.935  0.4055 -0.7779  0.5785
  220SOD    SOD22280   0.111   1.125   0.510 -0.4987  0.5555 -0.0403
  221SOD    SOD22281   4.010   4.641   8.526 -0.7719  0.5250 -0.4615
  222SOD    SOD22282   4.834   3.752   7.928  0.1506  0.2187 -0.3487
  223SOD    SOD22283   1.649   3.674   8.217 -0.1062 -0.1722  0.1956
  224SOD    SOD22284   4.825   6.793   2.054  0.5979 -0.0255  0.6354
  225SOD    SOD22285   0.559   3.390   7.741  0.1149  0.4240 -0.0668
  226SOD    SOD22286   6.804   0.695   7.392  0.0525 -0.1283 -0.1939
  227SOD    SOD22287   4.337   4.202   1.955  0.3011  0.2564 -0.2988
  228SOD    SOD22288   5.146   2.509   1.731  0.1445  0.2481  0.5059
  229SOD    SOD22289   3.101   2.124   1.079  0.3754 -0.2473 -0.6125
  230SOD    SOD22290   3.041   0.915   8.281 -0.2336  0.3972  0.0983
  231SOD    SOD22291   0.261   6.120   8.256  0.2986 -0.3875  0.2998
  232SOD    SOD22292   1.257   6.173   2.917 -0.0183  0.4158  0.1583
  233SOD    SOD22293   2.126   1.233   7.069  0.3267  0.3064 -0.0402
  234CLA    CLA22294   4.304   3.698   1.921  0.0910  0.2049 -0.1841
  235CLA    CLA22295   2.579   4.060   1.085 -0.3248 -0.5020  0.4634
  236CLA    CLA22296   1.574   5.455   0.344  0.0144  0.1550 -0.1431
  237CLA    CLA22297   5.370   6.010   0.373  0.1367 -0.1241 -0.0773
  238CLA    CLA22298   3.690   6.749   0.284 -0.4525  0.0738 -0.1206
  239CLA    CLA22299   2.297   5.303   0.672  0.3846 -0.3380  0.0114
  240CLA    CLA22300   0.356   5.414   8.363 -0.0477  0.5913 -0.1982
  241CLA    CLA22301   2.798   2.884   1.256 -0.3392  0.1083  0.1905
  242CLA    CLA22302   0.689   4.516   2.044  0.0759  0.2964 -0.2730
  243CLA    CLA22303   1.292   1.944   8.258  0.0287 -0.1256 -0.2342
  244CLA    CLA22304   0.463   1.050   8.435 -0.1317  0.5015 -0.2610
  245CLA    CLA22305   4.406   4.900   1.413  0.9798  0.2440  0.0494
  246CLA    CLA22306   3.519   2.082   0.073 -0.1980  0.0744 -0.0176
  247CLA    CLA22307   6.761   2.845   0.973  0.2386 -0.1962  0.3224
  248CLA    CLA22308   5.783   0.489   7.946  0.2489 -0.2591 -0.0953
  249CLA    CLA22309   3.167   0.574   0.726 -0.2678  0.1137 -0.3822
  250CLA    CLA22310   6.067   2.022   8.669  0.4762  0.5980  0.0263
  251TIP3   OH222311   1.852   5.174   0.881 -0.4988  0.5809  0.5707
  251TIP3    H122312   1.847   5.268   0.861 -0.2166  0.6220  0.6979
  251TIP3    H222313   1.904   5.169   0.960  1.3124  0.1617 -0.5848
  252TIP3   OH222314   6.152   3.836   7.443  0.8521  0.4503 -0.1713
  252TIP3    H122315   6.065   3.798   7.433  0.6441  0.7828  0.3481
  252TIP3    H222316   6.151   3.876   7.530  1.0904  1.5499 -0.6549
  253TIP3   OH222317   6.464   5.280   0.558 -0.4532 -0.5132 -0.3199
  253TIP3    H122318   6.495   5.301   0.646 -1.2448 -2.1030  0.3790
  253TIP3    H222319   6.542   5.288   0.503  0.1839 -0.0667  0.6162
  254TIP3   OH222320   6.361   5.447   8.183 -0.2626 -0.1366 -0.4944
  254TIP3    H122321   6.413   5.367   8.187 -0.4756 -0.2738 -0.4262
  254TIP3    H222322   6.425   5.517   8.172  0.0504 -0.1623  0.9741
  255TIP3   OH222323   4.274   1.178   7.774 -0.2427 -0.0615  0.1777
  255TIP3    H122324   4.243   1.206   7.860 -1.1196  0.9402 -0.4345
  255TIP3    H222325   4.194   1.157   7.726  0.1320  0.7636 -0.8391
  256TIP3   OH222326   5.827   0.923   8.086 -0.2491 -0.1629  0.1038
  256TIP3    H122327   5.876   0.870   8.023  1.4670  0.3128  0.9696
  256TIP3    H222328   5.819   1.008   8.044 -0.6515 -0.3302 -0.1718
  257TIP3   OH222329   1.343   4.657   1.100  0.3935 -0.1365  0.4799
  257TIP3    H122330   1.332   4.737   1.047  0.0298 -0.2464  0.3846
  257TIP3    H222331   1.294   4.676   1.180 -0.8905 -0.7909 -0.1167
  258TIP3   OH222332   5.338   6.614   8.532 -0.4869  0.1001 -0.3114
  258TIP3    H122333   5.345   6.677   8.603 -1.9789  2.9498 -2.4983
  258TIP3    H222334   5.262   6.560   8.555 -1.0383  1.0731  0.2043
  259TIP3   OH222335   6.355   0.690   8.526  0.0333  0.2282  0.0063
  259TIP3    H122336   6.395   0.763   8.478  1.2209 -0.9299 -0.8647
  259TIP3    H222337   6.430   0.640   8.559 -0.7596 -0.4083  0.8982
  260TIP3   OH222338   6.308   3.981   7.280  0.6595 -1.3072  0.4367
  260TIP3    H122339   6.284   3.941   7.363  0.1217 -2.3827 -0.2025
  260TIP3    H222340   6.339   3.907   7.226  1.2451 -0.5994 -0.2275
  261TIP3   OH222341   4.737   6.174   1.136 -0.9545  0.6680 -0.1271
  261TIP3    H122342   4.794   6.136   1.070  1.5531  2.2686  0.9406
  261TIP3    H222343   4.664   6.113   1.144  0.3503 -1.2502 -1.9292
  262TIP3   OH222344   5.557   2.295   8.238  0.0876 -0.4209  0.4923
  262TIP3    H122345   5.599   2.373   8.200  1.3265 -0.3749  1.8711
  262TIP3    H222346   5.586   2.223   8.182 -0.1928 -0.0556 -0.1469
  263TIP3   OH222347   0.133   3.829   1.901 -0.4257 -0.4768 -0.3286
  263TIP3    H122348   0.150   3.792   1.815 -2.1053 -1.1461 -0.4064
  263TIP3    H222349   0.066   3.896   1.886  0.7271  0.8428  0.1880
  264TIP3   OH222350   5.152   1.936   7.530 -0.0478  0.3454  0.6296
  264TIP3    H122351   5.102   1.856   7.516 -1.1715  0.6559  2.4527
  264TIP3    H222352   5.238   1.905   7.557  0.5032 -0.2021 -1.5784
  265TIP3   OH222353   6.030   1.830   2.746  0.3979  0.3412 -0.4172
  265TIP3    H122354   6.018   1.920   2.778 -0.3727 -0.3859  1.4423
  265TIP3    H222355   6.064   1.782   2.822 -1.3889 -1.4515 -0.6682
  266TIP3   OH222356   2.920   4.958   6.760  0.5927 -0.2076  0.2199
  266TIP3    H122357   2.945   4.871   6.730  1.1765 -0.7045  2.0400
  266TIP3    H222358   2.825   4.955   6.767  0.2393  0.4000 -2.8415
  267TIP3   OH222359   2.851   5.306   7.877 -0.2476 -0.2851 -0.6891
  267TIP3    H122360   2.915   5.319   7.948 -0.9688 -0.9629  0.1125
  267TIP3    H222361   2.809   5.391   7.867  0.8593  0.2105 -1.3232
  268TIP3   OH222362   1.453   6.261   1.963 -0.4481  0.5613 -0.4696
  268TIP3    H122363   1.517   6.235   2.030 -0.1105  1.8170 -0.2712
  268TIP3    H222364   1.501   6.258   1.881 -0.8685 -1.0034 -0.6800
  269TIP3   OH222365   2.532   1.719   0.179 -0.1443  1.0135 -0.2250
  269TIP3    H122366   2.519   1.671   0.098  0.9571 -0.0206  0.1808
  269TIP3    H222367   2.453   1.700   0.231 -0.1913  0.5021 -0.4789
  270TIP3   OH222368   4.868   1.600   8.664 -0.3728  0.1365  0.5209
  270TIP3    H122369   4.952   1.555   8.655 -1.0011 -0.7397 -1.6632
  270TIP3    H222370   4.887   1.675   8.720  2.0156  0.3439 -0.4453
  271TIP3   OH222371   2.865   0.679   2.033 -0.0515 -0.1033 -0.3963
  271TIP3    H122372   2.909   0.642   1.956 -1.8176 -1.0019 -1.0200
  271TIP3    H222373   2.772   0.676   2.012 -0.4588  1.7349  0.8911
  272TIP3   OH222374   0.762   3.806   2.394 -0.1429  0.0453  0.0681
  272TIP3    H122375   0.843   3.761   2.371 -1.3661 -2.3152  0.1141
  272TIP3    H222376   0.728   3.756   2.468 -0.1024  2.9126  2.2030
  273TIP3   OH222377   3.175   0.746   8.665  0.2700  0.0655 -1.0266
  273TIP3    H122378   3.248   0.808   8.659  3.0937 -3.0312 -1.1752
  273TIP3    H222379   3.165   0.730   8.758  0.5893 -0.3978 -1.0711
  274TIP3   OH222380   3.479   6.388   8.396  0.1619 -0.0652  0.3524
  274TIP3    H122381   3.570   6.378   8.368  0.0971  0.0858  0.0764
  274TIP3    H222382   3.444   6.456   8.338  0.1257  0.5320  1.0642
  275TIP3   OH222383   3.630   0.881   0.188 -0.4306 -0.8641  0.1341
  275TIP3    H122384   3.691   0.838   0.128 -0.0658  0.5490 -0.5331
  275TIP3    H222385   3.549   0.890   0.138 -0.8233 -1.6422  0.6100
  276TIP3   OH222386   2.488   2.194   2.035 -0.0060  0.1625  0.5406
  276TIP3    H122387   2.558   2.223   2.094  1.2073  0.5867 -1.0537
  276TIP3    H222388   2.477   2.266   1.973 -0.5002 -0.7218 -0.4218
  277TIP3   OH222389   5.181   1.536   1.238 -0.1138  0.5051 -0.2743
  277TIP3    H122390   5.093   1.564   1.262 -0.0242 -0.7513  1.7681
  277TIP3    H222391   5.173   1.442   1.222  0.6717  0.5707 -1.1140
  278TIP3   OH222392   4.731   3.320   1.450 -0.2366 -0.5654 -0.2079
  278TIP3    H122393   4.795   3.310   1.380 -0.1669 -0.1665 -0.2017
  278TIP3    H222394   4.718   3.414   1.458  0.7384 -0.5200  1.2055
  279TIP3   OH222395   2.614   2.609   7.978 -0.4159  0.2196  0.0170
  279TIP3    H122396   2.701   2.573   7.957 -0.0100  1.0407  0.2365
  279TIP3    H222397   2.554   2.536   7.966  0.2826 -0.3023 -0.3592
  280TIP3   OH222398   5.101   4.190   1.682 -0.0864 -0.1096 -0.1867
  280TIP3    H122399   5.031   4.126   1.678 -0.1053 -0.0938 -0.1121
  280TIP3    H222400   5.056   4.274   1.694 -0.0245 -0.1856  0.6695
  281TIP3   OH222401   6.261   4.488   2.659  0.0658 -0.2992 -0.1849
  281TIP3    H122402   6.196   4.497   2.729  0.8312  2.0527  0.3193
  281TIP3    H222403   6.225   4.540   2.587  0.9228  0.1982 -0.2591
  282TIP3   OH222404   4.152   0.322   1.027  0.5538  0.0909  0.0195
  282TIP3    H122405   4.115   0.270   0.955 -1.5731  0.0049  1.0973
  282TIP3    H222406   4.170   0.258   1.096  2.4449  0.1937 -0.3416
  283TIP3   OH222407   4.717   3.233   0.064 -0.2167  0.3697 -0.3810
  283TIP3    H122408   4.723   3.151   0.113 -1.1259  0.5988  0.1257
  283TIP3    H222409   4.645   3.281   0.104  0.2076  1.3654 -0.7610
  284TIP3   OH222410   4.302   1.066   1.646 -0.4567  0.2777 -0.0379
  284TIP3    H122411   4.283   1.026   1.731  0.1588  0.8764  0.3887
  284TIP3    H222412   4.395   1.050   1.631 -0.7389 -0.5652 -1.0087
  285TIP3   OH222413   4.973   3.949   1.641 -0.2073 -0.0307  0.0222
  285TIP3    H122414   4.902   3.893   1.608  0.3224 -1.6052  1.4086
  285TIP3    H222415   4.937   3.989   1.719 -1.6078  4.0213 -2.3950
  286TIP3   OH222416   6.521   1.159   1.389 -0.0927  0.2749  0.4797
  286TIP3    H122417   6.553   1.249   1.384 -0.9979  0.5368 -2.9370
  286TIP3    H222418   6.561   1.116   1.313  0.5106 -2.3346  2.1579
  287TIP3   OH222419   6.219   2.992   2.416  0.1753  0.2281 -0.0849
  287TIP3    H122420   6.246   3.004   2.507 -0.3977  0.5723  0.0418
  287TIP3    H222421   6.279   2.925   2.383 -0.9131 -1.4399  1.1508
  288TIP3   OH222422   1.398   1.535   1.714  0.4079 -0.4149 -0.4390
  288TIP3    H122423   1.316   1.487   1.709  0.2723 -0.3521  0.7289
  288TIP3    H222424   1.466   1.469   1.698  0.1526 -0.5600 -0.9364
  289TIP3   OH222425   3.301   6.713   2.418 -0.6902  0.4830  0.4743
  289TIP3    H122426   3.330   6.638   2.469  0.3675  0.4397 -0.1682
  289TIP3    H222427   3.367   6.781   2.434  0.1794  0.1783 -1.4829
  290TIP3   OH222428   1.532   5.857   2.285  0.3802  0.0898 -0.3634
  290TIP3    H122429   1.487   5.773   2.270  1.3946 -0.6171  0.4183
  290TIP3    H222430   1.594   5.839   2.356 -0.9590  2.0844  1.4405
  291TIP3   OH222431   0.497   5.374   0.017  0.2499  0.5547  0.0879
  291TIP3    H122432   0.480   5.366   0.110  0.3546 -3.3905 -0.0319
  291TIP3    H222433   0.426   5.326  -0.025  0.7525  1.3576 -1.8024
  292TIP3   OH222434   2.068   3.534   8.252 -0.5849  0.5872  0.1274
  292TIP3    H122435   1.991   3.479   8.240 -1.3019  1.3932  0.9044
  292TIP3    H222436   2.131   3.502   8.187 -0.7857 -1.4450  0.8604
  293TIP3   OH222437   0.426   3.716   8.529  0.0462 -0.1250 -0.0975
  293TIP3    H122438   0.462   3.717   8.440  0.9690 -1.1176  0.2435
  293TIP3    H222439   0.459   3.797   8.568  0.8614 -0.3921 -0.2083
  294TIP3   OH222440   2.476   6.048   6.769 -0.0784 -0.3579  0.4081
  294TIP3    H122441   2.450   6.127   6.721 -1.4000 -0.5891  0.7200
  294TIP3    H222442   2.397   6.020   6.814  1.1954  0.1199  3.1696
  295TIP3   OH222443   1.684   2.538   0.679  0.4314 -0.0716  0.1090
  295TIP3    H122444   1.773   2.570   0.668  0.8419 -0.8459  0.9985
  295TIP3    H222445   1.656   2.572   0.764 -0.2383  0.4138 -0.2976
  296TIP3   OH222446   1.092   5.238   0.451 -0.1350 -0.3222 -0.6864
  296TIP3    H122447   1.105   5.293   0.374  0.8379  1.2301  0.5312
  296TIP3    H222448   0.998   5.219   0.451 -0.2694  0.2427 -1.8447
  297TIP3   OH222449   5.487   1.158   7.656  0.1254  0.5044 -0.0081
  297TIP3    H122450   5.570   1.206   7.657  0.2035  0.3967 -0.7193
  297TIP3    H222451   5.498   1.092   7.588 -0.8252  1.0112 -0.6823
  298TIP3   OH222452   1.214   4.937   8.502  0.4926  0.1493  0.1500
  298TIP3    H122453   1.213   4.927   8.597  0.9766 -1.2854  0.0298
  298TIP3    H222454   1.150   4.873   8.470  1.0822 -0.1091 -0.5370
  299TIP3   OH222455   1.317   6.337   7.329 -0.3369 -0.4405 -0.2066
  299TIP3    H122456   1.272   6.321   7.246  2.2161  0.4337 -1.8460
  299TIP3    H222457   1.337   6.430   7.328 -0.6211 -0.3219  1.6393
  300TIP3   OH222458   6.479   4.458   2.871  0.0065  0.0361  0.4753
  300TIP3    H122459   6.439   4.464   2.784  1.6688 -0.7154 -0.3914
  300TIP3    H222460   6.489   4.549   2.899  1.4903  0.4383 -1.1620
  301TIP3   OH222461   0.580   1.592   0.229  0.1057 -0.3411  0.1722
  301TIP3    H122462   0.555   1.579   0.321  2.3838  0.6960  1.0022
  301TIP3    H222463   0.615   1.507   0.202 -0.3143 -0.5748  0.3482
  302TIP3   OH222464   0.385   0.698   0.430 -0.4953 -1.0229 -0.1618
  302TIP3    H122465   0.460   0.737   0.385  0.5233 -1.2099  1.3109
  302TIP3    H222466   0.316   0.764   0.423 -0.4599 -1.1395 -2.1574
  303TIP3   OH222467   1.210   6.473   1.659 -0.1461  0.2525 -1.0026
  303TIP3    H122468   1.134   6.465   1.602 -0.7566  0.5126 -0.2380
  303TIP3    H222469   1.279   6.424   1.614 -1.0490 -0.8693 -1.2126
  304TIP3   OH222470   6.545   4.118   0.184 -0.5161 -0.1573 -0.1673
  304TIP3    H122471   6.544   4.213   0.198  1.2771 -0.1404  0.0154
  304TIP3    H222472   6.552   4.081   0.272  1.0447 -0.3663 -0.3606
  305TIP3   OH222473   5.006   6.201   1.778 -0.1531  0.1052  0.3184
  305TIP3    H122474   4.984   6.116   1.817 -2.5127  1.3659  1.9633
  305TIP3    H222475   5.024   6.258   1.852  0.3111  1.3537 -0.7164
  306TIP3   OH222476   2.682   3.419   2.122 -0.0708  0.3240  0.4664
  306TIP3    H122477   2.615   3.369   2.170  1.7630 -2.0990  0.6841
  306TIP3    H222478   2.655   3.510   2.132 -1.4603 -0.2845  3.4953
  307TIP3   OH222479   1.956   0.145   0.170 -1.0468 -0.4022  0.2366
  307TIP3    H122480   2.037   0.103   0.140 -0.8818  0.0743  0.0075
  307TIP3    H222481   1.888   0.108   0.113 -0.9747 -0.7288  0.3644
  308TIP3   OH222482   2.120   4.154   7.629  0.4895  0.1623  0.3716
  308TIP3    H122483   2.085   4.243   7.636 -0.1951  0.0160 -0.9569
  308TIP3    H222484   2.057   4.101   7.679 -1.2164 -0.0778 -1.8875
  309TIP3   OH222485   6.370   6.296   8.729 -0.4917  0.2277 -0.7455
  309TIP3    H122486   6.391   6.352   8.655  1.1778 -0.1841 -0.6279
  309TIP3    H222487   6.345   6.357   8.799  0.8204  0.8311 -0.7650
  310TIP3   OH222488   1.821   1.821   8.364 -0.1220  0.3022  0.2749
  310TIP3    H122489   1.854   1.880   8.296  1.5852 -0.5172  0.3635
  310TIP3    H222490   1.753   1.770   8.321  1.0219 -0.2866 -0.8834
  311TIP3   OH222491   5.247   0.073   2.233 -0.3287  0.5118  0.4053
  311TIP3    H122492   5.264   0.140   2.299 -1.0967  0.5953  0.5242
  311TIP3    H222493   5.152   0.062   2.234 -0.1672 -1.0947  0.9024
  312TIP3   OH222494   4.574   5.239   6.871  0.2066  0.7477 -0.0638
  312TIP3    H122495   4.554   5.161   6.820 -0.1853  0.1010  1.0366
  312TIP3    H222496   4.555   5.312   6.812  1.0827  0.0207 -1.2859
  313TIP3   OH222497   6.132   6.654   7.897  0.2806 -0.0115  0.5202
  313TIP3    H122498   6.049   6.627   7.939  0.8812 -0.4612  1.4592
  313TIP3    H222499   6.109   6.732   7.848 -0.3746  0.8798  2.1548
  314TIP3   OH222500   1.876   1.426   0.700  0.2081  0.3460 -0.1583
  314TIP3    H122501   1.891   1.454   0.610  0.2001  0.4898 -0.1158
  314TIP3    H222502   1.900   1.333   0.701 -0.5292  0.1444 -0.4845
  315TIP3   OH222503   0.326   1.559   8.236  0.2132  0.2069 -0.7006
  315TIP3    H122504   0.298   1.467   8.244  0.5795  0.1251 -0.2866
  315TIP3    H222505   0.255   1.609   8.276  0.1709  0.0781 -0.6120
  316TIP3   OH222506   2.377   6.271   2.489 -0.0941  0.6045 -0.0620
  316TIP3    H122507   2.440   6.339   2.465  0.5874  0.0128 -0.0170
  316TIP3    H222508   2.371   6.276   2.584  0.2241  0.3911 -0.0253
  317TIP3   OH222509   5.404   5.151   7.910 -0.4107  0.4492 -0.3496
  317TIP3    H122510   5.332   5.137   7.849  0.4540  0.5252 -1.4177
  317TIP3    H222511   5.482   5.157   7.854  0.4398  0.2534  0.7797
  318TIP3   OH222512   2.307   6.103   1.954 -0.0921  0.1657  0.1502
  318TIP3    H122513   2.275   6.129   1.867 -2.4145 -1.7528  0.3463
  318TIP3    H222514   2.278   6.173   2.012  1.8698  1.6980 -0.5934
  319TIP3   OH222515   0.552   4.513   7.292  0.8811  0.2796 -0.0583
  319TIP3    H122516   0.490   4.580   7.319  1.5935  1.5012 -1.3090
  319TIP3    H222517   0.563   4.528   7.198  1.6892 -1.0782 -0.2012
  320TIP3   OH222518   5.546   2.825   8.512  0.3816  0.5121  0.2189
  320TIP3    H122519   5.536   2.907   8.464  0.4481 -0.0145 -0.7263
  320TIP3    H222520   5.632   2.832   8.554  1.1348  0.2756 -1.2058
  321TIP3   OH222521   0.673   3.938   7.624  0.0424 -0.1318 -0.0157
  321TIP3    H122522   0.750   3.993   7.605 -0.2612 -0.1181 -1.2855
  321TIP3    H222523   0.670   3.876   7.551 -1.5810  0.3420 -0.3906
  322TIP3   OH222524   0.401   6.224   0.265  0.0910  0.1281  0.0460
  322TIP3    H122525   0.440   6.304   0.301 -1.6003  0.4413  1.3505
  322TIP3    H222526   0.465   6.192   0.202  0.8969  2.4196 -0.4052
  323TIP3   OH222527   1.486   0.062   0.105  0.4044  0.2302 -0.0627
  323TIP3    H122528   1.458   0.130   0.167  0.6873  0.9375 -0.7040
  323TIP3    H222529   1.425   0.069   0.032  0.5461 -0.0856 -0.2130
  324TIP3   OH222530   6.067   5.483   7.409 -0.3877  0.5785  0.3199
  324TIP3    H122531   6.117   5.475   7.327  0.2978  0.4283  0.7387
  324TIP3    H222532   6.101   5.562   7.451  0.1582 -0.0069  1.0303
  325TIP3   OH222533   0.385   3.648   1.131 -0.1513 -0.4401 -0.1554
  325TIP3    H122534   0.332   3.721   1.161 -1.0680 -1.5807  1.1653
  325TIP3    H222535   0.465   3.654   1.182 -0.6610 -0.9286  0.7268
  326TIP3   OH222536   5.942   6.068   7.798 -0.4096  0.4789  0.4551
  326TIP3    H122537   5.901   6.003   7.855  0.7296 -0.7131 -0.0246
  326TIP3    H222538   5.933   6.151   7.846 -1.3622 -0.1264  1.3659
  327TIP3   OH222539   1.573   3.706   7.792  0.1410 -0.1265  0.1158
  327TIP3    H122540   1.563   3.787   7.842 -0.3010  0.0053 -0.1792
  327TIP3    H222541   1.493   3.656   7.811 -0.5411  0.3717 -1.2451
  328TIP3   OH222542   2.449   3.688   8.535 -0.0599  0.0054 -0.2091
  328TIP3    H122543   2.455   3.659   8.444 -0.2498  0.1466 -0.2653
  328TIP3    H222544   2.442   3.783   8.529  0.6745  0.0769 -0.0204
  329TIP3   OH222545   0.135   1.247   1.678  1.1532 -0.2567 -0.2579
  329TIP3    H122546   0.081   1.169   1.667 -0.1159  0.4665  0.6060
  329TIP3    H222547   0.207   1.235   1.615  0.4045 -1.5999 -0.9080
  330TIP3   OH222548   1.904   4.698   7.367 -0.1066  0.3006 -0.2312
  330TIP3    H122549   1.844   4.627   7.341 -0.9200  1.0163 -0.3386
  330TIP3    H222550   1.852   4.778   7.358 -0.6075  0.6249  3.9010
  331TIP3   OH222551   0.292   2.201   7.289  0.6137 -0.4186  0.0033
  331TIP3    H122552   0.242   2.193   7.208 -0.6481  0.4117  0.6640
  331TIP3    H222553   0.321   2.112   7.308 -0.5810 -0.9260 -0.4346
  332TIP3   OH222554   4.987   2.445   0.777  0.0502  0.1905 -0.5399
  332TIP3    H122555   4.974   2.384   0.705 -0.6362 -0.1269 -0.1598
  332TIP3    H222556   4.908   2.437   0.830  0.3549  0.7356  0.0166
  333TIP3   OH222557   1.711   4.423   8.604 -0.5551  0.9963  0.0278
  333TIP3    H122558   1.790   4.457   8.646 -0.2181 -0.3156  0.5237
  333TIP3    H222559   1.717   4.328   8.616 -2.0216  0.8400 -0.2648
  334TIP3   OH222560   2.244   1.515   1.693 -0.8078  0.5053 -0.1733
  334TIP3    H122561   2.167   1.458   1.697 -0.3983  0.0106  0.8575
  334TIP3    H222562   2.236   1.573   1.769 -0.6530  1.1124 -0.6072
  335TIP3   OH222563   6.616   1.757   2.244  0.0253 -0.7913 -0.2025
  335TIP3    H122564   6.551   1.794   2.304 -1.7298  0.1841 -2.5605
  335TIP3    H222565   6.699   1.767   2.290 -1.2267 -0.1563  2.0643
  336TIP3   OH222566   2.338   5.364   7.974 -0.6412 -0.2187  0.7027
  336TIP3    H122567   2.258   5.351   7.922  0.1817  1.3903 -1.1029
  336TIP3    H222568   2.392   5.288   7.954 -0.8598 -0.2426  0.1743
  337TIP3   OH222569   5.429   1.338   0.906  0.6290 -0.4902  0.0758
  337TIP3    H122570   5.519   1.371   0.901  0.5025 -0.2744 -1.7705
  337TIP3    H222571   5.388   1.371   0.826 -0.4073 -2.5234 -0.3029
  338TIP3   OH222572   4.173   4.584   2.391  0.1553  0.5997 -0.4213
  338TIP3    H122573   4.172   4.489   2.404 -0.3582  0.3976 -1.8031
  338TIP3    H222574   4.226   4.617   2.463  0.9899 -0.8065 -0.3514
  339TIP3   OH222575   5.883   4.785   8.455 -0.6656  0.4216  0.3039
  339TIP3    H122576   5.863   4.859   8.397 -0.3827 -0.0611 -0.4234
  339TIP3    H222577   5.902   4.826   8.540 -1.7211  1.0949  0.2343
  340TIP3   OH222578   4.024   2.476   2.328 -0.0707  0.3346 -0.3178
  340TIP3    H122579   3.947   2.444   2.375 -0.4321  0.2064 -0.9799
  340TIP3    H222580   4.098   2.439   2.375 -0.4558 -0.6132 -0.4292
  341TIP3   OH222581   0.510   3.998   8.393 -0.0124  0.1182 -0.1819
  341TIP3    H122582   0.586   4.056   8.398  0.9224 -1.1142  0.1073
  341TIP3    H222583   0.468   4.007   8.478 -1.1266  1.9790 -0.8506
  342TIP3   OH222584   4.814   2.805   1.019 -0.1309 -0.5417  0.5977
  342TIP3    H122585   4.906   2.800   1.046 -0.6887  0.9610  3.1670
  342TIP3    H222586   4.778   2.720   1.042  0.7471 -1.4516 -1.2158
  343TIP3   OH222587   6.494   3.843   0.152  0.4201 -0.4727 -0.4096
  343TIP3    H122588   6.529   3.898   0.222 -1.2350  0.0962  0.0192
  343TIP3    H222589   6.426   3.791   0.194 -3.3200  2.5141 -2.1180
  344TIP3   OH222590   5.377   3.759   7.984 -0.4975 -0.1681  0.0635
  344TIP3    H122591   5.380   3.673   7.942  0.3832 -0.3174  0.4099
  344TIP3    H222592   5.362   3.820   7.912  0.2691 -0.4858 -0.3768
  345TIP3   OH222593   1.393   1.570   0.534  0.1569 -0.6148 -0.0709
  345TIP3    H122594   1.473   1.571   0.586 -0.9708 -0.4620  1.7513
  345TIP3    H222595   1.410   1.630   0.462  1.2258  0.4050  0.9916
  346TIP3   OH222596   4.169   3.472   8.195 -0.0272 -0.1643  0.4927
  346TIP3    H122597   4.173   3.525   8.275  1.1662  1.0106 -0.3018
  346TIP3    H222598   4.164   3.537   8.125 -4.0405 -1.1354 -0.3630
  347TIP3   OH222599   0.532   2.641   2.269 -0.1197 -0.4453  0.0105
  347TIP3    H122600   0.471   2.712   2.285  0.5225  0.0387  0.3578
  347TIP3    H222601   0.549   2.644   2.175 -0.1095 -0.1459  0.0204
  348TIP3   OH222602   0.179   4.650   1.508  0.1840  0.6256  0.4146
  348TIP3    H122603   0.134   4.642   1.593  0.2363  1.7275  0.5633
  348TIP3    H222604   0.131   4.719   1.462  0.4077  0.3156 -0.3000
  349TIP3   OH222605   3.120   3.111   0.287  0.0138  0.1161  0.5308
  349TIP3    H122606   3.032   3.147   0.290  0.2198  0.6304  0.4919
  349TIP3    H222607   3.121   3.056   0.209 -0.2939  0.0565  0.5702
  350TIP3   OH222608   1.674   2.080   0.893 -0.3999  0.8932  0.4771
  350TIP3    H122609   1.768   2.093   0.910 -0.1654  2.0721 -1.3607
  350TIP3    H222610   1.664   2.103   0.800 -2.3789 -0.0156  0.4287
  351TIP3   OH222611   2.262   2.726   8.182 -0.1811 -0.7661 -0.2218
  351TIP3    H122612   2.220   2.718   8.097 -0.1959 -1.7115 -0.1456
  351TIP3    H222613   2.348   2.764   8.163 -0.5864 -0.0010 -0.5298
  352TIP3   OH222614   0.594   4.856   2.862 -0.1029 -0.5613  0.8990
  352TIP3    H122615   0.585   4.790   2.930  0.8721 -2.2715 -0.5567
  352TIP3    H222616   0.506   4.866   2.826 -0.6417  0.3981  2.3591
  353TIP3   OH222617   4.238   2.579   3.070 -0.2502 -0.4486 -0.5650
  353TIP3    H122618   4.267   2.489   3.088  0.1211 -0.2535 -0.1886
  353TIP3    H222619   4.218   2.615   3.156  0.4184  0.1122 -0.6413
  354TIP3   OH222620   2.577   1.171   2.309  0.0630 -0.1787 -0.2810
  354TIP3    H122621   2.586   1.234   2.380 -0.2738 -0.7156  0.2408
  354TIP3    H222622   2.558   1.224   2.232 -2.7663  0.2314  0.5954
  355TIP3   OH222623   1.769   0.308   7.716  0.0610  0.5924  0.2002
  355TIP3    H122624   1.794   0.256   7.640  1.3856 -0.1488  1.0971
  355TIP3    H222625   1.675   0.294   7.725  0.3818 -1.9095  0.5452
  356TIP3   OH222626   3.450   6.023   2.726  0.2871  0.0687  0.6101
  356TIP3    H122627   3.414   6.110   2.708  1.5529  0.5369  0.2219
  356TIP3    H222628   3.378   5.963   2.709 -0.0632  0.8978 -0.9846
  357TIP3   OH222629   0.615   0.746   1.967 -0.5251 -0.5870  0.8463
  357TIP3    H122630   0.572   0.821   2.008 -4.5106 -0.3491 -3.0959
  357TIP3    H222631   0.686   0.785   1.916 -0.0316 -0.0756  1.8844
  358TIP3   OH222632   6.704   5.642   8.172 -0.6384  0.2516  0.2394
  358TIP3    H122633   6.788   5.597   8.177  0.1741  1.6139 -0.5064
  358TIP3    H222634   6.657   5.598   8.101 -0.3693 -0.2149  0.3520
  359TIP3   OH222635   2.620   2.020   1.844 -0.4440 -0.3205 -0.1583
  359TIP3    H122636   2.576   2.068   1.914  1.3206 -0.3155  0.9944
  359TIP3    H222637   2.599   2.070   1.764  1.0017  2.2218  0.9219
  360TIP3   OH222638   3.071   4.644   8.645 -0.3715  0.4188  0.4534
  360TIP3    H122639   3.095   4.737   8.639  1.9626 -0.2335 -2.2477
  360TIP3    H222640   3.148   4.597   8.614 -2.7648 -2.2871 -1.9576
  361TIP3   OH222641   6.192   1.662   1.112  0.0717 -0.5154  0.8639
  361TIP3    H122642   6.248   1.673   1.036 -3.0674  2.5466 -1.3186
  361TIP3    H222643   6.149   1.577   1.099  0.7324 -0.7378  0.0764
  362TIP3   OH222644   4.777   2.233   0.636  0.6028  0.0105  0.1926
  362TIP3    H122645   4.798   2.152   0.589 -1.1679  0.6246 -1.8269
  362TIP3    H222646   4.795   2.213   0.728  0.5942 -2.5472 -0.2899
  363TIP3   OH222647   4.604   5.510   7.313 -0.0599  0.2300  0.2621
  363TIP3    H122648   4.532   5.449   7.298  0.7435 -0.5107 -0.7098
  363TIP3    H222649   4.597   5.573   7.241 -1.0617  1.4898  1.4237
  364TIP3   OH222650   3.035   1.547   6.776  0.6797  0.0852 -0.0640
  364TIP3    H122651   3.073   1.634   6.773  2.5518 -0.6939 -0.6033
  364TIP3    H222652   3.097   1.496   6.830 -1.7248 -0.3163  2.5326
  365TIP3   OH222653   1.923   4.354   0.579 -0.4532 -0.2353  0.5671
  365TIP3    H122654   1.973   4.330   0.657  0.1403 -3.5414 -0.6715
  365TIP3    H222655   1.971   4.427   0.541  1.0595 -0.6186  1.6369
  366TIP3   OH222656   3.040   0.046   2.306  0.2797  0.4083  0.2869
  366TIP3    H122657   3.059   0.139   2.291  0.0914  0.1765 -1.7203
  366TIP3    H222658   3.123   0.010   2.338  0.8522  0.9637 -0.5164
  367TIP3   OH222659   2.908   3.586   7.850  0.3789  0.6795 -0.1783
  367TIP3    H122660   2.836   3.641   7.881  0.7606  0.0360  2.0727
  367TIP3    H222661   2.935   3.626   7.767 -1.3569  2.0150 -0.1588
  368TIP3   OH222662   0.261   6.819   7.658  0.0574  0.0847 -0.3744
  368TIP3    H122663   0.355   6.832   7.671  0.4630 -0.9977 -1.8914
  368TIP3    H222664   0.221   6.902   7.684  1.1788 -0.1331  2.3625
  369TIP3   OH222665   5.929   3.841   7.939 -0.1679  0.4618  0.0253
  369TIP3    H122666   5.907   3.747   7.936  0.8246  0.2412 -0.7438
  369TIP3    H222667   5.848   3.883   7.967 -1.0275 -0.5016 -0.8956
  370TIP3   OH222668   4.455   1.264   0.541  0.0723  0.6326  0.6221
  370TIP3    H122669   4.386   1.204   0.569 -0.5408  0.7581 -0.5622
  370TIP3    H222670   4.519   1.260   0.612 -1.7437  1.5384  2.4434
  371TIP3   OH222671   6.522   4.316   7.935 -0.8323  0.0286 -0.5487
  371TIP3    H122672   6.468   4.375   7.988 -0.7198 -0.6372  0.3211
  371TIP3    H222673   6.466   4.240   7.919 -0.3303 -0.4480 -0.0673
  372TIP3   OH222674   0.571   5.614   0.778 -0.0804 -0.2122 -0.3394
  372TIP3    H122675   0.540   5.550   0.842  1.4134  0.0373  0.6895
  372TIP3    H222676   0.560   5.570   0.694 -1.0543 -0.9900  0.1672
  373TIP3   OH222677   3.664   3.007   0.584 -0.1338  0.3006 -0.0543
  373TIP3    H122678   3.611   2.942   0.538 -0.4484 -0.8241  1.7815
  373TIP3    H222679   3.640   2.996   0.676  0.0694  2.8152  0.3570
  374TIP3   OH222680   1.850   5.423   1.730 -0.2986 -0.1907 -0.5194
  374TIP3    H122681   1.759   5.393   1.727 -0.6366  0.8520 -1.2623
  374TIP3    H222682   1.900   5.345   1.754 -1.2054 -1.2167 -1.8052
  375TIP3   OH222683   5.502   5.613   2.666  0.3322  0.1644  0.0702
  375TIP3    H122684   5.592   5.625   2.634  0.3338  0.8487  0.3008
  375TIP3    H222685   5.508   5.541   2.728  1.3625  2.0978  2.4090
  376TIP3   OH222686   5.177   1.037   7.955 -0.3186  0.1316  0.1493
  376TIP3    H122687   5.090   1.006   7.978  0.0844 -2.0407 -1.0147
  376TIP3    H222688   5.237   0.979   8.001  0.5153  0.9060  0.0753
  377TIP3   OH222689   6.189   0.148   0.246  0.2923  0.3164 -0.4574
  377TIP3    H122690   6.226   0.232   0.271 -0.7574  0.5067  0.5800
  377TIP3    H222691   6.114   0.137   0.306  1.8308 -2.4673  1.1554
  378TIP3   OH222692   5.582   5.456   7.735  0.0971  0.0994  0.0599
  378TIP3    H122693   5.530   5.532   7.712 -0.7034 -0.0760  1.1923
  378TIP3    H222694   5.668   5.472   7.695 -1.2591 -0.4327 -3.3585
  379TIP3   OH222695   5.005   1.703   0.746 -0.1338  0.1467 -0.2112
  379TIP3    H122696   5.076   1.767   0.757  0.6327 -0.4346 -1.5586
  379TIP3    H222697   4.994   1.665   0.833  0.5160  0.9505  0.2416
  380TIP3   OH222698   4.321   0.855   0.530 -0.4262 -0.7280  0.1442
  380TIP3    H122699   4.369   0.834   0.450  3.4369 -0.1118  2.0064
  380TIP3    H222700   4.313   0.772   0.576 -0.7910 -0.7589  0.0287
  381TIP3   OH222701   3.117   6.807   1.162  0.1267 -0.3743  0.2097
  381TIP3    H122702   3.072   6.879   1.118 -0.3748 -0.5876  0.3707
  381TIP3    H222703   3.096   6.818   1.254 -0.3595 -1.0008  0.1868
  382TIP3   OH222704   5.144   5.668   6.465 -0.1366  0.2339  0.2725
  382TIP3    H122705   5.199   5.732   6.509  0.1743  0.9201 -1.0616
  382TIP3    H222706   5.073   5.719   6.426 -1.0215 -0.4902  0.8862
  383TIP3   OH222707   4.057   6.548   8.460  0.8137 -0.1076 -0.1719
  383TIP3    H122708   4.030   6.526   8.549  1.4091 -1.4892 -0.3148
  383TIP3    H222709   4.076   6.642   8.463  0.8915 -0.1527  1.1670
  384TIP3   OH222710   2.003   5.321   0.518  0.2602  0.2554 -0.8547
  384TIP3    H122711   2.096   5.330   0.538  0.1160  0.6124 -0.3136
  384TIP3    H222712   1.966   5.407   0.538 -0.3623 -0.1809 -0.0450
  385TIP3   OH222713   0.275   1.926   1.644 -0.9310  0.5940 -0.1031
  385TIP3    H122714   0.319   1.941   1.561 -0.2396 -1.0530 -0.0804
  385TIP3    H222715   0.335   1.870   1.693 -2.7144 -1.1588  0.2210
  386TIP3   OH222716   1.291   3.343   7.406 -0.4361 -0.1443  0.3510
  386TIP3    H122717   1.365   3.287   7.427  0.2054 -0.4603 -2.3764
  386TIP3    H222718   1.215   3.285   7.413  0.0489 -0.9667 -0.8720
  387TIP3   OH222719   5.970   2.978   1.565  0.0771 -0.1691 -0.1344
  387TIP3    H122720   6.039   2.974   1.631  1.2045 -1.4593 -1.3483
  387TIP3    H222721   6.007   3.033   1.495 -1.0599  1.0916  0.1995
  388TIP3   OH222722   5.303   4.677   0.295  0.2874  0.1782  0.6389
  388TIP3    H122723   5.225   4.625   0.281  1.8270 -1.6731 -1.7640
  388TIP3    H222724   5.293   4.753   0.237 -0.0703  0.3830  0.9650
  389TIP3   OH222725   5.131   0.650   8.570  0.1937 -0.5480  0.2398
  389TIP3    H122726   5.085   0.647   8.486  0.4624 -0.3625  0.0813
  389TIP3    H222727   5.159   0.560   8.585  1.4527 -0.3418 -0.6255
  390TIP3   OH222728   1.996   4.719   7.627 -0.3889  0.3812 -0.1016
  390TIP3    H122729   2.088   4.697   7.641  0.1722  2.4645 -0.1787
  390TIP3    H222730   1.981   4.700   7.535  0.0309  0.2772 -0.1524
  391TIP3   OH222731   0.528   6.398   7.748  0.2927 -0.4238 -0.5792
  391TIP3    H122732   0.517   6.409   7.843 -0.2044  0.7327 -0.7529
  391TIP3    H222733   0.440   6.413   7.712  0.3182 -1.6109 -1.1704
  392TIP3   OH222734   0.504   5.656   8.238 -0.3350  0.0238 -0.2175
  392TIP3    H122735   0.546   5.602   8.172  2.7019  2.2125 -0.2551
  392TIP3    H222736   0.478   5.594   8.307  2.5590 -1.5779 -0.4472
  393TIP3   OH222737   5.293   2.213   1.825  0.3739 -0.2121  0.5823
  393TIP3    H122738   5.321   2.290   1.875 -1.3348 -0.5437  2.1987
  393TIP3    H222739   5.341   2.140   1.865  1.4661 -0.0932 -0.4816
  394TIP3   OH222740   5.427   6.152   7.763 -0.5626  0.2704  0.1395
  394TIP3    H122741   5.415   6.107   7.679 -1.4352 -1.4250  1.1034
  394TIP3    H222742   5.354   6.213   7.769 -0.0954  0.9234 -0.6232
  395TIP3   OH222743   6.430   1.031   1.928  0.1735  0.1873 -0.0432
  395TIP3    H122744   6.429   0.968   1.856 -1.6464 -0.0980  0.1845
  395TIP3    H222745   6.358   1.090   1.909  0.5761  0.9793  0.8200
  396TIP3   OH222746   5.889   5.142   7.931 -0.2168  0.2976  0.0585
  396TIP3    H122747   5.896   5.128   7.836 -2.1586 -0.8150  0.0208
  396TIP3    H222748   5.906   5.056   7.969 -2.4076  0.0082  0.4895
  397TIP3   OH222749   5.125   6.047   7.598  0.4065  0.1013 -0.8705
  397TIP3    H122750   5.077   6.088   7.526  0.5048  0.5995 -0.6566
  397TIP3    H222751   5.128   6.115   7.666 -1.1365 -0.9007  0.2559
  398TIP3   OH222752   4.925   0.725   0.017 -0.5076 -0.1835  0.3719
  398TIP3    H122753   4.935   0.700   0.109 -1.1388 -2.7042 -0.1636
  398TIP3    H222754   4.987   0.669  -0.030  0.5483  1.7851 -0.6994
  399TIP3   OH222755   4.931   3.973   7.036  1.0406  0.6473  0.2583
  399TIP3    H122756   4.854   3.964   6.980  0.2951  1.6984  1.0458
  399TIP3    H222757   5.006   3.971   6.976  0.2270  2.8569 -0.9467
  400TIP3   OH222758   5.127   3.533   0.612 -0.0030  0.3782 -0.4697
  400TIP3    H122759   5.060   3.482   0.658  1.6974 -2.1176 -0.5683
  400TIP3    H222760   5.077   3.600   0.564 -2.4400 -1.4690 -0.7069
  401TIP3   OH222761   2.874   5.490   2.344  0.4530 -0.4009  0.7650
  401TIP3    H122762   2.779   5.473   2.343  0.4472 -0.4176 -0.7929
  401TIP3    H222763   2.899   5.477   2.435 -0.7925 -1.8040  0.9497
  402TIP3   OH222764   1.054   5.096   1.486  0.6572 -0.0492  0.2776
  402TIP3    H122765   1.107   5.176   1.484  0.1448  0.3468  1.3274
  402TIP3    H222766   1.087   5.047   1.561 -1.5954  1.0985  2.1944
  403TIP3   OH222767   5.379   2.657   2.230 -0.3041  0.4496  0.0578
  403TIP3    H122768   5.456   2.645   2.285 -0.4461  0.4725  0.2654
  403TIP3    H222769   5.318   2.589   2.260  0.5155 -1.2001 -1.7137
  404TIP3   OH222770   1.170   6.071   1.620 -0.0504 -0.4061 -0.4992
  404TIP3    H122771   1.163   6.013   1.696 -1.2384 -1.5565 -1.4526
  404TIP3    H222772   1.084   6.111   1.611  0.3790  0.5302 -0.6584
  405TIP3   OH222773   6.779   3.356   7.524  0.0760 -0.2831 -0.4275
  405TIP3    H122774   6.715   3.354   7.453  1.0940  0.5773 -1.4188
  405TIP3    H222775   6.864   3.363   7.479  0.8598 -1.3043  0.8509
  406TIP3   OH222776   3.748   5.471   7.961 -0.0082 -0.3024 -0.2109
  406TIP3    H122777   3.670   5.470   7.906 -0.2687  1.2912  0.1000
  406TIP3    H222778   3.807   5.408   7.919 -0.8457 -0.3703 -1.3416
  407TIP3   OH222779   3.458   6.811   1.655 -0.6834  0.3493 -0.0219
  407TIP3    H122780   3.396   6.777   1.719 -1.6526  1.2754 -0.4340
  407TIP3    H222781   3.426   6.780   1.570 -1.1033  1.5394 -0.3206
  408TIP3   OH222782   0.256   1.819   7.121  0.5329 -0.2262  0.1033
  408TIP3    H122783   0.195   1.830   7.048  0.2856 -0.2821  0.2983
  408TIP3    H222784   0.328   1.767   7.085 -0.0559 -1.1013  0.1575
  409TIP3   OH222785   3.113   5.532   8.332 -0.1625 -0.1523  0.5149
  409TIP3    H122786   3.200   5.565   8.311 -0.7266  1.2435  0.2914
  409TIP3    H222787   3.105   5.542   8.427  0.1762 -0.9677  0.6411
  410TIP3   OH222788   0.492   6.096   8.308  0.0698  0.0132  0.4305
  410TIP3    H122789   0.558   6.105   8.239  1.4636  1.6167  1.8706
  410TIP3    H222790   0.541   6.061   8.383 -0.9393  0.2965  1.2340
  411TIP3   OH222791   6.696   1.500   0.864  0.1149  0.0770 -0.6423
  411TIP3    H122792   6.663   1.502   0.954  0.3672  1.1532 -0.5607
  411TIP3    H222793   6.636   1.442   0.818  1.6151 -2.8586  0.8337
  412TIP3   OH222794   5.960   3.123   8.423 -0.2511  0.7460 -0.2944
  412TIP3    H122795   5.959   3.197   8.484 -1.5074  1.2856 -0.9204
  412TIP3    H222796   6.005   3.053   8.470  0.5706  1.7753  0.4786
  413TIP3   OH222797   3.567   0.514   0.786 -0.3657  0.2024 -0.0112
  413TIP3    H122798   3.563   0.487   0.694 -0.8975 -1.0632  0.3536
  413TIP3    H222799   3.646   0.470   0.819 -1.3666 -1.1855  0.6504
  414TIP3   OH222800   1.795   5.370   0.144 -0.2945  0.1888 -0.0261
  414TIP3    H122801   1.726   5.389   0.207  1.0007  0.8194  1.2768
  414TIP3    H222802   1.806   5.275   0.147 -0.1418  0.2311  0.8309
  415TIP3   OH222803   3.399   1.721   1.755 -0.1005 -0.0191 -0.1655
  415TIP3    H122804   3.400   1.808   1.796 -0.2462  1.1912 -2.5690
  415TIP3    H222805   3.492   1.698   1.747 -0.0627 -0.9905  2.0781
  416TIP3   OH222806   1.777   5.227   6.934 -0.0753  0.2520 -0.0538
  416TIP3    H122807   1.795   5.216   6.841  0.3440 -1.2689  0.1875
  416TIP3    H222808   1.681   5.235   6.939 -0.5410 -3.3715 -0.3652
  417TIP3   OH222809   0.113   0.575   7.766 -0.2708  0.0727 -0.0054
  417TIP3    H122810   0.203   0.544   7.756 -0.7921 -0.7678 -3.1298
  417TIP3    H222811   0.113   0.620   7.850  3.2482  0.6993 -0.1656
  418TIP3   OH222812   2.856   5.365   1.108 -0.3765  0.4259 -0.0314
  418TIP3    H122813   2.796   5.347   1.181  0.6204  0.5342  0.8412
  418TIP3    H222814   2.922   5.295   1.114 -0.2210  0.5032 -0.7634
  419TIP3   OH222815   4.882   4.830   0.471  0.7032  0.4305 -0.2389
  419TIP3    H122816   4.811   4.868   0.523 -0.4586 -0.8113 -0.8511
  419TIP3    H222817   4.948   4.803   0.535  0.5615  1.4425  0.3500
  420TIP3   OH222818   2.929   5.821   0.479 -0.4563 -0.0447  0.3596
  420TIP3    H122819   2.951   5.769   0.556 -2.0042  1.5917  2.0255
  420TIP3    H222820   2.969   5.906   0.495  1.4949 -0.4151 -2.0047
  421TIP3   OH222821   2.880   6.181   2.091  0.0338  0.0351 -0.0940
  421TIP3    H122822   2.876   6.086   2.095  1.1166 -0.0361  3.9126
  421TIP3    H222823   2.971   6.201   2.068  0.1714  0.0445  0.4403
  422TIP3   OH222824   6.225   5.031   1.496 -0.2005 -0.2929 -0.1124
  422TIP3    H122825   6.191   4.979   1.569 -0.4590 -1.0822 -0.7767
  422TIP3    H222826   6.196   5.120   1.514 -2.4415 -0.8718 -0.4989
  423TIP3   OH222827   0.914   4.064   2.416 -0.4087 -0.2570  0.9143
  423TIP3    H122828   0.879   3.977   2.399  0.7774 -0.3168 -1.8809
  423TIP3    H222829   1.001   4.048   2.452 -0.6155 -0.2224  1.4235
  424TIP3   OH222830   5.215   0.105   8.626  0.1014 -1.1685 -0.3188
  424TIP3    H122831   5.267   0.182   8.649  0.8967 -1.4535 -1.1184
  424TIP3    H222832   5.174   0.128   8.542 -0.0855 -1.4110 -0.2945
  425TIP3   OH222833   5.688   0.068   8.525 -0.0984 -0.0749  0.1875
  425TIP3    H122834   5.722   0.101   8.442  0.2314 -0.2097  0.2653
  425TIP3    H222835   5.693  -0.027   8.517  1.2833 -0.0938  0.8882
  426TIP3   OH222836   3.181   1.905   1.446 -0.1981  0.2382  0.2116
  426TIP3    H122837   3.218   1.843   1.384  0.6413  0.0506  0.8714
  426TIP3    H222838   3.125   1.962   1.394  0.8248  0.3535 -0.7850
  427TIP3   OH222839   5.001   2.512   8.690  0.0037  0.2300  0.3015
  427TIP3    H122840   5.066   2.528   8.622 -0.2759  0.2793  0.0421
  427TIP3    H222841   4.965   2.599   8.710  0.6514  0.3248  1.0889
  428TIP3   OH222842   3.832   6.806   2.807 -0.5936  0.0597  0.0821
  428TIP3    H122843   3.738   6.823   2.794 -0.8099 -0.2544  1.0858
  428TIP3    H222844   3.843   6.713   2.786 -0.2261  0.4082 -1.3587
  429TIP3   OH222845   4.155   3.599   7.628 -0.0472  0.0345 -0.3378
  429TIP3    H122846   4.142   3.693   7.630 -0.7369 -0.0419  1.6478
  429TIP3    H222847   4.223   3.583   7.694  1.1869 -0.7487 -1.7374
  430TIP3   OH222848   6.655   2.233   1.175 -0.4258 -0.3911 -0.5535
  430TIP3    H122849   6.600   2.204   1.248 -0.4799  1.7485  0.3428
  430TIP3    H222850   6.605   2.305   1.136  0.9345  0.4282 -0.8283
  431TIP3   OH222851   6.786   6.492   7.700  0.4541  0.5252 -0.1148
  431TIP3    H122852   6.845   6.561   7.668  1.2384 -0.2746 -0.4569
  431TIP3    H222853   6.716   6.538   7.745  1.4031  1.5083  0.3869
  432TIP3   OH222854   6.536   0.701   0.423  0.2378 -0.5614  0.8070
  432TIP3    H122855   6.577   0.641   0.361 -0.5043 -0.2232 -0.0373
  432TIP3    H222856   6.583   0.686   0.506  0.9411 -1.3441  0.2864
  433TIP3   OH222857   1.580   1.570   1.276 -0.1351 -0.2132 -0.0513
  433TIP3    H122858   1.534   1.612   1.348 -1.1639 -1.2301 -0.0937
  433TIP3    H222859   1.602   1.482   1.308  2.2279  0.3741  0.1374
  434TIP3   OH222860   4.697   0.646   8.479 -0.1226 -0.2685 -0.4920
  434TIP3    H122861   4.683   0.711   8.411 -3.3904  0.0490  0.3278
  434TIP3    H222862   4.667   0.688   8.560  1.6378 -1.3685  0.8088
  435TIP3   OH222863   1.000   2.212   7.663  0.1087 -0.2450  0.0201
  435TIP3    H122864   1.022   2.215   7.756  1.0439 -0.7718 -0.1728
  435TIP3    H222865   1.034   2.294   7.628 -2.5588  1.2209  0.5847
  436TIP3   OH222866   0.114   2.135   1.687 -0.1132  0.1179 -0.2143
  436TIP3    H122867   0.207   2.134   1.709 -0.5685  0.4401  1.8776
  436TIP3    H222868   0.094   2.044   1.665  0.7024  0.0660 -0.7859
  437TIP3   OH222869   0.959   3.808   1.316  0.3605  0.0630  0.0754
  437TIP3    H122870   0.952   3.751   1.239 -1.4840  0.7557 -0.3152
  437TIP3    H222871   0.875   3.853   1.320  1.0210  1.2333  1.5832
  438TIP3   OH222872   3.236   6.277   0.267 -0.3825  0.2339 -0.3234
  438TIP3    H122873   3.187   6.215   0.321  1.1547 -1.7169 -1.0243
  438TIP3    H222874   3.187   6.281   0.185  0.0599 -0.9831 -0.6804
  439TIP3   OH222875   1.371   5.990   0.861 -0.0304 -0.0527  0.6892
  439TIP3    H122876   1.361   6.075   0.818 -0.0783 -0.0766  0.6542
  439TIP3    H222877   1.312   5.932   0.815 -0.1074 -0.0702  0.8107
  440TIP3   OH222878   2.637   5.391   1.528 -0.0912  0.2063  0.1947
  440TIP3    H122879   2.698   5.446   1.478  0.5760 -1.4809 -0.9269
  440TIP3    H222880   2.642   5.425   1.618  1.6428  0.8369 -0.1039
  441TIP3   OH222881   3.761   3.102   7.295  0.3024 -0.3274  0.8805
  441TIP3    H122882   3.708   3.113   7.216 -0.6428  1.2302  1.6934
  441TIP3    H222883   3.756   3.008   7.314 -2.5366 -0.2070  1.1401
  442TIP3   OH222884   6.048   4.803   2.201  0.2181 -0.0830 -0.2097
  442TIP3    H122885   6.042   4.708   2.214  0.7497 -0.2864 -1.3265
  442TIP3    H222886   6.002   4.819   2.119  0.1829  0.6203 -0.0595
  443TIP3   OH222887   5.939   6.765   8.686 -0.1097  0.5630 -0.0804
  443TIP3    H122888   5.883   6.705   8.735  0.7577  1.1911  1.7941
  443TIP3    H222889   5.884   6.841   8.669 -0.3431  0.4640  0.2260
  444TIP3   OH222890   1.992   4.700   2.131 -0.1633 -0.2485  0.3907
  444TIP3    H122891   2.007   4.775   2.188  0.1893 -0.3486  0.4388
  444TIP3    H222892   1.925   4.728   2.069 -1.3116 -0.4662  1.4808
  445TIP3   OH222893   0.474   2.654   8.438 -0.8311 -0.0574  0.5770
  445TIP3    H122894   0.537   2.679   8.505 -0.0631 -0.9517  0.2073
  445TIP3    H222895   0.448   2.565   8.462 -1.7533  0.1978  0.5670
  446TIP3   OH222896   4.647   4.661   0.311  0.0085 -0.5990 -0.4273
  446TIP3    H122897   4.714   4.682   0.376 -1.9715  1.2639  1.2025
  446TIP3    H222898   4.593   4.593   0.352  0.0333 -1.0183 -1.0783
  447TIP3   OH222899   0.423   1.695   7.533 -0.2327  0.4102 -0.7723
  447TIP3    H122900   0.435   1.601   7.522 -0.1241  0.1756  1.1059
  447TIP3    H222901   0.502   1.734   7.495  0.0970 -0.3026 -0.8267
  448TIP3   OH222902   5.695   3.176   1.128  0.6693 -0.2647 -0.5276
  448TIP3    H122903   5.611   3.195   1.086 -0.4394 -0.0613  1.6402
  448TIP3    H222904   5.719   3.090   1.095  0.4175  0.3345 -2.3644
  449TIP3   OH222905   4.246   2.946   7.312  0.3761  0.4389  0.1006
  449TIP3    H122906   4.310   2.985   7.252  0.4753 -1.1954 -0.9387
  449TIP3    H222907   4.256   2.851   7.298  0.0462  0.0101  2.3541
  450TIP3   OH222908   4.463   5.040   6.733  0.1984  0.0557  0.4405
  450TIP3    H122909   4.488   4.954   6.699 -0.2047 -1.4550  3.5798
  450TIP3    H222910   4.369   5.031   6.752 -0.3053  1.8951 -0.9809
  451TIP3   OH222911   2.937   2.444   1.770  0.0343 -0.5698  0.2652
  451TIP3    H122912   2.910   2.531   1.743 -2.0862 -1.5625 -1.0899
  451TIP3    H222913   2.915   2.439   1.863 -0.8543 -0.0125  0.0956
  452TIP3   OH222914   4.249   2.637   0.957  0.9703  0.5551 -0.1620
  452TIP3    H122915   4.230   2.729   0.971  1.2463  0.5350  0.3506
  452TIP3    H222916   4.192   2.591   1.018  0.2875  0.3427 -0.9323
  453TIP3   OH222917   3.153   1.316   8.500 -0.3797 -0.3581  0.0084
  453TIP3    H122918   3.202   1.343   8.578 -0.9372 -1.2282  0.6807
  453TIP3    H222919   3.156   1.392   8.443  2.3714 -0.5817 -0.3122
  454TIP3   OH222920   0.345   4.379   0.061 -0.1169 -0.0868 -0.4741
  454TIP3    H122921   0.402   4.433   0.116 -0.2270 -0.2305 -0.2157
  454TIP3    H222922   0.355   4.291   0.096 -0.3047 -0.1540 -0.5891
  455TIP3   OH222923   1.869   1.203   2.608 -0.3410 -0.1611 -0.0124
  455TIP3    H122924   1.817   1.280   2.628 -0.5477 -0.2636 -0.1553
  455TIP3    H222925   1.827   1.132   2.656  0.5830  0.0322  1.1514
  456TIP3   OH222926   5.193   6.466   7.685  0.4493 -0.4079  0.4416
  456TIP3    H122927   5.161   6.474   7.595  1.1718 -2.2054 -0.0215
  456TIP3    H222928   5.154   6.541   7.731 -0.7500 -0.0140 -1.1143
  457TIP3   OH222929   0.335   0.953   7.396  0.3050 -0.0346  0.1677
  457TIP3    H122930   0.403   1.008   7.355 -1.5547  0.8926 -1.8879
  457TIP3    H222931   0.254   1.003   7.385 -1.1195 -2.1767  0.3334
  458TIP3   OH222932   1.132   2.515   1.026 -0.2541  0.4109 -0.4002
  458TIP3    H122933   1.218   2.557   1.031  0.5378 -0.9603 -1.5307
  458TIP3    H222934   1.075   2.569   1.080  1.5481  0.8243  1.1826
  459TIP3   OH222935   1.953   2.717   3.259 -0.1491 -0.4243 -0.3466
  459TIP3    H122936   1.971   2.712   3.353 -0.2134 -0.7112 -0.3492
  459TIP3    H222937   2.016   2.657   3.219  0.2979  0.1651 -0.5450
  460TIP3   OH222938   0.385   6.199   7.373  0.0717  0.3856 -0.8604
  460TIP3    H122939   0.329   6.212   7.296 -0.5713 -1.3027 -0.7270
  460TIP3    H222940   0.351   6.120   7.414  0.8608  0.8623  0.7828
  461TIP3   OH222941   1.647   1.611   8.621  0.0177 -0.7040 -0.0768
  461TIP3    H122942   1.720   1.579   8.569 -0.3540  0.0021 -1.0532
  461TIP3    H222943   1.687   1.669   8.686  0.1456  1.8106 -2.2582
  462TIP3   OH222944   6.249   4.223   0.611 -0.0296  0.1358 -0.6936
  462TIP3    H122945   6.173   4.245   0.665  0.6299  1.7253 -0.3644
  462TIP3    H222946   6.216   4.157   0.550 -1.0013 -1.1276  1.0950
  463TIP3   OH222947   5.729   4.598   8.284 -0.0012 -0.0223 -0.1555
  463TIP3    H122948   5.745   4.667   8.349  2.1375 -1.3977  0.9101
  463TIP3    H222949   5.798   4.610   8.219 -0.4888 -0.3157 -0.7337
  464TIP3   OH222950   1.438   4.363   7.470 -0.0914  0.0909 -0.0788
  464TIP3    H122951   1.482   4.442   7.501  1.0502 -0.9622  1.1012
  464TIP3    H222952   1.472   4.350   7.381 -0.8173  1.2800 -0.5458
  465TIP3   OH222953   1.374   2.682   0.015 -0.4796 -0.0151  0.0545
  465TIP3    H122954   1.397   2.683   0.108  1.6026  0.5578 -0.4220
  465TIP3    H222955   1.353   2.773  -0.006  0.8079  0.1971 -0.4046
  466TIP3   OH222956   2.428   2.915   2.064 -0.0464 -0.1042  0.1668
  466TIP3    H122957   2.493   2.878   2.124 -1.3586 -1.4973  0.7863
  466TIP3    H222958   2.469   2.908   1.978  0.9931 -0.0835  0.6356
  467TIP3   OH222959   5.968   6.309   0.847  0.2835  0.5975 -0.2147
  467TIP3    H122960   6.022   6.230   0.836 -1.4971 -0.5059 -1.7234
  467TIP3    H222961   5.907   6.286   0.918 -0.8058  0.2258 -1.2369
  468TIP3   OH222962   5.513   0.889   2.483  0.2231  0.1271  0.4100
  468TIP3    H122963   5.419   0.874   2.493  0.2075  1.0693  2.0461
  468TIP3    H222964   5.542   0.917   2.570  2.1804 -0.9513  0.1471
  469TIP3   OH222965   0.983   2.535   7.750  0.1626 -0.6582  0.2118
  469TIP3    H122966   0.975   2.477   7.825 -0.7825 -2.0769 -0.9427
  469TIP3    H222967   1.059   2.502   7.702  0.0431 -0.4963 -0.0888
  470TIP3   OH222968   5.930   5.794   6.228  0.0872 -0.1571 -0.5459
  470TIP3    H122969   5.917   5.811   6.321 -1.1073 -0.2862 -0.6795
  470TIP3    H222970   6.025   5.799   6.216  0.2109  0.4526  0.5596
  471TIP3   OH222971   0.765   6.394   1.067 -0.5429 -0.0440  0.2003
  471TIP3    H122972   0.814   6.382   0.985  0.1160 -1.1808  0.7209
  471TIP3    H222973   0.775   6.310   1.112  1.0761  1.2542  2.4850
  472TIP3   OH222974   3.009   4.683   1.677 -0.4507  0.0512 -0.0616
  472TIP3    H122975   3.058   4.714   1.601 -0.9698 -3.2970 -1.9883
  472TIP3    H222976   2.947   4.753   1.697 -0.2780  1.0806 -2.7372
  473TIP3   OH222977   0.867   0.842   8.736 -0.2884 -0.3065 -0.3854
  473TIP3    H122978   0.813   0.827   8.659 -0.4058  0.2843 -0.4199
  473TIP3    H222979   0.881   0.755   8.773 -2.6800 -0.3421  0.6017
  474TIP3   OH222980   6.247   1.919   1.508 -0.3905  0.3475 -0.3360
  474TIP3    H122981   6.185   1.990   1.497 -1.6893 -0.5888  0.5845
  474TIP3    H222982   6.234   1.889   1.598  0.3779 -0.8149 -0.5819
  475TIP3   OH222983   5.332   2.062   8.015 -0.2446  0.7075  0.2709
  475TIP3    H122984   5.259   2.016   8.057  0.2937  0.6945  1.2171
  475TIP3    H222985   5.410   2.011   8.038  0.0668  0.6246 -0.8682
  476TIP3   OH222986   5.349   0.460   7.282 -0.7096  0.0086 -0.2471
  476TIP3    H122987   5.357   0.555   7.273  2.2598 -0.0944  0.3671
  476TIP3    H222988   5.330   0.447   7.375 -1.1992 -0.0035 -0.3477
  477TIP3   OH222989   3.892   0.748   0.786  0.3085  0.0656 -0.0108
  477TIP3    H122990   3.918   0.689   0.857 -0.2167  0.7119  0.7336
  477TIP3    H222991   3.927   0.707   0.707  1.6194 -0.2450  0.7053
  478TIP3   OH222992   1.765   0.870   1.828 -0.4306 -0.3484  0.6168
  478TIP3    H122993   1.748   0.858   1.735 -2.1545 -1.9328  1.0899
  478TIP3    H222994   1.814   0.952   1.833 -2.0267  0.8042 -1.4888
  479TIP3   OH222995   1.905   3.603   2.248  1.2896  0.7056 -0.5070
  479TIP3    H122996   1.928   3.659   2.174 -2.4851  2.0575 -0.8888
  479TIP3    H222997   1.957   3.637   2.321  0.1661  3.9744 -1.0408
  480TIP3   OH222998   5.461   1.484   7.402  0.0794 -0.1934 -0.3566
  480TIP3    H122999   5.383   1.481   7.456  1.3105 -2.3633  1.4713
  480TIP3    H223000   5.454   1.407   7.345  0.8630 -0.4245 -0.1594
  481TIP3   OH223001   2.514   4.784   0.834  0.5404 -0.5007 -0.0049
  481TIP3    H123002   2.469   4.839   0.898 -1.0597 -0.2729 -1.2695
  481TIP3    H223003   2.606   4.809   0.840  0.4472 -0.5056  2.1953
  482TIP3   OH223004   2.210   2.007   7.540  0.2361 -0.4371 -0.5381
  482TIP3    H123005   2.216   2.049   7.455  1.1902  0.1547 -0.1872
  482TIP3    H223006   2.298   1.974   7.557  0.4417  0.7297  0.8512
  483TIP3   OH223007   0.370   1.082   2.576 -0.5780  0.3606 -0.7164
  483TIP3    H123008   0.307   1.016   2.606 -0.6522  1.3124  1.3780
  483TIP3    H223009   0.450   1.063   2.626  0.2755  0.2489 -2.0681
  484TIP3   OH223010   2.250   2.630   1.864  0.4223 -0.0350 -0.2712
  484TIP3    H123011   2.167   2.662   1.899 -0.5777 -0.5589 -2.0207
  484TIP3    H223012   2.311   2.702   1.878 -0.3876  0.4680  0.8206
  485TIP3   OH223013   3.436   5.206   7.696 -0.2003  0.3618 -0.0322
  485TIP3    H123014   3.363   5.219   7.635  0.4033 -3.1719 -1.7637
  485TIP3    H223015   3.397   5.161   7.771 -0.2873  1.2598  0.4726
  486TIP3   OH223016   3.346   2.888   8.013 -0.3532 -0.2133 -0.1392
  486TIP3    H123017   3.265   2.893   8.065 -0.5120  0.1072 -0.4165
  486TIP3    H223018   3.379   2.799   8.029 -1.6245 -0.9298 -1.2996
  487TIP3   OH223019   5.495   5.205   8.688  0.0020 -0.3291 -0.7615
  487TIP3    H123020   5.468   5.128   8.639 -2.2614  0.1479 -0.3794
  487TIP3    H223021   5.497   5.176   8.779 -0.7990  0.0147 -0.6242
  488TIP3   OH223022   0.763   0.244   0.819 -0.3318  0.0366 -0.6524
  488TIP3    H123023   0.794   0.302   0.888 -1.4555 -1.0122  0.8015
  488TIP3    H223024   0.686   0.288   0.783 -0.6735 -0.1383 -0.1440
  489TIP3   OH223025   0.597   1.068   7.261  0.3886 -0.1699 -0.2608
  489TIP3    H123026   0.527   1.127   7.233  0.3879  0.5299  1.1293
  489TIP3    H223027   0.672   1.125   7.277  1.8352 -1.0565 -3.1584
  490TIP3   OH223028   6.272   2.396   1.253  0.7334 -0.1336  0.0253
  490TIP3    H123029   6.333   2.396   1.179  1.1958 -0.9276  0.3925
  490TIP3    H223030   6.189   2.366   1.215  1.2712 -1.7226  0.0339
  491TIP3   OH223031   0.096   1.793   2.877 -0.5865  0.1380  0.3605
  491TIP3    H123032   0.075   1.774   2.786 -1.5632 -1.1280  0.8191
  491TIP3    H223033   0.167   1.857   2.873 -1.0755  0.6131 -1.2741
  492TIP3   OH223034   0.575   2.750   1.999  0.2948  0.4491  0.7838
  492TIP3    H123035   0.495   2.803   2.006  0.1229  1.0351 -3.2564
  492TIP3    H223036   0.646   2.812   2.013  0.0920  0.3974  2.1585
  493TIP3   OH223037   6.198   0.937   0.042 -0.0081  0.7170  0.5668
  493TIP3    H123038   6.119   0.936   0.096  0.1429 -1.4538  0.8576
  493TIP3    H223039   6.194   1.020  -0.005 -2.1473  0.9400  1.0277
  494TIP3   OH223040   4.186   0.667   1.292  0.8945  0.3050  0.0980
  494TIP3    H123041   4.187   0.572   1.293  0.2853  0.3021  0.3068
  494TIP3    H223042   4.277   0.691   1.273  0.8257 -0.3201 -1.0984
  495TIP3   OH223043   1.028   1.184   1.295  0.2088 -0.0020 -0.8019
  495TIP3    H123044   0.991   1.131   1.225 -0.3074 -0.9149  0.1560
  495TIP3    H223045   1.109   1.139   1.319 -0.4909 -0.6729  0.3668
  496TIP3   OH223046   4.052   3.346   0.707  0.6537 -0.6319  0.1449
  496TIP3    H123047   4.014   3.434   0.697 -1.2301 -1.3747  0.4108
  496TIP3    H223048   4.068   3.318   0.617 -0.5363 -0.7281 -0.0641
  497TIP3   OH223049   3.239   4.410   0.537  0.0309  0.4167 -0.8903
  497TIP3    H123050   3.275   4.405   0.626 -0.7437 -2.0318 -0.6321
  497TIP3    H223051   3.272   4.492   0.502  0.8750  1.1440  1.4427
  498TIP3   OH223052   2.131   3.845   8.286 -0.2012  0.2683  0.0486
  498TIP3    H123053   2.130   3.870   8.378 -1.9906  2.5247 -0.5064
  498TIP3    H223054   2.094   3.756   8.285  1.3423 -0.4575  1.5966
  499TIP3   OH223055   5.632   4.116   6.997 -0.1174  0.6732  0.1275
  499TIP3    H123056   5.548   4.162   7.007 -0.1310  0.6423  0.1570
  499TIP3    H223057   5.607   4.024   6.990 -0.2847  0.8422 -2.3614
  500TIP3   OH223058   3.064   3.846   2.661 -0.1356  0.2306  0.6201
  500TIP3    H123059   3.070   3.761   2.618 -0.7753 -0.1597  1.2653
  500TIP3    H223060   3.000   3.895   2.609  0.6327  0.5184 -0.0626
  501TIP3   OH223061   0.664   4.155   1.299  0.0506  0.1510  0.2383
  501TIP3    H123062   0.634   4.242   1.273  1.2013  0.5967  0.3692
  501TIP3    H223063   0.625   4.141   1.385 -0.1842  0.5089  0.1915
  502TIP3   OH223064   5.587   6.218   8.671 -0.4712  0.1220 -0.1434
  502TIP3    H123065   5.680   6.235   8.691 -0.3457  0.4216 -0.9411
  502TIP3    H223066   5.561   6.150   8.733  0.2550  0.1127  0.1630
  503TIP3   OH223067   6.103   0.342   1.710 -0.0611  0.1065 -0.2604
  503TIP3    H123068   6.116   0.253   1.679  0.6346 -0.6283  2.0194
  503TIP3    H223069   6.082   0.392   1.630 -0.7027 -2.0969 -1.5497
  504TIP3   OH223070   6.657   3.378   7.779  0.1768 -0.6126 -0.0846
  504TIP3    H123071   6.711   3.350   7.705 -0.6454  2.2789 -1.9638
  504TIP3    H223072   6.607   3.452   7.745 -0.8536  0.3663  3.1877
  505TIP3   OH223073   2.202   5.543   0.242  0.1938  0.0953 -0.3130
  505TIP3    H123074   2.168   5.462   0.280 -0.6582  0.1653 -0.8904
  505TIP3    H223075   2.128   5.603   0.245  0.4558  0.4581 -1.0245
  506TIP3   OH223076   2.742   2.867   2.001  0.1015 -1.2255 -0.3976
  506TIP3    H123077   2.835   2.846   1.996  0.4041 -0.1166  0.3968
  506TIP3    H223078   2.712   2.824   2.081  0.4254  0.1515  0.5004
  507TIP3   OH223079   2.472   4.357   2.290  0.2904 -0.1363 -0.2011
  507TIP3    H123080   2.412   4.423   2.255 -0.4606 -1.1245 -0.8426
  507TIP3    H223081   2.420   4.277   2.294  0.4661 -0.2102  2.8280
  508TIP3   OH223082   4.200   6.319   1.524 -0.0136 -0.3300  0.7009
  508TIP3    H123083   4.288   6.358   1.526  0.5325 -1.4715 -0.0032
  508TIP3    H223084   4.212   6.230   1.557 -1.0191 -0.3235  1.1298
  509TIP3   OH223085   4.097   5.607   1.302 -0.0079  0.3796  0.0251
  509TIP3    H123086   4.107   5.602   1.397  0.8775 -1.7816 -0.1268
  509TIP3    H223087   4.016   5.657   1.289 -1.1771 -0.8635  1.9736
  510TIP3   OH223088   3.573   2.731   2.017  0.1818  0.0814  0.5944
  510TIP3    H123089   3.572   2.827   2.018 -0.2637  0.0731  1.4110
  510TIP3    H223090   3.585   2.705   2.108  2.1884 -0.6514  0.1782
  511TIP3   OH223091   2.530   0.838   0.746 -0.9284  0.3345  0.5403
  511TIP3    H123092   2.516   0.811   0.655  0.1206  1.3941  0.0298
  511TIP3    H223093   2.585   0.769   0.783 -0.2898  0.5188 -0.0318
  512TIP3   OH223094   0.260   6.130   1.115 -0.3682 -0.4309  0.1408
  512TIP3    H123095   0.338   6.154   1.165  0.6621 -0.8001 -1.2156
  512TIP3    H223096   0.256   6.034   1.123  1.0924 -0.7737 -2.1571
  513TIP3   OH223097   2.830   3.532   8.717 -0.5879 -0.3804  0.0857
  513TIP3    H123098   2.865   3.616   8.687  1.3070  0.2350  3.5181
  513TIP3    H223099   2.739   3.551   8.741  0.0491  0.9913  1.6042
  514TIP3   OH223100   4.747   4.050   1.107  0.4179  0.1357 -0.1155
  514TIP3    H123101   4.665   4.032   1.062  0.0285  2.0111 -0.2503
  514TIP3    H223102   4.764   3.972   1.159 -1.1397 -0.5134 -0.5354
  515TIP3   OH223103   4.187   3.363   2.347  0.4244 -0.4998 -0.2669
  515TIP3    H123104   4.211   3.415   2.424  1.5357 -1.5570  0.1375
  515TIP3    H223105   4.269   3.353   2.299 -0.3705  0.7351 -2.0087
  516TIP3   OH223106   6.071   3.021   1.105  0.4453  0.4303  0.2435
  516TIP3    H123107   6.143   2.978   1.059  0.4637 -0.0238  0.6878
  516TIP3    H223108   5.993   2.974   1.075  0.2325  1.4764 -0.8921
  517TIP3   OH223109   5.596   3.319   7.451 -0.3693 -0.0221 -0.3564
  517TIP3    H123110   5.553   3.283   7.374  0.6000 -0.0084 -0.9190
  517TIP3    H223111   5.623   3.407   7.424 -0.5872  0.2237  0.2115
  518TIP3   OH223112   4.507   2.080   1.938  0.0047 -0.1064  0.8777
  518TIP3    H123113   4.464   2.062   1.854  0.8733  2.9086 -0.3617
  518TIP3    H223114   4.493   2.001   1.989 -3.8400 -0.7188 -0.7131
  519TIP3   OH223115   1.114   1.718   0.152  0.5774 -0.3154 -0.1757
  519TIP3    H123116   1.073   1.789   0.103 -1.4378  1.7968  3.9735
  519TIP3    H223117   1.204   1.747   0.167  0.6386 -0.0738 -1.0017
  520TIP3   OH223118   4.939   2.617   2.107  0.4170 -0.2058 -0.4826
  520TIP3    H123119   4.952   2.546   2.043  0.2850  0.3031 -1.0840
  520TIP3    H223120   4.962   2.696   2.059 -1.1869  0.3517 -0.3844
  521TIP3   OH223121   0.470   0.328   0.376  1.1045 -0.0303 -0.3387
  521TIP3    H123122   0.452   0.415   0.410  0.9351 -0.3815  0.5051
  521TIP3    H223123   0.418   0.321   0.296 -1.0510 -0.3290  1.0087
  522TIP3   OH223124   2.317   1.306   8.113 -0.5613 -0.2498  0.0068
  522TIP3    H123125   2.271   1.245   8.056  0.5720 -0.8296 -0.3225
  522TIP3    H223126   2.408   1.278   8.110 -0.2006  0.7509  0.7782
  523TIP3   OH223127   2.668   4.891   6.778  0.5868 -0.4686  0.5325
  523TIP3    H123128   2.581   4.925   6.797  0.4715  0.6356 -1.7441
  523TIP3    H223129   2.653   4.806   6.738  0.4841  0.0767 -0.6172
  524TIP3   OH223130   1.151   2.006   7.863 -0.3615 -0.3319 -0.5175
  524TIP3    H123131   1.070   1.964   7.836  0.2162 -3.2170  1.7409
  524TIP3    H223132   1.131   2.044   7.949  0.7973 -1.6964  0.3993
  525TIP3   OH223133   6.136   4.923   6.996  0.3327  0.1633  0.2534
  525TIP3    H123134   6.121   4.848   7.054  1.0303  0.5993  1.0127
  525TIP3    H223135   6.084   4.994   7.034 -0.0430  0.1703 -0.2629
  526TIP3   OH223136   1.164   4.486   6.675 -1.0258 -0.2415  0.1425
  526TIP3    H123137   1.204   4.399   6.678 -0.4111  0.0217 -0.3209
  526TIP3    H223138   1.122   4.496   6.761  1.0702  0.0286  1.2013
  527TIP3   OH223139   2.675   4.793   7.913  0.1468  0.2230  0.3287
  527TIP3    H123140   2.702   4.724   7.852 -3.3971 -2.7149  1.7004
  527TIP3    H223141   2.593   4.827   7.876 -1.1004 -0.3306  2.4201
  528TIP3   OH223142   6.439   3.662   0.964 -0.0136  0.3205 -0.2663
  528TIP3    H123143   6.460   3.755   0.973 -1.4159  0.6427 -0.1589
  528TIP3    H223144   6.417   3.633   1.052  0.1984 -0.0678 -0.3357
  529TIP3   OH223145   5.193   3.996   1.473  0.3968 -0.0010 -0.1014
  529TIP3    H123146   5.128   3.949   1.525  0.4538  0.7143  0.6411
  529TIP3    H223147   5.161   3.991   1.383 -2.3933  2.9566  0.5468
  530TIP3   OH223148   2.408   6.515   2.321 -0.2999  0.1549 -0.4610
  530TIP3    H123149   2.389   6.574   2.248  0.0967  1.3908  0.3997
  530TIP3    H223150   2.408   6.572   2.398 -1.0776 -1.1683  0.5627
  531TIP3   OH223151   1.983   5.162   1.759  0.2148  0.7350 -0.4876
  531TIP3    H123152   1.916   5.101   1.728 -1.3362  1.4786  1.1442
  531TIP3    H223153   2.066   5.126   1.728 -0.8780 -0.5969 -2.0203
  532TIP3   OH223154   4.822   3.235   8.507  0.2127  0.1356  0.4275
  532TIP3    H123155   4.838   3.161   8.449  0.2648  0.6714 -0.2503
  532TIP3    H223156   4.804   3.195   8.593 -0.8231 -0.7124 -0.1565
  533TIP3   OH223157   0.577   1.062   2.743 -0.1003 -0.2377  1.0275
  533TIP3    H123158   0.668   1.045   2.720 -0.2791 -0.7469  0.6815
  533TIP3    H223159   0.562   1.010   2.822 -0.3126 -0.7930  0.6313
  534TIP3   OH223160   4.200   3.403   1.944  0.3911 -0.0182  0.1459
  534TIP3    H123161   4.228   3.494   1.958 -1.2338  0.3610  1.1689
  534TIP3    H223162   4.258   3.371   1.875  1.0477  1.7776 -0.1964
  535TIP3   OH223163   0.927   4.871   8.768  0.6939  0.3201 -0.4125
  535TIP3    H123164   1.013   4.878   8.727  1.3769  0.5654  1.0164
  535TIP3    H223165   0.945   4.839   8.856 -0.8643 -1.6172 -0.7269
  536TIP3   OH223166   5.852   0.319   8.750 -0.0167  0.1536  0.2803
  536TIP3    H123167   5.823   0.248   8.808 -4.0048  0.9824 -0.4081
  536TIP3    H223168   5.871   0.276   8.667 -0.1419 -0.3599  0.5107
  537TIP3   OH223169   4.849   0.684   2.483  0.0389  0.0236  0.1043
  537TIP3    H123170   4.936   0.717   2.506  0.7744 -1.3496 -0.5879
  537TIP3    H223171   4.791   0.759   2.495  1.4210  1.1731 -0.1366
  538TIP3   OH223172   1.263   1.314   2.921 -0.5056  0.2258  0.1474
  538TIP3    H123173   1.215   1.287   2.999  0.0120 -0.0190  0.3842
  538TIP3    H223174   1.353   1.283   2.936  0.1103  1.9720  0.4017
  539TIP3   OH223175   1.707   0.861   0.382 -0.1077 -0.2344 -0.0056
  539TIP3    H123176   1.686   0.883   0.292  1.7349  0.5305 -0.2800
  539TIP3    H223177   1.624   0.868   0.429 -0.6042  2.0741 -1.1214
  540TIP3   OH223178   0.300   4.402   0.730 -0.1693  0.1408  0.1798
  540TIP3    H123179   0.347   4.440   0.656  0.7711 -0.4378  0.4573
  540TIP3    H223180   0.222   4.457   0.741 -2.3582 -1.8217 -3.5497
  541TIP3   OH223181   5.279   2.749   0.150  0.6985 -0.1242 -0.5005
  541TIP3    H123182   5.328   2.686   0.098  1.2229  1.5544 -2.1361
  541TIP3    H223183   5.221   2.792   0.087  0.7155  1.3535  0.4405
  542TIP3   OH223184   2.849   0.237   0.090  0.0341 -0.0712  0.4825
  542TIP3    H123185   2.904   0.204   0.161  1.3832  1.0149 -0.0076
  542TIP3    H223186   2.882   0.193   0.011  2.7036  3.1087 -0.3879
  543TIP3   OH223187   4.521   0.591   2.156 -0.2404 -0.0499  0.0139
  543TIP3    H123188   4.601   0.604   2.206 -1.6153 -0.2719  2.4356
  543TIP3    H223189   4.451   0.597   2.221 -2.1664 -0.4436 -1.9064
  544TIP3   OH223190   1.581   5.017   7.642 -0.2943  0.9102 -0.4973
  544TIP3    H123191   1.621   4.931   7.657 -0.0911  0.7063 -2.0973
  544TIP3    H223192   1.619   5.073   7.711 -3.2694 -1.0403  3.0997
  545TIP3   OH223193   4.197   2.033   0.994 -0.5031  0.7778  0.6342
  545TIP3    H123194   4.117   1.985   0.974 -0.8106  0.9326  1.4192
  545TIP3    H223195   4.166   2.119   1.024  0.0779  2.0373 -2.1207
  546TIP3   OH223196   6.257   6.526   8.126 -0.1065  0.2156 -0.2350
  546TIP3    H123197   6.232   6.548   8.036  1.5018 -1.8521 -1.2969
  546TIP3    H223198   6.246   6.431   8.130  1.0870  0.1174  1.3471
  547TIP3   OH223199   4.355   3.337   1.669 -0.1376 -0.6619 -0.7224
  547TIP3    H123200   4.267   3.348   1.634  0.0953  0.2128 -1.0558
  547TIP3    H223201   4.382   3.251   1.638 -0.0566 -0.0586 -2.4704
  548TIP3   OH223202   6.597   6.599   1.528 -0.6763  0.2453 -0.3090
  548TIP3    H123203   6.621   6.689   1.552 -0.4962  0.1683 -0.1920
  548TIP3    H223204   6.679   6.560   1.498 -0.4984 -0.2249  0.7279
  549TIP3   OH223205   5.821   1.172   7.953 -0.8679  0.1402  0.0700
  549TIP3    H123206   5.788   1.195   7.866 -1.0462 -3.4876 -0.9727
  549TIP3    H223207   5.908   1.212   7.956 -0.0221 -1.1960 -2.6877
  550TIP3   OH223208   5.044   1.105   0.002  0.4264  0.1342  0.1356
  550TIP3    H123209   4.962   1.103  -0.048  0.2886  0.4131  0.3497
  550TIP3    H223210   5.112   1.085  -0.063  0.3276  1.2079 -0.3155
  551TIP3   OH223211   4.212   5.875   2.085  0.2374 -0.2260 -0.5485
  551TIP3    H123212   4.288   5.821   2.107 -1.5172 -3.3362 -1.4623
  551TIP3    H223213   4.161   5.880   2.167  0.5654  0.3713 -0.3768
  552TIP3   OH223214   6.728   6.758   8.070 -0.4743  0.1869 -0.2540
  552TIP3    H123215   6.696   6.759   7.980  2.2510 -1.6303 -1.3531
  552TIP3    H223216   6.726   6.850   8.097  0.5462  1.0781 -2.8928
  553TIP3   OH223217   3.022   0.093   1.404 -0.3306  0.5270  0.2420
  553TIP3    H123218   2.944   0.143   1.383 -1.6194 -0.7805  1.6810
  553TIP3    H223219   3.001   0.048   1.486  0.1870 -3.3631 -1.5030
  554TIP3   OH223220   5.780   3.347   2.124 -0.1484  0.1880  0.1432
  554TIP3    H123221   5.727   3.323   2.048  0.5800  1.7152 -0.8938
  554TIP3    H223222   5.850   3.401   2.088  0.2720  0.8726  1.9000
  555TIP3   OH223223   1.445   1.127   1.107  0.4918  0.1080  0.2102
  555TIP3    H123224   1.490   1.140   1.024  1.4750 -1.4691  0.4546
  555TIP3    H223225   1.358   1.096   1.084  0.7244 -0.2169 -0.2324
  556TIP3   OH223226   2.207   4.324   8.584  0.0573  0.3934 -0.0441
  556TIP3    H123227   2.158   4.319   8.666 -0.1874  1.1570 -0.1346
  556TIP3    H223228   2.215   4.418   8.567 -1.6531  0.2557 -1.9387
  557TIP3   OH223229   6.123   4.706   1.500 -0.2067 -0.0846  0.0949
  557TIP3    H123230   6.211   4.702   1.537 -0.7908 -2.5088  1.4481
  557TIP3    H223231   6.071   4.647   1.554 -2.3847  0.2653 -1.4590
  558TIP3   OH223232   0.701   4.843   2.104  0.5596  0.5720  0.1549
  558TIP3    H123233   0.665   4.892   2.030 -1.2558  0.2747  0.7799
  558TIP3    H223234   0.718   4.755   2.069 -0.1554  0.4737  0.0356
  559TIP3   OH223235   0.766   3.141   0.810  0.2742  0.1891 -0.0417
  559TIP3    H123236   0.810   3.180   0.734  0.0603  0.1712 -0.1742
  559TIP3    H223237   0.808   3.055   0.819  1.4372  0.8156  0.8475
  560TIP3   OH223238   6.283   0.990   1.287 -0.2766 -0.0890  0.1086
  560TIP3    H123239   6.322   1.067   1.329  0.4985 -0.1055 -0.5531
  560TIP3    H223240   6.341   0.972   1.213 -0.3103 -1.4585  0.4006
  561TIP3   OH223241   5.536   3.725   1.188  0.1306  0.5978  0.1525
  561TIP3    H123242   5.495   3.811   1.194 -0.4968  0.2227  1.4054
  561TIP3    H223243   5.630   3.744   1.185  0.0040  1.3139  0.5062
  562TIP3   OH223244   0.404   5.388   0.324  1.4767  0.3673  0.6441
  562TIP3    H123245   0.376   5.424   0.408  0.2091  1.0695 -0.0556
  562TIP3    H223246   0.351   5.308   0.313 -0.1562  1.5452 -0.5485
  563TIP3   OH223247   1.776   4.176   8.672 -0.8571  0.2060  0.2030
  563TIP3    H123248   1.840   4.132   8.617 -2.6094  0.0224 -1.8453
  563TIP3    H223249   1.736   4.107   8.724 -0.6314  0.0522  0.1713
  564TIP3   OH223250   1.309   1.166   1.610 -0.0555 -0.3965 -0.4597
  564TIP3    H123251   1.397   1.197   1.589  0.9013 -1.8834  1.1034
  564TIP3    H223252   1.255   1.245   1.609  1.4697  0.6880 -0.5727
  565TIP3   OH223253   5.940   1.861   7.476 -0.1597 -0.6787 -0.3206
  565TIP3    H123254   5.947   1.949   7.439  0.4595 -0.2286  0.8169
  565TIP3    H223255   5.853   1.858   7.514  0.2405 -0.1017  0.6945
  566TIP3   OH223256   4.236   1.178   7.457  0.2416  0.4168  0.3067
  566TIP3    H123257   4.201   1.140   7.537 -1.3045  0.6415 -0.2326
  566TIP3    H223258   4.317   1.129   7.440  1.4953  1.4044  2.8318
  567TIP3   OH223259   3.702   3.674   1.847  0.0434  0.2341 -0.0335
  567TIP3    H123260   3.732   3.637   1.764  0.9728 -2.4692  1.3746
  567TIP3    H223261   3.637   3.611   1.879 -0.1595  1.1124  1.3620
  568TIP3   OH223262   6.027   4.269   1.602 -0.3208 -0.2518 -0.2201
  568TIP3    H123263   5.961   4.236   1.663 -0.1546  0.0918  0.1536
  568TIP3    H223264   6.109   4.230   1.633  0.2982  2.2695  1.6919
  569TIP3   OH223265   1.446   0.624   0.500  0.5751 -0.5419  0.2642
  569TIP3    H123266   1.469   0.716   0.491 -1.6527  0.1416  0.8855
  569TIP3    H223267   1.395   0.620   0.581 -0.7282 -2.0053 -0.5722
  570TIP3   OH223268   2.784   5.872   7.642  0.5036  0.0520  0.5532
  570TIP3    H123269   2.856   5.873   7.705 -0.4200  0.1416  1.6318
  570TIP3    H223270   2.706   5.859   7.695 -0.4399  1.4120 -0.4209
  571TIP3   OH223271   1.643   5.688   7.831 -0.1856  0.3405 -0.1080
  571TIP3    H123272   1.600   5.770   7.806  0.5655  0.4258 -1.1838
  571TIP3    H223273   1.707   5.672   7.762 -0.3493 -1.1793  0.0501
  572TIP3   OH223274   4.031   6.460   2.604  0.3985  0.0383 -0.5763
  572TIP3    H123275   4.083   6.395   2.650 -0.3422 -0.3037 -0.2052
  572TIP3    H223276   4.077   6.542   2.617  1.3849 -0.4160 -1.1149
  573TIP3   OH223277   4.072   5.897   1.499 -0.3012  0.2228 -0.3864
  573TIP3    H123278   3.984   5.934   1.505 -0.0153  0.6577  2.4649
  573TIP3    H223279   4.126   5.951   1.556  1.1900 -1.7355  0.1862
  574TIP3   OH223280   0.602   4.223   0.387 -0.0142 -0.1942 -0.0491
  574TIP3    H123281   0.640   4.135   0.392  1.5493  0.4492  0.1657
  574TIP3    H223282   0.622   4.262   0.472 -0.8086  0.3308 -0.0969
  575TIP3   OH223283   6.479   5.415   2.141  0.3733  0.1741  0.0203
  575TIP3    H123284   6.476   5.340   2.201  1.2157  1.0349  1.1963
  575TIP3    H223285   6.407   5.471   2.169  0.2823  0.2136 -0.2906
  576TIP3   OH223286   5.592   3.867   0.847 -0.1602 -0.7232 -0.1817
  576TIP3    H123287   5.611   3.774   0.865  1.3405 -0.4011 -0.0367
  576TIP3    H223288   5.633   3.884   0.763 -0.3564 -0.1469 -0.1612
  577TIP3   OH223289   1.287   5.684   1.940 -0.6909  0.2583  0.3518
  577TIP3    H123290   1.250   5.608   1.985 -2.9313  1.4885  0.7587
  577TIP3    H223291   1.320   5.650   1.857 -1.1003 -1.2431  0.7825
  578TIP3   OH223292   0.042   2.932   1.712 -0.0903 -0.0330  0.3090
  578TIP3    H123293  -0.044   2.944   1.753 -0.0592  1.1279  0.0736
  578TIP3    H223294   0.056   2.837   1.714 -2.3990 -0.5150 -1.6968
  579TIP3   OH223295   0.520   2.158   8.545 -0.0204  0.0296  0.5795
  579TIP3    H123296   0.612   2.151   8.571  0.5203  0.4692 -1.0509
  579TIP3    H223297   0.513   2.100   8.469 -0.8598  0.6858  0.1373
  580TIP3   OH223298   3.246   1.516   8.084 -0.0173 -0.4398 -0.2532
  580TIP3    H123299   3.312   1.585   8.090  0.1430 -0.7093  2.1255
  580TIP3    H223300   3.287   1.441   8.128 -0.0929 -2.1836 -2.9182
  581TIP3   OH223301   1.826   0.351   7.311 -0.2978 -0.1098  0.4187
  581TIP3    H123302   1.786   0.322   7.229  0.0091  0.7835 -0.0666
  581TIP3    H223303   1.844   0.270   7.359 -1.4045 -0.5998  0.0540
  582TIP3   OH223304   6.648   6.798   7.564  0.2442  0.8550 -0.7128
  582TIP3    H123305   6.564   6.825   7.526  0.3035  0.3345 -1.2426
  582TIP3    H223306   6.685   6.739   7.498  0.0041 -0.7004  0.4970
  583TIP3   OH223307   5.439   5.495   2.146 -0.6566  0.3531 -0.0589
  583TIP3    H123308   5.397   5.409   2.153  1.3396 -0.6050  0.8956
  583TIP3    H223309   5.430   5.519   2.054 -0.4664 -1.3289 -0.5403
  584TIP3   OH223310   3.275   4.041   2.319  0.5696 -0.1085 -0.7600
  584TIP3    H123311   3.351   4.083   2.280  2.2187 -0.6351  1.6914
  584TIP3    H223312   3.228   4.112   2.364  0.2018  0.0187 -1.3280
  585TIP3   OH223313   3.334   0.374   0.513 -0.3512 -0.0292  0.3691
  585TIP3    H123314   3.299   0.447   0.564  0.6252  0.0354  0.9744
  585TIP3    H223315   3.417   0.407   0.478 -0.2180 -0.6353  0.1083
  586TIP3   OH223316   3.439   5.703   1.336 -0.1781  0.5274  0.3284
  586TIP3    H123317   3.386   5.694   1.415  0.1658 -2.3128  0.3138
  586TIP3    H223318   3.527   5.723   1.368 -0.3330  0.8211  0.5759
  587TIP3   OH223319   1.416   5.053   1.184 -0.1676 -0.0881  0.3426
  587TIP3    H123320   1.462   4.987   1.236 -0.1687 -1.1386 -0.9409
  587TIP3    H223321   1.331   5.012   1.165 -0.0692  0.1613 -0.6852
  588TIP3   OH223322   0.071   3.598   2.082 -0.1875 -0.2779 -0.0652
  588TIP3    H123323  -0.009   3.624   2.128 -0.8274  0.8483 -1.7259
  588TIP3    H223324   0.094   3.674   2.029  2.8168 -0.0019  1.3729
  589TIP3   OH223325   2.708   6.489   2.472  0.2686 -0.1278 -0.4331
  589TIP3    H123326   2.684   6.413   2.420  2.4749 -0.1216 -1.5958
  589TIP3    H223327   2.740   6.452   2.555 -0.4250 -0.3260 -0.2487
  590TIP3   OH223328   3.749   3.833   0.479 -0.2760  0.5720  0.5056
  590TIP3    H123329   3.682   3.768   0.456  0.9626 -0.0870 -1.4295
  590TIP3    H223330   3.806   3.837   0.403  0.6945  2.6861  1.2759
  591TIP3   OH223331   4.820   6.717   7.350  0.4239  0.0677 -0.0419
  591TIP3    H123332   4.902   6.698   7.305  2.1892  1.2004  2.4656
  591TIP3    H223333   4.803   6.638   7.401  1.3117  0.7008  1.2790
  592TIP3   OH223334   6.113   1.976   0.891 -0.3389 -0.0273 -0.0335
  592TIP3    H123335   6.106   1.885   0.860 -0.6884 -0.1829  0.4987
  592TIP3    H223336   6.060   1.979   0.970  0.4205  0.4110  0.4727
  593TIP3   OH223337   2.171   4.017   2.224 -0.5419  0.2073  0.3580
  593TIP3    H123338   2.157   3.985   2.135  0.9324 -0.9632  0.4969
  593TIP3    H223339   2.177   4.112   2.215 -1.2111  0.1668 -0.6544
  594TIP3   OH223340   1.499   5.257   6.929 -0.1668  0.1103  0.7923
  594TIP3    H123341   1.475   5.224   6.843 -0.5548 -0.0898  0.9722
  594TIP3    H223342   1.415   5.269   6.975  0.0245  0.3932  1.0749
  595TIP3   OH223343   6.775   6.082   6.405  0.4827  0.0607  0.1000
  595TIP3    H123344   6.722   6.148   6.450 -0.3782  0.2407 -1.1400
  595TIP3    H223345   6.751   5.999   6.447 -0.1503  0.2444  0.1032
  596TIP3   OH223346   0.986   5.689   2.071 -0.2062  0.1132 -0.2653
  596TIP3    H123347   0.973   5.614   2.013 -0.3133  0.1736 -0.3208
  596TIP3    H223348   0.912   5.747   2.052  0.9641  1.2112 -1.7302
  597TIP3   OH223349   3.377   0.932   0.371  0.1760 -1.1546 -0.2331
  597TIP3    H123350   3.408   0.995   0.437 -0.9517 -0.6427 -0.1739
  597TIP3    H223351   3.363   0.851   0.419  0.3206 -1.0703 -0.0464
  598TIP3   OH223352   4.882   4.754   1.376  0.0634 -0.1199 -0.3021
  598TIP3    H123353   4.947   4.805   1.327  0.0903 -0.0701 -0.2160
  598TIP3    H223354   4.810   4.816   1.391  0.9591  0.5320  1.5935
  599TIP3   OH223355   6.692   5.571   0.528 -0.0855 -0.1716 -0.1158
  599TIP3    H123356   6.731   5.535   0.449 -2.7080 -1.6505 -0.8494
  599TIP3    H223357   6.706   5.666   0.521 -0.1460 -0.2933 -2.2734
  600TIP3   OH223358   2.571   0.168   8.423 -0.5074 -0.6639  0.0203
  600TIP3    H123359   2.521   0.117   8.361  1.2560 -0.2277 -1.8642
  600TIP3    H223360   2.660   0.132   8.419 -0.0323  0.2404  1.2948
  601TIP3   OH223361   0.695   5.987   0.556  0.2781  0.5216 -0.0153
  601TIP3    H123362   0.737   5.905   0.529  1.3358  1.1154 -0.2129
  601TIP3    H223363   0.723   6.051   0.491  0.0551  1.2129  0.5575
  602TIP3   OH223364   3.731   3.891   2.436 -0.6401 -0.1519  0.0223
  602TIP3    H123365   3.749   3.799   2.414 -1.2692 -0.2548 -0.1091
  602TIP3    H223366   3.780   3.907   2.516  1.6589  0.2023 -1.3634
  603TIP3   OH223367   3.057   6.742   8.122  0.5161  0.0013  0.0524
  603TIP3    H123368   3.038   6.828   8.083 -1.1765  0.2715  1.3690
  603TIP3    H223369   2.988   6.685   8.089  1.6133 -0.9137 -0.7915
  604TIP3   OH223370   3.009   4.928   1.920  0.1922  0.1774  0.0962
  604TIP3    H123371   2.950   4.919   1.845 -0.4863  0.7517  0.5399
  604TIP3    H223372   2.992   4.851   1.974  0.4409 -0.0689 -0.1767
  605TIP3   OH223373   2.293   2.834   7.572  0.1252  0.1981  0.0557
  605TIP3    H123374   2.227   2.785   7.523  0.6738  0.6924 -1.2258
  605TIP3    H223375   2.260   2.834   7.662 -0.1589 -2.0145  0.0061
  606TIP3   OH223376   0.791   6.222   1.788  0.7494  0.1098  0.0981
  606TIP3    H123377   0.862   6.239   1.850  0.1435 -2.0485  1.4828
  606TIP3    H223378   0.725   6.176   1.839 -0.4821 -0.3408 -1.7982
  607TIP3   OH223379   6.780   3.908   0.291  0.0416  0.4295 -0.2400
  607TIP3    H123380   6.815   3.949   0.370 -0.7532  2.9619 -1.1244
  607TIP3    H223381   6.821   3.955   0.219 -1.3642  0.0873 -1.3101
  608TIP3   OH223382   1.480   3.542   7.448  0.0936  0.0817 -0.4751
  608TIP3    H123383   1.512   3.505   7.530  0.7414 -2.1192 -1.6479
  608TIP3    H223384   1.403   3.491   7.426 -1.1096  1.7761 -0.4505
  609TIP3   OH223385   5.544   0.478   1.608 -0.3910 -0.1396  0.5800
  609TIP3    H123386   5.470   0.500   1.664 -1.5428  0.1439 -1.0093
  609TIP3    H223387   5.506   0.436   1.531  1.0976  0.0029 -0.2848
  610TIP3   OH223388   5.668   2.594   7.900  0.0138  0.5022  0.8956
  610TIP3    H123389   5.713   2.679   7.895 -1.2884  1.1150 -1.4859
  610TIP3    H223390   5.719   2.536   7.844  0.2339  0.0004  1.5974
  611TIP3   OH223391   2.707   5.241   1.998  0.1757  0.1629 -0.0122
  611TIP3    H123392   2.612   5.248   1.987  0.0862  1.1495  1.2130
  611TIP3    H223393   2.726   5.150   1.976 -0.9711  0.0708 -0.7468
  612TIP3   OH223394   1.614   2.346   1.032  0.2204 -0.1735 -0.1431
  612TIP3    H123395   1.612   2.314   1.122 -0.3055  0.3101  0.0205
  612TIP3    H223396   1.707   2.358   1.013  0.3637 -0.7477  0.1625
  613TIP3   OH223397   0.155   0.512   0.797 -0.0423  0.1358  0.4285
  613TIP3    H123398   0.172   0.485   0.887 -0.2976  0.4151  0.5634
  613TIP3    H223399   0.115   0.435   0.757  2.3639 -0.8925 -0.1819
  614TIP3   OH223400   2.287   5.114   8.759 -0.1655  0.7231 -0.7104
  614TIP3    H123401   2.372   5.073   8.740 -1.2189 -1.4544 -0.9909
  614TIP3    H223402   2.232   5.092   8.683 -1.9936 -0.9899  0.9855
  615TIP3   OH223403   4.420   4.790   8.014 -0.2697  0.4666 -0.1106
  615TIP3    H123404   4.400   4.803   8.106 -0.8480  3.1314 -0.5344
  615TIP3    H223405   4.337   4.806   7.969  0.1692 -0.0729 -1.1630
  616TIP3   OH223406   2.891   1.054   8.393  0.2951  0.1076  0.4205
  616TIP3    H123407   2.796   1.065   8.397 -0.0769 -2.7988  1.9926
  616TIP3    H223408   2.924   1.105   8.466 -0.2465 -0.3056  0.9627
  617TIP3   OH223409   3.653   4.968   6.936 -0.1242 -0.2548  0.4415
  617TIP3    H123410   3.594   5.002   6.868 -0.6298 -0.6892  0.6523
  617TIP3    H223411   3.595   4.921   6.996  0.0526  1.5922  2.1535
  618TIP3   OH223412   1.958   4.389   7.572  0.1782 -0.2349 -0.5622
  618TIP3    H123413   2.006   4.457   7.620 -0.2040  0.3592 -1.0026
  618TIP3    H223414   1.870   4.426   7.561 -0.4775 -1.4224  0.4765
  619TIP3   OH223415   6.476   2.813   1.084 -0.2787  0.2479  0.9091
  619TIP3    H123416   6.561   2.841   1.050  0.1416  0.5307  2.1594
  619TIP3    H223417   6.496   2.737   1.139 -0.9231 -0.0853  0.6956
  620TIP3   OH223418   4.484   5.881   8.334 -0.7870 -0.6104 -0.3178
  620TIP3    H123419   4.545   5.944   8.372  0.0563 -1.6534  0.1006
  620TIP3    H223420   4.477   5.907   8.242 -0.8578  0.3917 -0.0374
  621TIP3   OH223421   1.488   2.694   1.423 -0.1795 -0.2922 -0.2892
  621TIP3    H123422   1.470   2.649   1.506 -0.1833  0.8734  0.3717
  621TIP3    H223423   1.550   2.637   1.377 -3.5375 -3.2514 -1.5615
  622TIP3   OH223424   6.701   6.016   7.086 -0.0793  0.2149  0.5771
  622TIP3    H123425   6.724   5.930   7.121  1.7458  0.5723  0.3541
  622TIP3    H223426   6.738   6.078   7.148  1.6268  0.8386 -0.9950
  623TIP3   OH223427   5.919   5.768   8.356  0.4537 -0.1583 -0.2343
  623TIP3    H123428   5.929   5.777   8.261 -1.2960 -0.2104 -0.4518
  623TIP3    H223429   5.926   5.674   8.372  1.6824 -0.0721 -0.1693
  624TIP3   OH223430   6.309   2.191   0.854 -0.4022 -0.6140 -0.1882
  624TIP3    H123431   6.325   2.148   0.771  1.3653 -0.4667  0.0235
  624TIP3    H223432   6.227   2.155   0.886 -0.1508 -2.0626 -1.1194
  625TIP3   OH223433   2.736   6.346   8.242  0.2710  0.7633  0.1101
  625TIP3    H123434   2.827   6.353   8.273 -0.2750  0.6996  1.8517
  625TIP3    H223435   2.723   6.424   8.189  1.0308  1.3586  0.7607
  626TIP3   OH223436   4.229   4.390   2.102 -0.3321  0.4030  0.5089
  626TIP3    H123437   4.307   4.381   2.158 -1.1461  1.0170  1.7985
  626TIP3    H223438   4.156   4.367   2.160 -1.1682  0.5592 -0.4683
  627TIP3   OH223439   1.366   5.950   1.189  0.1385  0.3040 -0.7183
  627TIP3    H123440   1.424   6.025   1.204  2.0287 -0.9027 -1.5304
  627TIP3    H223441   1.411   5.899   1.121 -1.3664 -1.2596 -0.5961
  628TIP3   OH223442   1.535   4.388   8.388  0.4702 -0.0906  0.6478
  628TIP3    H123443   1.481   4.467   8.382 -2.1629 -1.8292 -0.3307
  628TIP3    H223444   1.600   4.409   8.456 -0.7934  2.4936  1.2114
  629TIP3   OH223445   3.045   0.298   0.610  0.1950  0.1598  0.3674
  629TIP3    H123446   3.095   0.236   0.662 -0.5934  0.5591  1.6534
  629TIP3    H223447   3.065   0.383   0.649  0.8609  0.6900 -1.0452
  630TIP3   OH223448   0.673   0.159   7.413 -0.5324 -0.5930 -0.0623
  630TIP3    H123449   0.604   0.098   7.385 -0.2041 -0.7472 -0.5608
  630TIP3    H223450   0.669   0.230   7.348  0.1267 -0.8703 -0.4155
  631TIP3   OH223451   4.459   4.810   7.576 -0.0995  0.1878 -0.5538
  631TIP3    H123452   4.368   4.787   7.595 -0.1670  0.0772 -1.0003
  631TIP3    H223453   4.465   4.807   7.481 -0.2873  2.6929 -0.7031
  632TIP3   OH223454   6.549   6.731   7.108 -0.6180  0.5984 -0.0824
  632TIP3    H123455   6.462   6.711   7.074  0.8242 -0.8684 -3.4307
  632TIP3    H223456   6.588   6.646   7.126  0.9948  1.0061 -1.3552
  633TIP3   OH223457   3.614   2.816   1.405 -0.5558  0.3243 -0.4297
  633TIP3    H123458   3.650   2.762   1.475  1.6701  1.2973 -0.7382
  633TIP3    H223459   3.611   2.757   1.329 -0.7007 -0.0767 -0.1195
  634TIP3   OH223460   3.225   2.572   7.875 -0.2506 -0.0991 -0.2888
  634TIP3    H123461   3.192   2.525   7.799  0.6570  0.0757 -0.8099
  634TIP3    H223462   3.277   2.507   7.922  0.6078  0.2343 -0.7531
  635TIP3   OH223463   0.648   1.516   0.736  0.1597  0.4973 -0.0698
  635TIP3    H123464   0.736   1.552   0.729  0.3559 -0.1323 -0.9249
  635TIP3    H223465   0.602   1.577   0.795  1.5253  0.0925  1.4680
  636TIP3   OH223466   5.408   3.310   8.458  0.1867 -0.2147  0.2511
  636TIP3    H123467   5.335   3.278   8.510  0.2663  0.4684  0.8120
  636TIP3    H223468   5.396   3.405   8.457 -0.3381 -0.2620 -1.7866
  637TIP3   OH223469   6.619   4.774   7.064  0.3701  0.5685  0.2826
  637TIP3    H123470   6.584   4.696   7.021 -2.0574  0.4921  2.2002
  637TIP3    H223471   6.698   4.744   7.109 -0.2127 -0.6545  0.5121
  638TIP3   OH223472   4.830   1.351   1.250 -0.1819  0.1143  0.0309
  638TIP3    H123473   4.876   1.294   1.188  0.1668  2.1175 -1.6802
  638TIP3    H223474   4.738   1.330   1.238 -0.1600  0.7420 -1.5490
  639TIP3   OH223475   0.159   2.722   8.468 -0.6625  0.4025 -0.5005
  639TIP3    H123476   0.175   2.629   8.483 -0.1667  0.3479 -1.3030
  639TIP3    H223477   0.095   2.725   8.397 -0.3811  0.6689 -0.7488
  640TIP3   OH223478   5.690   2.398   0.415  0.5351 -0.1805  0.2482
  640TIP3    H123479   5.772   2.368   0.455  0.0612 -1.8952  0.0342
  640TIP3    H223480   5.705   2.389   0.321  0.0704 -0.6174  0.2104
  641TIP3   OH223481   5.656   1.464   2.547 -0.5534  0.1600 -0.2010
  641TIP3    H123482   5.661   1.382   2.596 -1.0973  1.3537  1.9952
  641TIP3    H223483   5.571   1.461   2.503 -1.8400  0.5961  2.0511
  642TIP3   OH223484   0.033   3.194   1.634  0.1614  0.2485 -0.2155
  642TIP3    H123485   0.019   3.230   1.721  0.7548  1.6614 -0.6719
  642TIP3    H223486   0.030   3.099   1.646 -2.0410  0.3969  0.9538
  643TIP3   OH223487   0.179   2.601   0.222  0.4609 -0.4089  0.2016
  643TIP3    H123488   0.215   2.517   0.249  0.4668 -0.1691  0.9446
  643TIP3    H223489   0.189   2.602   0.126 -0.2262 -1.5722  0.1045
  644TIP3   OH223490   4.760   2.565   1.115 -0.0681 -0.0196  0.4175
  644TIP3    H123491   4.784   2.596   1.202  0.5923  0.6419  0.0099
  644TIP3    H223492   4.818   2.491   1.098  0.8576  0.7925 -0.0567
  645TIP3   OH223493   2.157   6.243   2.320  0.0534  0.5082 -0.5642
  645TIP3    H123494   2.229   6.238   2.383  0.0539  0.5103 -0.5646
  645TIP3    H223495   2.133   6.151   2.304 -1.1723  0.5405  0.8340
  646TIP3   OH223496   5.103   3.108   0.217  0.4163  0.0420  1.1457
  646TIP3    H123497   5.127   3.029   0.169 -0.9492 -0.2177  0.8523
  646TIP3    H223498   5.078   3.077   0.304 -1.0535  0.0097  0.7341
  647TIP3   OH223499   3.878   2.632   0.863 -0.0543 -0.8261  0.6298
  647TIP3    H123500   3.931   2.570   0.914 -0.9447 -2.4246 -0.3054
  647TIP3    H223501   3.911   2.626   0.774 -0.9580 -0.8956  0.2846
  648TIP3   OH223502   1.261   4.608   8.611 -0.3671 -0.0365  0.0591
  648TIP3    H123503   1.198   4.652   8.668  0.0667  1.3837 -0.4929
  648TIP3    H223504   1.325   4.570   8.671 -0.5359  0.4488  0.5580
  649TIP3   OH223505   0.877   2.094   1.236 -0.3034  0.3420  0.0359
  649TIP3    H123506   0.864   2.143   1.155 -0.5319  1.6466  0.8364
  649TIP3    H223507   0.837   2.008   1.220  0.2530  0.3420 -1.4515
  650TIP3   OH223508   4.922   0.106   0.843  0.4103 -0.5455 -0.1917
  650TIP3    H123509   4.854   0.144   0.898 -1.0797  0.4485 -2.5783
  650TIP3    H223510   5.004   0.135   0.883 -0.4805 -1.4935  2.5739
  651TIP3   OH223511   5.684   5.145   7.679  0.6311  0.1575  0.0671
  651TIP3    H123512   5.682   5.240   7.691 -0.6458  0.0553  0.8341
  651TIP3    H223513   5.773   5.126   7.650  1.4543  1.3898  1.6596
  652TIP3   OH223514   6.733   4.408   1.691 -0.2462 -0.1750  0.6081
  652TIP3    H123515   6.763   4.498   1.673  2.6171 -0.8807  1.2872
  652TIP3    H223516   6.679   4.385   1.615 -0.3013  1.8004 -0.0151
  653TIP3   OH223517   1.087   2.802   0.629 -0.0021  0.1674 -0.1460
  653TIP3    H123518   1.100   2.712   0.658 -0.9046  0.0247 -0.1387
  653TIP3    H223519   1.110   2.802   0.536 -1.0694 -0.3484 -0.4284
  654TIP3   OH223520   0.618   2.333   1.295 -0.6743 -0.7865 -0.3508
  654TIP3    H123521   0.664   2.276   1.357 -1.4980  1.2923  2.3875
  654TIP3    H223522   0.545   2.369   1.346 -0.7689  1.9041 -2.2061
  655TIP3   OH223523   6.095   6.461   8.439 -0.4391 -0.2414  0.0268
  655TIP3    H123524   6.043   6.380   8.440 -2.0756  0.7313 -1.0140
  655TIP3    H223525   6.043   6.522   8.386  1.6157  0.9438 -0.7377
  656TIP3   OH223526   3.072   1.222   0.780  0.5019 -0.7573 -0.2186
  656TIP3    H123527   3.152   1.268   0.805 -1.0153  1.3599  1.0930
  656TIP3    H223528   3.092   1.130   0.795  2.6731 -0.3060  0.0501
  657TIP3   OH223529   0.954   1.703   1.283 -0.1109  0.0416  0.2060
  657TIP3    H123530   1.030   1.737   1.235  0.0514 -0.8989 -0.2267
  657TIP3    H223531   0.894   1.675   1.215 -0.8523  0.7548  0.5513
  658TIP3   OH223532   6.124   1.703   7.583  0.1474 -0.5473  0.1023
  658TIP3    H123533   6.063   1.762   7.538  1.1236  0.3885 -0.0450
  658TIP3    H223534   6.151   1.752   7.661 -0.4536 -1.5834  0.9838
  659TIP3   OH223535   6.476   6.028   1.110 -0.0486  0.0162 -0.4934
  659TIP3    H123536   6.461   6.112   1.154 -0.5759  0.5038 -1.5573
  659TIP3    H223537   6.462   6.047   1.017  0.2826 -1.1542 -0.7999
  660TIP3   OH223538   2.250   2.281   8.068  1.3929 -0.3515  0.4631
  660TIP3    H123539   2.156   2.299   8.075  1.2055  0.1820 -2.2721
  660TIP3    H223540   2.263   2.203   8.122  0.0642  1.3477  3.4811
  661TIP3   OH223541   2.191   0.796   1.215  0.1401 -0.9054  0.2312
  661TIP3    H123542   2.195   0.768   1.306  0.4678 -1.6637 -0.0050
  661TIP3    H223543   2.283   0.808   1.190 -0.0144  0.9936  0.4980
  662TIP3   OH223544   4.608   6.000   0.268  0.0401  0.5534  0.3170
  662TIP3    H123545   4.681   5.966   0.217 -1.5049 -0.6481 -1.2203
  662TIP3    H223546   4.569   5.923   0.309 -1.7176  0.7935 -0.7755
  663TIP3   OH223547   0.011   3.465   0.189 -0.7091  0.7363 -0.1229
  663TIP3    H123548   0.025   3.415   0.109 -1.0962 -1.1263  0.8985
  663TIP3    H223549   0.040   3.554   0.168  0.7187 -0.0745 -1.8084
  664TIP3   OH223550   5.159   5.660   1.053 -0.1832 -0.5111 -0.2232
  664TIP3    H123551   5.192   5.633   0.968  1.1207 -1.3555  0.5148
  664TIP3    H223552   5.209   5.608   1.116  0.5276  1.7001  1.1590
  665TIP3   OH223553   5.365   4.344   1.660 -0.1380  0.0172 -0.1166
  665TIP3    H123554   5.353   4.385   1.746 -0.6737 -0.4140  0.0198
  665TIP3    H223555   5.309   4.267   1.663 -0.3845  0.1607 -0.9733
  666TIP3   OH223556   0.812   6.235   8.474 -0.6190 -0.6146  0.3110
  666TIP3    H123557   0.846   6.190   8.552 -1.9494 -3.6142 -0.6988
  666TIP3    H223558   0.833   6.176   8.402 -3.9015 -0.4622 -0.9153
  667TIP3   OH223559   2.801   1.547   2.105 -0.3238 -0.5625  0.0660
  667TIP3    H123560   2.861   1.514   2.171  0.7696  1.0258 -0.0639
  667TIP3    H223561   2.811   1.489   2.030 -0.7150 -1.6917  0.8732
  668TIP3   OH223562   0.281   2.564   7.856  0.4960  0.1557 -0.3499
  668TIP3    H123563   0.331   2.619   7.795  0.7331  0.3100 -0.0155
  668TIP3    H223564   0.345   2.536   7.921  0.3104 -0.2667 -0.3436
  669TIP3   OH223565   1.153   5.104   8.005  0.3975  0.3137 -0.0674
  669TIP3    H123566   1.101   5.028   7.978  0.0714  0.2429  0.7275
  669TIP3    H223567   1.088   5.172   8.025  0.6812  0.7730 -0.6631
  670TIP3   OH223568   6.332   1.296   7.621  0.2119 -0.0762 -0.3118
  670TIP3    H123569   6.275   1.359   7.576  0.3187 -0.8472 -1.5602
  670TIP3    H223570   6.279   1.217   7.629  0.4063 -0.1400  0.3906
  671TIP3   OH223571   1.724   0.115   2.873 -0.3038 -0.2098  0.7202
  671TIP3    H123572   1.765   0.131   2.958 -1.0454 -2.7964  1.6696
  671TIP3    H223573   1.760   0.030   2.845  0.6790  0.9960 -2.0842
  672TIP3   OH223574   3.657   4.331   8.025  1.0441 -0.1631 -0.1377
  672TIP3    H123575   3.631   4.323   8.117  2.2306  1.0470  0.3480
  672TIP3    H223576   3.575   4.344   7.978  0.3815 -1.1915  0.6878
  673TIP3   OH223577   5.006   0.378   7.622 -0.4596  0.6827 -0.3311
  673TIP3    H123578   5.086   0.403   7.576  1.0610 -0.0455  1.7251
  673TIP3    H223579   4.995   0.285   7.602  0.7466  0.1142  1.3630
  674TIP3   OH223580   5.055   4.017   8.093  0.0943 -0.0717  0.6292
  674TIP3    H123581   4.974   4.055   8.126 -0.3249  2.7688 -3.0206
  674TIP3    H223582   5.031   3.928   8.068 -2.3234  1.0015 -1.2713
  675TIP3   OH223583   5.119   0.129   8.384 -0.8286  0.0102 -0.4132
  675TIP3    H123584   5.080   0.097   8.303 -1.1151 -1.4724  0.2861
  675TIP3    H223585   5.162   0.211   8.359 -1.6807  0.0462 -1.8633
  676TIP3   OH223586   3.581   3.961   0.865 -0.4545 -0.4959  0.0565
  676TIP3    H123587   3.583   3.936   0.957  0.5763  0.7482  0.4002
  676TIP3    H223588   3.623   3.888   0.819 -1.2793 -1.2729  0.5118
  677TIP3   OH223589   6.517   2.573   0.871  0.1991  0.6663 -0.4847
  677TIP3    H123590   6.577   2.558   0.797 -0.7369 -0.1423 -1.1212
  677TIP3    H223591   6.469   2.652   0.847 -0.2797  0.2671 -0.8981
  678TIP3   OH223592   1.318   2.442   2.484  0.4106  0.3650 -0.6850
  678TIP3    H123593   1.397   2.427   2.535 -0.1913  1.0786  0.5067
  678TIP3    H223594   1.271   2.359   2.487  0.0132  0.6121  0.6278
  679TIP3   OH223595   5.320   0.719   0.469 -0.1929 -0.1036 -0.5956
  679TIP3    H123596   5.259   0.759   0.531  3.0005 -0.1393  2.9439
  679TIP3    H223597   5.359   0.793   0.422 -1.2148  0.0788 -1.1824
  680TIP3   OH223598   6.688   4.031   2.548  0.0958 -0.1462 -0.2372
  680TIP3    H123599   6.677   3.949   2.500  0.3184 -0.6957  0.6366
  680TIP3    H223600   6.678   4.007   2.640 -1.3912  1.0618 -0.0353
  681TIP3   OH223601   6.522   6.060   0.057  0.6367  0.0290  0.1803
  681TIP3    H123602   6.465   6.133   0.034 -1.4288 -1.4758  0.1951
  681TIP3    H223603   6.596   6.100   0.102  0.2678  2.2016 -0.9996
  682TIP3   OH223604   1.559   3.219   0.351  0.7958 -0.4012  0.0682
  682TIP3    H123605   1.516   3.300   0.323  2.5325  0.2133 -0.9323
  682TIP3    H223606   1.550   3.219   0.447  0.6060  0.8659  0.0626
  683TIP3   OH223607   5.125   3.332   8.290  0.3614  0.3048 -0.1117
  683TIP3    H123608   5.116   3.378   8.373  0.6163 -2.1141  1.3709
  683TIP3    H223609   5.036   3.311   8.264  0.1334  2.8002 -1.5827
  684TIP3   OH223610   4.670   1.596   0.974  0.4289 -0.4516 -0.1951
  684TIP3    H123611   4.735   1.636   0.917  0.7582 -0.4403  0.1878
  684TIP3    H223612   4.595   1.655   0.970  0.1735 -0.8238 -1.1876
  685TIP3   OH223613   2.493   1.086   2.614  0.5398  0.3626  0.2107
  685TIP3    H123614   2.523   1.171   2.580 -0.1597  0.1351 -1.0496
  685TIP3    H223615   2.574   1.042   2.642  1.2366  0.4702 -1.4675
  686TIP3   OH223616   4.042   5.206   2.462  0.0714 -0.0760 -0.1448
  686TIP3    H123617   3.951   5.219   2.488 -0.3063 -3.2877  0.6072
  686TIP3    H223618   4.048   5.112   2.443  2.7327  0.3997 -2.2904
  687TIP3   OH223619   3.636   4.275   7.658  0.1086 -0.0294  0.4333
  687TIP3    H123620   3.597   4.201   7.612 -2.6000  1.1074  0.6751
  687TIP3    H223621   3.563   4.313   7.707  1.6537  2.1172  1.2085
  688TIP3   OH223622   0.061   3.284   3.291 -0.3706  0.0676  0.1619
  688TIP3    H123623   0.042   3.230   3.368 -1.7122 -1.2372 -1.0384
  688TIP3    H223624  -0.011   3.346   3.286 -1.9732 -1.8059 -1.6889
  689TIP3   OH223625   2.154   1.419   0.524  0.4543  0.3793  0.3312
  689TIP3    H123626   2.131   1.348   0.584 -1.6544 -0.7791 -1.6922
  689TIP3    H223627   2.246   1.402   0.501 -0.0865 -2.0163 -0.3940
  690TIP3   OH223628   5.143   5.608   8.703  0.3625 -0.2673  0.5834
  690TIP3    H123629   5.179   5.525   8.671 -0.6357 -0.6481  0.3991
  690TIP3    H223630   5.112   5.588   8.791  2.1032  0.4975  1.4154
  691TIP3   OH223631   6.077   6.815   1.674 -0.3518 -0.6233 -0.4237
  691TIP3    H123632   6.059   6.724   1.652 -0.6737 -0.1150 -2.5344
  691TIP3    H223633   6.060   6.863   1.592  0.5909  1.2176  0.3981
  692TIP3   OH223634   0.912   4.235   2.201 -0.2829  0.0001 -0.0898
  692TIP3    H123635   0.936   4.209   2.290  2.1846  1.0004 -0.3844
  692TIP3    H223636   0.822   4.205   2.191 -0.9182  0.4943  2.9874
  693TIP3   OH223637   0.644   2.928   8.566  0.2598 -0.6393 -0.1450
  693TIP3    H123638   0.548   2.922   8.562  0.3276 -1.0323 -1.7318
  693TIP3    H223639   0.662   3.020   8.548  0.1964 -0.6141 -0.0826
  694TIP3   OH223640   5.824   2.015   1.646  0.0720 -0.5048 -0.2997
  694TIP3    H123641   5.886   2.054   1.585 -0.5104  0.5268 -0.2545
  694TIP3    H223642   5.869   2.017   1.731 -0.3400  1.0943 -0.0883
  695TIP3   OH223643   2.461   4.407   0.076  0.1747  0.7675  0.0338
  695TIP3    H123644   2.530   4.368   0.128  0.7074  2.3041  0.5376
  695TIP3    H223645   2.504   4.477   0.027 -0.2661 -0.6840 -2.6339
  696TIP3   OH223646   4.012   0.098   2.031  0.3053 -0.0417  0.3875
  696TIP3    H123647   4.043   0.032   1.969 -0.1686 -1.1454  1.2885
  696TIP3    H223648   3.961   0.158   1.979  0.3510 -0.6605 -0.3862
  697TIP3   OH223649   1.766   2.903   0.138  0.1543  0.1545  0.0167
  697TIP3    H123650   1.778   2.878   0.230 -1.7762 -3.6524 -0.5632
  697TIP3    H223651   1.832   2.851   0.091  0.3598  1.1933 -0.8763
  698TIP3   OH223652   0.382   0.472   2.451  0.2148 -0.0739  0.4147
  698TIP3    H123653   0.352   0.561   2.469  0.2077  0.1049 -0.4491
  698TIP3    H223654   0.463   0.463   2.501  0.1127  0.3416  0.6640
  699TIP3   OH223655   3.222   5.853   0.164  0.0671 -0.0136 -0.1593
  699TIP3    H123656   3.159   5.786   0.188 -0.7410  1.2549  1.4657
  699TIP3    H223657   3.175   5.911   0.104 -0.0232  0.3874  0.2878
  700TIP3   OH223658   6.176   0.125   8.725 -0.6290 -0.3171  0.4030
  700TIP3    H123659   6.167   0.078   8.642 -0.8125  0.0070  0.2388
  700TIP3    H223660   6.107   0.089   8.780  0.2851 -1.4435  0.8522
  701TIP3   OH223661   5.010   0.162   0.243  0.3772  0.0673  0.7270
  701TIP3    H123662   5.026   0.113   0.324  0.7704  2.4629  2.1887
  701TIP3    H223663   5.009   0.254   0.270 -0.7973  0.8896 -1.8029
  702TIP3   OH223664   5.946   0.483   7.499  0.3866 -0.4167 -0.0124
  702TIP3    H123665   5.959   0.395   7.534  1.0428 -0.3210  0.0086
  702TIP3    H223666   6.023   0.532   7.529  0.5117 -0.0933 -0.8186
  703TIP3   OH223667   4.064   2.976   0.175  0.0060  0.7887  0.4150
  703TIP3    H123668   4.103   2.897   0.138 -0.0596  0.5431  0.8636
  703TIP3    H223669   4.125   3.003   0.244 -0.2305  0.8326  0.6115
  704TIP3   OH223670   2.802   2.198   8.173 -0.7739 -0.1821  0.1170
  704TIP3    H123671   2.811   2.164   8.084 -0.0257  0.2283  0.0266
  704TIP3    H223672   2.867   2.149   8.223 -0.5414  0.2537  0.2400
  705TIP3   OH223673   1.382   5.624   6.866 -0.2367  0.0205  0.0560
  705TIP3    H123674   1.399   5.665   6.781  0.1634 -2.1302 -0.9486
  705TIP3    H223675   1.286   5.621   6.872 -0.2886  1.4721  0.3764
  706TIP3   OH223676   0.219   1.620   7.296  0.4979 -0.5925 -0.1698
  706TIP3    H123677   0.298   1.634   7.348 -0.4620  0.9265  0.9974
  706TIP3    H223678   0.190   1.709   7.273 -0.5754 -1.1412 -1.0418
  707TIP3   OH223679   1.640   5.777   1.393 -0.5764 -0.0474 -0.1098
  707TIP3    H123680   1.617   5.790   1.301  0.8156  1.0667 -0.3223
  707TIP3    H223681   1.735   5.784   1.395 -0.5315 -0.7791  1.3228
  708TIP3   OH223682   1.077   2.733   1.245  0.1402 -0.0424  0.3364
  708TIP3    H123683   1.002   2.786   1.271  1.3752  2.0084 -0.0891
  708TIP3    H223684   1.065   2.650   1.292 -1.1096  1.1165  2.1940
  709TIP3   OH223685   3.423   5.344   1.650 -0.0888  0.0958 -0.0753
  709TIP3    H123686   3.430   5.253   1.679  0.9514  0.0892 -0.3237
  709TIP3    H223687   3.482   5.350   1.575 -1.2321  0.6201 -0.9591
  710TIP3   OH223688   5.291   0.811   8.058  0.0099 -0.7151 -0.5947
  710TIP3    H123689   5.208   0.768   8.037 -0.2938 -1.2511  1.4912
  710TIP3    H223690   5.355   0.769   8.001 -0.9644 -1.0701 -1.4512
  711TIP3   OH223691   6.824   1.442   0.151 -0.4520 -0.3282  0.1356
  711TIP3    H123692   6.781   1.395   0.079  2.1145  1.9471 -3.2134
  711TIP3    H223693   6.767   1.517   0.169  0.1128  0.5531 -1.5352
  712TIP3   OH223694   3.632   2.975   8.000 -0.0719 -0.4391 -0.1361
  712TIP3    H123695   3.544   2.942   7.982 -0.2364 -0.4337  0.6465
  712TIP3    H223696   3.623   3.071   7.996  0.1486 -0.4513 -1.1938
  713TIP3   OH223697   4.741   1.710   7.855  0.3577 -0.0506  0.0249
  713TIP3    H123698   4.807   1.651   7.891 -0.0797 -0.6901 -0.1950
  713TIP3    H223699   4.791   1.778   7.810  0.8711 -0.3904  0.0754
  714TIP3   OH223700   1.976   4.296   1.116 -0.3047 -0.7473  0.1650
  714TIP3    H123701   1.909   4.280   1.050 -1.7609  0.9694  1.1424
  714TIP3    H223702   2.044   4.345   1.070  0.8596 -3.3166 -1.0758
  715TIP3   OH223703   4.047   6.759   0.954 -0.2645  0.6161 -0.0422
  715TIP3    H123704   4.021   6.685   0.899  1.2261  0.7436 -0.9533
  715TIP3    H223705   3.964   6.799   0.981 -1.0512 -0.1449 -1.2416
  716TIP3   OH223706   6.607   2.901   6.605  0.2342 -0.0758  0.2340
  716TIP3    H123707   6.593   2.806   6.602 -0.2943 -0.0264  0.9423
  716TIP3    H223708   6.681   2.912   6.665  2.2112 -0.1993 -1.9873
  717TIP3   OH223709   5.015   0.059   1.245  0.2920 -0.3165 -0.6073
  717TIP3    H123710   5.110   0.071   1.243  0.2006  0.7193  0.2676
  717TIP3    H223711   5.001  -0.024   1.200  1.5834 -0.3448 -1.0180
  718TIP3   OH223712   5.544   4.158   0.750  0.0372  0.3883 -0.2492
  718TIP3    H123713   5.598   4.193   0.821 -0.0829  1.6170 -0.7431
  718TIP3    H223714   5.538   4.064   0.769  1.1345  0.4650  0.6121
  719TIP3   OH223715   3.507   1.357   7.008  0.2371  0.3097 -0.3883
  719TIP3    H123716   3.509   1.261   7.008  1.5653  0.2952 -1.8434
  719TIP3    H223717   3.592   1.383   6.972 -0.2818  2.0230 -0.4658
  720TIP3   OH223718   0.622   0.460   8.720  0.6001  0.3698 -0.0265
  720TIP3    H123719   0.570   0.384   8.747 -0.1247  0.5430 -0.8556
  720TIP3    H223720   0.670   0.485   8.798  0.7223 -0.8365  0.3144
  721TIP3   OH223721   4.259   1.093   0.664 -0.1776  0.4395  0.4724
  721TIP3    H123722   4.223   1.076   0.751 -1.3306  2.2361  0.4030
  721TIP3    H223723   4.285   1.007   0.631 -1.3254 -0.4960  1.9010
  722TIP3   OH223724   6.462   3.160   1.657 -0.2007 -0.5754 -0.2321
  722TIP3    H123725   6.462   3.246   1.616 -1.1232 -0.3061  0.3081
  722TIP3    H223726   6.380   3.119   1.628 -0.7118 -0.5076  1.0528
  723TIP3   OH223727   5.490   1.187   1.250  0.5059 -0.3965  0.3625
  723TIP3    H123728   5.582   1.159   1.250  1.0873  1.2872 -0.6949
  723TIP3    H223729   5.467   1.196   1.342  1.3379 -1.0425  0.6435
  724TIP3   OH223730   0.676   1.130   2.365 -0.2757 -0.5274 -0.1341
  724TIP3    H123731   0.616   1.056   2.357  0.7510 -1.5230  0.9912
  724TIP3    H223732   0.621   1.202   2.395 -1.0115 -1.2718  0.3446
  725TIP3   OH223733   1.694   3.542   8.030 -0.0061 -0.1878  0.1528
  725TIP3    H123734   1.733   3.599   7.963  2.3175  2.1388  3.2006
  725TIP3    H223735   1.703   3.454   7.994  2.0713  0.8448 -2.1957
  726TIP3   OH223736   2.648   5.987   8.508 -0.2689 -0.0036  0.3805
  726TIP3    H123737   2.652   5.954   8.598 -0.2210  1.4621  0.9315
  726TIP3    H223738   2.632   5.909   8.455 -0.3768 -0.8802  1.6623
  727TIP3   OH223739   0.033   5.802   1.438  0.2891 -0.9925  0.2378
  727TIP3    H123740  -0.044   5.749   1.418 -0.5175 -0.0461  0.7561
  727TIP3    H223741   0.027   5.820   1.532 -0.0445  0.8746 -0.0984
  728TIP3   OH223742   5.589   4.281   1.037 -0.2934 -0.2586  0.0959
  728TIP3    H123743   5.624   4.315   1.119 -0.6339  0.1979  0.0547
  728TIP3    H223744   5.517   4.340   1.016 -0.1308 -0.3041 -0.5935
  729TIP3   OH223745   5.936   0.253   8.018  0.0027  0.3488  0.0488
  729TIP3    H123746   5.881   0.324   7.985 -2.5967 -0.0075  3.1529
  729TIP3    H223747   5.885   0.174   8.002  1.4528 -0.5152 -0.5141
  730TIP3   OH223748   5.944   4.894   0.424  0.0745 -0.7503 -0.3382
  730TIP3    H123749   5.907   4.828   0.366  0.7974 -1.1321 -0.3718
  730TIP3    H223750   6.037   4.896   0.402  0.2990 -0.6793  0.5789
  731TIP3   OH223751   1.744   2.651   7.842 -0.0923  0.1531  0.2856
  731TIP3    H123752   1.786   2.716   7.785  1.0833 -0.0496  0.8874
  731TIP3    H223753   1.817   2.608   7.886 -0.9247 -0.6947  0.8555
  732TIP3   OH223754   2.057   0.072   7.716  0.1007  0.4638  0.3378
  732TIP3    H123755   2.134   0.021   7.690 -1.4221 -2.0596  0.3517
  732TIP3    H223756   2.002   0.074   7.637  0.1712  2.3370  0.2883
  733TIP3   OH223757   6.328   2.711   8.224  0.1374  0.0287  0.2476
  733TIP3    H123758   6.257   2.767   8.258  0.2703  0.2998  0.0800
  733TIP3    H223759   6.407   2.746   8.264  0.0875 -0.8195  1.1267
  734TIP3   OH223760   0.975   2.711   1.556  0.4180  0.0093  0.1438
  734TIP3    H123761   1.016   2.641   1.506 -0.9563  0.2234 -1.3613
  734TIP3    H223762   0.966   2.783   1.494  1.3636  1.3877  1.5332
  735TIP3   OH223763   1.172   1.697   8.071  0.0319  0.1854 -0.4053
  735TIP3    H123764   1.156   1.629   8.137 -2.7737  1.6050  0.5661
  735TIP3    H223765   1.232   1.758   8.113  0.3249 -0.2570 -0.1782
  736TIP3   OH223766   4.246   4.527   1.582 -0.0952 -0.2380  0.0415
  736TIP3    H123767   4.276   4.482   1.503  2.2461  1.6272 -0.2240
  736TIP3    H223768   4.159   4.560   1.559  1.0111  1.3243 -2.2624
  737TIP3   OH223769   1.529   1.505   7.949  0.0989 -0.1931  0.0722
  737TIP3    H123770   1.558   1.579   7.896  1.2373  0.7359  1.8903
  737TIP3    H223771   1.552   1.428   7.897  2.0585  0.6421 -0.4019
  738TIP3   OH223772   4.446   0.869   2.104  0.1132 -0.2523  0.2541
  738TIP3    H123773   4.369   0.921   2.127 -0.3438 -0.2638 -1.1078
  738TIP3    H223774   4.435   0.787   2.152 -0.0447  0.2550  1.0922
  739TIP3   OH223775   6.727   2.458   0.684  0.0956 -0.0069 -0.3970
  739TIP3    H123776   6.774   2.490   0.607  0.2442 -0.4795 -0.5044
  739TIP3    H223777   6.777   2.382   0.713 -1.3387 -1.3954 -1.3491
  740TIP3   OH223778   1.757   1.406   2.719 -0.1214 -0.0054 -0.4601
  740TIP3    H123779   1.668   1.432   2.741  0.4117  1.0540  0.5143
  740TIP3    H223780   1.813   1.474   2.756  1.0825 -0.4234 -1.4162
  741TIP3   OH223781   0.724   2.769   7.297 -0.1075  0.0040 -0.1874
  741TIP3    H123782   0.768   2.687   7.319  0.9186  0.4496 -0.5159
  741TIP3    H223783   0.695   2.757   7.207  0.3738  0.1374 -0.3616
  742TIP3   OH223784   1.484   5.687   0.844  0.1525  0.1901 -0.1785
  742TIP3    H123785   1.424   5.617   0.868 -1.6638  1.4618 -0.8658
  742TIP3    H223786   1.436   5.740   0.782  2.2725  0.8559 -1.3476
  743TIP3   OH223787   3.792   4.117   0.861  0.1988  0.1139  0.2891
  743TIP3    H123788   3.718   4.062   0.886  1.1780 -1.3874  0.0385
  743TIP3    H223789   3.813   4.167   0.940 -0.1206 -0.5826  0.8288
  744TIP3   OH223790   1.447   5.587   1.501  0.3947  0.1628 -0.1966
  744TIP3    H123791   1.395   5.574   1.421  0.7664  0.1558 -0.4371
  744TIP3    H223792   1.488   5.673   1.489 -3.2908  2.5036  2.0730
  745TIP3   OH223793   4.744   5.183   1.675  0.0266 -0.1866  0.1516
  745TIP3    H123794   4.815   5.157   1.734 -1.0344 -0.2129  1.4718
  745TIP3    H223795   4.664   5.163   1.724 -0.9620 -1.8752 -1.9803
  746TIP3   OH223796   4.546   5.246   1.122  0.1536  0.8458 -0.2192
  746TIP3    H123797   4.494   5.312   1.167 -1.4203 -0.9195  0.6991
  746TIP3    H223798   4.502   5.164   1.141  0.2575 -0.1990 -3.8494
  747TIP3   OH223799   6.516   3.468   0.521  0.3156  0.6519  0.1379
  747TIP3    H123800   6.488   3.386   0.563 -1.7531  1.7110  0.9361
  747TIP3    H223801   6.566   3.514   0.589 -1.1842  1.4001  0.7714
  748TIP3   OH223802   4.544   5.273   8.622  0.1586 -0.6262  0.0770
  748TIP3    H123803   4.609   5.336   8.592 -0.6789  0.0616 -0.3355
  748TIP3    H223804   4.593   5.192   8.635  1.4746  0.3744  1.6919
  749TIP3   OH223805   1.584   0.033   7.789  0.0054 -0.0692 -0.2165
  749TIP3    H123806   1.550   0.117   7.758 -0.7994  0.4925  2.0368
  749TIP3    H223807   1.622   0.052   7.874 -1.5651 -2.2254  1.0663
  750TIP3   OH223808   4.954   5.881   0.725 -0.2767 -0.5154 -0.0773
  750TIP3    H123809   4.978   5.868   0.633  0.3252  0.8705 -0.1303
  750TIP3    H223810   4.908   5.800   0.748 -0.9894 -0.6428 -1.7666
  751TIP3   OH223811   3.878   2.818   2.210 -0.1048 -0.4272 -0.1724
  751TIP3    H123812   3.946   2.766   2.168 -0.1969 -0.0585 -0.7870
  751TIP3    H223813   3.838   2.759   2.274 -0.6766 -1.3268 -1.3338
  752TIP3   OH223814   2.802   0.026   8.460  0.0345  0.3659 -0.3034
  752TIP3    H123815   2.887  -0.011   8.483  0.5512 -1.0063 -3.7791
  752TIP3    H223816   2.743  -0.050   8.456 -1.3596  1.2480  1.7025
  753TIP3   OH223817   4.312   4.360   7.360 -0.1034 -0.0377  0.1051
  753TIP3    H123818   4.251   4.376   7.288 -1.2564  0.3756  1.1407
  753TIP3    H223819   4.287   4.274   7.394 -0.7666  0.5507  1.1459
  754TIP3   OH223820   3.686   0.800   1.954  0.2164 -0.0003 -0.9308
  754TIP3    H123821   3.744   0.753   1.893  0.8009 -0.8765  0.2647
  754TIP3    H223822   3.600   0.760   1.941 -0.2324  1.4568 -2.8777
  755TIP3   OH223823   5.226   4.528   7.867  0.2957  0.3316 -0.1543
  755TIP3    H123824   5.266   4.445   7.839 -0.6229  0.3927 -1.7976
  755TIP3    H223825   5.223   4.522   7.962  1.6246 -0.8666 -0.1524
  756TIP3   OH223826   0.356   2.761   7.658 -0.1511 -0.2889  0.4158
  756TIP3    H123827   0.419   2.696   7.627  0.2071 -0.4546  1.4443
  756TIP3    H223828   0.405   2.843   7.662  1.0212 -0.9707  4.1697
  757TIP3   OH223829   6.287   5.504   1.053  0.4905 -0.6513 -0.0585
  757TIP3    H123830   6.245   5.566   1.113  1.0022 -0.8622  0.5309
  757TIP3    H223831   6.241   5.422   1.069  1.0512 -0.8611  0.5229
  758TIP3   OH223832   4.116   2.748   1.211 -0.7851  0.8624 -0.0035
  758TIP3    H123833   4.189   2.722   1.268 -0.1668 -1.5242 -1.6813
  758TIP3    H223834   4.122   2.843   1.207  2.2721  0.7935 -0.0200
  759TIP3   OH223835   5.287   0.380   8.656 -0.1375 -0.8564 -0.0483
  759TIP3    H123836   5.224   0.370   8.728  0.1625 -1.2808  0.1614
  759TIP3    H223837   5.372   0.392   8.700 -0.3253  1.9670 -0.2785
  760TIP3   OH223838   0.874   5.315   8.743  0.2179  0.9002 -0.1583
  760TIP3    H123839   0.799   5.359   8.703 -0.4680 -1.1470 -1.2852
  760TIP3    H223840   0.903   5.375   8.812 -2.5870  1.6698  0.4805
  761TIP3   OH223841   5.234   4.811   8.229  0.0590  0.2888  0.9020
  761TIP3    H123842   5.206   4.781   8.315  1.9956  1.8812  2.1823
  761TIP3    H223843   5.327   4.791   8.226 -0.1763 -0.8272 -1.3753
  762TIP3   OH223844   2.075   0.511   1.360  0.6746 -0.3415 -0.2004
  762TIP3    H123845   2.001   0.542   1.413  0.9475 -0.4806  0.2711
  762TIP3    H223846   2.129   0.462   1.422  1.6146  0.4904 -0.3308
  763TIP3   OH223847   6.229   4.875   0.420 -0.4327  0.2774  0.0281
  763TIP3    H123848   6.291   4.945   0.400 -0.9369  0.5462 -0.6217
  763TIP3    H223849   6.269   4.828   0.494  0.7804  0.1339 -0.6950
  764TIP3   OH223850   5.800   3.169   3.288  0.0624 -0.1004 -1.2352
  764TIP3    H123851   5.840   3.082   3.286  0.5021 -0.0483  1.6475
  764TIP3    H223852   5.710   3.153   3.317 -0.0159  0.3757 -1.2127
  765TIP3   OH223853   1.135   0.543   1.775  0.4788 -0.1753 -0.1150
  765TIP3    H123854   1.155   0.602   1.702 -0.2578 -0.4980 -0.5886
  765TIP3    H223855   1.065   0.587   1.823  1.9885  0.7825  1.3335
  766TIP3   OH223856   3.560   3.260   7.937  0.2599  0.1585  0.0132
  766TIP3    H123857   3.656   3.251   7.940  0.4784  1.0469 -2.3962
  766TIP3    H223858   3.544   3.352   7.955  0.2283  0.9186 -3.3247
  767TIP3   OH223859   3.552   1.690   2.241 -0.5605  0.0336 -0.0120
  767TIP3    H123860   3.470   1.683   2.290 -2.5356 -0.7864 -3.1538
  767TIP3    H223861   3.546   1.774   2.195 -0.4780 -0.7591 -1.5536
  768TIP3   OH223862   4.556   5.668   7.105  0.1843 -0.1405  0.6692
  768TIP3    H123863   4.594   5.752   7.130  0.1586 -0.1043  0.5886
  768TIP3    H223864   4.599   5.645   7.023 -0.4678  0.2427  0.2143
  769TIP3   OH223865   3.762   0.777   1.541  0.5696 -1.0858  0.1990
  769TIP3    H123866   3.680   0.755   1.496  0.5287 -0.2156 -0.1870
  769TIP3    H223867   3.826   0.786   1.470  0.1427  1.9560  0.0235
  770TIP3   OH223868   0.952   3.933   2.053  0.0049 -0.2938 -0.4805
  770TIP3    H123869   1.022   3.960   2.113 -1.4751  1.2782  0.6607
  770TIP3    H223870   0.997   3.902   1.975  1.9996  2.1088 -0.4075
  771TIP3   OH223871   4.259   0.287   1.889  0.2586  0.1298  0.0994
  771TIP3    H123872   4.284   0.291   1.981 -0.8219 -0.7557  0.4552
  771TIP3    H223873   4.198   0.360   1.878 -0.0215 -0.0784  0.2362
  772TIP3   OH223874   4.845   2.230   2.821 -0.0401 -0.1251  0.3710
  772TIP3    H123875   4.879   2.276   2.744  3.2390 -0.6033  1.3709
  772TIP3    H223876   4.837   2.139   2.793 -1.9169  0.1884 -0.2366
  773TIP3   OH223877   4.424   0.987   0.138 -0.1423 -0.3311 -0.2979
  773TIP3    H123878   4.407   1.057   0.200 -1.9196 -1.3139  0.4290
  773TIP3    H223879   4.505   0.947   0.168 -0.6461 -0.3949  1.0615
  774TIP3   OH223880   6.438   1.239   1.624 -0.2090  0.0527 -0.0003
  774TIP3    H123881   6.461   1.213   1.535  1.0016 -1.5867  0.7432
  774TIP3    H223882   6.449   1.334   1.624 -1.9048  0.3222 -2.0316
  775TIP3   OH223883   2.460   2.100   8.322 -0.1932  0.4411 -0.0416
  775TIP3    H123884   2.366   2.115   8.326 -0.7418 -1.9545 -2.0139
  775TIP3    H223885   2.473   2.047   8.244  2.5036 -1.2545  1.4006
  776TIP3   OH223886   4.217   0.703   2.882  0.2013  0.3407 -0.5626
  776TIP3    H123887   4.242   0.791   2.856  2.7088  0.7967  2.7761
  776TIP3    H223888   4.283   0.646   2.842  0.1031  0.2444 -0.5902
  777TIP3   OH223889   4.777   0.132   7.291 -0.1300 -0.6101  0.4108
  777TIP3    H123890   4.771   0.041   7.319  2.4569 -0.7822  0.6034
  777TIP3    H223891   4.862   0.139   7.248  0.0841  1.8905  1.0647
  778TIP3   OH223892   3.528   4.759   8.302  0.0306  0.6382 -0.3134
  778TIP3    H123893   3.541   4.754   8.396 -0.5412  1.4334 -0.1905
  778TIP3    H223894   3.568   4.842   8.276  0.6054  0.2089 -0.8520
  779TIP3   OH223895   3.242   3.380   0.758  0.4407  0.0516  0.5236
  779TIP3    H123896   3.240   3.327   0.678  1.6031  0.3520  0.2700
  779TIP3    H223897   3.279   3.321   0.824  1.4212  0.4257  0.3221
  780TIP3   OH223898   1.416   1.909   0.440 -0.3782  0.4788  0.3275
  780TIP3    H123899   1.421   1.998   0.476 -0.5199  0.4145  0.5058
  780TIP3    H223900   1.504   1.873   0.453  0.0490  1.0261 -0.8750
  781TIP3   OH223901   6.755   0.006   0.948  0.1581 -0.0589  0.1807
  781TIP3    H123902   6.810   0.013   0.870 -0.4247 -0.3212 -0.2561
  781TIP3    H223903   6.680   0.063   0.930 -0.4309 -0.8325  0.1609
  782TIP3   OH223904   2.905   0.230   1.937  0.1904  0.3972 -0.4333
  782TIP3    H123905   2.875   0.141   1.954  2.0895 -0.3618 -0.9102
  782TIP3    H223906   2.972   0.222   1.870  2.4072  1.8112  1.4236
  783TIP3   OH223907   6.207   5.968   7.720 -0.2021  0.5220  0.6409
  783TIP3    H123908   6.235   5.962   7.628 -1.7367 -1.6119  0.2245
  783TIP3    H223909   6.115   5.993   7.715 -0.8889 -1.5909  1.4063
  784TIP3   OH223910   3.361   4.052   0.020 -0.4422 -0.1869  0.1420
  784TIP3    H123911   3.398   3.985  -0.037 -2.1056  0.4099 -1.7710
  784TIP3    H223912   3.359   4.011   0.107  0.3371 -1.8835 -0.5896
  785TIP3   OH223913   4.925   5.208   6.695 -0.9618  0.8281 -1.1505
  785TIP3    H123914   5.017   5.192   6.718 -0.7007  2.0140 -1.2809
  785TIP3    H223915   4.886   5.121   6.690 -0.0017  0.3361 -0.4562
  786TIP3   OH223916   6.681   3.359   7.258  0.1391 -0.2512  0.2756
  786TIP3    H123917   6.617   3.292   7.233  0.6508 -0.4928 -0.4353
  786TIP3    H223918   6.637   3.442   7.240 -0.8736 -0.3416  2.0874
  787TIP3   OH223919   2.330   3.474   2.834 -0.2059 -0.0668 -0.0993
  787TIP3    H123920   2.384   3.414   2.783  0.4853 -0.4342  1.0187
  787TIP3    H223921   2.295   3.536   2.770 -0.9573 -1.6557 -1.2897
  788TIP3   OH223922   4.231   2.059   8.051 -0.0528 -0.2592  0.5197
  788TIP3    H123923   4.155   2.068   8.109 -0.2879  1.5750 -0.0199
  788TIP3    H223924   4.304   2.095   8.102 -0.3135  1.6371 -0.3613
  789TIP3   OH223925   2.357   5.536   1.405  0.1537 -0.0180 -0.0721
  789TIP3    H123926   2.279   5.500   1.363  1.4225 -1.8829 -0.9682
  789TIP3    H223927   2.425   5.528   1.338  1.0867  1.7692  0.6157
  790TIP3   OH223928   5.419   0.144   1.016 -0.3546  0.2695 -0.3164
  790TIP3    H123929   5.511   0.122   1.031 -0.1699  0.7406 -0.7228
  790TIP3    H223930   5.401   0.114   0.926 -0.3534  0.9411 -0.5465
  791TIP3   OH223931   0.681   5.499   1.745  0.3686 -0.7224  0.1138
  791TIP3    H123932   0.681   5.520   1.651 -2.2002  0.0975  0.2446
  791TIP3    H223933   0.743   5.561   1.783 -1.5548  1.7268 -0.5447
  792TIP3   OH223934   1.277   2.986   1.545 -0.4244  0.2401  0.0929
  792TIP3    H123935   1.300   2.907   1.594 -1.4911 -0.8474 -1.0950
  792TIP3    H223936   1.287   2.961   1.453  0.3124  1.8510 -0.3080
  793TIP3   OH223937   3.676   4.886   1.511 -0.3249  0.0012 -0.2471
  793TIP3    H123938   3.660   4.970   1.470  0.3372  0.7538  0.9790
  793TIP3    H223939   3.764   4.861   1.483 -0.9256 -0.8374 -1.4855
  794TIP3   OH223940   3.099   0.027   7.770  0.4854  0.2253 -0.3454
  794TIP3    H123941   3.007   0.016   7.746  0.2346 -0.4031  0.8136
  794TIP3    H223942   3.106   0.118   7.800 -0.2033 -0.2318  1.2995
  795TIP3   OH223943   3.727   5.421   2.551 -0.1612 -0.1164  1.3932
  795TIP3    H123944   3.773   5.338   2.538  0.4921  0.5635 -1.1294
  795TIP3    H223945   3.636   5.395   2.566  0.0036 -1.2979  0.4783
  796TIP3   OH223946   0.524   4.936   0.625 -0.4865  0.4839 -0.1806
  796TIP3    H123947   0.574   4.985   0.690 -0.4019 -0.2052  0.2899
  796TIP3    H223948   0.539   4.844   0.649 -2.2839  0.2630  0.1954
  797TIP3   OH223949   0.753   2.875   0.524  0.7498 -0.2475  0.1242
  797TIP3    H123950   0.665   2.904   0.499  1.9474  1.7365 -2.2320
  797TIP3    H223951   0.764   2.905   0.613 -1.0487 -0.8525  0.5991
  798TIP3   OH223952   6.155   0.296   8.183 -0.0050 -0.2648  0.6023
  798TIP3    H123953   6.083   0.246   8.146 -2.1818  2.0620  1.3897
  798TIP3    H223954   6.120   0.333   8.264  0.8971  3.5153 -0.5118
  799TIP3   OH223955   2.576   4.370   1.219  0.2105 -0.7734 -0.2128
  799TIP3    H123956   2.589   4.280   1.191 -0.3864 -0.5174 -1.3911
  799TIP3    H223957   2.491   4.395   1.181  0.7675  0.5440 -0.6621
  800TIP3   OH223958   6.089   6.272   1.791 -0.5657  0.7060  0.5425
  800TIP3    H123959   6.141   6.210   1.739 -2.1903  0.7836 -1.2941
  800TIP3    H223960   6.133   6.275   1.876  1.3489 -0.5881 -0.3291
  801TIP3   OH223961   4.148   5.919   1.085  0.5439  0.5291 -0.2503
  801TIP3    H123962   4.170   5.937   1.176 -0.5732  1.4399 -0.1427
  801TIP3    H223963   4.216   5.858   1.056  0.1722 -0.8342  1.5657
  802TIP3   OH223964   5.362   4.028   2.480  0.1752 -0.5695 -0.8280
  802TIP3    H123965   5.360   4.068   2.393  1.4206  0.3661 -0.4713
  802TIP3    H223966   5.454   4.034   2.507 -0.0193 -1.6702  0.1814
  803TIP3   OH223967   4.863   4.462   7.356  0.5681  0.3576  0.7080
  803TIP3    H123968   4.799   4.501   7.415  1.0747  1.5605  0.4942
  803TIP3    H223969   4.811   4.426   7.284  0.0103 -0.4108  1.4763
  804TIP3   OH223970   0.912   2.570   8.030  0.1191  0.1768  0.3267
  804TIP3    H123971   0.950   2.605   8.111 -0.5263 -0.9518  1.1496
  804TIP3    H223972   0.857   2.497   8.059  0.2779 -0.5801 -1.1814
  805TIP3   OH223973   5.059   3.483   8.552 -0.1608  0.3169 -0.3625
  805TIP3    H123974   4.980   3.517   8.509 -0.0783  0.7781 -0.1605
  805TIP3    H223975   5.025   3.429   8.624 -0.3206  1.8090  0.7364
  806TIP3   OH223976   2.750   4.449   2.698  0.2523  0.1867 -0.3470
  806TIP3    H123977   2.838   4.443   2.735 -0.0985 -0.1771  0.4612
  806TIP3    H223978   2.706   4.369   2.728 -0.4752  0.5578 -0.4074
  807TIP3   OH223979   5.627   0.135   0.302 -0.4961  0.2598 -0.1811
  807TIP3    H123980   5.625   0.039   0.297 -0.6029  0.2839 -0.5597
  807TIP3    H223981   5.571   0.155   0.377 -0.8460  0.0504 -0.3849
  808TIP3   OH223982   5.129   3.598   2.325  0.5252  0.7639 -0.0768
  808TIP3    H123983   5.224   3.596   2.308  0.5551  1.1451  0.0296
  808TIP3    H223984   5.122   3.597   2.420  0.3944 -0.0832 -0.0903
  809TIP3   OH223985   0.529   4.238   7.328  0.4344  0.7823 -0.4399
  809TIP3    H123986   0.516   4.333   7.319  0.8358  1.0290  1.2351
  809TIP3    H223987   0.621   4.229   7.354  0.7549 -0.1785 -1.8027
  810TIP3   OH223988   0.962   5.014   2.087  0.3078 -0.0375 -0.0231
  810TIP3    H123989   0.884   5.056   2.052  0.4712  0.7522  0.5401
  810TIP3    H223990   0.942   4.999   2.179  0.3375 -1.0141 -0.1579
  811TIP3   OH223991   5.093   2.061   8.561 -0.3995 -0.3993 -0.1825
  811TIP3    H123992   5.162   2.002   8.530 -0.4569 -0.4844 -0.1479
  811TIP3    H223993   5.071   2.116   8.485  1.7470  1.6169  0.5291
  812TIP3   OH223994   2.647   4.770   8.191 -0.4341  0.0975  0.4010
  812TIP3    H123995   2.647   4.783   8.096 -1.9324  0.1120  0.3873
  812TIP3    H223996   2.736   4.793   8.218  0.6943 -1.9207 -1.2613
  813TIP3   OH223997   1.667   5.720   8.698 -0.5814  0.5643  0.0205
  813TIP3    H123998   1.596   5.695   8.757 -0.5373 -1.5665 -0.7296
  813TIP3    H223999   1.706   5.797   8.738 -1.7888  0.3463  1.7197
  814TIP3   OH224000   5.422   4.078   1.900 -0.3641  0.5810 -0.4375
  814TIP3    H124001   5.432   4.156   1.845 -0.6991  0.4101 -0.7485
  814TIP3    H224002   5.501   4.076   1.954 -1.0513  2.0094  0.7031
  815TIP3   OH224003   4.541   5.490   7.603  0.3231  0.3236 -0.4896
  815TIP3    H124004   4.553   5.416   7.543  2.1681  0.5330 -0.4234
  815TIP3    H224005   4.591   5.561   7.565 -0.0029  1.0307  0.3522
  816TIP3   OH224006   5.234   2.378   0.870 -0.2452  0.4237  0.2272
  816TIP3    H124007   5.139   2.385   0.859 -0.4407  0.1961  1.6075
  816TIP3    H224008   5.270   2.398   0.783 -1.5604  0.1435 -0.4017
  817TIP3   OH224009   1.496   5.746   6.661 -0.3794  0.6337 -0.2336
  817TIP3    H124010   1.448   5.771   6.582 -1.2185  0.1632  0.1128
  817TIP3    H224011   1.588   5.761   6.639 -0.6549  1.2113 -1.0378
  818TIP3   OH224012   0.348   1.913   2.906  0.0513 -0.4472 -0.8006
  818TIP3    H124013   0.429   1.906   2.957 -1.0753 -3.1634  0.8738
  818TIP3    H224014   0.341   1.829   2.861 -2.1851 -0.6572 -0.2189
  819TIP3   OH224015   6.011   3.271   0.357 -0.3727 -0.2200 -0.2438
  819TIP3    H124016   6.011   3.274   0.453 -0.0363  0.5572 -0.2651
  819TIP3    H224017   5.920   3.252   0.334 -0.5911  0.2416  0.2133
  820TIP3   OH224018   5.122   0.170   2.547  0.1013 -0.3228  0.2541
  820TIP3    H124019   5.164   0.185   2.632  0.7868  0.8853 -0.2647
  820TIP3    H224020   5.152   0.244   2.492 -2.2736  0.3009 -0.3178
  821TIP3   OH224021   0.679   4.154   0.966 -0.9756 -0.0715 -0.1474
  821TIP3    H124022   0.655   4.157   1.059 -0.3024  0.2716  0.0180
  821TIP3    H224023   0.598   4.128   0.922 -1.7809  1.4068  0.3715
  822TIP3   OH224024   0.170   4.902   8.104 -0.0540 -0.6872  0.3932
  822TIP3    H124025   0.188   4.964   8.033  0.3028  0.4625  1.4495
  822TIP3    H224026   0.249   4.848   8.108 -0.7107 -1.8284 -1.0998
  823TIP3   OH224027   2.424   3.036   0.395  0.6139 -1.0167 -0.1253
  823TIP3    H124028   2.360   3.012   0.462 -0.0810 -0.4190 -0.5606
  823TIP3    H224029   2.480   2.959   0.387  0.9394 -0.9618  1.3916
  824TIP3   OH224030   2.982   3.406   1.337  0.1606  0.0386  0.0270
  824TIP3    H124031   2.978   3.318   1.373 -0.6920  0.3516  0.7258
  824TIP3    H224032   3.037   3.454   1.398  0.8789 -0.0790 -0.5201
  825TIP3   OH224033   0.239   1.184   0.309 -0.5155 -0.6348 -0.2988
  825TIP3    H124034   0.195   1.242   0.246  0.0373  0.5485  0.3712
  825TIP3    H224035   0.315   1.234   0.338  0.3134 -1.9591 -0.1376
  826TIP3   OH224036   0.344   4.136   1.767  0.0144  0.0183  0.1188
  826TIP3    H124037   0.252   4.161   1.764  0.1659  0.5876  0.1702
  826TIP3    H224038   0.382   4.190   1.836  0.6333  0.6363 -0.6788
  827TIP3   OH224039   4.316   2.387   0.846  0.9372 -0.4726  0.7183
  827TIP3    H124040   4.387   2.404   0.784  1.0869  2.4722  1.5143
  827TIP3    H224041   4.282   2.474   0.868 -3.0147 -1.7151  0.3452
  828TIP3   OH224042   1.062   1.046   1.667 -1.2174  0.4239  0.2484
  828TIP3    H124043   1.125   1.119   1.668  1.2509 -1.5775  0.1537
  828TIP3    H224044   1.003   1.065   1.740  2.8845 -0.2296  4.1908
  829TIP3   OH224045   1.447   0.187   0.631 -0.0870  0.3074 -0.6208
  829TIP3    H124046   1.353   0.193   0.648  0.0760  0.5037  0.2310
  829TIP3    H224047   1.467   0.266   0.580 -0.5546 -0.2316 -1.6867
  830TIP3   OH224048   5.919   3.071   2.106 -0.3100 -0.4654  0.1618
  830TIP3    H124049   5.941   2.985   2.142  1.1488 -0.0022  0.4296
  830TIP3    H224050   5.985   3.130   2.142 -1.2353  0.7685 -0.0870
  831TIP3   OH224051   5.677   6.333   0.216  0.0799  0.5472 -0.2906
  831TIP3    H124052   5.621   6.363   0.287  0.7329  1.4190 -0.1343
  831TIP3    H224053   5.748   6.286   0.259  0.1339  0.5212 -0.4064
  832TIP3   OH224054   4.036   3.932   1.045  0.5446  0.0466  0.2504
  832TIP3    H124055   4.128   3.957   1.041  0.1621  1.3807 -2.4678
  832TIP3    H224056   3.991   4.010   1.079  0.2524 -0.0349  0.0544
  833TIP3   OH224057   2.050   3.295   0.715 -0.0695 -0.3435 -0.0500
  833TIP3    H124058   2.123   3.353   0.740 -0.3020 -0.6175  1.3252
  833TIP3    H224059   2.076   3.261   0.629  0.1065  1.7340 -0.8821
  834TIP3   OH224060   3.135   4.179   0.398 -0.0590  0.0935 -0.4033
  834TIP3    H124061   3.115   4.230   0.319  3.5820  1.0309 -0.9335
  834TIP3    H224062   3.160   4.244   0.463  1.4227 -0.8038 -0.0114
  835TIP3   OH224063   2.093   2.037   7.863 -0.4495  0.7886  0.3972
  835TIP3    H124064   2.092   2.087   7.782 -0.4307  1.2255  0.6642
  835TIP3    H224065   2.140   1.957   7.841 -1.8036  0.1895 -0.4275
  836TIP3   OH224066   2.936   5.356   2.060  0.1928  0.0246 -0.5352
  836TIP3    H124067   2.852   5.329   2.024  0.1103  0.9208 -1.0452
  836TIP3    H224068   2.913   5.423   2.125  0.4869 -0.0550 -0.3475
  837TIP3   OH224069   6.279   4.241   2.594 -0.1752 -0.7759  0.5287
  837TIP3    H124070   6.283   4.328   2.633 -1.1293 -0.5826  0.2184
  837TIP3    H224071   6.346   4.242   2.525 -2.5146  0.9729 -1.9038
  838TIP3   OH224072   3.836   0.091   1.051  0.1778 -0.5001  0.3885
  838TIP3    H124073   3.749   0.108   1.014  1.0304  0.1614 -1.4139
  838TIP3    H224074   3.858   0.170   1.100  1.2904  1.0057 -2.3333
  839TIP3   OH224075   6.202   1.378   7.354  0.2544 -0.1758  0.3454
  839TIP3    H124076   6.150   1.370   7.434  0.1709  3.2444  0.7721
  839TIP3    H224077   6.153   1.440   7.299  2.5722  1.2367 -0.2727
  840TIP3   OH224078   5.114   4.191   7.877 -0.1053 -0.0988  0.2247
  840TIP3    H124079   5.043   4.255   7.873  1.7552  2.0861  0.2876
  840TIP3    H224080   5.119   4.165   7.969 -0.0418  0.6885  0.4497
  841TIP3   OH224081   1.389   0.983   1.806  0.1710 -0.3922 -0.5891
  841TIP3    H124082   1.346   0.985   1.721 -0.2114 -0.2746 -0.3968
  841TIP3    H224083   1.372   1.070   1.843  0.6471 -0.3142 -0.5447
  842TIP3   OH224084   1.391   1.744   1.414 -0.5306  0.1323  0.2579
  842TIP3    H124085   1.421   1.798   1.487 -0.0215 -1.1782  1.0625
  842TIP3    H224086   1.417   1.792   1.336  1.1282  0.4099  0.9481
  843TIP3   OH224087   3.380   5.600   8.211 -1.1330 -0.2461  0.3962
  843TIP3    H124088   3.373   5.661   8.284 -2.9297 -1.1807  1.0579
  843TIP3    H224089   3.359   5.653   8.134 -0.5865  0.4354  0.7045
  844TIP3   OH224090   2.751   6.701   2.281  0.2777  0.2166  0.0031
  844TIP3    H124091   2.843   6.699   2.257 -0.0135 -2.9953 -1.3970
  844TIP3    H224092   2.740   6.626   2.340 -1.9247 -1.7450 -2.6048
  845TIP3   OH224093   2.781   1.805   0.034 -0.4842  0.4232  0.1216
  845TIP3    H124094   2.859   1.784   0.085 -0.5285 -0.6862 -0.2348
  845TIP3    H224095   2.709   1.800   0.097 -0.1974  2.3376  0.6500
  846TIP3   OH224096   4.403   4.405   1.402  0.0041  1.2239  0.0448
  846TIP3    H124097   4.411   4.318   1.363  0.2757  1.4323 -0.3776
  846TIP3    H224098   4.445   4.464   1.338 -0.0099  1.6380  0.4104
  847TIP3   OH224099   1.502   5.127   7.951  0.3024 -0.3731 -0.5176
  847TIP3    H124100   1.555   5.202   7.924 -0.4837 -0.6992 -3.2907
  847TIP3    H224101   1.560   5.052   7.941  1.1461 -0.2076  2.4318
  848TIP3   OH224102   2.493   6.000   3.129  0.0482 -0.3031 -0.4170
  848TIP3    H124103   2.446   6.012   3.212  1.0985 -0.9640  0.2865
  848TIP3    H224104   2.457   5.919   3.093  1.9785 -1.9252  1.0991
  849TIP3   OH224105   5.017   3.444   2.949 -0.9287 -0.4652 -0.4473
  849TIP3    H124106   4.978   3.368   2.908  0.1130 -0.6173 -1.1827
  849TIP3    H224107   4.960   3.517   2.924 -1.6870 -0.9298 -0.0922
  850TIP3   OH224108   0.721   3.845   0.818  0.4581  0.6191  0.0726
  850TIP3    H124109   0.702   3.939   0.827  0.4093  0.5216  1.1742
  850TIP3    H224110   0.803   3.833   0.867  1.5493  0.4144 -1.7129
  851TIP3   OH224111   6.424   4.582   8.110  0.0554  0.1777  0.2202
  851TIP3    H124112   6.419   4.522   8.184  0.8872  0.8222  0.8195
  851TIP3    H224113   6.374   4.659   8.138 -0.3765  0.0748 -0.2463
  852TIP3   OH224114   5.769   4.664   6.617  0.0751 -0.0887  0.6957
  852TIP3    H124115   5.731   4.749   6.593 -0.1219 -0.3336  0.1145
  852TIP3    H224116   5.860   4.683   6.638 -0.6304  0.7304  3.4106
  853TIP3   OH224117   0.311   4.156   0.847 -0.8450 -0.4109 -0.1901
  853TIP3    H124118   0.295   4.197   0.932  0.4651 -0.1194 -0.0579
  853TIP3    H224119   0.326   4.230   0.788 -1.3550 -0.6267 -0.5907
  854TIP3   OH224120   5.070   5.657   2.279 -0.6394  0.3924 -0.3603
  854TIP3    H124121   5.011   5.713   2.330 -0.6115 -0.2004  0.3404
  854TIP3    H224122   5.156   5.674   2.317 -0.4275  0.8557 -1.0278
  855TIP3   OH224123   3.630   0.808   0.686 -0.1155 -0.5687 -0.5634
  855TIP3    H124124   3.667   0.846   0.606 -1.2193  2.1360  0.1268
  855TIP3    H224125   3.702   0.755   0.722  0.4482 -1.7847 -3.2177
  856TIP3   OH224126   1.779   6.065   2.406  0.0170  0.0843  0.1590
  856TIP3    H124127   1.800   5.981   2.446  1.1095  0.9311  1.4312
  856TIP3    H224128   1.821   6.063   2.320  0.1293 -0.6142  0.2280
  857TIP3   OH224129   0.914   4.022   8.416  0.2626 -0.2439 -0.3072
  857TIP3    H124130   0.882   4.068   8.339  2.0690  0.8574 -0.4745
  857TIP3    H224131   0.836   3.986   8.457 -0.9675  0.9370 -1.5042
  858TIP3   OH224132   4.600   4.466   1.563  0.2726 -0.7277  0.4253
  858TIP3    H124133   4.609   4.409   1.639  0.3602 -0.0283  0.9443
  858TIP3    H224134   4.542   4.417   1.504 -1.2584 -0.5350  1.6883
  859TIP3   OH224135   0.266   6.286   8.454  0.1140 -0.3004 -0.1287
  859TIP3    H124136   0.242   6.378   8.460  2.0748  0.1619  1.7499
  859TIP3    H224137   0.198   6.240   8.503 -0.9860  0.0678 -1.2463
  860TIP3   OH224138   2.776   1.753   8.283 -0.1647  0.0703 -0.1226
  860TIP3    H124139   2.845   1.773   8.219  0.6005 -0.4783  0.5164
  860TIP3    H224140   2.751   1.839   8.318  0.4010  0.2500 -0.1477
  861TIP3   OH224141   0.263   2.356   0.342 -0.3109  0.1893  0.2180
  861TIP3    H124142   0.214   2.283   0.378  1.2406 -0.2190  1.6915
  861TIP3    H224143   0.355   2.336   0.363  0.2443  2.1101 -0.1244
  862TIP3   OH224144   6.169   1.323   0.399 -0.3417  0.2353 -0.4833
  862TIP3    H124145   6.131   1.285   0.320  0.5350 -2.6737  0.3944
  862TIP3    H224146   6.254   1.356   0.371  0.1341 -1.1399 -0.7216
  863TIP3   OH224147   3.181   0.418   1.858 -0.3713  0.6439  0.4517
  863TIP3    H124148   3.207   0.447   1.771  2.1698 -0.2483  0.8435
  863TIP3    H224149   3.130   0.338   1.842  1.1368 -0.2188 -0.1994
  864TIP3   OH224150   2.082   0.840   2.720  0.8120  0.3405 -0.1969
  864TIP3    H124151   2.121   0.753   2.734  1.5239  0.1599 -2.8817
  864TIP3    H224152   2.156   0.900   2.723  0.6443  0.5714 -0.6980
  865TIP3   OH224153   0.231   3.886   2.581  0.3576 -0.0135  0.0303
  865TIP3    H124154   0.218   3.898   2.675 -0.2817 -0.3456 -0.0078
  865TIP3    H224155   0.153   3.838   2.552  0.3908  0.3730 -0.7275
  866TIP3   OH224156   1.986   2.658   8.034  0.0177  0.2619  0.1500
  866TIP3    H124157   2.010   2.576   7.992 -0.2580  0.3572 -0.2032
  866TIP3    H224158   1.970   2.635   8.125 -0.9950 -0.2605 -0.1473
  867TIP3   OH224159   5.998   6.519   6.850  0.0713 -0.2389  0.9825
  867TIP3    H124160   5.946   6.583   6.898 -1.9602  2.0389 -3.6229
  867TIP3    H224161   5.938   6.445   6.837  0.6312 -0.8689  1.8407
  868TIP3   OH224162   4.332   1.425   1.587  0.5102 -0.1287  0.0307
  868TIP3    H124163   4.269   1.469   1.529  1.2013  1.3831  0.3554
  868TIP3    H224164   4.341   1.485   1.662  3.2257  0.3467 -0.5639
  869TIP3   OH224165   6.615   2.715   2.264 -0.0929 -0.2653  0.0166
  869TIP3    H124166   6.676   2.641   2.268  0.0575 -0.1209  0.5426
  869TIP3    H224167   6.571   2.706   2.180 -1.0785 -1.7340  0.6549
  870TIP3   OH224168   5.634   6.036   7.880 -0.1683 -0.8694 -0.1038
  870TIP3    H124169   5.600   6.038   7.969  1.5614  0.2676  0.5710
  870TIP3    H224170   5.570   6.085   7.828 -0.1676  0.2382  0.9147
  871TIP3   OH224171   1.072   6.074   1.115  0.2533 -0.5645 -0.0225
  871TIP3    H124172   1.086   5.983   1.143  0.4901 -0.4319  0.2977
  871TIP3    H224173   1.012   6.067   1.041 -1.0151 -0.8733  0.9986
  872TIP3   OH224174   6.561   1.457   0.468 -0.3397  0.1822  0.2846
  872TIP3    H124175   6.614   1.535   0.453  1.4542 -1.3139 -1.8026
  872TIP3    H224176   6.508   1.449   0.388 -0.3223 -0.8557  0.3739
  873TIP3   OH224177   5.251   1.271   1.135 -0.0608 -0.6378  0.2871
  873TIP3    H124178   5.291   1.320   1.063  0.5888  0.6144  1.4626
  873TIP3    H224179   5.313   1.200   1.152 -0.4727 -1.2658 -0.7029
  874TIP3   OH224180   3.466   2.774   2.715 -0.2042 -0.6497  0.0105
  874TIP3    H124181   3.543   2.830   2.731 -0.4234 -0.8799  2.2585
  874TIP3    H224182   3.497   2.686   2.737 -0.7099 -0.9652 -0.5401
  875TIP3   OH224183   4.447   4.452   8.422 -0.0870 -0.1874 -0.3814
  875TIP3    H124184   4.398   4.413   8.349  0.8505 -1.1894 -0.4986
  875TIP3    H224185   4.510   4.511   8.380  0.6310 -0.9616 -0.4264
  876TIP3   OH224186   6.616   5.520   7.673 -0.3917  0.1999 -0.7981
  876TIP3    H124187   6.620   5.606   7.631  1.5385  0.2697 -0.5973
  876TIP3    H224188   6.616   5.457   7.600  0.8926  0.3583 -0.9661
  877TIP3   OH224189   0.894   3.326   1.034  0.5038 -0.3146 -0.3414
  877TIP3    H124190   0.949   3.342   0.957 -1.4704 -0.1728 -1.7798
  877TIP3    H224191   0.849   3.244   1.016  0.2425 -0.4558  0.8367
  878TIP3   OH224192   0.453   2.788   7.365 -1.0018  0.3684  0.1024
  878TIP3    H124193   0.546   2.778   7.345 -0.6814  2.1498  0.5218
  878TIP3    H224194   0.451   2.850   7.438 -2.5400  0.6805 -0.1746
  879TIP3   OH224195   5.052   2.165   7.850 -0.0420 -0.1005  0.0831
  879TIP3    H124196   5.034   2.258   7.857  0.2338 -0.0592  0.2827
  879TIP3    H224197   5.132   2.160   7.797 -1.1623 -0.3269 -1.6698
  880TIP3   OH224198   0.652   0.738   7.577 -0.1271 -0.4006  0.0108
  880TIP3    H124199   0.701   0.790   7.641  1.4725 -0.2494 -1.2819
  880TIP3    H224200   0.562   0.738   7.610 -0.0066  2.3812  0.5813
  881TIP3   OH224201   5.726   1.583   8.576 -0.2493 -0.7187 -0.0373
  881TIP3    H124202   5.737   1.513   8.512 -0.7232 -0.0295 -0.8980
  881TIP3    H224203   5.811   1.627   8.578 -0.7105  0.3338 -1.5307
  882TIP3   OH224204   1.057   2.499   2.138 -0.3647  0.0943 -0.5057
  882TIP3    H124205   1.023   2.586   2.118  0.0885  0.1603 -1.0041
  882TIP3    H224206   1.006   2.470   2.214 -0.4857  0.8065 -0.3115
  883TIP3   OH224207   5.608   6.650   1.496  0.1219 -0.3271 -0.0925
  883TIP3    H124208   5.623   6.575   1.438 -2.6357  0.0827 -1.5013
  883TIP3    H224209   5.587   6.722   1.437  1.1230  1.1827  1.3144
  884TIP3   OH224210   2.148   6.056   0.564  0.6175  0.0188 -0.1743
  884TIP3    H124211   2.220   6.107   0.527  1.5336 -1.1962 -0.1419
  884TIP3    H224212   2.175   6.038   0.654 -0.1472  0.3138  0.1160
  885TIP3   OH224213   1.756   2.843   7.449 -0.0563  0.0651  0.4960
  885TIP3    H124214   1.717   2.831   7.362  0.3259  0.1436  0.3094
  885TIP3    H224215   1.822   2.912   7.436 -0.2077  0.2896  0.9162
  886TIP3   OH224216   0.143   2.167   2.224  0.4469 -0.6380 -0.0178
  886TIP3    H124217   0.182   2.186   2.138  1.3677  0.4833  0.6175
  886TIP3    H224218   0.049   2.173   2.210  0.5803 -0.7147 -0.9995
  887TIP3   OH224219   0.392   3.509   2.969 -0.0218 -0.3758 -0.1303
  887TIP3    H124220   0.377   3.599   2.940  2.5395  0.1122 -0.1464
  887TIP3    H224221   0.361   3.507   3.059  1.9625  1.2159  0.6545
  888TIP3   OH224222   4.189   4.678   0.808  0.4578 -0.3178 -0.0947
  888TIP3    H124223   4.154   4.760   0.774  0.8219 -0.3581 -0.5719
  888TIP3    H224224   4.164   4.612   0.744 -0.1122 -0.6456  0.4466
  889TIP3   OH224225   3.433   5.966   8.211  0.3504  0.0570 -0.0930
  889TIP3    H124226   3.386   5.905   8.267 -0.5793  0.6101 -0.2496
  889TIP3    H224227   3.448   5.917   8.130  0.2365 -0.1980  0.0373
  890TIP3   OH224228   3.176   3.319   8.195  0.0462  0.5519 -0.0186
  890TIP3    H124229   3.159   3.414   8.194 -2.0847  0.2386  0.7109
  890TIP3    H224230   3.269   3.312   8.216 -0.3766  2.5004  3.2194
  891TIP3   OH224231   3.552   0.712   7.459  0.2512 -0.1786 -0.1406
  891TIP3    H124232   3.597   0.746   7.536  0.1987 -1.3169  0.4220
  891TIP3    H224233   3.523   0.790   7.411 -1.5678  0.6143  2.0652
  892TIP3   OH224234   2.504   2.418   0.166 -0.4006 -0.3771  0.1620
  892TIP3    H124235   2.528   2.469   0.089  0.6931 -1.8461 -0.5260
  892TIP3    H224236   2.479   2.332   0.131 -1.9951 -0.4229  1.2938
  893TIP3   OH224237   4.579   2.677   2.059 -0.1864  0.1542 -0.2296
  893TIP3    H124238   4.646   2.643   1.999  0.3264 -0.4040  0.6402
  893TIP3    H224239   4.506   2.615   2.051 -0.7320  0.8874 -1.3493
  894TIP3   OH224240   0.451   3.099   2.237  0.2471  0.3809  0.0832
  894TIP3    H124241   0.366   3.082   2.278  1.2022 -2.1498  1.2558
  894TIP3    H224242   0.513   3.046   2.287  1.9146 -0.9890 -3.1093
  895TIP3   OH224243   6.651   1.292   1.821 -0.9841 -0.1844 -0.2853
  895TIP3    H124244   6.588   1.280   1.750 -0.5439  0.0845 -0.7281
  895TIP3    H224245   6.648   1.209   1.870 -0.8758 -0.5934 -0.9595
  896TIP3   OH224246   3.879   5.598   2.364 -0.5002 -0.8030 -0.2861
  896TIP3    H124247   3.843   5.529   2.420  1.9740 -0.3781  2.0147
  896TIP3    H224248   3.843   5.579   2.277  0.2781 -5.2188  0.1340
  897TIP3   OH224249   5.037   1.203   1.844 -0.2093  0.0773  0.6214
  897TIP3    H124250   5.124   1.244   1.839 -0.4814  0.5383 -0.4650
  897TIP3    H224251   5.031   1.172   1.935  0.9267  0.3933  0.8226
  898TIP3   OH224252   1.346   0.687   7.594 -0.0497  0.4320 -0.7526
  898TIP3    H124253   1.266   0.649   7.558 -1.9998  2.7180  0.8269
  898TIP3    H224254   1.404   0.699   7.518 -1.3883 -0.8017 -2.0284
  899TIP3   OH224255   1.596   3.556   0.096  0.6476  0.2765 -0.0624
  899TIP3    H124256   1.632   3.566   0.184  0.1800 -1.6937  0.4013
  899TIP3    H224257   1.661   3.503   0.050  0.1287 -0.0936 -0.3764
  900TIP3   OH224258   4.047   3.365   0.063 -0.1137  0.1768 -0.4080
  900TIP3    H124259   3.989   3.312   0.009  1.1554  0.6266 -2.3446
  900TIP3    H224260   4.076   3.435   0.004 -0.1420  1.8376  1.4611
  901TIP3   OH224261   4.437   1.688   1.260  0.3874 -0.2372 -0.0488
  901TIP3    H124262   4.416   1.605   1.219  0.9882  0.0662 -1.0041
  901TIP3    H224263   4.388   1.753   1.210  1.0692  0.1300 -0.2621
  902TIP3   OH224264   0.763   5.151   1.054  0.2504 -0.9930 -0.3536
  902TIP3    H124265   0.733   5.073   1.101  0.7927 -0.4585  0.9252
  902TIP3    H224266   0.767   5.219   1.120  0.8725 -0.1560 -1.2180
  903TIP3   OH224267   1.117   2.032   3.371  0.3159 -0.1168 -0.7057
  903TIP3    H124268   1.025   2.034   3.345 -0.0679 -3.2650  0.0031
  903TIP3    H224269   1.142   1.940   3.364  2.9036  0.3567  0.8915
  904TIP3   OH224270   1.739   0.325   1.723 -0.1589  0.1796 -0.6023
  904TIP3    H124271   1.739   0.310   1.817 -0.2630 -0.8427 -0.7578
  904TIP3    H224272   1.692   0.250   1.686  0.0952  0.4410 -1.4871
  905TIP3   OH224273   0.113   1.149   8.612 -0.5431  0.2251 -0.0224
  905TIP3    H124274   0.139   1.121   8.700  0.0122  0.5690 -0.0707
  905TIP3    H224275   0.054   1.223   8.627 -0.9867 -0.1402  0.0710
  906TIP3   OH224276   5.083   2.052   0.696 -0.1950 -0.5758  0.0918
  906TIP3    H124277   5.048   2.042   0.607 -0.0506  0.0856 -0.0440
  906TIP3    H224278   5.005   2.054   0.752 -0.2662 -1.4835  0.0358
  907TIP3   OH224279   0.741   6.382   8.204  0.0341  0.2109 -0.1443
  907TIP3    H124280   0.706   6.362   8.291  3.3586  0.1031  1.3173
  907TIP3    H224281   0.834   6.363   8.211  0.3004 -0.7838 -4.0892
  908TIP3   OH224282   2.570   0.847   7.730  0.0322  0.4759 -0.5258
  908TIP3    H124283   2.555   0.940   7.708 -0.6016  0.8156  1.2052
  908TIP3    H224284   2.566   0.802   7.645 -0.7579  1.8893 -1.2840
  909TIP3   OH224285   5.287   1.902   2.149  0.3996  0.2159  0.7744
  909TIP3    H124286   5.306   1.986   2.191 -0.5225  0.8717 -0.0875
  909TIP3    H224287   5.216   1.865   2.201 -0.1495  0.6222  0.3128
  910TIP3   OH224288   2.095   0.274   8.675  0.4053 -0.8865  0.4316
  910TIP3    H124289   2.038   0.339   8.717  1.8046 -1.0310  2.7759
  910TIP3    H224290   2.040   0.233   8.608 -1.6577  0.2135  1.3519
  911TIP3   OH224291   1.049   3.366   8.199 -0.0489 -0.3164  0.3942
  911TIP3    H124292   1.017   3.288   8.153  0.9478 -0.4508 -0.0894
  911TIP3    H224293   1.025   3.351   8.291  1.0838 -1.7084  0.4946
  912TIP3   OH224294   4.139   4.358   1.231  0.5540 -0.1678  0.3727
  912TIP3    H124295   4.050   4.351   1.195  1.5716 -0.3659 -2.3124
  912TIP3    H224296   4.156   4.452   1.233  1.2233 -0.2184 -1.7063
  913TIP3   OH224297   0.808   5.793   1.237  0.1055 -0.2248  0.1984
  913TIP3    H124298   0.776   5.709   1.205  0.0959  0.6712 -2.4501
  913TIP3    H224299   0.900   5.795   1.213 -0.2067  1.0169 -1.0679
  914TIP3   OH224300   1.438   3.034   1.811 -0.1196 -1.1422 -0.0107
  914TIP3    H124301   1.508   2.991   1.861  1.0314  3.1682  2.6403
  914TIP3    H224302   1.357   3.002   1.851  0.5984 -1.8537  0.9261
  915TIP3   OH224303   3.787   6.554   2.720 -0.0872  0.1179 -0.0832
  915TIP3    H124304   3.842   6.521   2.649  0.9764  0.5399  0.5308
  915TIP3    H224305   3.717   6.489   2.728 -0.1436 -0.0186 -1.4010
  916TIP3   OH224306   3.790   4.344   7.195  0.0628 -0.5847 -0.5684
  916TIP3    H124307   3.723   4.275   7.193  1.0358 -1.5758 -0.2849
  916TIP3    H224308   3.745   4.420   7.230 -1.1427 -0.9673 -1.2179
  917TIP3   OH224309   1.263   4.143   8.122  0.0390  0.1096 -0.2071
  917TIP3    H124310   1.256   4.085   8.046 -1.6051  0.0907 -0.0953
  917TIP3    H224311   1.245   4.230   8.086 -0.0453  0.1925  0.0377
  918TIP3   OH224312   1.589   6.065   8.379  0.0998  0.3758 -0.6609
  918TIP3    H124313   1.536   5.994   8.415  0.7174  0.0446 -0.3971
  918TIP3    H224314   1.576   6.059   8.285 -0.5203  0.4490 -0.5850
  919TIP3   OH224315   2.940   6.748   1.628 -0.2686  0.0827 -0.7124
  919TIP3    H124316   2.879   6.713   1.692  0.5214  0.1101  0.0766
  919TIP3    H224317   2.996   6.673   1.606 -0.4273  0.1172 -1.2448
  920TIP3   OH224318   6.582   1.015   8.080 -0.6274 -0.0092 -0.0130
  920TIP3    H124319   6.606   0.939   8.028  2.3379  1.0111 -0.3152
  920TIP3    H224320   6.556   0.979   8.165 -0.8725 -1.4195 -0.6556
  921TIP3   OH224321   2.243   5.727   8.671 -0.1007  0.3626  0.7426
  921TIP3    H124322   2.246   5.667   8.746 -1.4947 -1.5090 -0.6015
  921TIP3    H224323   2.160   5.707   8.628  0.8598  1.0531 -1.5747
  922TIP3   OH224324   5.168   5.977   1.004 -0.5089 -0.2227 -0.1271
  922TIP3    H124325   5.090   6.026   1.029 -1.9354 -1.3647 -2.0933
  922TIP3    H224326   5.162   5.895   1.053  2.1874  1.5042  3.6360
  923TIP3   OH224327   5.683   3.587   7.333  0.1563  0.3709  0.1578
  923TIP3    H124328   5.661   3.619   7.246  0.0140  1.1060  0.4549
  923TIP3    H224329   5.634   3.644   7.393 -1.4792 -1.4877  0.6908
  924TIP3   OH224330   4.990   4.033   2.194 -0.0607 -0.4380 -0.2154
  924TIP3    H124331   4.971   4.068   2.282 -0.1027 -0.2131 -0.3122
  924TIP3    H224332   4.905   4.003   2.161 -0.5537  1.8172 -1.1933
  925TIP3   OH224333   1.043   4.210   0.763 -0.3623  0.5246  0.4338
  925TIP3    H124334   0.992   4.195   0.683 -1.1314  0.6223  0.8899
  925TIP3    H224335   1.132   4.223   0.733 -0.1091 -2.1020 -0.2358
  926TIP3   OH224336   2.188   0.374   1.592  0.0701  0.2409 -0.1884
  926TIP3    H124337   2.149   0.394   1.677  1.1143  0.4839  0.2546
  926TIP3    H224338   2.166   0.283   1.576 -1.2725  0.5677 -0.2998
  927TIP3   OH224339   0.943   3.323   2.399 -0.9494  0.2808  0.3021
  927TIP3    H124340   0.903   3.371   2.472 -0.2065  0.6280  0.4896
  927TIP3    H224341   1.028   3.364   2.388 -0.5325 -0.6305  0.0836
  928TIP3   OH224342   0.919   4.088   1.590  0.1652 -0.2729 -0.5532
  928TIP3    H124343   0.954   4.094   1.501  1.5996  0.8152  0.0476
  928TIP3    H224344   0.862   4.165   1.598  0.4683 -0.0635 -0.3695
  929TIP3   OH224345   2.300   4.005   8.692 -0.2593 -0.5617 -0.5021
  929TIP3    H124346   2.369   4.018   8.758 -0.8628  0.8554 -0.1219
  929TIP3    H224347   2.348   3.990   8.611  0.5835  1.9220 -0.5628
  930TIP3   OH224348   0.031   2.669   8.243  0.4599 -0.2690 -0.1724
  930TIP3    H124349   0.050   2.677   8.150 -0.2257 -1.2754 -0.4094
  930TIP3    H224350  -0.046   2.613   8.248  0.9057 -0.8212  1.0396
  931TIP3   OH224351   0.086   2.189   8.432 -0.1223 -0.1039 -0.3263
  931TIP3    H124352   0.026   2.152   8.496  1.8047 -0.6922  1.2146
  931TIP3    H224353   0.029   2.225   8.364 -2.1950 -0.6489  1.0423
  932TIP3   OH224354   5.781   2.884   1.036  0.0005 -0.1711  0.2566
  932TIP3    H124355   5.825   2.831   1.103  0.0294  0.8857  1.0965
  932TIP3    H224356   5.819   2.855   0.953  1.9449  0.3830  0.9176
  933TIP3   OH224357   3.894   1.957   8.605  0.1598 -0.6879 -0.2610
  933TIP3    H124358   3.968   1.919   8.557 -0.4003 -1.3088 -0.6567
  933TIP3    H224359   3.927   1.968   8.694  0.4580 -1.8439 -0.2015
  934TIP3   OH224360   4.559   2.028   8.323 -0.0415  0.0986  0.0582
  934TIP3    H124361   4.531   2.080   8.248  3.3607  1.5715 -0.3442
  934TIP3    H224362   4.626   2.080   8.366  0.4158 -2.0968  2.2866
  935TIP3   OH224363   4.418   4.990   2.029 -0.3215 -0.0307  0.5320
  935TIP3    H124364   4.375   4.923   2.081  0.8793 -0.8920  0.4493
  935TIP3    H224365   4.390   5.073   2.069 -2.0419 -0.5471  0.4469
  936TIP3   OH224366   2.436   1.100   0.772  0.1118  0.3926  0.4988
  936TIP3    H124367   2.463   1.008   0.770  1.8766  0.8657  0.2757
  936TIP3    H224368   2.495   1.143   0.709 -2.2040  1.3270 -1.1671
  937TIP3   OH224369   1.085   2.726   8.720 -0.6682 -0.4772 -0.4698
  937TIP3    H124370   1.108   2.721   8.627 -0.6387  0.1182 -0.5016
  937TIP3    H224371   1.114   2.643   8.757 -0.8539 -0.7988 -1.0309
  938TIP3   OH224372   6.368   6.720   8.279  0.1275 -0.2199 -0.8186
  938TIP3    H124373   6.340   6.643   8.230 -1.6578  0.8889 -1.6520
  938TIP3    H224374   6.380   6.788   8.212  1.0752  0.4035 -0.0473
  939TIP3   OH224375   2.407   5.422   1.000  0.4738  0.2024 -0.6045
  939TIP3    H124376   2.319   5.449   0.973  0.8575  0.5742 -1.5311
  939TIP3    H224377   2.393   5.370   1.079 -0.4369  1.7303  0.2886
  940TIP3   OH224378   4.063   5.041   2.182  0.2759 -0.4570  0.0570
  940TIP3    H124379   4.090   5.090   2.259 -1.8538  0.5745  0.2224
  940TIP3    H224380   4.112   5.080   2.110  0.1336  0.5370  0.4860
  941TIP3   OH224381   1.378   1.763   1.885 -0.1804 -0.1478  0.5484
  941TIP3    H124382   1.361   1.680   1.841  1.5091 -0.6834  0.8111
  941TIP3    H224383   1.334   1.829   1.831 -3.5473 -1.3572  1.5733
  942TIP3   OH224384   2.372   0.324   2.000 -0.3502  0.4907 -0.0417
  942TIP3    H124385   2.383   0.304   2.093  0.4456 -2.3769 -0.6544
  942TIP3    H224386   2.460   0.343   1.969 -0.5144  0.7465 -0.3514
  943TIP3   OH224387   4.813   5.901   1.335 -0.0935  0.2615  0.2984
  943TIP3    H124388   4.840   5.829   1.277  0.8112  0.5323  0.3709
  943TIP3    H224389   4.728   5.929   1.300 -0.3385 -0.6748  0.1188
  944TIP3   OH224390   3.027   6.405   8.246 -0.0426 -0.0870  0.6538
  944TIP3    H124391   3.087   6.475   8.220  0.5407 -0.9420 -0.4223
  944TIP3    H224392   3.052   6.331   8.190 -3.7393  0.2141 -1.7870
  945TIP3   OH224393   0.153   5.582   8.203  0.0042 -0.5855 -1.0159
  945TIP3    H124394   0.196   5.653   8.154 -0.6986 -1.1525 -2.5031
  945TIP3    H224395   0.226   5.531   8.239  0.5196  0.9716  0.2502
  946TIP3   OH224396   2.867   1.491   7.733  0.1975 -0.0228 -0.1533
  946TIP3    H124397   2.960   1.473   7.718  0.2580 -0.9814  1.1862
  946TIP3    H224398   2.827   1.482   7.646  1.5584  2.1207 -1.0907
  947TIP3   OH224399   4.342   6.416   0.138  0.3477  0.1945 -0.4406
  947TIP3    H124400   4.253   6.384   0.126  0.1965  0.4291  0.0703
  947TIP3    H224401   4.333   6.512   0.143  0.3717  0.1238  1.7396
  948TIP3   OH224402   0.856   3.271   0.569  0.0082  0.2610 -0.1016
  948TIP3    H124403   0.920   3.239   0.506  4.0777  0.2112  3.5744
  948TIP3    H224404   0.776   3.221   0.550  1.8955 -1.9287 -3.1861
  949TIP3   OH224405   0.304   3.072   7.275  0.2090  0.4353  0.1270
  949TIP3    H124406   0.361   3.121   7.217  2.5205 -0.4001  1.5572
  949TIP3    H224407   0.327   2.980   7.260 -0.6282  0.0784  0.8797
  950TIP3   OH224408   1.681   0.338   2.003 -0.1097  0.9148 -0.2590
  950TIP3    H124409   1.723   0.269   2.053 -0.5261 -1.4805 -2.9752
  950TIP3    H224410   1.633   0.390   2.068  2.0472  0.0914  2.1400
  951TIP3   OH224411   6.606   2.303   3.271  0.1470 -0.1824  0.2367
  951TIP3    H124412   6.692   2.327   3.236 -0.1925 -0.7615 -1.0454
  951TIP3    H224413   6.590   2.215   3.237 -0.5386 -0.4813  1.2726
  952TIP3   OH224414   2.325   2.362   2.739  0.0316 -0.3872 -0.2336
  952TIP3    H124415   2.341   2.268   2.742  0.7291 -0.2477  1.1137
  952TIP3    H224416   2.245   2.374   2.790  0.5613 -0.1440  0.5564
  953TIP3   OH224417   0.259   3.455   3.223  0.2266  0.0821 -0.4507
  953TIP3    H124418   0.208   3.383   3.261 -0.8633  0.6408 -0.8010
  953TIP3    H224419   0.269   3.518   3.295  1.0322 -0.3312 -0.1917
  954TIP3   OH224420   1.053   6.123   7.328  0.0982 -0.1585  0.0941
  954TIP3    H124421   1.040   6.028   7.329  1.3442 -0.3438  0.5085
  954TIP3    H224422   1.118   6.138   7.259  0.5916  0.2848  0.6411
  955TIP3   OH224423   5.227   0.796   7.444  0.0995 -0.1387  0.0076
  955TIP3    H124424   5.157   0.820   7.504  0.2269  1.6619 -0.5279
  955TIP3    H224425   5.228   0.865   7.378  3.0803  0.5079  0.5931
  956TIP3   OH224426   1.440   1.027   8.601  0.0324  0.8724 -0.2370
  956TIP3    H124427   1.449   1.116   8.636 -1.3865  0.3083  1.7878
  956TIP3    H224428   1.346   1.015   8.592  0.2582  0.0016 -1.8161
  957TIP3   OH224429   5.768   0.015   8.025 -0.5135  0.0446  0.2141
  957TIP3    H124430   5.813  -0.069   8.015  1.0864  0.9188 -0.2435
  957TIP3    H224431   5.694  -0.005   8.083 -0.7599 -1.8652 -0.6695
  958TIP3   OH224432   4.594   6.530   7.254  0.3931 -0.7071  0.1771
  958TIP3    H124433   4.598   6.598   7.322  3.9144 -1.4097  0.8583
  958TIP3    H224434   4.599   6.578   7.172 -1.1722 -0.0086  0.4336
  959TIP3   OH224435   0.825   0.307   7.614 -0.7838 -0.0037 -0.3385
  959TIP3    H124436   0.798   0.252   7.541 -2.1811 -1.2534  1.0524
  959TIP3    H224437   0.905   0.265   7.647  0.9785  1.6435 -2.2257
  960TIP3   OH224438   0.861   2.177   2.558 -0.4975 -0.2496 -0.1455
  960TIP3    H124439   0.922   2.246   2.586  1.4232 -1.3665 -1.3162
  960TIP3    H224440   0.807   2.160   2.634  0.5874  0.8888  0.9322
  961TIP3   OH224441   4.546   2.545   2.712  0.4675  0.4615  0.9144
  961TIP3    H124442   4.497   2.463   2.704  0.4792  0.5883 -0.7541
  961TIP3    H224443   4.560   2.555   2.806  0.9580 -1.7302  1.1307
  962TIP3   OH224444   0.550   1.547   2.425  0.3243 -0.0550 -0.2298
  962TIP3    H124445   0.514   1.602   2.494  0.1876  0.6835 -0.8790
  962TIP3    H224446   0.565   1.462   2.467 -2.1311 -0.3933  0.1096
  963TIP3   OH224447   1.280   6.470   1.066 -0.0699 -0.2806  0.2688
  963TIP3    H124448   1.294   6.376   1.059  0.4775 -0.2658  1.0816
  963TIP3    H224449   1.348   6.500   1.126  0.4410  0.8063 -0.8040
  964TIP3   OH224450   6.532   4.393   2.387 -0.2370  0.3728  0.4077
  964TIP3    H124451   6.492   4.307   2.399 -0.4498  0.2155 -1.2128
  964TIP3    H224452   6.593   4.381   2.314  1.2101  1.1400  1.4426
  965TIP3   OH224453   5.516   4.936   8.113  0.2996 -0.3428  0.1470
  965TIP3    H124454   5.463   5.003   8.069 -0.3685 -0.6471  0.4619
  965TIP3    H224455   5.482   4.853   8.078  0.7151 -0.5387  0.2027
  966TIP3   OH224456   0.380   3.860   1.546  0.3730 -0.5712 -0.2694
  966TIP3    H124457   0.398   3.856   1.640 -1.3563  0.4670  0.1528
  966TIP3    H224458   0.430   3.936   1.515  0.6863 -0.7177 -0.1215
  967TIP3   OH224459   5.398   0.919   8.447  0.3601  0.5340  0.3603
  967TIP3    H124460   5.341   0.859   8.494  0.1236  2.2934  2.4432
  967TIP3    H224461   5.432   0.978   8.514  1.9149  1.7015 -1.3468
  968TIP3   OH224462   2.465   1.876   1.559  0.1327 -0.2063 -0.8618
  968TIP3    H124463   2.465   1.800   1.501 -1.7686 -0.8276 -0.1352
  968TIP3    H224464   2.460   1.839   1.647 -0.8238  0.7508 -0.4961
  969TIP3   OH224465   3.416   5.364   0.468  0.1526  0.3998  0.3253
  969TIP3    H124466   3.427   5.458   0.459 -0.5860  0.7001  2.0501
  969TIP3    H224467   3.334   5.354   0.516  0.1159 -1.1330 -0.0039
  970TIP3   OH224468   4.878   5.313   1.468 -0.2655  0.4804 -0.5677
  970TIP3    H124469   4.826   5.269   1.535  0.8435 -1.8479 -1.1432
  970TIP3    H224470   4.814   5.344   1.405 -1.1904  1.1537  0.6491
  971TIP3   OH224471   3.972   6.438   1.820 -1.0210  0.2863 -0.1903
  971TIP3    H124472   4.037   6.392   1.874 -0.2100  0.8455 -0.6693
  971TIP3    H224473   3.911   6.476   1.884 -0.3409  0.5382  0.3293
  972TIP3   OH224474   2.704   6.781   8.757  0.2124  0.6595  0.6445
  972TIP3    H124475   2.689   6.794   8.850 -0.5159  2.3291  0.3259
  972TIP3    H224476   2.694   6.868   8.718 -0.9531 -0.2291 -1.1926
  973TIP3   OH224477   1.162   4.861   2.444 -0.5759  0.1699 -0.1314
  973TIP3    H124478   1.143   4.807   2.520  0.1305 -0.3565 -0.3184
  973TIP3    H224479   1.256   4.877   2.449 -0.5225  0.1301 -0.8899
  974TIP3   OH224480   3.558   1.377   8.662  0.0451  0.3589 -1.0093
  974TIP3    H124481   3.632   1.438   8.665  0.4438 -0.0953 -1.3868
  974TIP3    H224482   3.577   1.312   8.730  0.7528 -0.5887 -2.0697
  975TIP3   OH224483   2.127   5.163   7.483 -0.0402 -0.6487  0.5226
  975TIP3    H124484   2.086   5.106   7.547 -0.4231 -1.4904 -0.4439
  975TIP3    H224485   2.179   5.104   7.428 -0.0034  0.0004 -0.1528
  976TIP3   OH224486   2.854   3.044   8.236 -0.0906 -0.2545 -0.2005
  976TIP3    H124487   2.903   3.087   8.166  0.0917  0.1611  0.1780
  976TIP3    H224488   2.916   2.982   8.275  0.5505  1.0902  1.0436
  977TIP3   OH224489   2.988   3.675   7.611 -0.2304 -0.1480 -0.1498
  977TIP3    H124490   3.044   3.720   7.548 -0.6074 -0.6565 -0.8633
  977TIP3    H224491   2.909   3.653   7.562  0.2124 -2.1981 -0.0446
  978TIP3   OH224492   6.396   6.708   8.666  0.3776  0.1837  0.1561
  978TIP3    H124493   6.302   6.697   8.678 -0.2868  2.9958 -1.6310
  978TIP3    H224494   6.424   6.627   8.623 -1.4960 -0.1293 -0.5561
  979TIP3   OH224495   2.647   5.016   1.165 -0.0288  0.5757  0.1431
  979TIP3    H124496   2.576   4.952   1.169  0.2245  0.1713 -1.3182
  979TIP3    H224497   2.672   5.019   1.073  0.0465  2.7279  0.1951
  980TIP3   OH224498   0.409   0.836   6.994  0.0817  0.3041  0.0172
  980TIP3    H124499   0.404   0.931   7.001 -0.0304  0.1701  2.6952
  980TIP3    H224500   0.490   0.820   6.944  1.1758  1.8172  1.1971
  981TIP3   OH224501   1.894   5.531   6.701  0.0905 -0.0293 -0.5024
  981TIP3    H124502   1.880   5.570   6.787  0.7391  0.2917 -0.5320
  981TIP3    H224503   1.961   5.586   6.660  0.5213 -0.7614 -0.8183
  982TIP3   OH224504   6.272   4.104   1.063  0.0060  0.6664  0.6755
  982TIP3    H124505   6.242   4.038   1.126  0.3434 -1.7991 -1.5686
  982TIP3    H224506   6.191   4.142   1.028 -0.2452  0.3390  0.8888
  983TIP3   OH224507   0.715   4.699   8.655  0.0259 -0.7226  0.7731
  983TIP3    H124508   0.760   4.775   8.692 -0.2933  0.4348 -1.0909
  983TIP3    H224509   0.776   4.626   8.668  1.9764  0.5498 -0.5791
  984TIP3   OH224510   3.915   2.753   0.347 -0.5004 -0.2833  0.2389
  984TIP3    H124511   3.827   2.761   0.312 -0.5760 -0.0647  0.4764
  984TIP3    H224512   3.972   2.750   0.270 -0.7742 -1.2159  0.0612
  985TIP3   OH224513   0.999   2.448   1.869 -0.2206  0.4846 -0.5214
  985TIP3    H124514   1.003   2.425   1.962 -1.6578  0.9700 -0.3089
  985TIP3    H224515   0.937   2.521   1.865 -0.3466  0.3315 -1.8830
  986TIP3   OH224516   6.772   5.936   2.473 -0.3077 -0.0163  0.4566
  986TIP3    H124517   6.860   5.939   2.435 -0.4452 -1.1480  0.0129
  986TIP3    H224518   6.717   5.984   2.411  0.0642  1.1713  1.0039
  987TIP3   OH224519   2.524   0.148   8.684 -0.5147  0.1310  0.2687
  987TIP3    H124520   2.526   0.186   8.596 -1.6738  0.1405  0.2304
  987TIP3    H224521   2.475   0.067   8.674  0.6861 -0.6581  0.6296
  988TIP3   OH224522   0.775   3.777   0.544  0.6386  0.1766 -0.0405
  988TIP3    H124523   0.809   3.688   0.536 -0.0286 -0.0342 -0.5576
  988TIP3    H224524   0.757   3.788   0.638 -0.4521 -0.6713 -0.1345
  989TIP3   OH224525   2.309   3.556   1.657 -0.1951  0.2106 -0.3695
  989TIP3    H124526   2.308   3.464   1.630 -0.2107 -0.0656  0.5274
  989TIP3    H224527   2.279   3.604   1.581 -1.6785 -0.6604 -0.3710
  990TIP3   OH224528   6.046   2.844   2.220 -0.1266 -0.3311  0.0119
  990TIP3    H124529   6.115   2.852   2.286  0.4215 -0.1671 -0.5716
  990TIP3    H224530   6.002   2.761   2.241 -1.1451  0.5617  1.6870
  991TIP3   OH224531   1.915   2.140   1.091 -1.0748 -0.0249  0.2434
  991TIP3    H124532   1.887   2.065   1.145  0.1059 -1.5497 -1.1453
  991TIP3    H224533   1.996   2.110   1.050 -1.4343  1.4393 -1.6319
  992TIP3   OH224534   0.768   2.373   0.016  0.3708  0.0720  0.4647
  992TIP3    H124535   0.788   2.360   0.109 -0.6285  0.6585  0.7770
  992TIP3    H224536   0.689   2.321   0.001  0.7931 -0.4014 -0.1874
  993TIP3   OH224537   5.138   1.276   8.240  0.3930  0.0644 -0.1706
  993TIP3    H124538   5.137   1.369   8.265  0.9643 -0.0586  0.3187
  993TIP3    H224539   5.210   1.238   8.290 -0.6639 -0.9248  0.6480
  994TIP3   OH224540   3.511   2.150   7.427  0.4432 -0.3481  0.1084
  994TIP3    H124541   3.591   2.097   7.426  0.2231 -0.7537  1.8127
  994TIP3    H224542   3.542   2.240   7.431  0.8392 -0.5073  0.8344
  995TIP3   OH224543   6.824   2.091   1.026  0.1941  0.4631  0.0049
  995TIP3    H124544   6.810   2.125   0.938 -0.3731 -0.7980 -0.4157
  995TIP3    H224545   6.759   2.135   1.080 -0.4089  0.1944 -0.4907
  996TIP3   OH224546   1.105   0.755   1.599  0.4577  0.3950  0.0510
  996TIP3    H124547   1.188   0.781   1.557  1.5680  0.0324  1.9118
  996TIP3    H224548   1.071   0.837   1.635 -0.1324  0.5777 -0.8729
  997TIP3   OH224549   6.399   3.518   2.583  0.2025  0.3668  0.6312
  997TIP3    H124550   6.391   3.468   2.501 -1.0597  0.6107  0.5730
  997TIP3    H224551   6.383   3.453   2.652  1.2207  0.1705  0.6860
  998TIP3   OH224552   3.109   0.800   0.498  0.1634  0.9750  0.0137
  998TIP3    H124553   3.097   0.891   0.523  1.1546  0.6749  1.6769
  998TIP3    H224554   3.187   0.772   0.545 -0.7876 -1.0712  0.4740
  999TIP3   OH224555   3.749   1.768   0.893 -0.5744  0.3948 -0.5417
  999TIP3    H124556   3.818   1.829   0.920 -1.7735  1.0767  1.1279
  999TIP3    H224557   3.721   1.800   0.807 -2.0446  3.0975  0.8097
 1000TIP3   OH224558   3.737   3.024   6.949  0.4024 -0.3331 -0.7132
 1000TIP3    H124559   3.813   3.081   6.953 -0.3815  0.6611  1.0849
 1000TIP3    H224560   3.667   3.074   6.991 -0.8529 -1.8201 -0.9469
 1001TIP3   OH224561   2.304   1.466   2.452  0.4081 -0.2387 -0.4777
 1001TIP3    H124562   2.231   1.424   2.499 -0.6274 -0.9366 -2.5688
 1001TIP3    H224563   2.383   1.428   2.491 -0.3879 -0.7455  0.7054
 1002TIP3   OH224564   1.637   2.585   1.225 -1.0520  0.3269 -0.8157
 1002TIP3    H124565   1.663   2.675   1.205  0.2646  0.0588 -0.3795
 1002TIP3    H224566   1.658   2.536   1.146 -1.0777  0.2618 -0.7821
 1003TIP3   OH224567   5.164   6.268   6.882 -0.1646  0.1422  0.5671
 1003TIP3    H124568   5.195   6.346   6.835 -1.1864  0.2826  0.0799
 1003TIP3    H224569   5.209   6.195   6.840 -1.1328  0.2549 -0.7427
 1004TIP3   OH224570   3.889   5.785   1.208  0.3414 -0.0352 -0.2621
 1004TIP3    H124571   3.895   5.880   1.199 -0.8602  0.3749  2.2230
 1004TIP3    H224572   3.835   5.757   1.134 -1.4033  1.6252  0.2933
 1005TIP3   OH224573   0.425   5.705   7.547  0.0504 -0.4491  0.0906
 1005TIP3    H124574   0.502   5.756   7.524 -1.0296  0.3026 -2.1489
 1005TIP3    H224575   0.455   5.614   7.546  1.4972 -0.0727  2.0451
 1006TIP3   OH224576   6.444   6.314   8.318 -0.1294  0.4317 -0.0677
 1006TIP3    H124577   6.386   6.237   8.315  1.1566 -0.6129  0.6918
 1006TIP3    H224578   6.413   6.369   8.246 -0.9257 -0.9219 -0.8218
 1007TIP3   OH224579   3.919   4.169   1.488 -0.0613  0.4118  0.1898
 1007TIP3    H124580   3.858   4.099   1.463 -0.3902  0.8854 -0.3706
 1007TIP3    H224581   3.865   4.248   1.491  0.5155  0.8353 -0.2905
 1008TIP3   OH224582   0.569   4.515   1.007  0.1555 -1.0847  0.7441
 1008TIP3    H124583   0.522   4.448   1.057 -0.8670 -0.2813  0.9021
 1008TIP3    H224584   0.633   4.550   1.069  0.1369 -1.3533  0.9169
 1009TIP3   OH224585   2.987   6.157   0.361 -0.7160 -0.3113  0.2073
 1009TIP3    H124586   2.898   6.191   0.366 -0.4930  0.5077 -0.8924
 1009TIP3    H224587   3.003   6.117   0.447 -1.6638  0.7190  0.8876
 1010TIP3   OH224588   3.807   1.106   7.464  0.7854 -0.2664 -0.5112
 1010TIP3    H124589   3.738   1.043   7.484  1.8193 -1.0561  0.7152
 1010TIP3    H224590   3.852   1.070   7.388  0.4375 -0.2215 -0.7409
 1011TIP3   OH224591   1.371   3.177   8.175  0.0127 -0.2497  0.2492
 1011TIP3    H124592   1.328   3.092   8.173  0.7118 -0.6559  1.5694
 1011TIP3    H224593   1.464   3.158   8.171  0.2084  0.3865  1.3008
 1012TIP3   OH224594   1.410   2.255   0.480  0.1619  0.6797  0.2006
 1012TIP3    H124595   1.450   2.258   0.393  1.8788  0.1387  0.9212
 1012TIP3    H224596   1.317   2.245   0.463  0.4566  0.5499 -1.5774
 1013TIP3   OH224597   0.757   1.896   2.444 -0.2631 -0.2061 -0.0536
 1013TIP3    H124598   0.729   1.887   2.535  0.4784  0.3717  0.2342
 1013TIP3    H224599   0.730   1.984   2.419 -0.3791 -0.3287 -0.3697
 1014TIP3   OH224600   0.465   0.017   1.162  0.0095  0.0050 -0.1914
 1014TIP3    H124601   0.522   0.019   1.085  0.7399 -0.9379  0.3087
 1014TIP3    H224602   0.523   0.042   1.235 -0.3779 -0.2765  0.2161
 1015TIP3   OH224603   5.986   0.457   8.429 -0.0458  0.3596 -0.0164
 1015TIP3    H124604   5.908   0.458   8.372  0.4741  0.0055 -0.7545
 1015TIP3    H224605   5.991   0.366   8.460 -0.5323  0.6337  0.9049
 1016TIP3   OH224606   2.796   2.716   0.851 -0.2664 -0.2723 -0.1911
 1016TIP3    H124607   2.727   2.713   0.917  0.3612 -3.7564  0.5398
 1016TIP3    H224608   2.753   2.687   0.770 -0.2486  0.4071 -0.4503
 1017TIP3   OH224609   3.945   1.150   2.733  0.1499  0.1981 -0.2804
 1017TIP3    H124610   3.853   1.123   2.728  0.3253 -0.2511 -1.2426
 1017TIP3    H224611   3.975   1.150   2.643  0.4537  2.6155 -0.2394
 1018TIP3   OH224612   6.137   1.111   7.658  0.4432  0.6794 -0.2146
 1018TIP3    H124613   6.063   1.164   7.629 -2.8365 -3.1999  0.1898
 1018TIP3    H224614   6.164   1.063   7.580  2.3993  1.7737 -0.2663
 1019TIP3   OH224615   2.325   0.619   2.080  0.0679 -0.0735  0.1020
 1019TIP3    H124616   2.334   0.529   2.048  2.2823 -0.7579  2.3514
 1019TIP3    H224617   2.328   0.611   2.175 -0.1137  2.3661  0.3716
 1020TIP3   OH224618   4.000   1.520   0.126  0.7200 -0.2791  0.0085
 1020TIP3    H124619   4.045   1.594   0.086  0.4438  0.1579  0.5079
 1020TIP3    H224620   4.003   1.537   0.220  1.6068 -1.4369  0.2169
 1021TIP3   OH224621   2.851   1.544   7.231 -0.2144  0.1492 -0.3977
 1021TIP3    H124622   2.939   1.563   7.264 -0.5080 -0.5910  0.8702
 1021TIP3    H224623   2.863   1.535   7.137  0.9797  0.5567 -0.3077
 1022TIP3   OH224624   3.740   0.579   8.256 -0.7626 -0.0614 -0.0060
 1022TIP3    H124625   3.724   0.555   8.165 -0.9506  0.6877 -0.1722
 1022TIP3    H224626   3.825   0.622   8.256 -0.3666 -0.8107  0.3175
 1023TIP3   OH224627   2.342   3.214   0.632  0.1640  0.2986  0.5547
 1023TIP3    H124628   2.411   3.149   0.619  0.7070  1.0665 -0.4425
 1023TIP3    H224629   2.264   3.172   0.596 -0.4975 -1.5194  3.6864
 1024TIP3   OH224630   4.620   3.853   8.768 -0.3828 -0.1355 -0.5718
 1024TIP3    H124631   4.576   3.826   8.848  0.9716 -0.8029 -0.0175
 1024TIP3    H224632   4.647   3.771   8.726  1.6644  0.2192 -0.0875
 1025TIP3   OH224633   2.174   3.663   8.638  0.2324  0.1928 -0.1381
 1025TIP3    H124634   2.183   3.614   8.720  0.3715 -0.5203 -0.5704
 1025TIP3    H224635   2.264   3.671   8.605  0.1146 -0.0870 -0.5387
 1026TIP3   OH224636   3.906   2.301   0.137  0.0018 -0.3410 -0.0884
 1026TIP3    H124637   3.967   2.330   0.205  1.3158  3.2901 -2.5580
 1026TIP3    H224638   3.819   2.327   0.170  0.4127 -0.1013  0.8413
 1027TIP3   OH224639   1.554   0.688   0.801  0.3023  0.4107 -0.0556
 1027TIP3    H124640   1.585   0.666   0.890  0.3424 -0.6669 -0.3231
 1027TIP3    H224641   1.592   0.774   0.784  1.3009  0.1031  0.5091
 1028TIP3   OH224642   0.831   1.639   2.377  0.5618 -0.0518 -0.0917
 1028TIP3    H124643   0.790   1.725   2.380 -0.7479 -0.6659  3.0229
 1028TIP3    H224644   0.774   1.587   2.321 -0.7508  0.1760  0.9864
 1029TIP3   OH224645   1.713   2.413   8.131  0.3491  0.0800 -0.1225
 1029TIP3    H124646   1.725   2.318   8.133 -0.5671 -0.0544  1.5889
 1029TIP3    H224647   1.801   2.448   8.139  0.8328 -0.5741 -2.0816
 1030TIP3   OH224648   2.110   1.324   2.582  0.3140 -0.8654  0.2356
 1030TIP3    H124649   2.027   1.280   2.563 -0.1348 -0.1980  0.6293
 1030TIP3    H224650   2.096   1.367   2.666  1.8480 -2.7361  1.5623
 1031TIP3   OH224651   0.221   2.870   8.056  0.4463 -0.2735 -0.3750
 1031TIP3    H124652   0.208   2.849   8.148  0.1417  0.1746 -0.3125
 1031TIP3    H224653   0.172   2.803   8.009  0.7276 -0.5920 -0.2162
 1032TIP3   OH224654   0.001   5.586   6.930  0.3408  0.0922 -0.6892
 1032TIP3    H124655  -0.065   5.520   6.910  0.1510  0.0620 -0.0126
 1032TIP3    H224656  -0.039   5.669   6.906  0.0082  0.0840 -0.1882
 1033TIP3   OH224657   5.346   1.485   7.951  0.6319  0.8830  0.3771
 1033TIP3    H124658   5.441   1.486   7.942  0.5342  1.6769 -0.7957
 1033TIP3    H224659   5.319   1.401   7.912  0.8461  0.7115  0.6016
 1034TIP3   OH224660   1.053   2.813   0.987 -0.1926  0.6796 -0.1276
 1034TIP3    H124661   0.992   2.746   1.017 -1.8944  1.8150 -0.9463
 1034TIP3    H224662   1.077   2.860   1.067 -1.5773  1.1623  0.0302
 1035TIP3   OH224663   0.473   1.690   2.636  0.1499 -0.0642 -0.1134
 1035TIP3    H124664   0.453   1.641   2.716  2.6965 -0.7906  0.1643
 1035TIP3    H224665   0.497   1.778   2.667  1.5935 -0.4778  0.0298
 1036TIP3   OH224666   3.752   3.782   8.458  0.0134  0.5367 -0.0241
 1036TIP3    H124667   3.663   3.784   8.423  0.1220  0.1757 -0.3201
 1036TIP3    H224668   3.808   3.778   8.381  0.2338 -0.9124  0.1853
 1037TIP3   OH224669   0.247   1.965   8.351  0.2042 -0.9814 -0.6933
 1037TIP3    H124670   0.206   2.030   8.407 -0.7451 -0.6268 -1.7528
 1037TIP3    H224671   0.341   1.972   8.370 -0.1731 -1.9889  1.9787
 1038TIP3   OH224672   5.793   2.848   8.683  0.1144 -0.4618  0.0670
 1038TIP3    H124673   5.822   2.923   8.735  2.2235 -1.9229  1.1829
 1038TIP3    H224674   5.847   2.851   8.604 -0.6359 -0.1678 -0.4419
 1039TIP3   OH224675   5.888   5.503   6.931  0.2431  0.2100  0.2823
 1039TIP3    H124676   5.967   5.557   6.926  1.8020 -1.7837  1.8739
 1039TIP3    H224677   5.827   5.556   6.983  1.1985  1.0225  0.6100
 1040TIP3   OH224678   5.973   1.845   1.126 -0.2070 -0.3882  0.3281
 1040TIP3    H124679   5.909   1.780   1.155  0.7330 -0.4251  2.5394
 1040TIP3    H224680   6.053   1.796   1.110 -0.3881 -0.1901 -1.3023
 1041TIP3   OH224681   3.361   5.316   8.598  0.4105  0.4970 -0.1799
 1041TIP3    H124682   3.271   5.347   8.593  0.0525 -0.4089  0.3655
 1041TIP3    H224683   3.405   5.378   8.657 -0.3532 -0.1380  1.1062
 1042TIP3   OH224684   0.860   6.213   1.268 -0.0094 -0.9321 -0.7885
 1042TIP3    H124685   0.880   6.222   1.361 -2.1965  2.0277 -0.4734
 1042TIP3    H224686   0.941   6.182   1.229  1.4573 -0.7156  1.8691
 1043TIP3   OH224687   1.035   2.692   8.336  0.1533 -0.2445 -0.0798
 1043TIP3    H124688   1.015   2.781   8.366 -1.4483  0.3566 -2.5990
 1043TIP3    H224689   1.127   2.697   8.310 -0.2994  1.2116 -1.6376
 1044TIP3   OH224690   4.968   0.315   1.735 -0.2515  0.2365 -0.4006
 1044TIP3    H124691   4.925   0.339   1.818  0.9480  0.8494  0.0648
 1044TIP3    H224692   4.921   0.365   1.668 -1.0712 -0.0712 -0.0673
 1045TIP3   OH224693   1.013   4.887   7.941 -0.0992  0.7585 -0.0469
 1045TIP3    H124694   1.008   4.794   7.917 -0.0918  0.8289 -0.3260
 1045TIP3    H224695   0.930   4.924   7.910 -0.7957  0.5268  1.4705
 1046TIP3   OH224696   3.782   4.121   7.425 -0.5147  0.9500  0.6448
 1046TIP3    H124697   3.747   4.178   7.357 -2.5052  0.4813  1.1927
 1046TIP3    H224698   3.705   4.095   7.476  0.4284 -1.4672  0.9721
 1047TIP3   OH224699   1.566   2.558   7.276  0.3907  0.7686  0.0768
 1047TIP3    H124700   1.544   2.466   7.259 -0.5369  1.0911 -0.6323
 1047TIP3    H224701   1.659   2.558   7.295  0.1139 -0.5022  1.5782
 1048TIP3   OH224702   3.615   2.577   1.650  0.3031  0.8653  0.6099
 1048TIP3    H124703   3.635   2.484   1.642  1.8681  0.8601  3.5366
 1048TIP3    H224704   3.533   2.588   1.601  0.4891 -1.8451 -0.4693
 1049TIP3   OH224705   3.670   0.975   0.446  0.1457  0.6258  0.4404
 1049TIP3    H124706   3.700   1.059   0.411  1.7366 -0.9297 -2.2368
 1049TIP3    H224707   3.643   0.925   0.369  1.8908 -2.2966  1.5426
 1050TIP3   OH224708   5.942   6.342   2.849  0.3831  0.2399  0.2402
 1050TIP3    H124709   5.983   6.284   2.913 -0.6404 -2.5217 -1.4046
 1050TIP3    H224710   5.860   6.370   2.891  0.8053  0.3418  1.0052
 1051TIP3   OH224711   5.885   6.330   7.423  0.7898  0.1636 -0.4314
 1051TIP3    H124712   5.881   6.365   7.512  0.3620  0.8838 -0.7262
 1051TIP3    H224713   5.978   6.338   7.399  0.9145 -0.0722 -0.0382
 1052TIP3   OH224714   4.393   0.027   1.801  0.4729 -0.1124 -0.3834
 1052TIP3    H124715   4.457  -0.019   1.855 -1.2516  0.1953  2.0907
 1052TIP3    H224716   4.368   0.104   1.852 -1.6724 -0.0995 -1.3150
 1053TIP3   OH224717   1.805   3.242   7.557  0.0946  0.0184 -0.7875
 1053TIP3    H124718   1.830   3.326   7.519  1.6479  0.9182  1.9328
 1053TIP3    H224719   1.768   3.265   7.643 -1.0698 -1.9931 -0.6938
 1054TIP3   OH224720   1.864   1.763   1.614 -0.3701  0.4046  0.0952
 1054TIP3    H124721   1.770   1.756   1.598 -0.7687  2.6031  1.0509
 1054TIP3    H224722   1.882   1.702   1.686 -0.8314 -0.8043 -0.7937
 1055TIP3   OH224723   2.289   2.238   2.323  0.2527  0.0005 -0.2078
 1055TIP3    H124724   2.384   2.237   2.337  0.2563  1.3006 -0.0097
 1055TIP3    H224725   2.262   2.147   2.336  1.5736 -0.5431 -1.0426
 1056TIP3   OH224726   5.694   6.464   2.929  0.0089  0.5082 -0.1965
 1056TIP3    H124727   5.690   6.557   2.950 -2.3007  0.1269  1.4499
 1056TIP3    H224728   5.641   6.455   2.850  0.4025  0.5847 -0.4758
 1057TIP3   OH224729   2.183   1.875   1.712  0.3760 -0.0892 -0.5997
 1057TIP3    H124730   2.166   1.837   1.626  0.7704  0.8629 -1.1096
 1057TIP3    H224731   2.097   1.880   1.754  0.2912 -1.3758 -0.5716
 1058TIP3   OH224732   0.017   4.847   8.352 -0.1218 -0.4511  0.0219
 1058TIP3    H124733   0.078   4.774   8.364  0.6259  0.2600  0.6214
 1058TIP3    H224734   0.053   4.897   8.279 -0.3255 -0.3643 -0.0212
 1059TIP3   OH224735   3.744   3.152   1.819  0.3412 -0.5620 -0.4652
 1059TIP3    H124736   3.803   3.105   1.761  0.7496 -0.7310  0.0761
 1059TIP3    H224737   3.801   3.206   1.873 -0.1773  1.4957 -1.8658
 1060TIP3   OH224738   4.703   1.434   8.545 -0.3809 -0.0701 -0.0513
 1060TIP3    H124739   4.748   1.495   8.604 -0.5408 -0.7320  0.7624
 1060TIP3    H224740   4.654   1.376   8.603  1.1754 -2.1233 -0.7136
 1061TIP3   OH224741   1.200   6.680   0.080 -0.4459 -0.1035  0.0591
 1061TIP3    H124742   1.211   6.773   0.061 -0.2592 -0.1737 -0.1813
 1061TIP3    H224743   1.106   6.668   0.089 -0.4290  0.2429  0.7782
 1062TIP3   OH224744   3.558   3.157   7.491 -0.5247 -0.0219  0.0080
 1062TIP3    H124745   3.586   3.145   7.401  0.7509  1.6652  0.1178
 1062TIP3    H224746   3.463   3.155   7.487 -0.4887 -2.1490 -0.9961
 1063TIP3   OH224747   3.836   2.979   1.614 -0.2532 -0.1790  0.1439
 1063TIP3    H124748   3.923   2.980   1.575 -0.9431  1.0027 -1.4700
 1063TIP3    H224749   3.807   2.888   1.604  0.3112 -0.3042 -0.4424
 1064TIP3   OH224750   3.581   2.787   0.430  0.1539  0.3765 -0.6452
 1064TIP3    H124751   3.625   2.778   0.345  1.3722 -1.6172  0.1036
 1064TIP3    H224752   3.488   2.795   0.408  0.2312 -1.7845 -2.1997
 1065TIP3   OH224753   1.506   4.839   8.401  0.1388 -0.1959  0.3983
 1065TIP3    H124754   1.466   4.758   8.370  0.0890 -0.0365  0.0291
 1065TIP3    H224755   1.447   4.870   8.469 -1.2465  0.8334 -1.1731
 1066TIP3   OH224756   4.140   4.129   1.997 -0.1951 -0.1107 -0.1388
 1066TIP3    H124757   4.106   4.040   2.006  1.4005 -0.8730 -1.2255
 1066TIP3    H224758   4.084   4.181   2.054 -1.2638 -1.7745  0.4229
 1067TIP3   OH224759   5.843   2.822   1.770  0.1240  0.0983 -0.1152
 1067TIP3    H124760   5.811   2.910   1.792 -0.8609 -0.3509  0.2561
 1067TIP3    H224761   5.921   2.839   1.716 -0.5266  1.2057 -0.7581
 1068TIP3   OH224762   2.537   3.300   8.164  0.3521  0.0498 -0.2794
 1068TIP3    H124763   2.541   3.231   8.097  1.2716 -0.1643 -0.0086
 1068TIP3    H224764   2.575   3.260   8.242 -1.5110  0.0002  0.6561
 1069TIP3   OH224765   6.269   0.783   2.172 -0.1294 -0.0007 -0.3062
 1069TIP3    H124766   6.229   0.702   2.206 -0.8151  0.7771  0.7971
 1069TIP3    H224767   6.195   0.842   2.159  0.2527  0.1570 -2.0420
 1070TIP3   OH224768   5.621   1.265   8.540  0.2002 -0.4568 -0.3811
 1070TIP3    H124769   5.651   1.312   8.618 -2.2891 -0.2110  0.5178
 1070TIP3    H224770   5.688   1.284   8.474  0.4740  2.5298  0.5826
 1071TIP3   OH224771   6.799   4.019   1.806 -0.3302  0.2735  0.6910
 1071TIP3    H124772   6.724   4.011   1.747 -0.2507  0.3142  0.5829
 1071TIP3    H224773   6.848   4.094   1.772 -0.2444  0.2499  0.7641
 1072TIP3   OH224774   1.709   0.971   8.088 -0.3511  0.0645 -0.1552
 1072TIP3    H124775   1.725   1.031   8.016  0.4517  0.8174  0.6332
 1072TIP3    H224776   1.791   0.924   8.100 -0.4940 -0.0970  0.2221
 1073TIP3   OH224777   2.866   2.702   1.701 -0.1465  0.2041  0.3248
 1073TIP3    H124778   2.936   2.765   1.718  2.0941 -2.1124  0.3045
 1073TIP3    H224779   2.856   2.704   1.605  1.2516 -0.7088  0.1197
 1074TIP3   OH224780   4.573   0.467   0.098  0.2027  0.8584 -0.1392
 1074TIP3    H124781   4.591   0.389   0.150 -1.3686 -0.7698 -1.9118
 1074TIP3    H224782   4.490   0.500   0.132  1.3876  2.4958  1.3470
 1075TIP3   OH224783   2.307   3.947   7.871  0.3813  0.4568 -0.1033
 1075TIP3    H124784   2.219   3.983   7.860 -1.7085 -3.5075  1.3151
 1075TIP3    H224785   2.328   3.963   7.964 -0.5400 -1.5936  0.5231
 1076TIP3   OH224786   1.095   3.044   1.726  0.3963  0.2431  0.4824
 1076TIP3    H124787   1.146   3.032   1.646 -1.4930 -1.5090 -0.5545
 1076TIP3    H224788   1.047   3.126   1.710  0.5202  0.2483  0.1103
 1077TIP3   OH224789   2.303   2.017   1.153  0.2538 -0.2481  0.3559
 1077TIP3    H124790   2.354   1.940   1.127  0.1671  0.1928 -1.1829
 1077TIP3    H224791   2.212   1.990   1.142  0.2162 -0.0934  0.2863
 1078TIP3   OH224792   3.133   3.596   8.145 -0.2430  0.1557  0.6860
 1078TIP3    H124793   3.205   3.659   8.140 -0.0188 -0.0727  0.9980
 1078TIP3    H224794   3.127   3.560   8.056  0.5819 -0.4227  0.8482
 1079TIP3   OH224795   4.379   5.490   1.944  0.3670  0.3255  0.8089
 1079TIP3    H124796   4.463   5.530   1.968  1.1159 -0.6176 -0.1620
 1079TIP3    H224797   4.314   5.539   1.995  1.3001  2.3241  0.1822
 1080TIP3   OH224798   0.629   0.138   1.386 -0.4047 -0.1757  0.1870
 1080TIP3    H124799   0.684   0.107   1.457 -0.3280  2.0109  1.1755
 1080TIP3    H224800   0.686   0.198   1.337 -0.4969 -1.5158 -1.6933
 1081TIP3   OH224801   5.312   4.283   0.814  0.2974 -0.2402  0.0155
 1081TIP3    H124802   5.390   4.233   0.788  0.0800 -0.3938 -0.3471
 1081TIP3    H224803   5.346   4.353   0.869  0.7170 -0.1788 -0.3199
 1082TIP3   OH224804   5.999   6.644   0.230  0.1171  0.4462  0.2790
 1082TIP3    H124805   5.977   6.565   0.181 -0.1302 -0.3176  1.5683
 1082TIP3    H224806   6.060   6.614   0.298 -0.1248  1.3304  0.9057
 1083TIP3   OH224807   1.659   3.890   1.156 -0.2229 -0.6916 -0.2917
 1083TIP3    H124808   1.737   3.834   1.162 -0.5414 -1.2324 -1.0423
 1083TIP3    H224809   1.675   3.959   1.220  0.3651 -1.4145  0.3709
 1084TIP3   OH224810   0.791   3.978   7.932 -0.0668  0.5369 -0.1460
 1084TIP3    H124811   0.710   3.987   7.884 -0.4251  1.8864  0.6403
 1084TIP3    H224812   0.855   4.028   7.881  0.0876  0.1143 -0.3681
 1085TIP3   OH224813   3.213   1.990   8.047 -0.0998  0.3923 -0.2865
 1085TIP3    H124814   3.300   1.952   8.033 -0.0268  0.6957 -0.6569
 1085TIP3    H224815   3.187   2.024   7.962 -0.2625  0.9749 -0.0102
 1086TIP3   OH224816   1.600   2.731   0.915  0.0240 -0.0792 -0.0156
 1086TIP3    H124817   1.630   2.802   0.859 -2.5667  1.0175 -0.1334
 1086TIP3    H224818   1.610   2.765   1.004  1.1912 -0.6249  0.0917
 1087TIP3   OH224819   3.724   3.221   0.426  0.4593  0.1633  0.1230
 1087TIP3    H124820   3.739   3.147   0.485 -1.4160 -1.0667 -0.8353
 1087TIP3    H224821   3.757   3.191   0.342 -0.2149  0.4326 -0.2471
 1088TIP3   OH224822   4.074   6.238   8.546 -0.1719  1.0541 -0.0696
 1088TIP3    H124823   3.979   6.252   8.547 -0.9141 -2.8581 -0.3471
 1088TIP3    H224824   4.104   6.271   8.631 -1.7657  2.1901  0.1074
 1089TIP3   OH224825   6.242   0.536   7.140 -0.1219 -0.3015 -0.1515
 1089TIP3    H124826   6.216   0.470   7.076  1.6423 -2.1580  0.9584
 1089TIP3    H224827   6.269   0.487   7.217  2.1943  1.6173  0.3872
 1090TIP3   OH224828   0.671   0.836   7.973 -0.6203 -0.6397 -0.3350
 1090TIP3    H124829   0.705   0.850   7.885 -0.7771 -2.2601 -0.6828
 1090TIP3    H224830   0.710   0.753   8.001 -2.3854 -1.3454  0.1732
 1091TIP3   OH224831   3.591   0.253   1.603 -0.8860  0.1690  0.0549
 1091TIP3    H124832   3.568   0.225   1.514  3.2843  0.4592 -1.3398
 1091TIP3    H224833   3.585   0.173   1.655  3.4737 -1.9802 -2.2257
 1092TIP3   OH224834   0.015   3.903   7.713 -0.2038  0.1942 -0.0767
 1092TIP3    H124835   0.010   3.808   7.713  2.5233 -0.0214 -0.3192
 1092TIP3    H224836  -0.047   3.930   7.645  0.4047 -1.5369 -1.3891
 1093TIP3   OH224837   1.490   4.546   0.799 -0.0747 -0.2104  0.3968
 1093TIP3    H124838   1.564   4.506   0.844 -1.0203 -1.7346  0.6534
 1093TIP3    H224839   1.510   4.536   0.706  1.4447  2.1285  0.3821
 1094TIP3   OH224840   1.415   3.298   2.043 -0.4631 -0.1178  0.1150
 1094TIP3    H124841   1.449   3.287   1.955 -0.5808  0.7699 -0.0421
 1094TIP3    H224842   1.344   3.233   2.049 -0.1087 -0.5462 -0.2489
 1095TIP3   OH224843   6.386   6.366   7.236  0.4063 -0.4108 -0.2091
 1095TIP3    H124844   6.407   6.280   7.273  0.6940  0.2453  1.2188
 1095TIP3    H224845   6.471   6.409   7.226  0.1024  0.8936  2.1552
 1096TIP3   OH224846   3.080   3.433   6.954 -0.1227 -0.3861  1.3182
 1096TIP3    H124847   3.171   3.410   6.934 -0.5076 -0.7141 -0.1522
 1096TIP3    H224848   3.086   3.521   6.991  0.8155 -0.5238  1.5289
 1097TIP3   OH224849   2.048   0.274   7.507  0.2343 -0.1236  0.1939
 1097TIP3    H124850   1.958   0.242   7.503  1.2387 -3.0925 -0.6554
 1097TIP3    H224851   2.042   0.351   7.564 -2.5736 -1.1322  1.4798
 1098TIP3   OH224852   2.306   4.897   8.157 -0.1931 -0.0462 -0.0856
 1098TIP3    H124853   2.297   4.804   8.136  3.0549 -0.1655 -1.4814
 1098TIP3    H224854   2.381   4.901   8.216 -0.9780  1.6433  0.8777
 1099TIP3   OH224855   5.979   2.118   7.317  0.1823 -0.2278 -0.4180
 1099TIP3    H124856   5.898   2.107   7.367  0.7569 -0.5198  0.4618
 1099TIP3    H224857   5.953   2.169   7.240 -0.4750  1.3295  0.7976
 1100TIP3   OH224858   5.055   0.024   8.135 -0.1918 -0.2490  0.3755
 1100TIP3    H124859   5.130  -0.033   8.116  0.1431 -0.6700  2.6924
 1100TIP3    H224860   4.979  -0.032   8.120  0.1340 -2.5681  5.4345
 1101TIP3   OH224861   5.337   0.030   2.876 -0.9559 -0.0903 -0.0153
 1101TIP3    H124862   5.385   0.088   2.817  0.9391 -2.6456 -1.1813
 1101TIP3    H224863   5.278  -0.020   2.819  0.8965 -2.5953  0.0575
 1102TIP3   OH224864   5.858   0.748   2.079  0.0284 -0.1352  0.4402
 1102TIP3    H124865   5.877   0.712   1.993  0.8069  1.9668 -0.3406
 1102TIP3    H224866   5.894   0.684   2.141  2.8134  0.0267 -0.8853
 1103TIP3   OH224867   4.432   0.994   7.410  0.5569  0.3473 -0.5551
 1103TIP3    H124868   4.511   0.941   7.423  0.8500  0.8232 -0.3612
 1103TIP3    H224869   4.393   0.960   7.330  1.2394  0.4453 -0.9409
 1104TIP3   OH224870   5.501   0.214   2.720  0.0676  0.2354  0.1972
 1104TIP3    H124871   5.501   0.261   2.636  0.6763  1.3925  0.8101
 1104TIP3    H224872   5.587   0.171   2.723 -0.9359 -2.0253 -0.9020
 1105TIP3   OH224873   3.233   2.212   7.371  0.3294  0.1516  0.2298
 1105TIP3    H124874   3.328   2.207   7.372  0.2568 -2.1176  1.1162
 1105TIP3    H224875   3.209   2.203   7.278  0.9493 -2.3989  0.2301
 1106TIP3   OH224876   0.265   5.235   2.278 -0.2599  0.0361  0.0307
 1106TIP3    H124877   0.273   5.139   2.281  1.3956  0.1542  0.4620
 1106TIP3    H224878   0.307   5.264   2.359  0.1033  1.1712 -0.5552
 1107TIP3   OH224879   1.831   3.931   2.225 -0.1234  0.2246  0.2612
 1107TIP3    H124880   1.803   3.886   2.305  1.6491 -1.1121  0.2036
 1107TIP3    H224881   1.831   4.024   2.249 -1.5161  0.0129  1.1775
 1108TIP3   OH224882   3.367   0.767   0.614  0.6187 -0.3827 -0.3011
 1108TIP3    H124883   3.342   0.685   0.658  0.5455 -0.2539 -0.1024
 1108TIP3    H224884   3.443   0.798   0.663 -0.3275  0.5099  0.6417
 1109TIP3   OH224885   1.996   3.937   0.664 -0.9532 -0.4946  0.9954
 1109TIP3    H124886   1.928   3.970   0.722 -2.0133 -1.4806  0.3577
 1109TIP3    H224887   1.959   3.944   0.576 -0.0695 -0.6756  0.5952
 1110TIP3   OH224888   6.432   0.389   1.715  0.3494  0.1629 -1.0267
 1110TIP3    H124889   6.447   0.458   1.779  0.1653 -0.4810 -0.2568
 1110TIP3    H224890   6.374   0.327   1.761 -0.6661  0.2137 -2.2002
 1111TIP3   OH224891   2.914   0.352   8.514  0.2718  0.0840 -0.4301
 1111TIP3    H124892   2.835   0.398   8.545 -0.3223 -0.6535 -0.8164
 1111TIP3    H224893   2.881   0.287   8.452  1.1160 -0.7299 -0.0480
 1112TIP3   OH224894   4.153   6.402   7.913 -0.0891 -0.4622 -0.2489
 1112TIP3    H124895   4.114   6.324   7.953 -0.2317  0.5403  1.6838
 1112TIP3    H224896   4.247   6.384   7.912  0.1560  0.2109  2.4296
 1113TIP3   OH224897   6.382   1.624   0.892 -0.0202  0.3876 -0.0132
 1113TIP3    H124898   6.431   1.550   0.929  0.2606  1.0675  1.0032
 1113TIP3    H224899   6.448   1.691   0.875 -0.3718  0.6709 -0.2857
 1114TIP3   OH224900   4.218   2.145   2.658  0.3101  0.3973 -0.4393
 1114TIP3    H124901   4.182   2.174   2.742  1.5587  0.5837  0.0403
 1114TIP3    H224902   4.242   2.053   2.672  0.6296  0.4616 -0.5554
 1115TIP3   OH224903   0.401   0.552   0.662 -0.3719  0.3778  0.3236
 1115TIP3    H124904   0.331   0.538   0.727  0.3968 -1.6058  0.7735
 1115TIP3    H224905   0.360   0.609   0.596 -2.2041 -0.1817  0.9019
 1116TIP3   OH224906   6.766   0.041   7.820  0.1204  0.2932  0.4503
 1116TIP3    H124907   6.744   0.034   7.727 -0.4423 -1.9094  0.6927
 1116TIP3    H224908   6.837   0.105   7.824  0.3597  0.1891 -1.5122
 1117TIP3   OH224909   1.239   5.411   0.302  0.1463 -0.9257 -0.0695
 1117TIP3    H124910   1.278   5.364   0.228  0.5807  0.0918 -0.5170
 1117TIP3    H224911   1.313   5.453   0.346 -0.3325  0.4470 -0.5034
 1118TIP3   OH224912   3.028   1.323   2.014  0.0197 -0.2261  0.4339
 1118TIP3    H124913   2.935   1.312   2.033  0.4588 -1.4573  2.0910
 1118TIP3    H224914   3.031   1.356   1.925 -1.9141 -2.8878 -0.7279
 1119TIP3   OH224915   1.831   3.075   6.990  0.1670 -0.0831 -0.7523
 1119TIP3    H124916   1.797   2.986   6.984  0.2614 -0.0560 -1.8083
 1119TIP3    H224917   1.802   3.118   6.909 -0.3910  1.0288  0.0087
 1120TIP3   OH224918   4.963   4.240   8.586  0.0515 -0.0815  0.2294
 1120TIP3    H124919   5.039   4.206   8.537  0.4723  1.6372 -0.3753
 1120TIP3    H224920   4.940   4.169   8.646  0.7693 -1.4858 -1.0790
 1121TIP3   OH224921   3.540   3.619   0.168 -0.8873  0.2626  0.4644
 1121TIP3    H124922   3.553   3.669   0.248 -1.6429  1.1699  0.0289
 1121TIP3    H224923   3.524   3.529   0.199 -2.2888  0.8020  1.4054
 1122TIP3   OH224924   1.310   5.091   7.291 -0.3564  0.1444 -0.8316
 1122TIP3    H124925   1.341   5.010   7.330  0.5119  0.4958 -0.7863
 1122TIP3    H224926   1.246   5.063   7.225  2.1658 -0.8111 -3.0132
 1123TIP3   OH224927   2.796   0.993   2.272  0.0211  0.0442 -0.3371
 1123TIP3    H124928   2.707   1.026   2.281 -0.8836 -2.5256  1.0674
 1123TIP3    H224929   2.840   1.021   2.352  1.2217  3.0256 -1.8670
 1124TIP3   OH224930   0.883   6.011   8.291  0.2722  0.6470 -0.5603
 1124TIP3    H124931   0.948   5.981   8.354 -1.2333 -0.9894  0.2944
 1124TIP3    H224932   0.838   5.931   8.263 -3.2717  1.8760  1.0432
 1125TIP3   OH224933   5.569   1.733   7.924  0.0090  0.4223 -0.1829
 1125TIP3    H124934   5.550   1.682   8.003 -0.1134 -0.0323 -0.4951
 1125TIP3    H224935   5.484   1.740   7.880  0.6727 -2.9658 -2.3847
 1126TIP3   OH224936   3.825   3.275   8.676  0.1965 -0.3533 -0.0828
 1126TIP3    H124937   3.862   3.228   8.601  1.6968  0.0533  0.3827
 1126TIP3    H224938   3.789   3.355   8.638 -1.3031 -1.2653 -0.7009
 1127TIP3   OH224939   5.610   4.089   7.811  0.2468  0.1268 -0.1657
 1127TIP3    H124940   5.668   4.156   7.776  1.1929 -0.6777 -0.2069
 1127TIP3    H224941   5.646   4.007   7.777 -0.3248 -0.4710  0.6290
 1128TIP3   OH224942   4.168   4.849   7.890  0.2163 -0.0742 -0.1815
 1128TIP3    H124943   4.171   4.938   7.855  2.6389  0.9375  2.2754
 1128TIP3    H224944   4.096   4.850   7.953 -0.0290  0.0218 -0.4632
 1129TIP3   OH224945   5.714   0.661   7.503  0.5943 -0.3489  0.0524
 1129TIP3    H124946   5.771   0.589   7.476 -0.0907 -0.8179 -0.1564
 1129TIP3    H224947   5.635   0.650   7.450  1.1765  1.6425 -1.3745
 1130TIP3   OH224948   2.857   1.089   2.514 -0.7086 -0.6678  0.2057
 1130TIP3    H124949   2.856   1.176   2.554 -2.2672  0.6076 -2.3414
 1130TIP3    H224950   2.804   1.035   2.573  1.2197 -0.2800  2.4317
 1131TIP3   OH224951   6.147   5.673   8.587 -0.0768  0.2295 -0.3676
 1131TIP3    H124952   6.141   5.708   8.498  1.8531 -1.1241 -1.1338
 1131TIP3    H224953   6.183   5.585   8.575  0.5021  0.1093  1.7774
 1132TIP3   OH224954   4.246   4.651   8.484  0.1603 -0.4077  0.0283
 1132TIP3    H124955   4.304   4.575   8.478  1.4849  0.6749 -1.9592
 1132TIP3    H224956   4.300   4.720   8.523 -0.7541 -0.1925  0.9784
 1133TIP3   OH224957   1.689   4.535   1.127 -0.0656 -0.4397  0.3459
 1133TIP3    H124958   1.783   4.551   1.138  0.1125 -1.5710  0.6366
 1133TIP3    H224959   1.651   4.622   1.115  0.9116  0.1055  1.0456
 1134TIP3   OH224960   3.117   5.110   0.614 -0.2773  0.2473  0.5406
 1134TIP3    H124961   3.204   5.114   0.573 -0.5774 -0.9179 -0.2479
 1134TIP3    H224962   3.114   5.024   0.655 -1.7726 -0.5669 -1.1282
 1135TIP3   OH224963   4.126   1.346   0.729 -0.7221  0.2863  0.1863
 1135TIP3    H124964   4.087   1.307   0.808 -0.1792  1.2291  0.9430
 1135TIP3    H224965   4.160   1.272   0.680 -2.2498 -0.4436  0.1776
 1136TIP3   OH224966   5.759   3.712   8.547  0.6299  0.4310 -0.5450
 1136TIP3    H124967   5.823   3.655   8.506  0.7429 -1.7331  2.3089
 1136TIP3    H224968   5.803   3.797   8.553  2.2615 -0.3523 -0.9200
 1137TIP3   OH224969   2.120   0.571   7.615 -0.0771 -0.1078 -0.6127
 1137TIP3    H124970   2.203   0.583   7.662 -0.1875  0.8926 -0.6395
 1137TIP3    H224971   2.130   0.624   7.536 -1.6135  2.0906  0.5327
 1138TIP3   OH224972   0.546   4.667   1.229 -0.5782 -0.2040  0.2266
 1138TIP3    H124973   0.600   4.715   1.166 -1.3547 -0.5141 -0.7038
 1138TIP3    H224974   0.456   4.696   1.209 -0.8983 -0.8504  0.7186
 1139TIP3   OH224975   1.688   1.881   0.520  0.5764  0.6123 -0.3864
 1139TIP3    H124976   1.687   1.892   0.615 -0.1761 -1.4587 -0.0848
 1139TIP3    H224977   1.741   1.953   0.487  1.3747  1.0225  1.6605
 1140TIP3   OH224978   2.909   6.030   7.116  0.2548  0.0701 -0.0938
 1140TIP3    H124979   2.955   6.034   7.200 -0.1729 -1.5611  0.2476
 1140TIP3    H224980   2.912   5.938   7.091 -1.3351  0.2062 -0.9008
 1141TIP3   OH224981   2.792   4.609   8.504  0.4399 -0.0198  0.0939
 1141TIP3    H124982   2.750   4.531   8.541  0.0692 -0.2443 -0.7892
 1141TIP3    H224983   2.876   4.614   8.549 -0.5936  0.5842  2.0820
 1142TIP3   OH224984   6.018   2.391   1.954  0.1363  0.0322 -0.5623
 1142TIP3    H124985   5.933   2.430   1.974  0.7429  0.5591  1.1648
 1142TIP3    H224986   6.047   2.353   2.037  2.0523  0.8175 -0.8126
 1143TIP3   OH224987   5.001   0.678   0.824  0.3514  0.0438  0.2498
 1143TIP3    H124988   4.911   0.650   0.835  0.8468 -1.1886  1.4365
 1143TIP3    H224989   5.034   0.692   0.913  1.0413  1.5110 -0.1934
 1144TIP3   OH224990   4.790   6.632   1.312  0.0597  0.1376  0.2157
 1144TIP3    H124991   4.845   6.559   1.286 -1.6260 -1.7290  1.5808
 1144TIP3    H224992   4.705   6.592   1.331 -1.0248  2.5166  0.6863
 1145TIP3   OH224993   2.579   6.583   0.907 -0.0733 -0.1398  0.4358
 1145TIP3    H124994   2.587   6.537   0.990  0.8607  0.2064  0.5510
 1145TIP3    H224995   2.613   6.521   0.842 -2.6764 -1.2283 -0.0236
 1146TIP3   OH224996   1.843   3.164   0.326  0.2202  0.4571  0.7040
 1146TIP3    H124997   1.759   3.198   0.297  1.7943  2.0018 -2.7350
 1146TIP3    H224998   1.827   3.073   0.347 -2.2772  0.6733 -0.0089
 1147TIP3   OH224999   1.218   6.235   7.584  0.0318  0.4495  0.2127
 1147TIP3    H125000   1.234   6.298   7.655 -1.0977  1.2007 -0.1652
 1147TIP3    H225001   1.239   6.284   7.504 -2.0894  0.8348 -0.1737
 1148TIP3   OH225002   0.467   0.604   2.769 -0.1145  0.4320 -0.2059
 1148TIP3    H125003   0.514   0.553   2.703 -0.0696  0.7298 -0.4040
 1148TIP3    H225004   0.391   0.639   2.722  0.2441  1.1464 -0.2556
 1149TIP3   OH225005   6.491   1.362   0.709 -0.1206 -0.1847 -0.5371
 1149TIP3    H125006   6.442   1.285   0.681  0.6118  0.2426 -3.2134
 1149TIP3    H225007   6.519   1.404   0.628  1.1417  1.8634  0.8677
 1150TIP3   OH225008   0.541   3.502   0.835  0.0018  0.0919 -0.7717
 1150TIP3    H125009   0.535   3.489   0.740 -0.6913  1.1880 -0.9086
 1150TIP3    H225010   0.548   3.414   0.871  0.0573 -0.3590 -1.8303
 1151TIP3   OH225011   6.603   1.883   1.918  0.1959 -0.1359 -0.2067
 1151TIP3    H125012   6.669   1.910   1.982  0.8382 -1.2522 -0.3686
 1151TIP3    H225013   6.654   1.850   1.843 -0.5487  0.2332 -0.8920
 1152TIP3   OH225014   4.989   6.642   1.081 -0.2590  0.5500  0.1599
 1152TIP3    H125015   5.052   6.658   1.011  0.1277  2.9075  0.9528
 1152TIP3    H225016   4.968   6.549   1.074  1.7728  0.1391 -1.3885
 1153TIP3   OH225017   0.303   3.579   8.058  0.2682 -0.3694  0.4747
 1153TIP3    H125018   0.229   3.584   7.997  1.4594  0.7576 -0.9540
 1153TIP3    H225019   0.266   3.540   8.137 -1.5247 -1.1524 -0.6779
 1154TIP3   OH225020   2.586   1.368   0.022 -0.3126  0.3046  0.4379
 1154TIP3    H125021   2.634   1.380   0.104  0.2562  0.1568  0.1320
 1154TIP3    H225022   2.536   1.288   0.034  2.2714 -1.5852 -0.5048
 1155TIP3   OH225023   4.571   2.655   0.039 -0.0129  0.4324 -0.1607
 1155TIP3    H125024   4.593   2.589  -0.027 -0.8731  0.4740 -0.4955
 1155TIP3    H225025   4.642   2.719   0.033 -0.6901  1.0769 -1.9138
 1156TIP3   OH225026   3.862   5.734   7.513 -0.1962  0.0712 -0.6258
 1156TIP3    H125027   3.900   5.656   7.553 -1.4141  0.0690  0.5954
 1156TIP3    H225028   3.937   5.788   7.489  0.6029  0.1355  1.8263
 1157TIP3   OH225029   3.309   1.485   1.888 -0.2308  0.5124  0.7216
 1157TIP3    H125030   3.391   1.534   1.892 -0.2480  0.4471  2.1023
 1157TIP3    H225031   3.298   1.447   1.975 -0.8463 -0.9408  0.0542
 1158TIP3   OH225032   4.025   4.043   8.095  0.4432  0.0108  0.1583
 1158TIP3    H125033   3.930   4.051   8.090  0.4427  0.4329  0.7672
 1158TIP3    H225034   4.039   3.968   8.153  0.4773  0.5862  0.9100
 1159TIP3   OH225035   0.438   3.974   8.653  0.0647 -0.1269  0.3187
 1159TIP3    H125036   0.525   4.007   8.677  0.6477 -2.6682  2.2442
 1159TIP3    H225037   0.403   3.939   8.735 -2.9491  1.0466 -0.3611
 1160TIP3   OH225038   4.049   2.239   6.979  0.3614 -0.0738 -0.1055
 1160TIP3    H125039   4.137   2.263   6.950  0.4872 -0.3249  0.0641
 1160TIP3    H225040   3.993   2.310   6.948  0.8973  1.0949  1.4751
 1161TIP3   OH225041   4.503   0.759   0.345 -0.2047  0.0574  0.0652
 1161TIP3    H125042   4.569   0.755   0.275 -0.2137  0.2402  0.0460
 1161TIP3    H225043   4.542   0.712   0.418 -0.2043 -0.1590 -0.0708
 1162TIP3   OH225044   6.451   5.817   8.013  0.2466  0.7026  0.5231
 1162TIP3    H125045   6.532   5.862   7.988  0.2794  0.5610  0.3753
 1162TIP3    H225046   6.467   5.725   7.991 -0.4654  0.8789 -0.7967
 1163TIP3   OH225047   3.448   4.955   0.431 -0.4497  0.2703  0.5883
 1163TIP3    H125048   3.374   4.930   0.486 -0.3687  1.6764  1.3767
 1163TIP3    H225049   3.518   4.976   0.493  0.4250 -0.4334 -0.1305
 1164TIP3   OH225050   0.983   5.060   2.354  0.0717  0.9075  0.3245
 1164TIP3    H125051   1.042   4.987   2.371 -0.8603  0.1026  0.1854
 1164TIP3    H225052   0.964   5.097   2.440 -1.6049 -0.7589  0.7427
 1165TIP3   OH225053   4.256   0.112   1.581 -0.8283  0.0215  0.3671
 1165TIP3    H125054   4.313   0.064   1.642  0.3931 -0.3419 -0.9922
 1165TIP3    H225055   4.193   0.047   1.551 -0.4939 -0.1948  0.1246
 1166TIP3   OH225056   1.972   5.519   8.018 -0.5927  0.4540 -0.2284
 1166TIP3    H125057   1.909   5.576   7.973  0.2162  0.7067 -1.0716
 1166TIP3    H225058   2.000   5.457   7.951  0.7038  0.8868 -0.1005
 1167TIP3   OH225059   1.237   5.427   2.014 -0.6264 -0.0630 -0.2011
 1167TIP3    H125060   1.307   5.363   2.030  0.5050  0.5472 -2.2254
 1167TIP3    H225061   1.164   5.375   1.981 -0.5370 -0.5545  0.3711
 1168TIP3   OH225062   3.605   2.908   8.293 -0.1743  0.1944  0.2270
 1168TIP3    H125063   3.516   2.940   8.279 -0.2334  0.5046  1.2480
 1168TIP3    H225064   3.644   2.907   8.206 -0.1922  2.9813  0.0926
 1169TIP3   OH225065   4.439   6.399   7.865 -0.2124 -0.0926  0.3706
 1169TIP3    H125066   4.490   6.477   7.887  0.8236 -0.6433  0.0028
 1169TIP3    H225067   4.504   6.337   7.831 -1.0158 -1.1160  0.6536
 1170TIP3   OH225068   3.632   5.446   1.061 -0.3084 -0.4447  0.0743
 1170TIP3    H125069   3.574   5.405   0.996 -0.1654 -2.7220  1.2840
 1170TIP3    H225070   3.719   5.442   1.021 -0.4359 -0.4692 -0.2029
 1171TIP3   OH225071   0.525   3.239   2.623 -0.1562  0.4838  0.0635
 1171TIP3    H125072   0.614   3.271   2.637  0.3127 -0.7554  0.0251
 1171TIP3    H225073   0.512   3.174   2.692 -1.1383  0.8479  0.2358
 1172TIP3   OH225074   4.271   3.001   0.329 -0.9438 -0.3304 -0.0673
 1172TIP3    H125075   4.271   2.937   0.400 -0.4863 -2.3612 -1.7948
 1172TIP3    H225076   4.333   3.068   0.357 -2.9982  0.5966  2.7511
 1173TIP3   OH225077   2.535   6.189   7.094 -0.0173  0.0532  0.1581
 1173TIP3    H125078   2.572   6.270   7.128 -0.0067 -0.2476  0.8836
 1173TIP3    H225079   2.440   6.201   7.101 -0.0138 -0.0564  0.4277
 1174TIP3   OH225080   2.502   6.283   1.718 -0.0300 -0.0130 -0.0765
 1174TIP3    H125081   2.592   6.252   1.703  0.4346  1.3690 -0.3015
 1174TIP3    H225082   2.502   6.311   1.810 -1.1158 -2.7156  0.8733
 1175TIP3   OH225083   5.214   6.423   8.711 -0.0770 -0.1471  0.1929
 1175TIP3    H125084   5.257   6.378   8.639 -0.3704  0.4974 -0.4047
 1175TIP3    H225085   5.244   6.378   8.790 -0.4894 -1.4696 -0.3873
 1176TIP3   OH225086   5.234   1.845   0.708  0.1056 -0.0225  0.2733
 1176TIP3    H125087   5.184   1.926   0.721  0.9599  0.4631  0.5827
 1176TIP3    H225088   5.296   1.865   0.638 -0.2526 -0.6881 -0.2483
 1177TIP3   OH225089   6.177   0.638   7.600  0.1721  0.1414  0.3527
 1177TIP3    H125090   6.160   0.605   7.688 -1.5146  1.9842  0.7805
 1177TIP3    H225091   6.271   0.622   7.586  0.0648 -1.9812  1.6595
 1178TIP3   OH225092   5.214   5.815   1.677 -0.3318  0.7288  0.1039
 1178TIP3    H125093   5.204   5.853   1.590 -1.2076  2.1120  0.7758
 1178TIP3    H225094   5.138   5.846   1.726  0.2657  0.1790  1.4376
 1179TIP3   OH225095   5.674   2.966   0.687 -0.2413 -0.3308  0.0711
 1179TIP3    H125096   5.685   3.059   0.668 -0.1944 -0.1447  0.9364
 1179TIP3    H225097   5.581   2.956   0.707 -0.1039 -0.3068  0.7533
 1180TIP3   OH225098   5.146   5.674   0.771  0.4265  0.1639 -0.9342
 1180TIP3    H125099   5.134   5.766   0.795  0.3681 -0.3378  1.1525
 1180TIP3    H225100   5.126   5.671   0.677 -1.1498  1.9937 -0.7158
 1181TIP3   OH225101   5.145   0.982   0.233 -0.8218  0.1426  0.1146
 1181TIP3    H125102   5.114   1.043   0.165 -0.3880  0.7449  0.4490
 1181TIP3    H225103   5.200   0.920   0.186 -1.9276 -0.5057 -0.3714
 1182TIP3   OH225104   2.703   4.714   0.587 -0.3731 -0.0802 -0.5599
 1182TIP3    H125105   2.614   4.735   0.557  0.2773  0.7103 -2.0881
 1182TIP3    H225106   2.693   4.638   0.643 -1.7508 -1.6591 -2.7796
 1183TIP3   OH225107   3.457   3.602   8.518  0.4063 -0.0172  0.3409
 1183TIP3    H125108   3.506   3.537   8.569  0.2257  1.5120  2.5943
 1183TIP3    H225109   3.368   3.566   8.515  0.7020 -0.7481 -0.0671
 1184TIP3   OH225110   1.729   6.038   2.733 -0.1894  0.1475 -0.1338
 1184TIP3    H125111   1.779   5.960   2.707  0.1986 -0.1717  1.4744
 1184TIP3    H225112   1.650   6.035   2.679  0.2627 -0.8474 -0.7624
 1185TIP3   OH225113   5.629   2.224   2.453 -0.0428 -0.3016  0.0700
 1185TIP3    H125114   5.638   2.190   2.363 -3.5437 -0.0724 -0.5211
 1185TIP3    H225115   5.560   2.290   2.446  2.5793  2.9681  2.2493
 1186TIP3   OH225116   6.660   5.040   0.239  0.4537 -0.3564  0.6164
 1186TIP3    H125117   6.735   4.985   0.220 -0.7743 -1.7804 -0.3587
 1186TIP3    H225118   6.639   5.082   0.155 -0.1061 -0.3125  0.7746
 1187TIP3   OH225119   4.581   0.284   2.114 -0.3952  0.1480 -0.5308
 1187TIP3    H125120   4.504   0.317   2.160  0.6918  0.6897  0.9712
 1187TIP3    H225121   4.636   0.245   2.183  0.7640 -0.0656 -1.5338
 1188TIP3   OH225122   3.799   3.103   2.278  0.0205 -0.1345  0.2742
 1188TIP3    H125123   3.773   3.091   2.370  0.6922 -1.0721  0.3583
 1188TIP3    H225124   3.834   3.017   2.252  2.9067  0.9756  0.1316
 1189TIP3   OH225125   2.722   2.229   2.165  0.4515  0.0191  0.6484
 1189TIP3    H125126   2.778   2.151   2.164 -0.6775 -0.8232 -0.8120
 1189TIP3    H225127   2.758   2.285   2.097  0.5128  0.2222  0.8475
 1190TIP3   OH225128   1.413   2.252   0.867  0.2468 -0.1520 -0.3965
 1190TIP3    H125129   1.456   2.201   0.798  1.4494  0.7438 -0.3303
 1190TIP3    H225130   1.483   2.275   0.927 -0.5025  0.5188  0.2406
 1191TIP3   OH225131   5.963   4.844   0.001 -0.4828 -0.4903 -0.2147
 1191TIP3    H125132   6.050   4.804   0.010  0.6406  1.4190 -1.7362
 1191TIP3    H225133   5.929   4.847   0.091  1.0865 -1.1656  0.4407
 1192TIP3   OH225134   1.987   4.027   8.590  0.2469 -0.4289  0.2300
 1192TIP3    H125135   1.946   3.941   8.578 -0.7985  0.3791 -2.9862
 1192TIP3    H225136   2.077   4.008   8.616  0.2743 -2.5600 -1.1975
 1193TIP3   OH225137   0.815   6.371   0.519 -0.2152 -0.1949  0.0027
 1193TIP3    H125138   0.865   6.400   0.442 -0.9733  0.3126 -0.3061
 1193TIP3    H225139   0.875   6.313   0.565  0.4963  0.0259 -0.6161
 1194TIP3   OH225140   4.109   5.377   2.182 -0.5330  0.3045  0.3387
 1194TIP3    H125141   4.014   5.376   2.169 -0.8273  0.4741  2.2294
 1194TIP3    H225142   4.138   5.459   2.140 -0.9112 -0.6297 -1.8835
 1195TIP3   OH225143   3.701   6.672   2.086  0.1495 -0.6900  0.5216
 1195TIP3    H125144   3.614   6.649   2.118 -1.3869  1.5053 -1.7416
 1195TIP3    H225145   3.727   6.747   2.139 -0.0213 -0.3834  0.1708
 1196TIP3   OH225146   2.239   0.069   3.322 -0.4807 -0.0953  0.1261
 1196TIP3    H125147   2.292  -0.010   3.308 -2.2577 -1.2459 -0.4164
 1196TIP3    H225148   2.281   0.136   3.268  0.8667 -0.7454  0.3309
 1197TIP3   OH225149   5.044   0.030   1.628  0.5105 -0.4706  0.1964
 1197TIP3    H125150   4.981   0.062   1.563 -1.4614 -1.4839  1.4836
 1197TIP3    H225151   5.060  -0.061   1.603  2.8919  0.2257 -1.0952
 1198TIP3   OH225152   4.179   5.972   8.214  0.0434  0.4789  0.0608
 1198TIP3    H125153   4.096   6.016   8.194 -1.4021 -2.3209 -0.5781
 1198TIP3    H225154   4.241   6.044   8.228 -1.5982  2.7182 -2.9008
 1199TIP3   OH225155   3.094   6.014   0.564 -0.4425 -0.4635  0.5044
 1199TIP3    H125156   3.123   6.006   0.655  0.1904  0.4643  0.3979
 1199TIP3    H225157   3.170   5.987   0.512  0.4435  2.2351  0.2149
 1200TIP3   OH225158   0.448   0.317   0.968 -0.7457  0.7379 -0.3579
 1200TIP3    H125159   0.377   0.259   0.940 -0.8321  0.7538 -0.1741
 1200TIP3    H225160   0.511   0.258   1.009 -0.6731  0.7291 -0.4830
 1201TIP3   OH225161   0.951   0.569   0.015  0.1706  0.3216  0.4121
 1201TIP3    H125162   1.019   0.550   0.080  0.7016 -2.8687 -0.8916
 1201TIP3    H225163   0.996   0.570  -0.069 -1.3023 -2.6597 -0.5883
 1202TIP3   OH225164   0.623   6.304   0.705 -0.2869  0.0854  0.2330
 1202TIP3    H125165   0.622   6.354   0.787 -2.1129  0.5980 -0.0451
 1202TIP3    H225166   0.707   6.324   0.665 -0.4957  2.0600  0.6915
 1203TIP3   OH225167   3.765   6.010   0.036  0.2563 -1.0623 -0.7569
 1203TIP3    H125168   3.678   5.980   0.011  0.2970 -1.1720 -0.7649
 1203TIP3    H225169   3.809   6.027  -0.047 -0.2636  0.4534 -0.7521
 1204TIP3   OH225170   0.423   4.311   8.043 -0.4614  0.1166 -0.2334
 1204TIP3    H125171   0.350   4.295   7.984  0.6823 -1.6470 -1.2513
 1204TIP3    H225172   0.433   4.231   8.093 -0.2285  0.9189  1.0575
 1205TIP3   OH225173   1.562   4.105   8.391 -0.5314 -0.2864 -0.2845
 1205TIP3    H125174   1.528   4.194   8.380 -1.4712 -0.6007 -0.0141
 1205TIP3    H225175   1.649   4.108   8.351 -1.0576  0.4192 -1.4387
 1206TIP3   OH225176   2.745   4.218   1.855  0.9096 -0.2548  0.3584
 1206TIP3    H125177   2.729   4.124   1.850 -0.8047  0.0348 -0.4135
 1206TIP3    H225178   2.743   4.248   1.765 -2.6961  1.0546  0.7163
 1207TIP3   OH225179   2.755   5.688   7.386  0.0314  0.3208  0.7966
 1207TIP3    H125180   2.716   5.649   7.308 -0.2893  0.3947  0.9203
 1207TIP3    H225181   2.744   5.622   7.454  2.2662 -0.6916  0.2886
 1208TIP3   OH225182   6.688   4.092   2.284  0.5955 -0.0751 -1.0927
 1208TIP3    H125183   6.768   4.142   2.298  0.1186  0.5214 -0.3999
 1208TIP3    H225184   6.680   4.036   2.362  0.4253 -0.2482 -1.2332
 1209TIP3   OH225185   5.336   6.223   1.252  0.3195 -0.0729 -1.1288
 1209TIP3    H125186   5.260   6.179   1.213 -0.6706  2.8329 -2.7509
 1209TIP3    H225187   5.308   6.246   1.340 -0.9084  1.2853 -1.8307
 1210TIP3   OH225188   4.318   2.208   0.413 -0.0872  0.0812 -0.1613
 1210TIP3    H125189   4.262   2.153   0.358 -0.1630 -0.5318  0.5014
 1210TIP3    H225190   4.273   2.209   0.498  0.9362 -0.4783  0.4048
 1211TIP3   OH225191   3.180   6.781   2.041 -0.1284  0.0907 -0.8600
 1211TIP3    H125192   3.250   6.844   2.023 -0.8878  0.7543 -1.5271
 1211TIP3    H225193   3.104   6.835   2.063 -0.4025 -0.6294  0.0479
 1212TIP3   OH225194   3.943   1.481   1.280  0.4831 -0.7437 -0.3414
 1212TIP3    H125195   3.980   1.406   1.233  0.9274 -1.5529  1.2480
 1212TIP3    H225196   3.920   1.447   1.367  2.0689  1.2730  0.9566
 1213TIP3   OH225197   6.223   0.976   8.444  0.3604 -0.6514 -0.4350
 1213TIP3    H125198   6.136   0.944   8.468  0.9137 -1.4913  0.4879
 1213TIP3    H225199   6.240   1.048   8.505  0.1693 -0.2484 -0.8526
 1214TIP3   OH225200   1.807   4.969   1.651  0.6183  0.7125 -0.2273
 1214TIP3    H125201   1.734   4.989   1.710  1.1895  0.6450  0.5260
 1214TIP3    H225202   1.765   4.942   1.569 -0.2359 -0.6308  0.6108
 1215TIP3   OH225203   5.163   2.155   2.236 -0.3450 -0.2651  0.4290
 1215TIP3    H125204   5.113   2.135   2.156 -0.4586 -1.2310  0.7282
 1215TIP3    H225205   5.098   2.151   2.306 -0.3101  0.9010  0.5494
 1216TIP3   OH225206   1.573   5.674   8.444 -0.4907  0.0079 -0.2957
 1216TIP3    H125207   1.608   5.683   8.532 -0.9406  2.0217 -0.2624
 1216TIP3    H225208   1.647   5.643   8.391 -0.1141 -0.8182  0.6911
 1217TIP3   OH225209   3.464   1.392   7.563 -0.0321  0.2076  0.5151
 1217TIP3    H125210   3.538   1.337   7.589 -0.2476  0.3463  1.4626
 1217TIP3    H225211   3.473   1.471   7.616 -1.3745 -0.1667  1.3639
 1218TIP3   OH225212   6.049   2.104   1.865  0.3170 -0.0937 -0.1704
 1218TIP3    H125213   6.125   2.144   1.908  0.1226  0.7167 -0.5613
 1218TIP3    H225214   5.984   2.174   1.862 -0.5556 -0.8581  0.4011
 1219TIP3   OH225215   6.266   4.857   0.135 -0.4215  0.3863 -0.0105
 1219TIP3    H125216   6.241   4.817   0.218  0.1424  0.2271  0.0868
 1219TIP3    H225217   6.242   4.949   0.145  0.0349  0.4570  0.4944
 1220TIP3   OH225218   6.574   4.599   2.590  0.1126  0.1442 -0.0684
 1220TIP3    H125219   6.556   4.531   2.525  0.9871 -0.5753  0.4153
 1220TIP3    H225220   6.577   4.680   2.540 -0.5249 -0.2208 -0.7221
 1221TIP3   OH225221   1.523   4.829   1.923 -0.1594  0.0670  0.5004
 1221TIP3    H125222   1.478   4.908   1.892 -0.5460 -0.5196 -0.4883
 1221TIP3    H225223   1.556   4.852   2.010  1.0601  1.8071 -0.3934
 1222TIP3   OH225224   0.079   4.947   7.837  0.4438 -0.1918 -0.2350
 1222TIP3    H125225   0.094   4.854   7.821 -1.6227 -0.6443  0.1670
 1222TIP3    H225226   0.008   4.949   7.901  1.1416  1.6743  0.5409
 1223TIP3   OH225227   2.072   4.176   8.119 -0.2949 -0.5010  0.2268
 1223TIP3    H125228   2.059   4.251   8.177 -1.0787 -0.6855  0.3001
 1223TIP3    H225229   2.150   4.132   8.154 -0.5626 -0.4201  0.9462
 1224TIP3   OH225230   0.903   4.653   7.293 -0.1790 -0.0777 -0.2721
 1224TIP3    H125231   0.920   4.653   7.199  0.6578 -0.9867 -0.1477
 1224TIP3    H225232   0.909   4.745   7.319 -3.9924  0.7229 -1.6437
 1225TIP3   OH225233   6.227   6.235   8.063 -0.2487 -0.3843 -0.3896
 1225TIP3    H125234   6.272   6.270   7.986 -1.1228 -0.0323 -0.7493
 1225TIP3    H225235   6.217   6.142   8.045 -0.0344 -0.3863 -0.4982
 1226TIP3   OH225236   0.848   0.250   1.190 -0.3384  0.2114 -0.5013
 1226TIP3    H125237   0.863   0.161   1.159 -1.2147  0.5093 -1.9264
 1226TIP3    H225238   0.866   0.305   1.113 -0.7846  1.1730  0.0613
 1227TIP3   OH225239   0.416   4.575   2.234  0.5212 -0.4133 -0.0415
 1227TIP3    H125240   0.499   4.541   2.200 -0.1409  0.0728 -2.3398
 1227TIP3    H225241   0.441   4.626   2.311  2.4858  0.3378 -1.0981
 1228TIP3   OH225242   4.393   4.978   1.130  0.5379  0.7831  0.0957
 1228TIP3    H125243   4.310   5.018   1.103  0.4734  0.6638  0.1157
 1228TIP3    H225244   4.379   4.953   1.221  0.9132  1.5987  0.3846
 1229TIP3   OH225245   0.404   0.688   7.904 -0.3886 -0.3459  0.2042
 1229TIP3    H125246   0.476   0.718   7.960 -0.3993 -0.1818  0.1292
 1229TIP3    H225247   0.417   0.734   7.821  0.4741 -1.6576 -0.4383
 1230TIP3   OH225248   5.540   4.338   8.557  0.1226 -0.3327 -0.3338
 1230TIP3    H125249   5.590   4.258   8.539  1.0850  0.3132 -0.6402
 1230TIP3    H225250   5.604   4.408   8.547 -1.0910  0.6177 -1.7436
 1231TIP3   OH225251   1.365   0.682   6.893 -0.0613 -0.3950 -0.1610
 1231TIP3    H125252   1.276   0.714   6.877 -0.2977 -0.2937  1.2386
 1231TIP3    H225253   1.421   0.757   6.875 -0.1939 -0.5926 -1.5152
 1232TIP3   OH225254   4.618   4.095   8.522 -0.3302 -0.0016 -0.2505
 1232TIP3    H125255   4.649   4.175   8.480  1.2354 -0.4303  0.0083
 1232TIP3    H225256   4.652   4.101   8.611 -0.8845 -0.5848  0.0028
 1233TIP3   OH225257   6.253   2.047   0.150  0.1557 -0.5152 -0.0168
 1233TIP3    H125258   6.208   2.021   0.069 -0.0571  1.2796 -0.5195
 1233TIP3    H225259   6.336   2.083   0.120  0.3087 -0.3377  0.6105
 1234TIP3   OH225260   1.522   6.333   2.301 -0.0909  0.4815 -0.0599
 1234TIP3    H125261   1.604   6.381   2.315 -0.2757  1.7855 -2.6454
 1234TIP3    H225262   1.549   6.249   2.264  0.1295 -0.3237  1.8318
 1235TIP3   OH225263   3.257   4.975   7.720 -0.3110  0.8485  0.0838
 1235TIP3    H125264   3.220   5.039   7.659  0.0044  0.7017 -0.2644
 1235TIP3    H225265   3.239   5.012   7.806  0.8434  1.9754 -0.1231
 1236TIP3   OH225266   0.554   0.994   2.090  0.1559  0.8210  0.0146
 1236TIP3    H125267   0.528   0.971   2.179 -2.5177  0.0771 -0.8493
 1236TIP3    H225268   0.519   1.082   2.077  0.6840  0.9958 -0.2579
 1237TIP3   OH225269   0.213   1.061   1.049  0.2612 -0.0888  0.1994
 1237TIP3    H125270   0.122   1.058   1.021  0.7318 -1.7397 -1.3317
 1237TIP3    H225271   0.225   0.981   1.100  0.9544 -0.1063  0.0225
 1238TIP3   OH225272   1.951   5.238   1.128 -0.0177  0.1638 -0.7346
 1238TIP3    H125273   1.880   5.301   1.119  0.7378  1.0270 -0.7917
 1238TIP3    H225274   2.022   5.274   1.075 -0.3585 -1.9650 -2.7949
 1239TIP3   OH225275   3.072   5.339   0.118  0.1140 -0.9095  0.1631
 1239TIP3    H125276   3.033   5.421   0.150 -1.8597 -1.9647  0.6569
 1239TIP3    H225277   3.095   5.291   0.198 -2.3111 -2.4030  0.0525
 1240TIP3   OH225278   1.190   5.822   2.613 -0.2731  0.8691 -0.1635
 1240TIP3    H125279   1.230   5.737   2.597 -1.4492  0.1941  0.3373
 1240TIP3    H225280   1.100   5.802   2.638 -0.9290  2.3358 -1.2248
 1241TIP3   OH225281   1.981   1.421   1.743 -0.0565 -0.2831  0.2537
 1241TIP3    H125282   1.938   1.464   1.817 -2.2008 -0.2759 -0.9317
 1241TIP3    H225283   1.937   1.336   1.735  0.8583 -0.7153 -0.3891
 1242TIP3   OH225284   2.640   2.351   8.317 -0.2239 -0.8069  0.3005
 1242TIP3    H125285   2.568   2.288   8.316 -0.4103 -0.5933 -0.1579
 1242TIP3    H225286   2.714   2.305   8.277  0.0729 -1.2247  1.3051
 1243TIP3   OH225287   6.309   4.388   1.404  0.0898 -0.0787  0.2140
 1243TIP3    H125288   6.326   4.479   1.431  0.4333 -0.3553  0.9620
 1243TIP3    H225289   6.214   4.380   1.407 -0.1784  0.9807 -2.3412
 1244TIP3   OH225290   4.949   1.609   1.344 -0.4407 -0.4063 -0.2173
 1244TIP3    H125291   4.888   1.683   1.337 -2.3380 -1.3978  3.4068
 1244TIP3    H225292   4.899   1.534   1.312 -0.7168 -1.0016  1.5082
 1245TIP3   OH225293   4.652   3.449   7.499 -0.5450 -0.4092  0.2865
 1245TIP3    H125294   4.700   3.369   7.521 -1.0449 -0.2082  2.3209
 1245TIP3    H225295   4.560   3.422   7.496 -1.0736  0.4589  3.7808
 1246TIP3   OH225296   5.197   4.073   8.479 -0.1570  0.4705  0.4747
 1246TIP3    H125297   5.240   4.055   8.562  0.3710 -0.6780 -0.0228
 1246TIP3    H225298   5.136   4.000   8.467 -0.1115  0.5405 -0.2118
 1247TIP3   OH225299   1.676   2.071   8.165  0.6471 -1.1145  0.1002
 1247TIP3    H125300   1.582   2.075   8.149  0.6188 -0.6756  0.3585
 1247TIP3    H225301   1.712   2.027   8.088  0.4606  0.5218 -0.9576
 1248TIP3   OH225302   5.909   6.586   8.023  0.1243 -0.4475 -0.1474
 1248TIP3    H125303   5.833   6.590   7.964 -0.8700  0.2273  1.1238
 1248TIP3    H225304   5.884   6.523   8.090  1.5678 -1.8128 -0.8273
 1249TIP3   OH225305   5.752   1.801   2.748 -0.3561  0.1043  0.4993
 1249TIP3    H125306   5.821   1.855   2.788 -1.3370  2.0920 -0.3359
 1249TIP3    H225307   5.794   1.762   2.671  0.7569 -1.5299  1.8544
 1250TIP3   OH225308   2.267   3.513   1.242  0.3873  0.2448  0.7476
 1250TIP3    H125309   2.185   3.539   1.200  0.2678  0.7033  1.2495
 1250TIP3    H225310   2.282   3.423   1.213 -0.5609 -0.0244  1.0595
 1251TIP3   OH225311   4.396   2.108   0.789 -0.3159 -0.2461 -0.1007
 1251TIP3    H125312   4.383   2.202   0.773  0.3952 -0.1719 -0.2565
 1251TIP3    H225313   4.324   2.084   0.847  0.3230  0.7165  1.1310
 1252TIP3   OH225314   2.580   2.539   2.040 -0.6056  0.3454 -0.3728
 1252TIP3    H125315   2.660   2.487   2.043 -1.4356 -1.0228 -1.0250
 1252TIP3    H225316   2.572   2.577   2.127 -1.9843 -3.7801  1.5163
 1253TIP3   OH225317   6.734   1.277   8.735  0.7691  0.6166 -0.3350
 1253TIP3    H125318   6.720   1.198   8.787  0.1034  0.4694 -0.7245
 1253TIP3    H225319   6.655   1.284   8.680  1.5073  0.6838 -1.4156
 1254TIP3   OH225320   5.243   6.125   2.869 -1.0464  0.2538  0.6674
 1254TIP3    H125321   5.155   6.151   2.844 -0.1291  1.5177 -1.4983
 1254TIP3    H225322   5.255   6.038   2.830 -0.5485  1.0988 -1.1543
 1255TIP3   OH225323   0.383   3.775   2.884  0.3303  0.4682  0.5377
 1255TIP3    H125324   0.467   3.809   2.854 -0.0148  1.3452  0.5483
 1255TIP3    H225325   0.319   3.839   2.853 -0.6014 -1.3254 -1.4740
 1256TIP3   OH225326   1.146   2.217   0.434 -0.5513 -0.4420  0.8123
 1256TIP3    H125327   1.107   2.301   0.411 -0.8158 -0.8703 -0.3997
 1256TIP3    H225328   1.071   2.161   0.456 -0.3271 -0.1515  2.4417
 1257TIP3   OH225329   5.816   4.717   7.852 -0.5701 -0.1159  0.4288
 1257TIP3    H125330   5.896   4.769   7.840  0.5276 -1.9386 -0.7576
 1257TIP3    H225331   5.831   4.668   7.933 -0.3344 -0.6813  0.0492
 1258TIP3   OH225332   5.496   6.353   2.772 -0.2273 -0.6537 -0.7161
 1258TIP3    H125333   5.426   6.347   2.837  0.1583 -0.2300 -0.2532
 1258TIP3    H225334   5.462   6.413   2.706  0.5701  1.5344  0.7044
 1259TIP3   OH225335   4.697   1.803   8.517  0.0912  0.0828 -0.7728
 1259TIP3    H125336   4.627   1.758   8.565  0.2100 -1.8283 -2.3112
 1259TIP3    H225337   4.776   1.753   8.535  1.1094  2.0996  0.7632
 1260TIP3   OH225338   1.966   0.265   8.450  0.2626 -0.1937  0.4106
 1260TIP3    H125339   2.015   0.228   8.376 -0.8886 -1.4383  0.2268
 1260TIP3    H225340   1.899   0.320   8.409 -0.1079 -0.5456  0.5397
 1261TIP3   OH225341   4.538   6.019   1.236  0.0989  0.2969 -0.8204
 1261TIP3    H125342   4.449   5.992   1.256  0.5974 -0.8173 -0.0042
 1261TIP3    H225343   4.547   6.104   1.279 -0.2767 -0.0161 -0.1084
 1262TIP3   OH225344   4.096   1.430   1.831  0.3308  0.0920  0.2246
 1262TIP3    H125345   4.047   1.513   1.830  0.7290  0.3226 -0.1635
 1262TIP3    H225346   4.187   1.456   1.819  0.4018 -0.4480 -0.4397
 1263TIP3   OH225347   1.161   5.127   8.307  0.4370  0.2096  0.7241
 1263TIP3    H125348   1.202   5.107   8.391  0.2246 -0.4994  0.6671
 1263TIP3    H225349   1.071   5.094   8.316  0.1975  0.7788  0.4717
 1264TIP3   OH225350   2.261   2.296   1.034 -0.0975  1.0651 -0.2855
 1264TIP3    H125351   2.263   2.210   1.075 -0.3564  0.4336 -1.5622
 1264TIP3    H225352   2.187   2.292   0.974 -0.1174  2.1858 -0.3590
 1265TIP3   OH225353   4.391   1.588   7.512 -0.1240 -0.0027  0.0673
 1265TIP3    H125354   4.431   1.670   7.482  0.5811 -0.5836 -0.6114
 1265TIP3    H225355   4.417   1.581   7.604 -1.3803  1.2330  0.5687
 1266TIP3   OH225356   4.465   4.509   0.423  0.3142 -0.1677  0.0304
 1266TIP3    H125357   4.410   4.452   0.369 -0.9103  0.1629  0.8650
 1266TIP3    H225358   4.404   4.575   0.457  1.7098  1.8414 -1.1081
 1267TIP3   OH225359   5.876   3.943   8.580  0.0033  0.0857  0.0534
 1267TIP3    H125360   5.927   3.968   8.502  0.7673  0.2721  0.6022
 1267TIP3    H225361   5.850   4.026   8.619  0.0153 -0.0036  0.2503
 1268TIP3   OH225362   5.409   5.957   7.046 -0.1095  0.0189  0.2223
 1268TIP3    H125363   5.476   5.960   7.114 -0.0052  2.0635  0.0996
 1268TIP3    H225364   5.404   5.865   7.021  1.9935 -0.3248  0.8800
 1269TIP3   OH225365   5.259   2.216   7.413  0.0354 -0.1904  0.5766
 1269TIP3    H125366   5.259   2.173   7.498 -1.4628  0.2445  0.8225
 1269TIP3    H225367   5.183   2.275   7.416  1.1756  1.4087 -0.2648
 1270TIP3   OH225368   1.391   5.220   2.059 -0.7672 -0.2577 -0.1737
 1270TIP3    H125369   1.334   5.162   2.109 -0.9872 -0.5397 -0.7378
 1270TIP3    H225370   1.453   5.254   2.123 -1.2431 -0.3557  0.3471
 1271TIP3   OH225371   2.882   0.808   7.576  0.2422  0.4119  0.1147
 1271TIP3    H125372   2.870   0.858   7.495 -2.4523  0.3697  0.3833
 1271TIP3    H225373   2.806   0.751   7.580 -0.3224  1.2055  3.2112
 1272TIP3   OH225374   5.418   2.764   2.932 -0.0367  0.4627 -0.7224
 1272TIP3    H125375   5.348   2.817   2.893 -0.3870  1.6878  1.3827
 1272TIP3    H225376   5.372   2.700   2.986  0.4274  0.6241 -0.1212
 1273TIP3   OH225377   2.509   3.476   0.579 -0.3219  0.2542 -0.1679
 1273TIP3    H125378   2.517   3.443   0.668  0.5912  0.0874 -0.3079
 1273TIP3    H225379   2.414   3.483   0.565 -0.5604 -2.0417 -0.0411
 1274TIP3   OH225380   1.090   2.444   0.116  0.4401 -0.3580  0.5124
 1274TIP3    H125381   1.143   2.480   0.187  2.2940  1.7189 -1.7328
 1274TIP3    H225382   1.004   2.430   0.155  2.0782 -2.2901  3.9052
 1275TIP3   OH225383   3.918   3.601   0.759 -0.3159 -0.0587 -0.3928
 1275TIP3    H125384   3.832   3.644   0.754 -0.5072 -0.4219 -0.2037
 1275TIP3    H225385   3.975   3.659   0.708 -0.3885  0.8610  0.5265
 1276TIP3   OH225386   0.441   0.912   7.686 -0.4759 -0.8477  0.6385
 1276TIP3    H125387   0.417   0.933   7.596  1.9781 -0.3838  0.0314
 1276TIP3    H225388   0.423   0.992   7.735  0.8257 -0.1125 -0.0300
 1277TIP3   OH225389   3.823   3.865   0.202 -0.2409  0.2866 -0.2925
 1277TIP3    H125390   3.812   3.790   0.144 -1.8957  1.0282 -1.0187
 1277TIP3    H225391   3.917   3.881   0.204  0.1574 -1.8710 -0.0029
 1278TIP3   OH225392   0.525   0.903   8.740 -0.4400  0.0882 -0.3362
 1278TIP3    H125393   0.491   0.930   8.655 -1.9116 -0.7468 -0.0343
 1278TIP3    H225394   0.602   0.849   8.718 -1.5490 -1.2183 -1.2309
 1279TIP3   OH225395   0.502   5.975   8.612 -0.0054 -0.4644  0.3093
 1279TIP3    H125396   0.468   5.908   8.672  0.7188 -0.5695  0.6145
 1279TIP3    H225397   0.424   6.022   8.582 -0.3982 -0.5304  1.1964
 1280TIP3   OH225398   4.679   5.700   1.465  0.4452  0.0249  0.1142
 1280TIP3    H125399   4.755   5.751   1.437 -0.5119  1.3534 -0.1536
 1280TIP3    H225400   4.639   5.671   1.383 -1.0176  1.9102  0.0930
 1281TIP3   OH225401   6.236   0.235   7.622 -0.3077 -0.4781 -0.6117
 1281TIP3    H125402   6.330   0.222   7.630 -0.0479  0.5366 -1.7156
 1281TIP3    H225403   6.199   0.147   7.618  0.7039 -0.8786 -1.3103
 1282TIP3   OH225404   0.290   0.266   1.630  0.1980  0.7671 -0.5110
 1282TIP3    H125405   0.215   0.208   1.644 -1.0051  1.9568 -1.6610
 1282TIP3    H225406   0.318   0.247   1.540  1.2967  0.3495 -0.1018
 1283TIP3   OH225407   0.896   3.004   7.447 -0.3816 -0.0119 -0.0863
 1283TIP3    H125408   0.820   3.002   7.389  1.1137  0.8833 -2.2040
 1283TIP3    H225409   0.912   2.912   7.469 -0.6051 -0.4501 -1.6578
 1284TIP3   OH225410   5.516   4.002   1.176 -0.1888 -0.1726  0.0411
 1284TIP3    H125411   5.507   4.038   1.265 -0.4773 -1.4894  0.5681
 1284TIP3    H225412   5.609   3.984   1.167 -0.4665 -2.8362  1.2885
 1285TIP3   OH225413   6.211   3.419   6.847 -0.3268 -0.1211 -0.2083
 1285TIP3    H125414   6.251   3.362   6.912 -3.6300  0.1571  2.2949
 1285TIP3    H225415   6.227   3.375   6.763 -0.0204 -3.0537  1.2801
 1286TIP3   OH225416   0.748   2.580   1.854 -0.3968 -0.5325 -0.0175
 1286TIP3    H125417   0.675   2.636   1.880 -0.3294 -0.6133  0.3512
 1286TIP3    H225418   0.731   2.560   1.762 -1.0851 -0.9226  0.1889
 1287TIP3   OH225419   2.821   4.719   2.084  0.2109 -0.1869 -0.1093
 1287TIP3    H125420   2.835   4.631   2.050 -1.4397 -0.6704  0.3618
 1287TIP3    H225421   2.827   4.710   2.179  0.2193  0.2405 -0.0645
 1288TIP3   OH225422   4.666   4.601   0.976 -0.3746 -0.1448  0.7739
 1288TIP3    H125423   4.650   4.519   0.930 -1.9476 -0.1358  1.2445
 1288TIP3    H225424   4.753   4.590   1.015 -0.9604 -1.9900  1.6653
 1289TIP3   OH225425   5.073   6.790   0.034 -0.1987  0.2162 -0.1946
 1289TIP3    H125426   5.033   6.856   0.091  1.0497 -0.5142  1.6504
 1289TIP3    H225427   5.120   6.840  -0.032 -1.6664  1.0976 -0.6262
 1290TIP3   OH225428   4.948   0.141   7.084  0.0816 -0.3520  0.0518
 1290TIP3    H125429   4.978   0.051   7.065 -0.4505 -0.1359 -2.1292
 1290TIP3    H225430   4.997   0.195   7.023  0.3110  0.8644  1.2760
 1291TIP3   OH225431   1.637   6.493   8.024  0.5007  0.7954 -0.4028
 1291TIP3    H125432   1.723   6.488   8.066  0.3436 -0.1809 -0.1755
 1291TIP3    H225433   1.574   6.495   8.096  0.2869  0.3343 -0.5698
 1292TIP3   OH225434   4.318   3.211   2.646  0.1589  0.0696  0.1865
 1292TIP3    H125435   4.344   3.199   2.737 -0.4051 -0.0957  0.3326
 1292TIP3    H225436   4.278   3.298   2.643 -1.6381 -0.6920  0.5530
 1293TIP3   OH225437   0.393   5.445   1.508  0.2477 -0.1842 -0.3715
 1293TIP3    H125438   0.346   5.403   1.580 -1.4243  1.3219 -0.5010
 1293TIP3    H225439   0.346   5.417   1.429  1.3547 -0.9123 -0.7869
 1294TIP3   OH225440   1.775   4.986   8.688  0.2441  0.1189 -0.2855
 1294TIP3    H125441   1.817   4.905   8.716 -1.1028 -0.3935  0.3629
 1294TIP3    H225442   1.835   5.056   8.715  0.2295 -0.5287  1.5335
 1295TIP3   OH225443   5.499   5.161   1.359 -0.1235  0.5435 -0.0315
 1295TIP3    H125444   5.444   5.083   1.354 -0.9498  1.0960  0.1406
 1295TIP3    H225445   5.485   5.205   1.275  0.1729  0.6135 -0.0443
 1296TIP3   OH225446   1.406   3.560   8.668  0.1800 -0.7274  0.4965
 1296TIP3    H125447   1.375   3.649   8.652  0.3808 -0.7908 -0.2643
 1296TIP3    H225448   1.467   3.569   8.742 -1.3719 -0.5609  1.8244
 1297TIP3   OH225449   1.108   5.810   1.183  0.0299 -0.7798  0.1895
 1297TIP3    H125450   1.116   5.755   1.261 -1.0376  0.6178  1.3421
 1297TIP3    H225451   1.198   5.834   1.161  0.2388  1.7933  3.2636
 1298TIP3   OH225452   5.876   6.243   8.427  0.4429  0.3981 -1.1223
 1298TIP3    H125453   5.913   6.155   8.414  0.7583  0.0573  1.4339
 1298TIP3    H225454   5.865   6.249   8.522 -1.8874  2.2147 -1.4292
 1299TIP3   OH225455   6.498   1.348   2.388 -0.0682 -0.4855  0.4457
 1299TIP3    H125456   6.544   1.273   2.351  2.7749  1.1975  0.3136
 1299TIP3    H225457   6.504   1.337   2.483  0.3081 -0.4490  0.4260
 1300TIP3   OH225458   3.154   0.309   7.760 -0.4811  0.3742  0.3118
 1300TIP3    H125459   3.069   0.304   7.717 -1.5126 -1.4664  2.3623
 1300TIP3    H225460   3.140   0.367   7.835  0.6064  1.5596 -0.3688
 1301TIP3   OH225461   1.297   3.247   7.912 -0.2040  0.0139  0.1190
 1301TIP3    H125462   1.340   3.253   7.997 -1.4817  0.4513  0.7576
 1301TIP3    H225463   1.210   3.212   7.931 -0.5467  0.2052 -0.9974
 1302TIP3   OH225464   5.988   6.292   7.953  0.4657 -0.1004 -0.0720
 1302TIP3    H125465   6.067   6.276   8.004  0.5552 -0.3838 -0.2920
 1302TIP3    H225466   5.931   6.343   8.011 -0.7513 -3.0817  1.5866
 1303TIP3   OH225467   3.139   4.680   8.320 -0.0898 -0.2952  0.6429
 1303TIP3    H125468   3.190   4.617   8.372  1.9396  0.9245  0.2577
 1303TIP3    H225469   3.157   4.765   8.361 -1.7550  0.2046  0.3946
 1304TIP3   OH225470   6.715   2.708   7.560 -0.0773 -0.4616  0.0277
 1304TIP3    H125471   6.789   2.670   7.606  0.5322  0.3230 -0.2706
 1304TIP3    H225472   6.701   2.651   7.484 -0.1091 -0.8998  0.3652
 1305TIP3   OH225473   0.336   3.206   0.278 -0.3296  0.3450 -0.2477
 1305TIP3    H125474   0.344   3.151   0.201  1.1015  1.1201 -0.6825
 1305TIP3    H225475   0.364   3.293   0.249 -2.8864  1.4599  0.3131
 1306TIP3   OH225476   2.563   3.820   8.087 -0.0115 -0.0432  0.0137
 1306TIP3    H125477   2.525   3.765   8.156  0.7181 -0.5779  0.0118
 1306TIP3    H225478   2.522   3.905   8.098 -1.5010 -0.7032 -0.2586
 1307TIP3   OH225479   5.103   5.034   6.971  0.2925 -0.2090  0.8225
 1307TIP3    H125480   5.105   4.963   6.908 -1.1645 -0.5557  1.1207
 1307TIP3    H225481   5.179   5.019   7.027 -0.2210 -1.7954  1.1353
 1308TIP3   OH225482   1.327   4.255   0.769 -0.0218  0.4727  0.3507
 1308TIP3    H125483   1.359   4.203   0.843  0.2254 -0.2678 -0.2743
 1308TIP3    H225484   1.326   4.345   0.803 -1.7554 -0.0514  1.8973
 1309TIP3   OH225485   2.352   1.566   0.974  0.2623 -0.1624 -0.7912
 1309TIP3    H125486   2.426   1.592   1.029  0.1700 -0.9748 -0.2623
 1309TIP3    H225487   2.379   1.589   0.885  1.3105 -0.7886 -0.6510
 1310TIP3   OH225488   2.646   3.099   8.388 -0.0349  0.5174 -0.0099
 1310TIP3    H125489   2.671   3.182   8.428  1.0721 -0.5314  1.6110
 1310TIP3    H225490   2.717   3.079   8.327  0.1020  0.3870  0.1908
 1311TIP3   OH225491   4.498   1.619   7.790 -0.4824  0.2725  0.1355
 1311TIP3    H125492   4.442   1.668   7.850  1.4865  3.5968 -0.4577
 1311TIP3    H225493   4.585   1.624   7.830  0.2425 -0.5649 -1.2682
 1312TIP3   OH225494   1.657   2.286   0.028 -0.1077  0.3537 -0.1536
 1312TIP3    H125495   1.629   2.355  -0.033  0.0960 -0.7493 -1.5528
 1312TIP3    H225496   1.752   2.282   0.019  0.0086  0.6878  0.8256
 1313TIP3   OH225497   5.674   3.436   1.281 -0.1274  0.3106  0.7621
 1313TIP3    H125498   5.702   3.345   1.268  1.2136  0.7744  0.3218
 1313TIP3    H225499   5.597   3.429   1.339 -1.4435 -1.2493 -1.0466
 1314TIP3   OH225500   3.412   2.373   7.947  0.0220 -0.1315  0.3031
 1314TIP3    H125501   3.504   2.375   7.971  0.2838 -1.9174 -0.4213
 1314TIP3    H225502   3.366   2.343   8.025  0.1396  0.0347  0.4351
 1315TIP3   OH225503   0.233   0.528   6.979 -0.1723 -0.0063  0.6215
 1315TIP3    H125504   0.158   0.478   6.948 -0.2302 -1.4716  2.9013
 1315TIP3    H225505   0.301   0.463   6.996  0.5296  0.9207  1.5514
 1316TIP3   OH225506   2.392   1.659   0.724 -1.1150 -0.2775 -0.3559
 1316TIP3    H125507   2.316   1.709   0.697 -0.7705 -0.2959 -1.3873
 1316TIP3    H225508   2.440   1.641   0.643  0.2535  0.1845  0.3103
 1317TIP3   OH225509   0.049   1.483   1.301  0.8429  0.8876 -0.0525
 1317TIP3    H125510   0.016   1.396   1.278 -0.6643  1.8978 -1.9941
 1317TIP3    H225511   0.123   1.497   1.241 -0.0394  1.6010 -1.0180
 1318TIP3   OH225512   2.045   1.372   0.162  0.1350  0.6166 -0.1128
 1318TIP3    H125513   1.998   1.306   0.214 -0.7737 -0.1786 -1.8786
 1318TIP3    H225514   2.137   1.360   0.187 -0.3247  0.7049  1.7619
 1319TIP3   OH225515   2.766   5.264   0.077 -0.1125  0.4398  0.3087
 1319TIP3    H125516   2.861   5.270   0.066 -0.2731 -0.2504 -1.9243
 1319TIP3    H225517   2.732   5.342   0.032 -0.6755 -0.3494 -0.6657
 1320TIP3   OH225518   5.679   2.409   2.145  0.3141  0.3915 -0.1950
 1320TIP3    H125519   5.709   2.484   2.195 -1.6300  0.1962  1.4101
 1320TIP3    H225520   5.620   2.445   2.079 -0.0268  0.3550  0.0858
 1321TIP3   OH225521   1.390   6.021   8.696  0.4023 -0.3045 -0.3490
 1321TIP3    H125522   1.457   6.083   8.665 -0.5913  0.0677 -1.8730
 1321TIP3    H225523   1.379   5.960   8.623  0.5012 -1.5707  0.6712
 1322TIP3   OH225524   4.435   0.436   1.069  0.1394 -0.1377  0.1200
 1322TIP3    H125525   4.346   0.401   1.081 -0.1237  0.6977  0.6389
 1322TIP3    H225526   4.422   0.524   1.034  0.8178 -0.8081 -1.9597
 1323TIP3   OH225527   3.672   4.176   2.446 -0.0444 -0.2510 -0.1576
 1323TIP3    H125528   3.755   4.219   2.430 -0.4917 -0.4189 -3.6761
 1323TIP3    H225529   3.686   4.085   2.420 -0.9780 -0.5959  0.4733
 1324TIP3   OH225530   1.623   3.998   6.971  0.4383  0.1671  0.1046
 1324TIP3    H125531   1.657   4.033   6.888  0.3019  0.0699  0.0074
 1324TIP3    H225532   1.700   3.961   7.014  0.4187 -0.2381 -0.2102
 1325TIP3   OH225533   4.405   5.761   1.024 -0.1385 -0.1989  0.3391
 1325TIP3    H125534   4.471   5.803   1.079  0.2655  1.2454 -1.1630
 1325TIP3    H225535   4.450   5.687   0.984 -0.5213 -1.4512  2.1101
 1326TIP3   OH225536   1.160   6.256   8.489  0.2374  0.2057  0.7973
 1326TIP3    H125537   1.169   6.320   8.559  0.2283  0.9623  0.1255
 1326TIP3    H225538   1.098   6.192   8.523  1.8409 -0.6219  2.2981
 1327TIP3   OH225539   3.698   2.580   8.256  0.3750 -0.0311 -0.0207
 1327TIP3    H125540   3.720   2.488   8.270 -0.3824 -0.0562  1.1334
 1327TIP3    H225541   3.755   2.627   8.317 -0.4617  0.1275  0.6561
 1328TIP3   OH225542   5.574   1.307   2.217  0.0804  0.5626  0.1480
 1328TIP3    H125543   5.483   1.286   2.197  0.5099 -0.1328 -1.2185
 1328TIP3    H225544   5.611   1.226   2.250  0.3266  0.6992  0.2094
 1329TIP3   OH225545   4.070   5.850   7.373  0.4704 -0.4367  0.0690
 1329TIP3    H125546   4.150   5.879   7.329  0.6884  0.7660  1.2000
 1329TIP3    H225547   3.999   5.898   7.330  0.3649 -1.2372 -0.6937
 1330TIP3   OH225548   4.197   2.022   1.375  0.2937  0.1570 -0.3009
 1330TIP3    H125549   4.193   1.938   1.330  1.0647  0.9093 -1.8524
 1330TIP3    H225550   4.281   2.060   1.348 -0.6284  2.0088 -0.7140
 1331TIP3   OH225551   1.534   2.094   1.837 -0.7576  0.1777  0.4987
 1331TIP3    H125552   1.443   2.071   1.816 -1.1642  2.3426 -0.3878
 1331TIP3    H225553   1.535   2.106   1.932 -0.9868 -1.3950  0.7263
 1332TIP3   OH225554   5.149   5.215   1.589 -0.2170 -0.2658  0.2624
 1332TIP3    H125555   5.104   5.131   1.594  0.0046 -0.7105 -2.9825
 1332TIP3    H225556   5.079   5.279   1.581 -0.3530 -0.3377  0.8576
 1333TIP3   OH225557   6.140   6.114   0.765 -0.2388  0.3202 -0.0794
 1333TIP3    H125558   6.172   6.034   0.809 -2.1344 -0.9044 -0.8053
 1333TIP3    H225559   6.092   6.082   0.689 -0.9597  2.1875 -0.4569
 1334TIP3   OH225560   3.715   5.768   1.417 -0.5662 -0.0061  0.1738
 1334TIP3    H125561   3.734   5.860   1.434  2.6943 -0.1724 -1.6790
 1334TIP3    H225562   3.770   5.745   1.342 -0.4413 -3.7235  1.1746
 1335TIP3   OH225563   3.952   4.926   1.939 -0.5692  0.2364 -0.2217
 1335TIP3    H125564   3.869   4.928   1.891 -1.0418 -0.6714  0.5233
 1335TIP3    H225565   3.930   4.956   2.027  0.0628  0.7780 -0.2434
 1336TIP3   OH225566   5.221   1.713   1.752  0.2523  0.1771  0.0505
 1336TIP3    H125567   5.154   1.684   1.691 -0.1299  1.2564 -0.0758
 1336TIP3    H225568   5.183   1.697   1.839  0.3519 -0.3734 -0.0085
 1337TIP3   OH225569   1.011   6.152   1.948 -0.6019  0.1206  0.2983
 1337TIP3    H125570   1.051   6.065   1.937 -0.4118  0.2879 -0.3911
 1337TIP3    H225571   1.084   6.213   1.937 -1.0063  0.4298 -0.8929
 1338TIP3   OH225572   5.678   4.101   0.041  0.0516 -0.4913  0.0097
 1338TIP3    H125573   5.586   4.097   0.070 -0.2988 -0.0400 -1.0042
 1338TIP3    H225574   5.720   4.028   0.085 -0.5529 -0.0844  1.3240
 1339TIP3   OH225575   3.278   4.511   8.511  0.7878 -0.0953 -0.4316
 1339TIP3    H125576   3.364   4.510   8.553  1.3912  0.0988 -1.6076
 1339TIP3    H225577   3.235   4.431   8.542  0.9030  0.4093  1.1009
 1340TIP3   OH225578   4.164   0.140   0.830  0.4931 -0.3190 -0.2580
 1340TIP3    H125579   4.156   0.139   0.735 -2.8853  1.6173 -0.1608
 1340TIP3    H225580   4.147   0.050   0.856  1.7496 -0.9332 -1.4750
 1341TIP3   OH225581   5.716   0.362   0.407  0.0088 -0.7906 -0.7088
 1341TIP3    H125582   5.766   0.420   0.349  0.4358  0.7122  1.0541
 1341TIP3    H225583   5.714   0.278   0.361  1.5471 -0.0718 -2.2181
 1342TIP3   OH225584   0.536   1.766   0.029 -0.0761 -0.8535 -0.4043
 1342TIP3    H125585   0.558   1.694   0.088  0.0917 -1.2852 -0.9798
 1342TIP3    H225586   0.494   1.831   0.085 -1.7103 -2.0673 -0.1281
 1343TIP3   OH225587   1.361   4.622   8.369  0.5253 -0.0661 -0.1569
 1343TIP3    H125588   1.320   4.597   8.451  1.4846 -2.7125 -0.4176
 1343TIP3    H225589   1.291   4.612   8.304  0.6535 -1.3037 -0.1241
 1344TIP3   OH225590   2.286   0.871   7.552 -0.3788  0.0072 -0.7477
 1344TIP3    H125591   2.288   0.952   7.602 -0.5024 -0.7932  0.5952
 1344TIP3    H225592   2.252   0.896   7.466 -1.3688  1.1958 -0.0290
 1345TIP3   OH225593   1.921   1.604   1.216 -0.3404 -0.0850 -0.0242
 1345TIP3    H125594   1.877   1.544   1.155 -2.6166  1.1792  0.2503
 1345TIP3    H225595   1.915   1.559   1.301  1.4110 -1.1294 -0.4081
 1346TIP3   OH225596   6.258   3.717   0.345  0.4840  0.0158 -0.2697
 1346TIP3    H125597   6.263   3.622   0.353 -0.2834  0.1076  2.3571
 1346TIP3    H225598   6.165   3.737   0.355  0.9547  1.1747  3.8477
 1347TIP3   OH225599   5.606   5.743   0.714  0.1463  0.3167 -0.0756
 1347TIP3    H125600   5.677   5.684   0.687 -0.3726 -0.0548 -0.6398
 1347TIP3    H225601   5.651   5.826   0.734  0.7704  0.0089 -0.1644
 1348TIP3   OH225602   6.752   0.641   8.154 -0.5679 -0.4661  0.1253
 1348TIP3    H125603   6.832   0.652   8.102 -0.8021  1.4330  0.1031
 1348TIP3    H225604   6.681   0.669   8.095 -0.9561  0.5650  1.0478
 1349TIP3   OH225605   6.293   4.940   1.770 -0.5976 -0.3385 -0.9221
 1349TIP3    H125606   6.368   4.998   1.776 -1.2512  0.4478  0.1922
 1349TIP3    H225607   6.315   4.866   1.828 -1.1296  0.4687  0.3696
 1350TIP3   OH225608   0.728   0.633   1.188 -0.7335  0.3048 -0.1563
 1350TIP3    H125609   0.787   0.688   1.240 -0.7463  0.8456 -0.7035
 1350TIP3    H225610   0.670   0.695   1.145 -1.6342 -0.2185  0.2876
 1351TIP3   OH225611   1.110   1.142   7.840  0.1477  0.0440 -0.2141
 1351TIP3    H125612   1.051   1.122   7.768  0.3873 -0.2574 -0.3298
 1351TIP3    H225613   1.198   1.138   7.802  0.4135 -1.9667  0.4674
 1352TIP3   OH225614   4.663   4.906   0.635  0.1996 -0.4890  0.7109
 1352TIP3    H125615   4.604   4.845   0.677 -0.8312  0.2144  0.3260
 1352TIP3    H225616   4.675   4.976   0.699 -0.3379 -0.0502  0.3361
 1353TIP3   OH225617   5.526   3.403   2.973 -0.2209  0.0596 -0.2711
 1353TIP3    H125618   5.606   3.428   2.928 -1.2116  2.0453 -1.0145
 1353TIP3    H225619   5.516   3.468   3.043 -0.8113 -0.6080  0.2879
 1354TIP3   OH225620   4.088   1.006   8.511  0.2129  0.1948  0.0791
 1354TIP3    H125621   4.102   1.037   8.600  1.7770  0.1203 -0.1047
 1354TIP3    H225622   4.065   0.914   8.521 -1.2339  0.5857  0.4709
 1355TIP3   OH225623   6.710   3.511   3.279 -0.3109  0.1547 -0.5151
 1355TIP3    H125624   6.776   3.579   3.295  0.6016 -0.4510 -1.5066
 1355TIP3    H225625   6.642   3.527   3.344  0.7061  0.9528  0.3955
 1356TIP3   OH225626   4.487   0.836   7.978  0.5187  0.0274  0.3751
 1356TIP3    H125627   4.506   0.790   7.896  1.2320 -0.9865  1.0809
 1356TIP3    H225628   4.392   0.849   7.977 -0.0500 -3.2452  1.0158
 1357TIP3   OH225629   5.741   3.057   1.875  0.1196 -0.3504  0.1989
 1357TIP3    H125630   5.774   3.059   1.965 -0.7637  0.7176  0.5123
 1357TIP3    H225631   5.686   3.135   1.867 -0.2126 -0.6898 -1.1211
 1358TIP3   OH225632   1.130   0.955   3.071 -0.0390  0.3736  0.1869
 1358TIP3    H125633   1.219   0.965   3.106  0.3469 -3.2394  0.6147
 1358TIP3    H225634   1.096   1.045   3.068  2.8113  1.7022  2.0646
 1359TIP3   OH225635   5.125   5.367   0.412  0.4216 -0.2014  0.5912
 1359TIP3    H125636   5.219   5.366   0.430  0.3515 -0.7952  0.9557
 1359TIP3    H225637   5.104   5.275   0.393  0.0558  0.0497 -0.2281
 1360TIP3   OH225638   4.476   1.049   8.356  0.4560  0.3662  0.4288
 1360TIP3    H125639   4.541   1.118   8.341  3.0518 -2.0036 -0.2041
 1360TIP3    H225640   4.458   1.052   8.450  2.2082  0.5951  0.7950
 1361TIP3   OH225641   2.497   4.933   8.355  0.6309  0.2012 -0.3168
 1361TIP3    H125642   2.556   4.872   8.310  0.3244 -1.5685  1.5601
 1361TIP3    H225643   2.550   4.971   8.424  0.1935  0.3609 -0.0643
 1362TIP3   OH225644   1.394   1.862   2.149 -0.9561  0.1390  0.4620
 1362TIP3    H125645   1.410   1.816   2.066 -0.9592  1.1318 -0.1022
 1362TIP3    H225646   1.472   1.917   2.160 -1.4027  0.7406  0.6181
 1363TIP3   OH225647   4.270   4.313   1.758 -0.3837  0.9053 -0.7915
 1363TIP3    H125648   4.242   4.401   1.737  0.3259  1.0125 -1.3026
 1363TIP3    H225649   4.250   4.261   1.680 -1.4785  0.4450 -0.2305
 1364TIP3   OH225650   0.890   3.039   3.088 -0.3530  0.2938  0.3691
 1364TIP3    H125651   0.982   3.065   3.082 -0.6687  1.8977  1.6995
 1364TIP3    H225652   0.856   3.090   3.161 -2.1916 -0.6431  0.2084
 1365TIP3   OH225653   6.318   1.799   0.283 -0.5735  0.2004 -0.3009
 1365TIP3    H125654   6.276   1.871   0.235  0.9937 -0.0578 -2.1999
 1365TIP3    H225655   6.412   1.816   0.273 -0.1621 -2.0102 -0.6857
 1366TIP3   OH225656   0.013   3.060   8.186 -0.1108 -0.3699 -1.0439
 1366TIP3    H125657  -0.016   3.007   8.112 -1.2507 -0.1206 -0.8059
 1366TIP3    H225658  -0.043   3.032   8.259  0.2940  0.1079 -0.5396
 1367TIP3   OH225659   5.720   1.365   1.231 -0.0503 -0.2906  0.1825
 1367TIP3    H125660   5.727   1.389   1.139  1.4324 -1.6164 -0.0762
 1367TIP3    H225661   5.625   1.362   1.247 -0.3492 -0.6900 -1.4694
 1368TIP3   OH225662   5.546   2.479   1.918 -1.0190 -0.3722  0.3607
 1368TIP3    H125663   5.592   2.428   1.851 -2.8212 -2.9758  0.9699
 1368TIP3    H225664   5.558   2.570   1.891  0.1228 -1.2106 -2.2841
 1369TIP3   OH225665   2.215   2.411   1.282  0.3457 -0.3008  0.2640
 1369TIP3    H125666   2.240   2.395   1.192  0.0500 -0.6722  0.2453
 1369TIP3    H225667   2.238   2.503   1.298 -3.6678  1.2935 -1.6335
 1370TIP3   OH225668   6.771   6.429   2.154 -0.0012 -0.1105 -1.1189
 1370TIP3    H125669   6.759   6.522   2.171 -0.3255 -0.5225  1.3469
 1370TIP3    H225670   6.766   6.388   2.241  0.5470 -2.3828 -2.0788
 1371TIP3   OH225671   4.847   1.141   8.602  0.2583  0.4070  0.8163
 1371TIP3    H125672   4.816   1.067   8.549  1.2806 -0.5770  1.5533
 1371TIP3    H225673   4.768   1.190   8.623 -0.4751 -0.5962  0.4899
 1372TIP3   OH225674   3.255   0.183   1.548  0.5271  0.4133 -0.0120
 1372TIP3    H125675   3.342   0.172   1.510 -0.2281  1.1204 -2.1107
 1372TIP3    H225676   3.195   0.162   1.477 -1.0509 -0.2078  1.4296
 1373TIP3   OH225677   5.416   2.167   2.125 -0.0585 -0.5816 -0.0379
 1373TIP3    H125678   5.454   2.239   2.175  1.6198 -1.2232 -0.3430
 1373TIP3    H225679   5.332   2.149   2.168  0.9646 -0.5800  2.0580
 1374TIP3   OH225680   0.087   3.476   0.464 -0.2272 -0.0935  0.8023
 1374TIP3    H125681   0.045   3.473   0.378 -1.6911 -0.7665  1.5014
 1374TIP3    H225682   0.128   3.390   0.473 -0.6740 -0.2803  1.0593
 1375TIP3   OH225683   2.671   2.099   2.763  0.0714 -0.6119 -0.0426
 1375TIP3    H125684   2.641   2.171   2.818  1.6550 -0.6014  0.8496
 1375TIP3    H225685   2.696   2.141   2.681 -1.3359 -0.5029 -0.4506
 1376TIP3   OH225686   3.747   6.328   8.315  0.4817  0.3030 -0.6089
 1376TIP3    H125687   3.812   6.266   8.345  0.1147 -0.0017 -0.4437
 1376TIP3    H225688   3.710   6.289   8.236 -1.4482 -0.8611  0.7872
 1377TIP3   OH225689   2.187   2.087   8.377 -0.4793  0.9468  0.6180
 1377TIP3    H125690   2.157   2.067   8.466  0.5502 -0.2849  0.7132
 1377TIP3    H225691   2.176   2.004   8.329  0.2799  1.2068 -0.0262
 1378TIP3   OH225692   5.194   6.366   1.500 -0.4038 -0.5644 -0.9218
 1378TIP3    H125693   5.105   6.401   1.496 -0.2727  0.1590  1.1414
 1378TIP3    H225694   5.245   6.435   1.542  0.9888 -1.2646 -1.3952
 1379TIP3   OH225695   3.071   6.469   0.512 -0.2581 -0.6459  0.4366
 1379TIP3    H125696   3.021   6.546   0.540 -0.1681 -0.7857  1.0106
 1379TIP3    H225697   3.029   6.441   0.431 -1.0604 -0.7036  0.8514
 1380TIP3   OH225698   5.972   5.624   2.182  0.0088  0.8818  0.4998
 1380TIP3    H125699   5.945   5.590   2.097 -1.5230  0.8764  0.9502
 1380TIP3    H225700   5.894   5.614   2.237  1.4005 -0.4673  2.3282
 1381TIP3   OH225701   3.156   4.224   8.557  0.6781  0.1181 -0.4118
 1381TIP3    H125702   3.222   4.168   8.598  1.9091  1.3523 -0.6217
 1381TIP3    H225703   3.150   4.193   8.467 -0.4473 -1.2059  0.0814
 1382TIP3   OH225704   2.297   5.317   1.233 -0.3832 -0.5850 -0.4800
 1382TIP3    H125705   2.225   5.317   1.297  0.6677 -1.4632  0.7588
 1382TIP3    H225706   2.319   5.225   1.222  1.4193 -0.2850  0.2317
 1383TIP3   OH225707   0.413   1.628   1.549  0.2254 -0.6492 -0.4188
 1383TIP3    H125708   0.319   1.638   1.532 -0.1830  0.0575  1.8564
 1383TIP3    H225709   0.417   1.565   1.621  1.3644  0.4360  0.5047
 1384TIP3   OH225710   6.645   6.607   1.056 -0.4126 -0.2156  0.4053
 1384TIP3    H125711   6.600   6.636   1.136 -1.2284  0.3850 -0.2553
 1384TIP3    H225712   6.705   6.678   1.035  1.2002 -1.1695  1.4895
 1385TIP3   OH225713   6.474   2.802   3.373  0.2217  0.1706 -0.1295
 1385TIP3    H125714   6.516   2.886   3.354  2.1203 -1.0990 -2.0792
 1385TIP3    H225715   6.546   2.746   3.402 -0.2745 -1.7139 -2.2419
 1386TIP3   OH225716   3.574   1.404   1.094  0.4380  0.0955  0.4488
 1386TIP3    H125717   3.480   1.409   1.111  0.4878  2.3704  0.4448
 1386TIP3    H225718   3.583   1.339   1.024 -0.9546 -1.1574  1.3766
 1387TIP3   OH225719   3.702   0.884   7.855 -0.1736 -0.0891  0.0976
 1387TIP3    H125720   3.770   0.885   7.923  0.4596 -0.7178 -0.5073
 1387TIP3    H225721   3.625   0.846   7.899 -0.1235  0.5435  0.7623
 1388TIP3   OH225722   3.179   5.314   0.903 -0.2065 -0.3406 -0.3357
 1388TIP3    H125723   3.260   5.283   0.943 -0.0053  0.4024 -0.1476
 1388TIP3    H225724   3.204   5.339   0.815 -0.3594 -0.6692 -0.4737
 1389TIP3   OH225725   4.893   4.603   1.114  0.3042 -0.0966  0.0870
 1389TIP3    H125726   4.979   4.634   1.088 -0.1613  0.6670 -0.5868
 1389TIP3    H225727   4.910   4.529   1.172  1.4028 -0.1493 -0.2944
 1390TIP3   OH225728   6.780   2.551   8.647 -0.0237  0.4990 -0.0196
 1390TIP3    H125729   6.781   2.617   8.717 -0.3886 -1.5175  1.9920
 1390TIP3    H225730   6.873   2.531   8.632  0.0571  0.9490 -0.1547
 1391TIP3   OH225731   1.326   5.777   7.932  0.3226 -0.4279  0.3452
 1391TIP3    H125732   1.403   5.731   7.966  0.0263 -0.2937  1.2300
 1391TIP3    H225733   1.274   5.797   8.010  0.2026  0.9740 -0.0656
 1392TIP3   OH225734   2.103   3.571   2.496 -0.6751  1.1011  0.5807
 1392TIP3    H125735   2.125   3.614   2.578  0.0699  1.5287  0.1729
 1392TIP3    H225736   2.187   3.541   2.461 -1.0805  0.1424  0.3996
 1393TIP3   OH225737   5.267   4.610   7.026  0.0873  0.5349 -0.3087
 1393TIP3    H125738   5.295   4.611   6.935  1.3376 -0.1207  0.0526
 1393TIP3    H225739   5.172   4.600   7.021  0.2250 -0.5071 -1.5316
 1394TIP3   OH225740   0.392   1.669   7.934 -0.5001  0.1967 -0.0140
 1394TIP3    H125741   0.328   1.599   7.923  1.0789 -1.2349 -0.6454
 1394TIP3    H225742   0.466   1.627   7.978  0.9105  1.1838 -1.3483
 1395TIP3   OH225743   3.047   1.932   1.688 -0.3038 -0.2011  0.3796
 1395TIP3    H125744   3.096   1.907   1.610 -1.3546 -0.1121 -0.3263
 1395TIP3    H225745   3.037   1.851   1.738  0.2802 -0.2782  0.3788
 1396TIP3   OH225746   3.037   3.948   7.845 -0.0311  0.0398 -0.2309
 1396TIP3    H125747   2.957   3.901   7.871 -0.1596 -0.3101 -1.2403
 1396TIP3    H225748   3.005   4.023   7.795  0.2980 -0.5939 -1.4108
 1397TIP3   OH225749   6.654   5.289   0.354  0.1091 -0.3716 -0.4641
 1397TIP3    H125750   6.675   5.200   0.327  0.9545 -0.5419  0.6910
 1397TIP3    H225751   6.728   5.341   0.325  0.2987 -0.2953  0.1574
 1398TIP3   OH225752   2.052   5.665   0.635  0.3664  0.2628  0.2520
 1398TIP3    H125753   2.066   5.735   0.570  1.5848 -0.4083 -0.2572
 1398TIP3    H225754   1.968   5.626   0.611 -0.0072  1.1226  0.1291
 1399TIP3   OH225755   3.738   6.636   6.889  0.1320  0.1162  0.7716
 1399TIP3    H125756   3.705   6.579   6.959  1.3773  1.4426  2.5315
 1399TIP3    H225757   3.816   6.590   6.856 -0.9593 -0.9441 -0.4130
 1400TIP3   OH225758   5.558   1.947   1.586  0.2793 -0.1325  0.0014
 1400TIP3    H125759   5.524   2.029   1.549 -1.5277 -0.7469  0.2045
 1400TIP3    H225760   5.645   1.970   1.620 -0.2266  1.7215  0.1367
 1401TIP3   OH225761   0.859   6.334   6.634  0.0270 -0.0347  0.2080
 1401TIP3    H125762   0.876   6.323   6.541 -0.1924 -0.6926  0.2422
 1401TIP3    H225763   0.765   6.315   6.644  0.3949 -1.7134  0.8084
 1402TIP3   OH225764   5.753   3.384   0.450 -0.5385 -0.2480  0.7397
 1402TIP3    H125765   5.694   3.412   0.381 -0.5620 -2.1637 -0.0806
 1402TIP3    H225766   5.825   3.447   0.448  0.4485 -1.3151 -2.3764
 1403TIP3   OH225767   0.987   0.004   0.309  0.4480  0.3869  0.0938
 1403TIP3    H125768   0.958  -0.034   0.392 -0.4136  2.3399  0.7497
 1403TIP3    H225769   0.941   0.088   0.304  1.3539  0.8168 -1.8327
 1404TIP3   OH225770   2.052   6.778   8.579  0.4805  0.1495 -0.0309
 1404TIP3    H125771   2.057   6.788   8.674  1.2311 -0.6322  0.0282
 1404TIP3    H225772   1.960   6.761   8.562  0.7081 -2.8132  0.9412
 1405TIP3   OH225773   5.953   3.463   8.219  0.1449  0.0663 -0.0465
 1405TIP3    H125774   5.912   3.537   8.173  0.1782  0.0129 -0.1612
 1405TIP3    H225775   6.046   3.486   8.222  0.1770 -0.0445 -0.2183
 1406TIP3   OH225776   0.501   5.191   2.100  0.1446 -0.2763  0.1020
 1406TIP3    H125777   0.466   5.217   2.014 -0.6591  0.6321  0.6860
 1406TIP3    H225778   0.461   5.252   2.162  2.4102  0.5227  0.8775
 1407TIP3   OH225779   1.734   2.554   0.209 -0.1844 -0.4860  0.2486
 1407TIP3    H125780   1.661   2.526   0.152  1.6585  1.5406 -3.4899
 1407TIP3    H225781   1.721   2.648   0.219  1.3365 -0.2737  0.3871
 1408TIP3   OH225782   5.920   0.544   2.261  1.0314 -0.7298  1.0270
 1408TIP3    H125783   5.906   0.606   2.332  1.0532  0.0318  0.3814
 1408TIP3    H225784   5.842   0.489   2.260 -1.7804  2.7662 -1.8678
 1409TIP3   OH225785   4.858   3.654   2.872 -0.1783  0.0220 -0.3066
 1409TIP3    H125786   4.861   3.729   2.932 -0.2015  0.7278 -1.1584
 1409TIP3    H225787   4.795   3.680   2.805  0.1865 -0.5521 -0.8836
 1410TIP3   OH225788   2.052   4.572   0.521 -0.2729 -0.0968  0.1958
 1410TIP3    H125789   2.075   4.565   0.429 -1.4219  1.6056 -0.2504
 1410TIP3    H225790   2.053   4.665   0.540 -1.6148 -0.3030  1.4794
 1411TIP3   OH225791   3.613   0.376   6.867  0.1999  0.2913 -0.1457
 1411TIP3    H125792   3.703   0.407   6.879  0.4430 -0.6835  0.8264
 1411TIP3    H225793   3.620   0.281   6.872 -1.1727  0.2316  2.5546
 1412TIP3   OH225794   6.661   3.505   1.560 -0.2224 -0.1959  0.8309
 1412TIP3    H125795   6.647   3.526   1.652 -0.6148  1.1261  0.4885
 1412TIP3    H225796   6.584   3.454   1.535  0.5413 -1.7912  1.5650
 1413TIP3   OH225797   5.990   2.072   2.278  0.1079 -0.3628  0.3848
 1413TIP3    H125798   5.898   2.046   2.271 -0.2273  0.7275  0.5066
 1413TIP3    H225799   6.022   2.029   2.356 -0.1808 -1.0920  0.1046
 1414TIP3   OH225800   1.881   1.660   7.976  1.4686 -0.4026  0.4110
 1414TIP3    H125801   1.859   1.749   7.951  1.5918 -0.4512  0.1129
 1414TIP3    H225802   1.809   1.631   8.032  0.4924 -0.7422 -0.9603
 1415TIP3   OH225803   0.540   2.245   1.045  0.4198 -0.0357  0.0103
 1415TIP3    H125804   0.581   2.296   1.115  0.5230 -0.9952  0.6725
 1415TIP3    H225805   0.579   2.279   0.964  0.8294  0.6046  0.4714
 1416TIP3   OH225806   6.656   6.414   7.142  0.3423 -0.7710 -0.1142
 1416TIP3    H125807   6.743   6.431   7.106 -0.2484  1.4721 -0.6110
 1416TIP3    H225808   6.612   6.362   7.074  0.9208 -0.9603 -0.3488
 1417TIP3   OH225809   3.467   4.491   8.710 -0.0508  0.2456 -0.0659
 1417TIP3    H125810   3.464   4.416   8.770 -0.6609 -0.0626 -0.4645
 1417TIP3    H225811   3.472   4.568   8.766 -2.0260  0.0468  0.4354
 1418TIP3   OH225812   1.090   3.191   7.446 -0.0512  0.2648 -0.4020
 1418TIP3    H125813   1.129   3.165   7.529 -0.0477 -1.0851 -0.8052
 1418TIP3    H225814   1.025   3.124   7.428  0.7449 -0.1140 -2.0554
 1419TIP3   OH225815   4.494   3.208   1.003 -0.3252  0.9736  0.2266
 1419TIP3    H125816   4.532   3.260   0.932 -0.2134  1.0840  0.3684
 1419TIP3    H225817   4.426   3.263   1.040 -0.4106  0.9001  0.1779
 1420TIP3   OH225818   4.028   2.512   1.069  0.0157 -0.6440  0.3133
 1420TIP3    H125819   4.049   2.592   1.116 -0.7788  0.1747 -0.6855
 1420TIP3    H225820   4.074   2.443   1.117  0.7659  0.4084  1.1466
 1421TIP3   OH225821   0.898   6.163   1.533  0.2999 -0.0662 -0.1494
 1421TIP3    H125822   0.853   6.131   1.611 -1.7483  1.7362 -0.4937
 1421TIP3    H225823   0.927   6.251   1.557  0.4020  0.1880 -1.1542
 1422TIP3   OH225824   5.275   5.125   0.183 -0.1865 -0.1130 -0.5856
 1422TIP3    H125825   5.266   5.034   0.153  0.7476 -0.2079 -0.6001
 1422TIP3    H225826   5.185   5.152   0.203 -0.4784 -1.0381 -0.5760
 1423TIP3   OH225827   0.248   1.313   1.895  0.2939  0.1691 -0.0458
 1423TIP3    H125828   0.227   1.279   1.808 -0.4625  1.8287 -0.5582
 1423TIP3    H225829   0.162   1.327   1.936  0.5758  1.1111  0.2484
 1424TIP3   OH225830   4.193   0.924   0.872  0.2676  0.1408 -0.1903
 1424TIP3    H125831   4.102   0.896   0.859 -0.2472  1.3102  0.6373
 1424TIP3    H225832   4.246   0.855   0.833 -0.9862 -0.4112 -0.9815
 1425TIP3   OH225833   6.742   2.060   2.110  0.1697 -0.1615 -0.0443
 1425TIP3    H125834   6.716   2.085   2.022  0.2521  1.5297  0.3853
 1425TIP3    H225835   6.827   2.018   2.100  0.5660  0.7686 -0.6973
 1426TIP3   OH225836   3.846   4.974   2.322 -0.1101 -0.5641 -0.3311
 1426TIP3    H125837   3.867   4.908   2.388  1.7538 -1.0977 -1.3920
 1426TIP3    H225838   3.923   4.977   2.266 -0.9422  1.1390 -1.4587
 1427TIP3   OH225839   3.006   0.862   2.151  0.6335 -0.0878  0.1356
 1427TIP3    H125840   2.934   0.921   2.173  0.1102 -0.0557 -1.4762
 1427TIP3    H225841   2.963   0.788   2.108  1.5753  0.2256 -1.4436
 1428TIP3   OH225842   1.474   6.012   8.112 -0.0636 -0.7777  0.2209
 1428TIP3    H125843   1.392   5.963   8.106 -1.0560  0.7940  0.3415
 1428TIP3    H225844   1.461   6.088   8.056  0.7526  0.2333  1.3380
 1429TIP3   OH225845   3.373   1.349   8.244  0.2061  0.3396  0.1134
 1429TIP3    H125846   3.370   1.404   8.322  2.5902  0.6332  0.0734
 1429TIP3    H225847   3.441   1.284   8.262  0.1514 -0.1733 -1.3497
 1430TIP3   OH225848   2.098   3.238   1.340  0.5265  0.6105 -0.5700
 1430TIP3    H125849   2.078   3.313   1.285 -0.1707  0.8755  0.0254
 1430TIP3    H225850   2.035   3.243   1.412  0.0026 -0.9171 -0.8676
 1431TIP3   OH225851   3.011   5.869   7.837  0.1378  0.2832 -0.8587
 1431TIP3    H125852   2.952   5.799   7.864  0.6218 -0.6377 -2.0883
 1431TIP3    H225853   2.992   5.942   7.896 -0.5927 -0.7822  0.2468
 1432TIP3   OH225854   1.325   1.967   7.126  0.4225  0.1538  0.0266
 1432TIP3    H125855   1.276   2.029   7.180  0.8201  0.7828 -0.3189
 1432TIP3    H225856   1.271   1.954   7.048  0.4144  0.1901  0.0263
 1433TIP3   OH225857   5.123   3.691   8.742  0.2970  0.8380 -0.4028
 1433TIP3    H125858   5.106   3.632   8.815 -1.8954  3.0030  1.0065
 1433TIP3    H225859   5.118   3.636   8.665  0.6427 -1.1915  0.9574
 1434TIP3   OH225860   0.354   4.164   0.202 -0.3909  0.4297 -0.1838
 1434TIP3    H125861   0.432   4.159   0.256 -0.1701  0.0321 -0.5356
 1434TIP3    H225862   0.285   4.193   0.262 -0.2305 -0.3469  0.3880
 1435TIP3   OH225863   5.985   0.903   8.510 -0.0433 -0.3193 -0.6788
 1435TIP3    H125864   5.912   0.884   8.451 -0.2910 -0.7165 -0.2444
 1435TIP3    H225865   5.982   0.834   8.576  0.4840 -0.1106 -0.4296
 1436TIP3   OH225866   5.890   2.194   7.648 -0.2906 -0.4448  0.2094
 1436TIP3    H125867   5.824   2.185   7.580  0.2614  0.7209 -0.5121
 1436TIP3    H225868   5.967   2.229   7.603 -0.5076  2.1992  1.6974
 1437TIP3   OH225869   0.717   4.266   8.405  0.1374  0.2964  0.1106
 1437TIP3    H125870   0.746   4.208   8.334 -0.0268  0.2553  0.0769
 1437TIP3    H225871   0.656   4.326   8.363  0.2755  0.4663  0.1546
 1438TIP3   OH225872   0.501   4.793   8.468 -0.6870  0.3044 -0.1854
 1438TIP3    H125873   0.559   4.772   8.540 -0.2626 -0.4991 -0.7532
 1438TIP3    H225874   0.526   4.882   8.442  2.4595 -1.0548 -2.3959
 1439TIP3   OH225875   2.602   6.420   1.131 -0.5147 -0.0804 -0.8317
 1439TIP3    H125876   2.663   6.353   1.099  0.3976 -0.3119  1.2564
 1439TIP3    H225877   2.533   6.371   1.174  0.2823  0.2608  0.9221
 1440TIP3   OH225878   5.882   5.983   1.343 -1.2105 -0.1124  0.1619
 1440TIP3    H125879   5.824   6.049   1.381 -0.0379 -0.1970  2.2553
 1440TIP3    H225880   5.950   6.033   1.300 -1.1935  0.0241  0.3468
 1441TIP3   OH225881   0.220   1.449   7.835  0.6079  0.8421 -0.3265
 1441TIP3    H125882   0.130   1.450   7.869  0.2249 -1.1050 -1.1467
 1441TIP3    H225883   0.210   1.433   7.741  1.8102  0.6618 -0.4386
 1442TIP3   OH225884   6.265   2.860   3.213 -0.3744  0.3851  0.3121
 1442TIP3    H125885   6.324   2.843   3.287 -0.0096 -0.8382 -0.2343
 1442TIP3    H225886   6.182   2.821   3.240 -0.2373 -0.0737  0.0815
 1443TIP3   OH225887   2.719   0.955   2.718  0.8583 -0.4924 -0.2632
 1443TIP3    H125888   2.702   0.989   2.806 -3.5200 -1.0708 -0.6869
 1443TIP3    H225889   2.753   0.867   2.733 -0.0305 -0.6606  0.8591
 1444TIP3   OH225890   0.016   3.413   8.353 -0.0404 -0.2254  0.0429
 1444TIP3    H125891   0.006   3.378   8.442 -0.9483  1.1248  0.5083
 1444TIP3    H225892   0.108   3.437   8.347  0.0928 -0.6019  0.5148
 1445TIP3   OH225893   3.946   1.647   2.523 -0.2512  0.2653  0.3932
 1445TIP3    H125894   4.026   1.600   2.500 -0.9444 -0.5690 -0.3840
 1445TIP3    H225895   3.963   1.737   2.496  0.3997  0.0829  0.1682
 1446TIP3   OH225896   5.393   5.550   0.822 -0.1921 -0.4079  0.7077
 1446TIP3    H125897   5.308   5.529   0.784  0.1722 -0.8396  0.1319
 1446TIP3    H225898   5.426   5.622   0.769  0.2029 -0.8462  0.3443
 1447TIP3   OH225899   2.085   3.786   0.874  0.0919 -0.0038 -0.4550
 1447TIP3    H125900   2.164   3.824   0.913  1.2539 -0.8897 -1.8317
 1447TIP3    H225901   2.057   3.851   0.809 -1.0460  0.8468  0.8283
 1448TIP3   OH225902   4.132   2.362   1.469  0.0996 -0.5173  1.1104
 1448TIP3    H125903   4.045   2.329   1.492 -0.8804  0.0320 -1.4414
 1448TIP3    H225904   4.126   2.457   1.482 -0.4245 -0.2169 -0.9727
 1449TIP3   OH225905   6.143   6.588   8.672  0.5466  0.0263 -0.3374
 1449TIP3    H125906   6.115   6.546   8.591  0.2123  0.3186 -0.3735
 1449TIP3    H225907   6.089   6.667   8.679 -0.4602 -0.7270  0.8969
 1450TIP3   OH225908   1.502   0.935   8.288  1.0025 -0.3889  0.3127
 1450TIP3    H125909   1.565   0.949   8.358  1.6763 -1.7375  0.0110
 1450TIP3    H225910   1.551   0.953   8.208  1.6891 -3.3401 -0.0501
 1451TIP3   OH225911   2.538   5.852   7.509  0.3036  0.2247 -0.4639
 1451TIP3    H125912   2.620   5.897   7.527  0.0568  0.3250  0.4857
 1451TIP3    H225913   2.551   5.810   7.424  1.6696 -0.5169  0.0867
 1452TIP3   OH225914   3.995   4.808   0.458 -0.1819 -0.1669 -0.0422
 1452TIP3    H125915   3.975   4.827   0.550 -4.6725 -0.6947 -0.6517
 1452TIP3    H225916   3.969   4.888   0.411  2.8068  0.3998 -0.9265
 1453TIP3   OH225917   1.533   3.543   1.456 -0.7279  0.0096  0.5992
 1453TIP3    H125918   1.482   3.605   1.404  1.0655  1.5612  0.6096
 1453TIP3    H225919   1.567   3.595   1.529 -1.6816 -1.7035  2.3864
 1454TIP3   OH225920   5.397   5.812   1.892  0.0407  0.0336  0.2126
 1454TIP3    H125921   5.376   5.858   1.973 -0.7332  0.1135 -0.0249
 1454TIP3    H225922   5.335   5.846   1.828  1.1497  0.5436 -0.6252
 1455TIP3   OH225923   6.274   2.244   1.632  0.3026 -0.4502 -0.3278
 1455TIP3    H125924   6.315   2.314   1.582 -0.0733 -0.2441 -0.3505
 1455TIP3    H225925   6.346   2.185   1.656  0.7235  0.2997  0.2837
 1456TIP3   OH225926   2.307   4.000   1.232  0.0397  0.9575  0.1870
 1456TIP3    H125927   2.293   3.906   1.229 -1.6111  1.1869  0.0178
 1456TIP3    H225928   2.377   4.016   1.167  1.3477 -0.2778  1.2434
 1457TIP3   OH225929   0.264   3.559   6.967  0.3690  0.0296  0.2321
 1457TIP3    H125930   0.200   3.610   6.919  0.5488  0.8050  0.7990
 1457TIP3    H225931   0.221   3.538   7.050  0.4497 -0.3816  0.1722
 1458TIP3   OH225932   5.880   5.245   1.175  0.5137 -0.6438  0.1707
 1458TIP3    H125933   5.854   5.335   1.196  0.1323 -0.9426  1.0235
 1458TIP3    H225934   5.830   5.191   1.236 -2.6862 -1.8079 -3.0740
 1459TIP3   OH225935   1.441   2.107   1.125  0.2170  0.6225  0.2488
 1459TIP3    H125936   1.436   2.090   1.031  2.1337  0.4951  0.1155
 1459TIP3    H225937   1.439   2.019   1.164 -0.3257  0.6610  0.3047
 1460TIP3   OH225938   0.178   2.277   0.066  0.2093 -0.5509  0.2214
 1460TIP3    H125939   0.185   2.313   0.155  2.8403  0.4957 -0.3105
 1460TIP3    H225940   0.263   2.236   0.051  0.2104  0.2011 -2.1770
 1461TIP3   OH225941   3.529   0.379   7.754 -0.8118  0.2738 -0.4286
 1461TIP3    H125942   3.597   0.442   7.777  0.7832 -1.0216 -1.4344
 1461TIP3    H225943   3.449   0.415   7.794  0.6549  1.1749  1.9022
 1462TIP3   OH225944   4.764   6.242   0.321  0.3883 -0.2189 -0.3080
 1462TIP3    H125945   4.725   6.157   0.297  0.2240  0.0005 -0.8490
 1462TIP3    H225946   4.845   6.246   0.269  0.7282 -0.3285  0.2125
 1463TIP3   OH225947   5.104   6.296   8.079 -0.0528 -0.3009  0.4247
 1463TIP3    H125948   5.147   6.221   8.120 -0.0254 -0.1439  0.6816
 1463TIP3    H225949   5.074   6.350   8.152 -1.0678 -0.6165  0.2624
 1464TIP3   OH225950   3.951   5.269   7.867  0.4229  0.3552  0.0522
 1464TIP3    H125951   3.906   5.185   7.871  1.8212 -0.5311 -1.2575
 1464TIP3    H225952   3.989   5.281   7.954  0.2249 -0.3829  0.2469
 1465TIP3   OH225953   1.559   5.228   0.554 -0.0746  0.4023 -0.8374
 1465TIP3    H125954   1.611   5.158   0.514  0.7987  0.3154  0.3926
 1465TIP3    H225955   1.580   5.305   0.502  1.7979  0.5017 -0.0216
 1466TIP3   OH225956   5.835   4.219   8.557 -0.4832  0.2557  0.2069
 1466TIP3    H125957   5.906   4.282   8.567 -0.4031  0.0299  1.1854
 1466TIP3    H225958   5.774   4.240   8.628 -1.8206  0.9723 -1.0966
 1467TIP3   OH225959   0.026   5.220   2.143 -0.3159  0.3115  0.6062
 1467TIP3    H125960  -0.032   5.144   2.136 -0.5430  0.5488 -0.1531
 1467TIP3    H225961   0.101   5.188   2.192 -1.5040  0.2620  2.4992
 1468TIP3   OH225962   6.462   2.057   1.743  0.3403 -0.1741  0.3982
 1468TIP3    H125963   6.498   1.993   1.804 -0.4635 -1.0658 -0.0359
 1468TIP3    H225964   6.437   2.005   1.666  2.5019  1.0515 -1.2648
 1469TIP3   OH225965   4.649   2.513   1.828  0.4241 -0.0195  0.4545
 1469TIP3    H125966   4.646   2.591   1.773 -0.6044  0.2710  0.8938
 1469TIP3    H225967   4.673   2.442   1.768 -0.9365  0.2388 -0.4448
 1470TIP3   OH225968   4.564   4.509   7.327 -0.0532 -0.0963 -0.2346
 1470TIP3    H125969   4.592   4.443   7.262 -0.8295  0.4718 -1.1757
 1470TIP3    H225970   4.476   4.480   7.353  0.2382 -0.2959  0.5484
 1471TIP3   OH225971   1.237   2.484   7.994 -0.1925 -0.3391 -0.3515
 1471TIP3    H125972   1.207   2.574   8.006 -1.6671 -0.9644  1.0840
 1471TIP3    H225973   1.298   2.469   8.067 -0.4458 -0.6843 -0.2056
 1472TIP3   OH225974   3.669   2.156   8.584 -0.6842  0.5282 -0.2418
 1472TIP3    H125975   3.624   2.140   8.667 -0.3445  0.5020 -0.0613
 1472TIP3    H225976   3.739   2.091   8.581  0.0598  1.2871  0.0216
 1473TIP3   OH225977   4.652   4.284   0.114 -0.6341 -0.5738  0.5712
 1473TIP3    H125978   4.648   4.374   0.145  0.3831 -0.9404  1.8929
 1473TIP3    H225979   4.593   4.281   0.039  1.6734  1.9621 -1.5284
 1474TIP3   OH225980   3.233   1.430   6.967 -0.1649  0.2591  0.1648
 1474TIP3    H125981   3.214   1.513   7.010 -1.1169  0.2438 -0.2173
 1474TIP3    H225982   3.324   1.411   6.992 -0.5493  0.4459  1.8396
 1475TIP3   OH225983   3.365   4.142   8.009  0.4291 -0.1106  0.6846
 1475TIP3    H125984   3.388   4.165   8.100 -1.4246 -0.9498  1.4180
 1475TIP3    H225985   3.282   4.095   8.017  0.8186 -1.2418 -1.3665
 1476TIP3   OH225986   4.968   0.823   1.804 -0.0782  0.5225 -0.7215
 1476TIP3    H125987   4.972   0.810   1.899  1.4045 -0.6000 -0.9122
 1476TIP3    H225988   4.891   0.774   1.776  1.8947 -2.9986 -0.5963
 1477TIP3   OH225989   2.053   2.678   1.018  0.0971  0.4240  0.0874
 1477TIP3    H125990   2.035   2.771   1.026 -0.4584  0.5392 -1.9271
 1477TIP3    H225991   2.122   2.672   0.952  0.8270 -0.5578  0.8987
 1478TIP3   OH225992   5.294   2.193   7.684  0.6348  0.1387  1.0698
 1478TIP3    H125993   5.378   2.147   7.688  0.7297  0.4070  4.3624
 1478TIP3    H225994   5.306   2.270   7.740 -1.1572  1.4012 -0.1746
 1479TIP3   OH225995   4.780   6.391   8.064 -0.8187 -0.1293 -0.2294
 1479TIP3    H125996   4.736   6.423   8.143  0.8674  1.1652  0.2432
 1479TIP3    H225997   4.786   6.296   8.077  0.5707  0.1752  1.8509
 1480TIP3   OH225998   6.726   0.004   0.311 -0.1587 -0.5444 -0.2418
 1480TIP3    H125999   6.633   0.016   0.327 -0.0138  1.5197 -0.6477
 1480TIP3    H226000   6.749  -0.077   0.357 -2.0493 -0.8788  0.1730
 1481TIP3   OH226001   6.326   5.216   8.011 -0.5534  0.1775 -0.2868
 1481TIP3    H126002   6.370   5.203   8.095 -2.5478 -1.5174  0.5884
 1481TIP3    H226003   6.353   5.141   7.958 -2.6058 -1.1392  0.4236
 1482TIP3   OH226004   5.581   2.436   1.120  0.3998  0.0742 -0.5243
 1482TIP3    H126005   5.662   2.400   1.155  2.0721  0.5240 -3.5671
 1482TIP3    H226006   5.533   2.359   1.089  0.8277 -0.0393 -0.9227
 1483TIP3   OH226007   2.640   5.555   0.493  0.5578  0.4575 -0.2601
 1483TIP3    H126008   2.633   5.530   0.585  0.1433 -1.0909 -0.6875
 1483TIP3    H226009   2.550   5.567   0.465  0.6957  1.2509 -0.4095
 1484TIP3   OH226010   1.734   5.205   6.662  0.1616 -0.0143 -0.0330
 1484TIP3    H126011   1.687   5.288   6.657  1.1508  0.6179  0.8734
 1484TIP3    H226012   1.816   5.220   6.616 -0.6054 -1.2282 -1.9301
 1485TIP3   OH226013   6.015   4.505   7.733  1.0678 -0.6733 -0.1737
 1485TIP3    H126014   6.002   4.533   7.643  1.9419  0.7072  0.0929
 1485TIP3    H226015   5.950   4.436   7.747 -0.8840  0.9008 -1.0551
 1486TIP3   OH226016   4.999   4.151   0.763  0.0701 -0.2044  0.1509
 1486TIP3    H126017   5.061   4.142   0.691 -0.3067 -0.0701 -0.1912
 1486TIP3    H226018   4.927   4.093   0.741  0.2185 -0.6075  0.7098
 1487TIP3   OH226019   5.993   1.974   7.788  0.3809  0.7088 -0.1121
 1487TIP3    H126020   5.959   2.053   7.746 -0.0458  0.6783  0.1740
 1487TIP3    H226021   5.916   1.931   7.824  0.5559 -0.0705 -0.6556
 1488TIP3   OH226022   1.338   4.243   8.566 -0.3112 -0.0007  0.2615
 1488TIP3    H126023   1.392   4.177   8.524 -0.3569 -0.6734  1.2349
 1488TIP3    H226024   1.258   4.247   8.512 -0.1411 -0.4393 -0.0245
 1489TIP3   OH226025   1.408   1.815   0.965 -0.2614  0.7224 -0.7426
 1489TIP3    H126026   1.337   1.796   0.904 -0.1960 -1.8546 -0.1154
 1489TIP3    H226027   1.488   1.795   0.915 -0.1975 -1.0225 -0.0158
 1490TIP3   OH226028   0.810   2.637   6.964 -0.0497 -0.3262 -0.1839
 1490TIP3    H126029   0.889   2.636   7.018  1.3649  0.1972 -2.1051
 1490TIP3    H226030   0.817   2.559   6.909 -0.6512 -0.0410 -0.6846
 1491TIP3   OH226031   4.834   0.925   0.906 -0.2450 -0.9180 -0.4857
 1491TIP3    H126032   4.774   0.879   0.847 -0.3990 -1.9310  0.4239
 1491TIP3    H226033   4.860   1.003   0.858 -1.2971 -1.1115 -1.4083
 1492TIP3   OH226034   0.481   1.451   1.354 -0.6301 -0.3925 -0.0322
 1492TIP3    H126035   0.441   1.506   1.421  0.7413 -2.1678  2.4315
 1492TIP3    H226036   0.407   1.407   1.311 -1.5901  1.5689 -0.4763
 1493TIP3   OH226037   2.942   3.996   2.446  0.1513  0.2737  0.2490
 1493TIP3    H126038   2.986   4.078   2.472  1.4132  0.0975 -1.1968
 1493TIP3    H226039   2.850   4.021   2.436  0.6164  1.7188 -0.8446
 1494TIP3   OH226040   5.690   4.766   1.844 -0.1220 -0.3796  0.4210
 1494TIP3    H126041   5.652   4.844   1.805 -0.0587  0.8069  2.5656
 1494TIP3    H226042   5.698   4.704   1.772  1.2016  2.0557 -1.6676
 1495TIP3   OH226043   5.347   6.375   2.519  0.1881  0.1651  0.4177
 1495TIP3    H126044   5.349   6.454   2.466  1.1181  0.3458  0.7118
 1495TIP3    H226045   5.254   6.351   2.522 -0.0321  0.8968 -0.1719
 1496TIP3   OH226046   6.263   4.875   8.620 -0.9738  0.0333  0.1522
 1496TIP3    H126047   6.292   4.897   8.709  1.3945  0.2231 -0.6073
 1496TIP3    H226048   6.264   4.779   8.617  0.7992  0.0179 -0.1620
 1497TIP3   OH226049   3.856   1.954   1.834 -0.2803  0.2483 -0.7331
 1497TIP3    H126050   3.915   1.979   1.764  1.3320  0.1548  0.5324
 1497TIP3    H226051   3.853   2.030   1.892  1.3093 -0.8763  0.9336
 1498TIP3   OH226052   5.730   5.208   8.275 -0.2851  0.5199 -0.3638
 1498TIP3    H126053   5.789   5.271   8.234  2.0118 -1.5721 -0.5011
 1498TIP3    H226054   5.765   5.122   8.251 -1.5737 -0.8244  2.1112
 1499TIP3   OH226055   1.018   4.873   8.205 -0.0578 -0.3814  0.0259
 1499TIP3    H126056   0.964   4.940   8.247  1.5292  1.5035 -0.7713
 1499TIP3    H226057   1.008   4.890   8.111  2.1301  0.2974 -0.1507
 1500TIP3   OH226058   0.153   3.165   8.547 -0.8203  0.1284  0.1363
 1500TIP3    H126059   0.100   3.238   8.578  0.4747  0.3276  2.0855
 1500TIP3    H226060   0.092   3.092   8.538 -1.8619  1.0264 -0.3725
 1501TIP3   OH226061   1.499   2.296   7.268 -0.3803 -0.1118 -0.2069
 1501TIP3    H126062   1.441   2.220   7.262  0.8421 -1.0535 -0.6282
 1501TIP3    H226063   1.577   2.270   7.220  0.0251  1.4830 -0.4758
 1502TIP3   OH226064   2.246   4.985   0.707  0.0395  0.5822  0.0662
 1502TIP3    H126065   2.255   4.986   0.803  0.3266 -0.6138  0.0562
 1502TIP3    H226066   2.281   5.070   0.679  1.7682  0.1615  0.8634
 1503TIP3   OH226067   3.970   0.279   7.217 -0.2962  0.3954  0.6596
 1503TIP3    H126068   3.963   0.374   7.223  2.9317  0.7083  1.4224
 1503TIP3    H226069   4.006   0.262   7.130 -0.1564 -0.0324  0.7938
 1504TIP3   OH226070   0.107   4.233   1.636  0.7832 -0.2360 -0.5343
 1504TIP3    H126071   0.018   4.268   1.643  0.7882  0.0365 -1.7206
 1504TIP3    H226072   0.109   4.187   1.552  0.9007 -2.7800  0.7601
 1505TIP3   OH226073   0.153   1.003   1.486  0.2735  0.0769  0.0681
 1505TIP3    H126074   0.138   0.910   1.468 -1.9701  1.0305 -4.6714
 1505TIP3    H226075   0.103   1.021   1.566 -0.4292 -2.4902  0.2962
 1506TIP3   OH226076   2.312   4.211   8.364 -0.0426 -0.1311  0.1530
 1506TIP3    H126077   2.368   4.287   8.350 -2.1405  1.4673 -0.1502
 1506TIP3    H226078   2.244   4.242   8.423 -1.6829 -1.3890 -0.9697
 1507TIP3   OH226079   1.635   2.837   2.435  0.7943  0.4013  0.3103
 1507TIP3    H126080   1.617   2.878   2.519  0.5817 -1.1592  1.0584
 1507TIP3    H226081   1.722   2.798   2.446  0.2249 -0.9117  0.2625
 1508TIP3   OH226082   5.194   4.338   0.331 -0.2137  0.2517 -0.9355
 1508TIP3    H126083   5.246   4.302   0.259  2.2289  1.0723  0.3308
 1508TIP3    H226084   5.193   4.268   0.396 -0.5787  0.3076 -0.8778
 1509TIP3   OH226085   4.979   1.942   7.100 -0.2446 -0.5859 -0.4798
 1509TIP3    H126086   4.965   1.901   7.014  0.7099  0.1242 -1.0084
 1509TIP3    H226087   4.918   1.898   7.158 -0.6566 -1.3485 -1.4493
 1510TIP3   OH226088   6.095   4.573   0.322  0.2312 -0.1442 -0.2639
 1510TIP3    H126089   6.014   4.532   0.353 -0.2209 -0.3589 -1.6946
 1510TIP3    H226090   6.114   4.640   0.389 -0.4216 -0.9271  0.7424
 1511TIP3   OH226091   0.267   0.344   2.249 -0.3782 -0.2900  0.7387
 1511TIP3    H126092   0.315   0.385   2.321 -0.2748  1.2730 -0.1711
 1511TIP3    H226093   0.198   0.408   2.228 -0.9857 -1.1534  0.0648
 1512TIP3   OH226094   5.333   0.286   2.395  0.1513  0.2073  0.1507
 1512TIP3    H126095   5.404   0.338   2.433  0.6824  0.6111 -1.3314
 1512TIP3    H226096   5.296   0.343   2.327 -0.5071 -0.6409 -0.2175
 1513TIP3   OH226097   4.016   5.991   1.819 -0.0374 -0.6470  0.1617
 1513TIP3    H126098   4.102   6.033   1.821 -0.3500  0.0292 -0.2989
 1513TIP3    H226099   3.966   6.041   1.755  0.2494 -3.0220 -2.1088
 1514TIP3   OH226100   4.798   5.501   8.093 -0.6662 -0.0972 -0.0274
 1514TIP3    H126101   4.748   5.517   8.013 -0.0398 -0.9839 -0.6128
 1514TIP3    H226102   4.830   5.587   8.119  3.5141 -0.1749 -3.6767
 1515TIP3   OH226103   2.838   0.707   0.636 -0.6774  0.0987 -0.2261
 1515TIP3    H126104   2.771   0.671   0.694  0.2539 -2.0307 -0.3912
 1515TIP3    H226105   2.921   0.675   0.671 -0.0369 -0.6234 -2.2750
 1516TIP3   OH226106   0.921   5.869   1.477  0.4663  0.2864 -0.0216
 1516TIP3    H126107   0.945   5.961   1.465 -0.5881  0.6267  0.3961
 1516TIP3    H226108   0.896   5.839   1.389  2.8416 -0.2397 -0.5907
 1517TIP3   OH226109   0.002   4.253   2.649  0.5799 -0.6776 -0.0435
 1517TIP3    H126110   0.008   4.212   2.736  2.5842  0.0469  0.2096
 1517TIP3    H226111  -0.037   4.185   2.594 -2.0981 -0.6928  1.6388
 1518TIP3   OH226112   5.591   2.844   2.337  0.1707 -0.2855 -0.0921
 1518TIP3    H126113   5.539   2.795   2.401  1.1607  0.0900  1.0350
 1518TIP3    H226114   5.671   2.866   2.384  1.3752 -0.8612 -1.7786
 1519TIP3   OH226115   2.054   4.249   0.803  0.6926  0.2073 -0.4678
 1519TIP3    H126116   2.143   4.220   0.782  0.4312 -1.4539  0.5282
 1519TIP3    H226117   2.004   4.168   0.810 -0.8394  1.0982 -0.6617
 1520TIP3   OH226118   0.397   5.744   6.802 -0.1160  0.7801  0.0200
 1520TIP3    H126119   0.334   5.697   6.856  0.6383 -1.7687 -1.1755
 1520TIP3    H226120   0.468   5.681   6.788  0.4254  1.8677 -2.6509
 1521TIP3   OH226121   2.250   3.199   8.296 -0.2914  0.3691 -0.1314
 1521TIP3    H126122   2.333   3.169   8.260 -0.2027  1.7240 -1.1524
 1521TIP3    H226123   2.183   3.154   8.245 -0.1984 -0.2467  0.2752
 1522TIP3   OH226124   0.199   1.599   0.623  0.2705 -0.4614 -0.6347
 1522TIP3    H126125   0.281   1.637   0.656  0.3074 -1.6985  0.7757
 1522TIP3    H226126   0.215   1.586   0.529  1.0515  0.8644 -0.7202
 1523TIP3   OH226127   3.292   1.739   1.263 -0.3665 -0.1789 -0.5593
 1523TIP3    H126128   3.379   1.699   1.256  0.5904  1.3330  1.4806
 1523TIP3    H226129   3.231   1.671   1.234  1.3621 -2.0083 -0.1082
 1524TIP3   OH226130   0.374   5.719   1.667 -0.2178  0.5005 -0.3713
 1524TIP3    H126131   0.335   5.631   1.660 -1.0970  0.8561 -0.0718
 1524TIP3    H226132   0.440   5.721   1.598  0.3376 -0.6584  0.0915
 1525TIP3   OH226133   1.816   6.122   1.048 -0.5192  0.3930  0.1717
 1525TIP3    H126134   1.831   6.046   0.992 -1.3461 -0.8457  1.5626
 1525TIP3    H226135   1.863   6.102   1.129 -2.3805  0.4054  1.3071
 1526TIP3   OH226136   6.634   1.820   0.959  0.1172 -0.2956  0.0887
 1526TIP3    H126137   6.699   1.761   0.996  1.1198  0.8789  0.2649
 1526TIP3    H226138   6.597   1.866   1.034  0.0708  0.0140 -0.1187
 1527TIP3   OH226139   4.718   4.304   0.893 -0.4745  0.2780  0.2013
 1527TIP3    H126140   4.791   4.242   0.902  0.3368  1.2917  0.8752
 1527TIP3    H226141   4.669   4.272   0.817  0.6814 -0.4267 -0.2892
 1528TIP3   OH226142   2.549   3.784   1.226 -0.1494 -0.2212  0.3829
 1528TIP3    H126143   2.580   3.868   1.191  0.6116 -0.2072  1.0772
 1528TIP3    H226144   2.533   3.731   1.148 -1.8458  0.9490 -0.1424
 1529TIP3   OH226145   2.837   3.777   8.376  0.5033 -0.3235 -0.4605
 1529TIP3    H126146   2.895   3.848   8.350 -2.1031  2.1876  0.0578
 1529TIP3    H226147   2.824   3.790   8.470 -0.5308 -1.1083 -0.4775
 1530TIP3   OH226148   3.353   0.596   8.467  0.7432 -0.5496 -0.1461
 1530TIP3    H126149   3.324   0.505   8.471 -0.6962 -0.2530 -2.1004
 1530TIP3    H226150   3.286   0.645   8.514  0.4138 -0.3187 -0.8366
 1531TIP3   OH226151   0.952   3.629   1.797 -0.3229 -0.0452 -0.0115
 1531TIP3    H126152   0.975   3.672   1.715 -1.6444 -0.0336 -0.4029
 1531TIP3    H226153   0.856   3.634   1.800 -0.2908  0.2213  1.6717
 1532TIP3   OH226154   6.789   6.205   7.945 -0.6732 -0.1006 -0.8999
 1532TIP3    H126155   6.862   6.189   7.885  0.6788  0.8579  0.4424
 1532TIP3    H226156   6.805   6.145   8.018 -2.1751 -1.0836 -1.3250
 1533TIP3   OH226157   5.241   2.054   0.393 -0.7497  0.2226 -0.1727
 1533TIP3    H126158   5.314   2.005   0.430 -1.5867 -0.0541  1.2156
 1533TIP3    H226159   5.274   2.090   0.311  0.5411 -0.9136 -0.1783
 1534TIP3   OH226160   6.042   2.867   0.562 -0.1833  0.0609 -0.0503
 1534TIP3    H126161   6.053   2.777   0.529  1.1206  0.6590 -1.3637
 1534TIP3    H226162   6.124   2.910   0.540 -0.9347  1.6965  0.2406
 1535TIP3   OH226163   6.727   3.952   8.377 -0.0333 -0.5321  0.0786
 1535TIP3    H126164   6.758   4.023   8.433 -1.6053  1.3550 -1.3029
 1535TIP3    H226165   6.641   3.929   8.413 -1.7297  1.6924 -2.1940
 1536TIP3   OH226166   0.347   4.427   2.925 -0.6791  0.4518  0.1000
 1536TIP3    H126167   0.345   4.357   2.859  0.9033  0.8469 -0.4325
 1536TIP3    H226168   0.271   4.410   2.981 -0.7050 -1.3130 -0.3983
 1537TIP3   OH226169   6.173   5.786   7.156  0.0818  0.3764  0.2212
 1537TIP3    H126170   6.105   5.786   7.089  1.3145 -0.5640 -1.0857
 1537TIP3    H226171   6.203   5.877   7.161  0.4706  0.3308 -1.0525
 1538TIP3   OH226172   2.506   3.520   1.404 -0.0839 -0.1329  0.7228
 1538TIP3    H126173   2.555   3.481   1.332 -1.7204  1.3260 -1.2761
 1538TIP3    H226174   2.417   3.531   1.370 -0.6306  1.6982  2.5421
 1539TIP3   OH226175   6.689   1.604   8.241  0.4810 -0.0579 -0.3372
 1539TIP3    H126176   6.749   1.601   8.315 -0.6474 -0.9006  0.5923
 1539TIP3    H226177   6.710   1.685   8.196 -0.2069  1.6252  2.1533
 1540TIP3   OH226178   0.866   5.679   8.742  0.1886 -0.9182 -0.1410
 1540TIP3    H126179   0.801   5.713   8.803  0.2174  2.1876 -1.6832
 1540TIP3    H226180   0.822   5.607   8.698 -0.4476 -2.0483  2.1431
 1541TIP3   OH226181   5.980   0.092   1.408  0.4099 -0.2035  0.4644
 1541TIP3    H126182   5.958   0.161   1.346 -0.9104 -0.1931  0.9041
 1541TIP3    H226183   5.895   0.053   1.432  1.1258 -2.0375  0.1649
 1542TIP3   OH226184   0.981   2.758   7.558 -0.1164 -0.5910 -0.8402
 1542TIP3    H126185   0.895   2.742   7.596  0.0189  0.5332 -0.0172
 1542TIP3    H226186   0.984   2.700   7.482 -0.5966 -2.5011  0.5336
 1543TIP3   OH226187   3.772   1.862   8.297  0.2388  0.4286  0.6432
 1543TIP3    H126188   3.780   1.875   8.202  0.8002 -0.8970  0.4829
 1543TIP3    H226189   3.855   1.896   8.332  0.9993 -1.0601  0.3957
 1544TIP3   OH226190   6.240   5.416   8.457 -0.0219 -0.2153 -0.0689
 1544TIP3    H126191   6.225   5.322   8.468 -0.5431  0.1154  3.4266
 1544TIP3    H226192   6.273   5.426   8.368 -0.1835 -3.6543 -0.6293
 1545TIP3   OH226193   5.125   5.302   7.690  0.0600  0.2349  0.4999
 1545TIP3    H126194   5.139   5.210   7.710  0.4430  0.7203  2.7220
 1545TIP3    H226195   5.129   5.346   7.775  2.8453  2.6856 -0.7212
 1546TIP3   OH226196   1.637   4.720   8.199 -0.7231 -0.1034  0.2307
 1546TIP3    H126197   1.633   4.792   8.262  0.6929  2.4540 -2.3567
 1546TIP3    H226198   1.712   4.668   8.227 -1.1340 -0.0087  1.5723
 1547TIP3   OH226199   3.560   1.637   1.242  0.0506  0.3424  0.2178
 1547TIP3    H126200   3.644   1.640   1.287 -0.0345  2.4527  0.3453
 1547TIP3    H226201   3.574   1.580   1.167  2.0537  1.7196 -0.5374
 1548TIP3   OH226202   1.943   4.610   8.169 -0.1351  0.5654  0.3412
 1548TIP3    H126203   1.960   4.704   8.166  3.0991  0.0705 -0.7638
 1548TIP3    H226204   1.985   4.581   8.250  0.7904 -0.1898 -0.3882
 1549TIP3   OH226205   4.568   0.260   1.700 -0.5803  0.8311 -0.5389
 1549TIP3    H126206   4.516   0.321   1.647  0.8545 -0.6855 -4.0356
 1549TIP3    H226207   4.651   0.307   1.715 -0.5012  0.7824 -0.8161
 1550TIP3   OH226208   6.794   1.972   7.935  0.0720  0.1975 -0.0110
 1550TIP3    H126209   6.859   2.015   7.990 -1.8234  2.6651  0.4426
 1550TIP3    H226210   6.786   2.028   7.859 -0.3900 -0.9576 -0.8461
 1551TIP3   OH226211   4.037   0.767   0.303 -0.0274  0.0407 -0.4167
 1551TIP3    H126212   4.063   0.851   0.341  1.8133  0.0023 -1.4283
 1551TIP3    H226213   4.044   0.781   0.208  1.3964 -1.5142 -0.5934
 1552TIP3   OH226214   4.492   0.549   8.130  0.2286 -0.0945 -0.2028
 1552TIP3    H126215   4.469   0.505   8.212  0.0968  0.5768  0.1280
 1552TIP3    H226216   4.588   0.548   8.129  0.2228 -0.7067 -0.3755
 1553TIP3   OH226217   3.865   3.167   0.181  0.1681  0.3191  0.0803
 1553TIP3    H126218   3.938   3.105   0.173  0.1789  0.3959 -0.4396
 1553TIP3    H226219   3.826   3.169   0.094 -0.0369  0.7925  0.1836
 1554TIP3   OH226220   5.840   2.516   1.308 -0.0013 -0.3279 -0.0826
 1554TIP3    H126221   5.824   2.422   1.300 -0.8161 -0.1971 -0.0867
 1554TIP3    H226222   5.815   2.537   1.398  0.8543 -0.2423  0.1350
 1555TIP3   OH226223   3.218   3.529   1.888 -0.2092  0.5823  0.0752
 1555TIP3    H126224   3.206   3.522   1.982 -1.3497 -0.7409 -0.1448
 1555TIP3    H226225   3.145   3.582   1.857  0.2197  1.1032 -0.0570
 1556TIP3   OH226226   3.562   3.091   1.470 -0.0154  0.7930  0.3169
 1556TIP3    H126227   3.591   3.005   1.439  0.8690  0.5721  1.6987
 1556TIP3    H226228   3.641   3.144   1.471  0.0314  0.7522  2.2688
 1557TIP3   OH226229   4.313   0.366   1.623 -0.1345 -0.0234  0.2330
 1557TIP3    H126230   4.280   0.281   1.593  0.4402 -0.5531  1.0600
 1557TIP3    H226231   4.308   0.362   1.718 -0.4268  1.0151  0.2706
 1558TIP3   OH226232   5.696   3.076   7.954 -0.1912  0.0329  0.6547
 1558TIP3    H126233   5.671   2.986   7.933  0.3476  0.0089  0.0980
 1558TIP3    H226234   5.723   3.073   8.046 -2.5175  0.1289  1.4144
 1559TIP3   OH226235   4.638   1.258   8.331 -0.0942 -0.3019  0.6452
 1559TIP3    H126236   4.727   1.238   8.303 -0.4560  0.7736 -1.5276
 1559TIP3    H226237   4.649   1.317   8.405  0.9744 -0.9921  1.0596
 1560TIP3   OH226238   1.244   0.929   7.341 -0.0529 -0.0794 -0.0279
 1560TIP3    H126239   1.219   1.010   7.297 -1.5924  0.2094  1.2819
 1560TIP3    H226240   1.333   0.945   7.373  0.1122  0.6362 -0.8132
 1561TIP3   OH226241   0.041   1.549   7.660  0.3248  0.2314 -0.4880
 1561TIP3    H126242   0.005   1.532   7.747 -1.3658 -0.2397 -1.2564
 1561TIP3    H226243   0.061   1.642   7.661  1.8309 -0.0493  0.9160
 1562TIP3   OH226244   3.964   1.409   8.057 -0.4128 -0.1780  0.7442
 1562TIP3    H126245   3.906   1.346   8.014 -0.0811  0.4993 -0.7579
 1562TIP3    H226246   3.996   1.464   7.986  4.0349 -1.9742  1.0180
 1563TIP3   OH226247   5.847   4.615   1.336 -0.5584 -0.4471 -0.0755
 1563TIP3    H126248   5.758   4.636   1.364 -0.5622 -0.9799  0.3382
 1563TIP3    H226249   5.893   4.699   1.334 -0.6947 -0.3372  1.0460
 1564TIP3   OH226250   6.603   4.918   1.541 -0.2169  0.4404  0.4403
 1564TIP3    H126251   6.611   4.974   1.619  1.4406  1.3685 -0.3437
 1564TIP3    H226252   6.652   4.839   1.562  1.7333  1.4080 -0.2284
 1565TIP3   OH226253   4.139   4.090   2.898  0.0613  0.1285 -0.2522
 1565TIP3    H126254   4.086   4.019   2.861  1.3917 -0.2255 -1.5947
 1565TIP3    H226255   4.205   4.107   2.831  2.1820 -0.0199  1.6761
 1566TIP3   OH226256   2.496   4.644   7.473 -0.2103 -0.2614 -0.0456
 1566TIP3    H126257   2.436   4.570   7.470 -0.5034 -0.0410  0.3842
 1566TIP3    H226258   2.516   4.663   7.381  0.8523 -1.6653 -0.1398
 1567TIP3   OH226259   1.658   3.382   0.837  0.0224 -0.4274  0.5321
 1567TIP3    H126260   1.667   3.469   0.876  0.2599 -0.1251 -0.1889
 1567TIP3    H226261   1.683   3.322   0.907  0.3715  0.1023  0.8670
 1568TIP3   OH226262   1.947   5.078   2.886 -0.5216  0.0363  0.2082
 1568TIP3    H126263   1.895   5.033   2.819 -1.4359  3.2000 -1.3938
 1568TIP3    H226264   2.017   5.016   2.907 -2.6468 -2.8297 -0.4177
 1569TIP3   OH226265   5.712   6.409   0.699  0.2816 -0.0536 -0.7328
 1569TIP3    H126266   5.682   6.500   0.710 -0.0619 -0.2855  0.4625
 1569TIP3    H226267   5.774   6.396   0.771 -1.0258 -1.3048  0.2248
 1570TIP3   OH226268   5.971   5.164   0.465 -0.1689  0.1701 -0.4404
 1570TIP3    H126269   5.885   5.189   0.499 -1.3975 -0.2484 -2.9866
 1570TIP3    H226270   5.961   5.072   0.442  0.3674  0.5716 -2.4062
 1571TIP3   OH226271   1.739   0.436   3.002 -0.2041  0.9277 -0.3978
 1571TIP3    H126272   1.731   0.365   3.066 -3.5158  0.2682 -1.3653
 1571TIP3    H226273   1.822   0.418   2.958 -1.0105 -2.6131 -0.7801
 1572TIP3   OH226274   5.140   6.222   7.155 -0.2649 -0.2974  0.3706
 1572TIP3    H126275   5.050   6.246   7.134 -0.7295 -0.4110  2.0633
 1572TIP3    H226276   5.174   6.183   7.074 -0.9538  1.8097 -1.0169
 1573TIP3   OH226277   5.364   1.056   0.893  0.0463 -0.3616  0.0461
 1573TIP3    H126278   5.289   1.089   0.844  0.1522 -0.1485  0.0253
 1573TIP3    H226279   5.406   1.134   0.928  0.1477 -0.4933  0.2199
 1574TIP3   OH226280   2.807   5.804   2.444  0.1239 -0.7975  0.3228
 1574TIP3    H126281   2.729   5.752   2.462  0.3448 -0.8887  1.0632
 1574TIP3    H226282   2.837   5.833   2.531 -2.5160  4.3773 -0.1047
 1575TIP3   OH226283   3.691   2.777   0.186  0.3072 -0.3461  0.4739
 1575TIP3    H126284   3.633   2.843   0.148 -0.5770 -1.5742 -0.3635
 1575TIP3    H226285   3.696   2.708   0.120 -1.1958 -2.5220  2.4642
 1576TIP3   OH226286   0.051   0.389   1.386  0.1384 -0.4355  0.1504
 1576TIP3    H126287   0.003   0.359   1.308  0.4402 -0.6985  0.0625
 1576TIP3    H226288   0.074   0.308   1.432 -0.9010 -0.2401  1.0372
 1577TIP3   OH226289   3.745   6.640   8.276 -0.2270  0.2825 -0.6808
 1577TIP3    H126290   3.807   6.567   8.287  0.0823  0.4378 -1.3805
 1577TIP3    H226291   3.774   6.685   8.197 -0.7186  0.8757 -0.5304
 1578TIP3   OH226292   1.213   2.159   7.289  0.3426  0.6349 -0.4675
 1578TIP3    H126293   1.196   2.118   7.374 -1.1078  1.2812 -0.4100
 1578TIP3    H226294   1.157   2.237   7.288  0.5520  0.8036 -1.8947
 1579TIP3   OH226295   6.810   2.664   1.601  0.4160  0.5985  0.1080
 1579TIP3    H126296   6.808   2.615   1.519  0.0746 -1.6990  1.4147
 1579TIP3    H226297   6.718   2.686   1.618  0.6212  2.3859 -0.7881
 1580TIP3   OH226298   1.491   0.898   0.525  0.4993  0.5462 -0.0204
 1580TIP3    H126299   1.504   0.944   0.608  0.5733 -0.9564  0.8274
 1580TIP3    H226300   1.437   0.958   0.473 -0.0276  1.2757  1.3107
 1581TIP3   OH226301   0.122   4.332   7.584  0.2684 -0.1654 -0.2472
 1581TIP3    H126302   0.095   4.296   7.500  1.3754  1.2504 -1.2441
 1581TIP3    H226303   0.040   4.359   7.626 -0.4261 -2.1916 -0.1948
 1582TIP3   OH226304   1.584   4.193   2.787 -0.1681 -0.2404 -0.0027
 1582TIP3    H126305   1.580   4.246   2.867 -0.3142  0.9582 -0.7727
 1582TIP3    H226306   1.623   4.252   2.722  0.1068 -1.2505 -0.7755
 1583TIP3   OH226307   0.262   1.172   7.863  0.2902 -0.4249  0.0150
 1583TIP3    H126308   0.246   1.266   7.854 -0.3280 -0.6075 -1.0208
 1583TIP3    H226309   0.340   1.166   7.918  0.2538  0.6890  0.2090
 1584TIP3   OH226310   4.297   1.714   0.474 -0.2995  0.1671  0.6303
 1584TIP3    H126311   4.314   1.627   0.510 -0.1254  0.7134  1.9174
 1584TIP3    H226312   4.384   1.750   0.457 -0.3343  0.5567  1.2661
 1585TIP3   OH226313   0.744   4.306   1.622 -0.0109  0.0962 -0.1790
 1585TIP3    H126314   0.800   4.330   1.696  0.6487 -0.5924 -0.4488
 1585TIP3    H226315   0.724   4.390   1.580  0.6520  0.3751  0.0439
 1586TIP3   OH226316   6.647   4.892   7.437  0.2775 -0.0424 -0.4565
 1586TIP3    H126317   6.579   4.843   7.392 -0.8565 -0.1577  1.2858
 1586TIP3    H226318   6.614   4.902   7.526  1.3403  2.2206 -0.2485
 1587TIP3   OH226319   5.656   0.066   6.774  0.0278 -0.6639 -0.2579
 1587TIP3    H126320   5.702   0.009   6.712 -0.0747 -2.1239  0.9374
 1587TIP3    H226321   5.579   0.014   6.800 -0.7868  0.5842 -0.1186
 1588TIP3   OH226322   4.258   1.488   1.199  0.1834  0.6846  0.7391
 1588TIP3    H126323   4.219   1.497   1.112  0.7126  0.7627  0.5106
 1588TIP3    H226324   4.205   1.420   1.242  0.7102 -0.2761 -0.1002
 1589TIP3   OH226325   2.052   1.192   7.295 -0.1319  0.1562  0.2434
 1589TIP3    H126326   1.983   1.258   7.300  0.9356  1.2502  1.5400
 1589TIP3    H226327   2.027   1.127   7.361  0.0054  0.5000  0.6423
 1590TIP3   OH226328   5.792   0.082   7.761  0.2069 -0.3834  0.1906
 1590TIP3    H126329   5.699   0.073   7.741  0.1353 -1.0888  0.7906
 1590TIP3    H226330   5.796   0.085   7.857  0.4809  3.3917  0.2364
 1591TIP3   OH226331   0.920   5.110   7.725 -0.6027  0.1199 -0.3444
 1591TIP3    H126332   0.903   5.166   7.801 -0.9119 -0.7175  0.2232
 1591TIP3    H226333   0.942   5.171   7.655  0.5473  0.8934  0.6348
 1592TIP3   OH226334   1.354   1.347   0.786  0.1987 -0.3147  0.4642
 1592TIP3    H126335   1.272   1.324   0.829  1.7131 -1.3428  3.0324
 1592TIP3    H226336   1.392   1.415   0.842  0.5753  1.0704 -1.3775
 1593TIP3   OH226337   4.806   6.790   6.651  0.0490  0.4188 -0.1520
 1593TIP3    H126338   4.895   6.816   6.674  0.2395 -1.1207  0.9545
 1593TIP3    H226339   4.817   6.723   6.584 -0.4059  2.1093 -2.0179
 1594TIP3   OH226340   1.691   5.844   8.060  0.2438  0.0408 -0.2081
 1594TIP3    H126341   1.716   5.858   7.969 -1.4130 -0.2093 -0.7348
 1594TIP3    H226342   1.604   5.883   8.067  0.5549  0.5170  1.4185
 1595TIP3   OH226343   5.786   3.392   0.127 -0.1627 -0.4143 -0.3248
 1595TIP3    H126344   5.741   3.413   0.046 -1.3828 -1.4653  0.0605
 1595TIP3    H226345   5.789   3.297   0.129  0.6299 -0.3886  0.4613
 1596TIP3   OH226346   1.957   6.381   1.421 -0.0172 -0.0491 -0.2484
 1596TIP3    H126347   1.880   6.326   1.408 -0.5826  0.8449 -0.8277
 1596TIP3    H226348   2.005   6.375   1.339 -1.3134  2.1407 -1.2537
 1597TIP3   OH226349   5.525   1.379   1.491 -0.1805 -0.0945 -0.0349
 1597TIP3    H126350   5.555   1.307   1.546  0.2081  0.6550  0.7523
 1597TIP3    H226351   5.497   1.447   1.552 -0.1826  0.5716 -0.7580
 1598TIP3   OH226352   6.531   5.057   1.787  0.1744 -0.0248  0.4943
 1598TIP3    H126353   6.565   5.144   1.765  0.0177  0.3771  1.7320
 1598TIP3    H226354   6.547   5.049   1.881 -0.2833 -1.1311  0.4884
 1599TIP3   OH226355   6.824   4.005   7.151  0.1251 -0.0511  0.1273
 1599TIP3    H126356   6.761   3.934   7.160 -0.5692  0.5284 -0.0592
 1599TIP3    H226357   6.822   4.027   7.057  1.5040 -0.8270 -0.1066
 1600TIP3   OH226358   1.042   5.252   1.882 -0.4081  0.3246 -0.2578
 1600TIP3    H126359   1.071   5.236   1.792 -1.5344 -0.2586 -0.5359
 1600TIP3    H226360   1.049   5.167   1.925  0.0228  0.5789  0.1769
 1601TIP3   OH226361   3.572   3.434   8.719  0.1763 -0.7250 -0.0261
 1601TIP3    H126362   3.540   3.352   8.683  0.7077 -0.4266 -1.2034
 1601TIP3    H226363   3.569   3.421   8.814 -0.8155 -1.6835 -0.1727
 1602TIP3   OH226364   3.426   3.220   3.087  0.0400  0.7426 -1.0368
 1602TIP3    H126365   3.334   3.200   3.105  0.4111 -1.2086 -1.1096
 1602TIP3    H226366   3.465   3.136   3.063  1.9148  1.4808 -0.7603
 1603TIP3   OH226367   3.004   2.781   1.993 -0.5525  0.2653  0.2235
 1603TIP3    H126368   3.080   2.838   1.998 -0.0330 -0.3990  0.0268
 1603TIP3    H226369   3.026   2.717   1.926 -1.7497  0.7423 -0.6499
 1604TIP3   OH226370   3.279   1.358   7.353 -0.4509  0.8240 -0.5509
 1604TIP3    H126371   3.242   1.302   7.421  1.3369 -2.0083 -1.7269
 1604TIP3    H226372   3.350   1.405   7.397 -1.1200  1.1823  0.1588
 1605TIP3   OH226373   1.025   2.979   8.534  0.2788 -0.1658 -0.5339
 1605TIP3    H126374   0.932   2.987   8.509 -0.5502 -1.9647  1.6073
 1605TIP3    H226375   1.024   2.983   8.629  2.3863 -0.6640 -0.4473
 1606TIP3   OH226376   5.990   6.730   7.443  0.1583 -0.1179  0.9931
 1606TIP3    H126377   6.024   6.642   7.425  1.3420  0.5739 -0.3223
 1606TIP3    H226378   5.900   6.728   7.411  0.4474 -0.6080  0.1763
 1607TIP3   OH226379   2.424   0.705   8.663  0.2913 -0.2238 -0.0778
 1607TIP3    H126380   2.361   0.633   8.658 -0.4525  0.4829 -1.3954
 1607TIP3    H226381   2.451   0.721   8.572  2.8521 -0.8784  0.4745
 1608TIP3   OH226382   3.244   5.233   1.231 -0.3646 -0.5681  0.0193
 1608TIP3    H126383   3.273   5.318   1.197  0.5885 -0.1199  1.8253
 1608TIP3    H226384   3.183   5.201   1.165  0.2598  0.9052 -1.3547
 1609TIP3   OH226385   5.514   1.051   8.651  0.1006 -0.0846 -0.2390
 1609TIP3    H126386   5.539   1.134   8.610 -0.3734  0.4473  0.5387
 1609TIP3    H226387   5.586   1.032   8.711 -0.4079  0.4386  0.5462
 1610TIP3   OH226388   3.358   5.907   1.169 -0.7015  0.0509 -0.3991
 1610TIP3    H126389   3.389   5.843   1.233  0.9254  3.2008  2.2810
 1610TIP3    H226390   3.266   5.921   1.191 -1.4058 -1.9663 -1.7249
 1611TIP3   OH226391   6.784   3.545   7.019 -0.2170 -0.1596 -0.2168
 1611TIP3    H126392   6.705   3.584   7.056  0.1281  1.0250 -0.6748
 1611TIP3    H226393   6.804   3.599   6.943  1.2775 -0.1636  0.1415
 1612TIP3   OH226394   1.940   5.086   1.355  0.0652  0.7407 -0.0335
 1612TIP3    H126395   1.952   5.130   1.271 -0.4813  0.7488 -0.1147
 1612TIP3    H226396   1.858   5.122   1.390  1.5651  2.6828  1.7411
 1613TIP3   OH226397   4.232   6.617   0.628 -0.0335  0.3341 -0.5732
 1613TIP3    H126398   4.185   6.587   0.706  0.2646 -0.1344 -0.5688
 1613TIP3    H226399   4.206   6.708   0.618  0.3171  0.5416  0.3613
 1614TIP3   OH226400   4.203   1.379   8.700 -0.3637  0.1067 -0.4491
 1614TIP3    H126401   4.116   1.419   8.703 -1.3035 -1.4893 -3.2381
 1614TIP3    H226402   4.213   1.337   8.786 -1.7099  1.4943  0.4307
 1615TIP3   OH226403   4.122   6.761   6.938  0.4093  0.1364  0.7701
 1615TIP3    H126404   4.113   6.690   6.874  0.3343 -0.7323  1.7168
 1615TIP3    H226405   4.179   6.824   6.895 -0.2878 -0.0364 -0.4726
 1616TIP3   OH226406   1.415   2.934   7.887 -0.0162  0.1090 -0.0350
 1616TIP3    H126407   1.355   2.998   7.924  0.3792 -0.2848  1.3539
 1616TIP3    H226408   1.369   2.898   7.811 -1.0475  0.6281  0.3311
 1617TIP3   OH226409   4.287   3.887   8.647  0.0452  0.2126  0.2203
 1617TIP3    H126410   4.353   3.820   8.658 -1.8503 -2.5043 -2.9048
 1617TIP3    H226411   4.317   3.938   8.572 -0.2392  0.5027  0.3005
 1618TIP3   OH226412   2.755   1.546   1.037  0.3400 -0.4230  0.1478
 1618TIP3    H126413   2.689   1.588   0.981  0.3469 -0.7384 -0.1008
 1618TIP3    H226414   2.807   1.493   0.977 -0.3097 -1.5871  0.5904
 1619TIP3   OH226415   4.807   3.775   0.264  0.2373 -0.1132 -0.1465
 1619TIP3    H126416   4.881   3.828   0.295  0.3851 -1.1105  1.3028
 1619TIP3    H226417   4.848   3.702   0.217  0.1598 -0.3631  0.1702
 1620TIP3   OH226418   4.623   4.079   7.627 -0.5263 -0.2754 -0.8024
 1620TIP3    H126419   4.655   4.167   7.610  0.3996 -0.0758  1.5415
 1620TIP3    H226420   4.527   4.087   7.622 -0.5212  1.2040  0.5725
 1621TIP3   OH226421   3.477   1.039   1.312 -0.1168  0.2752  0.0231
 1621TIP3    H126422   3.504   0.974   1.248 -3.3166 -2.2183  0.9317
 1621TIP3    H226423   3.553   1.050   1.369  0.9227 -1.8293 -0.8644
 1622TIP3   OH226424   3.003   4.156   0.668 -0.0430  0.3336 -0.2791
 1622TIP3    H126425   2.976   4.064   0.659  0.6643 -0.0221  1.0138
 1622TIP3    H226426   3.041   4.178   0.583 -0.3763 -0.5148 -0.6617
 1623TIP3   OH226427   1.036   3.430   1.965  0.0239 -0.1847 -0.3108
 1623TIP3    H126428   1.096   3.460   2.033 -0.3241  0.9081 -0.4607
 1623TIP3    H226429   1.008   3.510   1.921 -0.1876 -0.8218 -1.3843
 1624TIP3   OH226430   3.628   0.076   8.643  0.5144 -0.2880 -0.1017
 1624TIP3    H126431   3.552   0.096   8.697  1.6417 -2.2771  2.4334
 1624TIP3    H226432   3.593   0.028   8.569 -0.6510 -2.5477  1.8040
 1625TIP3   OH226433   3.475   0.806   7.991  0.1530  0.1209 -0.0834
 1625TIP3    H126434   3.396   0.858   7.977 -0.8758 -1.3666  0.0442
 1625TIP3    H226435   3.478   0.790   8.085 -1.0690 -2.3065 -0.3884
 1626TIP3   OH226436   0.769   2.733   2.377  0.3095  0.1496 -0.1434
 1626TIP3    H126437   0.833   2.662   2.378  0.4846  0.2902 -0.8842
 1626TIP3    H226438   0.688   2.691   2.345 -0.3654 -0.3327  2.0231
 1627TIP3   OH226439   0.185   3.912   0.847  0.6872 -0.1281 -0.3441
 1627TIP3    H126440   0.205   4.003   0.824 -1.3946  0.1552 -1.2652
 1627TIP3    H226441   0.270   3.873   0.866  1.7072  1.8139 -0.6380
 1628TIP3   OH226442   4.035   1.983   7.823  0.6406 -0.0871  0.0246
 1628TIP3    H126443   3.992   2.060   7.786 -1.0263 -0.7694  0.4797
 1628TIP3    H226444   4.110   2.018   7.871  0.0460  1.2284  0.0300
 1629TIP3   OH226445   0.879   0.872   2.384  0.2934 -0.2548 -0.3965
 1629TIP3    H126446   0.844   0.783   2.379 -1.7773  0.5111 -0.8929
 1629TIP3    H226447   0.858   0.910   2.299 -1.1379  1.4363  0.6355
 1630TIP3   OH226448   4.829   4.172   8.161 -0.3917 -0.1230 -0.1163
 1630TIP3    H126449   4.802   4.224   8.085 -1.6610 -0.5149  0.0463
 1630TIP3    H226450   4.798   4.222   8.236 -0.0637 -0.2613  0.1153
 1631TIP3   OH226451   6.120   5.538   8.091 -0.4483  0.2776  0.0737
 1631TIP3    H126452   6.152   5.577   8.009 -0.1984  2.4859  1.1454
 1631TIP3    H226453   6.198   5.500   8.131 -0.5956 -0.9380 -0.7319
 1632TIP3   OH226454   4.227   6.322   7.101 -0.2733 -0.0033 -0.6414
 1632TIP3    H126455   4.277   6.311   7.182 -1.1661  0.6463  0.0152
 1632TIP3    H226456   4.239   6.239   7.055 -0.9142 -0.9501  0.8153
 1633TIP3   OH226457   0.608   2.347   0.307 -0.0349 -0.5286 -0.1896
 1633TIP3    H126458   0.600   2.254   0.328  0.7200 -0.1735  1.8755
 1633TIP3    H226459   0.569   2.393   0.382  2.7314  0.8279  0.5715
 1634TIP3   OH226460   1.288   3.303   1.670 -0.3688 -0.0925  0.2482
 1634TIP3    H126461   1.286   3.388   1.714 -0.2759 -0.1116  0.2898
 1634TIP3    H226462   1.199   3.269   1.677 -0.5446  0.2558 -0.2620
 1635TIP3   OH226463   4.516   4.801   7.307 -0.1164 -0.6475 -0.7034
 1635TIP3    H126464   4.536   4.708   7.302 -1.6019 -1.1319  1.0036
 1635TIP3    H226465   4.469   4.821   7.226 -0.2663 -1.5243 -0.8352
 1636TIP3   OH226466   2.744   5.458   1.801  0.2604 -0.1629 -0.4663
 1636TIP3    H126467   2.722   5.394   1.869 -0.6599 -1.1547 -1.6457
 1636TIP3    H226468   2.767   5.538   1.850 -2.0204 -0.2950  1.0074
 1637TIP3   OH226469   6.683   2.548   2.783  0.3854  0.4025 -0.0063
 1637TIP3    H126470   6.592   2.519   2.789 -0.1867  2.2672  1.2331
 1637TIP3    H226471   6.689   2.591   2.699 -0.2784  1.4479  0.4608
 1638TIP3   OH226472   0.095   4.344   3.053 -0.0567  0.9623  0.3308
 1638TIP3    H126473   0.018   4.399   3.068 -0.0043  1.0770  0.1779
 1638TIP3    H226474   0.061   4.264   3.014 -0.2834  0.3749  1.6559
 1639TIP3   OH226475   1.612   2.257   0.680 -0.1192 -0.4856  0.5105
 1639TIP3    H126476   1.635   2.350   0.671  2.1928 -1.1728 -2.6602
 1639TIP3    H226477   1.548   2.241   0.610 -1.0410 -1.2091  1.4693
 1640TIP3   OH226478   2.186   1.441   7.783  0.6984  0.6444 -0.0310
 1640TIP3    H126479   2.119   1.503   7.753 -1.2213 -0.8982  0.8864
 1640TIP3    H226480   2.206   1.470   7.872  1.8329  1.5192 -0.5400
 1641TIP3   OH226481   3.511   3.315   0.604  0.2047 -0.0311 -0.1214
 1641TIP3    H126482   3.437   3.262   0.575 -0.0888 -0.8803  1.9858
 1641TIP3    H226483   3.585   3.284   0.553 -0.3323 -1.2146 -0.1971
 1642TIP3   OH226484   5.096   2.303   1.638 -0.1495  0.2254  0.0614
 1642TIP3    H126485   5.129   2.241   1.703  1.6481  0.9714 -0.0796
 1642TIP3    H226486   5.105   2.258   1.554  0.0491  0.2523  0.0693
 1643TIP3   OH226487   5.728   0.329   6.718  0.1704  0.1418  0.1708
 1643TIP3    H126488   5.734   0.238   6.750  0.6476  0.4979  1.1301
 1643TIP3    H226489   5.657   0.368   6.770  0.8354  0.6782  0.6921
 1644TIP3   OH226490   0.672   6.372   7.478  0.0984 -0.1237  0.2675
 1644TIP3    H126491   0.651   6.452   7.527  1.9003  2.4799 -2.8011
 1644TIP3    H226492   0.768   6.373   7.472  0.0488 -1.6835 -1.1656
 1645TIP3   OH226493   2.159   6.484   1.816 -0.3046 -0.1566  0.0181
 1645TIP3    H126494   2.158   6.579   1.816  0.8062 -0.1262 -0.0948
 1645TIP3    H226495   2.187   6.461   1.905 -2.8016 -0.4616  0.7978
 1646TIP3   OH226496   2.873   3.512   0.230  0.0949  0.1851  0.5981
 1646TIP3    H126497   2.797   3.546   0.278  1.5205  3.2938  0.9464
 1646TIP3    H226498   2.850   3.525   0.138 -0.7324 -1.2489  0.5764
 1647TIP3   OH226499   1.820   5.569   0.507 -0.2319  0.0215  0.3541
 1647TIP3    H126500   1.750   5.558   0.442 -0.5480 -1.1348  0.8700
 1647TIP3    H226501   1.892   5.607   0.457 -0.9654  0.5332 -0.3484
 1648TIP3   OH226502   6.053   5.931   2.074 -0.4099 -0.1666 -0.0161
 1648TIP3    H126503   5.968   5.960   2.040 -0.5414  0.1933  0.6031
 1648TIP3    H226504   6.043   5.936   2.169 -0.6589 -2.8848  0.1773
 1649TIP3   OH226505   0.245   3.295   6.998 -0.1011  0.2180  0.9501
 1649TIP3    H126506   0.278   3.378   6.961  1.6045 -1.7780 -2.5657
 1649TIP3    H226507   0.321   3.256   7.041  0.0881 -0.9295 -0.3445
 1650TIP3   OH226508   2.209   6.762   0.463 -0.7465  0.2713  0.2235
 1650TIP3    H126509   2.252   6.718   0.536  1.9153  0.8075 -0.9056
 1650TIP3    H226510   2.249   6.724   0.385 -1.9259  1.2652 -0.9166
 1651TIP3   OH226511   1.667   2.231   8.440  0.1264  0.3540 -0.0670
 1651TIP3    H126512   1.681   2.198   8.352 -0.8520  2.1175 -0.9451
 1651TIP3    H226513   1.661   2.152   8.495  0.1782 -0.7970 -1.6542
 1652TIP3   OH226514   0.375   1.902   7.757  0.7956  0.0100 -0.5186
 1652TIP3    H126515   0.434   1.916   7.683  1.6981 -0.5921  0.0754
 1652TIP3    H226516   0.409   1.824   7.801  1.8009  1.7189  1.9647
 1653TIP3   OH226517   2.582   0.803   1.593  0.8647 -0.1861  0.3739
 1653TIP3    H126518   2.611   0.859   1.665  0.6217 -0.7002  0.8824
 1653TIP3    H226519   2.577   0.715   1.632 -1.4450 -0.1244  0.3459
 1654TIP3   OH226520   6.035   3.630   8.516 -0.4730 -0.2907 -0.6170
 1654TIP3    H126521   6.086   3.684   8.456  0.1916  0.0982  0.2703
 1654TIP3    H226522   6.063   3.658   8.604 -2.0037 -0.2613 -0.0931
 1655TIP3   OH226523   3.739   5.007   0.530  0.0613  0.3420  0.1323
 1655TIP3    H126524   3.756   5.041   0.618 -2.5216  2.2264  0.0138
 1655TIP3    H226525   3.795   5.059   0.472  0.9289 -0.1326  0.5273
 1656TIP3   OH226526   1.806   6.415   1.092  0.1275  0.3832 -0.1710
 1656TIP3    H126527   1.722   6.370   1.079  0.2752 -0.7881  2.2970
 1656TIP3    H226528   1.872   6.350   1.068  0.3723  0.9077 -0.9823
 1657TIP3   OH226529   3.040   3.941   2.133 -0.1006 -0.2249  0.0365
 1657TIP3    H126530   3.098   4.012   2.160 -0.7044 -0.0330  0.8892
 1657TIP3    H226531   3.041   3.879   2.207  0.8596 -1.4078 -0.9199
 1658TIP3   OH226532   1.203   4.917   8.768  0.3403  0.2147 -0.0130
 1658TIP3    H126533   1.157   4.890   8.848  2.0964  0.3269  1.0873
 1658TIP3    H226534   1.295   4.917   8.793  0.9491  0.0551 -2.1211
 1659TIP3   OH226535   1.317   4.220   2.364  0.0974  0.3128 -0.4493
 1659TIP3    H126536   1.297   4.298   2.313  1.2753  1.8422  1.2886
 1659TIP3    H226537   1.264   4.229   2.443  0.3737 -0.5726 -0.1504
 1660TIP3   OH226538   2.630   1.349   8.507 -0.3796  0.6131  0.0553
 1660TIP3    H126539   2.702   1.286   8.503  1.3603  2.5144 -0.3791
 1660TIP3    H226540   2.609   1.355   8.600  1.3093  1.3276  0.4408
 1661TIP3   OH226541   2.148   5.962   0.844  0.3999  0.0715 -0.0313
 1661TIP3    H126542   2.066   5.922   0.872  0.7945  0.5513  1.9453
 1661TIP3    H226543   2.215   5.918   0.897  1.4230 -0.2102 -1.5049
 1662TIP3   OH226544   3.779   0.435   0.177  0.0124  0.0105 -0.2511
 1662TIP3    H126545   3.823   0.358   0.140  0.6635  0.0729  0.3766
 1662TIP3    H226546   3.789   0.425   0.271 -1.5782 -0.1108 -0.0707
 1663TIP3   OH226547   4.646   4.919   1.177 -0.8507  0.2681  0.4929
 1663TIP3    H126548   4.659   4.905   1.271 -1.4282 -0.2881  0.4977
 1663TIP3    H226549   4.556   4.952   1.170 -0.6947  0.6367  0.1583
 1664TIP3   OH226550   2.484   1.624   7.793  0.3671 -0.2341  0.7433
 1664TIP3    H126551   2.491   1.654   7.702  1.0346  1.0506  1.1910
 1664TIP3    H226552   2.502   1.530   7.789 -0.9274 -0.4573 -0.6120
 1665TIP3   OH226553   3.147   3.814   1.233 -0.0424 -0.3038 -0.0751
 1665TIP3    H126554   3.066   3.786   1.189 -0.2347  1.5166 -0.9686
 1665TIP3    H226555   3.131   3.905   1.257  1.0684 -0.4709  1.4374
 1666TIP3   OH226556   5.195   5.797   8.357 -0.4433 -0.2138 -0.0568
 1666TIP3    H126557   5.190   5.755   8.271 -1.0673  0.4502 -0.3572
 1666TIP3    H226558   5.130   5.867   8.353 -0.7672 -0.4272  1.0994
 1667TIP3   OH226559   0.742   1.147   1.876 -0.3496 -0.5954  0.5583
 1667TIP3    H126560   0.664   1.174   1.923  1.1447  1.3435  2.1299
 1667TIP3    H226561   0.728   1.054   1.857 -3.7534  0.0637 -0.8740
 1668TIP3   OH226562   3.864   4.800   1.357 -0.7484 -0.1984  0.3046
 1668TIP3    H126563   3.901   4.869   1.302  0.3157 -1.1182 -0.1834
 1668TIP3    H226564   3.847   4.728   1.296  1.7505 -1.7624  1.2710
 1669TIP3   OH226565   3.672   5.140   1.994 -0.2039 -0.4536 -0.0537
 1669TIP3    H126566   3.675   5.051   2.027  0.4654 -0.8240 -1.0662
 1669TIP3    H226567   3.637   5.192   2.067  0.3575 -1.3678  0.8917
 1670TIP3   OH226568   0.304   2.628   1.832  0.5850 -0.0578  0.4641
 1670TIP3    H126569   0.237   2.676   1.881  0.5557 -0.4069  0.7788
 1670TIP3    H226570   0.375   2.616   1.895  0.9401  0.2976  0.1359
 1671TIP3   OH226571   3.485   0.759   1.470  0.0372  0.1991  0.0598
 1671TIP3    H126572   3.472   0.671   1.504  0.5249  0.2199  0.3173
 1671TIP3    H226573   3.405   0.806   1.494 -0.9343 -0.5917 -1.5048
 1672TIP3   OH226574   3.748   2.387   0.791  0.3244  0.1802  0.1299
 1672TIP3    H126575   3.678   2.438   0.830  1.3478  1.1071  0.7970
 1672TIP3    H226576   3.743   2.406   0.697 -1.3235 -1.0498 -0.0854
 1673TIP3   OH226577   4.062   3.044   8.212  0.1704  0.8048  0.3128
 1673TIP3    H126578   4.094   3.056   8.122  0.6039  1.7032  0.5796
 1673TIP3    H226579   4.068   2.950   8.227 -0.7779  0.5192 -0.9176
 1674TIP3   OH226580   6.772   2.502   2.240  0.5023  0.2738  0.6809
 1674TIP3    H126581   6.859   2.506   2.199 -0.1265  1.3928 -0.6080
 1674TIP3    H226582   6.715   2.466   2.172  0.2796 -2.4259  2.1818
 1675TIP3   OH226583   1.219   4.587   7.293 -0.2984 -0.0285 -0.0158
 1675TIP3    H126584   1.295   4.537   7.261 -1.5486 -2.3457  0.3969
 1675TIP3    H226585   1.184   4.630   7.216  1.3716  1.0256 -0.2234
 1676TIP3   OH226586   3.415   2.142   7.759 -0.2370  0.1670  0.0560
 1676TIP3    H126587   3.429   2.236   7.773  0.2747 -0.2852  3.3305
 1676TIP3    H226588   3.503   2.104   7.764 -0.4664 -0.5362 -1.0178
 1677TIP3   OH226589   3.290   4.271   7.174 -0.1848  0.5769  0.2114
 1677TIP3    H126590   3.255   4.353   7.141 -1.4416 -0.2781 -0.6732
 1677TIP3    H226591   3.227   4.205   7.147  1.8706 -1.0063 -1.0386
 1678TIP3   OH226592   5.517   2.415   8.645 -0.2434 -1.2969 -0.0313
 1678TIP3    H126593   5.503   2.375   8.731  0.8574 -0.1325  0.7175
 1678TIP3    H226594   5.451   2.484   8.639  0.9310 -0.0411  0.7830
 1679TIP3   OH226595   1.384   2.153   8.057 -0.3395  0.1673 -0.1848
 1679TIP3    H126596   1.343   2.094   8.120  1.4800  1.4412  2.4017
 1679TIP3    H226597   1.412   2.096   7.985 -1.6677 -1.5242  0.5699
 1680TIP3   OH226598   4.731   0.683   1.794  0.0860 -0.1624  0.2271
 1680TIP3    H126599   4.638   0.666   1.808 -0.6780  1.1728 -2.4680
 1680TIP3    H226600   4.770   0.596   1.778 -1.3417 -0.5476 -1.5234
 1681TIP3   OH226601   2.092   3.231   0.246 -0.1865 -0.2580 -0.2298
 1681TIP3    H126602   2.106   3.202   0.156 -0.8031 -1.4938  0.0408
 1681TIP3    H226603   2.001   3.207   0.264 -0.3007  0.6761  0.4683
 1682TIP3   OH226604   0.735   3.407   8.143 -0.1735 -0.0326 -0.0132
 1682TIP3    H126605   0.708   3.439   8.229 -0.7543 -1.2274  0.2754
 1682TIP3    H226606   0.659   3.422   8.087 -0.6190 -1.2890  0.2359
 1683TIP3   OH226607   3.944   0.559   7.174  0.6108  0.5388  0.2063
 1683TIP3    H126608   3.856   0.560   7.211 -0.3385  0.4587 -1.8778
 1683TIP3    H226609   3.957   0.648   7.141 -0.9765 -0.5817 -4.2057
 1684TIP3   OH226610   2.191   1.841   0.520  0.7948  0.1438 -0.1380
 1684TIP3    H126611   2.257   1.878   0.462  0.2119 -0.9405 -1.5804
 1684TIP3    H226612   2.141   1.781   0.464  0.5108 -1.3562  1.6227
 1685TIP3   OH226613   6.599   4.977   8.306 -0.1189  0.3538 -0.0975
 1685TIP3    H126614   6.524   4.945   8.356  0.0804 -0.3852 -0.2671
 1685TIP3    H226615   6.661   4.904   8.304  0.2615  0.6766 -0.6540
 1686TIP3   OH226616   4.548   5.771   1.785  0.5720 -0.4510 -0.7793
 1686TIP3    H126617   4.597   5.847   1.817 -2.3715  1.0202  0.5944
 1686TIP3    H226618   4.539   5.714   1.861 -1.3915  0.2441 -0.4219
 1687TIP3   OH226619   4.825   6.284   8.551 -0.1070  0.4784  0.1415
 1687TIP3    H126620   4.878   6.337   8.492 -0.8448 -0.0160 -0.9830
 1687TIP3    H226621   4.882   6.211   8.574 -0.3404 -0.1698 -1.2395
 1688TIP3   OH226622   3.316   5.932   1.704  0.0338 -0.4596 -0.0626
 1688TIP3    H126623   3.407   5.917   1.731 -0.2270  0.8897  1.7769
 1688TIP3    H226624   3.288   5.848   1.668  1.9781 -0.9285 -0.6159
 1689TIP3   OH226625   1.387   5.883   8.473 -0.0811  0.4411 -0.2451
 1689TIP3    H126626   1.305   5.852   8.437  0.3422 -1.2554  0.1643
 1689TIP3    H226627   1.452   5.819   8.446  0.5857  0.1106  1.8830
 1690TIP3   OH226628   1.828   6.583   0.107 -0.7194 -0.2433  0.1008
 1690TIP3    H126629   1.840   6.592   0.201  0.7645  0.2303 -0.1142
 1690TIP3    H226630   1.790   6.667   0.080 -1.5994 -0.5553  0.3247
 1691TIP3   OH226631   3.845   0.240   8.199 -0.0943  0.3906 -0.5567
 1691TIP3    H126632   3.759   0.244   8.157  0.6945 -0.5129 -2.3606
 1691TIP3    H226633   3.831   0.187   8.277 -0.9120 -0.9996 -1.6022
 1692TIP3   OH226634   3.149   2.156   7.639  0.0718 -0.3870 -0.6981
 1692TIP3    H126635   3.231   2.172   7.686 -0.2331 -0.4315 -0.1501
 1692TIP3    H226636   3.168   2.184   7.549  0.6509 -0.2842 -0.5495
 1693TIP3   OH226637   1.360   5.408   8.754  0.1134  0.1751 -0.8071
 1693TIP3    H126638   1.384   5.338   8.693  0.5042 -1.0962  0.7514
 1693TIP3    H226639   1.264   5.404   8.758  0.1268 -0.1859 -0.8163
 1694TIP3   OH226640   6.010   2.089   2.836  0.2040 -0.5668 -0.0064
 1694TIP3    H126641   5.929   2.063   2.880  0.5120 -0.2822  0.7341
 1694TIP3    H226642   6.043   2.162   2.887 -0.3274  0.9276 -1.7005
 1695TIP3   OH226643   2.062   6.115   1.187  0.3439 -0.6166 -0.3182
 1695TIP3    H126644   2.118   6.046   1.149  0.7605 -0.4338 -0.0474
 1695TIP3    H226645   2.122   6.165   1.243 -0.0340 -0.2392 -0.2533
 1696TIP3   OH226646   0.078   6.439   0.039  0.4490 -0.0781 -0.2502
 1696TIP3    H126647   0.063   6.419   0.131 -1.7736  0.6153 -0.4017
 1696TIP3    H226648   0.106   6.356   0.000 -0.8257 -0.9539  0.6259
 1697TIP3   OH226649   6.421   3.728   1.611  0.0058  0.0364 -0.0347
 1697TIP3    H126650   6.325   3.726   1.613  0.0155 -1.1282  0.2027
 1697TIP3    H226651   6.445   3.659   1.550  0.7209 -1.7283  2.0977
 1698TIP3   OH226652   6.374   0.477   2.127 -0.0180  0.5804  0.1597
 1698TIP3    H126653   6.305   0.518   2.180 -0.7285 -0.9840  0.5073
 1698TIP3    H226654   6.358   0.383   2.135  3.9677 -0.1484  2.8774
 1699TIP3   OH226655   1.901   3.516   7.459 -0.1691 -0.4613  0.0510
 1699TIP3    H126656   1.986   3.544   7.494  0.5432 -0.2954 -1.6686
 1699TIP3    H226657   1.840   3.585   7.486  0.4513 -0.0610  0.4597
 1700TIP3   OH226658   6.749   5.328   8.317 -0.8034 -0.1039  0.0591
 1700TIP3    H126659   6.832   5.282   8.305 -0.2251  0.8150  0.4922
 1700TIP3    H226660   6.769   5.419   8.298 -2.2000 -0.1382 -1.9657
 1701TIP3   OH226661   0.088   4.790   0.526 -0.1158 -0.2783  0.3232
 1701TIP3    H126662   0.146   4.788   0.450  1.4047 -1.4366  1.4557
 1701TIP3    H226663   0.015   4.733   0.502  0.5316 -0.9339 -0.1423
 1702TIP3   OH226664   0.046   1.434   8.545  0.3132  0.1496  0.7631
 1702TIP3    H126665   0.110   1.502   8.564  1.8446 -1.4616  1.6391
 1702TIP3    H226666  -0.009   1.430   8.623  0.7737 -0.1947  1.0744
 1703TIP3   OH226667   4.933   4.162   0.193  0.2663 -0.5856 -0.1352
 1703TIP3    H126668   4.991   4.225   0.234  1.1421  0.4010 -2.6856
 1703TIP3    H226669   4.852   4.210   0.178  0.1662 -0.7455 -0.1139
 1704TIP3   OH226670   2.260   6.117   1.422  0.2235 -0.0338 -0.2670
 1704TIP3    H126671   2.301   6.046   1.471  0.4101  0.5716  0.4828
 1704TIP3    H226672   2.215   6.169   1.489  1.2926  1.3542 -0.5911
 1705TIP3   OH226673   1.339   0.010   8.147 -0.3634 -0.3452  0.2962
 1705TIP3    H126674   1.334   0.057   8.231 -0.0122  1.2885 -0.5485
 1705TIP3    H226675   1.280  -0.064   8.158  0.1848 -0.5520  2.2140
 1706TIP3   OH226676   5.685   0.685   1.292 -0.2188  0.2065  0.6710
 1706TIP3    H126677   5.759   0.687   1.353  0.3715 -1.6731  0.0574
 1706TIP3    H226678   5.664   0.593   1.282 -0.0269  0.3930 -2.3156
 1707TIP3   OH226679   0.893   0.573   7.655  0.1165 -0.3586  0.1164
 1707TIP3    H126680   0.814   0.618   7.626  0.8350  1.3272  0.6761
 1707TIP3    H226681   0.876   0.480   7.637 -1.5029  0.0955 -0.8492
 1708TIP3   OH226682   3.696   1.251   0.350  0.3549  0.0882 -0.8101
 1708TIP3    H126683   3.622   1.290   0.396  0.5153  2.0568 -2.0480
 1708TIP3    H226684   3.752   1.326   0.328  1.5670 -1.0735 -1.8878
 1709TIP3   OH226685   0.913   4.946   1.293  0.3131 -0.4985  0.3227
 1709TIP3    H126686   0.956   5.009   1.350  0.4292 -0.7321  0.4954
 1709TIP3    H226687   0.820   4.966   1.299  0.2101 -1.2535  1.4969
 1710TIP3   OH226688   0.618   0.119   8.609 -0.1720 -0.4741 -0.4363
 1710TIP3    H126689   0.544   0.163   8.566  0.0889  2.4989  1.7828
 1710TIP3    H226690   0.695   0.148   8.560 -0.2646 -2.0263 -1.5716
 1711TIP3   OH226691   1.031   2.366   2.682 -0.0046 -0.2434  0.1767
 1711TIP3    H126692   0.955   2.385   2.738 -1.5513  0.0526 -1.9258
 1711TIP3    H226693   1.095   2.434   2.706 -0.6404 -0.0673  1.4819
 1712TIP3   OH226694   0.786   6.714   6.810  0.0685 -0.1804 -0.3150
 1712TIP3    H126695   0.877   6.715   6.781 -0.3519  0.4897 -1.6683
 1712TIP3    H226696   0.737   6.679   6.735 -0.9023  0.3783  0.0391
 1713TIP3   OH226697   0.705   4.292   0.623  0.3029 -0.0277  0.5101
 1713TIP3    H126698   0.730   4.349   0.696 -1.3329 -1.1189  1.9823
 1713TIP3    H226699   0.789   4.261   0.587  1.1770  1.8651  0.7764
 1714TIP3   OH226700   4.728   5.476   8.516 -0.1684 -0.1368 -0.6041
 1714TIP3    H126701   4.816   5.505   8.494  0.1551 -0.1046  0.6551
 1714TIP3    H226702   4.687   5.552   8.557 -0.3594 -0.5143 -0.0836
 1715TIP3   OH226703   5.177   0.973   7.227  0.3185  0.5090 -0.1333
 1715TIP3    H126704   5.252   0.951   7.172 -0.4060 -0.3291 -0.8044
 1715TIP3    H226705   5.130   1.041   7.178  0.3835  0.6968  0.0645
 1716TIP3   OH226706   5.226   4.232   0.096 -0.3339 -0.8775 -0.0105
 1716TIP3    H126707   5.193   4.156   0.049  2.6665 -2.4386  0.1726
 1716TIP3    H226708   5.253   4.293   0.028  2.7222 -2.5605 -0.4621
 1717TIP3   OH226709   5.832   6.362   7.025  0.1132 -0.1928  0.0730
 1717TIP3    H126710   5.917   6.323   7.045  0.0863  0.8490  2.6256
 1717TIP3    H226711   5.841   6.454   7.049 -1.4507  0.1782 -0.5953
 1718TIP3   OH226712   0.646   4.979   1.285  0.0020  0.1836 -0.2766
 1718TIP3    H126713   0.624   5.025   1.366 -0.5886 -0.6887  0.0729
 1718TIP3    H226714   0.563   4.975   1.236 -0.5577 -2.5459  0.7558
 1719TIP3   OH226715   3.291   1.693   7.083  0.5010 -0.2450 -0.5796
 1719TIP3    H126716   3.270   1.786   7.093 -3.1605 -1.0051  0.3552
 1719TIP3    H226717   3.375   1.692   7.037  0.3560  3.4994 -1.2264
 1720TIP3   OH226718   2.508   2.341   0.897 -0.1858  0.3211  0.0499
 1720TIP3    H126719   2.443   2.342   0.967 -0.8036  0.2801 -0.5119
 1720TIP3    H226720   2.485   2.416   0.841  0.2157  0.2780 -0.1786
 1721TIP3   OH226721   3.035   3.233   7.133 -0.5980 -0.9241  0.2451
 1721TIP3    H126722   3.025   3.296   7.062 -2.8418  0.1507  1.4196
 1721TIP3    H226723   2.992   3.274   7.208  1.8159 -1.9293  2.3386
 1722TIP3   OH226724   4.815   4.783   7.735 -0.2484  0.3973 -0.7131
 1722TIP3    H126725   4.796   4.874   7.710 -0.9183  0.0773 -1.3829
 1722TIP3    H226726   4.891   4.759   7.683 -0.4954  0.3488 -1.0535
 1723TIP3   OH226727   2.342   1.116   1.255  0.0035  0.5067  0.0171
 1723TIP3    H126728   2.405   1.102   1.184  0.5979  1.5650  0.3200
 1723TIP3    H226729   2.260   1.137   1.210  0.4005  1.2686 -0.3694
 1724TIP3   OH226730   0.915   5.935   0.906 -0.4479  0.4582 -0.3093
 1724TIP3    H126731   0.858   5.865   0.873  2.1301 -1.0763 -1.8310
 1724TIP3    H226732   0.971   5.957   0.831  1.9578  0.8316  1.5078
 1725TIP3   OH226733   1.670   4.438   2.740 -0.5804 -0.6483 -0.2778
 1725TIP3    H126734   1.712   4.427   2.825  1.3883  2.3410 -0.6894
 1725TIP3    H226735   1.608   4.510   2.753 -1.8701 -1.6005 -0.9203
 1726TIP3   OH226736   1.867   5.929   0.851  0.0872 -0.1527  0.0137
 1726TIP3    H126737   1.833   5.840   0.840  2.0201 -0.7501 -2.0024
 1726TIP3    H226738   1.817   5.981   0.789  0.8879 -0.4803 -0.9471
 1727TIP3   OH226739   3.311   5.267   2.232 -0.5118  0.4586  0.1814
 1727TIP3    H126740   3.270   5.202   2.175  2.1992 -0.1782 -1.2185
 1727TIP3    H226741   3.269   5.255   2.317 -0.5915 -2.7040 -0.1924
 1728TIP3   OH226742   5.753   2.575   1.574 -0.3031  0.3010  0.0909
 1728TIP3    H126743   5.664   2.611   1.570 -0.1811  0.5082 -0.7532
 1728TIP3    H226744   5.802   2.638   1.627 -0.7519 -0.0352  0.9373
 1729TIP3   OH226745   6.147   0.927   6.973 -0.1194  0.0737  0.1315
 1729TIP3    H126746   6.097   0.952   6.895 -0.1132  1.3543  0.5198
 1729TIP3    H226747   6.128   0.996   7.037  3.1476  1.3331 -0.1032
 1730TIP3   OH226748   2.201   1.693   2.223 -0.2570  0.1329 -0.1382
 1730TIP3    H126749   2.147   1.643   2.162  0.4149  0.3412 -0.9358
 1730TIP3    H226750   2.238   1.627   2.282 -0.6029 -0.1234 -0.2026
 1731TIP3   OH226751   1.122   1.180   2.689 -0.4424 -0.0863 -0.3720
 1731TIP3    H126752   1.177   1.210   2.761 -0.5183  1.1137 -0.7925
 1731TIP3    H226753   1.170   1.106   2.651  0.7053  0.6969 -0.4973
 1732TIP3   OH226754   5.383   4.288   7.839 -0.5730 -0.0959  1.0385
 1732TIP3    H126755   5.434   4.213   7.871 -0.4922  0.1626  1.5306
 1732TIP3    H226756   5.296   4.253   7.823 -1.0339  0.0509  2.9484
 1733TIP3   OH226757   4.000   2.251   2.122 -0.4162 -0.3671 -0.1129
 1733TIP3    H126758   4.002   2.309   2.198 -0.1005 -1.2505  0.5732
 1733TIP3    H226759   4.043   2.171   2.152  0.5964 -0.3852 -1.5169
 1734TIP3   OH226760   5.919   0.072   7.117  0.4460  0.4974 -0.1702
 1734TIP3    H126761   5.825   0.057   7.122  0.9254 -2.8099  1.4738
 1734TIP3    H226762   5.935   0.093   7.025 -1.8519  1.2023 -0.4706
 1735TIP3   OH226763   3.823   1.502   0.977 -0.3644  0.4432 -0.6644
 1735TIP3    H126764   3.807   1.586   0.935 -1.0214 -0.1314 -1.5947
 1735TIP3    H226765   3.743   1.485   1.028  0.3040  0.9949  0.6294
 1736TIP3   OH226766   2.102   1.506   8.036 -0.2335  0.4534 -0.1584
 1736TIP3    H126767   2.030   1.567   8.019 -1.0471 -0.5588 -0.4282
 1736TIP3    H226768   2.131   1.527   8.125 -0.8563  0.8748 -0.0460
 1737TIP3   OH226769   1.963   3.233   7.967 -1.1987  0.5571 -0.1056
 1737TIP3    H126770   1.933   3.267   8.051 -1.9619  1.3214 -0.6662
 1737TIP3    H226771   1.970   3.138   7.980 -2.1874  0.5607  0.5587
 1738TIP3   OH226772   1.106   4.222   1.974  0.3204  0.7315  0.3946
 1738TIP3    H126773   1.043   4.204   2.044  0.6154 -0.8726  0.2870
 1738TIP3    H226774   1.182   4.259   2.020  0.4766 -0.2230  0.9298
 1739TIP3   OH226775   2.552   0.209   0.378 -0.2109 -0.5254 -0.3397
 1739TIP3    H126776   2.645   0.233   0.379  0.0609 -1.4765  1.2069
 1739TIP3    H226777   2.508   0.282   0.421 -0.3970  0.5332 -2.2181
 1740TIP3   OH226778   4.485   4.077   2.122 -0.0158  0.0385  0.1395
 1740TIP3    H126779   4.471   3.998   2.070  2.4261 -0.2538 -0.2050
 1740TIP3    H226780   4.527   4.046   2.202 -1.1590  0.7862  1.0525
 1741TIP3   OH226781   6.757   5.298   0.970 -0.5196  0.6472 -0.4013
 1741TIP3    H126782   6.680   5.304   1.027 -1.1243 -0.2941 -1.1064
 1741TIP3    H226783   6.722   5.303   0.881  0.2488  0.3336 -0.7306
 1742TIP3   OH226784   3.485   6.178   0.285 -0.3469  0.1748 -0.0082
 1742TIP3    H126785   3.519   6.186   0.196  0.8682  0.2670  0.4466
 1742TIP3    H226786   3.416   6.244   0.290  0.3440  0.9616 -0.5418
 1743TIP3   OH226787   1.308   3.018   2.140  0.0624 -0.1528 -0.0081
 1743TIP3    H126788   1.300   2.938   2.088  0.3285  0.0778 -0.4169
 1743TIP3    H226789   1.238   3.075   2.108  0.8226  0.3616 -0.8181
 1744TIP3   OH226790   4.849   0.158   2.183  0.1536 -0.3245  0.0416
 1744TIP3    H126791   4.920   0.222   2.190 -1.5041  1.7120 -0.4937
 1744TIP3    H226792   4.794   0.175   2.259 -0.9334 -0.2639 -0.7302
 1745TIP3   OH226793   3.118   3.589   1.484  0.0827 -0.0957  0.4916
 1745TIP3    H126794   3.177   3.619   1.553  0.9482  0.4771 -0.4618
 1745TIP3    H226795   3.056   3.661   1.473 -0.0740 -0.1995  0.6741
 1746TIP3   OH226796   0.654   1.878   0.251 -0.3809  0.2640  0.0798
 1746TIP3    H126797   0.744   1.880   0.284 -0.5522 -0.3266  0.5909
 1746TIP3    H226798   0.628   1.786   0.258 -0.1634 -0.0681 -2.4000
 1747TIP3   OH226799   2.580   5.000   2.876  0.6930 -0.1388 -0.5406
 1747TIP3    H126800   2.565   5.076   2.932 -0.8722 -0.7758 -0.0449
 1747TIP3    H226801   2.541   5.023   2.792  1.2361  0.0232 -0.7585
 1748TIP3   OH226802   1.437   1.846   8.516  0.1487 -0.0267  0.0334
 1748TIP3    H126803   1.458   1.757   8.487 -0.9745 -0.4648  0.5041
 1748TIP3    H226804   1.397   1.887   8.439  0.2403 -0.0872 -0.0472
 1749TIP3   OH226805   5.187   2.061   0.067  0.1775 -0.4984  0.2213
 1749TIP3    H126806   5.282   2.066   0.065  0.2146 -1.2193 -1.5497
 1749TIP3    H226807   5.160   2.074  -0.024 -1.4419  0.0401  0.7404
 1750TIP3   OH226808   3.058   3.554   0.899 -0.0383  0.0584  0.2125
 1750TIP3    H126809   3.109   3.498   0.839 -0.8425  0.4719 -0.8981
 1750TIP3    H226810   3.072   3.515   0.985  0.2554 -1.2385 -0.3854
 1751TIP3   OH226811   5.246   0.191   7.540 -0.0274 -0.1538  0.1089
 1751TIP3    H126812   5.235   0.194   7.444 -0.2760  1.1413  0.1598
 1751TIP3    H226813   5.330   0.234   7.555  0.2347 -0.7796  0.4494
 1752TIP3   OH226814   3.913   6.052   1.009  0.5452 -0.2141  0.5046
 1752TIP3    H126815   3.992   6.012   1.045  0.4863 -0.4918  0.3257
 1752TIP3    H226816   3.854   5.978   0.993  1.4450 -0.4203 -2.4607
 1753TIP3   OH226817   4.550   6.511   1.340  0.2040 -0.5144  0.2701
 1753TIP3    H126818   4.490   6.579   1.371  1.4103  0.7678 -0.1340
 1753TIP3    H226819   4.517   6.431   1.380 -0.9454  0.3755  1.1887
 1754TIP3   OH226820   4.671   3.220   2.097 -0.0402  0.0660 -0.3002
 1754TIP3    H126821   4.638   3.254   2.014  0.6407  1.0065 -0.2044
 1754TIP3    H226822   4.746   3.165   2.073 -0.2232 -0.1702 -0.3423
 1755TIP3   OH226823   2.728   1.438   1.632  0.3617  0.4018 -0.2377
 1755TIP3    H126824   2.818   1.456   1.661  0.5573 -1.5923  0.5545
 1755TIP3    H226825   2.738   1.371   1.565 -0.5489 -0.3975  0.3904
 1756TIP3   OH226826   5.597   1.852   7.409  0.2060  0.0605 -0.0998
 1756TIP3    H126827   5.597   1.938   7.367  1.0272 -0.0310 -0.3014
 1756TIP3    H226828   5.601   1.790   7.336  0.7607 -0.1178  0.0786
 1757TIP3   OH226829   3.286   4.363   2.230 -0.1199 -0.9716  0.4366
 1757TIP3    H126830   3.343   4.286   2.237  1.2595 -0.1952 -1.5083
 1757TIP3    H226831   3.297   4.393   2.140 -1.4692  0.8884  0.8325
 1758TIP3   OH226832   0.982   5.593   7.706 -0.5716 -0.1102  0.1034
 1758TIP3    H126833   0.910   5.535   7.728 -0.3583 -0.7349 -0.7912
 1758TIP3    H226834   0.975   5.605   7.611  0.8142 -0.6182 -0.0840
 1759TIP3   OH226835   4.954   4.397   1.290  0.2201 -0.2857  0.8782
 1759TIP3    H126836   4.916   4.323   1.338  1.5854 -1.8644 -0.3797
 1759TIP3    H226837   4.989   4.455   1.358 -1.5643 -0.3489  1.9155
 1760TIP3   OH226838   1.980   1.847   7.572 -0.3225  0.0329  0.5024
 1760TIP3    H126839   2.066   1.889   7.573 -0.0164 -0.5640 -0.1550
 1760TIP3    H226840   1.919   1.920   7.560  0.1210  0.4094  0.4805
 1761TIP3   OH226841   3.555   5.916   8.662 -0.7329 -0.2010 -0.0387
 1761TIP3    H126842   3.537   5.853   8.732  1.8829  0.6707  1.5503
 1761TIP3    H226843   3.502   5.993   8.686  0.7023  0.3726  1.5000
 1762TIP3   OH226844   2.672   2.332   2.932  0.6244  0.2578  0.2536
 1762TIP3    H126845   2.760   2.346   2.897 -0.5032  0.4818 -2.7807
 1762TIP3    H226846   2.622   2.409   2.903 -0.5773  0.2643  2.1191
 1763TIP3   OH226847   3.147   4.511   0.212 -0.2045 -0.1071  0.3364
 1763TIP3    H126848   3.078   4.535   0.150  0.7170  0.6736 -0.4171
 1763TIP3    H226849   3.153   4.416   0.207 -1.0450 -0.1644  0.2330
 1764TIP3   OH226850   1.222   0.311   0.726  0.8043  0.6296  0.2264
 1764TIP3    H126851   1.211   0.374   0.655 -0.4551  1.6810  1.2985
 1764TIP3    H226852   1.290   0.350   0.782  0.5593  0.6560  0.5026
 1765TIP3   OH226853   2.842   3.211   0.195 -0.3167  0.0181 -0.2609
 1765TIP3    H126854   2.825   3.269   0.121  2.2799  0.4223 -0.6549
 1765TIP3    H226855   2.773   3.230   0.258 -1.4705  1.0573 -1.7800
 1766TIP3   OH226856   2.383   0.628   7.600  0.4897  0.2104 -0.1510
 1766TIP3    H126857   2.376   0.724   7.593  0.8716  0.1275 -3.0556
 1766TIP3    H226858   2.470   0.608   7.565 -0.5178 -1.3210 -1.9400
 1767TIP3   OH226859   5.411   6.068   0.971 -0.1818  0.4208  0.1609
 1767TIP3    H126860   5.376   6.156   0.958 -1.9590 -0.4529 -1.3656
 1767TIP3    H226861   5.336   6.010   0.963  1.2926 -1.4421 -1.4306
 1768TIP3   OH226862   3.263   3.406   8.535  0.1343  0.1457 -0.8563
 1768TIP3    H126863   3.341   3.362   8.568  0.0707 -0.4728 -1.5163
 1768TIP3    H226864   3.204   3.336   8.508 -0.1913  0.6220 -1.4164
 1769TIP3   OH226865   5.778   5.233   0.913  0.1522 -0.0017 -0.6274
 1769TIP3    H126866   5.827   5.156   0.883 -0.9500 -0.6671 -0.7774
 1769TIP3    H226867   5.785   5.231   1.008  1.2015  0.4462 -0.6898
 1770TIP3   OH226868   5.177   5.082   8.176 -0.0986  0.3501  0.1863
 1770TIP3    H126869   5.240   5.115   8.112  1.8152  1.3999  2.4355
 1770TIP3    H226870   5.186   4.987   8.172 -2.4311  0.0941 -3.2588
 1771TIP3   OH226871   3.477   5.585   2.287 -0.0972  0.6930 -0.2850
 1771TIP3    H126872   3.488   5.494   2.314 -0.4482  0.6352 -0.3359
 1771TIP3    H226873   3.411   5.582   2.218 -0.6793  1.0688  0.2414
 1772TIP3   OH226874   1.143   0.928   0.138 -0.0853  0.3542  0.5598
 1772TIP3    H126875   1.172   0.980   0.063  1.8332 -0.5094  0.6590
 1772TIP3    H226876   1.079   0.985   0.182 -0.1649  1.4611 -0.8990
 1773TIP3   OH226877   6.285   6.410   7.830 -0.3498 -0.0912  0.5932
 1773TIP3    H126878   6.368   6.451   7.807 -0.7594  0.3847 -0.0895
 1773TIP3    H226879   6.219   6.477   7.811 -1.0223 -0.9859 -0.4123
 1774TIP3   OH226880   4.308   5.362   2.600  0.1172  0.3334 -0.0956
 1774TIP3    H126881   4.247   5.368   2.674 -0.3904  0.9494 -0.5629
 1774TIP3    H226882   4.384   5.413   2.628  0.5364 -0.6125  0.5765
 1775TIP3   OH226883   3.286   5.812   8.378 -0.0719  0.3386  0.2144
 1775TIP3    H126884   3.275   5.841   8.469 -0.3667  1.8576 -0.2833
 1775TIP3    H226885   3.204   5.834   8.335  0.4319  0.5830 -0.6588
 1776TIP3   OH226886   5.840   1.659   2.539  0.3086 -0.0251 -0.0746
 1776TIP3    H126887   5.791   1.579   2.557 -1.6510  0.9870 -0.5911
 1776TIP3    H226888   5.932   1.632   2.537 -0.2310 -2.0501  0.7425
 1777TIP3   OH226889   3.545   2.477   2.760 -0.4825 -0.2001 -0.5940
 1777TIP3    H126890   3.621   2.509   2.808 -1.6880 -0.4623  1.6305
 1777TIP3    H226891   3.575   2.398   2.715  0.9707  0.6650 -1.2000
 1778TIP3   OH226892   1.940   6.825   0.400 -0.4523 -0.4055 -0.0583
 1778TIP3    H126893   1.958   6.838   0.307  0.3756  0.6729  0.2390
 1778TIP3    H226894   2.024   6.797   0.437 -0.7524 -0.7324  0.3886
 1779TIP3   OH226895   2.130   4.354   7.849 -0.5586 -0.2140 -0.4047
 1779TIP3    H126896   2.221   4.383   7.855 -0.4988 -0.0518 -1.6609
 1779TIP3    H226897   2.133   4.261   7.871 -0.1567 -0.1145 -0.0281
 1780TIP3   OH226898   2.511   1.337   0.907  0.3421  0.1139 -0.0103
 1780TIP3    H126899   2.452   1.275   0.864  0.1771  1.7918 -2.4184
 1780TIP3    H226900   2.458   1.416   0.921  1.3738  0.8312 -0.0045
 1781TIP3   OH226901   5.224   5.254   0.987  0.5874 -0.1745 -0.3658
 1781TIP3    H126902   5.212   5.280   0.896  1.9653  0.2052 -0.4568
 1781TIP3    H226903   5.319   5.257   1.001  0.3082  1.4247  1.5559
 1782TIP3   OH226904   4.129   1.244   1.269  0.4005 -0.3891  0.1199
 1782TIP3    H126905   4.165   1.233   1.181 -0.1445  0.5081 -0.2264
 1782TIP3    H226906   4.138   1.158   1.309 -0.4364 -1.1445 -1.2347
 1783TIP3   OH226907   5.441   5.327   0.441  0.5911  0.5273 -1.1899
 1783TIP3    H126908   5.517   5.383   0.427  0.1362  0.7030 -3.2526
 1783TIP3    H226909   5.460   5.248   0.390 -0.4826  0.4811 -1.5434
 1784TIP3   OH226910   1.552   6.589   0.938  0.0589  0.0583  0.2092
 1784TIP3    H126911   1.578   6.498   0.922  2.6552  0.6929  0.4030
 1784TIP3    H226912   1.520   6.589   1.028  1.9853 -0.3557  0.9560
 1785TIP3   OH226913   5.553   3.939   8.120 -0.2929  0.7519 -0.5196
 1785TIP3    H126914   5.567   3.877   8.192 -2.0630  1.7304  0.7257
 1785TIP3    H226915   5.513   3.887   8.051  1.3166 -0.1776 -0.8050
 1786TIP3   OH226916   3.665   0.234   7.396  0.7813  0.3343 -0.2863
 1786TIP3    H126917   3.698   0.320   7.370 -1.8975  1.7449  0.5044
 1786TIP3    H226918   3.688   0.226   7.488  2.9621 -0.8747 -0.8774
 1787TIP3   OH226919   0.730   2.156   7.793 -0.0983 -0.3342 -0.0798
 1787TIP3    H126920   0.806   2.178   7.738 -1.1847  0.2376 -1.4217
 1787TIP3    H226921   0.765   2.096   7.859  1.6844  0.5428 -0.1463
 1788TIP3   OH226922   1.881   3.457   1.398 -0.6511  0.3690 -0.3390
 1788TIP3    H126923   1.793   3.427   1.375 -1.0727  1.1110  0.2552
 1788TIP3    H226924   1.874   3.485   1.489  0.2436  0.2820 -0.2371
 1789TIP3   OH226925   2.271   3.515   2.066  0.0625  0.4550  0.3104
 1789TIP3    H126926   2.183   3.536   2.095  0.2535  0.7520  0.6810
 1789TIP3    H226927   2.287   3.426   2.099  0.5341  1.0426  1.7293
 1790TIP3   OH226928   0.031   2.670   7.943 -0.6090  0.4069 -0.0160
 1790TIP3    H126929   0.089   2.601   7.912  0.1224  0.9888  0.0318
 1790TIP3    H226930  -0.051   2.624   7.965 -0.3165 -0.3587 -0.4774
 1791TIP3   OH226931   0.033   5.855   8.019 -0.5633 -0.1340  0.6905
 1791TIP3    H126932  -0.009   5.909   7.952  1.3831 -0.5985 -1.0005
 1791TIP3    H226933  -0.037   5.799   8.052 -1.9625  1.3434  0.3449
 1792TIP3   OH226934   2.937   2.880   0.072  0.2062  0.3036  0.3750
 1792TIP3    H126935   2.937   2.970   0.039  0.4939 -0.2075 -1.0477
 1792TIP3    H226936   2.985   2.830   0.007 -1.4132 -1.2006  0.2543
 1793TIP3   OH226937   3.803   3.973   3.009  0.0179 -0.0581  0.2809
 1793TIP3    H126938   3.833   4.004   3.095  1.0275  2.1728 -0.8044
 1793TIP3    H226939   3.883   3.943   2.966  0.5286  3.7365 -1.7639
 1794TIP3   OH226940   2.967   6.189   0.780 -0.4898  0.0680 -0.3556
 1794TIP3    H126941   2.916   6.236   0.845 -0.4875  0.8877 -0.9363
 1794TIP3    H226942   3.025   6.254   0.742  0.1914 -0.6098 -0.5051
 1795TIP3   OH226943   6.154   0.258   0.990  0.9091  0.1665  0.4594
 1795TIP3    H126944   6.235   0.212   0.969 -0.3583 -1.2112 -1.8978
 1795TIP3    H226945   6.099   0.247   0.912 -1.2797  1.6791  1.6626
 1796TIP3   OH226946   4.468   2.238   2.609  0.0026  0.4005  0.5089
 1796TIP3    H126947   4.522   2.172   2.651  0.9547  0.8512  0.0168
 1796TIP3    H226948   4.380   2.223   2.644  0.9120  1.3909  3.4464
 1797TIP3   OH226949   4.575   2.905   0.760 -0.5072  0.2084  0.4846
 1797TIP3    H126950   4.557   2.831   0.703 -1.3857  1.1826 -0.5372
 1797TIP3    H226951   4.496   2.914   0.814 -0.1669  0.0478  1.0183
 1798TIP3   OH226952   3.385   6.805   0.194 -0.1594 -0.0696 -0.1147
 1798TIP3    H126953   3.335   6.724   0.200  0.3081 -0.7369 -3.5621
 1798TIP3    H226954   3.477   6.776   0.195  0.0189  0.0807 -3.2904
 1799TIP3   OH226955   3.181   6.237   8.086  0.2851  0.1982  0.3313
 1799TIP3    H126956   3.225   6.195   8.160 -0.4948 -0.5452  0.3810
 1799TIP3    H226957   3.177   6.169   8.018 -0.8104  0.2403  0.3403
 1800TIP3   OH226958   6.819   0.666   1.352  0.2316 -0.0316 -0.6076
 1800TIP3    H126959   6.749   0.647   1.415  1.5716 -1.1366  0.6332
 1800TIP3    H226960   6.882   0.594   1.364  1.7889  1.1497 -1.3300
 1801TIP3   OH226961   5.081   0.435   0.685 -0.4578  0.2017  0.2542
 1801TIP3    H126962   5.103   0.380   0.760 -0.8251  1.0446  1.0038
 1801TIP3    H226963   5.029   0.506   0.722 -0.7914  0.5456 -0.8323
 1802TIP3   OH226964   0.744   2.036   0.678  0.0145 -0.3418 -0.1036
 1802TIP3    H126965   0.739   2.017   0.771  0.5834  2.9387  0.7475
 1802TIP3    H226966   0.820   1.987   0.647 -1.8642 -3.8174  0.3494
 1803TIP3   OH226967   5.316   1.731   7.305 -0.1412 -0.1003  0.1098
 1803TIP3    H126968   5.327   1.668   7.234 -0.7545  0.6831 -0.7028
 1803TIP3    H226969   5.286   1.679   7.380  1.8541 -1.1391  0.2226
 1804TIP3   OH226970   3.201   3.402   0.164  0.0332 -0.0947 -0.1007
 1804TIP3    H126971   3.234   3.312   0.174 -0.8534 -0.5145 -0.8566
 1804TIP3    H226972   3.144   3.415   0.240 -1.8645 -1.1149 -1.2674
 1805TIP3   OH226973   6.737   2.126   2.620 -0.4825  0.0549  0.2431
 1805TIP3    H126974   6.676   2.065   2.660  0.0616 -0.8624 -0.2820
 1805TIP3    H226975   6.708   2.133   2.529 -0.8812  1.0393  0.4284
 1806TIP3   OH226976   4.111   4.089   7.840  0.0794  0.0534  0.1880
 1806TIP3    H126977   4.030   4.139   7.833  0.1003  0.0174 -0.3691
 1806TIP3    H226978   4.132   4.089   7.933 -0.2300  0.5900  0.2603
 1807TIP3   OH226979   5.931   4.821   1.970 -0.3160 -0.2438  0.4247
 1807TIP3    H126980   5.971   4.735   1.967  0.7224  0.2441 -0.1623
 1807TIP3    H226981   5.840   4.806   1.944 -0.3880 -1.2837  1.2223
 1808TIP3   OH226982   2.015   5.674   1.690 -0.2782  0.0939 -0.2642
 1808TIP3    H126983   1.957   5.599   1.677  1.1809 -0.8725 -1.4289
 1808TIP3    H226984   2.092   5.655   1.637  1.2595  1.2151  1.4486
 1809TIP3   OH226985   3.877   4.532   0.789  0.3505 -0.4557  0.0677
 1809TIP3    H126986   3.803   4.472   0.781 -0.1462 -0.0662  1.3917
 1809TIP3    H226987   3.837   4.618   0.800  0.9886 -0.2447  0.8370
 1810TIP3   OH226988   3.625   0.306   8.019  0.2171  0.4402 -0.2501
 1810TIP3    H126989   3.534   0.280   8.011 -0.0810  1.9166 -2.4557
 1810TIP3    H226990   3.622   0.398   8.045  1.1213  0.1878  0.8236
 1811TIP3   OH226991   4.962   4.139   7.237 -0.1794  0.4956  0.0092
 1811TIP3    H126992   4.932   4.090   7.161 -0.9092  0.7828  0.1067
 1811TIP3    H226993   5.011   4.213   7.200 -0.9163  0.8848 -0.1924
 1812TIP3   OH226994   2.588   1.731   2.020  0.4434  0.4002  0.3555
 1812TIP3    H126995   2.674   1.692   2.035  1.0122  1.7913  0.8326
 1812TIP3    H226996   2.599   1.786   1.944 -0.0950  0.4110  0.2816
 1813TIP3   OH226997   3.422   6.140   0.790 -1.1318  0.0900 -0.1041
 1813TIP3    H126998   3.478   6.153   0.713  0.2640 -0.3422  0.7915
 1813TIP3    H226999   3.341   6.185   0.768 -0.4425  0.7536 -1.4705
 1814TIP3   OH227000   4.068   0.898   1.153  0.1289  0.5516 -0.3779
 1814TIP3    H127001   4.155   0.927   1.180  0.3769  0.6311 -1.2377
 1814TIP3    H227002   4.078   0.803   1.142  0.2340  0.6300 -0.9508
 1815TIP3   OH227003   4.793   5.324   1.218 -1.1186  0.0334 -0.7083
 1815TIP3    H127004   4.840   5.355   1.141 -1.5336  1.3829 -0.4357
 1815TIP3    H227005   4.720   5.273   1.183 -1.1661  0.4383 -1.2043
 1816TIP3   OH227006   0.553   0.066   2.025  0.2440 -0.5035  0.7703
 1816TIP3    H127007   0.635   0.041   2.068  0.4848  0.5684  0.9850
 1816TIP3    H227008   0.485   0.043   2.088  0.1413 -3.3952 -0.2730
 1817TIP3   OH227009   2.683   5.930   0.397 -0.2950  0.1868 -0.2287
 1817TIP3    H127010   2.749   5.876   0.440 -1.3817 -0.9695  0.0466
 1817TIP3    H227011   2.728   6.011   0.376  1.0276 -0.3232  0.5426
 1818TIP3   OH227012   2.844   5.672   1.945 -0.1371  0.1895  0.1852
 1818TIP3    H127013   2.927   5.642   1.983  0.1868  1.7431  0.7632
 1818TIP3    H227014   2.809   5.734   2.009 -1.8546 -0.5488  0.0393
 1819TIP3   OH227015   1.370   2.178   3.299 -0.1715  0.7025  0.5440
 1819TIP3    H127016   1.313   2.131   3.360 -2.3916  3.2067  0.6134
 1819TIP3    H227017   1.361   2.131   3.216 -0.0400 -0.5908  1.2399
 1820TIP3   OH227018   5.628   4.878   2.289 -0.1448 -0.5099  0.3597
 1820TIP3    H127019   5.568   4.939   2.246 -1.5229 -0.7033  1.9556
 1820TIP3    H227020   5.582   4.794   2.289  1.3711 -1.4133 -1.0053
 1821TIP3   OH227021   6.267   0.325   7.344  0.1888 -0.0656  0.8759
 1821TIP3    H127022   6.243   0.234   7.325 -2.2331  0.9767 -1.6878
 1821TIP3    H227023   6.235   0.339   7.434 -0.3440 -1.4386  0.9329
 1822TIP3   OH227024   3.688   3.142   8.437  0.6410  0.5733 -0.1440
 1822TIP3    H127025   3.668   3.049   8.426  0.5130  0.5021  0.6160
 1822TIP3    H227026   3.701   3.175   8.348 -0.4696  0.0826 -0.5026
 1823TIP3   OH227027   3.040   4.414   1.075 -0.1026  0.2737 -0.9689
 1823TIP3    H127028   3.074   4.372   1.154  0.6430  0.2302 -1.3083
 1823TIP3    H227029   2.998   4.343   1.027 -1.6958  0.5242 -0.0328
 1824TIP3   OH227030   0.836   5.385   0.626  0.7376  0.0857 -0.5181
 1824TIP3    H127031   0.932   5.383   0.624  0.7318 -1.3197 -0.9057
 1824TIP3    H227032   0.811   5.313   0.683 -0.1037  1.5848  1.1009
 1825TIP3   OH227033   6.392   3.318   2.789 -0.0717  0.1811 -0.2429
 1825TIP3    H127034   6.383   3.224   2.771 -1.5740  0.2823 -0.1493
 1825TIP3    H227035   6.379   3.327   2.883  2.7140  0.2315  0.2179
 1826TIP3   OH227036   0.497   6.412   8.039 -0.7100 -0.3037  0.1556
 1826TIP3    H127037   0.565   6.358   8.079 -1.9465 -0.8350  1.6175
 1826TIP3    H227038   0.497   6.493   8.090  0.0255  0.4671 -1.0002
 1827TIP3   OH227039   5.230   0.849   1.742 -0.1893 -0.5230 -0.1248
 1827TIP3    H127040   5.213   0.862   1.649 -1.1645  2.3949  0.3455
 1827TIP3    H227041   5.149   0.878   1.786  1.1856  0.8478  1.6886
 1828TIP3   OH227042   1.509   2.870   7.573  0.2537 -0.3482 -0.0659
 1828TIP3    H127043   1.588   2.864   7.518 -0.2437 -1.8641 -0.6585
 1828TIP3    H227044   1.499   2.964   7.589  1.7451 -0.0557 -0.6079
 1829TIP3   OH227045   3.615   0.178   1.935  0.3749  0.3734  0.1197
 1829TIP3    H127046   3.695   0.210   1.893 -0.2377  1.3320 -0.3458
 1829TIP3    H227047   3.645   0.138   2.016  1.1958  2.1981  0.7788
 1830TIP3   OH227048   2.877   2.249   7.903 -0.1798  0.3282  0.1731
 1830TIP3    H127049   2.868   2.286   7.815  1.7252 -0.9838 -0.6507
 1830TIP3    H227050   2.845   2.317   7.961 -0.1059  1.8284 -1.4613
 1831TIP3   OH227051   3.961   1.717   1.594 -0.7761  0.0779  0.3101
 1831TIP3    H127052   4.009   1.746   1.671 -1.3064  0.8812  0.3631
 1831TIP3    H227053   4.028   1.689   1.532 -0.2916  0.3923  0.6889
 1832TIP3   OH227054   4.721   2.005   0.265  0.3389 -0.6356 -0.1260
 1832TIP3    H127055   4.644   2.050   0.230  1.6208  1.0205 -0.9746
 1832TIP3    H227056   4.717   1.918   0.225 -1.5838 -0.9429  0.6236
 1833TIP3   OH227057   4.944   1.863   2.138  0.0844  0.1508  0.3251
 1833TIP3    H127058   4.899   1.790   2.181  0.3037 -0.3901 -0.3371
 1833TIP3    H227059   4.963   1.925   2.208  0.7409 -0.8629  1.0677
 1834TIP3   OH227060   0.098   1.969   0.737  0.3654  0.5747  0.0118
 1834TIP3    H127061   0.161   1.909   0.776 -0.3094 -0.8766 -1.0395
 1834TIP3    H227062   0.025   1.913   0.710 -1.1097  2.1106  0.6015
 1835TIP3   OH227063   5.892   0.077   0.138 -0.3940 -0.0965  0.5156
 1835TIP3    H127064   5.819   0.055   0.196  1.4835 -0.9356  2.7073
 1835TIP3    H227065   5.960   0.013   0.160  1.1914  0.9544 -1.1022
 1836TIP3   OH227066   6.445   4.037   8.296  0.3192 -0.1928 -0.1850
 1836TIP3    H127067   6.503   3.986   8.240 -0.5361 -0.7692 -0.5625
 1836TIP3    H227068   6.360   3.994   8.288 -0.3579  1.1098 -0.2800
 1837TIP3   OH227069   1.123   4.595   8.182  0.2841  0.3738 -0.2171
 1837TIP3    H127070   1.173   4.536   8.126  1.0529 -0.0993  0.9408
 1837TIP3    H227071   1.048   4.620   8.129  1.0149 -0.0238 -1.4723
 1838TIP3   OH227072   3.622   6.219   8.068  0.4045  0.7580 -0.7395
 1838TIP3    H127073   3.591   6.130   8.084  3.1090 -0.1610  0.0937
 1838TIP3    H227074   3.620   6.229   7.973  0.2957 -0.2920 -0.8594
 1839TIP3   OH227075   6.554   2.873   0.745  0.5451  0.3660 -0.2863
 1839TIP3    H127076   6.595   2.846   0.827  0.8207 -0.7780 -0.7756
 1839TIP3    H227077   6.616   2.936   0.707  1.5433 -0.8119 -0.6809
 1840TIP3   OH227078   0.675   3.685   1.836 -0.4662  0.2323 -0.0255
 1840TIP3    H127079   0.594   3.637   1.853 -0.0685 -0.7359 -0.7202
 1840TIP3    H227080   0.648   3.764   1.789 -1.0621  0.2737  0.3801
 1841TIP3   OH227081   1.521   5.493   1.902  0.3197  0.2829 -0.0574
 1841TIP3    H127082   1.580   5.452   1.966  0.1416  1.0718  0.6295
 1841TIP3    H227083   1.442   5.514   1.952  0.2117  0.9896 -0.5111
 1842TIP3   OH227084   5.828   6.010   1.936 -0.3003  0.4760  0.0766
 1842TIP3    H127085   5.778   5.937   1.899 -1.1646  1.0424  0.1230
 1842TIP3    H227086   5.763   6.075   1.959  0.4645  1.2440  0.1050
 1843TIP3   OH227087   2.986   2.671   8.227  0.3779 -0.1684  0.1632
 1843TIP3    H127088   2.953   2.598   8.280 -2.0409  0.6460 -0.1122
 1843TIP3    H227089   2.980   2.639   8.137 -0.4317  0.2620  0.0608
 1844TIP3   OH227090   3.653   2.249   0.280 -0.0004 -0.0156 -0.2656
 1844TIP3    H127091   3.614   2.187   0.219 -0.1934 -0.1287 -0.0278
 1844TIP3    H227092   3.600   2.329   0.270  0.0117 -0.0111 -0.2944
 1845TIP3   OH227093   1.929   2.246   0.778 -0.8124 -0.8858  0.1763
 1845TIP3    H127094   1.894   2.263   0.865  0.4353  1.1639  0.3372
 1845TIP3    H227095   2.006   2.303   0.771 -0.2248 -1.8344 -1.8457
 1846TIP3   OH227096   4.795   5.576   2.184  0.3365 -0.2719  0.4347
 1846TIP3    H127097   4.736   5.609   2.252  0.0708  0.2338 -0.0274
 1846TIP3    H227098   4.878   5.560   2.228 -0.6738 -2.9245  1.5600
 1847TIP3   OH227099   1.604   2.998   8.214 -0.4156  0.4256  0.1115
 1847TIP3    H127100   1.605   2.936   8.141  2.1402 -0.8181  1.0803
 1847TIP3    H227101   1.526   2.975   8.265 -0.9271 -0.2398 -0.9396
 1848TIP3   OH227102   0.709   6.069   7.901 -0.1972 -0.6313 -1.0507
 1848TIP3    H127103   0.755   6.004   7.847  0.2556 -0.3615 -0.9889
 1848TIP3    H227104   0.742   6.153   7.871 -0.1882 -0.4634 -0.5747
 1849TIP3   OH227105   3.642   5.889   2.387 -0.6420  0.2670  0.6370
 1849TIP3    H127106   3.690   5.820   2.342  0.0962  1.4614 -0.4711
 1849TIP3    H227107   3.706   5.930   2.445 -0.8180  0.6262  0.5817
 1850TIP3   OH227108   3.838   0.981   1.713  0.2494  0.3993 -0.6066
 1850TIP3    H127109   3.893   1.044   1.667  0.9633  0.5496  0.4167
 1850TIP3    H227110   3.802   0.925   1.644  1.1512  0.7142 -1.3513
 1851TIP3   OH227111   2.978   0.753   2.603  0.1957 -0.1838  0.6103
 1851TIP3    H127112   2.918   0.749   2.528  1.1302  0.8702 -0.2235
 1851TIP3    H227113   2.921   0.741   2.679 -0.8146 -1.0368 -0.2392
 1852TIP3   OH227114   5.175   4.353   2.507 -0.6865  0.5368 -0.3556
 1852TIP3    H127115   5.191   4.267   2.467 -1.1245  0.3492 -0.1432
 1852TIP3    H227116   5.101   4.388   2.458 -0.3250  0.9238 -0.6306
 1853TIP3   OH227117   1.831   4.600   0.874  0.1191 -0.2039  0.1273
 1853TIP3    H127118   1.783   4.525   0.909 -1.2758  1.0156  0.9420
 1853TIP3    H227119   1.801   4.607   0.783 -0.6986  0.0963  0.4110
 1854TIP3   OH227120   5.479   3.474   2.017 -0.4118 -0.7959  0.0948
 1854TIP3    H127121   5.506   3.547   1.962  2.1382 -1.7245 -0.0128
 1854TIP3    H227122   5.440   3.515   2.094  1.1349  0.7374  0.1287
 1855TIP3   OH227123   2.546   5.655   2.480  0.1789  0.0637  0.4362
 1855TIP3    H127124   2.511   5.738   2.511 -1.0682 -0.5021  0.5822
 1855TIP3    H227125   2.551   5.600   2.558  0.4131 -0.2002  0.2389
 1856TIP3   OH227126   2.203   5.843   2.053  0.4727  0.6982  0.1186
 1856TIP3    H127127   2.259   5.773   2.088  0.7614  0.7522 -0.2299
 1856TIP3    H227128   2.263   5.898   2.002 -0.2939 -0.6155 -2.3413
 1857TIP3   OH227129   4.849   1.795   1.689 -0.5912 -0.4346  0.0688
 1857TIP3    H127130   4.765   1.765   1.655 -0.9504 -0.0643  0.6126
 1857TIP3    H227131   4.912   1.731   1.656 -1.4385 -2.4145  1.9831
 1858TIP3   OH227132   6.409   4.015   7.623  0.5763  0.2694  0.0739
 1858TIP3    H127133   6.332   4.070   7.638 -1.5451 -2.6288  0.6949
 1858TIP3    H227134   6.464   4.030   7.699 -0.8773  0.1276  1.1968
 1859TIP3   OH227135   0.762   3.994   0.406 -0.1737  0.0097  0.2935
 1859TIP3    H127136   0.854   4.009   0.384 -0.2978  1.5041  0.6161
 1859TIP3    H227137   0.764   3.925   0.472  0.7419  0.1664  0.4438
 1860TIP3   OH227138   2.231   1.680   0.074  0.0128 -0.0126 -0.4121
 1860TIP3    H127139   2.148   1.657   0.032  0.0075  0.3681 -0.6147
 1860TIP3    H227140   2.298   1.651   0.012  0.0812 -1.3429  0.2425
 1861TIP3   OH227141   2.377   3.279   1.160 -0.1274  0.2539  0.2148
 1861TIP3    H127142   2.357   3.192   1.123 -1.3299  0.7481 -0.3657
 1861TIP3    H227143   2.450   3.264   1.219 -1.2172 -1.4302  1.2098
 1862TIP3   OH227144   5.967   0.251   1.196  0.4033  0.4883  0.4655
 1862TIP3    H127145   5.916   0.171   1.185  1.9288 -0.6248  1.0796
 1862TIP3    H227146   6.045   0.238   1.141  1.1221  1.1198  1.2914
 1863TIP3   OH227147   5.187   5.400   8.328 -0.0598 -0.0884 -0.1062
 1863TIP3    H127148   5.265   5.350   8.302 -0.1305  0.3832 -1.2561
 1863TIP3    H227149   5.177   5.467   8.260 -0.7394  0.6577  0.7116
 1864TIP3   OH227150   3.011   1.400   0.986  0.5721  0.2644 -0.5044
 1864TIP3    H127151   2.960   1.354   1.052 -1.0039  1.9164 -0.4988
 1864TIP3    H227152   2.997   1.351   0.906 -0.4284  0.2461 -0.3324
 1865TIP3   OH227153   5.407   3.088   1.888  0.1213  0.4093 -0.0705
 1865TIP3    H127154   5.489   3.045   1.915 -0.0921  0.6349  1.0091
 1865TIP3    H227155   5.433   3.148   1.819  0.7575 -0.0009 -0.1975
 1866TIP3   OH227156   3.777   0.336   1.139 -0.4329  0.1210  0.0537
 1866TIP3    H127157   3.683   0.343   1.160 -0.5576  0.0029 -0.4585
 1866TIP3    H227158   3.820   0.381   1.211 -0.9914  2.2533 -0.8629
 1867TIP3   OH227159   5.265   4.328   1.387 -0.3395 -0.5536  0.2831
 1867TIP3    H127160   5.246   4.403   1.444  2.5486 -1.0616  2.1437
 1867TIP3    H227161   5.233   4.252   1.436  1.5479 -0.9350  0.9965
 1868TIP3   OH227162   0.715   6.702   8.493  0.5343 -0.5696 -0.6040
 1868TIP3    H127163   0.740   6.729   8.404 -0.8994 -0.0552 -0.8772
 1868TIP3    H227164   0.690   6.783   8.536 -0.3837 -1.0196 -0.2758
 1869TIP3   OH227165   1.437   3.844   2.224  0.9105 -0.0931  0.1288
 1869TIP3    H127166   1.514   3.847   2.167  1.4566 -0.8737  0.8027
 1869TIP3    H227167   1.472   3.856   2.312  0.3591 -1.1725  0.5133
 1870TIP3   OH227168   1.270   0.996   0.380  0.4174 -0.0875 -0.3698
 1870TIP3    H127169   1.257   1.085   0.346 -0.8732 -0.0027  0.2904
 1870TIP3    H227170   1.239   0.939   0.310 -0.7137  0.0478  0.0016
 1871TIP3   OH227171   6.582   2.887   1.422 -0.1343 -0.2679 -0.8232
 1871TIP3    H127172   6.608   2.811   1.475  0.2105 -0.4403 -1.2449
 1871TIP3    H227173   6.494   2.864   1.391 -1.0840  0.5724  1.0916
 1872TIP3   OH227174   2.409   6.393   0.582 -0.2674  0.4781  0.6490
 1872TIP3    H127175   2.470   6.324   0.609 -0.5393  0.3157  0.8459
 1872TIP3    H227176   2.429   6.467   0.640  1.4713  1.3266 -0.9066
 1873TIP3   OH227177   3.795   1.810   7.776  0.2103 -0.2605 -0.0974
 1873TIP3    H127178   3.862   1.768   7.721  0.0893  1.0013 -1.2461
 1873TIP3    H227179   3.830   1.803   7.865  0.8619 -1.4955 -0.4229
 1874TIP3   OH227180   0.840   5.686   0.778 -0.2692  0.9159  0.3187
 1874TIP3    H127181   0.750   5.686   0.745  0.7709  2.9667 -2.9798
 1874TIP3    H227182   0.888   5.628   0.719  1.1568  2.4489 -0.1113
 1875TIP3   OH227183   1.442   5.998   7.502 -0.6564 -0.0827 -0.0201
 1875TIP3    H127184   1.411   5.936   7.568 -0.1635  0.8973  1.1713
 1875TIP3    H227185   1.370   6.061   7.493 -0.1014  0.6812  0.7711
 1876TIP3   OH227186   0.093   0.060   0.500 -0.0709 -0.0665  0.0282
 1876TIP3    H127187   0.034   0.059   0.425 -0.8466 -0.2400  0.6311
 1876TIP3    H227188   0.114  -0.032   0.515 -0.0067 -0.0417  0.0908
 1877TIP3   OH227189   6.251   1.973   7.634  0.4856 -0.8378 -0.0367
 1877TIP3    H127190   6.327   1.992   7.689  0.8600 -0.8189 -0.5543
 1877TIP3    H227191   6.181   1.954   7.696  1.0572 -1.4342  0.4509
 1878TIP3   OH227192   0.363   0.612   2.119  0.3282 -0.5348 -0.4205
 1878TIP3    H127193   0.380   0.643   2.208 -0.5210 -0.0083 -0.4331
 1878TIP3    H227194   0.277   0.569   2.125 -0.0251  0.0647 -1.1192
 1879TIP3   OH227195   3.302   6.371   8.621 -0.7807 -0.7781 -0.4626
 1879TIP3    H127196   3.344   6.373   8.535  0.0686 -1.4684 -0.0739
 1879TIP3    H227197   3.323   6.457   8.659 -1.6227 -0.2539 -1.1467
 1880TIP3   OH227198   6.719   3.729   0.496 -0.2061  0.1922  0.4132
 1880TIP3    H127199   6.719   3.768   0.409 -1.6998  1.3499  0.8807
 1880TIP3    H227200   6.628   3.737   0.525 -0.0833 -1.6064  1.4682
 1881TIP3   OH227201   0.013   6.498   8.092 -0.7001  0.6846 -0.3847
 1881TIP3    H127202  -0.027   6.584   8.083  0.0828  1.1344  0.2689
 1881TIP3    H227203  -0.046   6.439   8.045 -1.7413  1.4248 -0.0471
 1882TIP3   OH227204   4.402   3.859   8.004 -0.1286  0.3281 -0.7161
 1882TIP3    H127205   4.344   3.858   8.080  0.9857  0.6217  0.1645
 1882TIP3    H227206   4.449   3.942   8.011 -1.6481  1.4944 -3.0404
 1883TIP3   OH227207   4.691   6.577   1.630 -0.3462 -0.2801 -0.2086
 1883TIP3    H127208   4.644   6.660   1.619  0.5904  0.1702 -1.0150
 1883TIP3    H227209   4.757   6.578   1.561  0.3695 -1.2254  0.4361
 1884TIP3   OH227210   2.395   0.329   0.078  0.0928  0.2143  0.4017
 1884TIP3    H127211   2.412   0.304  -0.012  0.2575 -0.9889  0.7545
 1884TIP3    H227212   2.299   0.338   0.083  0.1423  1.1449 -0.0940
 1885TIP3   OH227213   0.835   5.780   0.435  0.2599 -0.0156 -0.4861
 1885TIP3    H127214   0.909   5.721   0.422 -0.3953 -0.8610 -0.4251
 1885TIP3    H227215   0.801   5.796   0.347  0.5214  0.3975 -0.5170
 1886TIP3   OH227216   2.294   2.584   7.895  0.5054 -0.1521 -0.4264
 1886TIP3    H127217   2.266   2.522   7.827 -1.0546  1.0908 -1.0003
 1886TIP3    H227218   2.353   2.534   7.951 -0.3792 -2.0291 -1.0869
 1887TIP3   OH227219   6.616   2.388   2.456 -0.1297  0.0121 -0.2079
 1887TIP3    H127220   6.676   2.411   2.386  1.6355  1.2008  1.5882
 1887TIP3    H227221   6.599   2.294   2.443  2.1065 -0.3661 -0.8140
 1888TIP3   OH227222   5.735   6.731   7.384 -0.0419  0.1263  0.0217
 1888TIP3    H127223   5.719   6.772   7.299  0.7952 -0.1221 -0.2615
 1888TIP3    H227224   5.678   6.778   7.444 -0.0525  0.8416 -0.5345
 1889TIP3   OH227225   5.507   3.595   8.569 -0.1837  0.3956  0.2500
 1889TIP3    H127226   5.591   3.642   8.569 -1.0514  2.0588 -1.4947
 1889TIP3    H227227   5.502   3.555   8.656  1.3532  2.1900  1.2346
 1890TIP3   OH227228   4.897   1.761   8.269  0.0685  0.6858 -0.5375
 1890TIP3    H127229   4.857   1.840   8.304 -2.0987 -1.0853  1.3155
 1890TIP3    H227230   4.823   1.708   8.240  1.3132 -1.2473 -0.3707
 1891TIP3   OH227231   0.507   5.482   8.048 -0.3754 -0.0382  0.0088
 1891TIP3    H127232   0.450   5.437   8.109  0.4982 -2.3858 -0.7910
 1891TIP3    H227233   0.453   5.552   8.012 -1.9366 -0.6365  1.0726
 1892TIP3   OH227234   1.879   5.058   7.881  0.2009  0.1694 -0.5730
 1892TIP3    H127235   1.820   5.121   7.841  1.5144  0.5122 -2.0805
 1892TIP3    H227236   1.825   5.009   7.944 -1.0685  2.0875 -0.1122
 1893TIP3   OH227237   0.205   0.193   0.883  0.0448  0.5406 -0.0230
 1893TIP3    H127238   0.198   0.230   0.796  4.5656 -1.7135 -1.7030
 1893TIP3    H227239   0.201   0.098   0.869  0.0846  0.1173  2.3603
 1894TIP3   OH227240   6.305   1.136   0.596  0.2030 -0.1484 -0.1899
 1894TIP3    H127241   6.311   1.084   0.516  1.7777 -0.3254  0.0083
 1894TIP3    H227242   6.216   1.121   0.629 -0.1739 -0.7538 -1.4316
 1895TIP3   OH227243   2.576   3.224   1.529  0.0148 -0.4316  0.2793
 1895TIP3    H127244   2.598   3.205   1.620  0.4376 -1.9646 -0.1157
 1895TIP3    H227245   2.514   3.297   1.534 -0.2385 -0.7168  1.8138
 1896TIP3   OH227246   3.397   6.805   0.781 -0.2055 -0.2960 -0.1258
 1896TIP3    H127247   3.405   6.814   0.686  0.6846 -1.2078 -0.1543
 1896TIP3    H227248   3.482   6.833   0.815 -0.8548  0.9848  0.4911
 1897TIP3   OH227249   0.175   1.829   0.377 -0.0164  0.2122 -0.8400
 1897TIP3    H127250   0.200   1.736   0.373 -1.3381 -0.1398 -1.6264
 1897TIP3    H227251   0.113   1.840   0.304 -1.6933  1.1467  0.6467
 1898TIP3   OH227252   6.141   3.998   0.468  0.7615  0.1280 -0.4888
 1898TIP3    H127253   6.055   3.957   0.482  0.4416  1.1477  0.6897
 1898TIP3    H227254   6.139   4.027   0.377 -0.3314  0.5343 -0.3593
 1899TIP3   OH227255   1.542   2.021   2.572  0.4463 -0.3311  0.3940
 1899TIP3    H127256   1.515   2.010   2.663 -0.9633 -2.4087 -0.1923
 1899TIP3    H227257   1.634   1.994   2.571  0.3497 -0.7270  1.1423
 1900TIP3   OH227258   4.160   3.120   0.783  0.0566 -0.0276  0.2815
 1900TIP3    H127259   4.156   3.115   0.878  0.4174 -1.2237  0.2524
 1900TIP3    H227260   4.121   3.205   0.761  1.6913  1.1387  1.6024
 1901TIP3   OH227261   1.268   3.811   8.398 -0.1231 -0.3089 -0.2593
 1901TIP3    H127262   1.181   3.783   8.426 -0.6638 -0.2519 -1.8345
 1901TIP3    H227263   1.254   3.854   8.314  0.9395  2.8261  1.0053
 1902TIP3   OH227264   4.123   5.570   7.337  0.0224  0.0072  0.2840
 1902TIP3    H127265   4.110   5.661   7.362  0.7618 -0.5948  3.3060
 1902TIP3    H227266   4.038   5.529   7.352  0.6116 -0.4805  2.8626
 1903TIP3   OH227267   4.649   5.495   2.403 -0.0779  0.2039 -0.4211
 1903TIP3    H127268   4.731   5.467   2.442 -0.9783  0.3402  1.6591
 1903TIP3    H227269   4.589   5.506   2.476 -1.2037  2.7158 -1.5922
 1904TIP3   OH227270   2.106   1.005   8.657 -0.6047 -0.4713 -0.3826
 1904TIP3    H127271   2.157   1.001   8.577 -0.1142 -0.9708 -0.0488
 1904TIP3    H227272   2.091   0.913   8.681 -1.7406 -0.3387 -0.5261
 1905TIP3   OH227273   1.675   3.241   2.342  0.3810  0.1556  0.2538
 1905TIP3    H127274   1.611   3.170   2.335  1.0659 -0.3913 -0.6308
 1905TIP3    H227275   1.760   3.197   2.348  0.8203  0.8969 -0.3083
 1906TIP3   OH227276   0.324   3.573   1.914 -0.3744  0.2136 -0.3528
 1906TIP3    H127277   0.381   3.567   1.990  1.7533 -1.6432 -1.9632
 1906TIP3    H227278   0.252   3.512   1.933  0.4356 -0.6596 -0.0392
 1907TIP3   OH227279   1.488   0.260   2.448 -0.1316  0.2980  0.4635
 1907TIP3    H127280   1.422   0.294   2.509 -1.5500  0.9379 -1.3076
 1907TIP3    H227281   1.457   0.172   2.426 -0.2525  0.4916 -0.1591
 1908TIP3   OH227282   4.428   5.564   0.180  0.5572  0.1074 -0.2152
 1908TIP3    H127283   4.376   5.510   0.239 -0.7447 -2.3016 -3.2768
 1908TIP3    H227284   4.504   5.510   0.159  0.8780  0.8119 -0.9206
 1909TIP3   OH227285   6.225   2.989   7.769  0.0920  0.4170 -0.0191
 1909TIP3    H127286   6.224   2.921   7.835  0.7962 -0.4380 -0.8631
 1909TIP3    H227287   6.279   3.059   7.806  1.0072 -0.3206  0.0551
 1910TIP3   OH227288   0.497   1.181   1.662  0.3011 -0.3493  0.3361
 1910TIP3    H127289   0.540   1.201   1.579  0.3002 -1.9132 -0.0632
 1910TIP3    H227290   0.513   1.088   1.676 -1.7853 -0.6803  0.8587
 1911TIP3   OH227291   0.656   5.511   1.183 -0.2952  0.0914  0.3950
 1911TIP3    H127292   0.726   5.507   1.118  0.6182 -2.0725  1.4074
 1911TIP3    H227293   0.581   5.469   1.141  0.1661 -0.9240  0.5586
 1912TIP3   OH227294   0.649   2.967   2.412 -0.7215  0.4559  0.3136
 1912TIP3    H127295   0.705   2.904   2.366 -0.2701  1.0283  0.0826
 1912TIP3    H227296   0.674   2.959   2.504  0.3787  1.3430  0.1106
 1913TIP3   OH227297   0.368   5.327   1.209 -0.2160  0.0868  0.3613
 1913TIP3    H127298   0.362   5.394   1.141 -0.7459 -0.0127  0.3113
 1913TIP3    H227299   0.278   5.303   1.228 -0.0022 -2.3418 -1.3170
 1914TIP3   OH227300   1.074   5.433   0.745  0.2807  0.2205  0.2386
 1914TIP3    H127301   1.099   5.524   0.759  2.9211 -0.7245  2.3465
 1914TIP3    H227302   1.149   5.393   0.700 -0.5045 -1.1097  0.0390
 1915TIP3   OH227303   5.102   0.859   0.651 -0.1563 -0.3554 -0.0251
 1915TIP3    H127304   5.035   0.808   0.606 -0.0346 -1.8577  1.3936
 1915TIP3    H227305   5.113   0.815   0.735  1.3572  0.9026  0.4829
 1916TIP3   OH227306   2.276   5.112   1.730 -0.2038 -0.3837  0.1778
 1916TIP3    H127307   2.293   5.146   1.643 -0.7574  2.8285  1.1714
 1916TIP3    H227308   2.342   5.153   1.786 -1.7223  0.1771  1.6826
 1917TIP3   OH227309   1.347   2.908   8.359  0.8757  0.1538  0.3145
 1917TIP3    H127310   1.347   2.822   8.316 -0.1336  0.0547  0.4817
 1917TIP3    H227311   1.347   2.887   8.452 -1.2892  0.2640  0.3913
 1918TIP3   OH227312   6.319   3.431   8.600  0.1963 -0.1604  0.2055
 1918TIP3    H127313   6.325   3.481   8.681  1.9103 -0.6495  0.4106
 1918TIP3    H227314   6.247   3.472   8.551  0.1316  1.0832  1.3075
 1919TIP3   OH227315   1.514   5.571   8.041 -0.1182 -0.1036  0.6722
 1919TIP3    H127316   1.572   5.551   8.114 -0.3952  0.3285  1.0183
 1919TIP3    H227317   1.572   5.608   7.974  0.0843 -0.1685  0.8115
 1920TIP3   OH227318   3.727   3.994   1.433 -0.2392 -0.3951 -0.5338
 1920TIP3    H127319   3.662   4.039   1.488  0.3974 -1.2596  0.9788
 1920TIP3    H227320   3.734   3.907   1.471 -0.5399 -1.4103 -2.6688
 1921TIP3   OH227321   4.694   2.490   0.850  0.4201 -0.2859  0.9535
 1921TIP3    H127322   4.684   2.530   0.936 -0.6671  1.4026  0.0987
 1921TIP3    H227323   4.699   2.564   0.789  0.1872 -1.4350 -0.5305
 1922TIP3   OH227324   6.096   1.600   7.228  0.8671 -0.1869  0.1006
 1922TIP3    H127325   6.090   1.579   7.135  1.8842  0.1579 -0.0567
 1922TIP3    H227326   6.112   1.695   7.231 -1.9478  0.3638  0.7373
 1923TIP3   OH227327   6.426   1.527   1.618 -0.3580 -0.9809 -0.5509
 1923TIP3    H127328   6.345   1.570   1.592  0.2159  0.0128 -0.7447
 1923TIP3    H227329   6.460   1.580   1.690  0.4254 -1.0390 -0.8675
 1924TIP3   OH227330   5.107   5.383   7.240 -0.1439 -0.1473 -0.2213
 1924TIP3    H127331   5.126   5.295   7.272  0.4013 -0.0602 -0.3061
 1924TIP3    H227332   5.053   5.422   7.309 -1.1825 -0.8614 -0.5927
 1925TIP3   OH227333   5.940   6.517   1.188  0.2346 -0.3903  0.3883
 1925TIP3    H127334   6.009   6.567   1.144  0.3078 -0.7011  0.1538
 1925TIP3    H227335   5.940   6.432   1.146  1.1479 -1.1338  1.8188
 1926TIP3   OH227336   3.450   5.809   7.726 -0.4696  0.2797 -0.3933
 1926TIP3    H127337   3.463   5.901   7.705  0.0429  0.2545 -0.2042
 1926TIP3    H227338   3.538   5.771   7.720 -0.7410 -0.2758 -0.8619
 1927TIP3   OH227339   1.679   6.356   2.803 -0.5055 -0.2724  0.2155
 1927TIP3    H127340   1.619   6.389   2.736  0.9558 -2.6975 -2.5346
 1927TIP3    H227341   1.753   6.416   2.800 -0.2536 -0.6066 -0.7408
 1928TIP3   OH227342   5.420   3.845   8.461  0.3576  0.4750  0.5183
 1928TIP3    H127343   5.351   3.843   8.394 -0.1073 -0.3344  1.0002
 1928TIP3    H227344   5.461   3.759   8.456  0.8710  0.7045  0.7194
 1929TIP3   OH227345   0.329   1.521   0.110 -0.7285 -0.2222 -0.0726
 1929TIP3    H127346   0.407   1.569   0.137 -1.1921  0.7325 -0.3801
 1929TIP3    H227347   0.362   1.440   0.072  0.0565 -0.3385  0.8263
 1930TIP3   OH227348   2.360   0.569   7.288 -0.4863 -0.2251  0.2374
 1930TIP3    H127349   2.312   0.651   7.290 -0.4249 -0.0053 -2.6987
 1930TIP3    H227350   2.293   0.501   7.280 -0.4525 -0.2239 -0.0775
 1931TIP3   OH227351   6.469   2.619   3.099  0.2227  0.0079  0.1403
 1931TIP3    H127352   6.524   2.674   3.155 -0.5235  0.4099  0.4881
 1931TIP3    H227353   6.401   2.678   3.067  0.5204 -0.2651 -1.0462
 1932TIP3   OH227354   4.155   1.016   0.362  0.6548 -0.4231 -0.0143
 1932TIP3    H127355   4.213   1.005   0.438 -0.4809  0.2663  0.9758
 1932TIP3    H227356   4.076   1.056   0.397  0.4985  0.8955 -1.7320
 1933TIP3   OH227357   2.013   1.181   0.654  0.3578 -0.0242 -0.3572
 1933TIP3    H127358   2.093   1.140   0.622 -0.1090  0.0816 -1.7797
 1933TIP3    H227359   1.948   1.111   0.650  0.0047  0.3198 -0.9117
 1934TIP3   OH227360   5.020   6.089   8.559 -0.2288 -0.4399 -0.3946
 1934TIP3    H127361   5.085   6.142   8.604 -2.9560  0.3026  3.1423
 1934TIP3    H227362   5.022   6.005   8.604 -0.7919 -0.8586 -1.1290
 1935TIP3   OH227363   4.766   5.705   0.498  0.3428 -0.1372  0.3899
 1935TIP3    H127364   4.728   5.792   0.484 -1.8818 -1.2881 -1.3600
 1935TIP3    H227365   4.692   5.645   0.495  2.0706 -2.3962 -1.7528
 1936TIP3   OH227366   2.766   5.198   1.350 -0.1833  0.4128  0.3174
 1936TIP3    H127367   2.701   5.141   1.310  0.4299  0.2201 -0.4490
 1936TIP3    H227368   2.726   5.229   1.431 -1.3303  0.5232 -0.2776
 1937TIP3   OH227369   6.291   5.778   2.111  0.0088 -0.5763  0.3711
 1937TIP3    H127370   6.209   5.813   2.078 -0.1561 -0.7262  0.6184
 1937TIP3    H227371   6.268   5.693   2.148  0.7139 -1.8697 -1.9737
 1938TIP3   OH227372   6.523   2.396   2.112 -0.0993  0.4253 -0.9011
 1938TIP3    H127373   6.511   2.400   2.017 -0.3454  2.8051 -0.8369
 1938TIP3    H227374   6.496   2.483   2.143  2.1844  0.5409  1.0818
 1939TIP3   OH227375   6.166   2.050   6.920 -0.1113 -0.1432  0.4981
 1939TIP3    H127376   6.245   2.103   6.934  1.8826 -2.9113  0.6949
 1939TIP3    H227377   6.168   1.986   6.992 -1.6647 -1.2662 -0.4034
 1940TIP3   OH227378   1.428   3.914   7.156  0.0485 -0.6012 -0.4238
 1940TIP3    H127379   1.357   3.967   7.119  0.5355  0.0189 -0.4968
 1940TIP3    H227380   1.503   3.931   7.098  1.0754  1.0497  1.2908
 1941TIP3   OH227381   6.631   6.143   2.313  0.2144 -0.0145  0.2834
 1941TIP3    H127382   6.687   6.219   2.330  1.3112 -0.8093  0.3113
 1941TIP3    H227383   6.550   6.180   2.279 -0.5305  1.4084  3.2825
 1942TIP3   OH227384   3.590   6.450   0.274 -0.2200  0.1431 -0.1736
 1942TIP3    H127385   3.528   6.426   0.343 -0.7997 -1.2884 -1.1430
 1942TIP3    H227386   3.620   6.538   0.298  0.7374 -0.8707  2.6904
 1943TIP3   OH227387   0.308   0.537   8.681 -0.6207 -1.1737  0.2017
 1943TIP3    H127388   0.384   0.542   8.739 -0.1374 -1.1040 -0.4233
 1943TIP3    H227389   0.250   0.472   8.722 -0.6549 -0.5457  1.1693
 1944TIP3   OH227390   4.303   5.246   2.051  0.1436  0.6149 -0.2838
 1944TIP3    H127391   4.221   5.282   2.085  0.1853  0.1650  0.3037
 1944TIP3    H227392   4.335   5.313   1.991 -1.7067 -0.0833 -2.1665
 1945TIP3   OH227393   0.243   0.494   8.142 -0.0352 -0.2858  0.2655
 1945TIP3    H127394   0.334   0.496   8.172  0.7501 -0.9034 -1.8493
 1945TIP3    H227395   0.217   0.586   8.138  0.4827 -0.1031  0.9525
 1946TIP3   OH227396   0.349   5.072   7.976 -0.1581  0.1504 -0.0922
 1946TIP3    H127397   0.408   5.088   8.049  1.1250 -1.0914 -0.8151
 1946TIP3    H227398   0.349   5.154   7.926  2.7120 -0.4508 -1.2568
 1947TIP3   OH227399   4.202   2.811   2.956  0.2415 -0.1589 -0.2189
 1947TIP3    H127400   4.108   2.816   2.936  0.4013 -0.7571 -1.1792
 1947TIP3    H227401   4.213   2.726   2.998  0.5100 -0.5070 -0.9944
 1948TIP3   OH227402   6.294   3.197   1.326  0.3056 -0.1154 -0.2052
 1948TIP3    H127403   6.279   3.132   1.395 -0.3083  1.9162  1.7069
 1948TIP3    H227404   6.345   3.151   1.260  1.4017 -2.0515  1.8480
 1949TIP3   OH227405   3.036   5.971   8.316  0.5965  0.0324 -0.1364
 1949TIP3    H127406   3.075   6.043   8.266  1.3106  0.7353  1.3782
 1949TIP3    H227407   3.000   6.012   8.394 -0.7525 -1.0093 -0.1828
 1950TIP3   OH227408   3.626   6.739   1.413  0.1573 -0.7860 -0.8170
 1950TIP3    H127409   3.547   6.701   1.375 -0.4534  3.4991 -4.6278
 1950TIP3    H227410   3.595   6.785   1.491 -0.7265 -0.6739 -1.2302
 1951TIP3   OH227411   0.508   5.635   0.202  0.9027  0.1721  0.6318
 1951TIP3    H127412   0.533   5.649   0.294  0.8727  1.1050  0.5152
 1951TIP3    H227413   0.479   5.544   0.198  1.5850 -0.0873  1.3913
 1952TIP3   OH227414   4.864   2.732   0.026  0.2859  0.4088  0.7734
 1952TIP3    H127415   4.854   2.689   0.111  0.7597  0.3120  0.7833
 1952TIP3    H227416   4.935   2.795   0.039 -0.9179  1.7628  0.9765
 1953TIP3   OH227417   3.054   2.457   8.464  0.1427 -0.2853  0.3125
 1953TIP3    H127418   3.093   2.370   8.459  0.8764  0.0649 -0.1567
 1953TIP3    H227419   3.104   2.502   8.532 -0.5034 -0.3535  0.8497
 1954TIP3   OH227420   1.934   6.257   1.934  0.4275  0.5445  0.4751
 1954TIP3    H127421   2.008   6.317   1.938  1.2467 -0.4999  1.6879
 1954TIP3    H227422   1.963   6.187   1.876  0.7338 -0.2814  1.5977
 1955TIP3   OH227423   5.507   4.405   7.348  0.0459 -0.1519  0.5672
 1955TIP3    H127424   5.487   4.401   7.254  1.1795 -0.9942  0.3339
 1955TIP3    H227425   5.539   4.317   7.368 -0.8279 -0.1819  1.9093
 1956TIP3   OH227426   4.386   1.910   0.096 -0.3503 -0.1313  0.1306
 1956TIP3    H127427   4.422   1.825   0.121 -0.0533  0.0526  0.3234
 1956TIP3    H227428   4.451   1.974   0.125 -1.2443  0.2786  1.3501
 1957TIP3   OH227429   4.560   0.997   1.403  0.8542  0.0671 -0.1325
 1957TIP3    H127430   4.559   1.067   1.469  0.0931  0.2719 -0.3505
 1957TIP3    H227431   4.594   1.039   1.324 -1.5483  0.7679 -0.8544
 1958TIP3   OH227432   4.767   2.359   8.387 -0.0270 -0.9086  0.3023
 1958TIP3    H127433   4.725   2.318   8.312 -0.1996  1.8943 -1.2363
 1958TIP3    H227434   4.847   2.308   8.401  0.9655 -0.4576 -2.9939
 1959TIP3   OH227435   3.406   1.021   2.793 -0.4243  0.8827 -0.0216
 1959TIP3    H127436   3.349   1.079   2.844 -1.3123  0.2082 -0.2353
 1959TIP3    H227437   3.351   0.947   2.770  0.7917 -0.2523  0.5584
 1960TIP3   OH227438   3.367   6.113   8.755 -0.5084 -0.0966  0.1678
 1960TIP3    H127439   3.295   6.056   8.726 -0.3074  0.0063 -0.5457
 1960TIP3    H227440   3.341   6.201   8.727 -0.4246  0.0372  0.5137
 1961TIP3   OH227441   2.912   1.719   1.441 -0.4449  0.2875 -0.1575
 1961TIP3    H127442   2.854   1.785   1.477 -0.5779  1.6926 -2.7203
 1961TIP3    H227443   2.939   1.667   1.516 -1.7742  2.1254  1.6874
 1962TIP3   OH227444   5.990   0.125   0.440  0.0337  0.6447  0.3581
 1962TIP3    H127445   6.049   0.123   0.516 -0.8643  0.4259  1.0796
 1962TIP3    H227446   5.977   0.218   0.423 -1.3037  0.7631  1.7594
 1963TIP3   OH227447   2.688   5.037   7.712  0.2522  0.3378  0.3423
 1963TIP3    H127448   2.614   4.976   7.701  0.6480 -0.3985  1.5298
 1963TIP3    H227449   2.738   5.001   7.785  1.1979  1.4274  0.2647
 1964TIP3   OH227450   2.677   6.269   2.319  0.0307 -0.6380 -0.0738
 1964TIP3    H127451   2.595   6.220   2.316 -1.5275  1.8304 -1.5035
 1964TIP3    H227452   2.737   6.219   2.263 -0.6529 -2.1612  0.4930
 1965TIP3   OH227453   2.605   4.105   1.400 -0.2245 -0.2318  0.2755
 1965TIP3    H127454   2.606   4.084   1.307  0.2222  2.2797 -0.3508
 1965TIP3    H227455   2.518   4.079   1.430 -0.9415  0.3747 -1.2064
 1966TIP3   OH227456   2.271   4.469   7.389 -0.3577 -0.3140 -0.1229
 1966TIP3    H127457   2.238   4.549   7.349 -0.2491  0.2199  0.8348
 1966TIP3    H227458   2.341   4.440   7.331 -0.0182  0.5978 -0.1746
 1967TIP3   OH227459   5.403   1.176   6.955  0.1064  0.3047 -0.5116
 1967TIP3    H127460   5.431   1.246   6.895 -1.5744  0.2847 -1.3923
 1967TIP3    H227461   5.323   1.211   6.995 -0.1751 -0.7016 -0.1861
 1968TIP3   OH227462   6.772   3.075   2.048  0.0444 -0.3545  0.0779
 1968TIP3    H127463   6.807   3.117   1.969  0.2097 -1.5706 -0.5177
 1968TIP3    H227464   6.724   3.144   2.092  1.5057  0.8502 -0.1263
 1969TIP3   OH227465   5.098   3.891   1.953  0.5807  0.2520 -0.2027
 1969TIP3    H127466   5.047   3.873   2.032 -0.0553  1.4997 -0.2911
 1969TIP3    H227467   5.171   3.945   1.983  0.2632  0.8436 -0.4702
 1970TIP3   OH227468   0.761   6.558   1.461  0.0252  0.7451 -0.0825
 1970TIP3    H127469   0.744   6.635   1.514 -1.6423  0.2519  0.1821
 1970TIP3    H227470   0.723   6.485   1.511 -1.4542  0.2385 -1.7843
 1971TIP3   OH227471   0.517   4.678   1.842 -0.9555  0.2226  0.4136
 1971TIP3    H127472   0.513   4.666   1.747 -1.2612  1.3366  0.2677
 1971TIP3    H227473   0.538   4.591   1.876  0.2524  0.0244 -0.7389
 1972TIP3   OH227474   2.105   5.500   7.204 -0.2482 -0.4871 -0.2456
 1972TIP3    H127475   2.051   5.427   7.177  2.4740 -2.3080 -1.2248
 1972TIP3    H227476   2.056   5.578   7.180 -2.5108 -1.9854 -0.7115
 1973TIP3   OH227477   1.553   0.365   0.474 -0.4380 -0.0501  0.2744
 1973TIP3    H127478   1.522   0.456   0.477 -1.2466 -0.3246  2.6393
 1973TIP3    H227479   1.637   0.370   0.429  0.0977  2.0693  1.3505
 1974TIP3   OH227480   5.507   2.681   1.245 -0.1402  0.2413 -0.0092
 1974TIP3    H127481   5.540   2.606   1.195 -0.2364  0.8829 -1.0852
 1974TIP3    H227482   5.460   2.733   1.180  1.9757  2.4914  0.1363
 1975TIP3   OH227483   4.684   5.579   7.847 -0.0793  0.6349  0.2776
 1975TIP3    H127484   4.614   5.644   7.854 -0.8702 -0.1759  0.1634
 1975TIP3    H227485   4.650   5.514   7.785  0.8997  0.3718 -0.0006
 1976TIP3   OH227486   5.632   3.967   2.060 -0.5195  0.4609 -0.4544
 1976TIP3    H127487   5.656   3.991   2.149 -1.3437 -0.4347  0.0378
 1976TIP3    H227488   5.702   3.910   2.030  1.0384  2.6991 -1.3388
 1977TIP3   OH227489   4.556   6.795   6.821  0.9121  0.3930  0.5755
 1977TIP3    H127490   4.640   6.820   6.783  0.4569  2.3453  0.7403
 1977TIP3    H227491   4.553   6.700   6.812  2.0279  0.5092 -1.7106
 1978TIP3   OH227492   3.735   6.284   2.439 -0.5580 -0.1161 -0.4592
 1978TIP3    H127493   3.679   6.206   2.433 -1.1841  0.0262  2.1559
 1978TIP3    H227494   3.700   6.333   2.514  2.6700  0.2774  0.9750
 1979TIP3   OH227495   5.463   1.914   0.532 -0.2265 -0.3310 -0.8747
 1979TIP3    H127496   5.525   1.847   0.559  1.4272  1.1778 -0.7257
 1979TIP3    H227497   5.516   1.994   0.526 -2.1109  0.9590 -1.0486
 1980TIP3   OH227498   1.551   1.759   1.639 -0.4255 -0.2380 -0.0019
 1980TIP3    H127499   1.543   1.825   1.707  0.9882 -1.4941  1.4562
 1980TIP3    H227500   1.509   1.681   1.675  2.0432 -1.5021  0.3467
 1981TIP3   OH227501   5.440   5.348   8.268  0.4252 -0.1023 -0.5530
 1981TIP3    H127502   5.465   5.387   8.352 -0.1356 -0.0912 -0.3893
 1981TIP3    H227503   5.520   5.306   8.236  0.5834 -0.2994  0.0935
 1982TIP3   OH227504   0.714   2.696   8.246 -0.0056 -0.0414 -0.0907
 1982TIP3    H127505   0.765   2.767   8.285  1.4663 -0.6494 -0.8200
 1982TIP3    H227506   0.730   2.621   8.303  0.0437 -0.2726 -0.4064
 1983TIP3   OH227507   5.691   0.954   1.876 -0.3301  0.3876 -0.1177
 1983TIP3    H127508   5.670   0.878   1.821 -0.5877  1.4267 -1.4987
 1983TIP3    H227509   5.653   0.933   1.961  0.5403 -1.4950 -0.1494
 1984TIP3   OH227510   6.755   2.028   8.278 -0.6295 -0.0020  0.0281
 1984TIP3    H127511   6.695   2.049   8.206  0.2118  2.5731 -0.0116
 1984TIP3    H227512   6.701   1.978   8.339 -1.7380 -1.0762 -1.7383
 1985TIP3   OH227513   6.492   3.726   8.363 -0.2889 -0.0201 -0.1167
 1985TIP3    H127514   6.454   3.743   8.449 -1.6211  0.5596 -0.7870
 1985TIP3    H227515   6.417   3.717   8.305  0.5923  0.5015 -1.3926
 1986TIP3   OH227516   2.020   1.022   7.743  0.8807  0.1458 -0.0419
 1986TIP3    H127517   2.110   0.996   7.727  1.6575  1.8799  1.1594
 1986TIP3    H227518   2.014   1.112   7.710 -0.9890 -0.5533 -1.8496
 1987TIP3   OH227519   5.600   6.014   2.709 -0.4166  0.0349  0.6221
 1987TIP3    H127520   5.530   5.969   2.757 -0.8759  1.9697  1.9118
 1987TIP3    H227521   5.661   5.945   2.683 -3.0192 -1.8402 -1.0541
 1988TIP3   OH227522   4.103   2.640   0.132  0.4319 -0.4864 -0.2973
 1988TIP3    H127523   4.193   2.669   0.148 -0.2099  1.1961  0.4370
 1988TIP3    H227524   4.078   2.682   0.050 -0.0204 -0.1456  0.0141
 1989TIP3   OH227525   1.131   2.762   0.376 -0.4509 -0.1535  0.0222
 1989TIP3    H127526   1.177   2.687   0.339 -0.4851 -0.3073  0.2854
 1989TIP3    H227527   1.049   2.766   0.327  0.3601  0.8738 -1.2846
 1990TIP3   OH227528   2.846   4.800   2.662  0.3046  0.3493 -0.7456
 1990TIP3    H127529   2.886   4.741   2.598 -0.1080 -1.2355  0.3953
 1990TIP3    H227530   2.893   4.782   2.743 -1.6153 -0.4568  0.2697
 1991TIP3   OH227531   0.808   2.164   8.583 -0.2387 -0.7271 -0.2200
 1991TIP3    H127532   0.854   2.239   8.622  1.2080 -0.6084 -2.0017
 1991TIP3    H227533   0.825   2.092   8.644  0.6843 -0.2261  0.1396
 1992TIP3   OH227534   5.614   0.424   1.898  0.4521  0.1253 -0.6894
 1992TIP3    H127535   5.533   0.422   1.949  0.4133  0.5474 -0.7257
 1992TIP3    H227536   5.590   0.387   1.813  0.7547 -1.5015 -0.0869
 1993TIP3   OH227537   5.837   5.755   1.212  0.2189  0.5945 -0.1463
 1993TIP3    H127538   5.927   5.732   1.190 -0.0386 -1.2456  0.5259
 1993TIP3    H227539   5.845   5.834   1.266  1.4017  0.5665 -0.2468
 1994TIP3   OH227540   1.776   1.353   1.372  0.5828 -0.2336  0.3333
 1994TIP3    H127541   1.811   1.355   1.283  1.5564  0.6012  0.7134
 1994TIP3    H227542   1.848   1.386   1.426 -0.1299 -0.3748  1.3866
 1995TIP3   OH227543   4.015   3.193   1.072 -0.3280  0.4349  0.5807
 1995TIP3    H127544   3.922   3.181   1.091 -0.5062  1.1551  0.2194
 1995TIP3    H227545   4.019   3.278   1.028  0.6942  1.0933  1.8976
 1996TIP3   OH227546   3.503   2.732   8.486  0.3011 -0.1784  0.0877
 1996TIP3    H127547   3.579   2.761   8.435  0.4866  0.8448  0.9048
 1996TIP3    H227548   3.436   2.712   8.421  0.2928  1.7782 -0.5781
 1997TIP3   OH227549   0.871   1.323   8.344 -0.7222  0.1113  0.1105
 1997TIP3    H127550   0.854   1.257   8.276  2.6587 -0.8988  0.0817
 1997TIP3    H227551   0.850   1.407   8.301 -1.2051 -0.6656 -1.2459
 1998TIP3   OH227552   6.141   1.725   0.800 -0.4448 -0.3106 -0.2493
 1998TIP3    H127553   6.176   1.750   0.714  0.5432 -0.6725  0.0338
 1998TIP3    H227554   6.190   1.647   0.824 -0.9045 -0.3670  0.5354
 1999TIP3   OH227555   5.903   6.603   7.183  0.3300 -0.4192  0.0579
 1999TIP3    H127556   5.858   6.612   7.267  1.8364 -1.2889  1.0048
 1999TIP3    H227557   5.865   6.671   7.128 -0.7818  0.0908  1.4026
 2000TIP3   OH227558   5.506   0.722   8.715 -0.2998 -0.3079 -0.2472
 2000TIP3    H127559   5.459   0.776   8.778  1.3475  0.9868 -0.0345
 2000TIP3    H227560   5.438   0.682   8.661 -1.6776 -0.0936  1.2537
 2001TIP3   OH227561   2.757   3.098   1.038  0.5065 -0.1430 -0.2610
 2001TIP3    H127562   2.835   3.109   0.984  0.2418 -2.1959 -1.1459
 2001TIP3    H227563   2.791   3.090   1.127  1.2677 -0.4149 -0.5662
 2002TIP3   OH227564   5.143   3.956   2.629 -0.1756 -0.3154  0.2501
 2002TIP3    H127565   5.203   3.969   2.556  1.2347  0.6270  1.5231
 2002TIP3    H227566   5.189   3.895   2.687 -1.7014 -1.8517 -0.0748
 2003TIP3   OH227567   4.626   2.980   1.130 -0.5185 -0.3930 -0.1905
 2003TIP3    H127568   4.701   2.922   1.122 -0.2762 -0.0276 -0.6214
 2003TIP3    H227569   4.563   2.948   1.066  0.1825  0.6549 -1.4688
 2004TIP3   OH227570   3.956   5.599   6.859  0.2431 -0.2006  0.1413
 2004TIP3    H127571   3.886   5.648   6.817  0.6234  0.1636 -0.0706
 2004TIP3    H227572   3.928   5.589   6.950  0.1655  0.4102  0.1857
 2005TIP3   OH227573   2.629   6.627   3.307  0.6173 -0.2406 -0.0679
 2005TIP3    H127574   2.609   6.659   3.395  1.0111  0.3339 -0.1838
 2005TIP3    H227575   2.550   6.645   3.257  1.1389  1.3858 -0.3529
 2006TIP3   OH227576   1.207   3.788   8.091 -0.3542  0.6235 -0.3318
 2006TIP3    H127577   1.149   3.844   8.040 -0.0569  0.7304 -0.5605
 2006TIP3    H227578   1.149   3.727   8.136 -0.7093  1.3652  0.2252
 2007TIP3   OH227579   2.941   0.569   0.402  0.4777 -0.0895 -0.5201
 2007TIP3    H127580   2.992   0.630   0.456  0.1439 -0.5614  0.3528
 2007TIP3    H227581   2.877   0.623   0.357  0.5810  0.2838 -0.2191
 2008TIP3   OH227582   2.030   1.416   2.094  0.5136 -0.6489  0.2295
 2008TIP3    H127583   1.955   1.357   2.098 -1.2935  1.4587 -0.6062
 2008TIP3    H227584   1.997   1.494   2.050  3.2022  0.4172 -0.0978
 2009TIP3   OH227585   3.060   6.762   8.496  0.0270 -0.3356 -0.4741
 2009TIP3    H127586   3.067   6.671   8.527 -0.0598 -0.1742  0.0234
 2009TIP3    H227587   3.137   6.773   8.439  2.2154  0.4017  2.3718
 2010TIP3   OH227588   4.598   1.918   0.789 -0.0838  0.1263 -0.2095
 2010TIP3    H127589   4.549   1.998   0.772  0.7090  0.9538  1.1987
 2010TIP3    H227590   4.595   1.908   0.884  1.8714 -0.1642 -0.1271
 2011TIP3   OH227591   5.259   4.240   7.549  0.2054 -0.0087  0.0242
 2011TIP3    H127592   5.266   4.145   7.539  0.9104  0.1385 -1.0145
 2011TIP3    H227593   5.339   4.274   7.511  0.5188  0.9550  1.4764
 2012TIP3   OH227594   2.093   0.052   8.340  0.2980 -0.6379 -0.5002
 2012TIP3    H127595   2.021   0.012   8.291  1.2391 -3.3006  0.0967
 2012TIP3    H227596   2.067   0.045   8.431  0.5365  0.0407 -0.3762
 2013TIP3   OH227597   4.240   5.088   1.735 -0.5233 -0.0687 -0.6041
 2013TIP3    H127598   4.264   5.103   1.643 -1.2770  1.7675 -0.5354
 2013TIP3    H227599   4.177   5.016   1.731 -0.8503  0.2452 -1.5825
 2014TIP3   OH227600   0.595   4.667   0.632 -0.3863  0.1473 -0.3360
 2014TIP3    H127601   0.663   4.608   0.664 -1.5122 -0.1475  1.6577
 2014TIP3    H227602   0.528   4.609   0.595 -1.1622  0.1749  0.9702
 2015TIP3   OH227603   2.052   3.111   7.181  0.0518  0.1886 -0.3259
 2015TIP3    H127604   1.985   3.107   7.113 -2.7422 -0.9318  2.2793
 2015TIP3    H227605   2.111   3.037   7.162 -1.7069 -1.2070 -0.5847
 2016TIP3   OH227606   2.185   5.867   0.371 -0.0197 -0.5563 -0.0771
 2016TIP3    H127607   2.225   5.897   0.290  2.6310 -0.1296  1.2628
 2016TIP3    H227608   2.138   5.943   0.405  1.0316  0.0818  0.0066
 2017TIP3   OH227609   5.229   4.906   7.539  0.3576  0.2736 -0.1384
 2017TIP3    H127610   5.319   4.926   7.565  0.1770  2.6300 -1.1165
 2017TIP3    H227611   5.175   4.940   7.610  0.1509  0.9959 -0.6340
 2018TIP3   OH227612   5.912   6.534   2.357 -0.2242  0.3416 -0.0115
 2018TIP3    H127613   5.990   6.487   2.386  0.2840  0.2992 -1.3685
 2018TIP3    H227614   5.863   6.470   2.305  0.2184  1.1150 -1.4363
 2019TIP3   OH227615   5.899   6.282   2.020 -0.4688  0.6816  0.0773
 2019TIP3    H127616   5.977   6.325   2.056 -0.1108 -0.4436  0.6925
 2019TIP3    H227617   5.923   6.190   2.015 -1.8365  0.2926  0.4344
 2020TIP3   OH227618   6.514   1.060   0.019  0.3127 -0.2822 -0.0977
 2020TIP3    H127619   6.443   1.004   0.051  0.0381  0.0187 -0.1682
 2020TIP3    H227620   6.561   1.005  -0.044 -0.1746 -0.3131 -0.4379
 2021TIP3   OH227621   3.801   2.252   1.632 -0.2939  0.1616 -0.5134
 2021TIP3    H127622   3.793   2.258   1.537 -1.4356 -0.2133 -0.4599
 2021TIP3    H227623   3.712   2.234   1.662  0.1802 -0.4947  0.5633
 2022TIP3   OH227624   6.525   4.252   2.099 -0.2335  0.1327  0.3521
 2022TIP3    H127625   6.616   4.270   2.124  0.8448 -1.4539 -2.1164
 2022TIP3    H227626   6.502   4.174   2.149  0.3156 -0.3507 -0.1296
 2023TIP3   OH227627   1.299   2.628   8.281 -0.4869  0.0478  0.2061
 2023TIP3    H127628   1.294   2.579   8.364  0.1626  1.3450  1.0481
 2023TIP3    H227629   1.352   2.573   8.224 -0.8065 -0.7998  0.7025
 2024TIP3   OH227630   5.265   3.216   1.305 -0.1616 -0.1587 -0.4093
 2024TIP3    H127631   5.215   3.178   1.378  0.1685  0.6783  0.2793
 2024TIP3    H227632   5.214   3.292   1.277  0.2697  0.1928 -0.2753
 2025TIP3   OH227633   0.140   5.169   7.672 -0.3014 -0.3703  0.5847
 2025TIP3    H127634   0.119   5.094   7.727  1.7775 -1.5218 -0.0941
 2025TIP3    H227635   0.089   5.241   7.709 -0.5978 -1.5857  2.6692
 2026TIP3   OH227636   4.226   4.596   1.916 -0.0136 -0.3087 -0.5010
 2026TIP3    H127637   4.205   4.518   1.968 -1.2928  0.9666  0.9901
 2026TIP3    H227638   4.260   4.659   1.979  0.1503  0.6606 -1.5193
 2027TIP3   OH227639   3.099   4.264   7.832  0.7013  0.7799 -0.1580
 2027TIP3    H127640   3.101   4.358   7.818 -0.1076  0.7202 -0.7784
 2027TIP3    H227641   3.166   4.229   7.773 -0.1324  0.8448 -1.1724
 2028TIP3   OH227642   1.329   0.363   1.236  0.1578  0.1024 -0.4194
 2028TIP3    H127643   1.350   0.299   1.169 -0.1718 -0.7475  0.2719
 2028TIP3    H227644   1.397   0.350   1.303 -1.4280 -1.4054  0.9790
 2029TIP3   OH227645   1.241   3.553   1.749 -0.0866 -0.1910  0.2292
 2029TIP3    H127646   1.272   3.632   1.793  0.5225 -0.1870 -0.2113
 2029TIP3    H227647   1.159   3.532   1.795 -0.2323  0.6591  0.3873
 2030TIP3   OH227648   6.647   5.143   8.745 -0.1016  0.1959 -0.3734
 2030TIP3    H127649   6.721   5.180   8.697  0.6833 -0.8555 -0.0015
 2030TIP3    H227650   6.573   5.200   8.723  0.9074  1.5469 -0.3692
 2031TIP3   OH227651   5.973   6.167   2.320  0.1936  0.9057  0.4894
 2031TIP3    H127652   6.068   6.156   2.322 -0.0418 -2.1957  0.6109
 2031TIP3    H227653   5.948   6.175   2.412  0.3246  1.7027  0.4586
 2032TIP3   OH227654   2.238   4.599   7.626  0.6113 -0.0817 -0.2827
 2032TIP3    H127655   2.312   4.575   7.682  1.7284  1.1365 -1.1757
 2032TIP3    H227656   2.223   4.522   7.572  0.2538 -0.8642  0.8967
 2033TIP3   OH227657   0.105   5.932   8.699  0.0249 -0.1596 -0.0683
 2033TIP3    H127658   0.153   5.893   8.772  1.7623 -2.6134 -2.3342
 2033TIP3    H227659   0.018   5.893   8.704  0.7117 -1.7853 -0.3616
 2034TIP3   OH227660   0.080   2.531   7.651  0.4005 -0.3535 -0.9744
 2034TIP3    H127661   0.043   2.442   7.655  2.4885 -1.2452  0.1096
 2034TIP3    H227662   0.164   2.524   7.696  0.0756  2.4961  0.2957
 2035TIP3   OH227663   4.920   2.533   0.445 -0.5317 -0.0064 -0.5394
 2035TIP3    H127664   4.881   2.483   0.374 -0.3581  0.2491 -0.8130
 2035TIP3    H227665   4.986   2.473   0.482 -0.7114 -0.1858 -0.5052
 2036TIP3   OH227666   4.021   1.756   0.380  0.3428 -0.3100  0.5514
 2036TIP3    H127667   3.965   1.767   0.456  0.3682  1.7462  0.3112
 2036TIP3    H227668   4.108   1.738   0.416  0.3845  0.7941  1.0197
 2037TIP3   OH227669   0.789   6.403   2.048  0.8349 -0.5749  0.5289
 2037TIP3    H127670   0.839   6.328   2.082  1.5609  0.0625  0.9033
 2037TIP3    H227671   0.854   6.473   2.040 -0.4081  1.0983  3.4919
 2038TIP3   OH227672   1.609   6.434   0.093 -0.8404 -0.4320  0.1164
 2038TIP3    H127673   1.698   6.461   0.113 -1.2288  0.7243  0.3750
 2038TIP3    H227674   1.597   6.456   0.000 -0.4328 -1.8383 -0.2914
 2039TIP3   OH227675   4.015   2.668   7.268  0.3803 -0.9490 -0.2499
 2039TIP3    H127676   3.987   2.597   7.326  0.0869 -0.7519 -0.1520
 2039TIP3    H227677   4.111   2.665   7.272  0.3589 -0.7879  0.4190
 2040TIP3   OH227678   2.936   4.872   7.937  0.0011  0.1072 -0.0039
 2040TIP3    H127679   2.985   4.791   7.952 -1.5011 -0.5244  1.8985
 2040TIP3    H227680   2.844   4.846   7.939 -0.5060  1.7332 -0.3359
 2041TIP3   OH227681   0.993   4.814   2.668 -0.0776 -0.2958 -0.3456
 2041TIP3    H127682   1.003   4.830   2.761  1.3388  0.6866 -0.6421
 2041TIP3    H227683   0.935   4.737   2.663 -0.8544  0.1415  1.2946
 2042TIP3   OH227684   2.662   4.269   0.680 -0.4104  0.4501  0.5520
 2042TIP3    H127685   2.709   4.296   0.759 -1.3712  0.3036  1.2005
 2042TIP3    H227686   2.658   4.174   0.685 -1.9005  0.5099  1.2221
 2043TIP3   OH227687   5.049   5.828   7.451 -0.0867  0.2523  0.3340
 2043TIP3    H127688   5.102   5.897   7.491  1.6215 -0.6408 -0.2435
 2043TIP3    H227689   4.961   5.864   7.446  0.8443  2.6386 -0.5070
 2044TIP3   OH227690   5.132   2.415   0.137  0.0462 -0.0113  0.4330
 2044TIP3    H127691   5.108   2.445   0.049  0.6933 -1.5871 -0.3136
 2044TIP3    H227692   5.078   2.337   0.151  0.4338 -0.1556  1.1638
 2045TIP3   OH227693   2.378   6.275   7.853 -0.0212  0.4098 -0.2475
 2045TIP3    H127694   2.434   6.314   7.920  0.8248 -0.0095 -0.6888
 2045TIP3    H227695   2.416   6.303   7.770 -1.1660  1.0698 -0.5659
 2046TIP3   OH227696   0.573   0.810   0.230 -0.2045  0.1501  0.0973
 2046TIP3    H127697   0.616   0.731   0.197 -1.4175 -0.2897 -0.4751
 2046TIP3    H227698   0.515   0.838   0.159 -2.1680 -0.2897  1.4185
 2047TIP3   OH227699   6.415   0.567   1.375 -0.0147  0.3588 -0.3879
 2047TIP3    H127700   6.352   0.630   1.410 -0.5094 -0.1275 -0.4075
 2047TIP3    H227701   6.374   0.531   1.297  0.3107  0.0869 -0.4379
 2048TIP3   OH227702   1.871   5.542   7.451  0.1299  0.1509 -0.1395
 2048TIP3    H127703   1.799   5.599   7.424 -0.2451 -0.2349  0.0245
 2048TIP3    H227704   1.939   5.554   7.384 -0.2528  0.2087 -0.5198
 2049TIP3   OH227705   6.226   0.078   6.912  0.3087 -0.8063  0.3573
 2049TIP3    H127706   6.233   0.019   6.987 -1.2264 -0.7179  0.6198
 2049TIP3    H227707   6.140   0.058   6.874  0.2394  0.4710 -0.2208
 2050TIP3   OH227708   5.623   1.613   0.060  0.1339 -0.2333 -0.1956
 2050TIP3    H127709   5.675   1.689   0.085  1.9944 -1.7859  0.8939
 2050TIP3    H227710   5.657   1.587  -0.026 -1.2992  0.7786 -1.1268
 2051TIP3   OH227711   3.133   5.903   1.919 -0.4302  0.9231 -0.2037
 2051TIP3    H127712   3.073   5.977   1.926  1.5936  2.6173  0.2907
 2051TIP3    H227713   3.173   5.914   1.832  0.2882  0.7301  0.1015
 2052TIP3   OH227714   0.421   0.227   8.424 -0.3093  0.4921 -0.2554
 2052TIP3    H127715   0.394   0.182   8.345 -0.6406 -0.7444  0.5390
 2052TIP3    H227716   0.418   0.320   8.401 -3.2457  0.3411 -0.8494
 2053TIP3   OH227717   4.030   0.723   8.533  0.2685 -0.1647  0.0365
 2053TIP3    H127718   4.101   0.666   8.500  1.9395  1.5581  0.4828
 2053TIP3    H227719   3.952   0.669   8.527  1.4537 -1.8439 -1.3910
 2054TIP3   OH227720   3.355   0.966   1.896  0.2677 -0.5718  0.4629
 2054TIP3    H127721   3.271   0.998   1.927  0.1537 -1.2600  0.8919
 2054TIP3    H227722   3.376   0.893   1.955  0.5100 -1.2896 -0.4931
 2055TIP3   OH227723   3.934   6.782   1.715 -0.1720  0.4529  0.3642
 2055TIP3    H127724   3.856   6.750   1.760 -0.5604 -2.3713 -1.9617
 2055TIP3    H227725   4.007   6.744   1.764 -0.4970 -0.7562 -0.0521
 2056TIP3   OH227726   2.470   2.958   8.595 -0.7366 -0.0997  0.1830
 2056TIP3    H127727   2.531   2.948   8.668  1.2086  0.9721 -1.1867
 2056TIP3    H227728   2.520   3.007   8.529 -3.1256  0.8635 -1.0221
 2057TIP3   OH227729   2.748   4.945   0.875 -0.7568  0.2129 -0.0151
 2057TIP3    H127730   2.779   4.872   0.821 -0.1941 -1.0486  1.8901
 2057TIP3    H227731   2.811   5.015   0.859  0.4600 -0.7537  0.3049
 2058TIP3   OH227732   0.443   1.397   7.384 -0.3435 -0.5562  0.3953
 2058TIP3    H127733   0.396   1.349   7.315 -1.1773  1.6257 -0.6389
 2058TIP3    H227734   0.511   1.445   7.338  0.6539 -0.9044  1.4547
 2059TIP3   OH227735   1.263   0.669   7.264 -0.2121  0.1123 -0.1783
 2059TIP3    H127736   1.231   0.752   7.301  0.5098 -0.1181  1.0162
 2059TIP3    H227737   1.245   0.604   7.331 -0.4351 -0.6504 -0.9565
 2060TIP3   OH227738   4.370   3.364   0.759  0.1652  0.0072  0.3085
 2060TIP3    H127739   4.329   3.435   0.807 -0.8268  0.1554 -0.7269
 2060TIP3    H227740   4.308   3.291   0.766  0.2881 -0.1556 -0.2454
 2061TIP3   OH227741   4.261   1.017   2.955  0.1446 -0.1992 -0.2384
 2061TIP3    H127742   4.230   1.043   2.868 -0.6476  0.4133  0.2132
 2061TIP3    H227743   4.181   1.003   3.005  0.5318 -2.6363 -0.1786
 2062TIP3   OH227744   4.273   5.643   7.558  0.1365 -0.2547 -0.0974
 2062TIP3    H127745   4.246   5.596   7.480 -0.9157 -2.5884  1.5783
 2062TIP3    H227746   4.349   5.595   7.591  1.1670  1.2560 -0.1514
 2063TIP3   OH227747   4.159   1.151   6.540  0.5784  0.7816  0.2862
 2063TIP3    H127748   4.248   1.139   6.508  0.5685  0.0252  0.5256
 2063TIP3    H227749   4.123   1.063   6.545 -0.2724  1.0951 -0.0505
 2064TIP3   OH227750   1.060   6.733   1.364 -0.7879 -0.2110  0.5448
 2064TIP3    H127751   1.011   6.717   1.444 -0.9184 -2.0449  0.1380
 2064TIP3    H227752   1.077   6.646   1.329 -0.2923  0.5392 -1.1585
 2065TIP3   OH227753   5.899   3.182   0.880  0.5452  0.0005  0.5443
 2065TIP3    H127754   5.985   3.219   0.898  1.0272 -0.4825 -0.6881
 2065TIP3    H227755   5.916   3.089   0.864 -0.2816 -0.2079  0.8230
 2066TIP3   OH227756   4.795   2.084   1.643  0.2662  0.0214 -0.0009
 2066TIP3    H127757   4.858   2.012   1.642 -0.6907 -0.8652  0.5694
 2066TIP3    H227758   4.711   2.042   1.663 -0.1405  1.4282  1.5286
 2067TIP3   OH227759   1.668   1.516   7.540 -0.0758 -0.0364 -0.4586
 2067TIP3    H127760   1.691   1.556   7.456  0.5493 -1.0728 -0.7970
 2067TIP3    H227761   1.659   1.423   7.520 -0.0438 -0.2763  0.6060
 2068TIP3   OH227762   1.367   2.701   2.390  0.2189  0.7750 -0.1748
 2068TIP3    H127763   1.449   2.720   2.437  0.0680 -0.0622  0.4465
 2068TIP3    H227764   1.336   2.619   2.428 -0.5923  0.7599 -0.8450
 2069TIP3   OH227765   2.457   4.750   8.746  0.3862 -0.4391 -0.8143
 2069TIP3    H127766   2.500   4.729   8.829 -0.1482 -0.9893 -0.6749
 2069TIP3    H227767   2.486   4.839   8.726  0.3652 -0.2361  0.0554
 2070TIP3   OH227768   1.740   1.235   7.543 -0.1965 -0.0405  0.0558
 2070TIP3    H127769   1.735   1.142   7.521 -1.3745  0.1551 -0.5276
 2070TIP3    H227770   1.822   1.243   7.592 -0.9061 -1.6947  1.6169
 2071TIP3   OH227771   0.114   4.914   1.818 -0.1649  0.2961  0.3959
 2071TIP3    H127772   0.189   4.922   1.878  0.0543  3.0700 -0.0944
 2071TIP3    H227773   0.147   4.945   1.734 -1.7839  1.3960  0.1231
 2072TIP3   OH227774   6.598   2.550   8.419 -0.3640  0.1486 -0.4266
 2072TIP3    H127775   6.513   2.571   8.459  0.2473  0.3237  0.8352
 2072TIP3    H227776   6.661   2.565   8.489  0.8409  1.1286 -1.6732
 2073TIP3   OH227777   1.859   0.361   2.718 -0.5291 -0.5219 -0.4601
 2073TIP3    H127778   1.842   0.280   2.766 -0.7060 -0.6315 -0.7087
 2073TIP3    H227779   1.927   0.405   2.769 -0.3154 -0.9040 -0.4123
 2074TIP3   OH227780   3.578   4.635   7.469  0.5209  0.0557 -0.1799
 2074TIP3    H127781   3.533   4.684   7.538  0.9565  0.1043  0.0672
 2074TIP3    H227782   3.507   4.592   7.420  0.1399  0.9113 -0.3900
 2075TIP3   OH227783   2.401   5.062   1.333 -1.0257 -0.4874  0.2435
 2075TIP3    H127784   2.366   4.983   1.373  0.4702 -0.4352  1.8244
 2075TIP3    H227785   2.422   5.119   1.408  0.5444  0.2344 -0.6904
 2076TIP3   OH227786   6.216   5.508   2.268  0.0258  0.4826  0.1111
 2076TIP3    H127787   6.194   5.433   2.324 -0.1315 -2.1435 -3.1794
 2076TIP3    H227788   6.131   5.539   2.237  0.0384  2.5987  1.9298
 2077TIP3   OH227789   3.589   1.870   2.027  0.1135 -0.1072 -0.4770
 2077TIP3    H127790   3.514   1.903   1.978  0.0566 -0.2241 -0.4684
 2077TIP3    H227791   3.654   1.848   1.960 -0.2204 -0.9131 -0.5430
 2078TIP3   OH227792   6.699   5.871   0.442  0.0468 -0.1223  0.4099
 2078TIP3    H127793   6.738   5.948   0.400 -0.8884 -0.6115 -1.4711
 2078TIP3    H227794   6.612   5.864   0.403 -0.3900 -1.3720  1.5408
 2079TIP3   OH227795   6.093   0.589   2.556  0.1279  0.4252  0.5434
 2079TIP3    H127796   6.055   0.673   2.532 -1.7148 -0.0971  1.4029
 2079TIP3    H227797   6.017   0.533   2.574  1.3195 -1.0694  1.1328
 2080TIP3   OH227798   5.821   0.436   1.576 -0.4861  0.5292  0.8290
 2080TIP3    H127799   5.825   0.344   1.599 -0.9252  0.4814  0.7226
 2080TIP3    H227800   5.730   0.461   1.591 -0.3693  0.9453  0.8611
 2081TIP3   OH227801   4.681   3.670   2.672  0.1372  0.2187 -0.2045
 2081TIP3    H127802   4.588   3.692   2.679 -0.6093 -2.9083  1.6484
 2081TIP3    H227803   4.682   3.580   2.638  2.3626 -0.4394  1.3857
 2082TIP3   OH227804   2.435   6.029   2.842 -0.5105  0.1729 -0.4342
 2082TIP3    H127805   2.414   6.024   2.935  1.2267 -0.0638 -0.0071
 2082TIP3    H227806   2.421   6.120   2.818 -3.6614 -0.2859 -0.6974
 2083TIP3   OH227807   3.305   6.210   1.161 -0.7017  0.7165  0.1271
 2083TIP3    H127808   3.374   6.219   1.095 -0.6383 -0.8809 -0.0704
 2083TIP3    H227809   3.232   6.170   1.114 -1.6455  2.0275  0.4271
 2084TIP3   OH227810   0.667   3.067   0.328 -0.1277 -0.7047 -0.2620
 2084TIP3    H127811   0.636   3.134   0.388 -0.0513  0.9605 -1.9860
 2084TIP3    H227812   0.591   3.047   0.273  0.6306  0.3267 -1.7790
 2085TIP3   OH227813   4.202   6.176   0.298  0.3305 -0.2736 -0.3022
 2085TIP3    H127814   4.168   6.109   0.358  1.3284  0.6564  1.3652
 2085TIP3    H227815   4.209   6.255   0.352 -2.2964  1.6987 -2.5793
 2086TIP3   OH227816   2.149   3.149   1.728  0.3099 -0.3119  0.1769
 2086TIP3    H127817   2.122   3.101   1.806  1.3431  1.5460  1.7707
 2086TIP3    H227818   2.245   3.150   1.733  0.3372  1.3120 -0.1332
 2087TIP3   OH227819   0.257   0.103   7.943  0.9918  0.0686  0.0625
 2087TIP3    H127820   0.332   0.161   7.953  0.3461  0.6386  2.4473
 2087TIP3    H227821   0.183   0.162   7.929  0.1091  0.1124  3.8497
 2088TIP3   OH227822   3.175   4.906   8.498 -0.6271  0.3670  0.4702
 2088TIP3    H127823   3.158   4.908   8.592  2.5865 -1.1659  1.2208
 2088TIP3    H227824   3.220   4.988   8.479  0.7684 -0.2929  0.8041
 2089TIP3   OH227825   1.812   6.128   0.206  0.3344 -0.2374 -0.1711
 2089TIP3    H127826   1.875   6.200   0.198 -0.0730 -0.0785 -3.3293
 2089TIP3    H227827   1.751   6.156   0.274  0.5476  2.1412 -0.8744
 2090TIP3   OH227828   3.108   2.879   8.122  0.5669 -0.0872  0.0699
 2090TIP3    H127829   3.075   2.799   8.163  1.2113 -0.3638  0.0583
 2090TIP3    H227830   3.064   2.882   8.038 -1.4322  0.9356  1.0792
 2091TIP3   OH227831   1.761   3.690   6.756 -0.4196  0.3467  0.3539
 2091TIP3    H127832   1.850   3.725   6.744  0.2969 -1.3379  0.5553
 2091TIP3    H227833   1.758   3.664   6.848 -1.6842  1.8166  0.7710
 2092TIP3   OH227834   4.905   4.719   0.752 -0.1147  0.5004  0.0887
 2092TIP3    H127835   4.822   4.678   0.726 -1.2046  1.8369  1.2276
 2092TIP3    H227836   4.880   4.778   0.824  2.4280 -2.0342  3.3667
 2093TIP3   OH227837   4.920   6.611   6.493  0.6748  0.3366  0.4533
 2093TIP3    H127838   4.877   6.556   6.559 -0.3963 -1.1663 -1.4213
 2093TIP3    H227839   4.979   6.551   6.447 -0.0460  0.8662 -1.2175
 2094TIP3   OH227840   1.151   1.576   0.702  0.3637 -0.0151  0.1589
 2094TIP3    H127841   1.232   1.567   0.652  0.0447  0.4753 -0.4742
 2094TIP3    H227842   1.092   1.511   0.662  0.6273 -0.8130  1.0298
 2095TIP3   OH227843   4.582   4.080   7.950  0.6511 -0.5473 -0.2359
 2095TIP3    H127844   4.626   4.075   7.865  1.6704  0.2856  0.2210
 2095TIP3    H227845   4.568   4.174   7.963 -2.2278 -0.8104 -0.8232
 2096TIP3   OH227846   0.268   3.044   0.998  0.5045  0.6036 -0.1904
 2096TIP3    H127847   0.253   3.100   1.075  0.8326  0.8832 -0.3305
 2096TIP3    H227848   0.231   3.093   0.925 -0.5778 -0.0375 -0.0976
 2097TIP3   OH227849   3.467   4.066   0.635 -0.7481  0.3665 -0.8213
 2097TIP3    H127850   3.376   4.037   0.636 -0.3680 -0.8928 -0.5006
 2097TIP3    H227851   3.502   4.040   0.720  0.2358 -0.3097 -1.4088
 2098TIP3   OH227852   2.216   1.268   8.660 -0.3620 -0.7480  0.2742
 2098TIP3    H127853   2.192   1.175   8.658 -0.9574 -0.5913 -0.5073
 2098TIP3    H227854   2.239   1.288   8.569 -1.7027  0.2367  0.1370
 2099TIP3   OH227855   1.002   1.078   8.423 -0.1458 -0.1348 -0.4057
 2099TIP3    H127856   1.092   1.103   8.399  0.7050 -1.8222  0.8120
 2099TIP3    H227857   0.952   1.158   8.413  1.6135  1.0020 -0.6070
 2100TIP3   OH227858   0.661   5.418   2.317 -0.3861  0.4612  0.4337
 2100TIP3    H127859   0.697   5.424   2.228 -2.2608  1.4024 -0.3046
 2100TIP3    H227860   0.676   5.327   2.342  1.4430  0.5242 -0.2616
 2101TIP3   OH227861   1.871   3.894   1.566 -0.7110 -0.4777  0.4284
 2101TIP3    H127862   1.916   3.977   1.584 -2.7688  0.5432  1.1617
 2101TIP3    H227863   1.817   3.913   1.489  0.2771 -1.7789 -0.6398
 2102TIP3   OH227864   4.527   0.101   1.288  0.3111  0.1929  0.3386
 2102TIP3    H127865   4.477   0.034   1.333 -0.8850  0.1810 -0.9282
 2102TIP3    H227866   4.567   0.056   1.213  1.0902  0.5031  0.5525
 2103TIP3   OH227867   2.745   5.313   0.866  0.6343 -0.2608 -0.4744
 2103TIP3    H127868   2.768   5.339   0.955  1.3033  1.6562 -1.1532
 2103TIP3    H227869   2.812   5.249   0.841  0.7137 -0.4547  0.2294
 2104TIP3   OH227870   5.813   3.965   7.471 -0.0757 -0.5990 -0.1015
 2104TIP3    H127871   5.828   3.882   7.515 -0.1329 -0.8449 -0.5488
 2104TIP3    H227872   5.894   3.982   7.422 -0.8476 -1.4439 -1.7243
 2105TIP3   OH227873   0.699   2.578   1.557 -0.8451  0.1603  0.3429
 2105TIP3    H127874   0.615   2.621   1.576 -1.2448  0.1505 -1.2778
 2105TIP3    H227875   0.759   2.650   1.540 -0.7722  0.1435  0.5285
 2106TIP3   OH227876   2.142   2.409   0.781 -0.3304 -0.3405 -0.4735
 2106TIP3    H127877   2.160   2.496   0.744  1.2383  0.1499  1.2722
 2106TIP3    H227878   2.220   2.358   0.762 -1.1179 -1.2861 -1.2106
 2107TIP3   OH227879   5.960   4.531   2.247  0.1376  0.0122 -0.1801
 2107TIP3    H127880   5.865   4.532   2.260  0.3320  1.6376  1.5588
 2107TIP3    H227881   5.980   4.440   2.223 -1.7331 -0.6069  0.4367
 2108TIP3   OH227882   1.765   4.713   7.796  0.6865 -0.4375 -0.1438
 2108TIP3    H127883   1.809   4.664   7.865 -0.8635 -0.1907  1.1022
 2108TIP3    H227884   1.829   4.721   7.726  2.0329 -1.4422  0.9320
 2109TIP3   OH227885   3.181   1.204   7.121 -0.2004 -0.0000 -0.0556
 2109TIP3    H127886   3.233   1.246   7.190  0.2465 -0.0988 -0.3320
 2109TIP3    H227887   3.185   1.264   7.047 -1.0090  0.2927  0.1285
 2110TIP3   OH227888   5.812   5.265   6.825  0.1026 -1.1454 -0.8722
 2110TIP3    H127889   5.809   5.354   6.862  0.7050 -0.7160 -1.8175
 2110TIP3    H227890   5.905   5.247   6.813  0.0723 -2.4662  0.5784
 2111TIP3   OH227891   5.828   0.850   0.666  0.3427 -0.7537 -0.6182
 2111TIP3    H127892   5.757   0.822   0.608 -1.7574  1.9836  0.3853
 2111TIP3    H227893   5.790   0.845   0.754  1.4700  0.5601 -0.0184
 2112TIP3   OH227894   6.104   5.216   6.899 -0.8160 -0.0295 -0.6728
 2112TIP3    H127895   6.100   5.308   6.873 -3.0605  0.4919  1.1886
 2112TIP3    H227896   6.196   5.191   6.887 -0.2279  2.3545 -1.5077
 2113TIP3   OH227897   1.460   5.640   0.097 -0.1218 -0.0654 -0.3302
 2113TIP3    H127898   1.486   5.606   0.182 -0.4488  1.0090  0.2168
 2113TIP3    H227899   1.430   5.564   0.048 -1.1014 -0.5229  0.9512
 2114TIP3   OH227900   2.056   6.420   0.855 -0.3115  0.0521  0.8870
 2114TIP3    H127901   2.099   6.415   0.769 -2.4704 -3.5065 -0.1997
 2114TIP3    H227902   1.977   6.471   0.840 -0.7414 -0.6577  0.6927
 2115TIP3   OH227903   6.056   6.223   0.337 -0.1859  0.0581  0.2026
 2115TIP3    H127904   6.018   6.155   0.280 -1.3433  0.9434 -0.1202
 2115TIP3    H227905   5.993   6.233   0.408 -0.0321  0.7999  0.2414
 2116TIP3   OH227906   4.491   0.727   7.736 -0.0290  0.0647  1.2375
 2116TIP3    H127907   4.431   0.771   7.676 -0.3667 -0.6517  1.0387
 2116TIP3    H227908   4.518   0.648   7.690  0.0454 -0.2797  1.8543
 2117TIP3   OH227909   1.463   3.595   8.349 -0.4207 -0.4873 -0.0885
 2117TIP3    H127910   1.445   3.572   8.440  0.3560 -2.1295 -0.3033
 2117TIP3    H227911   1.377   3.591   8.306 -1.0340  1.7097  0.7952
 2118TIP3   OH227912   0.658   1.599   1.194 -0.6101  0.0164  0.1569
 2118TIP3    H127913   0.719   1.526   1.206 -0.0765  0.0929 -1.7782
 2118TIP3    H227914   0.581   1.574   1.245  0.5998 -0.5824  1.7690
 2119TIP3   OH227915   3.492   5.725   2.549 -0.5407 -0.1192 -0.0956
 2119TIP3    H127916   3.539   5.758   2.473  0.4746 -1.1823  0.0514
 2119TIP3    H227917   3.548   5.745   2.623 -0.9851 -0.1402  0.2530
 2120TIP3   OH227918   3.639   1.200   0.067 -0.2840 -0.9234 -0.4729
 2120TIP3    H127919   3.673   1.207   0.157  0.0231  0.5061 -0.6778
 2120TIP3    H227920   3.717   1.202   0.012 -0.5541  1.2742 -0.8930
 2121TIP3   OH227921   3.525   3.620   0.443  0.2454  0.7104 -0.3973
 2121TIP3    H127922   3.430   3.626   0.447  0.2528  1.9527 -1.2303
 2121TIP3    H227923   3.549   3.558   0.511 -1.2174 -0.3252 -0.7815
 2122TIP3   OH227924   2.080   4.850   1.844 -0.6419  0.3411  0.0926
 2122TIP3    H127925   2.044   4.762   1.831 -0.4013  0.2338  0.1482
 2122TIP3    H227926   2.095   4.883   1.756  0.4022 -0.1460  0.0796
 2123TIP3   OH227927   3.534   4.761   0.865  0.1338 -0.4884  0.1034
 2123TIP3    H127928   3.534   4.814   0.945 -1.0687 -0.1668 -0.0837
 2123TIP3    H227929   3.472   4.690   0.883  0.7787 -1.1097 -0.1086
 2124TIP3   OH227930   3.929   6.019   2.066 -0.0049 -0.3989  0.0025
 2124TIP3    H127931   3.967   6.017   1.978  0.2513  1.6829  0.0208
 2124TIP3    H227932   3.968   5.944   2.110  1.6831 -0.1473 -0.9540
 2125TIP3   OH227933   2.543   1.571   1.212  0.5315 -0.0789 -0.2529
 2125TIP3    H127934   2.522   1.511   1.283 -1.2903 -1.9102 -2.1682
 2125TIP3    H227935   2.611   1.526   1.162  0.8428  0.5510 -0.4033
 2126TIP3   OH227936   0.110   2.795   1.255 -0.0024  0.0233 -0.6346
 2126TIP3    H127937   0.164   2.813   1.178  0.7084  0.4428 -0.0567
 2126TIP3    H227938   0.021   2.816   1.227  0.1171 -0.7346 -1.6231
 2127TIP3   OH227939   1.909   1.883   0.272 -0.4097  0.3961 -0.0014
 2127TIP3    H127940   1.888   1.895   0.179  1.1824 -0.1680 -0.4662
 2127TIP3    H227941   1.833   1.919   0.318 -0.6770  1.9165 -1.4953
 2128TIP3   OH227942   4.007   4.355   0.243 -0.0610 -0.0392  0.2001
 2128TIP3    H127943   4.075   4.347   0.176  0.9191  0.0813  1.1498
 2128TIP3    H227944   3.970   4.267   0.251  0.0702 -0.1359 -0.2243
 2129TIP3   OH227945   5.612   2.139   0.502  0.7696  0.6176 -0.3451
 2129TIP3    H127946   5.613   2.235   0.497  0.8647  0.5535 -3.2929
 2129TIP3    H227947   5.650   2.111   0.419 -1.9568 -1.9795 -0.8625
 2130TIP3   OH227948   0.540   3.508   7.934  0.2976  0.1292  0.5892
 2130TIP3    H127949   0.561   3.601   7.925 -1.2580  0.3482 -2.0400
 2130TIP3    H227950   0.451   3.507   7.967 -0.0730 -0.3545 -0.3856
 2131TIP3   OH227951   6.481   4.057   7.890 -0.2382  0.7285 -0.2523
 2131TIP3    H127952   6.530   4.053   7.972 -0.8353  1.1404  0.1266
 2131TIP3    H227953   6.414   3.990   7.898  1.0284 -0.7325 -1.2963
 2132TIP3   OH227954   2.217   4.364   0.394 -0.0764  0.3254  0.5050
 2132TIP3    H127955   2.304   4.372   0.433  0.2808  0.6836 -0.3320
 2132TIP3    H227956   2.234   4.323   0.309 -0.7126  0.5359  0.2753
 2133TIP3   OH227957   4.009   2.686   8.036  0.4984  0.0563  0.9908
 2133TIP3    H127958   4.024   2.694   8.130 -1.4053 -0.6101  1.3971
 2133TIP3    H227959   3.965   2.768   8.012  1.1977  0.3309  0.6065
 2134TIP3   OH227960   2.432   3.957   8.447 -0.1753  0.1699  0.4917
 2134TIP3    H127961   2.528   3.960   8.447 -0.1861  2.3596  0.2952
 2134TIP3    H227962   2.406   4.042   8.411 -2.2001 -0.5766  0.0994
 2135TIP3   OH227963   3.899   0.192   0.030  0.6552  0.4392 -0.9110
 2135TIP3    H127964   3.914   0.123   0.094  1.6452  0.6662 -0.8847
 2135TIP3    H227965   3.855   0.149  -0.044  0.1228  0.0467 -0.3740
 2136TIP3   OH227966   6.586   2.798   8.587  0.3378 -0.1430 -0.2832
 2136TIP3    H127967   6.566   2.866   8.651  0.1493  0.9616 -1.4791
 2136TIP3    H227968   6.518   2.732   8.599  0.1443  0.1842  0.4498
 2137TIP3   OH227969   0.520   4.265   2.283 -0.0652  0.6774  0.0906
 2137TIP3    H127970   0.529   4.170   2.275 -0.9653  0.4691  1.3348
 2137TIP3    H227971   0.562   4.300   2.204  1.6773 -0.6675  0.3788
 2138TIP3   OH227972   6.822   2.967   0.421  0.1840  0.0930 -1.0080
 2138TIP3    H127973   6.844   2.899   0.485  1.3790  1.7560  0.4478
 2138TIP3    H227974   6.739   3.002   0.452 -0.2654 -0.4593 -1.5681
 2139TIP3   OH227975   3.064   6.766   0.578 -0.1598  0.2074  0.2569
 2139TIP3    H127976   3.131   6.804   0.521  1.2516 -1.8637  0.4239
 2139TIP3    H227977   3.071   6.816   0.660 -0.3176  1.3861 -0.4156
 2140TIP3   OH227978   4.631   0.832   8.220  0.4038 -0.2833 -0.4011
 2140TIP3    H127979   4.577   0.802   8.147  1.4849  0.0728 -1.3683
 2140TIP3    H227980   4.575   0.894   8.267 -0.0340  0.1075 -1.4043
 2141TIP3   OH227981   0.342   5.874   7.106  0.6792  0.5588 -1.0728
 2141TIP3    H127982   0.256   5.907   7.081  0.1409  0.5790  0.6899
 2141TIP3    H227983   0.347   5.787   7.068 -0.8330 -0.1094  0.1825
 2142TIP3   OH227984   3.691   6.717   1.817  1.0847 -1.1076 -0.1024
 2142TIP3    H127985   3.607   6.754   1.791  1.5791  0.4314  0.3565
 2142TIP3    H227986   3.683   6.703   1.911  1.6185 -0.0774  0.1181
 2143TIP3   OH227987   6.706   0.939   8.624  0.1546  0.0803 -0.3380
 2143TIP3    H127988   6.770   1.008   8.610 -1.3852  1.4169 -1.0630
 2143TIP3    H227989   6.686   0.906   8.537  1.1320 -1.5752  0.0254
 2144TIP3   OH227990   0.689   2.955   2.718  0.0291  0.2550 -0.4093
 2144TIP3    H127991   0.724   3.037   2.753  1.1532 -0.1653 -0.5162
 2144TIP3    H227992   0.601   2.949   2.755  0.0158  1.3989 -0.2247
 2145TIP3   OH227993   1.128   0.302   7.095  0.1034 -0.0392 -0.7548
 2145TIP3    H127994   1.218   0.280   7.118  0.3198  1.1497 -0.3659
 2145TIP3    H227995   1.082   0.306   7.178 -0.7249 -2.2060 -1.0528
 2146TIP3   OH227996   0.863   0.613   2.143  0.4845  0.1569  0.1426
 2146TIP3    H127997   0.867   0.690   2.085 -2.7013  2.7174  2.8797
 2146TIP3    H227998   0.774   0.580   2.132  1.4335 -2.5372 -0.0779
 2147TIP3   OH227999   5.521   0.258   1.433 -0.5135  0.6786  0.1317
 2147TIP3    H128000   5.584   0.189   1.451 -0.4587  0.6924 -0.0079
 2147TIP3    H228001   5.446   0.213   1.394 -0.0185  0.8309 -1.0472
 2148TIP3   OH228002   3.747   0.912   2.191  0.4330 -0.1470  0.9668
 2148TIP3    H128003   3.833   0.870   2.191  1.4796  1.7100 -1.6384
 2148TIP3    H228004   3.711   0.895   2.104 -0.0074  2.4007  0.5544
 2149TIP3   OH228005   6.753   3.715   8.041 -0.8876  0.4285  0.1631
 2149TIP3    H128006   6.831   3.683   7.996  0.4931  0.3533  2.4228
 2149TIP3    H228007   6.694   3.640   8.045 -0.7169  0.2360 -0.8063
 2150TIP3   OH228008   4.056   4.341   7.260  0.2923  0.3165 -0.2779
 2150TIP3    H128009   4.041   4.435   7.267 -3.0491 -0.2354  2.4720
 2150TIP3    H228010   3.985   4.310   7.203  0.1831 -0.7208  0.3904
 2151TIP3   OH228011   3.627   1.088   1.905 -0.3786 -0.3704  0.5717
 2151TIP3    H128012   3.687   1.019   1.877 -1.2243 -1.0049  0.2970
 2151TIP3    H228013   3.540   1.053   1.887 -0.8869  0.0379  2.1124
 2152TIP3   OH228014   5.643   1.683   1.562 -0.5931  0.3681  0.1248
 2152TIP3    H128015   5.594   1.764   1.550  1.3107  1.2475 -3.0869
 2152TIP3    H228016   5.735   1.711   1.567  0.1173 -1.5492 -1.0140
 2153TIP3   OH228017   3.096   0.159   1.769  0.0557  0.0868 -0.2865
 2153TIP3    H128018   3.139   0.165   1.684 -0.1597  2.2216 -0.2972
 2153TIP3    H228019   3.050   0.075   1.767  2.0106 -1.0124 -1.3032
 2154TIP3   OH228020   4.339   1.673   7.132  0.0643  0.4727  0.5792
 2154TIP3    H128021   4.314   1.714   7.049 -0.5134  0.2671  0.6492
 2154TIP3    H228022   4.269   1.696   7.193  0.1395  0.0512  0.8298
 2155TIP3   OH228023   5.657   3.725   8.269 -0.1342  0.5990  0.2045
 2155TIP3    H128024   5.671   3.679   8.352 -2.7125 -0.9566 -0.1137
 2155TIP3    H228025   5.744   3.758   8.246  0.6640  1.2657  3.5571
 2156TIP3   OH228026   6.495   6.399   0.840  0.4985  0.0828 -0.3088
 2156TIP3    H128027   6.532   6.453   0.909  0.3665  1.8726 -1.5629
 2156TIP3    H228028   6.560   6.401   0.770 -0.0566 -0.3769 -0.8570
 2157TIP3   OH228029   0.818   5.824   1.909  0.1816  0.4565 -0.4392
 2157TIP3    H128030   0.740   5.871   1.938 -0.0531 -0.4344  0.4669
 2157TIP3    H228031   0.803   5.807   1.816 -0.5147  0.6723 -0.3712
 2158TIP3   OH228032   3.338   2.555   1.600 -0.3679  0.0830  0.2411
 2158TIP3    H128033   3.339   2.650   1.586  2.2488 -0.0347 -1.0085
 2158TIP3    H228034   3.253   2.527   1.565 -0.9669  1.8687  0.1325
 2159TIP3   OH228035   3.283   5.703   0.519 -0.4540 -0.0505 -0.5312
 2159TIP3    H128036   3.206   5.731   0.568 -0.0575  2.5383 -1.2027
 2159TIP3    H228037   3.253   5.627   0.469 -2.5443  0.7731 -0.6503
 2160TIP3   OH228038   4.882   2.088   0.880  0.1116 -0.3041 -0.1403
 2160TIP3    H128039   4.921   2.023   0.938  0.2815 -0.9659 -0.9670
 2160TIP3    H228040   4.819   2.135   0.935 -1.7819 -2.7525 -0.0551
 2161TIP3   OH228041   4.369   6.181   0.960  0.4657 -0.4677  0.4744
 2161TIP3    H128042   4.330   6.269   0.963  0.3675 -0.5176  0.7443
 2161TIP3    H228043   4.352   6.145   1.047  1.3035 -0.4128  0.6608
 2162TIP3   OH228044   5.343   2.631   8.659 -0.0051 -0.4696 -0.4326
 2162TIP3    H128045   5.395   2.696   8.612 -0.5667  0.1610 -0.1915
 2162TIP3    H228046   5.265   2.618   8.605 -0.4091 -0.1266  0.0658
 2163TIP3   OH228047   5.008   6.362   0.845 -0.3841 -0.3658 -0.1355
 2163TIP3    H128048   5.004   6.456   0.828 -0.4395  0.2405  2.6258
 2163TIP3    H228049   5.097   6.347   0.877  0.2622 -1.6846 -2.3711
 2164TIP3   OH228050   5.862   5.417   7.903  0.5128 -0.0377 -0.0411
 2164TIP3    H128051   5.868   5.322   7.917  0.0778 -0.1647 -0.6461
 2164TIP3    H228052   5.807   5.449   7.974 -1.1162 -0.5685 -0.9963
 2165TIP3   OH228053   1.336   3.542   7.804 -0.3945  0.0842 -0.3967
 2165TIP3    H128054   1.274   3.611   7.828  0.4404  0.4569  0.8276
 2165TIP3    H228055   1.329   3.478   7.875  0.0989 -0.2107 -0.6098
 2166TIP3   OH228056   2.148   6.768   0.873 -0.2953  0.1451 -0.3601
 2166TIP3    H128057   2.105   6.708   0.934  1.6034 -1.1987 -0.2498
 2166TIP3    H228058   2.076   6.813   0.829 -1.7503  0.3562  2.0520
 2167TIP3   OH228059   1.692   0.961   8.476 -0.1014  0.3567  0.0358
 2167TIP3    H128060   1.756   1.033   8.476  1.9171 -1.3257  1.3315
 2167TIP3    H228061   1.618   0.995   8.525  0.0059  2.1503 -0.9323
 2168TIP3   OH228062   6.777   5.603   1.707  0.7391  0.3352  0.2418
 2168TIP3    H128063   6.764   5.697   1.719 -1.5626  0.1982 -0.7882
 2168TIP3    H228064   6.803   5.571   1.793 -1.0864  1.5215  1.2995
 2169TIP3   OH228065   4.643   6.782   7.765  0.3560  0.1618 -0.1429
 2169TIP3    H128066   4.675   6.844   7.831 -1.7471  2.3353 -0.9846
 2169TIP3    H228067   4.601   6.713   7.815  3.0660 -0.8966  0.8492
 2170TIP3   OH228068   3.576   3.801   8.705 -0.4413 -0.0625  0.0638
 2170TIP3    H128069   3.540   3.735   8.646  0.3180 -1.1752  0.8211
 2170TIP3    H228070   3.566   3.763   8.792 -0.6322  1.1367  0.5840
 2171TIP3   OH228071   6.396   5.501   7.195 -0.1735  0.0007 -0.2261
 2171TIP3    H128072   6.397   5.556   7.273  0.2351 -1.0337  0.5060
 2171TIP3    H228073   6.487   5.473   7.183 -0.2204  0.1777 -1.1033
 2172TIP3   OH228074   0.068   3.308   8.075 -0.4677  0.2880 -0.3742
 2172TIP3    H128075   0.039   3.219   8.096  0.2548 -0.1007 -0.9628
 2172TIP3    H228076   0.056   3.357   8.157 -2.3309  0.0556 -0.4752
 2173TIP3   OH228077   4.403   3.999   1.841 -0.2249  0.1752  0.9406
 2173TIP3    H128078   4.374   3.909   1.858  0.9940 -0.1658  1.3269
 2173TIP3    H228079   4.414   4.004   1.746  0.1078 -0.2220  0.9550
 2174TIP3   OH228080   2.624   5.544   7.921  0.5580  0.6377 -0.1497
 2174TIP3    H128081   2.562   5.615   7.938  0.2050  0.5861 -1.1777
 2174TIP3    H228082   2.569   5.468   7.905  0.9179  0.3667 -0.1031
 2175TIP3   OH228083   6.499   3.950   1.238  0.6336 -0.0395  0.1015
 2175TIP3    H128084   6.505   3.943   1.143  3.4097  4.3222 -0.2957
 2175TIP3    H228085   6.580   3.910   1.270  0.2321 -0.4809  0.5884
 2176TIP3   OH228086   2.427   5.291   1.920  0.0981 -0.2301 -0.0693
 2176TIP3    H128087   2.397   5.302   2.010  0.2300 -1.5125  0.1482
 2176TIP3    H228088   2.415   5.377   1.880  1.0362  0.6731  1.4688
 2177TIP3   OH228089   2.088   6.187   7.612 -0.0093 -0.2409 -0.6186
 2177TIP3    H128090   2.065   6.231   7.530 -0.3985 -1.1969 -1.0315
 2177TIP3    H228091   2.161   6.130   7.589 -0.0496 -0.4337 -0.2781
 2178TIP3   OH228092   2.488   1.102   8.393 -0.4539  0.6829 -0.1897
 2178TIP3    H128093   2.544   1.085   8.469 -1.0894 -1.2242 -0.0952
 2178TIP3    H228094   2.548   1.134   8.326  0.1517  2.1639  1.0168
 2179TIP3   OH228095   4.052   0.836   1.509 -0.3300  0.4980 -0.1578
 2179TIP3    H128096   4.064   0.810   1.418  0.9590  1.2932 -0.2340
 2179TIP3    H228097   4.106   0.774   1.559  0.2004  1.0181 -0.0755
 2180TIP3   OH228098   6.446   2.357   1.062  0.1607 -0.4902  0.5089
 2180TIP3    H128099   6.385   2.309   1.006  0.0892 -0.7157  0.7790
 2180TIP3    H228100   6.465   2.437   1.013 -1.7387  0.4347  1.1970
 2181TIP3   OH228101   0.960   3.639   8.170  0.7328 -0.1024  0.3368
 2181TIP3    H128102   0.970   3.544   8.161  1.4360  0.1186 -1.8758
 2181TIP3    H228103   0.902   3.650   8.245  0.1178 -2.3054  0.2591
 2182TIP3   OH228104   2.416   4.912   6.884 -0.4565  0.0582  0.3023
 2182TIP3    H128105   2.406   4.961   6.965 -0.0549  2.4363 -1.0145
 2182TIP3    H228106   2.387   4.823   6.906 -0.7834  0.7417  2.8964
 2183TIP3   OH228107   5.004   0.055   1.922  0.0606  0.0186 -0.3236
 2183TIP3    H128108   5.027   0.145   1.944  1.2591 -0.0860 -1.0469
 2183TIP3    H228109   4.998   0.054   1.827  0.3146 -0.7226 -0.3396
 2184TIP3   OH228110   2.115   4.839   8.707  0.0141 -0.3731 -0.5037
 2184TIP3    H128111   2.180   4.858   8.639 -0.1511 -0.1124 -0.5866
 2184TIP3    H228112   2.138   4.897   8.779 -0.9026  0.6507 -1.0109
 2185TIP3   OH228113   6.033   3.161   1.336 -0.4268 -0.0781 -0.1354
 2185TIP3    H128114   6.018   3.118   1.252 -0.5885 -1.3013  0.4988
 2185TIP3    H228115   6.125   3.185   1.335 -0.6639  0.9099 -1.0841
 2186TIP3   OH228116   6.739   2.540   0.267 -0.3854  0.2091  0.7234
 2186TIP3    H128117   6.829   2.522   0.291 -0.6420  0.4308  1.8969
 2186TIP3    H228118   6.743   2.615   0.209  0.3049 -0.7506 -0.5118
 2187TIP3   OH228119   5.548   4.846   7.348 -0.6279 -0.3815  0.0588
 2187TIP3    H128120   5.554   4.851   7.253 -0.7111 -0.4977  0.0471
 2187TIP3    H228121   5.459   4.816   7.365 -0.5992 -0.4048  0.1713
 2188TIP3   OH228122   4.649   6.145   7.454  0.1491  0.0754 -0.5828
 2188TIP3    H128123   4.561   6.164   7.421 -0.8220 -0.1039  1.7627
 2188TIP3    H228124   4.708   6.185   7.390 -1.6401  1.0278 -1.6926
 2189TIP3   OH228125   4.038   6.683   7.388 -0.6110  0.3739  0.7686
 2189TIP3    H128126   4.038   6.594   7.423 -0.3713  0.7301  1.6986
 2189TIP3    H228127   4.020   6.739   7.463 -0.9767  1.1022  0.1536
 2190TIP3   OH228128   4.778   2.289   7.076  0.0618 -0.1113 -0.5041
 2190TIP3    H128129   4.861   2.291   7.028  0.3201  0.5794 -0.0560
 2190TIP3    H228130   4.714   2.325   7.015  0.1289 -0.4766 -0.7889
 2191TIP3   OH228131   2.848   5.402   0.374  0.1419 -0.3497 -0.2511
 2191TIP3    H128132   2.796   5.455   0.435 -1.4122 -2.2377  0.1784
 2191TIP3    H228133   2.811   5.420   0.288 -0.5688 -0.8794 -0.0717
 2192TIP3   OH228134   5.885   4.265   0.076  0.1864  0.0540  0.0084
 2192TIP3    H128135   5.818   4.197   0.071 -0.0085 -0.0139  2.4138
 2192TIP3    H228136   5.838   4.343   0.104  1.0382 -0.0085  1.7964
 2193TIP3   OH228137   3.735   6.315   0.054 -0.6818 -0.5995 -0.2097
 2193TIP3    H128138   3.692   6.357   0.129 -0.2216  0.4570 -0.5235
 2193TIP3    H228139   3.720   6.221   0.068 -0.4979 -0.4373  1.2770
 2194TIP3   OH228140   1.902   5.933   1.617  0.4869 -0.3281  0.2970
 2194TIP3    H128141   1.816   5.937   1.660  0.6006 -1.2429  0.6186
 2194TIP3    H228142   1.934   5.845   1.635  1.0601 -0.3261 -0.6732
 2195TIP3   OH228143   6.117   2.735   7.396  0.5615  0.0094  0.1318
 2195TIP3    H128144   6.201   2.700   7.368 -0.0542  0.1735 -2.1435
 2195TIP3    H228145   6.052   2.678   7.354 -0.4995  0.1319  1.4895
 2196TIP3   OH228146   1.950   3.736   0.254  0.3659 -0.2092 -0.0893
 2196TIP3    H128147   1.985   3.799   0.318  2.8636 -1.9530  0.4115
 2196TIP3    H228148   1.992   3.761   0.172  1.0952 -0.9447  0.0417
 2197TIP3   OH228149   6.003   1.066   0.755 -0.5413 -0.2536 -0.1958
 2197TIP3    H128150   5.974   0.987   0.709  0.8385 -0.5491 -0.6098
 2197TIP3    H228151   5.935   1.131   0.736 -0.9156 -0.8969 -1.1420
 2198TIP3   OH228152   2.696   0.406   2.193  0.1251  0.2725  0.0146
 2198TIP3    H128153   2.705   0.320   2.234 -1.1569 -0.2499 -0.7548
 2198TIP3    H228154   2.656   0.461   2.261  1.3715  0.4166  0.6639
 2199TIP3   OH228155   2.551   2.267   2.370 -0.2785  0.2267  0.3732
 2199TIP3    H128156   2.611   2.263   2.444  0.7865 -0.5713 -0.4941
 2199TIP3    H228157   2.607   2.278   2.293 -1.3447  0.9495 -0.3447
 2200TIP3   OH228158   1.110   5.994   2.862  0.1455  0.4415  0.1548
 2200TIP3    H128159   1.022   5.960   2.843  0.1611 -1.7039  3.2403
 2200TIP3    H228160   1.169   5.930   2.821  0.2203  0.1276  0.7438
 2201TIP3   OH228161   5.484   2.438   2.796 -0.3328  0.4585  0.0867
 2201TIP3    H128162   5.536   2.391   2.861  0.8810 -1.1050 -1.8888
 2201TIP3    H228163   5.527   2.524   2.788  2.9208 -1.1395 -2.2780
 2202TIP3   OH228164   0.875   2.167   0.464 -0.0996 -0.1435  0.7475
 2202TIP3    H128165   0.859   2.109   0.390 -0.2291  1.0195 -0.1651
 2202TIP3    H228166   0.802   2.150   0.524 -0.0860 -0.9760  0.5445
 2203TIP3   OH228167   1.258   6.280   2.285  0.4653  0.1864  0.0196
 2203TIP3    H128168   1.238   6.259   2.376  1.2216  1.2359  0.4505
 2203TIP3    H228169   1.353   6.281   2.280  0.4328 -0.2375 -0.8846
 2204TIP3   OH228170   0.845   0.004   8.748 -0.5692  0.1548  0.2494
 2204TIP3    H128171   0.759   0.020   8.711  0.3655  0.1263 -2.1040
 2204TIP3    H228172   0.896   0.082   8.727  0.3548 -0.4012  0.3453
 2205TIP3   OH228173   2.226   5.027   2.004 -0.3330  0.1761 -0.4694
 2205TIP3    H128174   2.304   5.007   1.953 -0.0029  0.9902 -0.2942
 2205TIP3    H228175   2.162   4.962   1.976 -0.3452  0.9405 -2.3157
 2206TIP3   OH228176   6.160   6.827   8.428 -0.1875 -0.3375 -0.2976
 2206TIP3    H128177   6.242   6.783   8.405 -0.2532 -0.1055 -0.9909
 2206TIP3    H228178   6.098   6.801   8.360 -0.5885 -0.2068  0.0111
 2207TIP3   OH228179   2.073   4.956   1.537 -0.5072  0.2329  0.1020
 2207TIP3    H128180   1.991   4.936   1.581 -0.0268 -0.2764  0.7958
 2207TIP3    H228181   2.050   5.020   1.469 -1.5040 -0.1091  0.1148
 2208TIP3   OH228182   0.395   1.784   1.142  0.8705  0.0413 -0.2874
 2208TIP3    H128183   0.307   1.820   1.130 -0.1311 -2.1191  0.1265
 2208TIP3    H228184   0.454   1.855   1.116 -0.9835  0.5952 -3.3947
 2209TIP3   OH228185   3.199   2.823   7.683 -0.0763  0.3010 -0.1042
 2209TIP3    H128186   3.173   2.820   7.590  0.3167 -0.3667 -0.1983
 2209TIP3    H228187   3.229   2.734   7.702  1.6929  0.9121  0.1340
 2210TIP3   OH228188   3.880   0.035   7.154  0.6637 -0.3929 -0.0285
 2210TIP3    H128189   3.786   0.038   7.166  0.7540 -1.8581  1.2870
 2210TIP3    H228190   3.912   0.118   7.191 -0.0830  0.0855 -0.4431
 2211TIP3   OH228191   3.124   3.761   2.310  0.4234 -0.4624  0.1529
 2211TIP3    H128192   3.103   3.707   2.386 -0.9442 -0.3855 -0.1442
 2211TIP3    H228193   3.167   3.838   2.347  1.0127 -1.0492  0.7124
 2212TIP3   OH228194   5.348   3.294   0.190 -0.3410 -0.7658 -0.5250
 2212TIP3    H128195   5.384   3.332   0.270  0.7528 -1.8215 -0.4745
 2212TIP3    H228196   5.288   3.226   0.220 -1.6038  0.2751 -0.6168
 2213TIP3   OH228197   5.042   6.124   0.089  0.5645  0.0883  0.1369
 2213TIP3    H128198   4.972   6.182   0.060 -0.2021 -1.6389 -1.7216
 2213TIP3    H228199   5.114   6.182   0.112 -0.4668  1.7792 -0.7296
 2214TIP3   OH228200   3.372   2.871   2.467  0.1763  0.3946  0.3788
 2214TIP3    H128201   3.373   2.938   2.535 -1.2235 -0.3241  1.1509
 2214TIP3    H228202   3.420   2.798   2.505  0.9266  0.6192 -0.1153
 2215TIP3   OH228203   0.766   3.950   1.165  0.1033  0.2806  0.3050
 2215TIP3    H128204   0.737   4.028   1.213  1.0188 -0.1335  1.5769
 2215TIP3    H228205   0.687   3.897   1.155 -0.4965  1.2841 -0.4282
 2216TIP3   OH228206   2.030   3.204   8.458 -0.1120 -0.2802 -0.3745
 2216TIP3    H128207   1.981   3.145   8.401  0.7241 -1.0701 -0.3147
 2216TIP3    H228208   2.119   3.205   8.421  0.0044  0.5754 -0.0954
 2217TIP3   OH228209   4.880   5.347   7.887 -0.0642  0.0675  0.1769
 2217TIP3    H128210   4.888   5.401   7.965 -0.0948  1.0200 -0.4651
 2217TIP3    H228211   4.790   5.313   7.890  0.1413 -0.4428  0.8827
 2218TIP3   OH228212   4.336   3.300   0.458 -0.1420  0.1496 -0.1605
 2218TIP3    H128213   4.360   3.346   0.539 -2.7572  1.9811 -0.2908
 2218TIP3    H228214   4.242   3.282   0.468 -0.0233 -1.6684 -1.8557
 2219TIP3   OH228215   5.663   5.201   1.785  0.0962 -0.0217  0.1549
 2219TIP3    H128216   5.676   5.296   1.793  0.2415 -0.1476  1.5311
 2219TIP3    H228217   5.572   5.192   1.756 -0.3648  0.5131  1.3661
 2220TIP3   OH228218   2.776   3.768   1.610  0.5153 -0.0174  0.6921
 2220TIP3    H128219   2.781   3.721   1.527 -0.9552  1.0687 -0.0473
 2220TIP3    H228220   2.718   3.714   1.664  1.9792 -1.0618  1.3018
 2221TIP3   OH228221   4.755   0.527   0.845  0.3212 -0.0786  0.1278
 2221TIP3    H128222   4.727   0.442   0.810 -1.1417  0.2716  0.3758
 2221TIP3    H228223   4.675   0.580   0.845  0.8185  0.7304  1.6675
 2222TIP3   OH228224   3.104   2.505   0.558  0.3979  0.4750  0.4877
 2222TIP3    H128225   3.189   2.537   0.529  1.2233  1.2243  3.4905
 2222TIP3    H228226   3.048   2.516   0.481  2.8372  0.3862 -1.4393
 2223TIP3   OH228227   0.687   3.423   0.300 -0.4082 -0.1317 -0.0724
 2223TIP3    H128228   0.762   3.480   0.283 -0.5879  0.5388  1.2434
 2223TIP3    H228229   0.686   3.362   0.226 -1.3199  2.6830 -2.6041
 2224TIP3   OH228230   1.842   4.121   2.431  0.6669 -0.4812 -0.1765
 2224TIP3    H128231   1.747   4.131   2.429  0.7892  0.7894 -0.2331
 2224TIP3    H228232   1.870   4.173   2.507  1.5056  0.9982 -1.4493
 2225TIP3   OH228233   2.071   0.146   1.531 -0.6397  0.0645 -0.2920
 2225TIP3    H128234   2.031   0.070   1.574  0.7863 -0.1008  0.8139
 2225TIP3    H228235   2.049   0.135   1.439 -1.5328 -1.0179  0.0195
 2226TIP3   OH228236   0.778   3.154   2.273 -0.4494 -0.2983 -0.0064
 2226TIP3    H128237   0.842   3.213   2.313  0.3317 -1.9832  1.2955
 2226TIP3    H228238   0.724   3.123   2.346 -0.9380 -1.1028 -0.6868
 2227TIP3   OH228239   1.828   1.168   7.900  0.3196 -0.5565 -0.7459
 2227TIP3    H128240   1.899   1.132   7.846  1.4947  3.1438 -1.9713
 2227TIP3    H228241   1.874   1.211   7.973 -0.6063  1.6827 -1.4164
 2228TIP3   OH228242   0.604   2.351   8.266 -0.7318 -0.1413 -0.2616
 2228TIP3    H128243   0.696   2.370   8.248 -0.8803  0.6164 -0.2571
 2228TIP3    H228244   0.583   2.276   8.210  0.2827 -1.2929  0.8236
 2229TIP3   OH228245   3.558   6.057   1.234 -0.5363  0.1167 -0.4049
 2229TIP3    H128246   3.572   6.116   1.160 -1.4756 -0.7192 -1.2732
 2229TIP3    H228247   3.489   5.998   1.205  1.7530 -2.7879 -0.4158
 2230TIP3   OH228248   0.995   3.271   1.676  0.8433 -0.7797  0.5377
 2230TIP3    H128249   0.996   3.335   1.746  1.0719 -1.4219  1.1312
 2230TIP3    H228250   0.964   3.319   1.599  1.6570  0.1970  0.8051
 2231TIP3   OH228251   4.115   3.897   7.614 -0.3182 -0.2742 -0.1121
 2231TIP3    H128252   4.098   3.958   7.542  0.7095  0.2901  0.0985
 2231TIP3    H228253   4.096   3.948   7.693 -1.2701 -0.8353  0.0316
 2232TIP3   OH228254   4.342   4.165   7.633  0.7231 -0.2885 -0.1384
 2232TIP3    H128255   4.258   4.150   7.590  0.4208  1.0170 -0.0462
 2232TIP3    H228256   4.322   4.160   7.727  0.3325  1.8268 -0.0594
 2233TIP3   OH228257   1.207   4.845   0.710 -0.0827 -0.6494 -0.6854
 2233TIP3    H128258   1.238   4.761   0.676  3.6829  0.6751 -1.0097
 2233TIP3    H228259   1.225   4.907   0.640 -0.7708  0.7641  0.3483
 2234TIP3   OH228260   4.115   0.349   0.032 -0.3148  0.1712 -0.3145
 2234TIP3    H128261   4.140   0.273   0.084 -2.4520 -0.3069  0.0884
 2234TIP3    H228262   4.040   0.320  -0.020 -1.7885  2.2032  0.5330
 2235TIP3   OH228263   6.530   4.392   0.372  0.6531  0.2507 -0.0047
 2235TIP3    H128264   6.447   4.395   0.323  0.0888 -2.8334  0.5624
 2235TIP3    H228265   6.506   4.421   0.460  0.3826  0.3104 -0.0959
 2236TIP3   OH228266   3.228   5.987   7.933 -0.3582  0.1014  0.0807
 2236TIP3    H128267   3.147   5.961   7.890 -0.6764 -0.2790  0.8920
 2236TIP3    H228268   3.265   6.055   7.876 -2.1188  1.5623  0.6009
 2237TIP3   OH228269   3.489   1.758   8.319  0.1346 -0.1707  0.1848
 2237TIP3    H128270   3.563   1.801   8.276 -2.0098  4.1064  0.2764
 2237TIP3    H228271   3.501   1.776   8.412 -1.2302  1.0651  0.1512
 2238TIP3   OH228272   6.204   5.293   0.045 -0.7693  0.3504  0.6025
 2238TIP3    H128273   6.161   5.215   0.008 -1.2772 -0.0644  2.0166
 2238TIP3    H228274   6.293   5.289   0.010 -1.5655  0.7226 -1.6515
 2239TIP3   OH228275   2.639   5.178   7.026 -0.8256  0.2473  0.5442
 2239TIP3    H128276   2.610   5.103   7.078  1.1098 -0.4367  0.7239
 2239TIP3    H228277   2.726   5.154   6.996 -0.3832  2.2032  0.1149
 2240TIP3   OH228278   3.724   4.114   0.532 -0.1739  0.6678 -0.0508
 2240TIP3    H128279   3.749   4.024   0.510 -0.5128  0.3527  0.8303
 2240TIP3    H228280   3.630   4.110   0.547 -0.0314  0.9708  0.9671
 2241TIP3   OH228281   1.058   0.531   8.518  0.5476 -0.2294  0.5781
 2241TIP3    H128282   0.970   0.521   8.481  1.0087 -1.0798 -0.3355
 2241TIP3    H228283   1.108   0.575   8.449  0.2933  2.4298  1.9688
 2242TIP3   OH228284   1.747   4.367   0.158  0.6492  0.2741 -0.2795
 2242TIP3    H128285   1.670   4.334   0.110  0.9326  1.7270 -1.8134
 2242TIP3    H228286   1.781   4.290   0.203 -1.4588 -0.5008  0.1357
 2243TIP3   OH228287   3.507   6.385   1.344  0.8844 -0.4917 -0.5093
 2243TIP3    H128288   3.519   6.380   1.439  1.0813  2.0598 -0.3468
 2243TIP3    H228289   3.489   6.294   1.318  1.0302 -1.2938  1.9123
 2244TIP3   OH228290   5.689   6.638   0.868  0.8560 -0.1478  0.0878
 2244TIP3    H128291   5.775   6.676   0.891  0.6196 -0.5917  1.8152
 2244TIP3    H228292   5.626   6.703   0.899  0.4879 -1.3170  1.9146
 2245TIP3   OH228293   4.955   0.001   2.435 -0.0248  0.9286 -0.1466
 2245TIP3    H128294   4.993  -0.084   2.456  0.4049  0.8836 -1.0761
 2245TIP3    H228295   5.006   0.063   2.487  0.4376  0.7346 -0.3656
 2246TIP3   OH228296   6.122   6.069   7.314 -0.1931  0.3479 -0.1475
 2246TIP3    H128297   6.075   6.061   7.397  0.1645  1.0897  0.1302
 2246TIP3    H228298   6.214   6.054   7.336 -0.1274  0.2783 -0.4589
 2247TIP3   OH228299   0.167   2.421   8.191  0.6430  0.2894  0.0542
 2247TIP3    H128300   0.087   2.371   8.207  0.8859 -0.4284 -0.8981
 2247TIP3    H228301   0.160   2.496   8.250 -0.7737  0.2903 -0.0677
 2248TIP3   OH228302   5.553   0.722   7.994  0.1661  0.0355  0.0010
 2248TIP3    H128303   5.576   0.687   7.908 -1.5550  1.3489 -1.0572
 2248TIP3    H228304   5.627   0.698   8.050  0.1596 -3.2302 -1.1419
 2249TIP3   OH228305   3.186   3.755   8.594 -0.2916 -0.3718 -0.0408
 2249TIP3    H128306   3.241   3.724   8.667  0.4816 -0.5135 -0.6688
 2249TIP3    H228307   3.178   3.679   8.537  0.5315  0.1954 -0.9437
 2250TIP3   OH228308   5.207   1.164   0.423 -0.0241  0.4787  0.4228
 2250TIP3    H128309   5.136   1.217   0.387 -2.0831 -1.5802  1.1763
 2250TIP3    H228310   5.197   1.079   0.380  2.2698  0.2022  0.2956
 2251TIP3   OH228311   5.958   0.227   0.821  0.3552 -0.1626  0.2526
 2251TIP3    H128312   5.901   0.269   0.886 -0.6650 -1.8999  0.5514
 2251TIP3    H228313   5.922   0.253   0.737 -0.8468 -1.1107  0.4389
 2252TIP3   OH228314   1.160   6.750   1.697 -0.0048 -0.3617  0.6327
 2252TIP3    H128315   1.213   6.774   1.772  0.6205  1.5521 -0.3636
 2252TIP3    H228316   1.170   6.655   1.690  0.2528 -0.5199  2.6849
 2253TIP3   OH228317   1.733   5.286   7.521 -0.1830  0.2243 -0.0070
 2253TIP3    H128318   1.755   5.213   7.463  0.5339  1.2430 -1.0468
 2253TIP3    H228319   1.772   5.363   7.480 -2.5068  1.5347  0.0552
 2254TIP3   OH228320   2.039   6.260   8.746 -0.4842 -0.1135  0.0871
 2254TIP3    H128321   2.038   6.284   8.839  2.1394  1.2249 -0.1487
 2254TIP3    H228322   2.009   6.339   8.701 -1.9981 -0.8426 -0.2393
 2255TIP3   OH228323   1.165   4.895   1.185 -0.0504  0.1313  0.5511
 2255TIP3    H128324   1.085   4.910   1.236 -0.2392 -1.2427  0.6871
 2255TIP3    H228325   1.158   4.954   1.111 -0.7320  0.7102  1.0636
 2256TIP3   OH228326   2.307   3.302   1.547 -0.0594 -0.0925  0.0183
 2256TIP3    H128327   2.296   3.214   1.582  0.2091 -0.4905 -0.8870
 2256TIP3    H228328   2.241   3.309   1.478  0.1869  0.2746 -0.1816
 2257TIP3   OH228329   1.460   2.430   1.596 -0.0397 -0.4381  0.6524
 2257TIP3    H128330   1.368   2.405   1.596  0.1257 -1.2963 -1.4384
 2257TIP3    H228331   1.506   2.350   1.568  0.8858  1.0354 -2.4517
 2258TIP3   OH228332   2.273   0.431   1.176 -0.0442 -0.1558  0.2481
 2258TIP3    H128333   2.202   0.460   1.234 -0.4214 -0.1576 -0.2054
 2258TIP3    H228334   2.296   0.344   1.208  0.9977  0.5558  1.5326
 2259TIP3   OH228335   4.385   4.002   8.419 -0.1618  0.1260 -0.2127
 2259TIP3    H128336   4.350   4.052   8.345  0.4907  0.0636 -0.5733
 2259TIP3    H228337   4.476   4.032   8.428 -0.3638  0.4515  0.8578
 2260TIP3   OH228338   4.458   5.411   8.004 -0.1324  0.2469  0.0109
 2260TIP3    H128339   4.481   5.493   7.960 -1.2305  1.6281  1.8293
 2260TIP3    H228340   4.463   5.432   8.098 -0.6516 -1.7119  0.5208
 2261TIP3   OH228341   3.964   1.375   1.570 -0.0016  0.1235 -0.2647
 2261TIP3    H128342   3.974   1.362   1.665 -1.1001 -0.4835 -0.2018
 2261TIP3    H228343   3.977   1.288   1.533  0.9567  0.4605 -0.7353
 2262TIP3   OH228344   3.743   5.189   0.739 -0.0642  0.4900 -0.2642
 2262TIP3    H128345   3.686   5.251   0.692 -0.3008  0.4105 -0.0869
 2262TIP3    H228346   3.793   5.244   0.799  0.6151  0.6576 -0.9610
 2263TIP3   OH228347   4.580   4.055   2.395  0.0151 -0.4658 -1.0695
 2263TIP3    H128348   4.608   3.972   2.435  2.0205  0.4752 -0.3826
 2263TIP3    H228349   4.640   4.120   2.431 -1.0337  1.1789 -2.1751
 2264TIP3   OH228350   6.300   3.428   1.183  0.5131  0.5936 -0.5013
 2264TIP3    H128351   6.392   3.452   1.173  0.4009  1.0000 -0.5859
 2264TIP3    H228352   6.301   3.345   1.231  0.9657  0.0713 -1.3825
 2265TIP3   OH228353   1.915   4.615   7.088 -0.4388  0.1291  0.3626
 2265TIP3    H128354   1.952   4.701   7.107  0.2238 -0.5930  2.6585
 2265TIP3    H228355   1.822   4.622   7.109 -0.2288  0.0861  1.3356
 2266TIP3   OH228356   0.775   3.011   0.044  0.0560 -0.0614 -0.3001
 2266TIP3    H128357   0.768   2.974   0.131  0.4580 -1.3266 -0.7855
 2266TIP3    H228358   0.737   2.944  -0.014  0.9693  0.1954 -1.2230
 2267TIP3   OH228359   3.709   1.505   1.582 -0.4479 -0.0158  0.3140
 2267TIP3    H128360   3.804   1.521   1.581 -0.4668  0.0901 -0.1239
 2267TIP3    H228361   3.694   1.454   1.662 -0.2201  1.1566  1.1241
 2268TIP3   OH228362   2.922   3.798   8.654 -0.6153  0.4796 -0.1801
 2268TIP3    H128363   2.937   3.867   8.719  0.8662  1.3385 -1.3550
 2268TIP3    H228364   3.006   3.790   8.609 -1.4985 -0.3141 -1.7587
 2269TIP3   OH228365   6.678   2.503   1.391  0.3109 -0.0149 -0.3508
 2269TIP3    H128366   6.697   2.508   1.297  0.8524  1.6287 -0.1853
 2269TIP3    H228367   6.720   2.421   1.420  3.1775  1.1213 -0.9211
 2270TIP3   OH228368   3.942   1.414   8.565  0.2611  0.7439 -0.0603
 2270TIP3    H128369   3.911   1.502   8.542  3.2544  1.9077 -0.0982
 2270TIP3    H228370   3.996   1.387   8.491  0.6491 -0.4638  0.6393
 2271TIP3   OH228371   6.070   4.670   7.122  0.2669 -0.5754 -0.0627
 2271TIP3    H128372   6.060   4.627   7.037  0.1253 -1.5891  0.4534
 2271TIP3    H228373   5.981   4.690   7.150  0.0971 -2.5721  0.9917
 2272TIP3   OH228374   2.043   4.660   1.606 -0.2936  0.3465  0.1097
 2272TIP3    H128375   1.947   4.656   1.600 -0.3303  1.2130 -0.1470
 2272TIP3    H228376   2.069   4.706   1.526  0.4077 -0.6000 -0.2229
 2273TIP3   OH228377   6.429   4.454   7.627 -0.0191  0.4257 -0.4204
 2273TIP3    H128378   6.470   4.476   7.710  1.6994 -0.5050 -0.9588
 2273TIP3    H228379   6.408   4.539   7.587  0.3683  0.9126  0.3882
 2274TIP3   OH228380   6.339   3.544   7.935  0.1942  0.0414 -0.4263
 2274TIP3    H128381   6.415   3.548   7.876 -0.3942 -1.4471 -1.3492
 2274TIP3    H228382   6.294   3.463   7.910 -0.5647 -0.1887  1.4961
 2275TIP3   OH228383   6.264   1.744   8.664  0.3785 -0.1430 -0.4749
 2275TIP3    H128384   6.213   1.664   8.679  0.6200  0.0916  2.0299
 2275TIP3    H228385   6.200   1.815   8.665  0.4225 -0.1035 -0.4581
 2276TIP3   OH228386   5.590   4.238   2.202  0.0125  0.1883  0.0596
 2276TIP3    H128387   5.547   4.292   2.267 -0.7051  1.7301 -1.6287
 2276TIP3    H228388   5.568   4.278   2.118  1.7934 -1.0805 -1.0918
 2277TIP3   OH228389   0.733   1.323   0.084  0.5463 -0.3710  0.1377
 2277TIP3    H128390   0.760   1.275   0.005  0.9444  1.5165 -0.9148
 2277TIP3    H228391   0.670   1.265   0.127  0.3313 -1.4367 -1.5500
 2278TIP3   OH228392   5.827   1.812   0.067  0.4684 -0.2336 -0.0882
 2278TIP3    H128393   5.858   1.877   0.130 -0.6982  1.2007 -0.9416
 2278TIP3    H228394   5.802   1.863  -0.010  2.9150 -2.0200 -2.2183
 2279TIP3   OH228395   4.056   5.246   7.140  0.5530  0.0601 -0.6318
 2279TIP3    H128396   3.961   5.246   7.135  0.5501  1.2744 -0.7928
 2279TIP3    H228397   4.083   5.183   7.072 -0.1168  0.2543 -1.0887
 2280TIP3   OH228398   5.770   5.443   1.685 -0.1392  0.0273 -0.1945
 2280TIP3    H128399   5.836   5.435   1.615 -0.5819  0.9533 -0.7447
 2280TIP3    H228400   5.695   5.484   1.642 -0.1977  1.2036  0.9467
 2281TIP3   OH228401   0.622   1.546   7.227 -0.3884 -0.1088  0.4481
 2281TIP3    H128402   0.663   1.577   7.308 -1.5231 -1.0658  1.4405
 2281TIP3    H228403   0.694   1.539   7.164  0.7517 -0.5430  1.7478
 2282TIP3   OH228404   3.487   4.195   8.271  0.2756 -0.3498  0.7193
 2282TIP3    H128405   3.470   4.288   8.259 -0.2514 -0.7490 -2.0684
 2282TIP3    H228406   3.529   4.190   8.358 -0.8817  2.2746  1.5268
 2283TIP3   OH228407   1.212   6.223   8.774 -0.6547  0.1406 -0.0600
 2283TIP3    H128408   1.214   6.250   8.866 -0.0322 -0.8754  0.2381
 2283TIP3    H228409   1.272   6.149   8.769 -0.6674  0.1922 -1.2959
 2284TIP3   OH228410   4.351   2.780   2.365  0.6078 -0.0100  0.0514
 2284TIP3    H128411   4.291   2.850   2.340  0.9574  0.6751  1.0681
 2284TIP3    H228412   4.338   2.712   2.298 -3.8943 -1.4777  2.0125
 2285TIP3   OH228413   1.872   3.879   7.990  0.1004  0.2114  0.3570
 2285TIP3    H128414   1.852   3.876   8.083 -0.7261 -1.8437  0.1757
 2285TIP3    H228415   1.945   3.817   7.979 -2.1972 -2.5515 -0.7765
 2286TIP3   OH228416   2.501   0.929   7.998 -0.3326  0.0154  0.7353
 2286TIP3    H128417   2.482   0.869   8.071 -0.8735 -1.4063 -0.5309
 2286TIP3    H228418   2.420   0.978   7.986 -0.3840 -0.0481  0.8140
 2287TIP3   OH228419   4.865   0.917   8.100  0.5887 -0.4499  0.4991
 2287TIP3    H128420   4.920   0.855   8.051 -1.7226 -0.3552 -2.4853
 2287TIP3    H228421   4.788   0.867   8.125 -0.1475  0.5479  0.3058
 2288TIP3   OH228422   4.959   2.088   2.406 -0.5296  0.1750 -0.0039
 2288TIP3    H128423   4.996   2.008   2.445 -1.1922  0.0169  0.3064
 2288TIP3    H228424   4.972   2.155   2.473  1.5028  0.7477 -0.8725
 2289TIP3   OH228425   6.250   0.213   2.453 -0.1103  0.4736 -0.2776
 2289TIP3    H128426   6.154   0.220   2.447 -0.2687  1.6044  2.2166
 2289TIP3    H228427   6.266   0.121   2.476 -0.6534  0.4022 -0.1728
 2290TIP3   OH228428   5.741   0.097   0.673 -0.1234 -0.0002  0.3032
 2290TIP3    H128429   5.718   0.114   0.582 -0.5402 -0.1587  0.3763
 2290TIP3    H228430   5.783   0.011   0.672  2.5987  1.2489 -0.1654
 2291TIP3   OH228431   1.546   2.131   1.514 -0.0964 -0.2152 -0.3734
 2291TIP3    H128432   1.463   2.179   1.507  0.1318  0.1599 -0.5622
 2291TIP3    H228433   1.576   2.123   1.423  0.2949  0.0499 -0.2696
 2292TIP3   OH228434   0.871   1.508   7.090 -0.3595  0.1576  0.1103
 2292TIP3    H128435   0.908   1.585   7.134 -1.1685  1.7913 -1.9206
 2292TIP3    H228436   0.940   1.442   7.096  1.5173  1.9492 -0.4682
 2293TIP3   OH228437   5.560   6.720   2.909 -0.0337  0.6467  0.1980
 2293TIP3    H128438   5.619   6.795   2.909  1.5642 -0.5461  0.4906
 2293TIP3    H228439   5.475   6.755   2.936  0.4572  2.4696 -0.4928
 2294TIP3   OH228440   0.837   1.119   2.636 -0.2225  0.3123  0.0808
 2294TIP3    H128441   0.930   1.131   2.653  0.0314 -1.3062  0.0264
 2294TIP3    H228442   0.830   1.123   2.540 -0.4792  1.9850  0.1436
 2295TIP3   OH228443   0.435   4.933   1.133 -0.4061  0.0907 -0.9328
 2295TIP3    H128444   0.408   4.897   1.048 -0.1157 -0.9432 -0.6041
 2295TIP3    H228445   0.353   4.956   1.176 -0.5833  0.0651 -1.2508
 2296TIP3   OH228446   4.527   2.591   8.308 -0.0500  0.5809  0.2979
 2296TIP3    H128447   4.616   2.579   8.340 -0.1120 -0.4284  0.1346
 2296TIP3    H228448   4.533   2.661   8.244  0.6099  0.5909  0.3645
 2297TIP3   OH228449   3.492   4.480   8.276  0.4131 -0.2564  0.4564
 2297TIP3    H128450   3.422   4.472   8.341 -0.4982  0.1266 -0.4511
 2297TIP3    H228451   3.525   4.569   8.288  1.0407 -0.5683  1.1528
 2298TIP3   OH228452   0.519   0.912   1.594 -0.0759  0.7450 -0.0767
 2298TIP3    H128453   0.464   0.940   1.520 -0.0388  0.8390 -0.0686
 2298TIP3    H228454   0.555   0.828   1.566  0.6208  1.1844 -0.5237
 2299TIP3   OH228455   6.243   2.407   0.644 -0.3391 -0.2784 -0.2348
 2299TIP3    H128456   6.202   2.340   0.589  0.4107 -0.3476 -0.7184
 2299TIP3    H228457   6.289   2.358   0.712  0.2481 -0.2611 -0.6156
 2300TIP3   OH228458   6.203   3.868   2.683  0.1051 -0.2520 -0.0942
 2300TIP3    H128459   6.278   3.908   2.727  0.7576 -1.5946  0.0735
 2300TIP3    H228460   6.238   3.842   2.597 -0.2827 -0.5255 -0.1693
 2301TIP3   OH228461   4.322   1.632   0.074  0.0346 -0.6888 -0.3498
 2301TIP3    H128462   4.266   1.707   0.092  1.8503  0.7099 -0.2099
 2301TIP3    H228463   4.298   1.567   0.140  0.0448  0.6959  1.0715
 2302TIP3   OH228464   6.708   5.867   8.312 -0.9337 -0.5118  0.1596
 2302TIP3    H128465   6.621   5.906   8.317 -1.0395 -0.7172 -0.0943
 2302TIP3    H228466   6.694   5.779   8.276 -0.6811 -0.7367  0.5948
 2303TIP3   OH228467   1.732   5.045   0.436  0.0945 -0.2618  0.0028
 2303TIP3    H128468   1.781   5.078   0.361 -0.3563 -0.0462 -0.1986
 2303TIP3    H228469   1.799   5.013   0.497  0.4551 -4.0985 -2.0954
 2304TIP3   OH228470   1.970   0.710   2.477 -0.0861 -0.7682 -0.6026
 2304TIP3    H128471   2.007   0.744   2.559  3.9374 -0.2667 -2.3467
 2304TIP3    H228472   1.878   0.693   2.497 -0.0289  1.9852  3.1582
 2305TIP3   OH228473   4.033   0.854   1.831  0.3387 -0.0361 -0.4715
 2305TIP3    H128474   3.950   0.886   1.868  0.0136  0.4488 -1.5933
 2305TIP3    H228475   4.036   0.891   1.743  1.5841 -0.3474 -0.5748
 2306TIP3   OH228476   5.165   2.166   1.298  0.3153 -0.1899 -0.4220
 2306TIP3    H128477   5.070   2.154   1.295  0.4389 -1.1003 -1.0884
 2306TIP3    H228478   5.200   2.078   1.304  1.1640  0.0324 -1.7488
 2307TIP3   OH228479   0.912   0.663   1.847 -0.3007  0.0641 -0.7968
 2307TIP3    H128480   0.869   0.615   1.777  0.9612 -1.3191 -0.6806
 2307TIP3    H228481   0.915   0.753   1.816 -1.6327 -0.1267 -1.5741
 2308TIP3   OH228482   0.581   0.909   1.178 -0.0500  0.0230  0.5510
 2308TIP3    H128483   0.597   1.002   1.164  0.8302 -0.1961  0.0571
 2308TIP3    H228484   0.527   0.906   1.257 -0.6316  0.9808  0.2072
 2309TIP3   OH228485   2.253   6.223   7.192 -0.4663  0.2938 -0.1158
 2309TIP3    H128486   2.182   6.277   7.226  1.3021  2.5045  0.3154
 2309TIP3    H228487   2.296   6.187   7.270  0.6120  1.3862 -0.1616
 2310TIP3   OH228488   1.897   3.755   1.788  0.9023  0.0959 -0.5834
 2310TIP3    H128489   1.903   3.812   1.711  1.7095  0.2589 -0.4160
 2310TIP3    H228490   1.883   3.815   1.861 -2.1169 -0.1896 -0.8003
 2311TIP3   OH228491   1.999   5.211   8.662  0.1607 -0.0504 -0.0876
 2311TIP3    H128492   1.986   5.231   8.569  1.6652  0.2920 -0.2462
 2311TIP3    H228493   1.989   5.295   8.706 -3.1610 -0.5799  0.4453
 2312TIP3   OH228494   4.300   5.383   0.328  0.8098  0.8847 -0.0013
 2312TIP3    H128495   4.300   5.295   0.291 -3.3345  0.3505  0.7906
 2312TIP3    H228496   4.315   5.370   0.422  1.0304  1.1502  0.0037
 2313TIP3   OH228497   5.007   4.628   8.140  0.0512 -0.0290 -0.2411
 2313TIP3    H128498   5.081   4.568   8.130  1.1148  1.1512  0.1598
 2313TIP3    H228499   5.022   4.671   8.225  0.6746  2.4602 -1.4903
 2314TIP3   OH228500   2.652   1.725   8.579  0.6407  0.1823  0.1655
 2314TIP3    H128501   2.621   1.814   8.564  0.8048  0.0712 -0.8762
 2314TIP3    H228502   2.705   1.732   8.659 -0.6946  0.6763  1.0556
 2315TIP3   OH228503   6.294   3.248   3.051 -0.1261  0.5461  0.0829
 2315TIP3    H128504   6.211   3.207   3.074  1.1587 -1.7277  0.9661
 2315TIP3    H228505   6.282   3.341   3.073 -1.7174 -0.0918  2.2283
 2316TIP3   OH228506   6.593   1.419   1.418 -0.6075  0.6550  0.4784
 2316TIP3    H128507   6.535   1.487   1.454 -0.3401  0.4592  1.2920
 2316TIP3    H228508   6.670   1.420   1.474 -0.1569  0.3643 -0.1184
 2317TIP3   OH228509   5.288   2.920   8.612 -0.1643  0.3284 -0.7264
 2317TIP3    H128510   5.367   2.865   8.618  0.1423  0.8989  0.7905
 2317TIP3    H228511   5.320   3.009   8.628 -0.6589  1.0219 -3.1250
 2318TIP3   OH228512   6.727   1.962   2.989  0.2046  0.2039  0.0298
 2318TIP3    H128513   6.805   1.920   2.952 -0.0039  0.8931 -1.2766
 2318TIP3    H228514   6.656   1.900   2.972  0.6103 -0.9886  2.3257
 2319TIP3   OH228515   3.775   0.847   7.608 -0.6771  0.3157  0.1994
 2319TIP3    H128516   3.837   0.773   7.602 -1.3048 -0.1388 -1.2143
 2319TIP3    H228517   3.758   0.856   7.701  1.3866  0.3584  0.6364
 2320TIP3   OH228518   4.779   1.269   2.427  0.0350  0.0009 -0.4338
 2320TIP3    H128519   4.767   1.255   2.521  1.1804  1.0458 -0.1023
 2320TIP3    H228520   4.704   1.324   2.401  0.7661  1.3859  0.3087
 2321TIP3   OH228521   5.751   0.910   8.343  0.4460  0.3885  0.2645
 2321TIP3    H128522   5.780   0.913   8.252 -2.5288 -1.2179 -0.8733
 2321TIP3    H228523   5.669   0.958   8.344  0.6650  0.8052  2.2495
 2322TIP3   OH228524   2.182   6.543   0.278  0.7827  0.1721 -1.1557
 2322TIP3    H128525   2.147   6.455   0.261  2.4129 -0.3428 -2.0354
 2322TIP3    H228526   2.256   6.552   0.218  1.6882  1.5044  0.0809
 2323TIP3   OH228527   4.259   3.794   7.357 -0.2123 -0.6639  0.3681
 2323TIP3    H128528   4.173   3.783   7.398  0.9036 -1.9181  2.5872
 2323TIP3    H228529   4.262   3.887   7.333 -1.6423 -0.2395  1.6114
 2324TIP3   OH228530   4.434   1.173   1.004 -0.3502  0.1697 -0.3408
 2324TIP3    H128531   4.340   1.159   1.012 -0.0643 -0.9052  2.3405
 2324TIP3    H228532   4.443   1.252   0.951 -2.6476 -0.8320 -2.3754
 2325TIP3   OH228533   4.110   5.208   8.616 -0.2458 -0.4126 -0.2334
 2325TIP3    H128534   4.020   5.203   8.584 -0.1797 -0.0065 -0.4966
 2325TIP3    H228535   4.149   5.280   8.565  0.3025 -0.7613 -0.3160
 2326TIP3   OH228536   3.917   6.132   1.611  0.3350 -0.3937 -0.0053
 2326TIP3    H128537   3.897   6.222   1.635  0.5414 -0.0356 -1.0998
 2326TIP3    H228538   3.863   6.116   1.533 -1.1343 -1.8558  1.2475
 2327TIP3   OH228539   1.653   3.707   2.130 -0.4141 -0.7446 -0.1304
 2327TIP3    H128540   1.627   3.692   2.039 -0.2813  2.1696 -0.7576
 2327TIP3    H228541   1.744   3.738   2.125 -1.0517  1.4564  0.7199
 2328TIP3   OH228542   4.542   3.140   0.449 -0.1112  0.0705  0.1772
 2328TIP3    H128543   4.459   3.184   0.464 -0.2138  0.5361 -1.5842
 2328TIP3    H228544   4.587   3.145   0.534 -0.9253  1.8513  0.5597
 2329TIP3   OH228545   0.298   5.085   0.669  0.1839  0.3068  0.1975
 2329TIP3    H128546   0.332   4.997   0.654 -0.7743 -0.2773  1.2456
 2329TIP3    H228547   0.238   5.075   0.743 -1.1399  1.5600 -0.6581
 2330TIP3   OH228548   6.220   2.027   7.386  0.3498 -0.0854 -0.3598
 2330TIP3    H128549   6.149   2.090   7.398  1.1042  0.7069  0.0807
 2330TIP3    H228550   6.234   1.989   7.472 -0.1701 -0.9432 -0.6470
 2331TIP3   OH228551   0.740   5.313   2.702 -0.7194 -0.6062 -0.1122
 2331TIP3    H128552   0.818   5.261   2.682  0.8754  0.2840  3.2303
 2331TIP3    H228553   0.687   5.257   2.758 -0.7257  0.0928  0.5898
 2332TIP3   OH228554   3.732   2.334   7.694  0.0066  0.0902 -0.4784
 2332TIP3    H128555   3.775   2.249   7.706 -1.5636 -0.9313 -1.6782
 2332TIP3    H228556   3.693   2.329   7.607 -1.3020  1.4995 -0.0236
 2333TIP3   OH228557   2.105   3.389   7.796 -0.4590  0.1080 -0.0327
 2333TIP3    H128558   2.163   3.376   7.721  0.8249  1.3959  0.6802
 2333TIP3    H228559   2.126   3.317   7.856 -0.9964 -0.5213 -0.5734
 2334TIP3   OH228560   1.858   2.833   1.618  0.3906  0.2823 -0.3754
 2334TIP3    H128561   1.953   2.820   1.612  0.0650 -1.9135 -1.5622
 2334TIP3    H228562   1.820   2.751   1.588 -1.9162  0.6349  1.2881
 2335TIP3   OH228563   5.307   0.152   1.281 -0.1653  0.1418  0.2770
 2335TIP3    H128564   5.302   0.246   1.267  0.1968  0.2914  1.1012
 2335TIP3    H228565   5.366   0.121   1.213  0.3967  0.6368  0.5312
 2336TIP3   OH228566   5.526   5.224   0.785 -0.0610 -0.2433  0.4182
 2336TIP3    H128567   5.602   5.274   0.816 -1.6230  1.9676  0.9388
 2336TIP3    H228568   5.547   5.133   0.807  1.8746  0.4382  1.6882
 2337TIP3   OH228569   4.239   1.590   8.523 -0.1168 -0.4472 -0.3787
 2337TIP3    H128570   4.246   1.558   8.434 -2.8186 -0.6095 -0.6122
 2337TIP3    H228571   4.242   1.512   8.578 -0.0240 -0.4934 -0.4510
 2338TIP3   OH228572   3.776   4.660   1.128  0.1126  0.2526 -0.2618
 2338TIP3    H128573   3.801   4.712   1.052  0.7099 -0.4819 -0.5840
 2338TIP3    H228574   3.713   4.596   1.095  1.1291 -0.7206 -0.3689
 2339TIP3   OH228575   2.239   6.609   2.584  0.1788  0.1697  0.1155
 2339TIP3    H128576   2.182   6.625   2.659 -0.3660  0.3298 -0.3251
 2339TIP3    H228577   2.327   6.598   2.622 -0.2821 -0.9888  0.8781
 2340TIP3   OH228578   2.096   5.975   2.299  0.0328 -0.3344  0.4522
 2340TIP3    H128579   2.034   5.922   2.349 -1.8019  0.5814 -0.7400
 2340TIP3    H228580   2.138   5.913   2.239 -0.1967 -0.8644  0.8364
 2341TIP3   OH228581   0.231   5.978   8.479 -0.2682 -0.3375 -0.1181
 2341TIP3    H128582   0.261   5.902   8.430  1.0067 -0.7378  1.2360
 2341TIP3    H228583   0.168   5.943   8.542 -1.0381  0.0132 -0.6691
 2342TIP3   OH228584   5.703   0.258   7.410  0.0469  0.5567  0.1980
 2342TIP3    H128585   5.696   0.218   7.323  0.5145 -0.2026  0.4942
 2342TIP3    H228586   5.788   0.229   7.443 -1.4150 -1.9357  2.2086
 2343TIP3   OH228587   1.860   3.491   0.637 -0.1598  0.0117  0.0375
 2343TIP3    H128588   1.902   3.416   0.678 -1.2416 -0.8110 -0.3019
 2343TIP3    H228589   1.768   3.484   0.664 -0.5690  0.3744 -1.1901
 2344TIP3   OH228590   0.038   4.579   1.231  0.0502 -0.0634 -1.6252
 2344TIP3    H128591   0.120   4.582   1.183  1.0532  1.0194  0.0268
 2344TIP3    H228592   0.016   4.486   1.238  1.9067 -0.4900 -0.9177
 2345TIP3   OH228593   1.711   1.146   1.529 -0.0389  0.2327  0.3432
 2345TIP3    H128594   1.691   1.073   1.469  1.2103  0.8351 -0.8620
 2345TIP3    H228595   1.732   1.219   1.471  0.9315  0.9228  1.5183
 2346TIP3   OH228596   5.272   6.105   1.538 -0.1753 -0.1633 -0.6531
 2346TIP3    H128597   5.252   6.198   1.553  1.1236  0.0167  0.1206
 2346TIP3    H228598   5.199   6.073   1.486 -0.2128  1.5264 -1.7350
 2347TIP3   OH228599   3.427   3.190   8.213 -0.0155 -0.2930 -0.2246
 2347TIP3    H128600   3.454   3.157   8.128  0.2191 -0.5038 -0.0707
 2347TIP3    H228601   3.488   3.261   8.232 -1.0614  0.8563 -0.9564
 2348TIP3   OH228602   4.210   4.776   7.632 -0.2018  0.3147 -0.2137
 2348TIP3    H128603   4.209   4.789   7.727  0.5537 -0.2148 -0.1255
 2348TIP3    H228604   4.117   4.775   7.607 -0.4075  0.4263  0.5216
 2349TIP3   OH228605   0.974   4.199   3.045 -0.6752  0.3868  0.1259
 2349TIP3    H128606   0.918   4.181   3.121 -0.4283 -1.3450 -0.0503
 2349TIP3    H228607   1.005   4.113   3.018 -0.0481  1.0625 -1.4102
 2350TIP3   OH228608   4.552   5.527   0.924  0.0381 -0.4390  0.2911
 2350TIP3    H128609   4.573   5.477   0.845 -1.9740  0.0400 -0.6019
 2350TIP3    H228610   4.534   5.459   0.990 -1.2511 -0.9430 -0.5219
 2351TIP3   OH228611   4.660   0.635   0.544 -0.3823 -0.4667 -0.2457
 2351TIP3    H128612   4.629   0.666   0.629 -1.3946  0.0393 -0.7862
 2351TIP3    H228613   4.672   0.541   0.556 -3.1349 -0.9076 -0.2455
 2352TIP3   OH228614   3.697   6.789   7.660 -0.5055  0.2013  0.5239
 2352TIP3    H128615   3.665   6.858   7.717  1.0441 -0.1274  1.8801
 2352TIP3    H228616   3.777   6.824   7.621  0.1476 -0.6778  1.0125
 2353TIP3   OH228617   6.349   2.630   8.562 -0.1117 -0.3275 -0.6780
 2353TIP3    H128618   6.297   2.554   8.535 -1.0312  0.5326 -1.3921
 2353TIP3    H228619   6.288   2.683   8.613 -0.0073  0.7699 -1.6535
 2354TIP3   OH228620   4.804   0.497   1.618 -0.4119  0.4271  0.2583
 2354TIP3    H128621   4.844   0.573   1.575 -2.0327  1.1707 -0.0052
 2354TIP3    H228622   4.715   0.494   1.584 -0.6300 -1.1256  0.8848
 2355TIP3   OH228623   1.424   6.202   2.768  0.0147  0.0629  0.5562
 2355TIP3    H128624   1.495   6.246   2.814  0.7326 -1.6543  1.1476
 2355TIP3    H228625   1.467   6.154   2.698 -0.7052 -0.0695  0.1927
 2356TIP3   OH228626   1.223   5.479   1.719  0.3235 -0.1456  0.2608
 2356TIP3    H128627   1.260   5.391   1.727 -1.5508 -1.0094 -0.1149
 2356TIP3    H228628   1.224   5.496   1.625  1.8073  0.7930  0.4048
 2357TIP3   OH228629   4.375   2.515   2.163 -0.1065 -0.5748  0.2962
 2357TIP3    H128630   4.412   2.439   2.208  2.3333 -0.6526 -1.6356
 2357TIP3    H228631   4.346   2.480   2.078  0.0631  0.4591 -0.1988
 2358TIP3   OH228632   2.560   5.197   7.991 -0.1041  0.8291 -0.2254
 2358TIP3    H128633   2.600   5.242   7.916  2.0988  0.9930  0.9593
 2358TIP3    H228634   2.623   5.210   8.062 -1.8623  0.1996  1.5130
 2359TIP3   OH228635   2.526   1.850   1.166  0.1912 -0.2807 -0.0367
 2359TIP3    H128636   2.543   1.767   1.209  0.4135 -0.8956 -1.2777
 2359TIP3    H228637   2.536   1.832   1.073 -0.2073  1.0292 -0.3595
 2360TIP3   OH228638   3.603   5.596   7.599  0.0531 -0.1016 -0.4100
 2360TIP3    H128639   3.650   5.638   7.527 -1.8981  1.6272 -0.7723
 2360TIP3    H228640   3.644   5.510   7.608  2.7530  1.0314 -1.1212
 2361TIP3   OH228641   4.368   2.682   0.655  0.4877 -0.1909  0.7339
 2361TIP3    H128642   4.311   2.759   0.649 -0.4134 -0.7228  1.9196
 2361TIP3    H228643   4.352   2.648   0.743  2.8139 -0.2498  1.1971
 2362TIP3   OH228644   2.974   4.169   1.990 -0.1199 -0.3214  0.2157
 2362TIP3    H128645   2.885   4.192   1.963  0.1073  0.1884 -0.0918
 2362TIP3    H228646   2.966   4.079   2.023 -0.4975 -0.7705 -1.0707
 2363TIP3   OH228647   3.141   1.016   2.513  0.1460 -0.2032  0.3932
 2363TIP3    H128648   3.173   0.982   2.596  1.3171  1.2938  0.6043
 2363TIP3    H228649   3.046   1.025   2.526  0.2429 -0.4730  1.3744
 2364TIP3   OH228650   6.354   0.917   0.379  0.2859 -0.0090 -0.0005
 2364TIP3    H128651   6.340   0.874   0.294  1.9558 -0.1295 -0.2574
 2364TIP3    H228652   6.428   0.869   0.417 -0.7150 -0.2369  1.7375
 2365TIP3   OH228653   5.413   3.149   8.090 -0.2058 -0.1341 -0.1745
 2365TIP3    H128654   5.389   3.195   8.170  2.0455 -0.1831  0.6002
 2365TIP3    H228655   5.470   3.210   8.044  1.6525 -1.5219  0.1752
 2366TIP3   OH228656   6.275   6.168   0.483 -0.3737 -0.4324  0.0989
 2366TIP3    H128657   6.300   6.077   0.463 -0.3176 -0.6129  0.9481
 2366TIP3    H228658   6.207   6.188   0.419 -0.5606 -1.1612  0.0547
 2367TIP3   OH228659   1.249   4.568   0.670  0.5272 -0.3187 -0.3038
 2367TIP3    H128660   1.325   4.554   0.727  2.7364 -0.1680 -2.9814
 2367TIP3    H228661   1.264   4.508   0.597 -0.9250  1.1184 -1.8431
 2368TIP3   OH228662   4.326   6.158   7.479 -0.3129 -0.2495 -0.0010
 2368TIP3    H128663   4.350   6.226   7.542 -1.0264  0.3158 -0.3207
 2368TIP3    H228664   4.351   6.192   7.394 -0.3651 -0.5315 -0.1335
 2369TIP3   OH228665   1.271   5.287   1.400 -0.4505 -0.1252  0.1613
 2369TIP3    H128666   1.310   5.200   1.390 -0.6593 -0.1502 -0.4864
 2369TIP3    H228667   1.322   5.343   1.343 -0.9358 -0.0258 -0.1819
 2370TIP3   OH228668   0.278   2.851   0.340 -0.1861 -0.1161  0.2508
 2370TIP3    H128669   0.193   2.896   0.339  1.0575  2.5359 -2.2266
 2370TIP3    H228670   0.262   2.769   0.295 -1.0561  1.5218 -2.7357
 2371TIP3   OH228671   1.567   2.778   8.025  0.3821 -0.2779  0.1836
 2371TIP3    H128672   1.508   2.828   7.967 -1.1061 -1.9171  0.2022
 2371TIP3    H228673   1.618   2.723   7.965 -0.0767 -0.8591  0.3156
 2372TIP3   OH228674   5.101   2.830   1.094 -0.4901 -0.6424 -1.1561
 2372TIP3    H128675   5.143   2.902   1.140 -1.0651 -1.1161  0.1367
 2372TIP3    H228676   5.129   2.841   1.003  2.3527 -0.8669 -0.4027
 2373TIP3   OH228677   6.089   1.126   7.166 -0.4923 -0.6045  0.0557
 2373TIP3    H128678   6.005   1.082   7.180 -0.6325 -0.1438  0.6996
 2373TIP3    H228679   6.065   1.213   7.136 -0.2305 -0.6569 -0.3130
 2374TIP3   OH228680   3.158   4.837   0.862 -0.1904  0.4104 -0.4641
 2374TIP3    H128681   3.205   4.754   0.869  0.1758  0.7653  2.2846
 2374TIP3    H228682   3.066   4.813   0.870 -0.2595  0.0998 -1.9180
 2375TIP3   OH228683   6.454   3.536   2.273 -0.4301 -0.8325  0.2936
 2375TIP3    H128684   6.519   3.597   2.307 -2.7762  0.8010  2.2233
 2375TIP3    H228685   6.399   3.588   2.215 -2.7130 -0.8144  2.2659
 2376TIP3   OH228686   1.268   4.189   0.508 -0.3963  0.3172  0.1964
 2376TIP3    H128687   1.276   4.096   0.531  1.2918  0.6569  1.1457
 2376TIP3    H228688   1.295   4.236   0.586  1.3862  1.5668 -1.0805
 2377TIP3   OH228689   2.778   3.449   1.013  0.0189  0.1449 -0.6847
 2377TIP3    H128690   2.872   3.436   1.028 -0.0703  0.8753  0.7795
 2377TIP3    H228691   2.736   3.384   1.069 -0.3385  1.1311  0.2342
 2378TIP3   OH228692   4.551   4.105   0.286 -0.4981  0.2696 -0.3696
 2378TIP3    H128693   4.605   4.134   0.212  1.1782  0.7192  0.9868
 2378TIP3    H228694   4.501   4.182   0.311 -1.5947 -0.0611 -1.4165
 2379TIP3   OH228695   5.053   0.017   7.613  0.2125 -0.7511  0.1960
 2379TIP3    H128696   5.026  -0.012   7.525  2.4196 -0.3528 -0.6750
 2379TIP3    H228697   5.132   0.069   7.598  0.5868 -0.5876  2.4258
 2380TIP3   OH228698   1.642   1.234   0.607  0.0458 -0.1250  0.4645
 2380TIP3    H128699   1.684   1.197   0.529 -2.2801 -2.9455  0.3568
 2380TIP3    H228700   1.605   1.317   0.577  1.5478  0.2068 -0.6078
 2381TIP3   OH228701   5.648   1.045   2.301  0.7133  0.6281  0.3265
 2381TIP3    H128702   5.602   1.000   2.372  0.4489  0.4580  0.0546
 2381TIP3    H228703   5.741   1.037   2.323  0.7872 -1.3768 -0.4492
 2382TIP3   OH228704   5.278   6.629   0.649 -0.2543  0.0426 -0.0653
 2382TIP3    H128705   5.225   6.619   0.569  1.0209 -0.3572 -0.8964
 2382TIP3    H228706   5.348   6.565   0.639 -0.5585 -0.6332  1.8245
 2383TIP3   OH228707   1.477   4.793   7.219 -0.0179  0.3916 -0.0740
 2383TIP3    H128708   1.425   4.792   7.139  0.6090 -1.1625 -0.5004
 2383TIP3    H228709   1.537   4.719   7.210  0.2285  0.3185  1.7293
 2384TIP3   OH228710   2.175   4.548   1.986 -0.0024  0.1604  0.2123
 2384TIP3    H128711   2.254   4.579   2.029 -0.5158  0.3033  1.0640
 2384TIP3    H228712   2.103   4.588   2.035 -0.6230 -0.6211 -0.0405
 2385TIP3   OH228713   3.014   4.400   2.787  0.6667  0.2162 -0.0902
 2385TIP3    H128714   3.077   4.328   2.795  0.1265 -0.2589 -0.0002
 2385TIP3    H228715   3.035   4.458   2.860  0.7725 -0.1220  0.1534
 2386TIP3   OH228716   5.182   6.690   6.560 -0.5423 -0.0173 -0.3669
 2386TIP3    H128717   5.149   6.666   6.473  0.2367  0.1607 -0.7222
 2386TIP3    H228718   5.259   6.634   6.573 -1.2523 -0.7844  0.6604
 2387TIP3   OH228719   1.153   5.636   1.430 -0.6857 -0.1295 -0.0501
 2387TIP3    H128720   1.190   5.716   1.467 -0.5070 -0.9533  1.6573
 2387TIP3    H228721   1.096   5.602   1.499  0.6047 -2.3810  0.0107
 2388TIP3   OH228722   2.335   6.554   8.248 -0.3851 -0.1203 -0.3037
 2388TIP3    H128723   2.338   6.585   8.158  0.3600 -0.3275 -0.3611
 2388TIP3    H228724   2.304   6.463   8.241 -0.9444  0.0670 -0.2887
 2389TIP3   OH228725   2.233   0.099   2.639 -0.2895  0.2250  0.2216
 2389TIP3    H128726   2.222   0.192   2.658 -2.1327 -0.3136  2.2789
 2389TIP3    H228727   2.221   0.056   2.724  1.8371 -1.8414 -0.4125
 2390TIP3   OH228728   1.812   4.200   7.942 -0.3693  0.4032 -0.3829
 2390TIP3    H128729   1.761   4.214   8.022 -0.3250 -0.7923 -0.1271
 2390TIP3    H228730   1.900   4.179   7.973 -0.2559  0.3195 -0.7607
 2391TIP3   OH228731   6.476   4.779   8.453 -0.2366  0.0404  0.2189
 2391TIP3    H128732   6.427   4.755   8.532  0.2769  1.0749  0.8739
 2391TIP3    H228733   6.547   4.715   8.449 -0.7389 -0.5252  0.1216
 2392TIP3   OH228734   2.258   2.459   2.107  0.0741  0.6722  0.4059
 2392TIP3    H128735   2.227   2.369   2.120 -0.9815  1.0587  0.6656
 2392TIP3    H228736   2.226   2.483   2.021 -0.7167  1.2115  0.8378
 2393TIP3   OH228737   0.545   0.505   8.134  0.1129 -0.0655 -0.3293
 2393TIP3    H128738   0.548   0.463   8.219 -1.2640  1.0158  0.2881
 2393TIP3    H228739   0.626   0.555   8.128 -1.0498  2.2355  1.6675
 2394TIP3   OH228740   0.805   4.616   8.278  0.1289  0.0267 -0.2681
 2394TIP3    H128741   0.759   4.553   8.223  2.2052 -1.8384 -0.0323
 2394TIP3    H228742   0.888   4.573   8.299  1.7461  2.8993 -0.1723
 2395TIP3   OH228743   6.078   0.538   0.791 -0.0758 -0.1675 -0.1706
 2395TIP3    H128744   6.037   0.543   0.877  1.3328 -3.7164  0.8848
 2395TIP3    H228745   6.008   0.511   0.732 -0.5169 -0.1901  0.3598
 2396TIP3   OH228746   6.770   4.650   7.596 -0.3572 -0.0118  0.1241
 2396TIP3    H128747   6.700   4.701   7.554  0.3813 -0.5423 -1.8635
 2396TIP3    H228748   6.830   4.629   7.525  1.3677 -0.3679  1.6236
 2397TIP3   OH228749   2.835   2.944   0.308  0.1184  0.2925  0.2677
 2397TIP3    H128750   2.880   2.903   0.235  1.1292  0.2440  0.9080
 2397TIP3    H228751   2.834   3.038   0.287 -0.8737  0.1312 -0.4785
 2398TIP3   OH228752   3.720   5.393   8.241 -0.2063 -0.0738  0.0754
 2398TIP3    H128753   3.726   5.485   8.268 -1.0470  0.3159 -1.0049
 2398TIP3    H228754   3.737   5.394   8.147  0.6274 -1.1534  0.1864
 2399TIP3   OH228755   6.135   0.401   8.747  0.7667 -0.7718  0.2703
 2399TIP3    H128756   6.041   0.383   8.751  0.7488 -0.4988  2.2633
 2399TIP3    H228757   6.177   0.319   8.773  0.9617 -0.2880  1.5779
 2400TIP3   OH228758   3.782   4.793   7.363  0.4199 -0.4434  0.3020
 2400TIP3    H128759   3.741   4.789   7.276  0.4674  3.1053 -0.0550
 2400TIP3    H228760   3.719   4.751   7.421 -2.1205  1.5220 -0.7903
 2401TIP3   OH228761   0.484   2.978   1.170  0.0054  0.1577 -0.3069
 2401TIP3    H128762   0.424   3.011   1.102 -3.1108  0.2366  2.2525
 2401TIP3    H228763   0.502   2.888   1.144 -1.2577  0.1263 -1.1525
 2402TIP3   OH228764   2.575   6.690   8.387 -0.5398 -0.5805  0.3610
 2402TIP3    H128765   2.521   6.718   8.461 -0.3870 -0.0815  0.2895
 2402TIP3    H228766   2.521   6.627   8.340 -0.9978 -0.2119  0.3847
 2403TIP3   OH228767   0.378   4.668   7.452  0.4528  0.1556 -0.2531
 2403TIP3    H128768   0.397   4.610   7.526 -0.2911  1.4482  0.9835
 2403TIP3    H228769   0.303   4.720   7.480 -0.1485  0.3642 -2.1130
 2404TIP3   OH228770   1.184   4.359   0.320  0.1496  0.4039  0.4506
 2404TIP3    H128771   1.212   4.302   0.392 -0.1676 -2.5513 -1.5702
 2404TIP3    H228772   1.264   4.400   0.289  0.5421  0.3843  1.4065
 2405TIP3   OH228773   4.993   0.384   0.413  0.4644  0.1143 -0.3902
 2405TIP3    H128774   5.028   0.394   0.502  0.2020  2.3575 -0.4869
 2405TIP3    H228775   4.905   0.348   0.426 -0.4909  2.5122  0.5257
 2406TIP3   OH228776   1.951   3.089   1.539  0.7206 -0.4805 -0.2080
 2406TIP3    H128777   1.918   3.004   1.569  0.2973  0.2350  1.4652
 2406TIP3    H228778   2.014   3.115   1.606  0.1924  0.9312 -0.2184
 2407TIP3   OH228779   4.256   5.237   7.591  0.0683  0.9253  1.0382
 2407TIP3    H128780   4.349   5.223   7.569  0.0890  0.4140  1.4344
 2407TIP3    H228781   4.253   5.234   7.686 -0.5319 -0.2123  0.9927
 2408TIP3   OH228782   3.781   6.755   8.039  0.6040 -0.1421  0.1584
 2408TIP3    H128783   3.840   6.828   8.019 -1.3981  1.5836  0.1836
 2408TIP3    H228784   3.731   6.742   7.959  0.6739 -1.2479  0.2817
 2409TIP3   OH228785   4.654   2.441   8.658 -0.5731 -0.1796 -0.3442
 2409TIP3    H128786   4.725   2.378   8.670  1.1176  1.4271 -1.3409
 2409TIP3    H228787   4.619   2.422   8.572 -0.2394  0.0553 -0.5341
 2410TIP3   OH228788   4.983   0.590   8.321  0.1512 -0.0132  0.4895
 2410TIP3    H128789   4.888   0.577   8.317  0.0549  0.9508 -1.3756
 2410TIP3    H228790   5.016   0.513   8.366 -1.6072  0.1761  2.2615
 2411TIP3   OH228791   5.898   0.408   2.623 -0.5254  0.2248  0.3764
 2411TIP3    H128792   5.919   0.337   2.684  0.9836 -1.3989 -1.8619
 2411TIP3    H228793   5.876   0.363   2.541  0.6872  2.3276 -1.1991
 2412TIP3   OH228794   5.465   4.222   8.095 -0.3557 -0.1171 -0.0738
 2412TIP3    H128795   5.386   4.232   8.149  0.9317 -1.4340  2.1965
 2412TIP3    H228796   5.491   4.131   8.106  0.4310 -0.2399 -2.3805
 2413TIP3   OH228797   3.445   6.042   2.058 -0.2440 -1.0111 -0.3209
 2413TIP3    H128798   3.519   6.021   2.001 -0.0141  0.6423 -0.6824
 2413TIP3    H228799   3.394   6.107   2.009  0.6188  1.3986  1.7375
 2414TIP3   OH228800   2.893   5.773   0.202  0.3498 -0.1228  0.2134
 2414TIP3    H128801   2.801   5.751   0.191  0.4712 -0.2273 -0.6839
 2414TIP3    H228802   2.905   5.779   0.296 -0.5330 -0.2830  0.3465
 2415TIP3   OH228803   5.024   4.422   0.920  0.0395 -0.3169  0.0293
 2415TIP3    H128804   5.006   4.515   0.913  0.1559 -0.2577  0.4649
 2415TIP3    H228805   4.942   4.379   0.895  0.5717 -0.1656 -2.2259
 2416TIP3   OH228806   4.851   5.824   7.676 -0.0412  0.0993 -0.1779
 2416TIP3    H128807   4.834   5.842   7.584 -1.5118 -0.7426 -0.1006
 2416TIP3    H228808   4.765   5.802   7.713  0.8863 -2.2312  0.7853
 2417TIP3   OH228809   1.182   1.801   1.151  0.3880 -0.4636  0.7565
 2417TIP3    H128810   1.261   1.749   1.139  0.6078 -0.2390  1.2069
 2417TIP3    H228811   1.155   1.824   1.062 -1.1644 -3.4583  0.3110
 2418TIP3   OH228812   4.067   4.524   8.719  0.3219  0.1177  0.6445
 2418TIP3    H128813   3.984   4.480   8.739  0.5032 -1.1002 -1.1213
 2418TIP3    H228814   4.134   4.457   8.735  0.6771 -0.0007 -1.1130
 2419TIP3   OH228815   2.257   4.634   8.052 -0.3015 -0.7420 -1.0464
 2419TIP3    H128816   2.206   4.636   7.971  1.3115 -1.8913 -2.1709
 2419TIP3    H228817   2.241   4.547   8.088 -3.2635  0.7000  1.5074
 2420TIP3   OH228818   5.325   6.816   1.520 -0.0619  0.0257 -0.7533
 2420TIP3    H128819   5.330   6.876   1.446 -2.1350  0.6181 -0.4743
 2420TIP3    H228820   5.315   6.873   1.596  1.9185 -0.5745  0.0242
 2421TIP3   OH228821   2.999   5.118   1.171  0.3229 -0.0394 -0.9609
 2421TIP3    H128822   3.028   5.030   1.197 -1.8092 -0.6582 -0.4965
 2421TIP3    H228823   2.910   5.106   1.139 -0.1309  2.0050 -0.6208
 2422TIP3   OH228824   4.811   6.349   7.310  0.0703  0.1967  0.1653
 2422TIP3    H128825   4.832   6.303   7.229 -0.9779 -0.6756  0.3663
 2422TIP3    H228826   4.730   6.397   7.290  0.1993  0.5572  0.4884
 2423TIP3   OH228827   4.706   2.834   7.218 -0.0198  0.5049 -0.3749
 2423TIP3    H128828   4.766   2.760   7.224 -0.9121 -0.1446  1.0352
 2423TIP3    H228829   4.625   2.797   7.182 -1.4520  0.0648  2.9460
 2424TIP3   OH228830   5.234   4.466   8.132  0.6889  0.0049  0.0825
 2424TIP3    H128831   5.204   4.383   8.169  1.1785  0.3910  1.3895
 2424TIP3    H228832   5.303   4.495   8.191  1.5070  0.6632 -1.1417
 2425TIP3   OH228833   6.415   2.651   2.074  0.5797  0.1933  0.2614
 2425TIP3    H128834   6.382   2.593   2.005  1.1931 -0.6044  0.6106
 2425TIP3    H228835   6.413   2.738   2.036 -3.3099  0.4876  0.7375
 2426TIP3   OH228836   0.810   4.764   2.331  0.2322  0.1148 -0.6435
 2426TIP3    H128837   0.783   4.803   2.247 -0.4061  0.8993 -0.0910
 2426TIP3    H228838   0.888   4.713   2.309 -1.1353 -1.4942 -2.1304
 2427TIP3   OH228839   6.592   4.339   1.469 -1.0156 -0.0844 -0.4956
 2427TIP3    H128840   6.622   4.291   1.391 -1.2908 -0.7546 -0.1898
 2427TIP3    H228841   6.515   4.291   1.499  0.3834 -1.2109  1.5255
 2428TIP3   OH228842   3.869   3.326   7.472  0.9357  0.2111  0.2367
 2428TIP3    H128843   3.831   3.261   7.531  0.3103  1.1669  0.9115
 2428TIP3    H228844   3.845   3.296   7.384 -1.4964  0.7895  0.6174
 2429TIP3   OH228845   2.115   1.797   1.155  0.0638 -0.2419  0.6049
 2429TIP3    H128846   2.136   1.723   1.211  0.8605  0.4564  1.2480
 2429TIP3    H228847   2.030   1.775   1.117  0.3496 -1.5375  0.6822
 2430TIP3   OH228848   1.809   3.082   8.602  0.3027 -0.5569 -0.0728
 2430TIP3    H128849   1.822   3.084   8.697 -0.9540 -1.4666  0.1459
 2430TIP3    H228850   1.897   3.086   8.565  0.8378 -0.7932  1.1395
 2431TIP3   OH228851   3.569   6.252   1.028  0.7031  0.3132 -0.2006
 2431TIP3    H128852   3.652   6.299   1.020  0.7014  0.4532  0.5139
 2431TIP3    H228853   3.553   6.214   0.941  1.0483  1.0585 -0.5885
 2432TIP3   OH228854   4.811   2.870   8.166  0.3644 -0.0735 -0.1770
 2432TIP3    H128855   4.766   2.880   8.083 -0.0408 -0.2592  0.0203
 2432TIP3    H228856   4.767   2.796   8.209 -0.0856  0.6516  0.6295
 2433TIP3   OH228857   5.237   5.284   0.717  0.0455 -0.1089  0.4160
 2433TIP3    H128858   5.216   5.257   0.627  0.4798  1.6059 -0.2353
 2433TIP3    H228859   5.333   5.289   0.719 -0.0027  2.6059  0.0504
 2434TIP3   OH228860   2.001   2.662   1.379 -0.5807  0.1832  0.7641
 2434TIP3    H128861   2.042   2.747   1.400 -2.2332  0.9075  1.2411
 2434TIP3    H228862   2.010   2.654   1.284 -2.4644  2.0884  0.3393
 2435TIP3   OH228863   2.629   1.185   0.567 -0.0382  0.3132  0.9147
 2435TIP3    H128864   2.701   1.136   0.606  0.7601  2.0043  1.6779
 2435TIP3    H228865   2.638   1.172   0.473  1.1114  0.2939  1.0241
 2436TIP3   OH228866   1.929   1.991   2.188  0.1818 -0.4136  0.4964
 2436TIP3    H128867   1.975   1.975   2.270  0.1547 -1.8425  0.2672
 2436TIP3    H228868   1.864   1.920   2.183  0.1803 -0.3461 -0.7370
 2437TIP3   OH228869   2.447   2.533   0.718  0.3864  0.2467 -0.2825
 2437TIP3    H128870   2.404   2.618   0.707 -2.1104 -0.9291 -0.3379
 2437TIP3    H228871   2.468   2.505   0.629 -1.1009 -0.2715 -0.4905
 2438TIP3   OH228872   0.285   4.346   2.448 -0.3111 -0.3585  0.0764
 2438TIP3    H128873   0.341   4.309   2.380  3.6291  2.2115  1.5489
 2438TIP3    H228874   0.262   4.433   2.416 -1.1776 -0.3730  0.6384
 2439TIP3   OH228875   1.884   1.510   8.486 -0.7679  0.6560 -0.5513
 2439TIP3    H128876   1.928   1.483   8.567 -0.9037 -3.6587 -1.6355
 2439TIP3    H228877   1.954   1.540   8.429 -0.0229 -0.4803 -0.2681
 2440TIP3   OH228878   5.552   2.625   0.536  0.1399 -0.2059  0.2201
 2440TIP3    H128879   5.610   2.590   0.468  0.5231 -0.7949  0.8300
 2440TIP3    H228880   5.612   2.655   0.604 -0.1860  1.5632 -0.2344
 2441TIP3   OH228881   2.488   3.436   3.124  0.4742  0.5773 -0.0393
 2441TIP3    H128882   2.457   3.526   3.117 -1.0538  0.2527  1.6763
 2441TIP3    H228883   2.437   3.388   3.059  1.2241  0.9013 -0.8899
 2442TIP3   OH228884   4.716   4.263   2.136 -0.7022  0.2365 -0.1011
 2442TIP3    H128885   4.689   4.196   2.199 -0.1465 -0.1983 -0.3165
 2442TIP3    H228886   4.643   4.268   2.075 -0.6915 -0.2857 -0.1663
 2443TIP3   OH228887   5.976   1.415   1.295 -0.1540 -0.0070 -0.1886
 2443TIP3    H128888   6.003   1.350   1.360 -1.7339 -1.4675 -0.9066
 2443TIP3    H228889   5.887   1.388   1.271  0.3967  0.4167 -3.0237
 2444TIP3   OH228890   2.797   0.855   0.417  0.4189  0.1836 -0.2403
 2444TIP3    H128891   2.875   0.908   0.428 -0.0203  0.8868 -0.4802
 2444TIP3    H228892   2.793   0.802   0.497  1.0288  0.2793 -0.1419
 2445TIP3   OH228893   2.055   4.738   0.897 -0.1121  0.1657  0.6316
 2445TIP3    H128894   1.973   4.689   0.903 -1.1207  1.8040  0.9446
 2445TIP3    H228895   2.058   4.767   0.806  1.0695 -1.4001  0.1420
 2446TIP3   OH228896   0.442   2.464   2.040 -0.0830  0.0085  0.0476
 2446TIP3    H128897   0.517   2.522   2.025  0.8256 -0.8132  1.2141
 2446TIP3    H228898   0.481   2.377   2.046 -1.2633 -0.5515 -0.2959
 2447TIP3   OH228899   6.008   0.391   0.385 -0.2263 -0.6521 -0.3154
 2447TIP3    H128900   6.029   0.435   0.302  2.7422  2.0535  1.6134
 2447TIP3    H228901   5.977   0.461   0.442 -0.4271 -2.0778  1.4194
 2448TIP3   OH228902   5.303   2.512   0.647 -0.4207 -0.1104 -0.9861
 2448TIP3    H128903   5.240   2.528   0.578 -1.9588 -0.2768  0.3328
 2448TIP3    H228904   5.386   2.544   0.611 -1.5438  1.6881 -2.1355
 2449TIP3   OH228905   6.747   2.173   1.864 -0.1732  0.2763 -0.2428
 2449TIP3    H128906   6.803   2.152   1.789 -1.2750  0.1909 -1.0746
 2449TIP3    H228907   6.689   2.241   1.832 -2.2186 -1.3710 -0.2607
 2450TIP3   OH228908   3.462   4.436   7.836 -0.5996  0.0918 -0.3920
 2450TIP3    H128909   3.422   4.499   7.896 -1.6461 -0.7768 -0.1371
 2450TIP3    H228910   3.397   4.426   7.766  0.1192  0.2562 -1.0913
 2451TIP3   OH228911   2.843   2.479   7.743 -0.0722  0.0960  0.2174
 2451TIP3    H128912   2.845   2.573   7.724  0.1796 -0.0575 -0.5464
 2451TIP3    H228913   2.795   2.441   7.669 -2.3845 -0.1214  1.7407
 2452TIP3   OH228914   6.727   5.418   2.260  0.1942 -0.4476 -0.2935
 2452TIP3    H128915   6.767   5.338   2.225  0.9229  0.5795 -1.8934
 2452TIP3    H228916   6.646   5.429   2.211 -1.4228 -1.7054  1.9179
 2453TIP3   OH228917   2.651   3.066   1.796  0.3434  0.9112 -0.0527
 2453TIP3    H128918   2.670   2.995   1.735 -1.4250  0.4269 -0.1066
 2453TIP3    H228919   2.661   3.027   1.883  2.6080  1.5321  0.0268
 2454TIP3   OH228920   6.289   2.144   2.869 -0.2648  0.2616  0.5547
 2454TIP3    H128921   6.343   2.130   2.947  1.0420  0.9701 -0.1883
 2454TIP3    H228922   6.235   2.220   2.890 -0.4952 -0.0415  1.0616
 2455TIP3   OH228923   2.467   2.572   2.287  0.3809 -0.0300  0.2562
 2455TIP3    H128924   2.477   2.493   2.340 -2.1579  0.2974  1.3660
 2455TIP3    H228925   2.410   2.545   2.215  1.6638  0.1961 -0.8979
 2456TIP3   OH228926   4.109   1.529   7.860  0.1657 -0.3614 -0.3343
 2456TIP3    H128927   4.169   1.486   7.798 -0.6542 -0.5534 -1.0083
 2456TIP3    H228928   4.162   1.598   7.900  0.2998  0.8069 -2.3856
 2457TIP3   OH228929   1.835   5.120   7.344  0.1450 -0.9107  0.0955
 2457TIP3    H128930   1.781   5.042   7.335  1.2427 -1.5901 -0.7884
 2457TIP3    H228931   1.922   5.087   7.364  0.5723  0.0975 -0.0473
 2458TIP3   OH228932   2.870   2.108   8.712 -0.4279  0.1152  0.2555
 2458TIP3    H128933   2.876   2.026   8.661  0.0430  1.3482 -1.8007
 2458TIP3    H228934   2.856   2.176   8.646  1.1687  1.9517  1.6775
 2459TIP3   OH228935   0.683   1.732   2.007 -0.1469  0.5094 -0.3803
 2459TIP3    H128936   0.626   1.729   1.930 -0.9171  3.3144 -0.0576
 2459TIP3    H228937   0.715   1.823   2.009 -0.4846  0.6711  2.8023
 2460TIP3   OH228938   0.155   5.751   2.137 -0.0276 -0.3868  0.1169
 2460TIP3    H128939   0.083   5.749   2.075  0.4598 -0.8063 -0.4486
 2460TIP3    H228940   0.144   5.672   2.190  0.3671 -0.7876 -0.3867
 2461TIP3   OH228941   5.111   4.460   7.437 -0.1340 -0.2284  0.0366
 2461TIP3    H128942   5.153   4.384   7.477 -0.3266 -0.3488  0.0114
 2461TIP3    H228943   5.020   4.434   7.425  0.3792 -1.1385 -2.7167
 2462TIP3   OH228944   3.187   5.199   7.553  0.3824  0.6413 -0.6567
 2462TIP3    H128945   3.110   5.206   7.609  0.2760  2.2621 -0.9589
 2462TIP3    H228946   3.165   5.252   7.476  2.9692  4.0452  0.6654
 2463TIP3   OH228947   3.840   3.944   8.661 -0.1915 -0.1690 -0.0755
 2463TIP3    H128948   3.771   3.906   8.714  0.8391 -2.1030 -0.0399
 2463TIP3    H228949   3.815   3.923   8.571 -0.0964 -0.0940 -0.1189
 2464TIP3   OH228950   5.173   5.208   1.261  0.5273 -0.1126  0.6924
 2464TIP3    H128951   5.124   5.284   1.294 -0.8359 -1.5399  2.1114
 2464TIP3    H228952   5.209   5.238   1.177 -0.6638  1.8243  0.8039
 2465TIP3   OH228953   5.865   3.401   3.149 -0.1607 -0.2811  0.0316
 2465TIP3    H128954   5.866   3.473   3.213 -1.9283  0.4326 -0.6680
 2465TIP3    H228955   5.837   3.325   3.200  1.7175 -0.5217  0.7778
 2466TIP3   OH228956   3.640   5.123   2.422  0.6097 -0.6235 -0.0277
 2466TIP3    H128957   3.712   5.068   2.390  0.0163 -0.6636 -1.3573
 2466TIP3    H228958   3.565   5.064   2.427  0.0953 -0.0820 -0.9621
 2467TIP3   OH228959   2.914   1.592   8.517  0.1136  0.1692 -0.2274
 2467TIP3    H128960   2.973   1.564   8.447  0.0091 -0.0950 -0.2126
 2467TIP3    H228961   2.963   1.577   8.597 -0.5204 -1.4950 -0.1194
 2468TIP3   OH228962   5.559   4.700   1.447  0.0422  0.8069 -0.4022
 2468TIP3    H128963   5.611   4.648   1.508 -1.1313  0.3463  0.2329
 2468TIP3    H228964   5.558   4.787   1.486 -0.4569  0.5855  0.0846
 2469TIP3   OH228965   1.805   2.392   0.464  0.8200 -0.4270  0.7370
 2469TIP3    H128966   1.756   2.400   0.546  0.6418 -0.5490  0.6433
 2469TIP3    H228967   1.760   2.451   0.404  0.7444 -0.5925  0.6299
 2470TIP3   OH228968   2.547   2.730   1.825  0.5238 -0.3518  0.1447
 2470TIP3    H128969   2.563   2.658   1.885  1.1571  1.2201  1.9803
 2470TIP3    H228970   2.634   2.756   1.794  0.3923  0.1913  0.2163
 2471TIP3   OH228971   2.358   4.032   0.487 -0.8081 -0.6824 -1.5081
 2471TIP3    H128972   2.305   4.081   0.423 -1.0893  1.1025  0.0038
 2471TIP3    H228973   2.306   4.036   0.568  1.4328  0.8405 -0.0504
 2472TIP3   OH228974   4.294   5.089   2.365 -0.3270 -0.1722  0.1119
 2472TIP3    H128975   4.381   5.049   2.364  0.1381  0.6630  2.1672
 2472TIP3    H228976   4.245   5.040   2.430 -0.1163  1.7405  1.8230
 2473TIP3   OH228977   5.275   6.268   0.180  0.2937  0.1261 -0.4441
 2473TIP3    H128978   5.321   6.188   0.206  1.5646  1.1848  0.7738
 2473TIP3    H228979   5.257   6.313   0.262 -0.0724  1.2540 -1.1171
 2474TIP3   OH228980   3.765   1.058   7.078 -0.5575 -0.3668 -0.6951
 2474TIP3    H128981   3.710   0.980   7.084 -0.3742 -0.4505 -0.0623
 2474TIP3    H228982   3.818   1.044   6.999 -0.7143 -0.7577 -0.7334
 2475TIP3   OH228983   5.544   6.046   0.107 -0.2548 -0.3675 -0.2654
 2475TIP3    H128984   5.587   6.112   0.161 -0.7334 -0.2242 -0.0537
 2475TIP3    H228985   5.491   5.995   0.169  2.5043 -3.0479  0.1718
 2476TIP3   OH228986   4.297   5.636   8.674  0.0198  0.0763 -0.2337
 2476TIP3    H128987   4.210   5.654   8.639 -0.2206  0.2547  0.4539
 2476TIP3    H228988   4.283   5.614   8.765  0.5802 -1.0853 -0.4146
 2477TIP3   OH228989   5.220   4.819   7.952  0.3347  0.4889 -0.0098
 2477TIP3    H128990   5.261   4.739   7.918  0.5814  1.2935 -1.7359
 2477TIP3    H228991   5.211   4.804   8.046  0.9099 -1.3241 -0.2123
 2478TIP3   OH228992   3.795   2.577   1.242  0.1950 -0.5426  0.1767
 2478TIP3    H128993   3.801   2.483   1.227  0.7404 -0.4303 -0.3041
 2478TIP3    H228994   3.820   2.617   1.159 -0.2204  0.0277  0.3190
 2479TIP3   OH228995   3.078   4.237   8.243 -0.2407  0.5096  0.4045
 2479TIP3    H128996   3.030   4.266   8.321 -0.4897  0.6971  0.1802
 2479TIP3    H228997   3.117   4.317   8.208 -0.4884  0.4899  0.0868
 2480TIP3   OH228998   3.841   2.074   0.696 -0.0443 -0.1852 -0.7338
 2480TIP3    H128999   3.815   2.041   0.610  0.2879 -0.0854 -0.8740
 2480TIP3    H229000   3.759   2.084   0.744 -0.2917  0.4354 -1.2808
 2481TIP3   OH229001   6.753   5.749   1.969 -0.1019  0.2477 -0.2359
 2481TIP3    H129002   6.672   5.717   2.008  0.1854  0.3458  0.4654
 2481TIP3    H229003   6.738   5.841   1.952  0.1757  0.4893  0.7730
 2482TIP3   OH229004   5.802   5.423   7.586 -0.1845  0.1458 -0.2374
 2482TIP3    H129005   5.835   5.438   7.498  0.3527  1.3184  0.1455
 2482TIP3    H229006   5.880   5.419   7.641 -0.5726  2.2594  0.5765
 2483TIP3   OH229007   5.792   4.856   2.520  0.4454 -0.2150 -0.0083
 2483TIP3    H129008   5.730   4.928   2.532 -0.8240 -0.9963 -1.3775
 2483TIP3    H229009   5.763   4.813   2.439  0.0949 -3.2477  1.5546
 2484TIP3   OH229010   3.071   0.419   2.762  0.4320 -0.2027 -0.0535
 2484TIP3    H129011   2.996   0.432   2.704  0.1865 -0.3210  0.2354
 2484TIP3    H229012   3.129   0.493   2.743 -0.9109  1.3552  1.5112
 2485TIP3   OH229013   2.457   4.829   1.107 -0.1564  0.2834 -0.2285
 2485TIP3    H129014   2.393   4.889   1.144  0.6784 -0.1418  2.0541
 2485TIP3    H229015   2.406   4.750   1.087 -0.1939 -0.7566  3.3072
 2486TIP3   OH229016   3.228   2.262   7.100  0.2552  0.0902 -0.3451
 2486TIP3    H129017   3.144   2.301   7.125 -0.7249 -0.4701 -2.4896
 2486TIP3    H229018   3.289   2.335   7.099 -0.4662  0.7199  0.1730
 2487TIP3   OH229019   1.946   4.676   2.831  0.3622 -0.3716  0.2736
 2487TIP3    H129020   2.015   4.733   2.863  1.1667 -1.4597  0.5210
 2487TIP3    H229021   1.880   4.736   2.796  1.8764  0.6595 -0.9387
 2488TIP3   OH229022   1.159   0.506   7.826 -0.1102  0.6099  0.1760
 2488TIP3    H129023   1.109   0.558   7.762 -2.5665 -0.4021  1.1654
 2488TIP3    H229024   1.199   0.437   7.774 -1.1096  0.4820 -0.4540
 2489TIP3   OH229025   4.944   0.284   8.146 -0.2979  0.1368 -0.1777
 2489TIP3    H129026   4.973   0.192   8.149 -0.7114  0.0248  0.3713
 2489TIP3    H229027   5.015   0.329   8.100 -0.4819 -0.6079 -1.2393
 2490TIP3   OH229028   4.534   2.526   1.243  0.0087  0.5564  0.1228
 2490TIP3    H129029   4.590   2.563   1.174 -1.1319  0.1636 -1.0593
 2490TIP3    H229030   4.463   2.589   1.253 -0.3022  0.1844  0.3076
 2491TIP3   OH229031   3.576   4.018   2.872  0.7901  0.1167 -0.0019
 2491TIP3    H129032   3.651   3.997   2.929 -0.0659 -0.7889  0.8325
 2491TIP3    H229033   3.522   4.077   2.925  0.1504 -0.4704  0.0126
 2492TIP3   OH229034   0.044   1.432   7.354  0.3661  0.4449 -0.4412
 2492TIP3    H129035  -0.032   1.465   7.401  0.9403  1.6665 -0.3470
 2492TIP3    H229036   0.106   1.504   7.353  1.0636 -0.1273 -1.5612
 2493TIP3   OH229037   0.917   1.859   0.348  0.9230  0.7420  0.4903
 2493TIP3    H129038   0.962   1.780   0.318 -0.0671  0.0787  0.6692
 2493TIP3    H229039   0.973   1.894   0.417  0.8718 -0.4338  1.1748
 2494TIP3   OH229040   6.589   2.863   8.317 -0.0372  0.5822 -0.9955
 2494TIP3    H129041   6.665   2.825   8.271  1.0436  0.7170  0.5919
 2494TIP3    H229042   6.597   2.829   8.406 -2.8773 -0.8473 -1.1912
 2495TIP3   OH229043   0.375   2.863   8.293  0.1217  0.5194  0.5744
 2495TIP3    H129044   0.335   2.809   8.361  1.4982  1.0426  1.8360
 2495TIP3    H229045   0.467   2.836   8.292  0.3842  1.3966 -0.2117
 2496TIP3   OH229046   6.015   1.568   2.011 -0.0923 -0.1428 -0.6160
 2496TIP3    H129047   6.074   1.634   2.049  0.7164 -2.0439  1.6776
 2496TIP3    H229048   5.943   1.561   2.073 -1.0344 -0.2161 -1.7029
 2497TIP3   OH229049   5.928   1.300   2.311  0.5521 -0.2081 -0.7297
 2497TIP3    H129050   5.894   1.213   2.332 -0.4253 -0.0158 -1.4288
 2497TIP3    H229051   6.023   1.290   2.312  0.5037 -0.8803  0.8442
 2498TIP3   OH229052   4.288   4.115   8.168  0.7429 -0.3677 -0.5827
 2498TIP3    H129053   4.202   4.141   8.134 -0.3510 -0.1753  2.0651
 2498TIP3    H229054   4.334   4.197   8.184  1.1871 -0.4519 -1.3735
 2499TIP3   OH229055   2.515   2.643   8.455  0.5852 -0.5457  0.8461
 2499TIP3    H129056   2.540   2.583   8.385 -0.5066  0.0996 -0.1218
 2499TIP3    H229057   2.507   2.728   8.412 -1.9845 -0.4801  1.3130
 2500TIP3   OH229058   4.135   4.938   2.486  0.3082 -0.0726 -0.5078
 2500TIP3    H129059   4.050   4.916   2.523 -0.7998  0.6282 -2.5163
 2500TIP3    H229060   4.194   4.872   2.522 -1.0891 -0.6552  0.8239
 2501TIP3   OH229061   5.292   2.961   1.227 -0.1906 -0.4553 -0.6724
 2501TIP3    H129062   5.309   3.052   1.250 -1.8414  0.3449 -2.3526
 2501TIP3    H229063   5.362   2.938   1.165  1.0434 -0.8420  0.7976
 2502TIP3   OH229064   1.238   2.476   0.699 -0.7349 -0.4090  0.0759
 2502TIP3    H129065   1.301   2.416   0.738 -0.7129 -1.0310 -0.8860
 2502TIP3    H229066   1.251   2.559   0.746  1.5246 -0.2119 -0.7743
 2503TIP3   OH229067   5.918   2.660   1.991 -0.2886  0.0588  0.4114
 2503TIP3    H129068   6.005   2.668   1.950 -0.1520 -1.0391  0.4578
 2503TIP3    H229069   5.861   2.712   1.935  0.0884 -0.5864 -0.6041
 2504TIP3   OH229070   4.159   0.779   7.810 -0.1580  0.1272 -0.4211
 2504TIP3    H129071   4.191   0.717   7.875  1.0619  0.9891 -0.1633
 2504TIP3    H229072   4.108   0.726   7.749 -1.9632 -0.5994  1.6142
 2505TIP3   OH229073   2.120   3.609   7.592  0.5967  0.0735  0.4042
 2505TIP3    H129074   2.199   3.555   7.586  1.0981  0.9082 -0.5817
 2505TIP3    H229075   2.085   3.588   7.679  0.9190 -1.6286  0.1745
 2506TIP3   OH229076   1.196   4.693   1.338  0.0062 -0.3229  0.3584
 2506TIP3    H129077   1.154   4.711   1.422  0.0531  1.8937 -0.0490
 2506TIP3    H229078   1.167   4.764   1.281  0.0616 -1.7285 -1.4977
 2507TIP3   OH229079   3.900   0.138   7.895 -0.3671 -0.0486 -0.4320
 2507TIP3    H129080   3.926   0.170   7.809 -0.0749  0.6618 -0.0818
 2507TIP3    H229081   3.830   0.197   7.923 -1.6804 -1.3004 -0.9017
 2508TIP3   OH229082   5.561   2.102   2.837  1.0450 -0.1762 -0.2295
 2508TIP3    H129083   5.610   2.162   2.893  1.1101 -0.6434  0.2272
 2508TIP3    H229084   5.481   2.150   2.813  1.2730  0.2274 -0.1838
 2509TIP3   OH229085   2.260   3.197   2.953  0.2493  0.3744 -0.4197
 2509TIP3    H129086   2.310   3.200   2.871 -0.9844  2.9260 -1.1820
 2509TIP3    H229087   2.180   3.246   2.934 -0.4073  0.4256  2.1146
 2510TIP3   OH229088   2.937   4.623   7.666  0.7879 -0.0756 -0.2696
 2510TIP3    H129089   2.894   4.539   7.652 -2.1339  1.1762  0.4857
 2510TIP3    H229090   3.000   4.607   7.736 -1.7214 -1.1169  1.9212
 2511TIP3   OH229091   0.230   5.689   0.721 -0.1166 -0.4657 -0.3828
 2511TIP3    H129092   0.147   5.736   0.727  0.5569  0.7112  0.1600
 2511TIP3    H229093   0.220   5.615   0.782 -0.9925 -0.7255 -0.8259
 2512TIP3   OH229094   1.593   4.053   1.600 -0.0103  0.1450 -0.1980
 2512TIP3    H129095   1.528   4.109   1.559 -0.8633 -0.1131  0.7656
 2512TIP3    H229096   1.650   4.112   1.649 -1.1765  0.1729  1.1857
 2513TIP3   OH229097   3.144   3.847   1.731 -0.2810  0.1785  0.7069
 2513TIP3    H129098   3.095   3.782   1.781 -0.0955  0.7933  1.7292
 2513TIP3    H229099   3.105   3.846   1.644  0.3821 -2.0317  0.3736
 2514TIP3   OH229100   6.590   6.499   2.370  0.0695 -0.6677 -0.1296
 2514TIP3    H129101   6.622   6.587   2.348 -2.2856  0.8270  2.0273
 2514TIP3    H229102   6.620   6.484   2.459  1.0481 -2.4272 -0.7077
 2515TIP3   OH229103   0.389   5.309   7.860  0.2973  0.5783 -0.1154
 2515TIP3    H129104   0.444   5.371   7.908  1.2797  0.2008 -0.7269
 2515TIP3    H229105   0.317   5.363   7.826  0.9461  1.3264 -0.3384
 2516TIP3   OH229106   2.419   6.071   0.464  0.4617 -0.0503 -0.1153
 2516TIP3    H129107   2.493   6.107   0.416  1.0093  0.1492  0.8400
 2516TIP3    H229108   2.459   6.014   0.530 -0.1533  0.7611  1.0072
 2517TIP3   OH229109   5.596   4.497   6.782  0.1776  0.2460  0.1065
 2517TIP3    H129110   5.632   4.509   6.870 -0.3606 -0.4364  0.4278
 2517TIP3    H229111   5.647   4.556   6.727  0.0392  1.2191  1.0002
 2518TIP3   OH229112   4.780   3.910   8.093 -0.4033  0.7088 -0.0647
 2518TIP3    H129113   4.751   3.887   8.182 -0.6042 -0.0226 -0.3068
 2518TIP3    H229114   4.754   4.001   8.082  0.1517  0.9924  0.8438
 2519TIP3   OH229115   3.205   6.428   7.342 -0.2409  0.1208  0.0873
 2519TIP3    H129116   3.136   6.440   7.407 -0.6957  0.3658 -0.4347
 2519TIP3    H229117   3.220   6.515   7.306  1.4872  0.3727  1.3313
 2520TIP3   OH229118   5.884   3.885   0.504  0.2091  0.4254  0.7837
 2520TIP3    H129119   5.913   3.919   0.589 -0.1317  0.6116  0.8269
 2520TIP3    H229120   5.903   3.791   0.508  0.0318  0.4053  1.1327
 2521TIP3   OH229121   0.518   0.240   0.628 -0.0423 -0.7085 -0.3113
 2521TIP3    H129122   0.491   0.325   0.661  0.5586 -1.3674  2.0407
 2521TIP3    H229123   0.519   0.251   0.533 -0.1443  1.8351 -0.0912
 2522TIP3   OH229124   3.644   1.588   0.322 -0.1750 -0.0651  0.2086
 2522TIP3    H129125   3.559   1.544   0.323 -0.8823  1.2533 -0.0586
 2522TIP3    H229126   3.625   1.676   0.292  1.3774  0.1059 -0.3590
 2523TIP3   OH229127   3.286   5.965   7.001 -0.0407  0.3288 -0.5306
 2523TIP3    H129128   3.247   6.051   7.017  0.0903  0.0841  1.2273
 2523TIP3    H229129   3.233   5.928   6.930 -1.2427  1.1323 -0.0828
 2524TIP3   OH229130   4.842   4.160   1.433  0.2660  0.2719  0.3808
 2524TIP3    H129131   4.863   4.133   1.522  0.6231  0.0104  0.2241
 2524TIP3    H229132   4.837   4.078   1.384 -0.0294  0.4087  0.1829
 2525TIP3   OH229133   2.767   4.378   8.662 -0.0676 -0.5336  0.1390
 2525TIP3    H129134   2.793   4.289   8.686 -1.1171 -0.5561  1.2985
 2525TIP3    H229135   2.787   4.431   8.740 -1.0514 -0.0905  0.1019
 2526TIP3   OH229136   6.567   5.165   1.376  0.2059  0.4833  0.1999
 2526TIP3    H129137   6.598   5.080   1.408  0.3639 -0.0363 -1.2488
 2526TIP3    H229138   6.639   5.225   1.396  2.0017 -0.5751 -2.4671
 2527TIP3   OH229139   0.495   4.964   2.261  0.3846 -0.1874 -0.0383
 2527TIP3    H129140   0.542   4.906   2.200  1.8179 -0.1892  1.0108
 2527TIP3    H229141   0.496   5.049   2.219  2.2388  0.0356  0.3587
 2528TIP3   OH229142   3.226   6.442   1.639  0.6622 -0.2144 -0.2792
 2528TIP3    H129143   3.298   6.395   1.682 -0.2608 -1.0022  0.4504
 2528TIP3    H229144   3.235   6.420   1.546  2.3337  1.0397 -0.4616
 2529TIP3   OH229145   4.852   3.702   2.345  0.1941  0.4391  0.2602
 2529TIP3    H129146   4.933   3.651   2.337 -0.3819 -0.4144 -0.3575
 2529TIP3    H229147   4.832   3.728   2.255 -0.5949  0.0234  0.3052
 2530TIP3   OH229148   6.057   1.466   8.286 -0.5466 -0.0301 -0.1455
 2530TIP3    H129149   6.092   1.390   8.239 -0.6635 -0.3179  0.2311
 2530TIP3    H229150   6.010   1.515   8.218 -0.6518 -0.4062 -0.3507
 2531TIP3   OH229151   1.837   3.806   8.282  0.2239  0.3466  0.0746
 2531TIP3    H129152   1.847   3.899   8.303 -2.2634  0.5763  0.5878
 2531TIP3    H229153   1.878   3.761   8.355  0.6583  1.0527  0.2815
 2532TIP3   OH229154   5.531   4.475   0.632 -0.8104  0.2471 -0.0615
 2532TIP3    H129155   5.491   4.535   0.695  1.0360  0.4799  0.9685
 2532TIP3    H229156   5.595   4.425   0.683  0.6568  0.3274 -1.7100
 2533TIP3   OH229157   6.064   4.629   8.277  0.6907 -0.1804 -0.0015
 2533TIP3    H129158   6.147   4.674   8.263  0.9374 -1.0253 -1.6057
 2533TIP3    H229159   6.018   4.681   8.343  1.8657  1.1361 -0.1824
 2534TIP3   OH229160   0.112   3.725   0.108  0.0807  0.7222  0.2094
 2534TIP3    H129161   0.084   3.815   0.090  2.4722  0.9777 -3.4756
 2534TIP3    H229162   0.196   3.734   0.152  0.8839  0.4098 -1.1900
 2535TIP3   OH229163   0.881   2.603   2.782  0.0611  0.2648 -0.1951
 2535TIP3    H129164   0.822   2.541   2.826 -2.1980  3.1153  1.1634
 2535TIP3    H229165   0.924   2.650   2.854  1.2976  0.6538 -1.1572
 2536TIP3   OH229166   2.469   2.187   7.731  0.1030 -0.5608 -0.3776
 2536TIP3    H129167   2.553   2.214   7.696  2.2238 -2.4599  2.6737
 2536TIP3    H229168   2.451   2.103   7.689  0.5527 -0.8700  0.0295
 2537TIP3   OH229169   1.392   3.996   2.655 -0.2575 -0.2468  0.3165
 2537TIP3    H129170   1.445   3.954   2.587  0.7479  0.8124  0.4113
 2537TIP3    H229171   1.449   4.064   2.691 -2.2265  2.1366 -0.7627
 2538TIP3   OH229172   6.546   0.442   2.336 -0.1479 -0.1535  0.1709
 2538TIP3    H129173   6.476   0.455   2.401 -0.0098 -0.9028  0.4803
 2538TIP3    H229174   6.503   0.395   2.265  0.6319 -3.2941  1.6119
 2539TIP3   OH229175   5.829   4.029   2.729 -0.1158 -0.5828  0.1936
 2539TIP3    H129176   5.809   4.024   2.822 -0.8935  2.0824  0.2497
 2539TIP3    H229177   5.744   4.045   2.687  0.3588 -0.8120 -0.8900
 2540TIP3   OH229178   4.920   0.741   0.476 -0.1388 -0.0901 -0.2267
 2540TIP3    H129179   4.963   0.690   0.407  0.0103 -2.3859  1.4457
 2540TIP3    H229180   4.840   0.692   0.495 -0.2611  0.5960  1.0920
 2541TIP3   OH229181   3.524   3.507   1.963  0.1362 -0.2532 -0.3484
 2541TIP3    H129182   3.527   3.491   2.058  0.6374 -2.6242 -0.6982
 2541TIP3    H229183   3.433   3.489   1.939  0.5439 -2.1707 -0.6334
 2542TIP3   OH229184   4.610   1.081   7.665 -0.5736 -0.5669  0.5500
 2542TIP3    H129185   4.602   1.045   7.754 -1.2440 -2.1024 -0.1051
 2542TIP3    H229186   4.571   1.168   7.672  0.7263 -0.0538  2.0897
 2543TIP3   OH229187   3.649   0.577   8.002  0.1492 -0.7686  0.2084
 2543TIP3    H129188   3.680   0.556   7.913 -0.3991 -2.0456  0.3040
 2543TIP3    H229189   3.591   0.652   7.989  0.2213 -0.8220 -0.4888
 2544TIP3   OH229190   3.600   0.519   1.536  0.1933  0.1349  0.0500
 2544TIP3    H129191   3.665   0.542   1.470  1.1429  1.5675  1.4140
 2544TIP3    H229192   3.625   0.431   1.564  1.0546  0.3368 -0.0495
 2545TIP3   OH229193   0.693   4.780   7.950 -0.1637 -0.2537 -0.2398
 2545TIP3    H129194   0.687   4.815   8.039  2.0438  1.2028 -0.5619
 2545TIP3    H229195   0.662   4.690   7.957  2.6952 -1.2278  2.7107
 2546TIP3   OH229196   4.721   1.751   1.305  0.4615  0.3181 -0.1903
 2546TIP3    H129197   4.715   1.838   1.344  0.6785 -0.3915  1.5062
 2546TIP3    H229198   4.630   1.719   1.304  0.4237  0.4295 -0.5193
 2547TIP3   OH229199   2.864   6.474   3.310 -0.3760  0.6619  0.1137
 2547TIP3    H129200   2.822   6.426   3.381  1.5249  1.3895  1.8583
 2547TIP3    H229201   2.812   6.555   3.302 -1.2733  0.0754 -0.1444
 2548TIP3   OH229202   3.923   0.464   1.360 -0.1315 -0.5179  0.3775
 2548TIP3    H129203   4.014   0.438   1.367 -0.3555 -1.2275  0.7025
 2548TIP3    H229204   3.926   0.558   1.343  0.6461 -0.4691  0.7660
 2549TIP3   OH229205   0.459   5.816   2.700  0.6941  0.1541  0.8977
 2549TIP3    H129206   0.547   5.796   2.730  1.5018  2.7002  0.4486
 2549TIP3    H229207   0.470   5.889   2.639 -1.7551  0.9076  1.2413
 2550TIP3   OH229208   3.795   3.617   2.110  0.6047 -0.3480 -0.1000
 2550TIP3    H129209   3.782   3.528   2.142 -0.1692 -0.3711 -0.4659
 2550TIP3    H229210   3.788   3.610   2.015  0.1562  0.1654 -0.1104
 2551TIP3   OH229211   4.242   3.305   7.997 -0.4141  0.0406 -0.0873
 2551TIP3    H129212   4.185   3.365   8.045 -0.0418  1.4590 -1.3420
 2551TIP3    H229213   4.187   3.271   7.927 -0.6661 -1.2523  0.6999
 2552TIP3   OH229214   4.494   1.663   8.646 -0.4914  0.0164  0.0158
 2552TIP3    H129215   4.439   1.647   8.723 -0.9178  0.0661 -0.2826
 2552TIP3    H229216   4.438   1.644   8.571 -0.5860  1.5719 -0.3330
 2553TIP3   OH229217   4.017   0.535   2.351 -0.3627  0.2404 -0.3439
 2553TIP3    H129218   4.080   0.496   2.411 -1.8362 -0.3221  0.8976
 2553TIP3    H229219   3.933   0.500   2.379 -1.6520  3.3915  0.0539
 2554TIP3   OH229220   0.150   0.919   0.406  0.4615  0.4361  0.3708
 2554TIP3    H129221   0.149   0.876   0.320  0.7179  1.4469 -0.1565
 2554TIP3    H229222   0.096   0.863   0.462  0.3037 -0.2444 -0.4471
 2555TIP3   OH229223   4.276   3.302   8.531 -0.5320 -0.1317  0.2790
 2555TIP3    H129224   4.191   3.273   8.497 -1.4976  0.1877  2.2812
 2555TIP3    H229225   4.312   3.224   8.575 -0.8321  0.3063  1.3356
 2556TIP3   OH229226   2.236   1.956   2.350  0.4259 -0.8102 -0.4416
 2556TIP3    H129227   2.215   1.902   2.274  0.3353 -0.4257 -0.6925
 2556TIP3    H229228   2.152   1.968   2.395  0.3655 -0.5332 -0.6190
 2557TIP3   OH229229   2.495   0.754   0.437 -0.0762  0.5584  0.3592
 2557TIP3    H129230   2.503   0.660   0.422  1.2506  0.5122  1.1841
 2557TIP3    H229231   2.562   0.793   0.381  0.1205  0.9129  0.8340
 2558TIP3   OH229232   4.180   6.826   8.387  0.4756  0.0484  0.5244
 2558TIP3    H129233   4.196   6.776   8.307  1.1460 -1.3773  1.5112
 2558TIP3    H229234   4.242   6.790   8.451 -1.4652 -0.3495  2.3043
 2559TIP3   OH229235   1.519   3.506   2.240  0.0030  0.2237  0.1045
 2559TIP3    H129236   1.548   3.580   2.188 -0.5618  1.3146  1.2721
 2559TIP3    H229237   1.521   3.431   2.180 -0.2682  1.3424 -1.3449
 2560TIP3   OH229238   0.425   5.611   2.173 -0.0509  0.2083 -0.1986
 2560TIP3    H129239   0.429   5.572   2.086  2.1270 -0.0001 -0.0573
 2560TIP3    H229240   0.338   5.652   2.178 -0.7664 -1.0247 -1.8988
 2561TIP3   OH229241   2.135   2.620   7.484 -0.2133 -0.4448  0.2874
 2561TIP3    H129242   2.163   2.536   7.521  3.3420  0.5164  0.1646
 2561TIP3    H229243   2.179   2.624   7.399  0.1790  1.7708  0.5493
 2562TIP3   OH229244   6.609   0.676   7.280 -0.1835  0.0812 -0.2012
 2562TIP3    H129245   6.531   0.728   7.260  0.3103  0.6033 -0.8276
 2562TIP3    H229246   6.660   0.677   7.199  1.7330  1.9773  0.9059
 2563TIP3   OH229247   0.996   6.175   0.572 -0.1597 -0.0353 -0.4160
 2563TIP3    H129248   1.090   6.194   0.577 -0.2291  0.5013 -0.9890
 2563TIP3    H229249   0.981   6.152   0.480 -0.7468  0.8431 -0.5593
 2564TIP3   OH229250   3.419   2.533   0.907 -0.3690  0.1331 -0.0979
 2564TIP3    H129251   3.378   2.584   0.976 -0.7791  0.8269 -0.8358
 2564TIP3    H229252   3.491   2.588   0.876 -1.1588  0.5549 -1.2801
 2565TIP3   OH229253   0.076   0.365   6.650  0.6313  0.0748 -0.0843
 2565TIP3    H129254   0.167   0.335   6.645  0.6143  0.1912 -1.3681
 2565TIP3    H229255   0.064   0.391   6.741  1.3435 -1.6517  0.5404
 2566TIP3   OH229256   3.627   3.848   7.819 -0.3991  0.0782  0.2246
 2566TIP3    H129257   3.683   3.919   7.787 -1.2381  0.0782 -1.3359
 2566TIP3    H229258   3.542   3.888   7.832 -0.4044 -0.2355  1.2089
 2567TIP3   OH229259   0.831   4.591   2.695 -0.1631  0.2701  0.3172
 2567TIP3    H129260   0.743   4.627   2.701  0.3680  2.1492 -1.6990
 2567TIP3    H229261   0.851   4.560   2.784 -3.8067 -2.8437  0.3033
 2568TIP3   OH229262   2.001   2.522   0.153  0.2998 -0.4320 -0.2264
 2568TIP3    H129263   2.021   2.438   0.111  0.6517 -0.0842 -0.7563
 2568TIP3    H229264   1.913   2.510   0.189  1.2690 -1.8906  1.9068
 2569TIP3   OH229265   5.268   5.319   1.892 -0.2664  0.4143  0.4540
 2569TIP3    H129266   5.342   5.377   1.874  1.2046 -0.9651  1.7561
 2569TIP3    H229267   5.274   5.301   1.986 -0.9999 -1.3835  0.2002
 2570TIP3   OH229268   5.531   2.719   1.507  0.7821  0.3958  0.2638
 2570TIP3    H129269   5.536   2.703   1.413  0.7140 -0.8419  0.4577
 2570TIP3    H229270   5.471   2.793   1.515 -3.3480 -2.5180 -0.4343
 2571TIP3   OH229271   3.583   5.934   6.955  0.1586  0.3068  0.1094
 2571TIP3    H129272   3.631   5.998   7.007 -1.9964  2.6602 -0.5873
 2571TIP3    H229273   3.491   5.948   6.979 -0.3773 -3.3858  0.7467
 2572TIP3   OH229274   6.339   4.176   1.898 -0.2173  0.0167  0.4615
 2572TIP3    H129275   6.395   4.227   1.957  1.2962 -1.7383  0.6277
 2572TIP3    H229276   6.395   4.153   1.825 -0.8791 -1.2741  0.3252
 2573TIP3   OH229277   5.205   4.196   8.222  0.0813  0.4651 -0.0781
 2573TIP3    H129278   5.212   4.181   8.317 -0.2043  0.3016 -0.0834
 2573TIP3    H229279   5.161   4.118   8.188  0.7606  0.2274 -0.4374
 2574TIP3   OH229280   2.791   3.552   0.698 -0.2404 -0.4661  0.2025
 2574TIP3    H129281   2.760   3.580   0.784  0.3532  0.6649  0.0657
 2574TIP3    H229282   2.879   3.589   0.692  0.3121 -1.8348 -0.2739
 2575TIP3   OH229283   0.579   3.538   0.015 -0.1432  0.0002 -0.0464
 2575TIP3    H129284   0.602   3.452   0.052  0.5160 -0.5810 -1.7249
 2575TIP3    H229285   0.594   3.600   0.087  2.1913 -0.9345  0.3495
 2576TIP3   OH229286   5.909   1.428   7.390 -0.9738 -0.1697 -0.4559
 2576TIP3    H129287   5.944   1.486   7.323 -1.0576 -0.4671 -0.7603
 2576TIP3    H229288   5.851   1.369   7.343  0.9872 -2.1210 -0.5911
 2577TIP3   OH229289   3.833   1.934   8.024 -0.6633  0.0580 -0.0038
 2577TIP3    H129290   3.763   1.998   8.011  0.1641  0.7813 -1.0496
 2577TIP3    H229291   3.895   1.950   7.953 -0.5224 -2.0688 -0.4355
 2578TIP3   OH229292   4.752   4.341   8.364 -0.2884  0.3078  0.4710
 2578TIP3    H129293   4.709   4.399   8.302 -1.2270  0.4756  1.2440
 2578TIP3    H229294   4.788   4.400   8.431  0.1422  0.0932  0.4327
 2579TIP3   OH229295   1.160   2.122   0.726 -0.2951 -0.6187  0.0427
 2579TIP3    H129296   1.152   2.166   0.810  0.0520  0.5155 -0.4906
 2579TIP3    H229297   1.209   2.184   0.672 -0.0203 -1.5690 -0.8198
 2580TIP3   OH229298   2.457   3.866   1.814 -0.0155 -1.4750 -0.5873
 2580TIP3    H129299   2.542   3.909   1.801 -0.5449 -0.2179 -0.0224
 2580TIP3    H229300   2.445   3.813   1.736  1.6747 -2.3573 -0.3039
 2581TIP3   OH229301   2.837   5.813   1.312 -0.2508 -0.2404  0.0984
 2581TIP3    H129302   2.798   5.831   1.398  2.0548 -1.3264  1.4594
 2581TIP3    H229303   2.786   5.740   1.277  1.3337 -2.7070  2.5378
 2582TIP3   OH229304   3.177   4.691   6.802 -0.7702  0.3413 -0.0787
 2582TIP3    H129305   3.230   4.742   6.741  2.2641 -2.1226  0.2467
 2582TIP3    H229306   3.098   4.668   6.753 -0.5773  2.3011 -1.3970
 2583TIP3   OH229307   3.470   6.625   1.105 -0.3261 -0.0969  0.2616
 2583TIP3    H129308   3.479   6.560   1.175 -1.6767 -1.1499 -0.4867
 2583TIP3    H229309   3.552   6.620   1.057 -0.0961 -0.6634  0.7005
 2584TIP3   OH229310   4.928   5.534   0.854  0.2053 -0.1120  0.7625
 2584TIP3    H129311   4.878   5.611   0.880  0.4485  0.1814  0.3591
 2584TIP3    H229312   5.005   5.569   0.810 -0.2537 -0.6053 -0.4807
 2585TIP3   OH229313   0.117   5.154   8.234 -0.8425 -0.1556 -0.1064
 2585TIP3    H129314   0.132   5.073   8.184  0.2894 -1.2603  1.8877
 2585TIP3    H229315   0.194   5.208   8.216 -0.8728 -0.1568 -0.2449
 2586TIP3   OH229316   5.373   0.409   0.934  0.2878  0.2820  0.6162
 2586TIP3    H129317   5.400   0.325   0.972 -1.3533 -0.0345  1.1729
 2586TIP3    H229318   5.372   0.469   1.008 -2.0071 -0.1080  0.9753
 2587TIP3   OH229319   1.883   1.677   0.834  0.0868 -0.4332 -0.6067
 2587TIP3    H129320   1.921   1.602   0.788 -0.0376 -1.0067  0.1916
 2587TIP3    H229321   1.935   1.752   0.806  0.9178 -0.9889 -0.5898
 2588TIP3   OH229322   4.322   0.880   7.199  0.2762 -0.5203  0.5912
 2588TIP3    H129323   4.265   0.848   7.130  1.3550 -0.9182 -0.1525
 2588TIP3    H229324   4.410   0.850   7.173  1.1378  1.8514  0.5916
 2589TIP3   OH229325   2.931   1.286   1.254 -0.3937 -0.1804  0.3873
 2589TIP3    H129326   2.943   1.214   1.316  0.9248  1.0720  1.6554
 2589TIP3    H229327   2.981   1.359   1.291 -0.7916  1.0781 -1.4042
 2590TIP3   OH229328   1.096   5.903   8.437  0.6252  0.7435  0.2576
 2590TIP3    H129329   1.104   5.948   8.521 -1.4718  0.9893  0.3767
 2590TIP3    H229330   1.019   5.846   8.448  1.0857 -0.1759 -1.0847
 2591TIP3   OH229331   3.465   4.976   7.334  0.7196  0.0742  0.5366
 2591TIP3    H129332   3.407   5.032   7.281  1.1248 -0.9376 -1.0489
 2591TIP3    H229333   3.503   4.915   7.271  0.1526 -2.1362  2.2108
 2592TIP3   OH229334   5.316   3.587   1.057  0.2156 -0.6347 -0.4566
 2592TIP3    H129335   5.368   3.632   1.123  0.5116 -1.4600 -0.1234
 2592TIP3    H229336   5.335   3.634   0.976  0.3864 -0.0493 -0.0817
 2593TIP3   OH229337   3.283   4.091   1.698  0.0732  0.2680  0.5937
 2593TIP3    H129338   3.227   4.160   1.733  0.6390  0.5997  0.8457
 2593TIP3    H229339   3.244   4.010   1.731 -0.0046  0.5192  1.1191
 2594TIP3   OH229340   3.383   5.887   0.896 -0.1674  0.1765 -0.0911
 2594TIP3    H129341   3.415   5.972   0.864  0.8051  0.0005  0.3740
 2594TIP3    H229342   3.376   5.898   0.991  0.1383 -0.3053 -0.0052
 2595TIP3   OH229343   2.075   5.323   2.893  0.6954 -0.4446  0.1938
 2595TIP3    H129344   2.029   5.239   2.882  0.8351 -0.6083  0.7961
 2595TIP3    H229345   2.041   5.358   2.975  0.0212  0.5029 -0.4795
 2596TIP3   OH229346   4.253   4.784   2.147  0.1759 -0.0314 -0.1085
 2596TIP3    H129347   4.240   4.737   2.229  0.4453 -0.7519 -0.4685
 2596TIP3    H229348   4.198   4.862   2.155  0.7421  0.2782  1.0443
 2597TIP3   OH229349   1.092   2.327   8.320  0.0070  0.0168 -0.1832
 2597TIP3    H129350   1.057   2.416   8.332  0.7051  0.4957 -1.4647
 2597TIP3    H229351   1.147   2.313   8.397 -1.6828 -0.1068  1.0306
 2598TIP3   OH229352   0.108   6.225   0.694 -0.3329  0.1502  0.8594
 2598TIP3    H129353   0.017   6.218   0.666  0.1086 -1.3805 -0.4145
 2598TIP3    H229354   0.157   6.239   0.612  0.7035 -0.7253  1.3008
 2599TIP3   OH229355   5.668   6.438   1.312  0.5338  0.4705 -0.4973
 2599TIP3    H129356   5.667   6.357   1.363  1.4352 -0.0442 -1.2438
 2599TIP3    H229357   5.759   6.445   1.281  0.3915  1.6082 -0.6953
 2600TIP3   OH229358   1.905   3.028   2.170  0.1198  0.1359  0.2633
 2600TIP3    H129359   1.959   3.078   2.231 -0.3972 -0.7453  1.4862
 2600TIP3    H229360   1.966   2.996   2.103  0.5599  1.7910 -0.1608
 2601TIP3   OH229361   1.477   3.173   7.511  0.1111 -0.4054  0.0424
 2601TIP3    H129362   1.518   3.161   7.426  0.7424 -0.5865  0.3622
 2601TIP3    H229363   1.535   3.233   7.558 -1.2973  1.3822 -0.3692
 2602TIP3   OH229364   2.184   3.253   2.629  0.3104 -0.3382  0.6655
 2602TIP3    H129365   2.142   3.292   2.706 -0.9032 -1.4865  0.6023
 2602TIP3    H229366   2.276   3.245   2.655 -0.2088 -1.4547  2.3350
 2603TIP3   OH229367   2.092   1.837   1.451 -0.2415  0.2401 -0.5744
 2603TIP3    H129368   2.157   1.768   1.437 -0.4808 -0.4299  1.3216
 2603TIP3    H229369   2.014   1.791   1.482  0.1634  1.4071  2.5710
 2604TIP3   OH229370   1.317   4.778   0.243  0.1817  0.3807 -0.5341
 2604TIP3    H129371   1.384   4.826   0.294 -0.1762 -0.0144  0.3344
 2604TIP3    H229372   1.234   4.816   0.272 -0.1293 -0.9456  0.3902
 2605TIP3   OH229373   5.609   5.450   2.849 -0.1338  0.5022 -0.1125
 2605TIP3    H129374   5.674   5.424   2.784 -0.5704 -0.5392 -0.1411
 2605TIP3    H229375   5.657   5.509   2.907  0.9499 -0.5312  0.0917
 2606TIP3   OH229376   6.812   4.855   1.258 -0.0653  0.1510  0.2964
 2606TIP3    H129377   6.861   4.777   1.232  0.5743  0.1928  1.2803
 2606TIP3    H229378   6.729   4.822   1.291  0.1695 -0.1120  0.6304
 2607TIP3   OH229379   4.917   3.638   1.565  0.2910  0.3151  0.1089
 2607TIP3    H129380   4.937   3.666   1.475  0.5619 -3.7310 -1.3386
 2607TIP3    H229381   4.832   3.595   1.557 -0.7536  1.7862  2.3825
 2608TIP3   OH229382   0.315   3.503   0.150 -0.0837 -0.2916 -0.4287
 2608TIP3    H129383   0.332   3.513   0.056 -1.3744 -0.4202 -0.6867
 2608TIP3    H229384   0.236   3.450   0.155  0.1185 -0.5173  0.7477
 2609TIP3   OH229385   3.273   0.945   7.883  0.4505 -0.1314 -0.0113
 2609TIP3    H129386   3.333   0.991   7.825 -0.0358 -0.4861 -0.8120
 2609TIP3    H229387   3.217   0.894   7.825  0.0704 -0.6465  0.7805
 2610TIP3   OH229388   5.546   1.168   1.724  0.4140  0.2549  0.2925
 2610TIP3    H129389   5.578   1.087   1.765  1.0625  0.2325 -0.2552
 2610TIP3    H229390   5.560   1.235   1.790  0.9291  0.1191  0.3228
 2611TIP3   OH229391   1.406   1.204   7.515  0.1532  0.9183 -0.3410
 2611TIP3    H129392   1.426   1.117   7.482  1.1525  1.3741 -0.9992
 2611TIP3    H229393   1.331   1.233   7.462  0.7021  0.9939 -1.0930
 2612TIP3   OH229394   5.678   2.391   0.137 -0.5014  0.1130 -0.0688
 2612TIP3    H129395   5.686   2.462   0.073 -0.4838  0.8076  0.6744
 2612TIP3    H229396   5.584   2.384   0.153 -0.4115  1.6405  1.6026
 2613TIP3   OH229397   2.408   3.645   7.455 -0.9715  0.0191 -0.3166
 2613TIP3    H129398   2.429   3.553   7.465 -1.3070 -0.2138 -1.5692
 2613TIP3    H229399   2.465   3.690   7.517  0.9967 -0.8221 -1.4457
 2614TIP3   OH229400   3.528   0.493   1.122  0.1195 -0.6144  0.1544
 2614TIP3    H129401   3.562   0.485   1.033  1.7355 -0.2164  0.7040
 2614TIP3    H229402   3.563   0.577   1.153  0.0481 -1.0069  1.3532
 2615TIP3   OH229403   5.424   0.452   0.619 -0.1987 -0.4439 -0.2219
 2615TIP3    H129404   5.363   0.526   0.622  0.0704 -0.2383  0.7234
 2615TIP3    H229405   5.410   0.407   0.703 -0.5991 -1.6683 -0.9210
 2616TIP3   OH229406   0.225   2.875   1.511  0.3568  0.4600 -0.3981
 2616TIP3    H129407   0.150   2.910   1.560 -0.2981 -1.2131 -0.1464
 2616TIP3    H229408   0.187   2.846   1.428  0.4044 -1.7203  0.2851
 2617TIP3   OH229409   3.972   6.572   0.774  0.2257  0.0334 -0.3861
 2617TIP3    H129410   3.952   6.650   0.722  0.5754 -1.0751 -2.2867
 2617TIP3    H229411   3.925   6.501   0.730  1.5100 -1.1589  0.0993
 2618TIP3   OH229412   6.091   6.447   2.144 -0.1729  0.9528  0.1315
 2618TIP3    H129413   6.093   6.538   2.173 -0.8536  0.3910  2.0399
 2618TIP3    H229414   6.166   6.406   2.188 -1.1799  0.0955  1.0916
 2619TIP3   OH229415   6.274   3.052   0.743 -0.2600  0.0983  0.1859
 2619TIP3    H129416   6.261   2.988   0.814  0.0345 -0.7498 -0.5059
 2619TIP3    H229417   6.355   3.023   0.699 -0.2236  0.8450 -0.2531
 2620TIP3   OH229418   4.383   4.625   1.020  0.1861 -0.3613 -0.6604
 2620TIP3    H129419   4.369   4.625   0.926  0.1189 -0.9656 -0.6567
 2620TIP3    H229420   4.471   4.658   1.032  0.0087  0.2051 -0.9030
 2621TIP3   OH229421   4.721   4.813   8.661  0.1878  0.2459 -0.2193
 2621TIP3    H129422   4.738   4.907   8.662 -1.0669  0.5483  2.6460
 2621TIP3    H229423   4.790   4.777   8.717 -0.3397 -0.2928  0.0931
 2622TIP3   OH229424   6.339   5.377   1.317  0.1737  0.5086 -0.7305
 2622TIP3    H129425   6.381   5.462   1.333 -0.2760  0.5458  0.3166
 2622TIP3    H229426   6.411   5.320   1.290  0.1265  1.8122 -3.9602
 2623TIP3   OH229427   2.639   4.421   7.896 -0.0744  0.3115  0.9480
 2623TIP3    H129428   2.639   4.488   7.828 -0.9492 -0.7771 -0.1936
 2623TIP3    H229429   2.730   4.411   7.921  0.4346  0.0272 -0.8551
 2624TIP3   OH229430   0.266   5.961   1.750 -0.3675 -0.2560  0.3661
 2624TIP3    H129431   0.319   5.883   1.733  0.9376  0.7103 -0.2736
 2624TIP3    H229432   0.317   6.032   1.711 -1.5009  0.9211  0.9682
 2625TIP3   OH229433   1.025   3.163   7.930  0.9771  0.0400 -0.7627
 2625TIP3    H129434   1.006   3.177   7.837 -0.0709 -4.3554 -1.4482
 2625TIP3    H229435   0.942   3.132   7.967  2.1072 -1.2682  0.8538
 2626TIP3   OH229436   3.347   0.225   7.976  0.0834  0.5642 -0.3503
 2626TIP3    H129437   3.316   0.139   8.005  0.0066  1.5842  3.1172
 2626TIP3    H229438   3.267   0.272   7.950  0.1032 -0.2723 -2.0523
 2627TIP3   OH229439   5.741   0.132   6.246 -0.1013 -0.6102  0.4554
 2627TIP3    H129440   5.668   0.097   6.297  0.3800 -1.1826  0.7584
 2627TIP3    H229441   5.728   0.227   6.250 -0.2566 -0.6541  1.3856
 2628TIP3   OH229442   4.937   4.899   0.219  0.6278  0.3378  0.0181
 2628TIP3    H129443   4.903   4.829   0.162  3.0244 -0.2840 -0.7867
 2628TIP3    H229444   4.922   4.867   0.308  1.5109 -1.1999 -0.3327
 2629TIP3   OH229445   6.425   4.439   0.628  0.1107  0.7539 -0.0178
 2629TIP3    H129446   6.362   4.367   0.620  1.1330 -0.1276 -0.2474
 2629TIP3    H229447   6.456   4.433   0.718  2.3300 -0.9516 -0.8067
 2630TIP3   OH229448   2.120   3.139   0.496 -0.3236  0.4110 -0.3438
 2630TIP3    H129449   2.107   3.047   0.476  1.5633 -0.2740  1.1886
 2630TIP3    H229450   2.113   3.184   0.412 -0.1328 -1.2857 -1.2981
 2631TIP3   OH229451   1.797   6.592   8.478  0.0397  0.3437 -0.1196
 2631TIP3    H129452   1.759   6.676   8.453  0.7195  0.1746 -1.8479
 2631TIP3    H229453   1.846   6.564   8.401 -0.0216 -1.5625  0.4887
 2632TIP3   OH229454   1.938   5.775   1.380  0.0805  0.3684 -0.0275
 2632TIP3    H129455   2.002   5.824   1.431 -1.4069  1.7468  0.5826
 2632TIP3    H229456   1.991   5.718   1.323  1.8088  1.0718  0.8181
 2633TIP3   OH229457   0.053   2.015   7.536 -0.4373 -0.0904  0.4159
 2633TIP3    H129458   0.075   1.922   7.540 -0.5973 -0.1484 -0.0113
 2633TIP3    H229459   0.138   2.059   7.529 -0.2784 -0.1200  1.8502
 2634TIP3   OH229460   2.931   5.919   0.795 -0.2646 -0.2373 -0.1305
 2634TIP3    H129461   2.948   6.008   0.763  1.5596 -1.1312 -1.9139
 2634TIP3    H229462   2.835   5.911   0.794 -0.4156  0.8477 -2.6374
 2635TIP3   OH229463   3.005   3.065   1.419  0.1649  0.0535 -0.0329
 2635TIP3    H129464   2.933   3.006   1.397 -0.5498 -0.0665  2.3817
 2635TIP3    H229465   3.058   3.016   1.482  3.1011 -0.2937 -2.5226
 2636TIP3   OH229466   3.087   2.502   1.505  0.1019 -0.8252  0.0306
 2636TIP3    H129467   3.051   2.567   1.445 -1.4598 -0.5006  1.2851
 2636TIP3    H229468   3.020   2.490   1.572  0.3903 -3.6055 -0.0524
 2637TIP3   OH229469   5.604   4.158   7.496 -0.5506 -0.3024 -0.2569
 2637TIP3    H129470   5.670   4.105   7.452 -1.2624 -0.8176 -0.7371
 2637TIP3    H229471   5.531   4.097   7.510 -1.6517  0.6964 -1.4114
 2638TIP3   OH229472   5.183   5.592   7.486 -0.4839 -0.1354 -0.3098
 2638TIP3    H129473   5.107   5.536   7.497  0.0299 -0.3723  2.8352
 2638TIP3    H229474   5.147   5.681   7.482 -1.0825 -0.4163 -2.3232
 2639TIP3   OH229475   6.512   1.631   1.860 -0.3880  0.3019 -0.2176
 2639TIP3    H129476   6.538   1.720   1.883  0.7234 -0.2740  0.8830
 2639TIP3    H229477   6.514   1.583   1.942 -0.5093 -0.8498 -0.8593
 2640TIP3   OH229478   4.820   0.120   1.449  0.3135  0.2859  0.2152
 2640TIP3    H129479   4.876   0.096   1.376  0.5588  0.5657  0.3085
 2640TIP3    H229480   4.767   0.193   1.416 -1.1787 -1.0218 -0.4157
 2641TIP3   OH229481   0.312   4.226   2.692  0.1175 -0.7217  0.0289
 2641TIP3    H129482   0.313   4.278   2.611 -1.5163  0.5936  0.7847
 2641TIP3    H229483   0.228   4.179   2.688 -0.1902 -0.2824  1.1687
 2642TIP3   OH229484   5.206   1.577   7.521  0.5792 -0.1148  0.4791
 2642TIP3    H129485   5.171   1.545   7.604 -0.0839  1.0039  0.6588
 2642TIP3    H229486   5.133   1.566   7.459 -0.1343  2.1342  0.8296
 2643TIP3   OH229487   0.859   4.649   1.337  0.0309  0.0100  0.1979
 2643TIP3    H129488   0.863   4.736   1.297  1.6617  0.8070  1.9574
 2643TIP3    H229489   0.900   4.591   1.273 -2.0985  0.2484 -1.5023
 2644TIP3   OH229490   3.659   6.652   0.844 -0.4011 -0.4522  0.4168
 2644TIP3    H129491   3.691   6.567   0.875 -2.0613 -1.5002 -0.5894
 2644TIP3    H229492   3.638   6.638   0.752 -0.3351  1.1881  0.1201
 2645TIP3   OH229493   5.912   3.450   7.258  0.1791 -0.5930  0.3534
 2645TIP3    H129494   5.821   3.480   7.261  0.8799  1.7033  0.7235
 2645TIP3    H229495   5.941   3.470   7.169  1.7385  3.7695  1.5453
 2646TIP3   OH229496   0.486   5.458   1.955 -1.0476  0.4748  0.1727
 2646TIP3    H129497   0.410   5.452   1.897 -1.3182  0.8846  0.4792
 2646TIP3    H229498   0.561   5.470   1.896 -1.3151  0.8657 -0.0896
 2647TIP3   OH229499   2.636   3.903   0.567 -0.1391 -0.3286  0.3897
 2647TIP3    H129500   2.564   3.851   0.531  0.2197 -1.4274  1.2279
 2647TIP3    H229501   2.595   3.956   0.635 -0.5204  0.5972 -0.5231
 2648TIP3   OH229502   3.714   5.166   0.114 -0.0242  0.4484 -0.1302
 2648TIP3    H129503   3.716   5.173   0.018  1.4695  0.6197 -0.1049
 2648TIP3    H229504   3.648   5.230   0.141 -0.6461  0.2186 -1.0499
 2649TIP3   OH229505   3.885   4.355   2.451  0.5677 -0.6034 -0.1034
 2649TIP3    H129506   3.897   4.450   2.456  0.7897 -0.6711  0.8202
 2649TIP3    H229507   3.941   4.320   2.520 -1.3513 -1.2495  1.2016
 2650TIP3   OH229508   0.349   6.671   2.017 -1.2417  0.0335 -0.3000
 2650TIP3    H129509   0.326   6.616   1.942 -2.4056  1.2934 -0.9125
 2650TIP3    H229510   0.437   6.703   1.997 -1.9271  1.1966 -1.7138
 2651TIP3   OH229511   6.249   3.719   2.426 -0.5304 -0.0851 -0.0872
 2651TIP3    H129512   6.172   3.739   2.374  0.8907 -1.1156 -2.8530
 2651TIP3    H229513   6.252   3.623   2.429  1.0911 -0.1031 -0.8931
 2652TIP3   OH229514   5.525   4.600   1.164 -0.0136  0.3585  0.1657
 2652TIP3    H129515   5.495   4.531   1.224 -1.8430  0.7561 -0.2333
 2652TIP3    H229516   5.564   4.666   1.222 -0.2883  0.0028  0.7659
 2653TIP3   OH229517   5.611   1.690   0.677  0.1051  0.6806  0.1855
 2653TIP3    H129518   5.621   1.652   0.590  0.7267  0.5278  0.3164
 2653TIP3    H229519   5.551   1.630   0.722  2.4679 -1.2880  0.9904
 2654TIP3   OH229520   0.531   0.474   1.358  0.5519 -0.5101  0.3403
 2654TIP3    H129521   0.474   0.414   1.310 -0.4526 -0.1023  0.9843
 2654TIP3    H229522   0.608   0.484   1.302  0.3531 -1.6948 -0.1900
 2655TIP3   OH229523   5.148   5.546   1.701 -0.2883  0.5363 -1.1066
 2655TIP3    H129524   5.163   5.487   1.775 -0.1655  1.8130 -0.0675
 2655TIP3    H229525   5.208   5.619   1.717 -0.7660  1.1602 -2.0973
 2656TIP3   OH229526   6.095   5.617   1.682  0.1014  0.5424  0.4084
 2656TIP3    H129527   6.042   5.687   1.719  1.5878  1.4498  0.9170
 2656TIP3    H229528   6.106   5.554   1.754 -1.0971 -0.1608  0.0001
 2657TIP3   OH229529   2.608   3.560   1.646  0.5876 -0.2761  0.4387
 2657TIP3    H129530   2.557   3.561   1.564  1.6999  0.6032 -0.2801
 2657TIP3    H229531   2.542   3.557   1.715 -0.4020 -0.5071 -0.4881
 2658TIP3   OH229532   0.438   1.336   0.398 -0.2295 -0.0959  0.1010
 2658TIP3    H129533   0.429   1.431   0.409  1.6863  0.0734  0.5444
 2658TIP3    H229534   0.475   1.306   0.481 -1.1843 -1.3071  0.1106
 2659TIP3   OH229535   0.649   5.870   7.530  0.0326 -0.3882 -0.2884
 2659TIP3    H129536   0.646   5.959   7.494  1.9279 -0.7372 -1.4063
 2659TIP3    H229537   0.709   5.877   7.605  0.7617 -0.8505 -0.8185
 2660TIP3   OH229538   1.563   3.646   1.890  0.4168 -0.6967 -0.0421
 2660TIP3    H129539   1.552   3.721   1.832 -1.6726 -1.1579 -0.3422
 2660TIP3    H229540   1.551   3.570   1.834 -0.8231 -1.1597  0.7956
 2661TIP3   OH229541   1.116   3.147   1.990 -0.3069  0.5006 -0.0608
 2661TIP3    H129542   1.075   3.231   1.967 -1.9970 -0.1778  0.3272
 2661TIP3    H229543   1.096   3.089   1.917 -1.2189 -0.2022  0.7117
 2662TIP3   OH229544   2.588   1.198   7.920  0.5218 -0.2991 -0.2950
 2662TIP3    H129545   2.535   1.225   7.845 -0.9965 -2.4764 -0.1072
 2662TIP3    H229546   2.569   1.105   7.931  1.6123 -0.3274  2.0619
 2663TIP3   OH229547   6.549   5.510   1.091 -0.4502  0.0781 -0.2551
 2663TIP3    H129548   6.543   5.553   1.176 -0.4782  0.2478 -0.3430
 2663TIP3    H229549   6.459   5.485   1.070 -0.5336  0.6096 -0.5306
 2664TIP3   OH229550   1.616   0.366   8.485  0.2890 -0.0923  0.1105
 2664TIP3    H129551   1.626   0.445   8.539  2.8149 -2.4907  3.5888
 2664TIP3    H229552   1.687   0.373   8.421  0.4476  0.5169  0.3367
 2665TIP3   OH229553   2.232   3.092   7.494 -0.1939 -0.4942 -0.2186
 2665TIP3    H129554   2.239   3.004   7.530 -0.5210 -0.5179 -0.2112
 2665TIP3    H229555   2.319   3.129   7.505 -0.0779 -0.7858 -0.1410
 2666TIP3   OH229556   0.842   4.446   8.583  0.0535 -0.0490 -0.0609
 2666TIP3    H129557   0.905   4.479   8.519  0.4120  0.5474  0.5843
 2666TIP3    H229558   0.792   4.380   8.536  0.8653 -0.2105 -0.7170
 2667TIP3   OH229559   6.036   5.074   0.932  0.1509 -0.7935 -0.1291
 2667TIP3    H129560   6.098   5.038   0.868  0.1664 -1.3929  0.2095
 2667TIP3    H229561   6.084   5.143   0.976  0.5634 -1.2119  0.0854
 2668TIP3   OH229562   4.540   5.980   1.540 -0.1115  0.1050 -0.5632
 2668TIP3    H129563   4.605   5.925   1.497 -0.5974 -1.1914  0.2739
 2668TIP3    H229564   4.503   5.923   1.608 -0.5369  1.5296  0.4453
 2669TIP3   OH229565   3.131   0.400   0.320 -0.8815  0.1030  0.0263
 2669TIP3    H129566   3.069   0.450   0.374 -0.9027 -1.8824  2.0101
 2669TIP3    H229567   3.201   0.376   0.381 -0.0508 -0.8557 -1.2679
 2670TIP3   OH229568   0.882   1.739   8.598 -0.5671 -0.0331  0.1454
 2670TIP3    H129569   0.858   1.773   8.512  0.1548  0.5577  0.1782
 2670TIP3    H229570   0.933   1.660   8.580 -0.5575 -0.0011  0.0352
 2671TIP3   OH229571   2.161   2.829   7.823  0.4613  0.4231 -0.4151
 2671TIP3    H129572   2.209   2.750   7.848 -0.0454 -0.1494 -1.1849
 2671TIP3    H229573   2.070   2.801   7.820  0.4626  0.4624 -2.7243
 2672TIP3   OH229574   4.580   3.583   1.810  0.3082 -0.1816  0.2512
 2672TIP3    H129575   4.500   3.625   1.843 -0.5918  0.6568 -2.6534
 2672TIP3    H229576   4.575   3.493   1.842 -0.4896  0.4973  2.1852
 2673TIP3   OH229577   1.763   0.960   2.662  0.0477  0.2411  0.2058
 2673TIP3    H129578   1.770   0.868   2.641  1.1392  0.1941  0.7087
 2673TIP3    H229579   1.674   0.984   2.637 -0.2562 -0.9503  0.1095
 2674TIP3   OH229580   3.544   0.218   0.328  0.1583 -0.0696 -0.2278
 2674TIP3    H129581   3.597   0.155   0.279 -0.8499 -1.4897  0.4230
 2674TIP3    H229582   3.523   0.286   0.265  0.0901 -1.1215 -1.3825
 2675TIP3   OH229583   6.139   3.660   6.626  0.0615 -0.1000 -0.2491
 2675TIP3    H129584   6.229   3.689   6.640 -0.1582  1.1563 -1.2442
 2675TIP3    H229585   6.136   3.572   6.664  1.6785 -0.1343 -0.1194
 2676TIP3   OH229586   6.067   3.129   3.087 -0.2021 -0.5433  1.0182
 2676TIP3    H129587   6.008   3.081   3.029  0.5374 -2.5948  1.8587
 2676TIP3    H229588   6.035   3.110   3.175 -1.0026  2.1100  1.3840
 2677TIP3   OH229589   0.322   0.010   0.052  0.0563 -0.2473 -0.2852
 2677TIP3    H129590   0.382  -0.031   0.114  1.1938  0.3969 -0.9330
 2677TIP3    H229591   0.238  -0.035   0.067  0.6960 -1.2037  0.5921
 2678TIP3   OH229592   4.786   5.681   6.905 -0.3385 -0.0785  0.2116
 2678TIP3    H129593   4.800   5.769   6.939  2.0000 -0.3006 -0.0649
 2678TIP3    H229594   4.776   5.693   6.811 -0.1723 -0.1026  0.1917
 2679TIP3   OH229595   2.946   5.170   8.471  0.0972 -0.5056  0.1212
 2679TIP3    H129596   3.003   5.133   8.538 -0.7368 -1.4770  0.3265
 2679TIP3    H229597   3.005   5.193   8.399  0.8928 -0.2639  0.8328
 2680TIP3   OH229598   1.432   6.278   0.221  0.3612  0.0726 -0.6732
 2680TIP3    H129599   1.498   6.233   0.273  0.6029 -0.7148 -1.6364
 2680TIP3    H229600   1.482   6.333   0.161  0.1061  0.3821 -0.6081
 2681TIP3   OH229601   6.814   6.593   6.909 -0.8385  0.4240  0.0523
 2681TIP3    H129602   6.778   6.556   6.828 -0.9046  1.1555 -0.2584
 2681TIP3    H229603   6.861   6.520   6.950  0.7563  0.4557 -1.5652
 2682TIP3   OH229604   2.448   3.574   8.287  0.1005  0.6855 -0.0705
 2682TIP3    H129605   2.499   3.508   8.239  0.8685  0.6190  0.8064
 2682TIP3    H229606   2.362   3.574   8.244  0.2405 -0.5453 -0.3886
 2683TIP3   OH229607   0.828   2.972   8.308  0.0974  0.0437  0.4438
 2683TIP3    H129608   0.825   3.015   8.222  2.1113  3.4046  1.8617
 2683TIP3    H229609   0.767   3.023   8.362 -0.0224 -1.0644  1.3918
 2684TIP3   OH229610   1.839   2.835   0.426  0.0580  0.2179  0.1732
 2684TIP3    H129611   1.900   2.775   0.384 -0.5646 -0.2630 -0.0718
 2684TIP3    H229612   1.831   2.803   0.516 -0.9991 -0.6623 -0.2149
 2685TIP3   OH229613   5.694   3.370   7.927 -0.0804 -0.2792 -0.5046
 2685TIP3    H129614   5.716   3.277   7.922 -0.8023 -0.6647  2.2700
 2685TIP3    H229615   5.619   3.380   7.868  0.5256 -1.2502 -1.4748
 2686TIP3   OH229616   1.617   1.772   2.735  0.4743 -0.0410  0.5100
 2686TIP3    H129617   1.687   1.821   2.693 -0.3699  0.4835 -0.3477
 2686TIP3    H229618   1.553   1.838   2.761  0.5583 -0.4530  1.8206
 2687TIP3   OH229619   0.028   1.180   7.225  0.0776  0.9669  0.0092
 2687TIP3    H129620   0.014   1.260   7.275  2.6346  0.7616  1.2456
 2687TIP3    H229621   0.083   1.207   7.151 -0.9821  0.7150 -0.8953
 2688TIP3   OH229622   5.964   3.572   1.350  0.2355  0.4087  0.1748
 2688TIP3    H129623   5.916   3.490   1.365 -0.0851  0.8836  2.0731
 2688TIP3    H229624   5.899   3.630   1.310 -0.9055  1.0665  2.7819
 2689TIP3   OH229625   0.742   4.762   1.049  0.9973  0.7269 -0.4318
 2689TIP3    H129626   0.785   4.842   1.079  2.0834  0.6539 -1.7157
 2689TIP3    H229627   0.765   4.755   0.957  0.5334 -0.8338 -0.4617
 2690TIP3   OH229628   0.633   2.749   0.118 -0.3185 -0.3529 -0.0775
 2690TIP3    H129629   0.564   2.682   0.120  0.2000 -0.8941 -0.0036
 2690TIP3    H229630   0.588   2.829   0.092 -1.1838 -0.4509  1.0223
 2691TIP3   OH229631   3.053   4.877   0.245 -0.2774  0.1077 -0.3509
 2691TIP3    H129632   3.061   4.842   0.333  0.2065  1.9049  0.3556
 2691TIP3    H229633   2.959   4.873   0.226 -0.6011  1.2131  0.9072
 2692TIP3   OH229634   2.056   0.476   2.319 -0.0813  0.3310 -0.1700
 2692TIP3    H129635   2.042   0.549   2.379 -3.6358 -1.0607  0.9983
 2692TIP3    H229636   2.143   0.443   2.340 -0.3890  1.1463  2.8710
 2693TIP3   OH229637   1.872   5.116   8.202 -0.2383  0.0164  0.6995
 2693TIP3    H129638   1.866   5.210   8.222  1.3493  0.3451 -0.1756
 2693TIP3    H229639   1.814   5.074   8.266 -0.7323  1.5611  1.3186
 2694TIP3   OH229640   5.555   1.677   2.122 -0.5873  0.2484 -0.0138
 2694TIP3    H129641   5.631   1.674   2.180 -0.6196 -0.2969 -0.0007
 2694TIP3    H229642   5.585   1.726   2.045 -0.0124 -0.5700 -0.3181
 2695TIP3   OH229643   6.038   2.376   1.677 -0.0015  0.4163 -0.0334
 2695TIP3    H129644   6.116   2.323   1.691 -1.2944 -1.4136  0.6058
 2695TIP3    H229645   6.003   2.392   1.765 -1.4667 -0.6016 -0.3905
 2696TIP3   OH229646   0.581   5.745   2.412 -0.1996 -0.0387  0.3621
 2696TIP3    H129647   0.619   5.760   2.498 -1.0801  0.7488  0.6295
 2696TIP3    H229648   0.650   5.769   2.350 -1.1598  4.7289  0.7500
 2697TIP3   OH229649   1.669   1.506   0.139 -0.3460  0.4662  0.6317
 2697TIP3    H129650   1.576   1.489   0.127 -0.3108 -0.6620  1.7053
 2697TIP3    H229651   1.677   1.534   0.230  0.2661  1.4797  0.2839
 2698TIP3   OH229652   1.967   1.539   7.468  0.3360  0.9456 -0.3252
 2698TIP3    H129653   1.973   1.549   7.563  0.8968  1.0814 -0.3706
 2698TIP3    H229654   1.929   1.621   7.437  3.0184  2.2382 -0.5015
 2699TIP3   OH229655   5.535   2.984   7.243  0.0401 -0.2018 -0.7757
 2699TIP3    H129656   5.584   2.906   7.270  0.5672  0.2024 -0.5605
 2699TIP3    H229657   5.475   3.000   7.315  1.6099  1.0185  0.3280
 2700TIP3   OH229658   3.262   3.222   0.527  0.5900 -0.1098 -0.0482
 2700TIP3    H129659   3.169   3.244   0.521  0.5674  0.4189  1.6982
 2700TIP3    H229660   3.279   3.168   0.450 -0.7156  1.3203 -1.4110
 2701TIP3   OH229661   1.832   0.480   8.329  0.4323  0.2340 -0.3380
 2701TIP3    H129662   1.780   0.470   8.250  0.5070  0.9256 -0.4792
 2701TIP3    H229663   1.855   0.573   8.332 -0.0063  0.3300  0.7658
 2702TIP3   OH229664   6.312   3.392   0.907 -0.4676 -0.0558 -0.2625
 2702TIP3    H129665   6.404   3.375   0.886 -0.6254  0.9555 -1.9570
 2702TIP3    H229666   6.309   3.394   1.003  0.5872 -3.6314 -0.0220
 2703TIP3   OH229667   0.581   3.405   8.513  0.1097  0.3819 -0.3433
 2703TIP3    H129668   0.629   3.467   8.458  1.9136 -0.1423  0.5607
 2703TIP3    H229669   0.588   3.442   8.602 -2.7699  1.2320 -0.3827
 2704TIP3   OH229670   4.083   4.040   8.768 -0.0353 -0.3328 -0.0646
 2704TIP3    H129671   4.141   3.967   8.746  0.6968  0.4233 -0.7197
 2704TIP3    H229672   3.997   4.014   8.735 -0.0687 -1.4305  0.8391
 2705TIP3   OH229673   6.207   6.727   1.913 -0.4391 -0.1541 -0.1404
 2705TIP3    H129674   6.125   6.744   1.959 -0.1908 -0.0862  0.2834
 2705TIP3    H229675   6.184   6.731   1.820 -0.8897 -0.0104 -0.0238
 2706TIP3   OH229676   4.864   5.896   0.304 -0.3956  0.0719  0.0260
 2706TIP3    H129677   4.945   5.918   0.350  1.7546 -3.6754 -1.4818
 2706TIP3    H229678   4.838   5.811   0.339 -1.7640 -0.3703 -1.8780
 2707TIP3   OH229679   3.682   4.758   0.359 -0.0770 -0.2596 -0.7458
 2707TIP3    H129680   3.590   4.778   0.345  0.2168  1.1785 -0.7910
 2707TIP3    H229681   3.709   4.816   0.430  0.9405 -0.1765 -1.1782
 2708TIP3   OH229682   3.200   0.461   1.568  0.0793  0.0620 -0.5374
 2708TIP3    H129683   3.110   0.466   1.537  0.0348 -1.0866 -0.6160
 2708TIP3    H229684   3.236   0.382   1.528 -0.0593 -1.7071  2.5320
 2709TIP3   OH229685   5.755   5.095   1.396 -0.6054 -0.1859  0.2834
 2709TIP3    H129686   5.660   5.108   1.395 -0.5081  0.7989  1.5295
 2709TIP3    H229687   5.775   5.071   1.487  0.3781 -0.0821  0.1018
 2710TIP3   OH229688   1.000   0.545   2.361 -0.5736  0.0350 -0.2405
 2710TIP3    H129689   0.950   0.572   2.283 -0.4832  0.7326 -0.0674
 2710TIP3    H229690   0.943   0.483   2.406 -0.2825 -1.0323 -1.2973
 2711TIP3   OH229691   6.683   2.465   8.051  0.0696  0.7995 -0.5743
 2711TIP3    H129692   6.588   2.474   8.045 -0.1465 -1.2270 -0.9862
 2711TIP3    H229693   6.697   2.406   8.125  0.9345  0.3202 -1.1015
 2712TIP3   OH229694   3.927   2.760   1.411  0.0985  0.4630  0.6848
 2712TIP3    H129695   4.012   2.751   1.368  0.0906 -0.7119  0.8810
 2712TIP3    H229696   3.873   2.692   1.372 -1.2360  2.1161 -0.4886
 2713TIP3   OH229697   5.111   3.860   0.608 -0.8293  0.2069 -0.0353
 2713TIP3    H129698   5.056   3.907   0.545 -0.2389  1.0047  0.0173
 2713TIP3    H229699   5.200   3.873   0.575 -0.4045  1.5626  1.5222
 2714TIP3   OH229700   2.366   0.226   2.277  0.1852 -0.1287 -0.2961
 2714TIP3    H129701   2.407   0.167   2.340 -0.3503 -0.4353 -0.2265
 2714TIP3    H229702   2.345   0.304   2.327  1.8720  0.5834 -0.6220
 2715TIP3   OH229703   6.741   4.223   0.374  0.3841  0.2154  0.0186
 2715TIP3    H129704   6.664   4.279   0.376 -0.0694 -0.3639 -0.7963
 2715TIP3    H229705   6.736   4.172   0.455  0.4315  0.8477  0.4267
 2716TIP3   OH229706   0.184   1.017   0.066  0.0587 -0.2336  0.5433
 2716TIP3    H129707   0.177   0.927   0.035  0.3358 -0.2070  0.4009
 2716TIP3    H229708   0.197   1.009   0.161  0.9566 -0.3810  0.4215
 2717TIP3   OH229709   3.974   3.957   1.643 -0.4572  0.0714  0.6107
 2717TIP3    H129710   3.898   3.952   1.701 -0.3298  0.0673  0.7794
 2717TIP3    H229711   3.963   4.039   1.596 -1.3792 -0.6624 -0.5096
 2718TIP3   OH229712   4.967   1.570   0.973  0.6733  0.1124 -0.2692
 2718TIP3    H129713   5.031   1.546   1.041 -1.5200  0.6551  2.1744
 2718TIP3    H229714   4.886   1.527   1.001  0.0447 -1.2093 -3.6706
 2719TIP3   OH229715   2.340   3.992   8.126 -0.8130  0.0655  0.6481
 2719TIP3    H129716   2.377   4.078   8.145  2.2952 -1.2972  1.4223
 2719TIP3    H229717   2.303   3.963   8.210 -1.5137  0.4558  0.4829
 2720TIP3   OH229718   4.496   0.062   8.384 -0.5987 -0.0153 -0.3996
 2720TIP3    H129719   4.551   0.115   8.442 -2.6430 -0.0117  1.6905
 2720TIP3    H229720   4.465  -0.010   8.439 -1.1406 -1.0843 -2.0342
 2721TIP3   OH229721   5.457   2.226   0.983 -0.4916  0.1245  0.4175
 2721TIP3    H129722   5.382   2.257   0.933 -1.1208  0.6945  1.6700
 2721TIP3    H229723   5.474   2.138   0.948  0.5492  1.2986 -2.3323
 2722TIP3   OH229724   1.019   3.737   1.018 -0.1201 -0.2249  0.4592
 2722TIP3    H129725   1.111   3.753   1.035  0.0719 -0.2267 -0.5654
 2722TIP3    H229726   0.983   3.823   0.994 -0.0508 -0.4980 -0.6447
 2723TIP3   OH229727   2.963   6.599   2.807  0.9619 -0.6102 -0.5709
 2723TIP3    H129728   3.006   6.615   2.891  0.6394  0.4143 -0.5934
 2723TIP3    H229729   2.995   6.668   2.749  0.0700 -0.4302 -0.8750
 2724TIP3   OH229730   2.702   6.217   7.639  0.3351  0.0879  0.3350
 2724TIP3    H129731   2.684   6.305   7.671  2.4843  0.9765 -0.6412
 2724TIP3    H229732   2.704   6.227   7.543  1.3684 -0.8163  0.2388
 2725TIP3   OH229733   0.602   6.562   8.765  0.0230 -0.4327 -0.5129
 2725TIP3    H129734   0.603   6.471   8.735 -2.4038 -0.9217  0.6969
 2725TIP3    H229735   0.619   6.613   8.686 -0.1311 -1.8737 -1.5293
 2726TIP3   OH229736   3.567   3.440   3.108 -0.1344  0.5260 -0.6548
 2726TIP3    H129737   3.503   3.369   3.106 -1.0069  1.1709  1.8858
 2726TIP3    H229738   3.651   3.395   3.118 -0.6004 -0.1790  0.2162
 2727TIP3   OH229739   4.086   5.585   0.957 -0.2552 -0.3099 -0.0060
 2727TIP3    H129740   4.128   5.656   0.908 -0.8564  0.0466 -0.0194
 2727TIP3    H229741   4.077   5.619   1.046 -1.0068 -0.1644 -0.1301
 2728TIP3   OH229742   2.811   6.410   2.714  0.1620 -0.0462 -0.2520
 2728TIP3    H129743   2.872   6.456   2.771  2.2625 -1.8978 -0.8777
 2728TIP3    H229744   2.743   6.377   2.773 -0.3048  2.0152  0.4602
 2729TIP3   OH229745   0.431   4.764   8.135 -0.5957  0.3926  0.0435
 2729TIP3    H129746   0.437   4.713   8.054 -1.5741  1.8486 -0.9960
 2729TIP3    H229747   0.390   4.705   8.198  1.5102 -1.2720 -0.0147
 2730TIP3   OH229748   5.637   0.550   2.201  0.0410 -0.0527 -0.0795
 2730TIP3    H129749   5.688   0.592   2.132  1.8596 -0.9817  0.6265
 2730TIP3    H229750   5.558   0.519   2.157  0.2932  0.9989 -1.3326
 2731TIP3   OH229751   4.618   2.344   7.457  0.5890  0.0479  0.3101
 2731TIP3    H129752   4.582   2.430   7.438 -0.6105 -0.4680  0.1469
 2731TIP3    H229753   4.547   2.283   7.438  1.9439 -1.1574 -1.3216
 2732TIP3   OH229754   3.797   6.083   1.371  0.4956 -0.0555  0.0130
 2732TIP3    H129755   3.821   6.172   1.344 -1.4292  1.2557  2.1869
 2732TIP3    H229756   3.718   6.064   1.321 -1.8036  1.4957  2.7152
 2733TIP3   OH229757   2.183   5.767   7.897  0.3577  0.0223  0.0873
 2733TIP3    H129758   2.197   5.861   7.909  0.7796 -0.0796  0.3835
 2733TIP3    H229759   2.094   5.752   7.930  0.4372  0.2487  0.4104
 2734TIP3   OH229760   6.467   6.615   1.278  0.0191 -0.3339  0.0194
 2734TIP3    H129761   6.383   6.608   1.323 -0.0208 -0.5889 -0.0956
 2734TIP3    H229762   6.532   6.604   1.347 -0.0139  1.4096  0.3903
 2735TIP3   OH229763   5.978   1.723   8.611 -0.4657  0.3194 -0.4068
 2735TIP3    H129764   5.979   1.817   8.630 -3.2933  0.8490 -2.3054
 2735TIP3    H229765   5.985   1.682   8.697  1.4714  2.1776  0.4340
 2736TIP3   OH229766   0.493   6.786   7.297  0.0443 -0.1327  0.1469
 2736TIP3    H129767   0.525   6.824   7.215  2.1137 -1.3415  0.3128
 2736TIP3    H229768   0.433   6.717   7.269  0.3948 -0.2397 -0.3645
 2737TIP3   OH229769   0.734   2.656   7.737  0.2114  0.1579  0.2149
 2737TIP3    H129770   0.816   2.608   7.750  0.5576  0.4451 -0.7806
 2737TIP3    H229771   0.702   2.674   7.825  0.8609 -0.5636  0.6122
 2738TIP3   OH229772   1.532   0.767   1.932 -0.2343  0.1883 -0.2943
 2738TIP3    H129773   1.469   0.839   1.925  0.4033  0.6034 -2.5586
 2738TIP3    H229774   1.615   0.805   1.903  0.6263 -0.8897  0.6733
 2739TIP3   OH229775   4.609   1.674   1.565 -0.1725  0.2604  0.8264
 2739TIP3    H129776   4.545   1.627   1.618 -0.9784 -2.0296 -1.8961
 2739TIP3    H229777   4.560   1.746   1.527 -0.6506 -0.3609  0.2425
 2740TIP3   OH229778   4.198   1.101   8.264 -0.2868 -0.0758  0.2211
 2740TIP3    H129779   4.173   1.054   8.343 -0.4658 -2.5436 -1.2051
 2740TIP3    H229780   4.289   1.076   8.248 -0.8432 -1.2557 -1.3895
 2741TIP3   OH229781   3.696   3.888   2.087  0.2566 -0.1881  0.2091
 2741TIP3    H129782   3.602   3.872   2.084 -0.2992  1.9745  2.7061
 2741TIP3    H229783   3.734   3.804   2.110 -1.0632 -1.0044 -0.4624
 2742TIP3   OH229784   5.635   3.312   1.883  0.0868 -0.3502 -0.0490
 2742TIP3    H129785   5.556   3.355   1.913  0.1821 -0.8873  1.0447
 2742TIP3    H229786   5.668   3.366   1.812 -0.4718  0.6737  0.4631
 2743TIP3   OH229787   3.163   6.257   2.104  0.3847  0.0360  0.2024
 2743TIP3    H129788   3.193   6.344   2.129 -0.6793  0.5388 -0.1952
 2743TIP3    H229789   3.206   6.240   2.020 -0.5955  0.8581 -0.4905
 2744TIP3   OH229790   3.798   6.260   8.567  0.0687  0.3610  0.4323
 2744TIP3    H129791   3.775   6.287   8.656 -1.0197  0.9818 -0.0240
 2744TIP3    H229792   3.767   6.332   8.511 -0.3530 -0.5690 -0.5570
 2745TIP3   OH229793   4.660   3.069   1.809 -0.4116 -0.3615  0.4968
 2745TIP3    H129794   4.620   2.988   1.841  0.5313 -0.8115  0.5878
 2745TIP3    H229795   4.734   3.083   1.868 -0.4562  0.4715  0.3618
 2746TIP3   OH229796   1.132   2.026   7.507  0.3947  0.0289  0.0405
 2746TIP3    H129797   1.082   1.945   7.518 -0.8723  0.4323 -2.2368
 2746TIP3    H229798   1.087   2.090   7.562  0.2057 -0.3130  0.2876
 2747TIP3   OH229799   3.576   1.094   8.058  0.1210 -0.2844  0.5487
 2747TIP3    H129800   3.609   1.005   8.045 -1.8306 -0.8721 -0.8001
 2747TIP3    H229801   3.540   1.094   8.146 -1.5692 -1.4726 -0.0886
 2748TIP3   OH229802   4.839   3.910   2.952 -0.5329  0.4368  0.0950
 2748TIP3    H129803   4.880   3.991   2.920 -1.1239  0.6160 -0.2169
 2748TIP3    H229804   4.753   3.909   2.911 -1.0930  0.3775  1.2199
 2749TIP3   OH229805   6.286   4.608   8.567 -0.4792 -0.3137 -0.0147
 2749TIP3    H129806   6.215   4.546   8.585 -0.5111 -0.8620 -1.8760
 2749TIP3    H229807   6.362   4.569   8.609 -1.2860  0.4393  2.2894
 2750TIP3   OH229808   3.059   0.877   0.791 -0.3626 -0.4480  0.1648
 2750TIP3    H129809   3.079   0.793   0.749 -3.0310 -2.7812  3.0711
 2750TIP3    H229810   3.142   0.903   0.832  0.8526 -0.8842 -1.8456
 2751TIP3   OH229811   6.464   4.931   2.050  0.0922  0.3356 -0.5543
 2751TIP3    H129812   6.408   5.008   2.065 -0.5114 -0.0409 -0.8617
 2751TIP3    H229813   6.412   4.857   2.079  0.1933 -0.0836 -1.4074
 2752TIP3   OH229814   1.233   0.808   8.113  0.0533  0.1469  0.3803
 2752TIP3    H129815   1.255   0.780   8.024 -0.6979 -3.0003  1.0294
 2752TIP3    H229816   1.185   0.890   8.101 -1.3450 -0.9056 -2.3079
 2753TIP3   OH229817   6.299   0.383   0.313 -0.2072  0.0749 -0.1598
 2753TIP3    H129818   6.364   0.441   0.274  0.7810  1.8903  3.6846
 2753TIP3    H229819   6.232   0.442   0.348 -1.6706 -1.4836 -0.2097
 2754TIP3   OH229820   1.441   1.304   8.688 -0.5699 -0.5719 -0.3729
 2754TIP3    H129821   1.430   1.314   8.593 -1.7321 -0.9267 -0.2919
 2754TIP3    H229822   1.425   1.391   8.723  3.3380  0.4860 -0.7039
 2755TIP3   OH229823   4.084   3.441   1.244 -0.0143  0.2798 -0.1143
 2755TIP3    H129824   4.003   3.425   1.195 -0.9334 -0.0701  1.4468
 2755TIP3    H229825   4.058   3.499   1.315  0.7821 -0.9330  1.2280
 2756TIP3   OH229826   1.690   5.239   7.785  0.2549  0.2780  0.6291
 2756TIP3    H129827   1.609   5.289   7.773  1.9163  4.0152  3.0731
 2756TIP3    H229828   1.744   5.261   7.708 -0.6814 -1.7545 -0.7042
 2757TIP3   OH229829   1.787   0.028   1.902  0.0574  0.3183 -0.0117
 2757TIP3    H129830   1.773   0.043   1.996 -0.1536  1.7252 -0.2514
 2757TIP3    H229831   1.723  -0.039   1.878 -2.0537  2.1356  0.2293
 2758TIP3   OH229832   3.033   6.460   8.529 -0.6050 -0.0687  0.2578
 2758TIP3    H129833   3.125   6.432   8.534 -0.4767 -0.0271 -1.2854
 2758TIP3    H229834   3.012   6.454   8.435 -1.5526  1.8878  0.2938
 2759TIP3   OH229835   4.232   4.630   1.247 -0.2387 -0.1868 -0.5763
 2759TIP3    H129836   4.263   4.703   1.301  0.0965 -0.3665 -0.5223
 2759TIP3    H229837   4.312   4.589   1.214 -0.3542 -1.5610  0.7567
 2760TIP3   OH229838   2.266   6.453   8.670  0.3529  0.2974  0.1751
 2760TIP3    H129839   2.297   6.367   8.643  1.3274  0.6510  0.1212
 2760TIP3    H229840   2.171   6.444   8.674  0.4033 -0.6311 -0.3397
 2761TIP3   OH229841   3.694   5.486   0.697 -0.2412  0.4026  0.0428
 2761TIP3    H129842   3.610   5.532   0.700 -0.3590  0.2023 -0.1348
 2761TIP3    H229843   3.740   5.527   0.624  1.2593  2.9517  2.2250
 2762TIP3   OH229844   1.704   2.318   1.724 -0.0018  0.9437  0.0516
 2762TIP3    H129845   1.771   2.255   1.698  0.1915  1.6201 -1.1326
 2762TIP3    H229846   1.625   2.266   1.735 -0.2508  0.6720 -2.5084
 2763TIP3   OH229847   3.643   4.426   2.189  0.0388 -0.3936 -0.1251
 2763TIP3    H129848   3.718   4.479   2.159 -0.0583  0.1124  0.5142
 2763TIP3    H229849   3.630   4.452   2.280 -0.2072 -1.3077  0.1067
 2764TIP3   OH229850   4.753   2.648   7.540 -0.1887 -0.0457  0.2643
 2764TIP3    H129851   4.840   2.644   7.500 -0.4815  1.8002 -0.6709
 2764TIP3    H229852   4.692   2.645   7.466 -0.8079  1.2589  0.6837
 2765TIP3   OH229853   0.621   0.483   2.205  0.2291  0.1185 -0.3314
 2765TIP3    H129854   0.536   0.448   2.176 -0.7487  0.2862  2.0772
 2765TIP3    H229855   0.658   0.414   2.259  1.7088  0.0422 -1.3663
 2766TIP3   OH229856   5.921   1.247   2.030 -0.2317 -0.3788 -0.4263
 2766TIP3    H129857   5.839   1.200   2.017  0.0429 -0.6862 -1.0860
 2766TIP3    H229858   5.902   1.308   2.102 -0.7886 -1.0174 -0.0119
 2767TIP3   OH229859   0.293   5.996   2.050  0.4933 -0.0315 -0.0906
 2767TIP3    H129860   0.257   6.081   2.075  0.2391 -0.8301  2.5042
 2767TIP3    H229861   0.255   5.979   1.964 -0.2842  1.9912 -0.2068
 2768TIP3   OH229862   1.748   4.584   0.625  0.3962 -0.6805  0.0573
 2768TIP3    H129863   1.780   4.498   0.597 -1.3580 -0.7542 -1.9489
 2768TIP3    H229864   1.774   4.643   0.554  0.8104  0.3063  1.0062
 2769TIP3   OH229865   4.737   5.737   0.930 -0.1692  0.2683 -0.0387
 2769TIP3    H129866   4.672   5.667   0.919 -1.7266  0.8252  3.8312
 2769TIP3    H229867   4.694   5.814   0.894  0.6867 -0.3005 -2.4078
 2770TIP3   OH229868   4.004   1.749   7.604  0.3531  0.1521 -0.2488
 2770TIP3    H129869   4.099   1.757   7.593  0.5462 -0.4086  0.8462
 2770TIP3    H229870   3.967   1.794   7.529  1.4659  1.6658  0.0721
 2771TIP3   OH229871   1.670   2.760   6.677 -0.0512  0.5872 -0.0190
 2771TIP3    H129872   1.685   2.775   6.771 -0.2583  0.2669  0.0699
 2771TIP3    H229873   1.753   2.784   6.635 -0.2366  1.5557  0.1478
 2772TIP3   OH229874   6.097   6.637   6.452 -0.0423  0.1246 -0.3359
 2772TIP3    H129875   6.074   6.704   6.387  0.1624  3.7025  2.9277
 2772TIP3    H229876   6.012   6.604   6.483 -0.1790 -0.2003 -1.0323
 2773TIP3   OH229877   0.361   1.898   0.196  0.1261 -0.9030  0.4299
 2773TIP3    H129878   0.299   1.867   0.130  0.3963  1.0448 -0.8341
 2773TIP3    H229879   0.311   1.897   0.278 -1.1969 -0.5477 -0.3366
 2774TIP3   OH229880   3.507   5.247   7.998 -0.0520  0.2475  0.0820
 2774TIP3    H129881   3.486   5.331   7.959  0.7506  0.5587  0.2843
 2774TIP3    H229882   3.487   5.257   8.091  1.7003  0.8335  0.4321
 2775TIP3   OH229883   6.315   6.785   2.425 -0.4288  0.4922  0.0734
 2775TIP3    H129884   6.299   6.698   2.462 -3.0874  0.5326 -0.7958
 2775TIP3    H229885   6.386   6.771   2.362  1.2159 -0.3980  2.0159
 2776TIP3   OH229886   0.360   0.548   1.049 -0.2022 -0.4500  0.1218
 2776TIP3    H129887   0.407   0.473   1.015  1.0362 -0.2232  1.2731
 2776TIP3    H229888   0.418   0.623   1.032  0.9033 -0.4329  3.3933
 2777TIP3   OH229889   6.825   5.680   0.223  0.4423  0.0419 -0.4345
 2777TIP3    H129890   6.733   5.653   0.214  0.5301 -0.6333  0.5204
 2777TIP3    H229891   6.875   5.609   0.183  0.5331  1.0515 -2.2247
 2778TIP3   OH229892   2.022   3.588   2.844  0.6664 -0.2916  0.4094
 2778TIP3    H129893   2.105   3.633   2.830  0.2314  0.9291  1.5586
 2778TIP3    H229894   2.045   3.495   2.852  1.8449 -0.0223  0.1999
 2779TIP3   OH229895   4.470   0.175   0.010 -0.0755  0.3712  0.1634
 2779TIP3    H129896   4.501   0.233  -0.059 -1.4192  2.8160  1.5144
 2779TIP3    H229897   4.412   0.113  -0.034 -0.3230  1.4206 -1.0183
 2780TIP3   OH229898   6.076   4.983   2.472 -0.1854 -0.2917 -0.1698
 2780TIP3    H129899   6.170   4.978   2.455 -0.1575  0.1789 -0.1531
 2780TIP3    H229900   6.061   4.921   2.544 -0.0202 -0.9595 -0.6930
 2781TIP3   OH229901   6.328   5.427   2.704 -0.0012 -0.3667  0.2317
 2781TIP3    H129902   6.301   5.337   2.725 -1.5894 -0.5132 -2.0139
 2781TIP3    H229903   6.412   5.438   2.749  0.0554 -2.8432  0.8954
 2782TIP3   OH229904   0.870   1.527   2.641 -0.1477 -0.7726  0.2152
 2782TIP3    H129905   0.854   1.555   2.551  1.8199  1.6304  0.5243
 2782TIP3    H229906   0.859   1.607   2.694 -3.0598 -2.4326  2.4681
 2783TIP3   OH229907   3.851   6.604   2.375  0.0362  0.2525  0.2249
 2783TIP3    H129908   3.838   6.510   2.385  1.3983  0.1083  0.8550
 2783TIP3    H229909   3.776   6.644   2.418 -1.0177 -0.5434 -0.8337
 2784TIP3   OH229910   1.053   3.978   0.330  0.2324 -0.0092 -0.0176
 2784TIP3    H129911   1.076   4.055   0.279 -0.5723 -0.7777 -1.6235
 2784TIP3    H229912   1.127   3.918   0.319  0.0664 -0.1692 -0.2555
 2785TIP3   OH229913   1.510   5.355   8.425  0.2766 -0.2054 -0.4286
 2785TIP3    H129914   1.481   5.277   8.472  0.2679 -0.1200 -0.2926
 2785TIP3    H229915   1.600   5.370   8.456 -0.1117  0.4926  0.3855
 2786TIP3   OH229916   1.202   1.248   0.245  0.0197  0.5126  0.4291
 2786TIP3    H129917   1.211   1.298   0.326  1.4560  0.8441  0.0925
 2786TIP3    H229918   1.156   1.307   0.186  1.7152  1.4945  0.0318
 2787TIP3   OH229919   1.611   4.482   7.755 -0.2571 -0.3978 -0.6481
 2787TIP3    H129920   1.637   4.556   7.809  0.6142 -2.1062  1.4592
 2787TIP3    H229921   1.671   4.483   7.681  0.5630  0.3072  0.0097
 2788TIP3   OH229922   0.611   4.372   3.023  0.3048 -0.2187 -0.3977
 2788TIP3    H129923   0.560   4.298   3.057  2.3526 -1.8920 -0.7500
 2788TIP3    H229924   0.551   4.446   3.028 -1.0882 -1.3739  2.2087
 2789TIP3   OH229925   2.229   0.931   8.431  0.1589 -0.7659 -0.4827
 2789TIP3    H129926   2.315   0.939   8.389 -0.2777 -2.2220 -1.7304
 2789TIP3    H229927   2.171   0.983   8.374 -0.0343 -0.9312 -0.4359
 2790TIP3   OH229928   1.209   1.271   2.276  0.0679  0.0273  0.3210
 2790TIP3    H129929   1.154   1.193   2.276  1.4284 -0.9651 -0.4488
 2790TIP3    H229930   1.258   1.266   2.358 -0.9648  0.9251  1.0193
 2791TIP3   OH229931   6.092   5.395   7.673 -0.2131  0.0780  0.5058
 2791TIP3    H129932   6.083   5.490   7.676 -1.6869 -0.0612  1.1810
 2791TIP3    H229933   6.113   5.376   7.581 -0.1162  1.0336  0.3201
 2792TIP3   OH229934   5.675   2.092   8.121 -0.5260 -0.1050 -0.4202
 2792TIP3    H129935   5.645   2.012   8.165 -2.4698  0.9504  0.2872
 2792TIP3    H229936   5.670   2.070   8.028 -1.5715 -0.6580 -0.2544
 2793TIP3   OH229937   1.746   1.917   1.858 -0.2550  0.1041 -0.1907
 2793TIP3    H129938   1.785   1.926   1.771 -1.0511 -0.5740 -0.6302
 2793TIP3    H229939   1.671   1.976   1.858 -0.1392  0.2554  0.1153
 2794TIP3   OH229940   2.203   4.299   0.122  0.6557 -0.2314  0.1779
 2794TIP3    H129941   2.289   4.332   0.098  0.1897  1.2146  0.3741
 2794TIP3    H229942   2.146   4.376   0.119 -0.8633 -1.3294 -0.9848
 2795TIP3   OH229943   1.606   1.545   0.722  0.2058  0.1287  0.4002
 2795TIP3    H129944   1.571   1.591   0.798 -0.1531 -1.7020  1.4149
 2795TIP3    H229945   1.695   1.521   0.748  0.4018  0.2824 -0.1255
 2796TIP3   OH229946   0.882   3.443   1.500  0.4220 -0.1289 -0.3851
 2796TIP3    H129947   0.809   3.450   1.437 -0.0018  1.1952  0.2195
 2796TIP3    H229948   0.893   3.532   1.533  0.7438 -0.7698  1.3019
 2797TIP3   OH229949   0.890   0.311   8.059 -0.1381 -0.1906 -0.6448
 2797TIP3    H129950   0.947   0.387   8.060  0.7586 -0.8566  0.8254
 2797TIP3    H229951   0.949   0.235   8.058 -0.8816 -0.9148  1.7937
 2798TIP3   OH229952   2.298   5.281   8.520  0.5534 -0.4452 -0.3032
 2798TIP3    H129953   2.369   5.237   8.474 -0.4113 -1.9394 -0.4303
 2798TIP3    H229954   2.219   5.252   8.475 -0.2019  0.6506  0.2612
 2799TIP3   OH229955   1.611   3.957   7.913  0.0667 -0.0912 -0.0071
 2799TIP3    H129956   1.700   3.927   7.932 -0.2172 -0.5279  0.6838
 2799TIP3    H229957   1.617   4.053   7.917  0.3366 -0.1358  0.8757
 2800TIP3   OH229958   6.152   5.478   0.761 -0.4736 -0.3944 -0.5699
 2800TIP3    H129959   6.064   5.513   0.778  0.2211  1.6942 -0.9369
 2800TIP3    H229960   6.139   5.385   0.745 -2.1030 -1.2108  4.0117
 2801TIP3   OH229961   6.078   3.921   7.701  0.7246  0.1515  0.1538
 2801TIP3    H129962   6.009   3.893   7.760 -0.1113  0.6181 -0.5672
 2801TIP3    H229963   6.076   4.017   7.705  1.1757  0.1750 -0.0455
 2802TIP3   OH229964   1.169   3.878   2.223 -0.0066  0.7811 -0.4356
 2802TIP3    H129965   1.260   3.848   2.225 -0.2111  0.0808  2.3888
 2802TIP3    H229966   1.175   3.973   2.231  0.4823  0.8665 -1.6827
 2803TIP3   OH229967   2.375   3.544   6.655  0.3181 -0.2053 -0.2347
 2803TIP3    H129968   2.437   3.471   6.662 -0.0003 -0.4654 -0.0467
 2803TIP3    H229969   2.312   3.528   6.726  1.0894  1.0722  0.7869
 2804TIP3   OH229970   5.222   0.657   1.444 -0.0063  0.2860  0.3823
 2804TIP3    H129971   5.210   0.751   1.429 -2.3365 -0.1251 -0.7920
 2804TIP3    H229972   5.278   0.629   1.371  0.8190  0.7742  0.8200
 2805TIP3   OH229973   5.560   3.705   0.154  0.5485  0.1519  0.2313
 2805TIP3    H129974   5.653   3.720   0.141  1.1051 -2.2743  0.8547
 2805TIP3    H229975   5.518   3.735   0.073  2.3102 -1.9731 -1.5935
 2806TIP3   OH229976   0.742   0.344   0.495  0.2608  0.7379  0.6551
 2806TIP3    H129977   0.767   0.374   0.582 -0.4183 -0.7124  1.3812
 2806TIP3    H229978   0.662   0.294   0.508  0.3672  0.1403 -0.7308
 2807TIP3   OH229979   3.327   1.037   0.663  0.3402  0.5764 -0.1000
 2807TIP3    H129980   3.335   0.952   0.620  1.1723  0.6264 -0.0663
 2807TIP3    H229981   3.274   1.089   0.602 -1.8704 -0.5267  0.7822
 2808TIP3   OH229982   1.068   4.189   0.151  0.1825  0.1847 -0.0434
 2808TIP3    H129983   1.102   4.253   0.214  1.1988  0.5724 -0.9488
 2808TIP3    H229984   0.984   4.226   0.123  1.2695  1.7916 -1.4192
 2809TIP3   OH229985   5.586   3.992   0.465 -0.0911 -0.3459  0.2275
 2809TIP3    H129986   5.600   4.086   0.465 -0.0296 -0.3553  0.4269
 2809TIP3    H229987   5.673   3.954   0.462 -0.1304 -0.3981 -0.7380
 2810TIP3   OH229988   5.074   0.358   1.437  0.3317 -0.3345 -0.3967
 2810TIP3    H129989   5.034   0.289   1.490 -0.3106  1.0720  1.0542
 2810TIP3    H229990   5.121   0.412   1.500  1.9481 -0.1804 -1.6774
 2811TIP3   OH229991   0.396   1.297   8.724 -0.2221  0.4825 -0.3118
 2811TIP3    H129992   0.303   1.294   8.703 -0.8009  1.2584  1.8861
 2811TIP3    H229993   0.438   1.326   8.643 -1.7650 -0.6853 -1.5849
 2812TIP3   OH229994   3.267   0.355   8.519  0.1165 -0.2401  0.5475
 2812TIP3    H129995   3.250   0.271   8.476  1.2360 -0.3064  0.1990
 2812TIP3    H229996   3.220   0.349   8.602 -0.3426 -0.9492  0.2499
 2813TIP3   OH229997   0.838   3.699   7.916 -0.0445 -0.3278 -0.1963
 2813TIP3    H129998   0.786   3.780   7.912  1.4540  0.6996  0.4053
 2813TIP3    H229999   0.849   3.683   8.010  1.4914  0.0014 -0.2988
 2814TIP3   OH230000   6.773   3.047   1.265 -0.1725  0.7611  0.2969
 2814TIP3    H130001   6.760   3.017   1.175 -1.4355  2.9828 -0.3112
 2814TIP3    H230002   6.709   2.998   1.316  1.0983 -1.1201  0.1971
 2815TIP3   OH230003   5.000   1.281   2.241 -0.5722 -0.0365 -0.3427
 2815TIP3    H130004   4.939   1.274   2.315 -3.1478 -0.6627 -2.3725
 2815TIP3    H230005   4.992   1.197   2.196  1.3015  0.1514 -1.1063
 2816TIP3   OH230006   4.502   4.808   8.464 -0.1927 -0.7032  0.3499
 2816TIP3    H130007   4.523   4.902   8.458 -4.6382  0.4780  0.0974
 2816TIP3    H230008   4.541   4.781   8.548 -0.7197  2.0112  1.6097
 2817TIP3   OH230009   4.051   4.330   0.828  0.6351  0.9674 -0.2465
 2817TIP3    H130010   3.996   4.408   0.829 -0.3861  0.2932 -0.6822
 2817TIP3    H230011   4.025   4.284   0.748  1.9852  0.7049 -0.5604
 2818TIP3   OH230012   6.509   3.218   7.542 -0.2478 -0.4982  0.0325
 2818TIP3    H130013   6.474   3.281   7.478 -0.4098 -0.7742 -0.1529
 2818TIP3    H230014   6.450   3.224   7.616 -0.3380 -0.5215 -0.0368
 2819TIP3   OH230015   5.473   3.715   1.850  0.3189 -0.0102  0.5874
 2819TIP3    H130016   5.412   3.738   1.781 -1.0537 -1.2315  1.3302
 2819TIP3    H230017   5.475   3.792   1.907 -1.3495 -0.3080  1.0914
 2820TIP3   OH230018   2.376   3.955   7.569  0.2829  0.5660  0.1330
 2820TIP3    H130019   2.346   3.975   7.657 -1.9331 -0.3127 -0.3368
 2820TIP3    H230020   2.323   4.011   7.512  0.1359 -0.3934 -0.7216
 2821TIP3   OH230021   0.069   0.644   7.199  0.4718  0.6762  0.1684
 2821TIP3    H130022   0.007   0.584   7.157  0.1557  1.2833 -0.2474
 2821TIP3    H230023   0.149   0.637   7.147  0.3750  0.7511  0.0086
 2822TIP3   OH230024   6.419   3.987   2.791  0.0666  0.0056 -0.6745
 2822TIP3    H130025   6.445   4.060   2.735  2.0978 -0.1613 -0.0537
 2822TIP3    H230026   6.459   4.006   2.876 -4.5130  1.2272  1.4820
 2823TIP3   OH230027   3.572   4.180   7.200 -0.5605 -0.3082  0.1979
 2823TIP3    H130028   3.486   4.214   7.178  0.2275 -0.4160 -3.7839
 2823TIP3    H230029   3.558   4.086   7.214 -1.1617 -0.2107  0.2520
 2824TIP3   OH230030   3.101   4.336   1.368 -0.3254 -0.0993  0.1175
 2824TIP3    H130031   3.074   4.363   1.456 -0.6782  0.7139 -0.2323
 2824TIP3    H230032   3.169   4.399   1.343 -0.3476 -0.2205 -0.2572
 2825TIP3   OH230033   1.659   5.898   7.648 -0.0225  0.3851  0.2930
 2825TIP3    H130034   1.742   5.946   7.651  1.7426 -2.3753  0.0821
 2825TIP3    H230035   1.597   5.959   7.609  2.1549  2.2661 -0.4734
 2826TIP3   OH230036   4.582   1.251   7.391  0.1319 -0.1462  0.4959
 2826TIP3    H130037   4.521   1.318   7.358 -1.0690 -1.0526  0.8022
 2826TIP3    H230038   4.534   1.207   7.461  0.7495 -1.5498  0.0763
 2827TIP3   OH230039   3.362   3.780   8.114  0.2358  0.2672 -0.1998
 2827TIP3    H130040   3.295   3.847   8.131 -0.3960 -0.5655  0.6605
 2827TIP3    H230041   3.391   3.798   8.024 -0.6464  1.0754 -0.3406
 2828TIP3   OH230042   0.945   2.429   0.776 -0.3950  0.0706 -0.1508
 2828TIP3    H130043   1.019   2.445   0.835  0.7409  0.4694 -1.6125
 2828TIP3    H230044   0.986   2.391   0.698 -1.9300 -1.0579 -0.4459
 2829TIP3   OH230045   2.141   2.297   7.459  0.1489 -0.4240  0.2182
 2829TIP3    H130046   2.064   2.277   7.406  0.4260  0.8131 -0.6977
 2829TIP3    H230047   2.210   2.315   7.396  0.8124 -0.1293  1.0128
 2830TIP3   OH230048   4.462   3.944   0.759 -0.1564 -0.0599  0.2058
 2830TIP3    H130049   4.453   4.025   0.708 -0.4855  0.9051  1.7242
 2830TIP3    H230050   4.474   3.875   0.694  0.2341  1.2259 -1.1234
 2831TIP3   OH230051   0.296   5.489   0.557  0.1643  0.0026 -0.0932
 2831TIP3    H130052   0.367   5.441   0.599  0.6696 -0.0862 -1.0293
 2831TIP3    H230053   0.284   5.567   0.611  3.3991  1.8713 -1.7762
 2832TIP3   OH230054   2.359   1.240   0.464 -0.1282 -0.2222  0.4765
 2832TIP3    H130055   2.300   1.168   0.486 -0.5780  0.1094  0.3815
 2832TIP3    H230056   2.437   1.224   0.516  0.6225 -1.9052 -1.0643
 2833TIP3   OH230057   6.080   4.301   1.945 -0.7557 -0.1969  0.3758
 2833TIP3    H130058   6.050   4.301   2.036 -0.6498 -1.7896  0.4297
 2833TIP3    H230059   6.157   4.244   1.945 -0.7399 -0.2038 -0.7100
 2834TIP3   OH230060   3.315   3.912   7.811  0.5356  0.0532 -0.1096
 2834TIP3    H130061   3.335   3.929   7.719 -1.2013  1.8660 -0.2176
 2834TIP3    H230062   3.226   3.945   7.823  0.8675  0.2581  2.3280
 2835TIP3   OH230063   5.723   6.427   2.609 -0.1930 -0.5173 -0.5487
 2835TIP3    H130064   5.772   6.419   2.527 -0.4586  2.0925 -1.0283
 2835TIP3    H230065   5.653   6.490   2.590 -0.3413  0.0712  1.6465
 2836TIP3   OH230066   1.421   2.137   2.369  0.0552 -0.0110 -0.7609
 2836TIP3    H130067   1.491   2.096   2.420  0.3415  0.2228 -0.9639
 2836TIP3    H230068   1.351   2.152   2.432 -1.1806 -3.2783 -1.1350
 2837TIP3   OH230069   1.994   0.623   0.303 -0.2624 -0.1730  0.1625
 2837TIP3    H130070   2.042   0.541   0.312 -2.0588 -1.5559 -1.8681
 2837TIP3    H230071   1.920   0.615   0.364  1.4235  1.5589  2.6092
 2838TIP3   OH230072   0.345   0.342   6.674  0.3496 -0.4322  0.4653
 2838TIP3    H130073   0.385   0.261   6.705 -0.4181 -0.8725  0.3292
 2838TIP3    H230074   0.415   0.386   6.625  0.3509 -1.7464 -0.7943
 2839TIP3   OH230075   6.246   2.650   2.928  0.2092 -0.2631  0.6592
 2839TIP3    H130076   6.221   2.587   2.995 -0.1213 -0.3730  0.4334
 2839TIP3    H230077   6.172   2.652   2.868  0.7213 -0.5539  0.0039
 2840TIP3   OH230078   6.102   1.203   8.152  0.3447  0.3222  0.2623
 2840TIP3    H130079   6.111   1.134   8.217 -0.9552 -0.9595 -0.8697
 2840TIP3    H230080   6.173   1.188   8.090 -0.6962 -0.8685 -0.7031
 2841TIP3   OH230081   6.767   4.100   6.873  0.2536  0.4859 -0.0857
 2841TIP3    H130082   6.750   4.194   6.865  1.0612  0.6402 -0.0957
 2841TIP3    H230083   6.733   4.063   6.791 -1.9015  0.4633  0.7475
 2842TIP3   OH230084   3.059   5.698   0.711  0.1525  0.2177 -0.4111
 2842TIP3    H130085   3.022   5.782   0.738  1.1509  0.5869 -0.1607
 2842TIP3    H230086   3.094   5.660   0.791 -1.0414 -0.8608 -0.3524
 2843TIP3   OH230087   0.736   6.635   1.174  0.3786  0.1603 -0.3718
 2843TIP3    H130088   0.709   6.606   1.261 -0.2577  1.0301 -0.2711
 2843TIP3    H230089   0.711   6.563   1.116  2.2773 -1.1599  0.3368
 2844TIP3   OH230090   5.729   0.586   2.764  0.3278 -0.1862 -0.4447
 2844TIP3    H130091   5.766   0.552   2.682 -0.7734 -1.7256 -0.3407
 2844TIP3    H230092   5.644   0.544   2.771 -0.0514  0.7630  0.9750
 2845TIP3   OH230093   2.063   4.061   7.894 -0.3721  0.2636 -0.4224
 2845TIP3    H130094   2.068   4.101   7.981 -0.0267 -0.1257 -0.2577
 2845TIP3    H230095   1.989   4.000   7.900 -0.3418  0.2290 -0.3983
 2846TIP3   OH230096   5.203   0.399   8.381  0.0968  0.4294  0.0146
 2846TIP3    H130097   5.245   0.481   8.355 -1.3093  1.4518  0.8022
 2846TIP3    H230098   5.239   0.381   8.468 -0.4731  0.8996  0.3636
 2847TIP3   OH230099   0.056   4.537   1.973 -0.0862  0.3473  0.0722
 2847TIP3    H130100   0.045   4.617   2.024 -0.6988 -0.4977  1.3132
 2847TIP3    H230101   0.151   4.524   1.967  0.1041  2.0808 -1.6792
 2848TIP3   OH230102   1.031   0.101   0.689  0.1253 -0.3474 -0.2862
 2848TIP3    H130103   0.975   0.169   0.726 -3.1513 -2.4504 -0.9376
 2848TIP3    H230104   1.118   0.140   0.686 -1.4640  3.6487 -0.2822
 2849TIP3   OH230105   0.020   1.207   8.180 -1.3199  0.2543 -1.0804
 2849TIP3    H130106   0.056   1.277   8.234 -0.3725 -0.7915 -0.3166
 2849TIP3    H230107  -0.074   1.225   8.178 -1.7092 -0.6190  2.4246
 2850TIP3   OH230108   1.955   0.830   7.149  0.0929 -0.5989  0.4634
 2850TIP3    H130109   1.907   0.754   7.117  1.3580 -1.3825  0.3242
 2850TIP3    H230110   1.899   0.869   7.217 -0.8829 -1.2238  0.0296
 2851TIP3   OH230111   1.995   2.245   0.362  0.3257 -0.5881  0.3069
 2851TIP3    H130112   1.930   2.309   0.394  0.6575 -0.2223  0.2519
 2851TIP3    H230113   2.079   2.291   0.369  0.5609 -1.0081  0.2290
 2852TIP3   OH230114   5.126   1.006   7.602 -0.1455 -0.6748 -0.7186
 2852TIP3    H130115   5.211   0.988   7.641  0.2034  2.0650 -0.0146
 2852TIP3    H230116   5.068   1.020   7.677 -0.9023 -1.1743 -1.1984
 2853TIP3   OH230117   0.104   0.353   7.959  0.2423  0.1123 -0.1332
 2853TIP3    H130118   0.144   0.418   8.017  0.1968 -0.1561  0.2031
 2853TIP3    H230119   0.100   0.397   7.874  2.1825 -0.2211 -0.4389
 2854TIP3   OH230120   4.289   4.204   7.041  0.0489  0.6783 -0.4175
 2854TIP3    H130121   4.239   4.277   7.079  2.0470  1.2534  1.2182
 2854TIP3    H230122   4.353   4.247   6.984 -0.5234 -0.0027 -1.6175
 2855TIP3   OH230123   6.726   0.300   0.250  0.4058  0.2607 -0.3193
 2855TIP3    H130124   6.653   0.306   0.189  2.1127 -0.7115 -2.6465
 2855TIP3    H230125   6.741   0.206   0.259  0.7117  0.4249  0.9620
 2856TIP3   OH230126   4.144   5.812   2.528 -0.5644 -0.5830  0.5200
 2856TIP3    H130127   4.197   5.771   2.596  0.9819 -1.3172 -1.0349
 2856TIP3    H230128   4.075   5.858   2.575  1.1453 -0.0195  2.6452
 2857TIP3   OH230129   1.907   2.355   8.715  0.1850 -0.2712 -0.6575
 2857TIP3    H130130   1.871   2.405   8.642  0.7220  0.6744 -0.2905
 2857TIP3    H230131   2.001   2.350   8.698  0.3564  0.1851  0.0759
 2858TIP3   OH230132   5.407   3.154   2.986 -0.2376 -0.1582 -0.2791
 2858TIP3    H130133   5.329   3.185   2.940  0.7102 -1.1906 -2.7407
 2858TIP3    H230134   5.464   3.231   2.990 -0.5551  0.0822 -0.3016
 2859TIP3   OH230135   0.379   4.766   0.917 -0.3804 -0.0281  0.2303
 2859TIP3    H130136   0.284   4.759   0.924 -0.3051 -0.6620  0.6317
 2859TIP3    H230137   0.412   4.679   0.937  0.1926 -0.3458 -1.8738
 2860TIP3   OH230138   6.648   3.617   8.731  0.0984  0.0488 -0.5541
 2860TIP3    H130139   6.640   3.693   8.789 -2.4282  0.7824 -1.7206
 2860TIP3    H230140   6.678   3.653   8.648  1.9737 -0.7549 -0.2873
 2861TIP3   OH230141   5.469   4.240   0.218 -0.2038  0.4562 -0.6160
 2861TIP3    H130142   5.392   4.194   0.185  0.2540  0.2052 -1.3835
 2861TIP3    H230143   5.449   4.333   0.207 -0.0250  0.3817 -1.7626
 2862TIP3   OH230144   6.612   0.075   1.594  0.3835  0.1524  0.5237
 2862TIP3    H130145   6.573   0.157   1.565  0.6266  0.6145  1.4401
 2862TIP3    H230146   6.566   0.054   1.675  1.8596  0.6270  1.5469
 2863TIP3   OH230147   1.908   4.208   2.117 -0.4504  0.2807 -0.0540
 2863TIP3    H130148   1.899   4.300   2.092 -1.2575  0.5041  1.0086
 2863TIP3    H230149   1.999   4.200   2.145 -0.7206  1.0939  1.1238
 2864TIP3   OH230150   3.084   1.015   8.085  0.1293 -0.1118  0.1127
 2864TIP3    H130151   3.166   1.018   8.035  0.2028  1.3523  0.2810
 2864TIP3    H230152   3.017   1.041   8.022 -0.0710 -0.2823  0.2524
 2865TIP3   OH230153   4.095   2.665   2.122  0.0765  0.7212  0.1456
 2865TIP3    H130154   4.069   2.590   2.174 -2.1996  0.3054 -1.4027
 2865TIP3    H230155   4.183   2.644   2.091  0.6142  0.0388  2.0134
 2866TIP3   OH230156   3.557   1.816   0.645 -0.0605  0.1944  0.2288
 2866TIP3    H130157   3.472   1.775   0.634  0.4094 -0.5872 -0.7172
 2866TIP3    H230158   3.540   1.910   0.637 -0.7632  0.0139 -0.4998
 2867TIP3   OH230159   1.905   3.051   7.400  0.3067  0.3618 -0.2399
 2867TIP3    H130160   1.847   3.124   7.422 -0.7796 -0.4722 -0.2543
 2867TIP3    H230161   1.967   3.087   7.337 -1.4531  0.8053 -1.8134
 2868TIP3   OH230162   4.450   1.651   2.611 -0.1033  0.1054  0.0501
 2868TIP3    H130163   4.531   1.691   2.580  0.7709 -0.9437  0.9231
 2868TIP3    H230164   4.478   1.582   2.671 -1.6524 -0.0632  0.6303
 2869TIP3   OH230165   6.767   3.026   3.476 -0.1892 -0.3353  0.9386
 2869TIP3    H130166   6.816   2.944   3.486  2.4333  1.1536  1.1483
 2869TIP3    H230167   6.705   3.009   3.405 -0.2244 -2.6949  1.4625
 2870TIP3   OH230168   0.903   3.407   8.446  0.6018 -0.2124 -0.2087
 2870TIP3    H130169   0.887   3.497   8.415  0.9878  0.2250  0.8096
 2870TIP3    H230170   0.959   3.418   8.523  0.9881 -1.3612 -0.3084
 2871TIP3   OH230171   1.683   1.975   8.546  0.0727 -0.0387 -0.7943
 2871TIP3    H130172   1.722   1.904   8.494 -0.0472 -1.3092  0.7543
 2871TIP3    H230173   1.593   1.947   8.561  0.0878  0.3243  0.0161
 2872TIP3   OH230174   2.655   1.491   0.287  0.4478 -0.1027 -0.7777
 2872TIP3    H130175   2.651   1.580   0.320 -1.0411  0.6133 -2.7051
 2872TIP3    H230176   2.574   1.450   0.315  0.3694 -0.3141 -1.2909
 2873TIP3   OH230177   5.962   5.560   0.324  0.0849  0.1260 -0.2559
 2873TIP3    H130178   6.027   5.496   0.355 -2.1686 -1.9318  0.5658
 2873TIP3    H230179   5.986   5.642   0.368  0.4837 -1.2779  2.3603
 2874TIP3   OH230180   0.132   6.630   7.516 -0.7812  0.1851  0.2484
 2874TIP3    H130181   0.176   6.709   7.548  0.5343 -0.5120  0.2370
 2874TIP3    H230182   0.200   6.563   7.518 -1.5916 -0.6964 -0.7648
 2875TIP3   OH230183   3.879   4.517   2.075 -0.1546 -0.2798 -0.2188
 2875TIP3    H130184   3.906   4.587   2.134 -0.2988 -0.0887 -0.3812
 2875TIP3    H230185   3.945   4.448   2.088  0.2936  0.0956 -0.4506
 2876TIP3   OH230186   6.633   5.889   0.875  0.4957 -0.1077 -0.2276
 2876TIP3    H130187   6.554   5.933   0.842 -0.3789 -1.1930  0.3322
 2876TIP3    H230188   6.685   5.960   0.913  0.0429  0.7065 -1.0775
 2877TIP3   OH230189   2.364   3.021   1.114 -0.2860  0.6106  0.1931
 2877TIP3    H130190   2.427   3.016   1.185 -0.5623  1.2269  0.4854
 2877TIP3    H230191   2.388   2.949   1.056  0.7739  0.9227  0.2275
 2878TIP3   OH230192   4.721   0.723   1.205  0.6116 -0.0002  0.0602
 2878TIP3    H130193   4.785   0.718   1.134  0.5353  1.2071 -0.1055
 2878TIP3    H230194   4.772   0.713   1.285  0.5753 -2.5181 -0.1387
 2879TIP3   OH230195   5.110   2.346   0.488 -0.3293 -0.2434 -0.4800
 2879TIP3    H130196   5.115   2.258   0.449  0.6215  1.1006 -3.6580
 2879TIP3    H230197   5.162   2.338   0.569 -1.2794 -2.8585 -0.0088
 2880TIP3   OH230198   3.542   4.118   1.110  0.6392 -0.7346  0.2620
 2880TIP3    H130199   3.593   4.040   1.127  2.0457  0.0791 -0.0471
 2880TIP3    H230200   3.555   4.174   1.186  2.2830  0.5058 -0.8509
 2881TIP3   OH230201   5.495   0.422   8.067 -0.0181 -0.1016  0.1826
 2881TIP3    H130202   5.588   0.420   8.089 -0.3462 -2.1576  1.8248
 2881TIP3    H230203   5.466   0.510   8.091  1.1548 -0.0083  1.3684
 2882TIP3   OH230204   1.022   5.595   0.271 -0.3623  0.2336  0.1528
 2882TIP3    H130205   1.109   5.558   0.284 -0.5628 -0.2417  0.1466
 2882TIP3    H230206   1.038   5.684   0.239  0.1118 -0.3617 -1.3234
 2883TIP3   OH230207   5.064   3.931   1.251 -0.4931 -0.2325 -0.1509
 2883TIP3    H130208   4.983   3.967   1.287  0.5006  1.9896  0.0238
 2883TIP3    H230209   5.074   3.976   1.167 -0.6231 -2.2573 -1.3125
 2884TIP3   OH230210   6.793   0.944   7.386 -0.1066  0.3262  0.3130
 2884TIP3    H130211   6.813   1.017   7.328 -0.8488  0.9507  0.8190
 2884TIP3    H230212   6.741   0.983   7.456 -1.2979 -0.8519  0.1155
 2885TIP3   OH230213   5.701   5.065   8.518  0.3824  0.0419  0.7018
 2885TIP3    H130214   5.722   5.105   8.434 -1.5080  0.0132  0.1707
 2885TIP3    H230215   5.741   5.123   8.583  1.5045  0.2921 -0.1839
 2886TIP3   OH230216   4.432   5.110   8.359 -0.4345 -0.5587  0.1256
 2886TIP3    H130217   4.487   5.081   8.286 -1.5698 -0.6211 -0.7426
 2886TIP3    H230218   4.491   5.161   8.415  1.0328 -2.5130  0.4418
 2887TIP3   OH230219   1.112   6.154   7.966  0.0187  0.3116  0.1969
 2887TIP3    H130220   1.140   6.164   8.057  0.8371  0.5443 -0.0734
 2887TIP3    H230221   1.044   6.087   7.969 -0.2174  0.5827  1.0286
 2888TIP3   OH230222   6.259   0.653   1.919 -0.3663 -0.3570  0.4623
 2888TIP3    H130223   6.295   0.654   2.007 -0.8136  0.6542  0.6332
 2888TIP3    H230224   6.219   0.566   1.910  0.8555 -0.9714  0.7633
 2889TIP3   OH230225   5.756   1.290   7.211 -0.2840  0.1254 -0.3756
 2889TIP3    H130226   5.767   1.339   7.129 -2.8232  2.9081  0.7586
 2889TIP3    H230227   5.803   1.208   7.197  0.6491  1.1194 -4.0241
 2890TIP3   OH230228   2.148   6.392   1.178 -0.1435 -0.1707 -0.0028
 2890TIP3    H130229   2.118   6.417   1.090  1.7601 -0.3530 -0.7638
 2890TIP3    H230230   2.171   6.475   1.219 -1.0253 -0.0858  0.3288
 2891TIP3   OH230231   3.870   0.465   6.909  0.0787  0.6977  0.3202
 2891TIP3    H130232   3.910   0.517   6.980  1.3818  2.6967 -1.7452
 2891TIP3    H230233   3.944   0.421   6.868  0.0226  2.7321 -2.2089
 2892TIP3   OH230234   0.483   2.404   0.082 -0.2015 -0.4490  0.1665
 2892TIP3    H130235   0.554   2.416   0.145 -0.3557 -0.9969  0.4391
 2892TIP3    H230236   0.470   2.310   0.077  0.3114 -0.4692 -1.2319
 2893TIP3   OH230237   4.558   1.233   2.102 -0.0323  0.1879 -0.2627
 2893TIP3    H130238   4.609   1.153   2.086  0.5174 -0.0940  2.3433
 2893TIP3    H230239   4.489   1.232   2.036 -0.1287 -2.5296 -0.2180
 2894TIP3   OH230240   3.452   2.610   8.730 -0.2920  0.0843  0.4817
 2894TIP3    H130241   3.481   2.649   8.647  1.0821  0.4804  1.1276
 2894TIP3    H230242   3.520   2.546   8.752 -1.2223 -0.8473  0.7480
 2895TIP3   OH230243   0.134   4.762   0.997  0.4067 -0.1389 -0.2725
 2895TIP3    H130244   0.093   4.849   0.997 -0.0193 -0.2952  1.7532
 2895TIP3    H230245   0.070   4.707   0.952  0.6151  0.5495 -1.4521
 2896TIP3   OH230246   5.910   3.856   1.796  0.2313  0.3311 -0.0373
 2896TIP3    H130247   6.001   3.867   1.767  0.3546 -1.1443 -0.2827
 2896TIP3    H230248   5.912   3.875   1.890  0.7503  0.5147 -0.0810
 2897TIP3   OH230249   1.742   1.024   0.942  0.1006  0.3225 -0.2333
 2897TIP3    H130250   1.784   1.110   0.942 -1.6457  1.2157 -0.9799
 2897TIP3    H230251   1.789   0.975   0.874 -0.9878  1.8162 -2.1566
 2898TIP3   OH230252   2.314   1.341   0.144 -0.1506  0.1212  0.6643
 2898TIP3    H130253   2.353   1.268   0.192  1.8514  0.3695 -0.4774
 2898TIP3    H230254   2.292   1.304   0.059 -2.6725 -0.0415  1.2972
 2899TIP3   OH230255   1.806   4.912   2.736  0.5423  0.3862 -0.3692
 2899TIP3    H130256   1.715   4.909   2.706  0.4741  0.9390 -0.2295
 2899TIP3    H230257   1.858   4.909   2.656  0.4326 -0.7232 -0.4216
 2900TIP3   OH230258   6.235   6.125   2.314  0.2948 -0.7177 -0.3886
 2900TIP3    H130259   6.311   6.180   2.330  0.9277 -1.3299 -1.2369
 2900TIP3    H230260   6.241   6.056   2.379  1.0053 -1.3096 -1.0746
 2901TIP3   OH230261   1.006   6.690   0.546 -0.1793  0.7998  0.1620
 2901TIP3    H130262   0.996   6.767   0.601 -0.7165  2.0098 -1.5520
 2901TIP3    H230263   1.097   6.663   0.557 -0.0106  1.6261  0.8334
 2902TIP3   OH230264   6.206   5.459   0.445  0.0091 -0.1186 -0.0444
 2902TIP3    H130265   6.199   5.387   0.508 -1.0716 -1.4894 -1.6589
 2902TIP3    H230266   6.263   5.523   0.488 -0.5851 -1.0372  2.2620
 2903TIP3   OH230267   2.860   6.642   1.213 -0.3478 -0.5710 -0.3055
 2903TIP3    H130268   2.939   6.598   1.184 -0.5102 -1.2812  0.3077
 2903TIP3    H230269   2.789   6.580   1.195 -0.6781 -0.2352 -0.1828
 2904TIP3   OH230270   3.242   2.022   0.450  0.3557  0.3040 -0.1306
 2904TIP3    H130271   3.274   1.955   0.390 -0.6276 -0.1686 -0.1500
 2904TIP3    H230272   3.311   2.089   0.452  0.9983 -0.3372 -0.7103
 2905TIP3   OH230273   0.222   1.346   7.572  0.3552  0.2298  0.2321
 2905TIP3    H130274   0.145   1.402   7.561 -0.6840 -1.2646 -0.3306
 2905TIP3    H230275   0.282   1.374   7.502  0.5300  1.6539  0.9051
 2906TIP3   OH230276   2.728   1.005   1.739 -0.1989 -0.3249 -0.4888
 2906TIP3    H130277   2.821   0.985   1.747  0.3931  2.0444 -0.6714
 2906TIP3    H230278   2.697   1.011   1.830 -1.0283 -4.0753 -0.3228
 2907TIP3   OH230279   6.285   0.736   0.988  0.5837 -0.0404 -0.6600
 2907TIP3    H130280   6.255   0.660   1.039 -0.5145 -0.6896 -2.2191
 2907TIP3    H230281   6.219   0.747   0.920  1.9367  0.9084 -1.8583
 2908TIP3   OH230282   6.416   2.748   0.216 -0.4348  0.5080  0.1472
 2908TIP3    H130283   6.387   2.690   0.146  0.8321  1.9406 -1.6556
 2908TIP3    H230284   6.441   2.688   0.287 -2.7443 -0.9339 -0.1408
 2909TIP3   OH230285   6.133   2.617   0.494  0.2928 -0.9371 -0.3999
 2909TIP3    H130286   6.091   2.570   0.422 -0.4048 -1.5913  0.4024
 2909TIP3    H230287   6.195   2.554   0.531  1.6650 -0.1456 -1.2564
 2910TIP3   OH230288   6.640   1.717   0.348  0.0799 -0.3738 -0.0209
 2910TIP3    H130289   6.614   1.783   0.284  1.1006 -1.2921 -1.4502
 2910TIP3    H230290   6.713   1.756   0.395  0.8498 -0.5599 -1.0387
 2911TIP3   OH230291   6.657   5.848   8.668 -0.2832  0.2776  0.6462
 2911TIP3    H130292   6.623   5.911   8.605 -2.2773 -1.0581  0.3081
 2911TIP3    H230293   6.607   5.864   8.748  0.1119 -0.0253  0.9618
 2912TIP3   OH230294   6.116   4.889   7.370  0.1314 -0.7345 -0.0152
 2912TIP3    H130295   6.197   4.863   7.326  0.9322  1.1444  0.2812
 2912TIP3    H230296   6.146   4.931   7.451 -1.1973 -1.0881  0.6790
 2913TIP3   OH230297   5.254   0.526   7.532  0.2438 -0.6966 -0.0380
 2913TIP3    H130298   5.281   0.541   7.623 -0.3226  1.1208 -0.1305
 2913TIP3    H230299   5.258   0.613   7.492 -1.8876 -1.0318 -1.0923
 2914TIP3   OH230300   1.085   4.478   6.966  0.2343 -0.4707 -0.2354
 2914TIP3    H130301   1.031   4.424   7.025  0.2383 -0.3229 -0.0940
 2914TIP3    H230302   1.103   4.557   7.017  1.8098 -1.1196  0.2816
 2915TIP3   OH230303   1.721   5.221   1.471  0.2943  0.1052  0.9072
 2915TIP3    H130304   1.668   5.251   1.545 -0.9107 -1.6418  0.8089
 2915TIP3    H230305   1.742   5.301   1.422  1.0796  1.2908  3.0706
 2916TIP3   OH230306   0.112   4.729   7.144 -0.5117  0.0104 -0.1704
 2916TIP3    H130307   0.190   4.777   7.115  0.8601 -0.1934  2.8316
 2916TIP3    H230308   0.042   4.795   7.144  0.5754  1.2166  0.7378
 2917TIP3   OH230309   0.086   4.685   8.767 -0.2797  0.6720  1.2927
 2917TIP3    H130310   0.057   4.619   8.831 -2.3390  1.5279  1.2998
 2917TIP3    H230311   0.009   4.700   8.712  1.7764 -1.1099 -2.4451
 2918TIP3   OH230312   6.543   6.258   1.590 -0.4915 -0.4291  0.4835
 2918TIP3    H130313   6.562   6.180   1.643 -0.0402 -0.1678  0.7126
 2918TIP3    H230314   6.628   6.283   1.554 -0.9335 -1.1772 -1.1676
 2919TIP3   OH230315   4.961   1.706   7.616 -0.3489 -0.0946 -0.0237
 2919TIP3    H130316   4.999   1.652   7.685  0.8438  1.1107  0.3149
 2919TIP3    H230317   4.902   1.648   7.569  2.5060 -2.3500 -1.0953
 2920TIP3   OH230318   2.876   5.996   7.388  0.1358 -0.5037  0.4546
 2920TIP3    H130319   2.809   5.972   7.324 -0.0753  1.6650 -0.2340
 2920TIP3    H230320   2.849   5.953   7.469 -2.3332  0.5269  0.2916
 2921TIP3   OH230321   4.103   1.403   7.358  0.2079 -0.1452  0.3480
 2921TIP3    H130322   4.129   1.319   7.394 -2.8315 -1.1832  0.4198
 2921TIP3    H230323   4.181   1.436   7.314  1.5116 -2.9788  0.3387
 2922TIP3   OH230324   0.011   2.219   0.783 -0.4785  0.4597 -0.2798
 2922TIP3    H130325   0.102   2.241   0.802 -0.9276  0.8493  1.6455
 2922TIP3    H230326   0.013   2.126   0.760  0.1758 -0.1833  2.0743
 2923TIP3   OH230327   1.950   5.737   1.951 -0.1861  0.3262 -0.1262
 2923TIP3    H130328   2.031   5.780   1.978  0.5235  0.2400 -1.9553
 2923TIP3    H230329   1.960   5.725   1.856 -2.0248 -0.3645 -0.2724
 2924TIP3   OH230330   4.223   1.535   2.517  0.6238 -0.4465  0.0366
 2924TIP3    H130331   4.313   1.566   2.526  0.2971  0.9809 -1.2727
 2924TIP3    H230332   4.228   1.443   2.542  2.4691 -0.4275 -0.0678
 2925TIP3   OH230333   3.397   4.759   1.512 -0.1105  0.3318 -0.0941
 2925TIP3    H130334   3.362   4.842   1.478  1.4213  1.0735  0.0496
 2925TIP3    H230335   3.484   4.781   1.545 -0.1994 -1.0832  1.1857
 2926TIP3   OH230336   5.461   6.524   0.185 -0.3464  0.4932 -0.1225
 2926TIP3    H130337   5.441   6.438   0.220 -0.1983 -0.0564 -1.3181
 2926TIP3    H230338   5.376   6.567   0.175 -0.4483  0.3533  0.1400
 2927TIP3   OH230339   2.135   0.487   0.834  0.0814 -0.3402  0.4650
 2927TIP3    H130340   2.144   0.397   0.804 -0.9972 -0.3248  0.0439
 2927TIP3    H230341   2.055   0.487   0.886 -1.6070  0.9358 -1.9289
 2928TIP3   OH230342   4.162   2.964   2.297  0.0043  0.1682  0.2472
 2928TIP3    H130343   4.170   3.040   2.240  1.0068  1.7364  2.3568
 2928TIP3    H230344   4.084   2.918   2.266  1.2131  0.1812 -3.1656
 2929TIP3   OH230345   3.266   1.745   2.008  0.1359 -0.1874 -0.1772
 2929TIP3    H130346   3.270   1.650   2.004 -0.2933 -0.1819 -1.0115
 2929TIP3    H230347   3.301   1.768   2.095 -1.9410 -1.2224  0.9869
 2930TIP3   OH230348   0.147   2.338   3.267 -0.2973  0.1138  0.2426
 2930TIP3    H130349   0.236   2.367   3.247  0.0148 -1.2341 -0.4344
 2930TIP3    H230350   0.104   2.415   3.304  0.5420  1.3708 -1.2972
 2931TIP3   OH230351   4.951   1.316   1.478  0.2546  0.4335 -0.0559
 2931TIP3    H130352   4.918   1.302   1.389 -1.5717 -1.3105  0.8128
 2931TIP3    H230353   4.962   1.228   1.514 -0.3479  1.0917  1.8793
 2932TIP3   OH230354   1.008   4.313   7.196 -0.7659  0.6406  0.7581
 2932TIP3    H130355   1.098   4.281   7.187 -0.8436  0.3156  1.0923
 2932TIP3    H230356   0.954   4.239   7.166 -0.8855  1.7327 -2.0020
 2933TIP3   OH230357   0.212   5.836   0.495 -0.4469 -0.4629 -0.0804
 2933TIP3    H130358   0.123   5.872   0.492 -0.3305  0.1052  1.8729
 2933TIP3    H230359   0.211   5.777   0.571  0.8648 -0.3477  0.0460
 2934TIP3   OH230360   4.620   4.574   8.219  0.3324 -0.0313  0.8497
 2934TIP3    H130361   4.611   4.578   8.124 -4.4404  0.8659  1.0713
 2934TIP3    H230362   4.650   4.662   8.243  1.7738 -0.3271  0.2280
 2935TIP3   OH230363   6.005   4.551   1.688  0.0099 -0.4856 -0.0598
 2935TIP3    H130364   6.008   4.456   1.700  1.9475 -0.5322 -0.5978
 2935TIP3    H230365   5.993   4.585   1.777  0.5221 -1.2036  0.2983
 2936TIP3   OH230366   3.039   2.733   0.391  0.4169 -0.1617 -0.7685
 2936TIP3    H130367   2.976   2.789   0.345 -1.1675 -0.3725  1.0278
 2936TIP3    H230368   3.037   2.650   0.343  1.3745  0.6756 -2.3228
 2937TIP3   OH230369   1.093   1.038   8.096 -0.1731 -0.4628 -0.3614
 2937TIP3    H130370   1.122   1.050   8.006  0.1782  2.9192  0.0874
 2937TIP3    H230371   1.003   1.071   8.097 -0.3565 -0.9600  0.4386
 2938TIP3   OH230372   5.960   3.479   7.715 -0.1516 -0.3745 -0.2270
 2938TIP3    H130373   6.041   3.443   7.751 -0.3240  0.7712  1.4333
 2938TIP3    H230374   5.906   3.402   7.696  1.1261 -1.1263 -0.9065
 2939TIP3   OH230375   3.308   0.417   1.236 -0.1783  0.0043 -0.2295
 2939TIP3    H130376   3.244   0.462   1.180 -0.2518 -0.4412 -0.5080
 2939TIP3    H230377   3.392   0.455   1.211 -0.4853  2.0069  1.4942
 2940TIP3   OH230378   0.175   1.066   7.643 -0.3441 -0.0382  0.5190
 2940TIP3    H130379   0.200   1.097   7.731 -2.8721  2.1646  0.5917
 2940TIP3    H230380   0.184   1.143   7.587 -0.3552 -0.9868 -0.8276
 2941TIP3   OH230381   3.887   5.094   1.457  0.1734  0.6739  0.1082
 2941TIP3    H130382   3.949   5.027   1.487  1.0260  1.8884  1.1715
 2941TIP3    H230383   3.921   5.119   1.371  1.1880  1.3077  0.6672
 2942TIP3   OH230384   0.801   1.214   7.276  0.1044 -0.6154  0.5796
 2942TIP3    H130385   0.801   1.267   7.355 -0.9961  1.8784 -0.9706
 2942TIP3    H230386   0.885   1.232   7.234 -0.3799  0.1568 -0.0816
 2943TIP3   OH230387   6.813   4.562   0.218 -0.0979  0.3613 -0.1544
 2943TIP3    H130388   6.742   4.597   0.272  0.2751  1.8975 -0.6116
 2943TIP3    H230389   6.771   4.496   0.163 -1.1820  1.1922 -0.3717
 2944TIP3   OH230390   4.373   1.425   7.274  0.2226 -0.2016 -0.4293
 2944TIP3    H130391   4.380   1.466   7.360 -0.6547 -2.1397  0.6306
 2944TIP3    H230392   4.366   1.498   7.213  0.6172  1.2223  1.1508
 2945TIP3   OH230393   1.349   0.490   0.127  0.0324  0.1366 -0.2659
 2945TIP3    H130394   1.356   0.404   0.169 -0.4708 -0.8232 -2.0302
 2945TIP3    H230395   1.439   0.520   0.119  0.2893 -0.6607 -0.4610
 2946TIP3   OH230396   3.976   0.627   7.595  0.0334 -0.4965  0.0228
 2946TIP3    H130397   4.019   0.687   7.535  0.4150  0.2775  1.0454
 2946TIP3    H230398   4.034   0.551   7.600  0.9016  0.2104  0.7999
 2947TIP3   OH230399   2.279   5.913   7.397 -0.1108  0.2133 -0.0333
 2947TIP3    H130400   2.311   5.869   7.318  0.5249 -1.1600  0.9574
 2947TIP3    H230401   2.351   5.906   7.459 -0.7213  1.0064  0.7794
 2948TIP3   OH230402   4.799   3.230   7.415 -0.4208 -0.4720 -0.6192
 2948TIP3    H130403   4.853   3.161   7.377 -1.4103 -0.9054 -1.2694
 2948TIP3    H230404   4.840   3.311   7.385  0.0855 -0.7829 -0.7847
 2949TIP3   OH230405   1.429   1.437   1.049 -0.2060 -0.2834 -0.1442
 2949TIP3    H130406   1.357   1.429   1.111 -0.2350 -0.3708 -0.1905
 2949TIP3    H230407   1.494   1.491   1.095 -0.1990 -0.4053 -0.0119
 2950TIP3   OH230408   5.700   2.334   0.801  0.4118 -0.2363  0.6447
 2950TIP3    H130409   5.606   2.348   0.813  0.0992 -0.3914 -1.3795
 2950TIP3    H230410   5.709   2.240   0.787  0.9066 -0.2432  0.9836
 2951TIP3   OH230411   3.956   4.274   0.583  0.0171 -0.3486  0.7490
 2951TIP3    H130412   3.878   4.248   0.534  1.7202 -2.9057 -0.9138
 2951TIP3    H230413   3.985   4.355   0.541 -0.0945 -1.0212 -0.6806
 2952TIP3   OH230414   1.125   5.870   2.223 -0.2901  0.3455  0.3990
 2952TIP3    H130415   1.185   5.917   2.166  0.0150 -0.1115  0.3381
 2952TIP3    H230416   1.090   5.800   2.169  1.8939 -1.6661  1.4122
 2953TIP3   OH230417   0.534   1.168   0.144  0.0476  0.5080 -0.0889
 2953TIP3    H130418   0.481   1.101   0.101 -2.6091  1.6013  1.2729
 2953TIP3    H230419   0.494   1.251   0.117  0.4527  1.3451  1.7267
 2954TIP3   OH230420   2.103   4.792   7.864 -0.4470 -0.6922 -0.0780
 2954TIP3    H130421   2.049   4.792   7.786 -0.0997  0.7659 -0.3604
 2954TIP3    H230422   2.042   4.806   7.936 -0.3969  2.6608 -0.5348
 2955TIP3   OH230423   0.776   1.990   1.950  0.2396  0.2328 -0.4917
 2955TIP3    H130424   0.833   2.022   2.020  1.7787  0.0598 -1.6127
 2955TIP3    H230425   0.811   2.028   1.870 -1.2775  0.1607 -1.2396
 2956TIP3   OH230426   5.091   1.300   0.196  0.2946  0.4890  0.4903
 2956TIP3    H130427   5.098   1.395   0.187  1.7909  0.4415  0.8580
 2956TIP3    H230428   5.084   1.269   0.106 -1.7099  0.9979  0.4133
 2957TIP3   OH230429   6.650   4.467   0.002  0.1843  0.1549 -0.1480
 2957TIP3    H130430   6.578   4.528  -0.018 -1.2006 -1.3708 -0.0623
 2957TIP3    H230431   6.700   4.461  -0.079 -0.0808  0.8643 -0.3732
 2958TIP3   OH230432   2.160   6.363   2.071 -0.3683 -0.1244 -0.2489
 2958TIP3    H130433   2.166   6.453   2.101 -1.4703  0.0150 -0.4333
 2958TIP3    H230434   2.163   6.311   2.152 -0.5138  0.1145 -0.0880
 2959TIP3   OH230435   5.920   6.662   8.355  0.4006  0.3043 -0.1857
 2959TIP3    H130436   5.858   6.651   8.426 -0.3439 -0.1674 -0.8918
 2959TIP3    H230437   5.866   6.680   8.278  1.2274  1.6709 -0.4790
 2960TIP3   OH230438   0.201   1.549   0.344 -0.7215  0.1232  0.1184
 2960TIP3    H130439   0.260   1.535   0.269 -0.2620  0.9319  0.3177
 2960TIP3    H230440   0.115   1.524   0.311 -0.9820  2.7695 -1.5186
 2961TIP3   OH230441   5.721   6.001   2.247  0.4076 -0.0100  0.2795
 2961TIP3    H130442   5.683   6.031   2.164  0.8106 -0.6927 -0.1597
 2961TIP3    H230443   5.791   6.064   2.266 -0.4845  0.8714  0.7543
 2962TIP3   OH230444   2.828   6.275   1.057  0.0914  0.3685  0.2954
 2962TIP3    H130445   2.901   6.307   1.109  0.6979 -1.3198  0.5576
 2962TIP3    H230446   2.827   6.180   1.073 -1.7283  0.2542 -0.2379
 2963TIP3   OH230447   3.030   4.559   1.929 -0.2968 -0.1882  0.7394
 2963TIP3    H130448   3.042   4.625   1.861 -0.6893  0.5380  1.3495
 2963TIP3    H230449   3.012   4.478   1.882 -1.1706  0.4243 -0.0134
 2964TIP3   OH230450   5.662   6.667   8.202  0.1401 -0.4665 -0.1709
 2964TIP3    H130451   5.621   6.615   8.133  0.2679 -0.4466 -0.2610
 2964TIP3    H230452   5.589   6.693   8.258  0.0413 -0.5134 -0.2763
 2965TIP3   OH230453   4.342   0.706   0.105  0.1873  0.0218 -0.2940
 2965TIP3    H130454   4.349   0.795   0.071 -1.6549  0.2488 -0.1748
 2965TIP3    H230455   4.373   0.712   0.196 -1.7901  1.0245  0.3729
 2966TIP3   OH230456   6.603   1.484   1.124  0.4138 -0.2498 -0.0683
 2966TIP3    H130457   6.528   1.424   1.127  0.2383 -0.0215  0.1618
 2966TIP3    H230458   6.654   1.461   1.202  1.3773 -1.4134 -0.9952
 2967TIP3   OH230459   3.903   5.792   2.709 -0.8494  0.2321  0.3671
 2967TIP3    H130460   3.920   5.714   2.762 -1.8642  0.8050  1.6121
 2967TIP3    H230461   3.815   5.819   2.735  0.0091  2.6114  1.0444
 2968TIP3   OH230462   1.590   1.270   7.802  0.1788 -1.0682  0.3105
 2968TIP3    H130463   1.626   1.271   7.714  0.1048 -0.6352  0.2821
 2968TIP3    H230464   1.659   1.232   7.856 -0.5800 -3.4051 -0.2598
 2969TIP3   OH230465   3.754   1.567   0.008  0.1171 -0.2483 -0.5642
 2969TIP3    H130466   3.845   1.562   0.035  0.0014 -1.3289 -0.3288
 2969TIP3    H230467   3.706   1.594   0.086  0.3656  1.5795 -1.0074
 2970TIP3   OH230468   2.210   2.879   7.145  0.4660  0.2064  0.1359
 2970TIP3    H130469   2.244   2.812   7.205 -1.4752 -0.8416  0.1422
 2970TIP3    H230470   2.199   2.834   7.062 -2.4910 -0.0560  0.5661
 2971TIP3   OH230471   1.006   0.918   7.530  0.5162  0.0564 -0.3343
 2971TIP3    H130472   1.084   0.869   7.504 -1.0568 -1.4455 -2.5765
 2971TIP3    H230473   1.037   1.008   7.540  2.7675 -0.7109  0.2475
 2972TIP3   OH230474   3.989   4.534   0.462  0.7046 -0.1775 -0.3934
 2972TIP3    H130475   3.978   4.629   0.451 -1.1041 -0.4186 -0.7904
 2972TIP3    H230476   3.996   4.500   0.373 -0.7754 -0.6315 -0.3586
 2973TIP3   OH230477   2.982   2.838   7.855  0.0941 -0.4554 -0.1785
 2973TIP3    H130478   3.056   2.818   7.798 -0.0871 -2.1717  0.1576
 2973TIP3    H230479   2.907   2.845   7.795  0.2630 -0.1744 -0.3606
 2974TIP3   OH230480   1.956   1.625   7.718 -0.2877 -0.1790 -0.1416
 2974TIP3    H130481   1.961   1.716   7.690  0.2691 -0.2362 -0.2312
 2974TIP3    H230482   1.912   1.629   7.803 -1.0190  0.0907 -0.5245
 2975TIP3   OH230483   0.028   1.194   1.304  0.4409  1.0066  0.0165
 2975TIP3    H130484   0.069   1.143   1.374  0.8254  0.6572 -0.4644
 2975TIP3    H230485  -0.010   1.128   1.246 -0.1766  1.3056  0.0707
 2976TIP3   OH230486   2.499   5.824   1.834 -0.0226  0.6112  0.3889
 2976TIP3    H130487   2.528   5.736   1.858 -1.1437 -0.0477 -0.5246
 2976TIP3    H230488   2.499   5.873   1.916  2.7804  0.4554  0.5846
 2977TIP3   OH230489   0.285   5.904   7.386 -0.2218  0.5324 -0.3347
 2977TIP3    H130490   0.337   5.841   7.435 -1.5772 -0.4092 -0.0429
 2977TIP3    H230491   0.300   5.881   7.294 -0.8765 -0.3842 -0.2264
 2978TIP3   OH230492   6.755   3.853   1.314  0.0038  0.2856 -0.5124
 2978TIP3    H130493   6.778   3.761   1.324 -0.9033  0.0735 -0.2925
 2978TIP3    H230494   6.810   3.884   1.242  0.2317 -0.4542 -0.6623
 2979TIP3   OH230495   1.978   0.868   8.056  0.5702 -0.2093 -0.0597
 2979TIP3    H130496   1.995   0.890   8.148 -0.1795 -0.9337  0.2616
 2979TIP3    H230497   2.055   0.819   8.028  0.5514 -0.4744  0.3497
 2980TIP3   OH230498   5.814   1.981   2.981 -0.0781  0.1979  0.3520
 2980TIP3    H130499   5.836   1.889   2.989  1.0077  0.4060 -0.0480
 2980TIP3    H230500   5.723   1.982   2.952  0.1522 -0.7775 -0.4652
 2981TIP3   OH230501   0.229   5.346   7.115 -0.3260  0.1423  0.5276
 2981TIP3    H130502   0.139   5.316   7.097 -0.0454 -0.5464  0.2439
 2981TIP3    H230503   0.280   5.266   7.120  0.4405  0.5697 -0.2176
 2982TIP3   OH230504   3.965   0.215   2.418  0.2908  0.3382  0.4162
 2982TIP3    H130505   3.897   0.251   2.475 -0.6895 -0.2812 -0.3311
 2982TIP3    H230506   4.046   0.225   2.468 -0.3056  1.2960  1.2327
 2983TIP3   OH230507   1.170   1.394   1.229 -0.7065 -0.0546 -0.3681
 2983TIP3    H130508   1.128   1.311   1.252  2.0089 -1.6688 -0.7561
 2983TIP3    H230509   1.170   1.444   1.311  0.1979 -1.7132  0.7172
 2984TIP3   OH230510   5.624   1.470   8.043  0.3347 -0.5969 -0.2553
 2984TIP3    H130511   5.653   1.386   8.080  1.6783  0.9490  2.5467
 2984TIP3    H230512   5.686   1.489   7.973 -0.9754 -2.6093 -2.0929
 2985TIP3   OH230513   3.527   2.304   1.662 -0.5272  0.0529  0.4210
 2985TIP3    H130514   3.467   2.361   1.614 -0.9065 -1.7376 -1.3763
 2985TIP3    H230515   3.487   2.218   1.658  1.1029 -0.7800  1.1210
 2986TIP3   OH230516   4.896   0.423   6.802  0.2876 -0.0988  0.0770
 2986TIP3    H130517   4.953   0.377   6.863  0.4052 -1.4734 -1.0067
 2986TIP3    H230518   4.941   0.415   6.717 -1.0663 -0.4241 -0.6333
 2987TIP3   OH230519   3.839   6.298   0.674  0.5735 -0.3635 -0.0899
 2987TIP3    H130520   3.826   6.281   0.767 -0.2091 -0.1086 -0.1476
 2987TIP3    H230521   3.908   6.237   0.648  0.3752 -0.8572  0.5195
 2988TIP3   OH230522   3.989   6.483   1.456 -0.1882  0.3159 -0.0479
 2988TIP3    H130523   3.907   6.446   1.488  0.4718 -1.0298  0.1466
 2988TIP3    H230524   4.055   6.418   1.479  1.1957  2.0763  1.2476
 2989TIP3   OH230525   6.200   3.093   0.206 -0.5740 -0.5158  0.3384
 2989TIP3    H130526   6.179   3.117   0.116 -0.5643  0.1206  0.5023
 2989TIP3    H230527   6.156   3.160   0.259  1.8654  0.9157  0.6997
 2990TIP3   OH230528   3.377   3.288   1.505 -0.5705  0.2172  0.1494
 2990TIP3    H130529   3.425   3.205   1.498  0.0307  0.5378  0.3584
 2990TIP3    H230530   3.299   3.266   1.555 -0.2505 -0.1642  0.4915
 2991TIP3   OH230531   1.033   6.426   7.766  0.1042 -0.3605 -0.0937
 2991TIP3    H130532   1.028   6.334   7.793  1.5467 -0.2437  0.6975
 2991TIP3    H230533   0.989   6.428   7.681 -0.8760 -1.5684  0.3385
 2992TIP3   OH230534   0.840   2.161   8.298  0.5397 -0.2725 -0.0452
 2992TIP3    H130535   0.807   2.176   8.387 -0.3237  1.6204 -0.6472
 2992TIP3    H230536   0.918   2.215   8.292  0.5012 -0.2633 -0.4846
 2993TIP3   OH230537   2.929   3.521   8.302 -0.5655 -0.0586 -0.1809
 2993TIP3    H130538   2.886   3.603   8.327  0.2071  1.0317 -2.2135
 2993TIP3    H230539   3.008   3.549   8.256  1.6811 -1.9843  2.1858
 2994TIP3   OH230540   1.907   5.978   8.204 -0.3070 -0.3521  0.5818
 2994TIP3    H130541   1.940   5.904   8.255  2.0863  0.5217  0.4377
 2994TIP3    H230542   1.833   5.943   8.155 -0.4243 -2.1316  1.9683
 2995TIP3   OH230543   6.464   0.916   0.695  0.0430  0.2492  0.3090
 2995TIP3    H130544   6.435   0.995   0.649 -0.7077  0.0204  0.3802
 2995TIP3    H230545   6.559   0.926   0.702  0.1492  0.3506 -1.1413
 2996TIP3   OH230546   4.702   0.986   2.026 -0.4995  0.5946 -0.0154
 2996TIP3    H130547   4.630   0.932   2.059 -1.8734  1.9136 -0.7078
 2996TIP3    H230548   4.781   0.942   2.056 -1.5268 -1.8654 -0.6905
 2997TIP3   OH230549   2.943   1.443   2.299  0.1742  0.1931  0.7558
 2997TIP3    H130550   2.894   1.440   2.381 -0.0958 -0.7035  0.5727
 2997TIP3    H230551   2.986   1.357   2.294 -0.3703 -0.0283 -0.3657
 2998TIP3   OH230552   6.163   0.361   6.930  0.0636 -0.1289 -0.2347
 2998TIP3    H130553   6.191   0.270   6.918  1.6500  0.3361 -0.3298
 2998TIP3    H230554   6.154   0.395   6.841  0.5627  0.1090 -0.1981
 2999TIP3   OH230555   2.463   6.172   7.390  0.2988  0.5126  0.3024
 2999TIP3    H130556   2.538   6.114   7.383 -0.0919  0.1769 -2.2452
 2999TIP3    H230557   2.434   6.164   7.481  1.0845 -2.2202  0.3912
 3000TIP3   OH230558   5.992   2.654   0.089 -0.4158  0.6101  0.0105
 3000TIP3    H130559   5.896   2.656   0.084 -0.3602  0.9628 -2.7020
 3000TIP3    H230560   6.017   2.585   0.028  1.0761 -1.5270  2.7877
 3001TIP3   OH230561   6.794   3.309   1.043  0.2997  0.2535 -0.1647
 3001TIP3    H130562   6.799   3.276   1.133  2.7510 -1.3411 -0.7766
 3001TIP3    H230563   6.874   3.359   1.031  1.2323 -1.5771 -2.1296
 3002TIP3   OH230564   1.059   0.231   6.835  0.2570 -0.1813  0.4550
 3002TIP3    H130565   1.091   0.236   6.925  1.8706  0.4769 -0.1165
 3002TIP3    H230566   1.100   0.306   6.791  0.1117 -0.9275 -0.9957
 3003TIP3   OH230567   4.669   0.890   2.459 -0.0217 -0.1285  0.0143
 3003TIP3    H130568   4.590   0.902   2.512  0.7922 -1.3266  1.5841
 3003TIP3    H230569   4.685   0.976   2.421 -1.4293  0.4246  0.5933
 3004TIP3   OH230570   6.336   0.272   0.647 -0.5006 -0.5153  0.1230
 3004TIP3    H130571   6.273   0.200   0.635 -0.2017 -0.6699 -0.5520
 3004TIP3    H230572   6.395   0.240   0.716 -1.8726  0.1370  1.6844
 3005TIP3   OH230573   2.456   0.798   1.138  0.1100 -0.9553 -0.2394
 3005TIP3    H130574   2.523   0.769   1.200 -1.1781 -2.3538  0.5831
 3005TIP3    H230575   2.482   0.888   1.115  0.5332 -0.2549  2.5426
 3006TIP3   OH230576   3.453   4.781   2.661  0.0929 -0.5091  0.2065
 3006TIP3    H130577   3.545   4.772   2.637  1.8333  1.7483  4.7557
 3006TIP3    H230578   3.429   4.870   2.632  0.1513 -0.2169  1.0231
 3007TIP3   OH230579   5.272   2.420   8.259 -0.4577  0.2201 -0.0882
 3007TIP3    H130580   5.337   2.353   8.239  0.3420  0.9379  0.0277
 3007TIP3    H230581   5.321   2.487   8.309 -1.0727  1.1744 -0.7243
 3008TIP3   OH230582   3.773   2.840   7.349 -1.0429 -0.3360 -0.3811
 3008TIP3    H130583   3.864   2.817   7.334 -1.2516 -1.6709  0.3141
 3008TIP3    H230584   3.724   2.760   7.329 -2.2894  0.9169 -2.7737
 3009TIP3   OH230585   4.101   6.379   8.225 -0.0509 -0.3383  0.7880
 3009TIP3    H130586   4.035   6.310   8.213 -0.1402 -0.4828  1.9850
 3009TIP3    H230587   4.083   6.415   8.311  2.1598 -1.2005  1.6899
 3010TIP3   OH230588   1.719   2.859   1.133  0.2467  0.0654 -0.5198
 3010TIP3    H130589   1.702   2.952   1.149  0.0335 -0.1856  0.8689
 3010TIP3    H230590   1.812   2.855   1.111  0.5131  0.5159  0.4302
 3011TIP3   OH230591   5.581   2.983   2.103  0.1099 -0.4197  0.1580
 3011TIP3    H130592   5.553   2.909   2.050 -0.6332  0.2318 -0.3841
 3011TIP3    H230593   5.616   2.944   2.183 -2.6494 -1.3043  1.0340
 3012TIP3   OH230594   4.059   0.436   2.678 -0.4896 -0.3243 -0.1113
 3012TIP3    H130595   4.135   0.423   2.622 -0.1971  1.3780 -0.1547
 3012TIP3    H230596   4.085   0.398   2.762 -0.0355 -0.7654 -0.4470
 3013TIP3   OH230597   5.471   5.942   8.172 -0.2495 -0.5161 -0.4553
 3013TIP3    H130598   5.531   5.871   8.148  1.8057  1.3341 -1.1183
 3013TIP3    H230599   5.527   6.008   8.213 -1.5034  2.0002 -2.5153
 3014TIP3   OH230600   3.516   0.113   7.793 -0.1552 -0.1304 -0.6176
 3014TIP3    H130601   3.523   0.207   7.780 -2.3970  0.2368  0.3856
 3014TIP3    H230602   3.437   0.101   7.846 -0.4914 -2.6329 -1.5117
 3015TIP3   OH230603   5.236   3.473   8.085 -0.6508 -0.2321  0.2956
 3015TIP3    H130604   5.198   3.453   8.170 -0.7768  0.3568  0.3796
 3015TIP3    H230605   5.182   3.424   8.023 -0.0457 -1.3362  0.6117
 3016TIP3   OH230606   3.786   5.570   0.465 -0.1129 -0.1310  0.5235
 3016TIP3    H130607   3.768   5.527   0.381 -0.6016 -0.3116  0.7106
 3016TIP3    H230608   3.850   5.637   0.445  0.2385 -0.5814  0.1171
 3017TIP3   OH230609   6.211   2.216   0.399 -0.0089  0.1792  0.0197
 3017TIP3    H130610   6.277   2.283   0.383  0.6840 -0.5201 -0.0852
 3017TIP3    H230611   6.205   2.168   0.316  0.3626 -0.6397  0.4580
 3018TIP3   OH230612   4.980   6.679   0.711  0.5469 -0.1172 -0.4275
 3018TIP3    H130613   5.075   6.665   0.712  0.8837  1.8990  0.2222
 3018TIP3    H230614   4.969   6.773   0.725 -1.5562 -0.2521 -0.7797
 3019TIP3   OH230615   5.912   0.761   7.867 -0.4196  0.4352 -0.2085
 3019TIP3    H130616   5.832   0.787   7.821 -1.5543 -0.2755  1.2913
 3019TIP3    H230617   5.903   0.666   7.879  1.1289  0.1672 -0.8449
 3020TIP3   OH230618   2.683   1.079   1.449 -0.8138 -0.5664  0.5653
 3020TIP3    H130619   2.650   1.036   1.528  1.7267  0.1108  2.1380
 3020TIP3    H230620   2.722   1.008   1.398 -1.3078 -0.8394  0.5677
 3021TIP3   OH230621   4.818   0.146   7.927 -0.1637 -1.0720  0.0928
 3021TIP3    H130622   4.826   0.232   7.967  0.6507 -1.6301  1.1561
 3021TIP3    H230623   4.907   0.110   7.927 -0.3371 -1.5661 -1.1594
 3022TIP3   OH230624   6.034   3.359   8.561  0.2603  0.2767  0.1615
 3022TIP3    H130625   6.086   3.372   8.481 -0.7129 -0.2577 -0.5930
 3022TIP3    H230626   5.975   3.434   8.564 -1.4182 -0.8999 -1.0431
 3023TIP3   OH230627   6.325   2.503   0.114  0.2177  0.3831  0.1052
 3023TIP3    H130628   6.416   2.475   0.107  0.2882 -0.0170  2.1941
 3023TIP3    H230629   6.274   2.423   0.103  0.0518  0.6507 -1.3729
 3024TIP3   OH230630   2.809   1.286   2.900  0.3738  0.5535  0.0842
 3024TIP3    H130631   2.726   1.247   2.929 -0.5071  1.6647 -0.8323
 3024TIP3    H230632   2.788   1.324   2.814  1.8952  0.6850 -0.2490
 3025TIP3   OH230633   6.028   3.743   2.225  0.3103  0.2798  0.2203
 3025TIP3    H130634   5.948   3.708   2.266  0.0839  2.4293  1.8094
 3025TIP3    H230635   5.998   3.817   2.173  1.1710  0.5617  0.1135
 3026TIP3   OH230636   2.568   6.822   8.072 -0.5940 -0.6652 -0.3220
 3026TIP3    H130637   2.483   6.863   8.054 -0.7028 -1.4385 -1.6400
 3026TIP3    H230638   2.562   6.797   8.164 -0.9915  1.1403  0.1959
 3027TIP3   OH230639   2.713   6.120   2.581  0.1693 -0.1417  0.5092
 3027TIP3    H130640   2.648   6.097   2.514 -1.9492  0.6213  2.1752
 3027TIP3    H230641   2.732   6.037   2.625 -3.5433  0.1591  3.1574
 3028TIP3   OH230642   1.144   1.362   1.611  0.3720  0.2275  0.1293
 3028TIP3    H130643   1.124   1.429   1.546  1.4219 -0.8502 -1.3770
 3028TIP3    H230644   1.111   1.397   1.694  0.6811  2.4736 -0.6466
 3029TIP3   OH230645   4.436   2.038   1.186 -0.4402  0.7296 -0.2484
 3029TIP3    H130646   4.364   2.048   1.123 -1.0739  0.8396  0.4724
 3029TIP3    H230647   4.504   2.097   1.154 -1.5758  2.4365  0.3187
 3030TIP3   OH230648   5.728   4.593   1.643 -0.5583 -0.5991  0.3546
 3030TIP3    H130649   5.710   4.500   1.639  1.7589 -1.2575  2.3680
 3030TIP3    H230650   5.812   4.603   1.598 -0.4891  0.3918  0.6725
 3031TIP3   OH230651   4.646   2.982   7.957  0.1638 -0.2520  0.3529
 3031TIP3    H130652   4.670   2.925   7.884  0.7658  1.8124 -1.1713
 3031TIP3    H230653   4.577   3.038   7.922 -1.7278 -1.1765  2.3700
 3032TIP3   OH230654   1.532   0.563   7.099 -0.2975 -0.0451 -0.5342
 3032TIP3    H130655   1.477   0.612   7.161  1.3115  0.2679  0.7212
 3032TIP3    H230656   1.482   0.563   7.018 -1.8048  0.8706  0.3380
 3033TIP3   OH230657   0.243   2.196   1.958  0.2593 -0.4388 -0.0801
 3033TIP3    H130658   0.310   2.195   1.890  0.5206  0.1343  0.1668
 3033TIP3    H230659   0.163   2.225   1.913  0.6394  0.8400  0.0372
 3034TIP3   OH230660   0.957   3.972   0.918  0.0426 -0.3579 -0.0171
 3034TIP3    H130661   1.003   4.012   0.844  0.9339 -0.5179  0.4377
 3034TIP3    H230662   0.921   4.046   0.967 -0.4333 -0.2446 -0.5314
 3035TIP3   OH230663   6.590   3.300   2.146 -0.0160 -0.1161  0.1693
 3035TIP3    H130664   6.506   3.269   2.180  0.6635 -1.6824  0.5099
 3035TIP3    H230665   6.593   3.393   2.171 -0.8605 -0.4755  1.7269
 3036TIP3   OH230666   6.782   6.362   1.556 -0.8247 -0.1129 -0.1382
 3036TIP3    H130667   6.834   6.299   1.506 -0.2465 -0.3182  0.6810
 3036TIP3    H230668   6.839   6.385   1.629 -1.5924  0.2717  0.3462
 3037TIP3   OH230669   6.403   4.336   8.350 -0.1101  0.6158 -0.2623
 3037TIP3    H130670   6.388   4.259   8.406 -1.5810  2.7200  2.5077
 3037TIP3    H230671   6.316   4.376   8.342  0.8793  2.9008 -0.1313
 3038TIP3   OH230672   2.843   5.749   8.229  0.5230  0.2125 -0.0910
 3038TIP3    H130673   2.773   5.744   8.294  0.1305 -0.6777 -0.5735
 3038TIP3    H230674   2.891   5.829   8.252  0.5049 -0.1739  1.4098
 3039TIP3   OH230675   1.634   0.349   8.159  0.2229  0.2237  0.6119
 3039TIP3    H130676   1.599   0.260   8.161  0.1413  0.2493  3.1547
 3039TIP3    H230677   1.557   0.405   8.148 -0.2254  0.1142  2.8332
 3040TIP3   OH230678   1.419   2.018   8.750  0.4740 -0.0267 -0.4963
 3040TIP3    H130679   1.395   2.108   8.728  2.1192  0.8113  0.9438
 3040TIP3    H230680   1.433   1.976   8.665 -0.3870  1.0303 -1.1899
 3041TIP3   OH230681   5.339   4.574   6.754 -0.1702 -0.0357  0.1241
 3041TIP3    H130682   5.430   4.551   6.772 -0.1603  0.1040  0.2637
 3041TIP3    H230683   5.321   4.538   6.668 -0.4058 -1.2795  0.6765
 3042TIP3   OH230684   3.362   3.696   1.623  0.0982 -0.1877  0.3805
 3042TIP3    H130685   3.332   3.722   1.710  0.4077  2.1450 -0.1520
 3042TIP3    H230686   3.452   3.664   1.638 -0.8487 -2.7154  1.2766
 3043TIP3   OH230687   2.162   3.325   7.304 -0.0680  0.1342 -0.1340
 3043TIP3    H130688   2.145   3.233   7.283  0.5331  0.1589 -0.7588
 3043TIP3    H230689   2.140   3.373   7.225 -0.9606  0.6132  0.3855
 3044TIP3   OH230690   5.084   5.959   8.116 -0.9215 -0.3364 -0.2986
 3044TIP3    H130691   5.096   5.981   8.024 -0.8989 -0.4495 -0.3236
 3044TIP3    H230692   5.135   6.025   8.163  0.7126 -1.4082 -0.4440
 3045TIP3   OH230693   5.195   4.153   0.559 -0.2820 -0.2221  0.8499
 3045TIP3    H130694   5.251   4.083   0.525  0.8567  0.7187  0.7156
 3045TIP3    H230695   5.243   4.189   0.633  0.5271  2.1784 -0.7029
 3046TIP3   OH230696   5.983   3.494   6.985 -0.1033  0.5467 -0.4550
 3046TIP3    H130697   6.065   3.488   6.936  0.1763 -0.3285  0.0948
 3046TIP3    H230698   5.919   3.447   6.931  0.3492 -0.9756  0.2825
 3047TIP3   OH230699   4.299   1.747   7.937 -0.7397  0.4506 -0.3267
 3047TIP3    H130700   4.227   1.798   7.898 -3.1860 -2.3816  0.0769
 3047TIP3    H230701   4.320   1.793   8.018 -2.2370  1.2930 -0.3772
 3048TIP3   OH230702   0.060   5.665   2.553 -0.6289  0.0817  0.5129
 3048TIP3    H130703   0.018   5.743   2.518  2.2197  0.7347 -1.8249
 3048TIP3    H230704   0.070   5.684   2.647 -0.1520  2.5446  0.0462
 3049TIP3   OH230705   6.379   2.448   1.883 -0.1491 -0.8897 -0.3079
 3049TIP3    H130706   6.317   2.379   1.906 -2.1939  0.3792 -1.7020
 3049TIP3    H230707   6.438   2.407   1.819 -1.3030 -1.3984 -1.0882
 3050TIP3   OH230708   2.351   1.552   0.319  0.2136  0.0254 -0.2747
 3050TIP3    H130709   2.343   1.469   0.272  1.0341 -0.2540  0.0660
 3050TIP3    H230710   2.263   1.590   0.315  0.3408  0.2145 -2.3830
 3051TIP3   OH230711   6.718   3.872   7.456 -0.0039 -0.4268 -0.0871
 3051TIP3    H130712   6.680   3.883   7.369  1.1416  0.6173 -0.4915
 3051TIP3    H230713   6.662   3.807   7.499 -2.3207  1.1619 -0.5507
 3052TIP3   OH230714   1.011   4.756   8.441 -0.4721 -0.4127  0.0078
 3052TIP3    H130715   0.920   4.729   8.452 -0.3366 -1.6847 -1.5665
 3052TIP3    H230716   1.019   4.778   8.348  0.7803 -0.0833  0.1655
 3053TIP3   OH230717   4.437   1.793   8.183 -0.2474 -0.2762 -0.1052
 3053TIP3    H130718   4.478   1.856   8.243  0.1986 -0.4537 -0.2195
 3053TIP3    H230719   4.510   1.742   8.149 -0.6149 -0.9324  0.0679
 3054TIP3   OH230720   2.480   6.376   2.014  0.5726 -0.1476 -0.1190
 3054TIP3    H130721   2.499   6.468   1.998 -0.3914 -0.0404 -0.7157
 3054TIP3    H230722   2.489   6.365   2.108 -0.6081  0.8645  0.1217
 3055TIP3   OH230723   2.057   0.339   0.337  0.2177  0.1842  0.5563
 3055TIP3    H130724   2.037   0.266   0.278  1.1156 -0.6482  1.2451
 3055TIP3    H230725   2.113   0.301   0.404  0.0894  1.3515  1.3633
 3056TIP3   OH230726   5.574   1.227   0.286  0.1227  0.1682 -0.2090
 3056TIP3    H130727   5.597   1.135   0.273 -0.9218 -0.2603  0.7900
 3056TIP3    H230728   5.493   1.240   0.237 -0.6804  0.0645  1.0315
 3057TIP3   OH230729   3.725   5.411   1.853 -0.1268 -0.0320 -0.3163
 3057TIP3    H130730   3.735   5.320   1.879 -0.7421  0.2225  0.9230
 3057TIP3    H230731   3.773   5.419   1.771  0.7979 -1.2261  0.0838
 3058TIP3   OH230732   0.137   0.992   8.045 -0.0379  0.3108 -0.1757
 3058TIP3    H130733   0.169   1.074   8.008  0.3043  0.0271 -0.5097
 3058TIP3    H230734   0.093   1.019   8.126  0.4706  0.7709 -0.0470
 3059TIP3   OH230735   4.087   5.687   7.803  0.0234 -0.1936  0.0833
 3059TIP3    H130736   4.140   5.693   7.883  0.4408 -2.0287 -0.0159
 3059TIP3    H230737   4.149   5.703   7.732  0.7548 -3.1872 -0.0850
 3060TIP3   OH230738   3.473   3.225   1.152 -0.4598 -0.3459 -0.4230
 3060TIP3    H130739   3.509   3.225   1.241 -1.0727  0.1007 -0.1730
 3060TIP3    H230740   3.550   3.233   1.096 -0.0345 -0.9369  0.0463
 3061TIP3   OH230741   0.674   5.174   2.401 -0.0333  0.6773  0.4917
 3061TIP3    H130742   0.697   5.119   2.475  0.8994 -1.1907 -1.1019
 3061TIP3    H230743   0.603   5.127   2.357 -0.7426  1.8785  0.3053
 3062TIP3   OH230744   2.382   2.646   1.258  0.8045  0.3160 -0.1125
 3062TIP3    H130745   2.461   2.663   1.207  0.7077  1.7616  0.1941
 3062TIP3    H230746   2.406   2.670   1.348  0.6802 -1.3061  0.3931
 3063TIP3   OH230747   6.207   2.663   6.948  0.3155  0.0772 -0.1227
 3063TIP3    H130748   6.145   2.726   6.912  0.0840  1.1953  2.0617
 3063TIP3    H230749   6.285   2.715   6.968  0.3640 -0.4357  1.1057
 3064TIP3   OH230750   1.160   0.732   0.581  0.7695  0.3184 -0.2682
 3064TIP3    H130751   1.088   0.765   0.635  1.6219  0.9928  0.4818
 3064TIP3    H230752   1.156   0.784   0.501  1.3152  1.4043  0.3839
 3065TIP3   OH230753   6.769   4.062   6.558  0.2968  0.7196  0.6333
 3065TIP3    H130754   6.833   4.121   6.518 -0.7115  1.4938  0.1074
 3065TIP3    H230755   6.693   4.118   6.577 -2.2246 -0.9510 -3.2935
 3066TIP3   OH230756   3.510   2.954   2.992 -0.3062  0.8175  0.1242
 3066TIP3    H130757   3.429   2.911   2.966  0.6680 -1.0593 -0.0093
 3066TIP3    H230758   3.579   2.901   2.951  1.0095  1.8538  0.9240
 3067TIP3   OH230759   1.168   2.969   8.044  0.6329 -0.3010 -0.2153
 3067TIP3    H130760   1.105   3.026   8.001  0.7504  0.6008  0.7675
 3067TIP3    H230761   1.142   2.880   8.018  0.4081  0.1674 -1.7202
 3068TIP3   OH230762   0.816   0.665   8.122 -0.1120  0.5168  0.5650
 3068TIP3    H130763   0.861   0.739   8.163 -0.1628  0.3257  0.9662
 3068TIP3    H230764   0.887   0.604   8.098 -0.0641  0.7214  0.1707
 3069TIP3   OH230765   5.648   4.271   0.456 -0.3707 -0.9460 -0.2879
 3069TIP3    H130766   5.593   4.336   0.501  1.6855  2.0310 -1.6863
 3069TIP3    H230767   5.595   4.242   0.382 -1.2705 -0.6834  0.2352
 3070TIP3   OH230768   0.085   5.814   0.981 -0.2297 -0.4065  0.1288
 3070TIP3    H130769   0.077   5.787   0.890 -0.0113 -0.0958  0.0177
 3070TIP3    H230770   0.056   5.905   0.983 -0.0614 -0.3559  0.3361
 3071TIP3   OH230771   5.933   0.857   7.522 -0.0164  0.0240  0.6074
 3071TIP3    H130772   5.912   0.808   7.442 -0.2512  0.3548  0.4680
 3071TIP3    H230773   5.873   0.822   7.588  0.7893 -0.9037  0.8859
 3072TIP3   OH230774   2.954   6.588   7.002  0.1757  0.1202 -0.3052
 3072TIP3    H130775   3.021   6.526   7.032  0.1035  0.6667  1.0250
 3072TIP3    H230776   2.945   6.651   7.073 -1.5111  0.2642 -0.5907
 3073TIP3   OH230777   0.346   0.692   6.775 -0.5433 -0.0616 -0.0173
 3073TIP3    H130778   0.341   0.597   6.789 -2.0674 -0.0504 -0.3131
 3073TIP3    H230779   0.353   0.729   6.863 -0.2997 -0.4277  0.1201
 3074TIP3   OH230780   3.995   4.282   2.209  0.6936 -0.1709 -0.5551
 3074TIP3    H130781   3.966   4.299   2.299  0.4093  0.8455 -0.8359
 3074TIP3    H230782   3.933   4.217   2.176  0.1402  0.2522 -0.3697
 3075TIP3   OH230783   3.148   4.253   2.434 -0.4446 -0.2120  0.1761
 3075TIP3    H130784   3.117   4.306   2.361  1.7855  0.3589 -0.4217
 3075TIP3    H230785   3.164   4.317   2.504 -0.1613 -0.4263  0.3056
 3076TIP3   OH230786   3.711   2.279   1.356  0.2034  0.2202  0.2257
 3076TIP3    H130787   3.676   2.192   1.335 -0.2365 -0.2298  2.5353
 3076TIP3    H230788   3.786   2.289   1.298  0.5249 -1.9119  0.1922
 3077TIP3   OH230789   5.161   6.236   7.815 -0.5729  0.0535 -0.2061
 3077TIP3    H130790   5.162   6.325   7.781 -0.2374  0.1082 -0.0547
 3077TIP3    H230791   5.110   6.241   7.895  1.4390  0.6019  1.1181
 3078TIP3   OH230792   1.365   4.900   0.950 -0.1525 -0.2064  0.0966
 3078TIP3    H130793   1.381   4.992   0.932 -2.4637  0.4577  1.1350
 3078TIP3    H230794   1.312   4.869   0.876  0.5919 -0.7176 -0.2367
 3079TIP3   OH230795   2.069   2.028   8.615  0.0621  0.0112  0.3802
 3079TIP3    H130796   2.051   1.948   8.664 -0.6212  0.9937  1.7733
 3079TIP3    H230797   2.074   2.097   8.681 -0.5623  1.3279 -0.8846
 3080TIP3   OH230798   4.247   1.235   0.172  0.1614 -0.0117  0.3292
 3080TIP3    H130799   4.340   1.256   0.185  0.2185  1.0025 -1.4057
 3080TIP3    H230800   4.228   1.170   0.239  2.0819 -0.1015  0.8575
 3081TIP3   OH230801   1.660   1.628   0.383 -0.4061  0.3847 -0.0067
 3081TIP3    H130802   1.692   1.713   0.414 -1.0434  0.3713  0.7103
 3081TIP3    H230803   1.732   1.567   0.402 -0.2129  0.6457  0.0972
 3082TIP3   OH230804   0.082   5.016   0.110  0.1127 -0.1401  0.7045
 3082TIP3    H130805   0.151   5.082   0.097  2.1217 -2.1861  0.2070
 3082TIP3    H230806   0.061   4.985   0.022 -0.6844 -0.2916  0.9390
 3083TIP3   OH230807   3.094   0.728   1.457 -0.3890 -0.0893  0.3614
 3083TIP3    H130808   3.160   0.690   1.514  0.0768 -1.8165 -1.2645
 3083TIP3    H230809   3.141   0.795   1.407  0.5411 -2.2256 -1.7538
 3084TIP3   OH230810   4.876   5.478   7.333 -0.0661  0.3988 -0.0313
 3084TIP3    H130811   4.786   5.488   7.304  0.3548  2.3171 -0.8369
 3084TIP3    H230812   4.870   5.476   7.429 -0.9489  0.8224 -0.0650
 3085TIP3   OH230813   4.280   6.806   7.686 -0.2218  0.2613 -0.1347
 3085TIP3    H130814   4.262   6.737   7.623  1.6477  1.1178 -1.7160
 3085TIP3    H230815   4.320   6.876   7.634 -0.5641  1.8789  1.6742
 3086TIP3   OH230816   0.928   0.614   0.334 -0.2475 -0.0509  0.1796
 3086TIP3    H130817   0.952   0.543   0.393  1.1959  0.9877  0.9060
 3086TIP3    H230818   1.010   0.638   0.291 -1.3741 -1.3551 -2.9683
 3087TIP3   OH230819   0.628   1.177   1.084 -0.1502 -0.7026  0.4056
 3087TIP3    H130820   0.575   1.257   1.092 -2.1566 -1.9411  0.0371
 3087TIP3    H230821   0.630   1.159   0.990 -1.0784 -1.9431  0.6059
 3088TIP3   OH230822   2.056   2.974   1.075 -0.0371 -0.0730 -0.2904
 3088TIP3    H130823   2.019   2.998   1.159  1.9449 -2.4551  1.4120
 3088TIP3    H230824   2.134   3.029   1.065 -0.0312 -0.0907 -0.3497
 3089TIP3   OH230825   4.362   2.764   0.193  0.0595  0.5973 -0.0879
 3089TIP3    H130826   4.424   2.701   0.155 -0.4567 -0.3435  0.5884
 3089TIP3    H230827   4.417   2.835   0.226  1.0339 -1.1416  2.3183
 3090TIP3   OH230828   6.076   0.740   1.722 -0.1495  0.1685 -0.2927
 3090TIP3    H130829   6.135   0.708   1.790  0.3893 -0.8901 -1.2264
 3090TIP3    H230830   5.988   0.720   1.755  0.1224 -0.8283 -0.1327
 3091TIP3   OH230831   6.597   5.216   7.825  0.2683  0.5669 -0.1498
 3091TIP3    H130832   6.589   5.246   7.735  3.8579  1.2159 -0.3745
 3091TIP3    H230833   6.588   5.295   7.878 -1.6111  0.2165  0.1413
 3092TIP3   OH230834   0.462   5.095   2.589 -0.4883 -0.2243 -0.0670
 3092TIP3    H130835   0.545   5.050   2.573 -0.0926  0.7736 -0.9275
 3092TIP3    H230836   0.409   5.031   2.637  0.9334 -0.7278  0.9120
 3093TIP3   OH230837   0.499   6.003   2.506 -0.2948 -0.6971 -0.0297
 3093TIP3    H130838   0.525   5.940   2.439 -1.2465 -1.8525  0.6441
 3093TIP3    H230839   0.446   6.067   2.460 -0.6438 -1.2859 -0.4557
 3094TIP3   OH230840   4.580   5.074   8.126 -0.4290  0.3376 -0.3501
 3094TIP3    H130841   4.662   5.109   8.161 -1.7931  0.6869  2.8087
 3094TIP3    H230842   4.572   5.114   8.040  1.4966  2.2875  0.2873
 3095TIP3   OH230843   3.720   6.657   8.757 -0.3826  0.4258 -0.1395
 3095TIP3    H130844   3.698   6.622   8.843 -1.0178  0.3736 -0.3160
 3095TIP3    H230845   3.701   6.750   8.763  1.7238  0.8688  0.4670
 3096TIP3   OH230846   2.363   4.286   1.022 -0.3012  0.0129  0.4002
 3096TIP3    H130847   2.424   4.227   1.067 -0.6564 -0.1185  0.7177
 3096TIP3    H230848   2.321   4.335   1.093  0.5654  1.2268  0.1041
 3097TIP3   OH230849   3.243   6.026   2.244 -0.5357 -0.0157  0.0166
 3097TIP3    H130850   3.336   6.002   2.237 -1.0316 -2.4472  0.6880
 3097TIP3    H230851   3.229   6.091   2.175  1.6625  0.4373 -0.0716
 3098TIP3   OH230852   4.753   4.155   2.612 -0.1653 -0.3331  0.2873
 3098TIP3    H130853   4.763   4.061   2.598  2.7239 -0.0143 -0.4505
 3098TIP3    H230854   4.778   4.169   2.703 -1.7442 -0.3440  0.7647
 3099TIP3   OH230855   2.124   6.450   0.583 -0.4728 -0.0509 -0.5453
 3099TIP3    H130856   2.212   6.412   0.573 -0.5342 -0.5540  0.6893
 3099TIP3    H230857   2.132   6.538   0.546  1.2700  0.8708  1.7669
 3100TIP3   OH230858   1.006   6.171   0.267 -0.5071 -0.3095  0.6615
 3100TIP3    H130859   1.001   6.098   0.206 -2.8655 -2.1759  2.8319
 3100TIP3    H230860   0.948   6.238   0.230  0.9956  0.1865 -0.9080
 3101TIP3   OH230861   2.386   4.468   8.308 -0.1285  0.1812  0.2446
 3101TIP3    H130862   2.421   4.515   8.384 -0.1026 -0.6093  0.7351
 3101TIP3    H230863   2.454   4.476   8.242 -0.5186  1.6347 -0.0263
 3102TIP3   OH230864   4.467   4.703   0.656 -0.2783 -0.2556 -0.1011
 3102TIP3    H130865   4.390   4.731   0.605  0.0951 -1.0518 -1.1461
 3102TIP3    H230866   4.447   4.613   0.680 -0.6889  0.2820  1.6891
 3103TIP3   OH230867   1.685   3.832   8.696  0.1189 -0.2898 -0.1415
 3103TIP3    H130868   1.618   3.835   8.628 -2.5651 -1.4161  2.2068
 3103TIP3    H230869   1.664   3.753   8.746  3.4017 -0.7966  0.6373
 3104TIP3   OH230870   5.873   3.532   0.685  0.1455  0.1067  0.2703
 3104TIP3    H130871   5.886   3.602   0.749 -1.6692 -0.8701  1.8186
 3104TIP3    H230872   5.778   3.520   0.683  0.2800 -0.8747 -1.5663
 3105TIP3   OH230873   5.809   4.197   6.806 -0.4897 -1.0051 -0.3842
 3105TIP3    H130874   5.773   4.196   6.894 -0.6084  0.9805 -0.3744
 3105TIP3    H230875   5.811   4.289   6.781 -0.8868 -1.5228 -2.6304
 3106TIP3   OH230876   2.649   2.415   1.226 -0.4006 -0.1918  0.4090
 3106TIP3    H130877   2.594   2.343   1.257 -0.6955 -0.1794 -0.0727
 3106TIP3    H230878   2.735   2.375   1.211 -0.8604 -0.7210 -0.9718
 3107TIP3   OH230879   4.134   3.793   0.178  0.3227 -0.1577  0.3055
 3107TIP3    H130880   4.214   3.822   0.223  1.1498 -1.9102  0.0577
 3107TIP3    H230881   4.115   3.707   0.216 -1.5504  0.2853  0.4470
 3108TIP3   OH230882   4.710   5.157   8.427  0.4221  0.4720  0.4039
 3108TIP3    H130883   4.794   5.139   8.469  0.7864  1.3432  0.0593
 3108TIP3    H230884   4.732   5.210   8.351 -0.6286  2.4729  1.4382
 3109TIP3   OH230885   4.129   2.366   7.937 -0.9912 -0.1660 -0.1831
 3109TIP3    H130886   4.066   2.331   8.001  0.4807 -2.6506  0.0492
 3109TIP3    H230887   4.206   2.388   7.989  0.6173 -3.2063 -1.0360
 3110TIP3   OH230888   0.186   4.623   2.450 -0.5432  0.0851 -0.0799
 3110TIP3    H130889   0.167   4.669   2.369  0.4137  0.1607 -0.2754
 3110TIP3    H230890   0.253   4.676   2.493 -0.6930 -0.2049  0.5378
 3111TIP3   OH230891   1.266   5.023   0.501 -0.5108 -0.4724 -0.2526
 3111TIP3    H130892   1.318   5.037   0.422  1.2526 -2.0386  0.5631
 3111TIP3    H230893   1.220   5.106   0.515  3.3468  1.8349  0.0959
 3112TIP3   OH230894   5.209   3.438   7.114  0.0470  0.0068  0.0187
 3112TIP3    H130895   5.215   3.533   7.110  1.0114 -0.0632 -3.8910
 3112TIP3    H230896   5.128   3.421   7.163  0.4760  2.7104  1.8612
 3113TIP3   OH230897   6.475   2.182   0.020  0.1201  0.2130 -0.0825
 3113TIP3    H130898   6.430   2.197  -0.064  1.2269 -0.2688 -0.7783
 3113TIP3    H230899   6.534   2.257   0.029 -1.0032  1.0139  0.9880
 3114TIP3   OH230900   0.943   0.943   0.719 -0.0491 -0.0594  0.4310
 3114TIP3    H130901   0.909   0.873   0.663 -0.0440 -0.5787  1.0688
 3114TIP3    H230902   0.884   1.017   0.703  2.0524  1.1457 -3.1299
 3115TIP3   OH230903   1.021   6.574   2.042 -0.4063  0.0843 -0.2048
 3115TIP3    H130904   1.086   6.516   2.002  0.6596  1.7747 -1.0155
 3115TIP3    H230905   1.038   6.569   2.136  0.3449 -0.1206 -0.3509
 3116TIP3   OH230906   5.541   0.511   6.790  0.9054  0.9702  0.1284
 3116TIP3    H130907   5.552   0.604   6.807  0.0057  0.7304  2.2974
 3116TIP3    H230908   5.451   0.492   6.815  1.1817 -0.5640  0.0786
 3117TIP3   OH230909   4.036   1.943   8.281  0.4888 -0.3360  0.2298
 3117TIP3    H130910   4.055   1.912   8.369 -0.9947 -0.8266  0.4101
 3117TIP3    H230911   4.031   1.863   8.228 -0.4628 -0.1995  0.0977
 3118TIP3   OH230912   5.946   2.735   8.132  0.2459  0.2195 -0.0685
 3118TIP3    H130913   6.011   2.799   8.159 -0.0638  0.7737 -0.6092
 3118TIP3    H230914   5.994   2.652   8.124  0.6171  0.3476  0.7810
 3119TIP3   OH230915   5.403   5.954   8.453 -0.3403  0.3633 -0.3748
 3119TIP3    H130916   5.491   5.935   8.421  0.0832  0.0957  0.8842
 3119TIP3    H230917   5.350   5.880   8.424 -0.1838  0.5882 -1.2455
 3120TIP3   OH230918   2.503   6.362   0.308  0.0236  0.2803 -0.0138
 3120TIP3    H130919   2.451   6.377   0.387 -2.1770 -0.8009 -1.1467
 3120TIP3    H230920   2.506   6.447   0.264  1.8428  1.0516  1.4785
 3121TIP3   OH230921   0.604   5.605   1.448  0.3901  0.5711  0.0327
 3121TIP3    H130922   0.623   5.587   1.356  1.2453  0.3562  0.2359
 3121TIP3    H230923   0.519   5.565   1.464 -0.2982  1.6097 -0.9503
 3122TIP3   OH230924   2.318   4.405   6.948 -0.1169 -0.0787  0.3317
 3122TIP3    H130925   2.362   4.366   7.024  0.5452  1.6355  0.8710
 3122TIP3    H230926   2.319   4.336   6.882  0.8287 -1.0350  1.3072
 3123TIP3   OH230927   3.597   2.818   6.816 -0.3764  0.7775  0.9102
 3123TIP3    H130928   3.506   2.841   6.835  0.2081  1.7784  2.8257
 3123TIP3    H230929   3.647   2.896   6.843  1.0643  0.1184  0.2193
 3124TIP3   OH230930   1.807   2.702   2.144  0.6031 -0.2988 -0.6054
 3124TIP3    H130931   1.712   2.710   2.141  0.5695 -0.6069 -0.3755
 3124TIP3    H230932   1.834   2.762   2.214  0.5293 -0.6188 -0.2988
 3125TIP3   OH230933   6.717   6.221   0.220 -0.6325  0.1992 -0.0790
 3125TIP3    H130934   6.745   6.280   0.289 -0.4901  0.0810 -0.0356
 3125TIP3    H230935   6.798   6.192   0.178 -0.6787 -0.2643  0.1475
 3126TIP3   OH230936   5.512   4.779   7.854  0.6419 -0.0936 -0.0426
 3126TIP3    H130937   5.604   4.766   7.878  0.3668 -0.7901  0.6490
 3126TIP3    H230938   5.516   4.840   7.780  1.7700 -1.5535 -1.2426
 3127TIP3   OH230939   0.375   1.529   1.828 -0.0669 -0.7292 -0.4976
 3127TIP3    H130940   0.344   1.587   1.898  1.1997 -0.9711  0.2922
 3127TIP3    H230941   0.330   1.446   1.844 -1.0213 -0.3180 -0.9583
 3128TIP3   OH230942   2.338   1.038   7.334 -0.3859 -0.7955  0.6014
 3128TIP3    H130943   2.391   1.052   7.412  1.6279  0.5319 -0.9194
 3128TIP3    H230944   2.355   1.114   7.279 -3.7125 -0.4196 -0.1434
 3129TIP3   OH230945   6.187   1.883   1.787 -0.7455 -0.1323  0.0026
 3129TIP3    H130946   6.251   1.871   1.858  0.5802  1.7662 -0.7550
 3129TIP3    H230947   6.129   1.953   1.819 -0.2712  0.5829 -0.6540
 3130TIP3   OH230948   0.269   5.422   1.783 -0.5507 -0.2073  0.2220
 3130TIP3    H130949   0.178   5.393   1.787  0.0343 -2.9873 -2.4213
 3130TIP3    H230950   0.320   5.343   1.804  1.3024  1.1627  1.1987
 3131TIP3   OH230951   4.700   0.353   7.025 -0.2343  0.0308 -0.3033
 3131TIP3    H130952   4.761   0.308   6.967 -0.9041 -1.0765 -0.1924
 3131TIP3    H230953   4.695   0.442   6.991  2.1686  0.4423  0.2929
 3132TIP3   OH230954   1.053   4.907   0.252 -0.1264 -0.2582  0.0766
 3132TIP3    H130955   1.018   4.996   0.245 -1.3475 -0.5802  1.5380
 3132TIP3    H230956   0.999   4.866   0.319  0.1565 -2.2437 -0.8507
 3133TIP3   OH230957   5.569   5.855   1.684 -0.6179 -0.0760 -0.1517
 3133TIP3    H130958   5.510   5.833   1.757  1.3973  1.3502  2.0465
 3133TIP3    H230959   5.587   5.948   1.696  1.5501 -0.3238 -1.1130
 3134TIP3   OH230960   0.857   0.204   8.518 -0.1754 -0.2135  0.3151
 3134TIP3    H130961   0.950   0.183   8.526 -0.5908 -1.9327  1.3887
 3134TIP3    H230962   0.844   0.220   8.425  1.1374 -0.2506  0.1025
 3135TIP3   OH230963   4.181   0.909   2.691 -0.0475 -0.1350 -0.4322
 3135TIP3    H130964   4.110   0.845   2.695  0.4128 -0.6928 -1.0104
 3135TIP3    H230965   4.147   0.978   2.634 -0.5304  0.1333  0.1639
 3136TIP3   OH230966   5.531   0.032   7.678  0.3826 -0.1011  0.2145
 3136TIP3    H130967   5.459   0.027   7.741 -0.3973  1.6246 -0.4671
 3136TIP3    H230968   5.517   0.115   7.633  1.8641 -0.5248 -1.1061
 3137TIP3   OH230969   3.600   5.995   1.690 -0.6604  0.1154  0.4452
 3137TIP3    H130970   3.615   6.045   1.771 -0.9416  0.4196  0.3139
 3137TIP3    H230971   3.683   5.952   1.672 -0.6392 -0.0737  0.9804
 3138TIP3   OH230972   0.142   1.561   0.897 -0.3926 -0.2198  0.2051
 3138TIP3    H130973   0.162   1.580   0.806 -0.1272  0.2115  0.3482
 3138TIP3    H230974   0.047   1.550   0.899 -0.3029 -1.2594 -0.2981
 3139TIP3   OH230975   5.052   3.762   7.943  0.0326 -0.2515 -0.3006
 3139TIP3    H130976   5.093   3.756   7.857 -0.1162  0.5102 -0.4305
 3139TIP3    H230977   5.084   3.685   7.990  0.6090 -0.3388 -0.8239
 3140TIP3   OH230978   2.439   0.411   8.411 -0.0167  0.1678 -0.4917
 3140TIP3    H130979   2.456   0.317   8.417 -1.2701  0.0019  1.1721
 3140TIP3    H230980   2.448   0.431   8.318  0.4338 -1.5519 -0.8530
 3141TIP3   OH230981   2.857   6.732   7.251  0.5964  0.1165  0.3401
 3141TIP3    H130982   2.941   6.775   7.268  0.3106  0.5395  0.7030
 3141TIP3    H230983   2.791   6.799   7.268  0.2225  0.2022 -1.2375
 3142TIP3   OH230984   3.222   1.541   1.637  0.7848 -0.4866  0.2039
 3142TIP3    H130985   3.279   1.618   1.640  1.0479 -0.6026 -1.0695
 3142TIP3    H230986   3.248   1.489   1.712  1.1407  0.2918  0.6382
 3143TIP3   OH230987   6.443   0.971   1.035 -0.5004  0.6098 -0.0045
 3143TIP3    H130988   6.473   0.985   0.945 -0.0326  0.7947  0.1752
 3143TIP3    H230989   6.409   0.882   1.035  2.1878 -0.5152  0.3185
 3144TIP3   OH230990   6.293   3.675   2.106 -0.1379 -0.4499  0.1265
 3144TIP3    H130991   6.219   3.710   2.156  1.8076  0.9151  2.2890
 3144TIP3    H230992   6.322   3.749   2.053  0.7201 -0.4036  0.6394
 3145TIP3   OH230993   3.373   4.996   0.758 -0.0112 -0.7352 -0.3617
 3145TIP3    H130994   3.451   4.943   0.770  0.3188  0.0438  1.1431
 3145TIP3    H230995   3.300   4.934   0.765  0.4302 -1.4333 -1.6037
 3146TIP3   OH230996   5.436   2.079   0.159  0.1196 -0.1146 -0.7191
 3146TIP3    H130997   5.450   2.171   0.137  2.4598 -0.7852 -2.4136
 3146TIP3    H230998   5.522   2.046   0.184 -0.8505 -1.6364  0.8713
 3147TIP3   OH230999   5.314   0.025   7.845 -0.3588  0.0391 -0.5901
 3147TIP3    H131000   5.322   0.066   7.931 -1.0146  1.6413 -1.2512
 3147TIP3    H231001   5.251  -0.046   7.858 -0.9377  0.6702  0.1225
 3148TIP3   OH231002   1.269   2.539   0.314  0.1566 -0.4740 -0.0016
 3148TIP3    H131003   1.359   2.572   0.303  0.1402 -1.2654 -3.9033
 3148TIP3    H231004   1.280   2.451   0.350  0.9333 -0.4099 -0.0662
 3149TIP3   OH231005   0.417   1.617   7.037 -0.2739 -0.8883 -0.8266
 3149TIP3    H131006   0.458   1.568   7.108  0.5762 -0.2185 -0.8321
 3149TIP3    H231007   0.459   1.582   6.958  2.2429  1.5209 -0.6828
 3150TIP3   OH231008   3.178   2.053   8.539  0.4328  0.5160  0.4198
 3150TIP3    H131009   3.119   1.984   8.572  0.7254  0.3604  0.6185
 3150TIP3    H231010   3.218   2.090   8.618  0.4210  0.7856  0.2994
 3151TIP3   OH231011   6.087   0.722   8.291  0.4735  0.0568  0.6430
 3151TIP3    H131012   6.042   0.806   8.282 -0.7520 -0.4514  1.7470
 3151TIP3    H231013   6.095   0.689   8.201  0.1445  0.9355  0.2842
 3152TIP3   OH231014   2.279   2.108   1.512  0.0401  0.6715 -0.9129
 3152TIP3    H131015   2.226   2.050   1.458  0.3874  0.7646 -1.3617
 3152TIP3    H231016   2.348   2.051   1.547  0.4117  0.8122 -1.3951
 3153TIP3   OH231017   1.084   2.116   8.119 -0.5462  0.3911 -0.0319
 3153TIP3    H131018   1.152   2.074   8.171 -1.3257  1.1346  1.6946
 3153TIP3    H231019   1.072   2.201   8.161 -0.7295  1.3318 -1.9155
 3154TIP3   OH231020   0.550   2.553   7.577 -0.1737  0.3955 -0.4139
 3154TIP3    H131021   0.526   2.489   7.645  3.5689  0.3599  1.1429
 3154TIP3    H231022   0.630   2.594   7.611  0.4108  2.2799 -3.6891
 3155TIP3   OH231023   0.424   6.179   1.646 -0.3708 -0.5474 -0.5582
 3155TIP3    H131024   0.426   6.252   1.708  0.1587 -0.7901 -0.2860
 3155TIP3    H231025   0.390   6.217   1.565 -1.5476 -0.3303  0.0108
 3156TIP3   OH231026   0.647   3.693   1.220  0.0106 -0.3514  0.2022
 3156TIP3    H131027   0.733   3.653   1.205  0.4692  0.8046 -0.4176
 3156TIP3    H231028   0.629   3.677   1.312  1.8789  1.1610  0.9120
 3157TIP3   OH231029   6.550   6.215   6.976  0.4728  0.9113  0.3473
 3157TIP3    H131030   6.547   6.242   6.884  1.3080  0.4350  0.1699
 3157TIP3    H231031   6.638   6.178   6.987 -0.5607 -1.6504  0.5935
 3158TIP3   OH231032   3.742   5.471   0.199  0.2609 -0.1939  0.3865
 3158TIP3    H131033   3.793   5.491   0.120  1.2345  2.7141  1.6074
 3158TIP3    H231034   3.651   5.486   0.173  0.2495 -2.0897 -0.8851
 3159TIP3   OH231035   2.050   4.310   1.378 -0.4341 -0.0040 -0.8676
 3159TIP3    H131036   2.027   4.401   1.396 -4.9324 -1.0439  0.0471
 3159TIP3    H231037   2.023   4.296   1.287 -0.4577 -0.5652 -0.7809
 3160TIP3   OH231038   0.421   2.981   1.990  0.6091  0.2891  0.6909
 3160TIP3    H131039   0.439   3.038   2.065 -2.8682  3.2723 -0.4670
 3160TIP3    H231040   0.434   3.036   1.913  0.5758 -1.5871 -0.7508
 3161TIP3   OH231041   5.360   6.675   1.186 -0.5472 -0.6913 -0.6258
 3161TIP3    H131042   5.309   6.649   1.263  0.3554 -0.2642  0.1439
 3161TIP3    H231043   5.394   6.593   1.150 -1.0451 -0.8995 -0.6296
 3162TIP3   OH231044   5.118   1.664   1.997  0.3037  0.5460 -0.0484
 3162TIP3    H131045   5.070   1.705   2.069 -0.0261 -1.2612  0.8222
 3162TIP3    H231046   5.173   1.598   2.039  0.4780 -0.2121 -1.4048
 3163TIP3   OH231047   4.184   6.345   1.997 -0.4785  0.6069  0.4883
 3163TIP3    H131048   4.278   6.327   1.987 -0.6454 -0.1201  0.1258
 3163TIP3    H231049   4.180   6.425   2.050  0.3595  1.2562 -0.4016
 3164TIP3   OH231050   2.392   5.270   1.536  0.6584  0.3846 -0.4258
 3164TIP3    H131051   2.340   5.345   1.508  1.2797  0.5595 -1.1623
 3164TIP3    H231052   2.482   5.302   1.538  1.0625 -0.5515 -1.6853
 3165TIP3   OH231053   6.491   4.090   0.651 -0.1808  0.0983 -0.2181
 3165TIP3    H131054   6.416   4.041   0.685  0.4046 -3.0151 -2.9294
 3165TIP3    H231055   6.453   4.171   0.617 -1.7938 -0.0529  1.0879
 3166TIP3   OH231056   4.300   1.878   0.685 -0.0356 -0.5547  0.1266
 3166TIP3    H131057   4.308   1.835   0.600  0.3965  0.1989 -0.2291
 3166TIP3    H231058   4.341   1.963   0.672 -0.6551 -0.1289  0.8806
 3167TIP3   OH231059   4.592   6.354   3.008  0.5409 -0.2260  0.1454
 3167TIP3    H131060   4.532   6.428   3.020  1.0092  0.4412 -1.3846
 3167TIP3    H231061   4.562   6.311   2.928  0.9212 -1.0806  0.4412
 3168TIP3   OH231062   4.459   0.329   7.150 -0.0464 -0.5829  0.0411
 3168TIP3    H131063   4.424   0.414   7.126 -0.9853 -0.8368  0.4587
 3168TIP3    H231064   4.546   0.326   7.110 -1.4053 -0.9161 -3.1218
 3169TIP3   OH231065   1.011   5.006   0.837 -0.3206  0.3159  0.1356
 3169TIP3    H131066   1.076   4.939   0.813 -1.3990 -1.3136  1.5901
 3169TIP3    H231067   1.054   5.057   0.905 -0.3807 -0.5076  0.8112
 3170TIP3   OH231068   1.493   3.255   1.421 -0.0405  0.0922  0.1291
 3170TIP3    H131069   1.492   3.348   1.441 -1.0401  0.6523 -2.1784
 3170TIP3    H231070   1.519   3.251   1.329 -1.3542 -1.8152 -0.2086
 3171TIP3   OH231071   0.842   4.302   0.059  0.3975 -0.0625 -0.1110
 3171TIP3    H131072   0.847   4.360  -0.017  2.0517 -0.3246 -0.2236
 3171TIP3    H231073   0.748   4.289   0.073  0.0531  0.8122 -1.4709
 3172TIP3   OH231074   1.660   3.815   0.502 -0.0387  0.7445 -0.3992
 3172TIP3    H131075   1.686   3.725   0.519  1.5575  1.4207  1.0205
 3172TIP3    H231076   1.633   3.849   0.587  3.1636  2.7210 -0.0166
 3173TIP3   OH231077   2.609   5.474   2.284  0.0285  0.7098 -0.4284
 3173TIP3    H131078   2.577   5.545   2.340  2.1061 -0.0771  1.9675
 3173TIP3    H231079   2.543   5.406   2.291  0.4488  0.4439  1.5560
 3174TIP3   OH231080   3.963   2.803   7.054 -0.2928 -0.3518  0.4476
 3174TIP3    H131081   3.896   2.869   7.071 -0.1542  0.0317 -0.4230
 3174TIP3    H231082   3.972   2.756   7.137 -1.0433  0.1269  0.8145
 3175TIP3   OH231083   0.639   5.125   2.888  0.1507  0.2946 -0.2732
 3175TIP3    H131084   0.612   5.035   2.869 -1.1419  0.7348 -0.6746
 3175TIP3    H231085   0.604   5.144   2.975  1.4149  0.0523  0.3103
 3176TIP3   OH231086   5.878   4.563   8.056 -1.1835 -0.0544  0.5784
 3176TIP3    H131087   5.959   4.567   8.106 -1.2726  0.5141  0.6823
 3176TIP3    H231088   5.854   4.470   8.057  1.1621 -0.8154 -2.1899
 3177TIP3   OH231089   4.284   6.689   7.219  0.1173  0.3779  0.1718
 3177TIP3    H131090   4.254   6.779   7.207 -0.8999  0.0343  0.0170
 3177TIP3    H231091   4.371   6.687   7.179  0.9338  1.7235  1.7859
 3178TIP3   OH231092   4.376   6.207   8.233  0.0469 -0.1001 -0.7149
 3178TIP3    H131093   4.309   6.275   8.242 -0.2769 -0.4196 -0.7009
 3178TIP3    H231094   4.454   6.244   8.275 -0.6653 -0.4826  1.0357
 3179TIP3   OH231095   3.761   5.924   0.663 -0.7617 -0.0225 -0.3428
 3179TIP3    H131096   3.785   5.870   0.589  0.6670  0.7543 -0.4860
 3179TIP3    H231097   3.741   6.010   0.625 -3.5644 -0.5273 -0.1859
 3180TIP3   OH231098   5.854   1.986   2.019  0.1988 -0.3093  0.4663
 3180TIP3    H131099   5.947   1.988   1.996 -0.1239  0.5889 -0.8860
 3180TIP3    H231100   5.820   2.069   1.986 -1.1717 -0.8205  0.5570
 3181TIP3   OH231101   4.375   2.948   1.018 -0.5671  0.0259 -0.4067
 3181TIP3    H131102   4.285   2.971   1.043 -0.2163  1.2268 -0.1578
 3181TIP3    H231103   4.420   3.033   1.011  1.3595 -0.5871  2.5350
 3182TIP3   OH231104   0.065   4.183   7.350 -0.1633 -0.2003 -0.3129
 3182TIP3    H131105   0.086   4.251   7.286  1.0409 -1.2735 -1.0948
 3182TIP3    H231106   0.036   4.109   7.298  0.5148 -0.9849  0.3909
 3183TIP3   OH231107   5.806   4.548   7.327  0.5208  0.2151 -0.0703
 3183TIP3    H131108   5.869   4.582   7.391 -0.2813 -0.9551  1.3860
 3183TIP3    H231109   5.725   4.538   7.375 -0.1237 -0.6798 -1.2870
 3184TIP3   OH231110   1.826   1.365   1.080 -0.0781 -0.4113  0.0202
 3184TIP3    H131111   1.767   1.344   1.007 -0.8395 -1.7398  0.9570
 3184TIP3    H231112   1.908   1.322   1.057 -0.0894 -0.2191 -0.3876
 3185TIP3   OH231113   5.848   1.313   1.544 -0.2861 -0.8298 -0.2264
 3185TIP3    H131114   5.787   1.339   1.474 -1.4868  0.4340  1.2169
 3185TIP3    H231115   5.803   1.242   1.590  0.3440 -1.4171 -0.5030
 3186TIP3   OH231116   3.862   5.523   7.129  0.3534 -0.2109  0.2311
 3186TIP3    H131117   3.865   5.479   7.213  1.7903  0.9784  0.8467
 3186TIP3    H231118   3.818   5.607   7.147  0.6992  0.0686 -0.1813
 3187TIP3   OH231119   0.100   4.599   0.756  0.6044  0.5267  0.1653
 3187TIP3    H131120   0.029   4.650   0.794  0.2201  0.1225 -0.0098
 3187TIP3    H231121   0.127   4.649   0.679 -0.2581  0.1102 -0.4246
 3188TIP3   OH231122   2.395   5.852   7.137 -0.0858  0.4315  0.8466
 3188TIP3    H131123   2.377   5.764   7.101  2.8187 -0.4956  1.4182
 3188TIP3    H231124   2.356   5.912   7.074  0.9918 -1.2310 -1.5385
 3189TIP3   OH231125   4.289   0.004   1.078  0.1113  0.1023  0.7590
 3189TIP3    H131126   4.211  -0.032   1.036  0.1827 -0.0424  0.7465
 3189TIP3    H231127   4.353   0.010   1.007 -0.0297  0.6476  0.6757
 3190TIP3   OH231128   5.801   1.375   8.384 -0.0169 -0.5374 -0.3502
 3190TIP3    H131129   5.890   1.397   8.355  0.2524  0.4343  1.1215
 3190TIP3    H231130   5.770   1.312   8.319  0.6597  1.2717 -2.5702
 3191TIP3   OH231131   3.841   1.131   8.450 -0.1420 -0.1663 -0.2853
 3191TIP3    H131132   3.932   1.102   8.460 -0.1506 -0.4223 -0.8891
 3191TIP3    H231133   3.847   1.227   8.447  0.0046 -0.1375  0.5848
 3192TIP3   OH231134   5.062   5.585   0.208 -0.0730 -0.2371 -0.4810
 3192TIP3    H131135   5.075   5.524   0.280 -1.6486 -1.0450 -0.8326
 3192TIP3    H231136   5.103   5.666   0.237  0.8448 -1.0481  0.5829
 3193TIP3   OH231137   5.228   3.345   1.690  0.0406  0.0259  0.1560
 3193TIP3    H131138   5.176   3.418   1.724 -2.1599 -0.9383 -0.8989
 3193TIP3    H231139   5.299   3.387   1.641 -0.7340  1.4367  0.1796
 3194TIP3   OH231140   4.664   3.165   2.430  0.4215  0.3218  0.3889
 3194TIP3    H131141   4.709   3.101   2.486  0.1628 -0.5351 -0.3542
 3194TIP3    H231142   4.580   3.123   2.410  1.0728 -0.0475 -1.8214
 3195TIP3   OH231143   4.844   3.628   8.432 -1.2672 -0.1998  0.8127
 3195TIP3    H131144   4.805   3.628   8.520  0.3016  1.2153  1.5565
 3195TIP3    H231145   4.796   3.696   8.384 -1.2654 -0.0821  0.9790
 3196TIP3   OH231146   2.383   4.659   6.974  0.1634  0.0093 -0.3642
 3196TIP3    H131147   2.363   4.575   6.934 -0.2144  0.3279 -0.8623
 3196TIP3    H231148   2.423   4.637   7.059 -2.3260 -0.6736  0.7187
 3197TIP3   OH231149   6.199   5.798   6.657  0.0702 -0.1453 -0.7780
 3197TIP3    H131150   6.254   5.877   6.653  0.6143 -0.4168  0.7052
 3197TIP3    H231151   6.240   5.737   6.595  1.5589 -0.3857  0.3748
 3198TIP3   OH231152   5.094   0.238   7.852 -0.3306  0.0016 -0.9308
 3198TIP3    H131153   5.050   0.258   7.769  0.1718 -0.7729 -1.4080
 3198TIP3    H231154   5.157   0.169   7.829 -0.3371 -0.3886  0.1423
 3199TIP3   OH231155   3.171   0.361   6.895  0.7138 -0.4615 -0.3250
 3199TIP3    H131156   3.116   0.296   6.852  0.0892  0.6966 -1.3268
 3199TIP3    H231157   3.232   0.391   6.828  0.1238  0.9343 -0.2732
 3200TIP3   OH231158   1.628   1.156   0.341 -0.0460 -0.3644  0.2976
 3200TIP3    H131159   1.693   1.095   0.307  0.4216 -0.4830  1.3697
 3200TIP3    H231160   1.555   1.151   0.278  1.4804  0.7779 -1.7036
 3201TIP3   OH231161   3.236   5.034   1.613  0.2953  0.1158  0.1913
 3201TIP3    H131162   3.190   4.973   1.556 -0.5991 -0.1029  1.1267
 3201TIP3    H231163   3.192   5.118   1.600  0.2680  0.1280  0.3582
 3202TIP3   OH231164   1.516   1.203   2.862 -0.0734 -0.6794  0.1888
 3202TIP3    H131165   1.481   1.150   2.790 -1.0231  0.2637 -0.0664
 3202TIP3    H231166   1.606   1.172   2.873 -0.8366 -2.9569  0.6221
 3203TIP3   OH231167   5.942   6.017   7.525 -0.2488 -0.0003 -0.1038
 3203TIP3    H131168   5.911   6.052   7.609 -2.2430 -0.8859 -0.4003
 3203TIP3    H231169   5.873   5.956   7.498  2.6331 -3.7024  0.0438
 3204TIP3   OH231170   1.316   2.669   7.502  0.0483  0.0897  0.0626
 3204TIP3    H131171   1.375   2.729   7.548  1.0278 -0.1528 -0.8209
 3204TIP3    H231172   1.303   2.710   7.416 -2.6047  1.0831  0.8564
 3205TIP3   OH231173   6.757   6.639   7.345  0.1211  0.0301  0.0369
 3205TIP3    H131174   6.755   6.564   7.286  0.2533 -0.9072  1.2143
 3205TIP3    H231175   6.827   6.620   7.407  0.3446  1.2598  0.2035
 3206TIP3   OH231176   4.360   2.731   2.622 -0.1210  0.1499  0.1559
 3206TIP3    H131177   4.419   2.658   2.639 -0.6630 -0.6821 -1.4116
 3206TIP3    H231178   4.379   2.758   2.532 -0.0080  1.9003  0.6551
 3207TIP3   OH231179   1.988   1.282   7.639  0.0875  0.1909 -0.2442
 3207TIP3    H131180   2.019   1.308   7.552  2.3328 -0.3928  0.3078
 3207TIP3    H231181   2.044   1.331   7.699  0.7878 -1.8312  0.8349
 3208TIP3   OH231182   1.909   3.404   2.450 -0.0478  0.5308  0.3931
 3208TIP3    H131183   1.893   3.337   2.516  1.7323  1.7529  2.1999
 3208TIP3    H231184   1.966   3.467   2.493 -0.6371  2.5925 -1.6147
 3209TIP3   OH231185   2.144   2.837   1.600  0.3056 -0.7966  0.1457
 3209TIP3    H131186   2.132   2.875   1.513 -0.6995  0.1550  0.6759
 3209TIP3    H231187   2.232   2.865   1.627 -0.4317  1.3463  0.5651
 3210TIP3   OH231188   0.414   0.355   2.013  0.0516  0.1321  0.4052
 3210TIP3    H131189   0.481   0.288   2.002  0.5723  0.4945  1.2518
 3210TIP3    H231190   0.362   0.325   2.087 -0.1996  0.2806  0.2921
 3211TIP3   OH231191   2.046   2.204   2.064 -0.2475 -0.2871  0.3738
 3211TIP3    H131192   2.124   2.154   2.042  0.2135  0.0498  1.2199
 3211TIP3    H231193   1.990   2.143   2.111 -0.2772 -0.3806  0.2198
 3212TIP3   OH231194   4.715   2.068   2.308 -0.6309  0.2486  0.4965
 3212TIP3    H131195   4.799   2.082   2.352  0.4767 -2.4587 -0.5181
 3212TIP3    H231196   4.682   1.986   2.344  0.2058 -1.9911 -3.2992
 3213TIP3   OH231197   6.744   5.358   2.919  0.2259  0.1076 -0.3481
 3213TIP3    H131198   6.682   5.424   2.889 -1.4991 -1.7579 -1.1025
 3213TIP3    H231199   6.824   5.407   2.939 -1.5365  2.6537  0.9545
 3214TIP3   OH231200   1.401   1.564   8.481 -0.0503  0.1560  0.0677
 3214TIP3    H131201   1.470   1.568   8.547  0.5667  3.1329 -0.6066
 3214TIP3    H231202   1.385   1.470   8.469  1.3037 -0.5312  2.8377
 3215TIP3   OH231203   0.565   6.804   7.993 -0.1430  0.1113  0.6295
 3215TIP3    H131204   0.608   6.878   7.951 -2.4624 -0.0087 -2.2398
 3215TIP3    H231205   0.613   6.727   7.961  1.1786  0.1948  2.2558
 3216TIP3   OH231206   5.642   6.358   1.826 -0.3088 -0.1842  0.8502
 3216TIP3    H131207   5.682   6.433   1.783 -0.4492  0.2737  1.4972
 3216TIP3    H231208   5.703   6.333   1.895  0.4546 -1.6289 -0.3008
 3217TIP3   OH231209   1.015   6.201   6.903 -0.2674 -0.6753 -0.9028
 3217TIP3    H131210   1.007   6.204   6.807  1.9717 -0.6216 -1.1474
 3217TIP3    H231211   1.100   6.159   6.918  0.3497  1.1036  1.0149
 3218TIP3   OH231212   3.026   3.754   0.315 -0.5172  0.0191 -0.1095
 3218TIP3    H131213   3.028   3.666   0.278  2.1515  0.2820 -0.7838
 3218TIP3    H231214   2.991   3.809   0.245  0.3334 -0.1296 -0.6574
 3219TIP3   OH231215   6.278   2.769   7.941 -0.0662  0.5611  0.4574
 3219TIP3    H131216   6.290   2.740   8.031  2.8812  0.8418  0.2497
 3219TIP3    H231217   6.365   2.762   7.901 -1.4235 -0.4439 -2.6620
 3220TIP3   OH231218   3.749   3.363   2.207  0.3024  0.6823  0.2348
 3220TIP3    H131219   3.771   3.276   2.241 -1.9410  0.4037  1.1248
 3220TIP3    H231220   3.657   3.357   2.182  1.2322  1.4758 -4.1705
 3221TIP3   OH231221   1.400   0.266   7.167 -0.0322  0.2891  0.0964
 3221TIP3    H131222   1.491   0.262   7.138 -0.3913  0.1979 -1.0767
 3221TIP3    H231223   1.385   0.181   7.209  0.8910  0.9379  1.8644
 3222TIP3   OH231224   4.755   2.532   7.207  0.5827  0.0261 -0.1349
 3222TIP3    H131225   4.788   2.453   7.163  1.9592  1.3979 -1.6959
 3222TIP3    H231226   4.662   2.514   7.223  0.8221 -1.8275 -0.6040
 3223TIP3   OH231227   3.667   6.550   7.801  0.5772 -0.0261  0.0269
 3223TIP3    H131228   3.687   6.636   7.765 -0.8355  1.0103  1.5834
 3223TIP3    H231229   3.751   6.516   7.831  1.6515 -0.5219 -3.1597
 3224TIP3   OH231230   6.432   3.919   2.351 -0.2412 -0.2922  0.3551
 3224TIP3    H131231   6.515   3.885   2.386 -0.0998  0.2428  0.5498
 3224TIP3    H231232   6.367   3.856   2.381  0.0427 -0.4960  0.5573
 3225TIP3   OH231233   0.104   1.818   7.761 -0.0000  0.6466 -0.1752
 3225TIP3    H131234   0.075   1.836   7.850 -0.5185 -1.2388  0.0963
 3225TIP3    H231235   0.196   1.843   7.760  0.5623 -1.0617  1.5268
 3226TIP3   OH231236   6.250   3.322   8.317  0.7651  0.0052  0.0607
 3226TIP3    H131237   6.240   3.256   8.249  1.6060 -1.1305  0.9866
 3226TIP3    H231238   6.333   3.300   8.361  0.8768  1.4456  0.6544
 3227TIP3   OH231239   1.307   6.640   6.825  0.0085  0.2520 -0.4022
 3227TIP3    H131240   1.368   6.713   6.838  1.0725 -0.5677 -0.6528
 3227TIP3    H231241   1.351   6.565   6.864 -0.5553 -0.4965 -1.1677
 3228TIP3   OH231242   6.154   0.057   7.275 -0.4001 -0.1481  0.4133
 3228TIP3    H131243   6.111   0.049   7.360 -0.0145  0.2569  0.6547
 3228TIP3    H231244   6.084   0.081   7.215 -0.5133  0.5670  0.8139
 3229TIP3   OH231245   1.675   5.735   7.428 -0.2058 -0.1497 -0.7393
 3229TIP3    H131246   1.662   5.763   7.519  1.1243 -2.4915  0.2771
 3229TIP3    H231247   1.587   5.736   7.390 -0.9075  0.1754  0.8103
 3230TIP3   OH231248   5.200   2.722   2.511  0.1822  0.2010 -0.5640
 3230TIP3    H131249   5.189   2.630   2.535 -0.4388  0.5892  0.7680
 3230TIP3    H231250   5.119   2.764   2.542  1.8772  1.7885  2.0597
 3231TIP3   OH231251   5.541   0.201   8.703  1.0999 -0.0702 -0.0330
 3231TIP3    H131252   5.489   0.123   8.718  1.3224 -0.4593 -1.2276
 3231TIP3    H231253   5.596   0.180   8.628  0.1147  1.7411 -1.3347
 3232TIP3   OH231254   0.302   4.169   0.494 -0.1117  0.2940  0.3558
 3232TIP3    H131255   0.394   4.187   0.513 -0.2885  1.6196  0.0448
 3232TIP3    H231256   0.257   4.252   0.507 -1.2909 -0.3409  0.5524
 3233TIP3   OH231257   4.449   5.776   0.337  0.3158  0.2316  0.2403
 3233TIP3    H131258   4.486   5.695   0.374  0.4218  0.3058  0.2988
 3233TIP3    H231259   4.419   5.751   0.250  0.4368  0.1513  0.2207
 3234TIP3   OH231260   5.767   3.477   2.897 -0.5451 -0.1233 -0.6692
 3234TIP3    H131261   5.804   3.468   2.985  1.4576  1.7068 -1.2147
 3234TIP3    H231262   5.813   3.411   2.845 -0.6170 -0.2000 -0.6351
 3235TIP3   OH231263   1.520   1.845   1.200  0.1225  0.5930  0.2146
 3235TIP3    H131264   1.585   1.775   1.206 -0.2802  0.0705 -1.3142
 3235TIP3    H231265   1.461   1.819   1.129 -1.2280  1.5092  0.9360
 3236TIP3   OH231266   5.781   1.503   2.226 -0.1054 -0.1003  0.3239
 3236TIP3    H131267   5.703   1.452   2.248 -0.0701 -0.2902  0.0225
 3236TIP3    H231268   5.854   1.452   2.259 -0.1617  0.6775  1.7273
 3237TIP3   OH231269   1.771   3.104   1.325 -0.0837 -0.2751  0.2102
 3237TIP3    H131270   1.687   3.103   1.370 -0.8333  1.8959 -1.0080
 3237TIP3    H231271   1.836   3.101   1.396 -1.2155  1.9068  1.4188
 3238TIP3   OH231272   5.797   2.918   2.502 -0.3718  0.2156  0.4082
 3238TIP3    H131273   5.792   2.898   2.595 -0.7502  0.6399  0.4849
 3238TIP3    H231274   5.878   2.969   2.492 -0.3665  0.2273  0.5136
 3239TIP3   OH231275   0.418   6.289   1.918  0.1654 -0.5128  0.1214
 3239TIP3    H131276   0.454   6.211   1.959 -0.9011 -1.6800 -1.0847
 3239TIP3    H231277   0.325   6.289   1.941 -0.4276 -1.1059 -2.0374
 3240TIP3   OH231278   1.627   2.948   0.731  0.0722  0.1184  0.5485
 3240TIP3    H131279   1.671   2.990   0.657 -0.9361 -2.2377 -1.5312
 3240TIP3    H231280   1.534   2.969   0.720 -0.0701 -0.0515  1.3238
 3241TIP3   OH231281   2.440   1.366   7.767  0.4306  0.8531  0.0611
 3241TIP3    H131282   2.344   1.374   7.765  0.0760 -2.2384 -0.0463
 3241TIP3    H231283   2.463   1.334   7.680  1.5303  0.9889  0.2845
 3242TIP3   OH231284   0.489   6.631   8.195  0.5960  0.3263  0.4955
 3242TIP3    H131285   0.524   6.690   8.129  1.5334 -1.7311 -0.9383
 3242TIP3    H231286   0.479   6.686   8.273  0.9534  2.4522 -0.8681
 3243TIP3   OH231287   0.860   5.076   8.327  0.0539 -0.4561 -0.2480
 3243TIP3    H131288   0.774   5.034   8.322  0.1934 -0.6744 -0.8678
 3243TIP3    H231289   0.840   5.168   8.347 -0.2524 -0.7885  1.0818
 3244TIP3   OH231290   1.773   4.674   0.351 -0.0611 -0.2559  0.0463
 3244TIP3    H131291   1.685   4.705   0.374 -0.2296  0.5662 -1.5345
 3244TIP3    H231292   1.758   4.607   0.285  0.4613 -1.0276  0.7012
 3245TIP3   OH231293   5.262   2.501   1.947 -0.0208 -0.2686  0.1308
 3245TIP3    H131294   5.231   2.485   2.036 -2.2148  0.2863 -0.4511
 3245TIP3    H231295   5.357   2.499   1.953 -0.1248 -0.6729  2.3952
 3246TIP3   OH231296   5.177   6.816   7.299  0.4019 -0.7727 -0.3439
 3246TIP3    H131297   5.124   6.888   7.265 -0.1924 -1.0015  0.0697
 3246TIP3    H231298   5.130   6.737   7.272  0.9891 -1.0027 -0.6983
 3247TIP3   OH231299   5.012   5.161   8.386  0.6006  0.3997  0.7287
 3247TIP3    H131300   5.052   5.180   8.471  1.2525 -0.5790  0.6655
 3247TIP3    H231301   5.087   5.157   8.326  0.1159  1.4185  0.0332
 3248TIP3   OH231302   4.310   4.519   7.676 -0.2291 -0.2922 -0.3251
 3248TIP3    H131303   4.273   4.595   7.634  0.5330  0.8046  0.9037
 3248TIP3    H231304   4.330   4.458   7.604 -0.2473  0.9273 -1.3906
 3249TIP3   OH231305   3.948   2.248   0.915  0.0802 -0.2252  0.6567
 3249TIP3    H131306   3.891   2.322   0.896 -0.6169 -0.5289  1.5049
 3249TIP3    H231307   3.928   2.183   0.848 -0.1885 -0.1221  0.6378
 3250TIP3   OH231308   1.853   6.537   7.728 -0.5817  0.6480  0.8318
 3250TIP3    H131309   1.946   6.529   7.750 -0.4272 -2.6009 -0.4699
 3250TIP3    H231310   1.810   6.473   7.784 -1.5593 -0.2420 -0.8729
 3251TIP3   OH231311   2.260   3.194   2.092  0.1557 -0.1355 -0.7686
 3251TIP3    H131312   2.257   3.177   1.998 -1.2254 -0.1092 -0.7408
 3251TIP3    H231313   2.336   3.144   2.123  0.0942 -0.8519 -1.7508
 3252TIP3   OH231314   2.352   5.027   2.257  0.3749  0.0265 -0.1825
 3252TIP3    H131315   2.296   4.969   2.309  0.5367  0.1872  0.1767
 3252TIP3    H231316   2.309   5.033   2.173 -0.1854  0.2037  0.1154
 3253TIP3   OH231317   6.555   3.985   1.670 -0.1223  0.5723  0.0930
 3253TIP3    H131318   6.513   4.031   1.597 -1.9005  0.1275  0.7780
 3253TIP3    H231319   6.543   3.892   1.649  0.5531  0.4345  0.3056
 3254TIP3   OH231320   5.169   4.642   0.769 -0.1986 -0.4003 -0.1116
 3254TIP3    H131321   5.160   4.550   0.795  2.2660 -0.1799  1.9501
 3254TIP3    H231322   5.086   4.682   0.793 -0.9121 -1.8662 -0.0278
 3255TIP3   OH231323   0.553   4.445   0.213 -0.1208  0.6425 -0.5143
 3255TIP3    H131324   0.630   4.500   0.199  0.1876  0.3904  0.1281
 3255TIP3    H231325   0.583   4.378   0.276 -0.3205 -0.5735 -1.6712
 3256TIP3   OH231326   1.310   3.750   1.021 -0.2247  0.0854  0.0760
 3256TIP3    H131327   1.370   3.778   1.089  0.2760 -0.0585 -0.3029
 3256TIP3    H231328   1.364   3.743   0.942 -0.4169 -1.5234  0.0546
 3257TIP3   OH231329   1.300   2.560   8.556  0.0705  0.1902  0.3588
 3257TIP3    H131330   1.325   2.581   8.646  0.3888  0.1810  0.2748
 3257TIP3    H231331   1.355   2.485   8.533  1.6040  1.5552 -0.5978
 3258TIP3   OH231332   2.447   4.869   1.929 -0.6535  0.2415  0.0851
 3258TIP3    H131333   2.408   4.801   1.984 -0.9702  0.5832  0.2898
 3258TIP3    H231334   2.471   4.824   1.848 -2.4592  0.2314 -0.4845
 3259TIP3   OH231335   2.027   5.447   0.046 -0.1045  0.2824  0.6637
 3259TIP3    H131336   1.945   5.455   0.095 -0.0567  2.5418  0.4665
 3259TIP3    H231337   2.092   5.420   0.110 -0.7161 -0.1670  1.1040
 3260TIP3   OH231338   1.866   0.737   8.441 -0.5803  0.9069 -0.0714
 3260TIP3    H131339   1.802   0.808   8.437 -0.1021  1.3259 -0.2923
 3260TIP3    H231340   1.854   0.699   8.529  0.8396  2.8525  1.0370
 3261TIP3   OH231341   4.354   0.711   1.016 -0.1316 -0.2570  0.0833
 3261TIP3    H131342   4.317   0.789   0.976  2.1321  1.0968  0.5169
 3261TIP3    H231343   4.430   0.741   1.065  0.6853 -2.6920  0.4859
 3262TIP3   OH231344   5.606   6.203   8.306 -0.1812 -0.2819 -0.3740
 3262TIP3    H131345   5.581   6.287   8.344 -0.2187 -0.5762  0.2587
 3262TIP3    H231346   5.701   6.199   8.315 -0.1493 -0.1849 -0.6601
 3263TIP3   OH231347   2.426   5.839   0.624 -0.1234 -0.2738 -0.0561
 3263TIP3    H131348   2.371   5.829   0.546 -0.9379 -1.4719  0.6309
 3263TIP3    H231349   2.417   5.755   0.670 -0.7640  0.8631  2.0274
 3264TIP3   OH231350   2.020   0.439   1.815  0.6933  0.3791  0.1596
 3264TIP3    H131351   1.998   0.471   1.903 -0.8727 -0.7703  0.2261
 3264TIP3    H231352   1.944   0.461   1.761  1.3973  0.5506 -0.7943
 3265TIP3   OH231353   3.332   1.925   7.530  0.4112  0.1633 -0.6039
 3265TIP3    H131354   3.312   1.980   7.605 -0.5393 -0.1149 -0.6474
 3265TIP3    H231355   3.397   1.975   7.481  0.6438  0.5837  0.1169
 3266TIP3   OH231356   2.300   0.798   0.223 -0.0709 -0.0751  0.3693
 3266TIP3    H131357   2.357   0.780   0.298 -1.7822  1.3644  2.1558
 3266TIP3    H231358   2.322   0.731   0.159  3.7726  0.5873  0.7844
 3267TIP3   OH231359   1.968   5.758   0.038  0.0145  0.5216 -0.3180
 3267TIP3    H131360   1.906   5.719  -0.024  0.1523  1.2654 -0.9487
 3267TIP3    H231361   1.929   5.844   0.059 -1.1444 -0.5219  2.3154
 3268TIP3   OH231362   0.345   6.442   7.501 -0.4581 -0.4065  0.4264
 3268TIP3    H131363   0.420   6.491   7.535 -1.4045  1.6782 -0.2667
 3268TIP3    H231364   0.380   6.357   7.475  1.7877  0.7008 -0.3869
 3269TIP3   OH231365   0.106   1.068   2.802 -0.0720 -0.0380 -0.6362
 3269TIP3    H131366   0.144   1.002   2.743 -0.1931 -0.3863 -0.3276
 3269TIP3    H231367   0.026   1.095   2.758 -0.4051 -0.6395 -0.4194
 3270TIP3   OH231368   4.280   3.796   8.251 -0.0587 -0.0140  0.6537
 3270TIP3    H131369   4.324   3.861   8.307 -2.5168  0.9597  1.5936
 3270TIP3    H231370   4.291   3.713   8.297  0.9907  0.1511  0.7262
 3271TIP3   OH231371   6.395   4.690   1.535  0.5801  0.2823 -0.0312
 3271TIP3    H131372   6.385   4.784   1.520  0.9805  0.3410  0.0444
 3271TIP3    H231373   6.489   4.674   1.524  0.4758 -0.1549 -0.2974
 3272TIP3   OH231374   5.557   5.086   0.164 -0.3737  0.1193 -0.6017
 3272TIP3    H131375   5.472   5.122   0.187 -0.2484 -0.4552  0.9039
 3272TIP3    H231376   5.568   5.012   0.224  0.0896 -1.3916 -2.4664
 3273TIP3   OH231377   3.827   4.051   7.735  0.3126 -0.0060 -1.0988
 3273TIP3    H131378   3.817   4.130   7.787  2.9495 -1.0441  1.1990
 3273TIP3    H231379   3.836   4.083   7.645 -1.7851  2.0082 -0.6903
 3274TIP3   OH231380   5.548   6.130   1.721 -0.2251  0.2350 -0.4287
 3274TIP3    H131381   5.454   6.147   1.712 -0.6554 -0.2441  2.2488
 3274TIP3    H231382   5.585   6.214   1.749 -0.5149 -0.3396  1.9249
 3275TIP3   OH231383   3.648   0.086   6.877  0.4551 -0.1179  0.1521
 3275TIP3    H131384   3.660  -0.001   6.839 -0.0162 -0.2963  0.3967
 3275TIP3    H231385   3.662   0.074   6.970 -0.6758 -0.1631  0.3368
 3276TIP3   OH231386   2.153   3.429   0.003  0.6970 -0.5827  0.2182
 3276TIP3    H131387   2.186   3.360   0.061  0.6927  0.1556  1.1062
 3276TIP3    H231388   2.072   3.459   0.043 -0.4552 -1.4934 -1.2896
 3277TIP3   OH231389   6.112   4.899   7.658  0.2641  0.4822  0.7468
 3277TIP3    H131390   6.025   4.938   7.662  0.4597  1.0060 -0.0177
 3277TIP3    H231391   6.103   4.816   7.705 -1.2383 -0.5453 -1.2097
 3278TIP3   OH231392   4.231   2.340   2.445 -0.1359 -0.5877  0.1174
 3278TIP3    H131393   4.326   2.347   2.445  0.0421 -2.3664  0.1439
 3278TIP3    H231394   4.213   2.261   2.497 -1.5871 -0.6444 -0.4151
 3279TIP3   OH231395   0.519   2.151   8.102 -0.2077  0.0264  0.0977
 3279TIP3    H131396   0.487   2.181   8.018 -1.7311  0.2203  0.7216
 3279TIP3    H231397   0.482   2.064   8.113 -1.2118  0.5660  1.1780
 3280TIP3   OH231398   6.755   3.839   0.790  0.4966 -0.1783 -0.0325
 3280TIP3    H131399   6.731   3.914   0.736  0.0044 -0.6340 -0.4512
 3280TIP3    H231400   6.850   3.844   0.796  0.6969 -0.7567 -1.9194
 3281TIP3   OH231401   0.859   6.219   7.138  0.0725 -0.1957 -0.1557
 3281TIP3    H131402   0.900   6.160   7.202 -2.2708 -1.6920  0.0592
 3281TIP3    H231403   0.924   6.225   7.068  1.0112 -1.8340  0.5006
 3282TIP3   OH231404   3.814   0.499   7.784 -0.0579  0.1681 -0.1399
 3282TIP3    H131405   3.848   0.556   7.715  0.9153 -1.0261 -0.6806
 3282TIP3    H231406   3.891   0.464   7.827 -0.6165 -0.9303  0.0109
 3283TIP3   OH231407   4.079   5.287   1.330  0.3978  0.2778 -0.3728
 3283TIP3    H131408   4.016   5.250   1.392  0.2122  0.3847 -0.4951
 3283TIP3    H231409   4.057   5.380   1.326  0.1415  0.1989 -0.9068
 3284TIP3   OH231410   4.668   1.071   7.933  0.1746 -0.0579  0.3273
 3284TIP3    H131411   4.745   1.039   7.980 -0.0779 -1.6075 -0.2684
 3284TIP3    H231412   4.597   1.015   7.964  0.1485 -1.7704 -2.5107
 3285TIP3   OH231413   4.740   6.515   7.777 -0.0219 -0.3723 -0.2864
 3285TIP3    H131414   4.758   6.465   7.857  1.3373  1.4453  0.6107
 3285TIP3    H231415   4.736   6.606   7.806 -0.8044  0.2259 -2.1181
 3286TIP3   OH231416   6.676   3.515   3.003 -0.2118  0.5905 -0.2831
 3286TIP3    H131417   6.675   3.511   3.099  0.7507 -2.3816 -0.3033
 3286TIP3    H231418   6.603   3.573   2.981 -1.3058  0.2830  2.2094
 3287TIP3   OH231419   1.195   6.357   1.903 -0.0475 -0.6293  0.1692
 3287TIP3    H131420   1.215   6.415   1.829  0.1645  1.0149  1.4440
 3287TIP3    H231421   1.277   6.312   1.921  0.4639  0.4543  0.6311
 3288TIP3   OH231422   5.765   6.626   7.782 -0.1062 -0.6816 -0.4423
 3288TIP3    H131423   5.774   6.716   7.749 -0.8151 -0.3341  0.2716
 3288TIP3    H231424   5.694   6.589   7.731 -0.8328 -0.3248  0.2848
 3289TIP3   OH231425   0.903   0.851   8.331 -0.3750 -0.3760 -0.3725
 3289TIP3    H131426   0.924   0.943   8.350 -1.1325 -0.3736  0.4814
 3289TIP3    H231427   0.983   0.804   8.354  0.3307  0.1536 -1.6552
 3290TIP3   OH231428   0.804   3.070   1.830 -0.0498 -0.1764  0.2126
 3290TIP3    H131429   0.873   3.119   1.784  0.6963 -1.4702 -0.1106
 3290TIP3    H231430   0.783   2.997   1.771 -1.0701 -0.3074  0.7124
 3291TIP3   OH231431   6.666   4.616   1.444 -0.2788  0.3108  0.0026
 3291TIP3    H131432   6.618   4.535   1.459 -2.2417  1.6665  1.6516
 3291TIP3    H231433   6.721   4.598   1.368  1.1706 -3.2856  1.6782
 3292TIP3   OH231434   0.417   2.158   0.028 -0.3317  0.3554  0.8095
 3292TIP3    H131435   0.435   2.127  -0.060 -0.4742  1.6986  0.2849
 3292TIP3    H231436   0.419   2.079   0.082  0.7345 -0.3585 -0.2233
 3293TIP3   OH231437   6.685   5.003   7.978 -0.2811  1.5473 -0.1319
 3293TIP3    H131438   6.621   4.987   8.048 -0.0654 -0.2786 -0.3196
 3293TIP3    H231439   6.662   5.090   7.945 -0.6180  2.3009  1.9481
 3294TIP3   OH231440   3.058   1.033   0.043  0.4101 -0.1227 -0.4551
 3294TIP3    H131441   3.118   0.971   0.002  1.3781 -1.0723  2.1287
 3294TIP3    H231442   2.986   0.979   0.077  1.5703 -0.1066  2.3669
 3295TIP3   OH231443   2.138   5.177   8.312  0.0256 -0.3893 -0.2115
 3295TIP3    H131444   2.059   5.149   8.266  0.2044 -0.3347 -0.5481
 3295TIP3    H231445   2.202   5.195   8.243 -0.8918  3.5642 -0.3096
 3296TIP3   OH231446   6.757   1.662   0.638 -0.3433 -0.1967  0.0766
 3296TIP3    H131447   6.846   1.627   0.645  0.1006  0.9567  0.5707
 3296TIP3    H231448   6.704   1.603   0.691  0.5971  0.5186  1.9070
 3297TIP3   OH231449   0.168   6.258   2.055 -0.0322 -0.1671  0.0815
 3297TIP3    H131450   0.089   6.301   2.022  0.3763 -0.3353 -1.1676
 3297TIP3    H231451   0.187   6.303   2.137 -0.2136  1.3501 -0.6742
 3298TIP3   OH231452   6.356   6.463   8.531  0.3282  0.5648 -0.0228
 3298TIP3    H131453   6.391   6.406   8.463  0.1769  0.4913 -0.0399
 3298TIP3    H231454   6.263   6.472   8.509 -0.7036 -2.5700  2.2824
 3299TIP3   OH231455   3.261   6.162   1.857  0.6127 -0.0790  0.2612
 3299TIP3    H131456   3.278   6.107   1.780 -0.2020  0.6995 -0.5086
 3299TIP3    H231457   3.186   6.217   1.831  2.0412  2.1437  0.5846
 3300TIP3   OH231458   2.794   6.524   0.004 -0.4079  0.2122  0.0685
 3300TIP3    H131459   2.748   6.607  -0.007 -1.1501 -0.2763 -0.7017
 3300TIP3    H231460   2.829   6.504  -0.083  3.2043  1.5929  1.0139
 3301TIP3   OH231461   0.116   0.745   8.715  0.7746 -0.1425 -0.7917
 3301TIP3    H131462   0.197   0.699   8.690  0.4669 -0.2029 -1.7078
 3301TIP3    H231463   0.063   0.745   8.635 -0.7221 -1.3178  0.1543
 3302TIP3   OH231464   2.393   5.167   8.217 -0.3302 -0.8541 -0.4968
 3302TIP3    H131465   2.445   5.091   8.245 -1.5897 -2.0674 -1.3232
 3302TIP3    H231466   2.426   5.188   8.130  0.2529 -0.2178 -0.1275
 3303TIP3   OH231467   4.615   3.665   7.964 -0.0365  0.4057 -0.4453
 3303TIP3    H131468   4.567   3.589   7.997  0.5660 -0.6783 -1.9489
 3303TIP3    H231469   4.551   3.737   7.967 -1.1848 -0.5788 -0.6922
 3304TIP3   OH231470   0.620   1.449   1.780  0.3403 -0.3371 -0.2170
 3304TIP3    H131471   0.541   1.500   1.797  0.0129 -0.7363 -0.5097
 3304TIP3    H231472   0.590   1.358   1.780  0.9336 -0.5375  0.3856
 3305TIP3   OH231473   2.385   5.286   2.310  0.2861  0.2034  0.1787
 3305TIP3    H131474   2.395   5.307   2.403 -0.8076  0.1743  0.3194
 3305TIP3    H231475   2.368   5.192   2.308 -0.6577  0.3619  0.0475
 3306TIP3   OH231476   0.376   2.915   8.574 -0.2260  0.2797 -0.3262
 3306TIP3    H131477   0.357   3.008   8.559 -0.0213  0.0235 -2.4771
 3306TIP3    H231478   0.294   2.870   8.554  0.4762 -0.2090 -2.3929
 3307TIP3   OH231479   5.728   1.546   7.568 -0.0861  0.5641  0.0036
 3307TIP3    H131480   5.792   1.574   7.502  0.8577 -2.7782 -0.7067
 3307TIP3    H231481   5.663   1.496   7.518 -0.1535 -0.7980  1.3958
 3308TIP3   OH231482   4.782   5.893   7.411 -0.9069 -0.2806  0.1860
 3308TIP3    H131483   4.725   5.841   7.354 -0.6844  0.6831 -0.9503
 3308TIP3    H231484   4.735   5.976   7.422 -0.7966 -0.3349  1.1708
 3309TIP3   OH231485   0.467   4.070   7.855  0.3796 -0.0699 -0.1737
 3309TIP3    H131486   0.474   4.061   7.951  0.2642 -0.1601 -0.1730
 3309TIP3    H231487   0.386   4.024   7.833 -0.1917  0.9115 -0.1861
 3310TIP3   OH231488   4.033   2.331   8.337 -0.0120  0.4102  0.0709
 3310TIP3    H131489   4.109   2.283   8.371 -0.6307 -0.9351 -0.3707
 3310TIP3    H231490   4.023   2.299   8.247 -2.0270 -0.6213  0.6011
 3311TIP3   OH231491   0.303   3.139   8.050 -0.5305 -0.5881 -0.2784
 3311TIP3    H131492   0.283   3.176   8.137  1.4417 -0.2063  0.0680
 3311TIP3    H231493   0.272   3.049   8.055  0.4778 -0.8888  1.2180
 3312TIP3   OH231494   0.063   5.465   7.741  0.0343 -0.2519 -0.0797
 3312TIP3    H131495  -0.026   5.481   7.709  0.5426 -0.1776 -1.5475
 3312TIP3    H231496   0.093   5.549   7.775 -0.5046 -0.3197  0.5823
 3313TIP3   OH231497   0.047   2.980   2.676 -0.1899 -0.1688 -0.5640
 3313TIP3    H131498   0.113   3.024   2.730  1.4068 -1.8905 -1.0167
 3313TIP3    H231499  -0.035   3.024   2.698  0.7887  0.7757  1.4581
 3314TIP3   OH231500   2.770   1.334   1.929  0.1120 -1.2220  0.9352
 3314TIP3    H131501   2.749   1.331   1.836 -1.7733  3.1037  0.9663
 3314TIP3    H231502   2.695   1.290   1.971 -1.7924  1.3443  0.4615
 3315TIP3   OH231503   5.760   1.799   0.429  0.4274  0.1019  0.0963
 3315TIP3    H131504   5.843   1.814   0.383 -0.3581 -0.5673 -1.6159
 3315TIP3    H231505   5.780   1.730   0.492  0.8767 -1.0750 -1.2774
 3316TIP3   OH231506   3.906   3.452   2.670 -0.2631  0.5823 -0.5756
 3316TIP3    H131507   3.890   3.521   2.734  0.5499  0.1734  0.0773
 3316TIP3    H231508   3.821   3.440   2.627 -0.9493  0.5284  0.7536
 3317TIP3   OH231509   0.145   5.452   0.855 -0.2058  0.5672  0.7206
 3317TIP3    H131510   0.113   5.415   0.773  1.7490 -0.5323  0.4090
 3317TIP3    H231511   0.096   5.405   0.923  1.1152 -1.5689  0.2699
 3318TIP3   OH231512   1.319   2.842   1.302  0.3443 -0.0469 -0.1494
 3318TIP3    H131513   1.359   2.761   1.334 -0.0824 -1.1655 -2.3065
 3318TIP3    H231514   1.238   2.814   1.259  0.4097  1.4730 -1.3342
 3319TIP3   OH231515   6.259   3.089   8.155  0.2663 -0.7514  0.5940
 3319TIP3    H131516   6.321   3.085   8.228  2.2165  0.3590 -0.8628
 3319TIP3    H231517   6.315   3.084   8.077 -1.2870  1.9172 -0.8353
 3320TIP3   OH231518   0.409   3.848   0.125 -0.0804  0.0658 -0.4916
 3320TIP3    H131519   0.486   3.795   0.144  0.3745  0.7887 -0.2536
 3320TIP3    H231520   0.386   3.888   0.209 -0.6120 -0.0060 -0.5970
 3321TIP3   OH231521   2.614   5.975   7.243 -0.2102 -0.0183  0.4426
 3321TIP3    H131522   2.584   5.886   7.223 -2.0027  0.3829  1.2189
 3321TIP3    H231523   2.568   6.030   7.180  1.1104  0.3753 -0.2244
 3322TIP3   OH231524   4.451   4.888   0.888  0.5300  0.1800 -0.1535
 3322TIP3    H131525   4.419   4.882   0.978  1.5254 -0.1375  0.1979
 3322TIP3    H231526   4.405   4.819   0.841  1.3357 -0.8609  0.5480
 3323TIP3   OH231527   5.383   3.911   7.758  0.1354 -0.4901  0.0235
 3323TIP3    H131528   5.427   3.986   7.797 -0.1556 -0.4302  0.2439
 3323TIP3    H231529   5.366   3.938   7.667 -0.5848 -0.0093  0.2853
 3324TIP3   OH231530   3.582   2.085   8.331 -0.0278  0.5510  0.1257
 3324TIP3    H131531   3.583   2.121   8.419 -0.1587 -1.1084  0.8446
 3324TIP3    H231532   3.647   2.015   8.333  1.2766  1.6397 -1.6400
 3325TIP3   OH231533   5.996   3.128   2.635  0.8840 -0.1236  0.0651
 3325TIP3    H131534   6.081   3.096   2.602  0.1627 -0.1431 -1.8827
 3325TIP3    H231535   5.974   3.067   2.706  1.8198 -1.0096 -0.3740
 3326TIP3   OH231536   5.676   6.188   1.445 -0.1091 -0.0885 -0.1289
 3326TIP3    H131537   5.613   6.138   1.497  0.1636 -0.2470  0.0456
 3326TIP3    H231538   5.737   6.225   1.509 -0.2567  0.3987 -0.2611
 3327TIP3   OH231539   6.254   3.027   1.530 -0.0028  0.4101 -0.4397
 3327TIP3    H131540   6.272   2.948   1.479 -2.4621  0.7815 -2.0705
 3327TIP3    H231541   6.202   2.995   1.604  1.8509  0.1384  0.8108
 3328TIP3   OH231542   4.276   2.587   0.424 -0.0991  0.8294  0.3282
 3328TIP3    H131543   4.324   2.622   0.500  1.4860  1.5554 -0.9474
 3328TIP3    H231544   4.305   2.641   0.351 -0.5410 -0.7241 -1.0482
 3329TIP3   OH231545   6.653   5.818   2.704 -0.5200 -0.1859 -0.4656
 3329TIP3    H131546   6.686   5.875   2.634  2.1736 -1.1607 -0.1414
 3329TIP3    H231547   6.630   5.878   2.775  2.2202  0.6184 -0.1280
 3330TIP3   OH231548   5.257   0.404   1.245  0.2351 -0.0560  0.1192
 3330TIP3    H131549   5.216   0.464   1.182 -0.8987 -1.0580 -0.1457
 3330TIP3    H231550   5.187   0.385   1.308  1.2712  0.7117  1.5465
 3331TIP3   OH231551   0.170   6.383   1.344  0.4300  0.1835  0.3672
 3331TIP3    H131552   0.177   6.471   1.309  0.7314  0.7727  1.8516
 3331TIP3    H231553   0.127   6.333   1.274 -2.1910  2.0981  0.4697
 3332TIP3   OH231554   3.974   4.628   1.593  0.2546  0.2582 -0.0158
 3332TIP3    H131555   3.953   4.678   1.514 -2.2334  0.2036  0.5231
 3332TIP3    H231556   4.011   4.692   1.653  0.0850  0.7786 -0.4564
 3333TIP3   OH231557   5.155   6.259   6.561 -0.4974  0.4915 -0.8188
 3333TIP3    H131558   5.211   6.205   6.617  0.4865  1.5604 -0.7299
 3333TIP3    H231559   5.083   6.201   6.535  0.5841 -0.8938 -0.8326
 3334TIP3   OH231560   4.647   5.416   0.687 -0.0519 -0.3464  0.1113
 3334TIP3    H131561   4.740   5.437   0.676  0.1731 -1.7657 -1.0656
 3334TIP3    H231562   4.646   5.326   0.721 -0.9994  0.2151  1.6948
 3335TIP3   OH231563   5.092   3.965   8.726 -0.7205  0.3928  0.7734
 3335TIP3    H131564   5.092   3.879   8.684 -1.0613  0.9471 -0.3776
 3335TIP3    H231565   5.001   3.994   8.723 -0.6484  0.7130  1.3576
 3336TIP3   OH231566   0.557   4.049   0.696 -0.7330  0.1449  0.2094
 3336TIP3    H131567   0.585   4.134   0.662  0.7400 -0.2014  0.4571
 3336TIP3    H231568   0.479   4.068   0.748  0.3899  1.6128  1.4658
 3337TIP3   OH231569   2.267   2.626   0.054 -0.4022 -0.0883 -0.3005
 3337TIP3    H131570   2.297   2.633   0.144  1.5145  0.2880 -0.9122
 3337TIP3    H231571   2.347   2.635   0.002 -1.2340 -1.8643 -1.9966
 3338TIP3   OH231572   5.654   1.634   7.264 -0.0511 -0.5105 -0.3413
 3338TIP3    H131573   5.613   1.634   7.177  1.2731 -0.4705 -1.0022
 3338TIP3    H231574   5.600   1.575   7.316 -0.9723 -0.4055 -1.1367
 3339TIP3   OH231575   4.874   4.874   8.023  0.5961 -0.2681 -0.2965
 3339TIP3    H131576   4.929   4.805   8.060  1.4968  0.0099 -1.1050
 3339TIP3    H231577   4.839   4.837   7.942 -1.6968 -1.0225  0.9371
 3340TIP3   OH231578   5.307   0.538   7.801  0.1256  0.0185  0.0916
 3340TIP3    H131579   5.395   0.531   7.765  0.6535  0.3993  1.2674
 3340TIP3    H231580   5.309   0.487   7.882 -1.0503 -0.8734 -0.4158
 3341TIP3   OH231581   3.223   4.834   0.539  0.1569 -0.8361 -0.0972
 3341TIP3    H131582   3.246   4.770   0.472 -1.1653 -1.7680  0.2771
 3341TIP3    H231583   3.129   4.821   0.552  0.2864 -0.3551  1.5737
 3342TIP3   OH231584   2.534   1.043   1.080 -0.3574 -0.7234 -0.1659
 3342TIP3    H131585   2.527   1.025   0.986 -0.6646 -0.7406 -0.1416
 3342TIP3    H231586   2.615   1.092   1.089 -1.3389  1.0772 -0.7205
 3343TIP3   OH231587   6.697   0.704   7.630 -0.2017 -0.6086  0.3498
 3343TIP3    H131588   6.641   0.743   7.697 -0.8305  0.0991 -0.5713
 3343TIP3    H231589   6.767   0.661   7.679  0.6649  1.8518  1.4337
 3344TIP3   OH231590   6.400   5.685   6.982  0.0762  0.0689  0.2121
 3344TIP3    H131591   6.437   5.647   7.061  1.7194  0.3843 -0.3672
 3344TIP3    H231592   6.315   5.720   7.009  0.8208  0.6192  1.9437
 3345TIP3   OH231593   4.042   3.902   8.330  0.0907 -0.0352  0.6119
 3345TIP3    H131594   4.136   3.886   8.333  0.5395  1.3279 -2.4862
 3345TIP3    H231595   4.032   3.994   8.356 -0.4596 -0.2837  1.3225
 3346TIP3   OH231596   1.833   0.234   0.756  0.0707 -0.2219 -0.3312
 3346TIP3    H131597   1.752   0.259   0.800  1.0053  2.2455  0.1550
 3346TIP3    H231598   1.817   0.252   0.663 -0.0139  0.1052 -0.2546
 3347TIP3   OH231599   5.282   0.118   0.269 -0.2749 -0.0145 -0.1156
 3347TIP3    H131600   5.312   0.129   0.179 -0.2445  0.4465 -0.0479
 3347TIP3    H231601   5.191   0.146   0.268 -0.4929 -0.6931 -0.1547
 3348TIP3   OH231602   0.992   4.623   1.568 -0.0551  0.3162 -0.0987
 3348TIP3    H131603   0.926   4.642   1.501  0.0971  0.3551 -0.2384
 3348TIP3    H231604   0.941   4.592   1.643 -0.1040 -1.8371 -0.9579
 3349TIP3   OH231605   5.622   6.134   1.178  0.3665  0.0902  0.5254
 3349TIP3    H131606   5.527   6.144   1.177  0.2781 -0.6134 -0.9196
 3349TIP3    H231607   5.644   6.120   1.271 -0.9833 -0.2095  0.8190
 3350TIP3   OH231608   3.973   5.754   0.400  0.1641  0.1819  0.3532
 3350TIP3    H131609   4.059   5.779   0.435  1.7198 -2.9550 -0.8493
 3350TIP3    H231610   3.975   5.783   0.309  1.1279 -2.2011 -0.4429
 3351TIP3   OH231611   2.478   4.703   1.725  0.1530  0.1397  0.1999
 3351TIP3    H131612   2.549   4.676   1.668 -0.8192  0.0530 -1.0044
 3351TIP3    H231613   2.416   4.629   1.723 -0.1813  0.3885  0.8803
 3352TIP3   OH231614   5.288   5.002   1.418 -0.1682 -0.3822  0.6533
 3352TIP3    H131615   5.258   5.005   1.509 -0.3214  2.8710  0.6233
 3352TIP3    H231616   5.240   5.073   1.375  0.1385 -1.6217 -1.9275
 3353TIP3   OH231617   6.101   2.327   2.224 -0.4361 -0.2397  0.6939
 3353TIP3    H131618   6.193   2.306   2.213 -0.3300  0.2681  0.5525
 3353TIP3    H231619   6.059   2.245   2.250 -0.3656 -1.0822 -1.6645
 3354TIP3   OH231620   1.775   6.766   0.622  0.1456 -0.3072 -0.2950
 3354TIP3    H131621   1.685   6.790   0.600  0.4462 -0.6195 -2.0303
 3354TIP3    H231622   1.827   6.806   0.552  1.0308 -2.7066 -1.0821
 3355TIP3   OH231623   3.777   2.677   2.457  0.3215 -0.0684  0.4658
 3355TIP3    H131624   3.823   2.594   2.468  0.6374  0.1315  0.6894
 3355TIP3    H231625   3.767   2.712   2.546 -1.0638 -0.5199  0.5076
 3356TIP3   OH231626   3.801   5.140   8.374  0.1748  0.5075  0.5664
 3356TIP3    H131627   3.792   5.231   8.346  1.1574  0.8069  1.1598
 3356TIP3    H231628   3.779   5.141   8.467  2.5983  0.6472  1.2120
 3357TIP3   OH231629   1.182   3.382   8.612 -0.0039 -0.5085  0.5349
 3357TIP3    H131630   1.269   3.404   8.645  0.6072 -1.6497 -0.2665
 3357TIP3    H231631   1.197   3.313   8.547 -1.4218 -0.1253 -0.2445
 3358TIP3   OH231632   1.519   3.396   7.677  1.2424  0.0383 -0.3103
 3358TIP3    H131633   1.448   3.427   7.733  3.0955  2.9578  0.6609
 3358TIP3    H231634   1.591   3.378   7.738  1.9998 -0.8355 -1.4313
 3359TIP3   OH231635   3.642   4.989   8.220  0.1611  0.6885 -0.1045
 3359TIP3    H131636   3.714   5.040   8.257 -0.2464  1.7567 -0.7053
 3359TIP3    H231637   3.631   5.025   8.132 -0.9885  0.4258 -0.0797
 3360TIP3   OH231638   0.578   1.837   1.524  0.5321 -0.1222 -0.0619
 3360TIP3    H131639   0.526   1.904   1.480 -0.4526  0.1661  1.4554
 3360TIP3    H231640   0.525   1.757   1.519 -0.3275  0.2794  1.8833
 3361TIP3   OH231641   1.589   6.626   1.905  0.2319  0.5994 -0.3913
 3361TIP3    H131642   1.496   6.646   1.898  0.2117  0.2627 -1.1510
 3361TIP3    H231643   1.601   6.547   1.852  1.0629  0.9981 -0.8191
 3362TIP3   OH231644   1.568   5.377   1.650  0.2087  0.7553 -0.2218
 3362TIP3    H131645   1.536   5.433   1.579 -0.2690  2.0109  0.9474
 3362TIP3    H231646   1.530   5.414   1.729 -0.4800 -1.4955  0.5734
 3363TIP3   OH231647   2.170   5.964   8.149 -1.2881  0.1406 -0.1520
 3363TIP3    H131648   2.092   6.007   8.184 -1.5597  1.1962 -1.9224
 3363TIP3    H231649   2.237   5.977   8.215 -1.5578  2.7204 -0.3029
 3364TIP3   OH231650   5.088   5.370   2.252 -0.4798  0.0207  0.0367
 3364TIP3    H131651   5.084   5.466   2.247 -1.5370 -0.0631 -2.4394
 3364TIP3    H231652   5.179   5.349   2.228 -0.5020  0.3935 -0.3902
 3365TIP3   OH231653   3.919   3.273   1.987  0.0381  0.3469 -0.3312
 3365TIP3    H131654   3.889   3.287   2.077 -0.0648 -0.7491 -0.1766
 3365TIP3    H231655   4.004   3.316   1.983  1.0965 -1.4627  0.9876
 3366TIP3   OH231656   6.351   5.966   6.493  0.4973  0.0880 -0.1943
 3366TIP3    H131657   6.440   5.950   6.524 -0.1892  0.1214  1.9651
 3366TIP3    H231658   6.332   6.057   6.517 -0.8069 -0.5301  1.3685
 3367TIP3   OH231659   4.934   0.730   1.515  0.2542  0.3808 -0.4147
 3367TIP3    H131660   4.908   0.802   1.573 -0.0532  1.4554 -1.8335
 3367TIP3    H231661   4.959   0.773   1.433 -1.6549 -1.2108 -1.9367
 3368TIP3   OH231662   2.992   6.151   1.334  0.4783 -0.3157 -0.1255
 3368TIP3    H131663   3.084   6.132   1.350  0.0941 -2.5485 -0.2847
 3368TIP3    H231664   2.988   6.178   1.243  1.0241  0.2444  0.0139
 3369TIP3   OH231665   4.045   1.114   1.571 -0.0407 -0.7021  0.5433
 3369TIP3    H131666   4.137   1.140   1.576  0.3052 -1.0882 -2.0235
 3369TIP3    H231667   4.048   1.021   1.551 -0.9133 -0.4757 -0.7712
 3370TIP3   OH231668   6.524   0.554   7.826 -0.3646  0.3538 -0.6141
 3370TIP3    H131669   6.480   0.507   7.756  1.4675 -0.1044 -1.5172
 3370TIP3    H231670   6.581   0.489   7.867 -1.7998  0.4509  1.7392
 3371TIP3   OH231671   3.948   2.967   3.142  0.6127 -0.1654  0.4225
 3371TIP3    H131672   3.966   2.944   3.051 -0.8085  2.7776 -0.7422
 3371TIP3    H231673   3.972   3.059   3.148 -1.6927  0.4128  2.2639
 3372TIP3   OH231674   1.700   5.395   0.748  0.3911  0.4022  0.4680
 3372TIP3    H131675   1.656   5.328   0.696 -0.9144 -0.3758  2.4473
 3372TIP3    H231676   1.716   5.467   0.687 -0.3766 -0.7448 -1.1472
 3373TIP3   OH231677   5.295   5.658   2.433  0.3379 -0.0386 -0.4004
 3373TIP3    H131678   5.349   5.611   2.496 -0.1891  0.1330  0.1894
 3373TIP3    H231679   5.358   5.705   2.377  0.8024  0.0220  0.1644
 3374TIP3   OH231680   5.832   1.103   0.368 -0.4381  0.1713 -0.4134
 3374TIP3    H131681   5.784   1.182   0.390  1.5373  1.4865 -0.5853
 3374TIP3    H231682   5.801   1.037   0.430 -1.3651  1.3677  0.4219
 3375TIP3   OH231683   6.039   0.951   2.132 -0.1294 -0.5869 -0.0284
 3375TIP3    H131684   5.961   0.903   2.104 -2.4769  1.8192  1.8673
 3375TIP3    H231685   6.024   0.968   2.225  1.8885  1.3400  0.0291
 3376TIP3   OH231686   4.821   2.980   8.620 -0.8448  0.4487  0.2091
 3376TIP3    H131687   4.810   2.894   8.660 -2.9202  0.0010 -1.1912
 3376TIP3    H231688   4.886   2.966   8.551 -1.3886 -0.0664 -0.2023
 3377TIP3   OH231689   1.660   0.576   1.678  0.2290  0.3064 -0.1292
 3377TIP3    H131690   1.649   0.483   1.700 -0.6673  0.5459  0.5299
 3377TIP3    H231691   1.678   0.618   1.762  0.3409  0.7671 -0.3834
 3378TIP3   OH231692   2.215   5.786   1.467  0.1463 -0.6232 -0.3402
 3378TIP3    H131693   2.260   5.701   1.465  0.5587 -0.4491  0.6747
 3378TIP3    H231694   2.277   5.844   1.511 -1.2818 -0.4993  1.5968
 3379TIP3   OH231695   1.144   0.132   1.534 -0.2089 -0.0003 -0.1467
 3379TIP3    H131696   1.144   0.104   1.443 -1.0060 -0.8423  0.0982
 3379TIP3    H231697   1.164   0.053   1.584 -0.4993  0.2884  0.4430
 3380TIP3   OH231698   3.875   1.033   0.743  0.5960 -0.3627 -0.1109
 3380TIP3    H131699   3.860   0.948   0.785  1.6847 -0.6709 -0.3208
 3380TIP3    H231700   3.835   1.024   0.656 -0.2613 -0.2712  0.2645
 3381TIP3   OH231701   4.165   0.453   2.127  0.4123  1.0792 -0.0787
 3381TIP3    H131702   4.100   0.462   2.196 -2.3832 -0.1704 -2.3855
 3381TIP3    H231703   4.226   0.386   2.160 -1.5052 -0.3443  0.7498
 3382TIP3   OH231704   6.634   3.099   0.620 -0.4375  0.4663  0.2928
 3382TIP3    H131705   6.626   3.124   0.528  2.3563  1.4598  0.2336
 3382TIP3    H231706   6.639   3.182   0.668  0.4710 -0.0170  1.0718
 3383TIP3   OH231707   5.238   1.782   6.801  0.2744 -0.9570 -0.2691
 3383TIP3    H131708   5.268   1.750   6.716 -1.9031 -0.1028 -1.4640
 3383TIP3    H231709   5.210   1.704   6.848  1.3741 -1.4266 -0.3676
 3384TIP3   OH231710   1.923   1.568   0.029 -0.5357 -0.7855 -0.5940
 3384TIP3    H131711   1.845   1.555   0.082  0.2108 -0.9579  0.4788
 3384TIP3    H231712   1.981   1.496   0.052  0.7053  0.3655  0.0318
 3385TIP3   OH231713   4.866   3.397   8.268 -0.2913 -0.3543 -0.3380
 3385TIP3    H131714   4.876   3.488   8.295  0.7966 -0.0466 -1.6689
 3385TIP3    H231715   4.800   3.361   8.328  1.7369  0.3235  2.4731
 3386TIP3   OH231716   3.285   6.546   0.122 -0.0838 -0.6888 -0.8488
 3386TIP3    H131717   3.354   6.585   0.068  1.3606 -0.8062  0.8210
 3386TIP3    H231718   3.325   6.468   0.160 -0.2361  0.5076  2.0434
 3387TIP3   OH231719   6.386   0.144   8.113 -0.8169  0.2399 -1.0091
 3387TIP3    H131720   6.440   0.162   8.190 -0.2414 -1.8644 -0.8743
 3387TIP3    H231721   6.307   0.197   8.127 -1.4245 -1.2029  1.8203
 3388TIP3   OH231722   6.555   0.576   1.905 -0.6145  0.0397 -0.2795
 3388TIP3    H131723   6.491   0.559   1.974 -0.2089  2.0891  0.6987
 3388TIP3    H231724   6.630   0.614   1.951 -0.0715  0.8845 -1.7752
 3389TIP3   OH231725   4.553   1.379   0.859  0.2738  0.1549  0.5715
 3389TIP3    H131726   4.612   1.361   0.786 -2.0317  1.8175 -1.9162
 3389TIP3    H231727   4.596   1.449   0.908  2.0994 -1.3444  1.2241
 3390TIP3   OH231728   6.447   6.185   1.872 -0.1599  0.7416 -0.4135
 3390TIP3    H131729   6.430   6.279   1.866 -1.8831  0.4110 -1.7898
 3390TIP3    H231730   6.369   6.149   1.915  0.5409 -0.0575  0.2223
 3391TIP3   OH231731   1.724   5.768   2.460  0.4566 -0.7117  0.0337
 3391TIP3    H131732   1.654   5.706   2.480 -0.1905 -0.2486 -0.7400
 3391TIP3    H231733   1.776   5.772   2.541  0.0500 -1.6527  0.3560
 3392TIP3   OH231734   6.775   1.455   1.635  0.3988 -0.1510 -0.8031
 3392TIP3    H131735   6.846   1.400   1.603  2.4621  1.9347 -0.1066
 3392TIP3    H231736   6.743   1.410   1.713  1.1724 -0.9856 -0.9626
 3393TIP3   OH231737   4.983   6.665   2.168 -0.2449 -0.0828 -0.6698
 3393TIP3    H131738   4.985   6.701   2.257  2.5964 -0.1549 -0.6092
 3393TIP3    H231739   4.933   6.585   2.176 -0.5687  0.2217  0.7459
 3394TIP3   OH231740   2.095   0.946   0.992 -0.0351  0.3096 -1.0875
 3394TIP3    H131741   2.119   0.895   1.070  1.8548  0.0311 -1.7806
 3394TIP3    H231742   2.108   0.885   0.919  2.6689  1.7668 -1.9764
 3395TIP3   OH231743   1.581   6.466   8.598 -0.1272 -0.0124 -0.0876
 3395TIP3    H131744   1.657   6.491   8.545  1.0055 -1.4126  0.7948
 3395TIP3    H231745   1.511   6.453   8.534  0.2469  1.6332 -0.8888
 3396TIP3   OH231746   0.946   5.861   7.422  0.6385  0.5955 -0.1304
 3396TIP3    H131747   0.936   5.768   7.439 -2.1364  0.3796 -2.1974
 3396TIP3    H231748   0.966   5.900   7.507  0.0007 -1.6592  1.1118
 3397TIP3   OH231749   3.445   0.116   8.264  0.0683  0.2691 -0.0597
 3397TIP3    H131750   3.356   0.125   8.297 -0.6445  1.1555 -2.1008
 3397TIP3    H231751   3.485   0.202   8.279 -0.4549  0.8756 -1.9465
 3398TIP3   OH231752   3.093   1.878   7.358  0.1662  0.5909 -0.0205
 3398TIP3    H131753   3.149   1.928   7.418  1.4067  0.8768 -1.3738
 3398TIP3    H231754   3.070   1.940   7.289 -1.5897  0.3757  0.3157
 3399TIP3   OH231755   0.676   0.787   8.502 -0.0298  0.3134 -0.3369
 3399TIP3    H131756   0.746   0.799   8.438 -0.3324  2.4601 -0.3563
 3399TIP3    H231757   0.607   0.848   8.473 -2.3275 -2.3168 -0.8148
 3400TIP3   OH231758   1.281   4.241   7.128 -0.0265  0.1207 -0.0620
 3400TIP3    H131759   1.349   4.287   7.078  0.3433 -1.0971 -0.7140
 3400TIP3    H231760   1.269   4.158   7.082 -2.0785  0.3551 -0.0649
 3401TIP3   OH231761   4.021   1.333   8.315  0.1017 -0.1905 -0.3354
 3401TIP3    H131762   4.014   1.335   8.220  1.8168  0.5123 -0.4704
 3401TIP3    H231763   4.082   1.261   8.333  2.8946  2.0858 -0.0486
 3402TIP3   OH231764   5.484   3.643   1.449 -0.2240  0.2224 -0.6010
 3402TIP3    H131765   5.487   3.661   1.355  2.0930 -1.1384 -0.8760
 3402TIP3    H231766   5.463   3.550   1.456 -0.2021  0.2680  0.2271
 3403TIP3   OH231767   1.946   6.220   0.500 -0.0242 -0.0974 -0.0806
 3403TIP3    H131768   1.997   6.288   0.542 -0.4671 -0.3684  0.9370
 3403TIP3    H231769   1.994   6.139   0.518 -0.4927 -0.2796  0.3587
 3404TIP3   OH231770   6.575   3.277   8.565 -0.9847 -0.2053  0.1749
 3404TIP3    H131771   6.491   3.320   8.584  0.0188  1.7343  0.4514
 3404TIP3    H231772   6.639   3.348   8.565  0.6176 -1.5840 -0.4497
 3405TIP3   OH231773   0.494   1.077   7.969 -0.2008 -0.1644  0.1368
 3405TIP3    H131774   0.579   1.091   7.928  0.1028  0.2887  0.8894
 3405TIP3    H231775   0.502   0.994   8.016 -0.1172 -0.0421  0.3405
 3406TIP3   OH231776   1.352   3.445   0.844  0.1123 -0.4015  0.0193
 3406TIP3    H131777   1.418   3.458   0.913  0.2500  1.6921 -0.4331
 3406TIP3    H231778   1.402   3.446   0.763 -0.4000  0.7404 -0.2994
 3407TIP3   OH231779   2.573   6.722   1.454 -0.3851 -0.9144 -0.4198
 3407TIP3    H131780   2.625   6.644   1.473  0.7171 -0.2050 -0.4094
 3407TIP3    H231781   2.621   6.765   1.383  0.5074  1.0897  1.2871
 3408TIP3   OH231782   2.014   4.319   8.363 -0.0616  0.0311 -0.3152
 3408TIP3    H131783   2.065   4.290   8.438 -0.1955 -0.3716 -0.3755
 3408TIP3    H231784   2.029   4.414   8.358  0.8763 -0.1187 -0.4825
 3409TIP3   OH231785   5.794   3.846   0.098 -0.6120  0.4711  0.4205
 3409TIP3    H131786   5.844   3.831   0.018 -1.5506  2.0915 -0.5366
 3409TIP3    H231787   5.836   3.791   0.164  0.7215 -0.2563 -0.9775
 3410TIP3   OH231788   0.892   5.150   0.206  0.2852 -0.5844 -0.2072
 3410TIP3    H131789   0.868   5.197   0.126 -0.5124  0.0798  0.4068
 3410TIP3    H231790   0.812   5.149   0.258  0.9305 -0.5612  0.8101
 3411TIP3   OH231791   3.855   5.381   2.115  0.2124  0.4248  0.2765
 3411TIP3    H131792   3.811   5.409   2.034  0.9295 -1.0393 -0.6563
 3411TIP3    H231793   3.784   5.350   2.171 -0.1291 -0.1988 -0.4890
 3412TIP3   OH231794   1.696   2.422   2.023 -0.8284  0.1765  0.1741
 3412TIP3    H131795   1.782   2.423   1.980 -0.8351  0.2714  0.1631
 3412TIP3    H231796   1.634   2.439   1.952 -0.9593 -1.1302 -0.0555
 3413TIP3   OH231797   6.439   0.119   0.030  0.5481  0.1494  0.3891
 3413TIP3    H131798   6.351   0.155   0.036  0.7711  0.7415  0.2049
 3413TIP3    H231799   6.430   0.042  -0.026  0.4551  1.3114 -1.2677
 3414TIP3   OH231800   1.800   1.826   1.113 -0.0631 -0.4666 -0.0522
 3414TIP3    H131801   1.746   1.828   1.034 -2.2062 -0.5070  1.3257
 3414TIP3    H231802   1.825   1.734   1.123 -0.8798 -0.6938 -0.0192
 3415TIP3   OH231803   5.991   2.885   0.846 -0.4796 -0.0553 -0.0906
 3415TIP3    H131804   5.988   2.900   0.751 -1.8357  1.7089  0.1771
 3415TIP3    H231805   6.043   2.805   0.856  2.6985  1.5151 -2.1284
 3416TIP3   OH231806   3.586   4.815   7.841  0.7149  0.2695 -0.3494
 3416TIP3    H131807   3.545   4.859   7.766 -1.2523 -1.2204 -0.2322
 3416TIP3    H231808   3.625   4.736   7.805  0.1619 -0.2209  0.0993
 3417TIP3   OH231809   1.365   5.573   0.511  0.1594  0.0953  0.8353
 3417TIP3    H131810   1.331   5.488   0.537  1.8713  0.1593  3.6569
 3417TIP3    H231811   1.455   5.554   0.483  0.6697  0.9903  1.8220
 3418TIP3   OH231812   3.264   4.476   7.646  0.4771 -0.3917 -0.4719
 3418TIP3    H131813   3.238   4.434   7.564 -1.7274 -0.0249 -0.0469
 3418TIP3    H231814   3.278   4.568   7.623 -1.2746 -0.0343 -0.3330
 3419TIP3   OH231815   1.909   1.133   1.723  0.0810  0.1392  0.0633
 3419TIP3    H131816   1.967   1.061   1.700 -0.7501 -0.9958  1.3569
 3419TIP3    H231817   1.834   1.125   1.664  0.9721  1.3371 -1.3042
 3420TIP3   OH231818   3.885   2.905   7.944 -0.1713  0.3427 -0.2518
 3420TIP3    H131819   3.795   2.935   7.961 -0.2967 -0.0148 -0.2873
 3420TIP3    H231820   3.897   2.917   7.850 -0.9370 -1.6378 -0.6460
 3421TIP3   OH231821   5.316   2.750   0.910  0.9004  0.2121 -0.3998
 3421TIP3    H131822   5.380   2.687   0.879 -0.2066 -0.3126 -1.7015
 3421TIP3    H231823   5.366   2.810   0.965  2.4221 -0.4069 -1.0677
 3422TIP3   OH231824   2.361   5.810   0.967  0.3587 -0.6502 -0.6779
 3422TIP3    H131825   2.410   5.796   0.886  0.4603  0.3430 -0.8014
 3422TIP3    H231826   2.417   5.869   1.019 -1.1218  1.3850 -1.2681
 3423TIP3   OH231827   6.131   6.460   7.307 -0.3300 -0.3737  0.1953
 3423TIP3    H131828   6.206   6.413   7.269  0.4033  1.7732 -1.1996
 3423TIP3    H231829   6.058   6.439   7.250 -0.2287 -0.5933  0.1463
 3424TIP3   OH231830   4.985   5.830   8.631  0.2890  0.3618  0.0079
 3424TIP3    H131831   4.908   5.812   8.578  0.0083  0.7312  0.2894
 3424TIP3    H231832   5.030   5.745   8.638  0.4714  0.3629 -1.0389
 3425TIP3   OH231833   2.766   0.735   2.436  0.4640 -0.2734  0.0339
 3425TIP3    H131834   2.756   0.822   2.398  0.2759  0.1754  1.1001
 3425TIP3    H231835   2.711   0.679   2.381 -2.7232  0.9726  1.6726
 3426TIP3   OH231836   3.327   6.270   7.531  0.7308 -0.4825  0.3779
 3426TIP3    H131837   3.345   6.177   7.521 -0.0935 -0.7483  1.2867
 3426TIP3    H231838   3.288   6.296   7.447 -1.4306 -1.5466  0.9936
 3427TIP3   OH231839   6.468   1.936   8.651  0.5074  0.3978  0.1492
 3427TIP3    H131840   6.415   1.857   8.660  0.8497  0.1353 -0.0813
 3427TIP3    H231841   6.415   2.006   8.689  0.8133 -0.1951  1.7161
 3428TIP3   OH231842   5.835   0.410   0.646 -0.3393  0.1054  0.1043
 3428TIP3    H131843   5.789   0.393   0.564 -0.2203  0.8066 -0.1081
 3428TIP3    H231844   5.780   0.472   0.693 -0.2242 -0.0101  0.3981
 3429TIP3   OH231845   6.566   0.228   2.080 -0.0137 -0.2344 -0.7186
 3429TIP3    H131846   6.478   0.194   2.064  0.1237 -1.2811  0.5963
 3429TIP3    H231847   6.611   0.158   2.128  1.8468 -0.1062 -2.1410
 3430TIP3   OH231848   4.482   5.754   7.896 -0.3647 -0.0884  0.0476
 3430TIP3    H131849   4.388   5.752   7.913 -0.3460  1.2127  0.4773
 3430TIP3    H231850   4.496   5.837   7.851  0.6705  0.1040  0.6764
 3431TIP3   OH231851   1.566   0.855   0.133  0.3990  0.3159 -0.4877
 3431TIP3    H131852   1.628   0.924   0.109 -3.1210  3.2561 -2.0942
 3431TIP3    H231853   1.480   0.895   0.122 -1.8970 -3.3436  1.9143
 3432TIP3   OH231854   5.928   1.508   0.810  0.1542  0.1316  0.3223
 3432TIP3    H131855   6.001   1.483   0.867 -1.0002  0.9885  2.2897
 3432TIP3    H231856   5.970   1.535   0.728  1.9506 -0.5101  0.9770
 3433TIP3   OH231857   1.467   4.516   8.108  0.5516 -0.2891 -0.3696
 3433TIP3    H131858   1.480   4.436   8.160  1.3172 -0.7358 -1.2066
 3433TIP3    H231859   1.519   4.582   8.153 -0.1485 -0.2302  0.3740
 3434TIP3   OH231860   3.093   0.176   2.842  0.1246  0.4686 -0.7466
 3434TIP3    H131861   3.179   0.142   2.816  0.3907  1.3965 -1.1158
 3434TIP3    H231862   3.093   0.266   2.812 -1.2624  0.2809 -1.3695
 3435TIP3   OH231863   5.202   6.665   0.911  0.5855 -0.2748 -0.5295
 3435TIP3    H131864   5.250   6.736   0.952 -0.9074  0.5356 -0.1602
 3435TIP3    H231865   5.242   6.656   0.824  1.5133  0.2444 -0.1625
 3436TIP3   OH231866   4.917   6.779   8.521 -0.2571  0.0699 -0.1966
 3436TIP3    H131867   4.991   6.838   8.534 -1.1207  1.4028 -1.1147
 3436TIP3    H231868   4.848   6.814   8.578 -0.7085 -0.1693 -0.5837
 3437TIP3   OH231869   0.761   0.119   7.877  0.2876  0.3672  0.2312
 3437TIP3    H131870   0.757   0.209   7.908  0.3450  0.5496 -0.2753
 3437TIP3    H231871   0.843   0.115   7.827 -1.3370  1.0392 -2.7365
 3438TIP3   OH231872   0.284   4.452   1.714 -0.0121 -0.2052 -0.3349
 3438TIP3    H131873   0.204   4.403   1.732 -1.8253  2.1382 -1.3398
 3438TIP3    H231874   0.296   4.507   1.791 -0.3148  0.5704 -0.8269
 3439TIP3   OH231875   4.673   4.842   8.230  0.3101  0.0159  0.4542
 3439TIP3    H131876   4.604   4.879   8.175  1.4960  0.4126 -0.8286
 3439TIP3    H231877   4.755   4.872   8.190  1.2970 -2.1766  0.6383
 3440TIP3   OH231878   0.750   4.502   0.808 -0.1419  0.2279 -0.4488
 3440TIP3    H131879   0.674   4.502   0.866  0.1731 -1.3948  0.0318
 3440TIP3    H231880   0.819   4.457   0.859  0.8117  0.7204 -1.2678
 3441TIP3   OH231881   2.266   1.902   8.107 -0.4657  0.1493 -0.2226
 3441TIP3    H131882   2.321   1.831   8.141 -0.2266  0.6500  0.4504
 3441TIP3    H231883   2.264   1.887   8.012 -0.3167 -0.6845 -0.1026
 3442TIP3   OH231884   3.311   5.823   7.434  0.6820 -0.7683 -0.2630
 3442TIP3    H131885   3.233   5.857   7.477  0.7395 -1.4154  0.3660
 3442TIP3    H231886   3.383   5.854   7.489  0.8204 -0.7445 -0.4590
 3443TIP3   OH231887   0.804   1.477   1.564 -0.3035 -0.1619 -0.7195
 3443TIP3    H131888   0.821   1.570   1.549  1.0888 -0.4562 -1.1150
 3443TIP3    H231889   0.769   1.473   1.653  3.7831  0.3889  1.1661
 3444TIP3   OH231890   0.354   6.206   0.821  0.4494  0.2233  0.2727
 3444TIP3    H131891   0.345   6.191   0.915  0.4230 -2.0559 -0.0337
 3444TIP3    H231892   0.265   6.199   0.786  0.1711  2.8988  0.2302
 3445TIP3   OH231893   2.638   2.679   1.088  0.0602  0.0097  0.2793
 3445TIP3    H131894   2.635   2.595   1.135  1.0534 -0.2114 -0.0131
 3445TIP3    H231895   2.689   2.736   1.145  0.0144  0.1850  0.1431
 3446TIP3   OH231896   4.171   3.444   2.614  0.2443  0.7367  0.3434
 3446TIP3    H131897   4.083   3.408   2.627  0.2625  0.5633  0.0002
 3446TIP3    H231898   4.164   3.535   2.643 -0.6058  1.3584 -1.6394
 3447TIP3   OH231899   1.053   1.474   2.177  0.1743 -0.8919  0.2959
 3447TIP3    H131900   0.978   1.475   2.237  0.1332  0.2558  0.2463
 3447TIP3    H231901   1.111   1.406   2.212 -0.7695 -1.6318  0.4726
 3448TIP3   OH231902   6.087   6.711   2.205 -0.2701 -0.3049 -0.6119
 3448TIP3    H131903   6.014   6.771   2.223 -0.6184 -0.5419 -1.1967
 3448TIP3    H231904   6.118   6.685   2.292 -0.8908 -0.1984 -0.3475
 3449TIP3   OH231905   0.613   6.239   6.674  0.5494  0.2249 -0.6003
 3449TIP3    H131906   0.530   6.267   6.636 -0.1580  1.1482  1.4943
 3449TIP3    H231907   0.600   6.147   6.696  0.2733  0.2261 -0.7555
 3450TIP3   OH231908   3.251   1.220   1.296 -0.6712  0.0502 -0.4581
 3450TIP3    H131909   3.327   1.163   1.305 -0.4966  0.0739 -1.6726
 3450TIP3    H231910   3.222   1.235   1.386  1.9325  1.6788  0.1994
 3451TIP3   OH231911   1.998   1.901   0.716  0.8015 -0.5612  0.0926
 3451TIP3    H131912   2.066   1.873   0.655 -2.4098 -2.3565 -3.0721
 3451TIP3    H231913   1.952   1.971   0.670 -0.7804 -0.8633  1.1045
 3452TIP3   OH231914   0.103   5.680   8.491 -0.5356 -0.5454  0.0829
 3452TIP3    H131915   0.023   5.733   8.493 -0.0200  0.2226  0.4803
 3452TIP3    H231916   0.109   5.650   8.400 -2.0131 -1.7639  0.3319
 3453TIP3   OH231917   6.080   4.587   1.948  0.3065 -0.0058  0.0588
 3453TIP3    H131918   6.171   4.618   1.942  0.3942 -0.1147  0.7505
 3453TIP3    H231919   6.088   4.494   1.970  0.0580 -0.7412 -2.5653
 3454TIP3   OH231920   2.625   5.717   2.811  0.0946  0.6845 -0.6168
 3454TIP3    H131921   2.679   5.779   2.763  0.8901  0.3636 -0.1715
 3454TIP3    H231922   2.627   5.637   2.757  0.0949  0.6659 -0.5891
 3455TIP3   OH231923   4.645   2.013   1.384  0.2529  0.5335  0.2243
 3455TIP3    H131924   4.640   2.082   1.450  0.8694 -1.1663  2.1301
 3455TIP3    H231925   4.562   2.020   1.336  0.1539  2.3437  0.5975
 3456TIP3   OH231926   3.325   4.626   0.371  0.4306  0.3865  0.3350
 3456TIP3    H131927   3.254   4.583   0.324 -0.1075 -0.7324  2.0526
 3456TIP3    H231928   3.398   4.629   0.309 -0.5552 -0.0668 -0.8769
 3457TIP3   OH231929   0.629   0.211   0.119 -0.2034 -0.1692  0.7784
 3457TIP3    H131930   0.619   0.158   0.041  0.5549 -0.2962  0.7555
 3457TIP3    H231931   0.540   0.225   0.151 -0.4663 -0.7080  0.2929
 3458TIP3   OH231932   5.673   0.641   0.817  0.3853  0.1834 -0.4035
 3458TIP3    H131933   5.624   0.640   0.899  1.8770  1.1405  0.5600
 3458TIP3    H231934   5.615   0.686   0.755  0.2042  1.7334  0.8244
 3459TIP3   OH231935   2.959   5.704   1.686  0.4720  0.2988 -0.0299
 3459TIP3    H131936   2.920   5.714   1.773  0.7483  1.8206 -0.0490
 3459TIP3    H231937   2.982   5.612   1.681 -1.6919 -0.3270  0.5728
 3460TIP3   OH231938   1.660   6.214   6.840 -0.1787 -0.2026  0.0230
 3460TIP3    H131939   1.568   6.222   6.814 -0.0878  0.2459 -0.1665
 3460TIP3    H231940   1.709   6.256   6.769  0.0369  1.5263  1.1301
 3461TIP3   OH231941   5.191   4.878   0.129  0.2970 -0.2002  0.3751
 3461TIP3    H131942   5.112   4.891   0.181 -0.6575  0.5719 -1.1548
 3461TIP3    H231943   5.160   4.838   0.048  1.6646 -1.0079  0.2118
 3462TIP3   OH231944   2.055   4.638   0.217  0.0083  0.4016 -0.5652
 3462TIP3    H131945   2.122   4.699   0.185 -0.8288  2.3413  1.1500
 3462TIP3    H231946   1.973   4.686   0.207 -0.8885 -1.0770 -0.5535
 3463TIP3   OH231947   2.857   1.030   0.648  0.5893  0.3352 -0.1690
 3463TIP3    H131948   2.875   0.943   0.685  0.7826  0.3964 -0.1160
 3463TIP3    H231949   2.873   1.091   0.721 -0.9670  0.3116  0.2128
 3464TIP3   OH231950   3.071   3.867   6.957  0.4155 -0.3602  0.3041
 3464TIP3    H131951   3.073   3.843   6.864 -1.2180 -0.9058  0.3831
 3464TIP3    H231952   3.088   3.785   7.003 -1.4169 -0.6630  0.5078
 3465TIP3   OH231953   4.007   5.423   0.059  0.3300 -0.2555  0.2529
 3465TIP3    H131954   4.042   5.353   0.004  2.1237  0.9935 -0.2855
 3465TIP3    H231955   4.027   5.396   0.148  0.9328 -0.4879  0.0532
 3466TIP3   OH231956   4.754   3.285   7.835 -0.0486 -0.2742 -0.0067
 3466TIP3    H131957   4.671   3.239   7.844  0.2772 -0.8760 -0.0456
 3466TIP3    H231958   4.798   3.242   7.761  0.7671 -0.6990  0.6984
 3467TIP3   OH231959   6.604   4.537   8.456  0.3769  0.0395  0.3404
 3467TIP3    H131960   6.695   4.509   8.468  1.1638  0.7098 -3.0093
 3467TIP3    H231961   6.561   4.462   8.416 -0.9810 -0.7327  3.0635
 3468TIP3   OH231962   4.150   3.064   7.553  0.6842 -0.5068  0.3785
 3468TIP3    H131963   4.141   3.135   7.490 -0.5310 -0.7973  0.2015
 3468TIP3    H231964   4.183   2.990   7.501 -0.1953 -0.7096  0.0880
 3469TIP3   OH231965   4.243   0.603   8.028 -0.0467 -0.0717 -0.3697
 3469TIP3    H131966   4.337   0.607   8.042  0.0124 -0.5997 -0.5751
 3469TIP3    H231967   4.211   0.544   8.096 -0.1737 -0.2050 -0.5428
 3470TIP3   OH231968   0.646   6.410   1.666  0.1440  0.1223 -0.6700
 3470TIP3    H131969   0.615   6.473   1.732  0.2184  0.0086 -0.5273
 3470TIP3    H231970   0.687   6.340   1.716 -2.6458 -1.6144 -0.6284
 3471TIP3   OH231971   1.628   3.257   1.714  0.0002 -0.5023 -0.0368
 3471TIP3    H131972   1.635   3.205   1.794 -0.1353 -0.8701 -0.2632
 3471TIP3    H231973   1.696   3.324   1.723 -1.3968  0.7952  1.3587
 3472TIP3   OH231974   1.353   5.173   0.871  0.0992  0.3121  0.5457
 3472TIP3    H131975   1.448   5.158   0.863  0.1576  0.8915  0.0556
 3472TIP3    H231976   1.332   5.229   0.796 -1.0330 -1.6032 -0.6239
 3473TIP3   OH231977   4.893   1.269   0.398 -0.2119 -0.1976 -0.1645
 3473TIP3    H131978   4.888   1.354   0.442 -0.8202 -0.0528 -0.4944
 3473TIP3    H231979   4.948   1.284   0.322  1.0464 -0.5060  0.6454
 3474TIP3   OH231980   5.130   4.638   1.753  0.4473 -0.2488 -0.8722
 3474TIP3    H131981   5.100   4.655   1.663  0.3402  0.5401 -0.6951
 3474TIP3    H231982   5.049   4.619   1.801  0.7309 -4.6640 -1.6913
 3475TIP3   OH231983   4.947   2.988   8.384 -0.6239 -0.4078 -0.1187
 3475TIP3    H131984   4.889   2.933   8.331 -0.5495 -0.7667  0.1658
 3475TIP3    H231985   5.029   2.991   8.335 -1.6192  2.2348 -1.8693
 3476TIP3   OH231986   4.974   0.413   2.265 -0.3456 -0.3324 -0.4878
 3476TIP3    H131987   5.062   0.436   2.235  0.4762 -2.4281  0.1761
 3476TIP3    H231988   4.917   0.477   2.222  1.5785  1.9080  0.0757
 3477TIP3   OH231989   0.614   4.013   2.226 -0.1212  0.4502 -0.2569
 3477TIP3    H131990   0.680   3.943   2.231 -0.7467 -0.4189 -2.8866
 3477TIP3    H231991   0.538   3.977   2.272 -0.3029 -0.4801 -1.2437
 3478TIP3   OH231992   1.189   1.087   0.662  0.1404  0.1917  0.6703
 3478TIP3    H131993   1.190   1.074   0.567 -1.3623  0.2093  0.6350
 3478TIP3    H231994   1.117   1.033   0.693  1.1749 -0.5286  1.9322
 3479TIP3   OH231995   3.333   4.738   7.559  0.2091 -0.6148 -0.0755
 3479TIP3    H131996   3.297   4.815   7.603  1.8097 -0.5042  1.1395
 3479TIP3    H231997   3.280   4.729   7.480 -1.9870 -0.0946  1.2559
 3480TIP3   OH231998   1.146   2.252   0.965  0.6048  0.2126 -0.6032
 3480TIP3    H131999   1.240   2.257   0.948  0.2790  0.8193 -2.5008
 3480TIP3    H232000   1.124   2.339   0.998  0.8393 -0.2338  0.8055
 3481TIP3   OH232001   1.881   6.451   8.126  0.3855 -0.2334 -0.2305
 3481TIP3    H132002   1.964   6.473   8.084  0.7141  0.1563  0.5868
 3481TIP3    H232003   1.886   6.356   8.140  0.7816 -0.1888 -0.0313
 3482TIP3   OH232004   2.570   2.912   7.549  0.1075 -0.3629  0.6696
 3482TIP3    H132005   2.484   2.872   7.541  0.1814 -0.3599 -0.3376
 3482TIP3    H232006   2.553   3.007   7.547  0.0642 -0.3483  1.4354
 3483TIP3   OH232007   2.531   5.845   7.791 -0.0090  0.6464 -0.1776
 3483TIP3    H132008   2.526   5.826   7.698  0.9190  0.5689 -0.2224
 3483TIP3    H232009   2.481   5.926   7.802  1.0348  1.4441 -0.9957
 3484TIP3   OH232010   3.089   2.130   1.311 -0.0289 -0.0886  0.3908
 3484TIP3    H132011   3.013   2.136   1.370  0.0708 -4.1242  1.1985
 3484TIP3    H232012   3.162   2.166   1.362 -0.5249 -0.6964  1.5705
 3485TIP3   OH232013   3.476   4.292   2.595 -0.2257  0.4187  0.0208
 3485TIP3    H132014   3.526   4.251   2.525  1.0335  1.4822  0.2552
 3485TIP3    H232015   3.452   4.219   2.653  0.6612 -0.1864 -0.3491
 3486TIP3   OH232016   4.239   6.001   8.568 -0.1702  0.1914 -0.2730
 3486TIP3    H132017   4.235   5.994   8.473  0.2716 -0.9373 -0.2204
 3486TIP3    H232018   4.178   6.071   8.589  0.4804  1.1734 -1.4625
 3487TIP3   OH232019   0.169   6.707   8.149  0.5736 -0.4536 -0.1012
 3487TIP3    H132020   0.104   6.760   8.102  1.3751 -1.1120 -2.0747
 3487TIP3    H232021   0.150   6.617   8.123  1.4946 -0.7736  0.2747
 3488TIP3   OH232022   3.114   3.148   1.193 -0.1412  0.0152  0.2476
 3488TIP3    H132023   3.095   3.138   1.287  1.4455 -3.3255  0.3552
 3488TIP3    H232024   3.191   3.205   1.189  0.3402 -0.5626  1.0663
 3489TIP3   OH232025   2.354   0.039   8.285  0.3090  0.6505 -0.0536
 3489TIP3    H132026   2.262   0.061   8.273  0.0805 -0.2050  0.0396
 3489TIP3    H232027   2.354  -0.056   8.302  1.1097  0.8029  0.9282
 3490TIP3   OH232028   4.906   6.252   1.508 -0.6859  0.0172  0.1808
 3490TIP3    H132029   4.919   6.262   1.602 -1.5422  1.2401  0.2019
 3490TIP3    H232030   4.949   6.170   1.486 -0.5470 -0.3335  1.6548
 3491TIP3   OH232031   5.763   2.970   8.311  0.2881 -0.1391  0.7464
 3491TIP3    H132032   5.822   3.041   8.336 -1.5178  2.3234 -1.3140
 3491TIP3    H232033   5.678   2.997   8.345 -0.4513 -1.2639 -0.1404
 3492TIP3   OH232034   2.713   4.279   1.577 -0.1698 -0.1269 -0.1685
 3492TIP3    H132035   2.687   4.216   1.510 -0.1645  0.6728 -0.9363
 3492TIP3    H232036   2.803   4.303   1.554  0.5495 -1.2865  1.2557
 3493TIP3   OH232037   1.101   2.293   1.267 -0.4646 -0.2504 -0.2860
 3493TIP3    H132038   1.099   2.326   1.177  2.9141 -3.9653 -2.0537
 3493TIP3    H232039   1.067   2.203   1.260  1.0971 -1.0827  1.8066
 3494TIP3   OH232040   4.014   1.129   7.654 -0.4013 -0.7432  0.9218
 3494TIP3    H132041   3.967   1.114   7.572  0.9739 -1.2000  0.1826
 3494TIP3    H232042   3.958   1.090   7.721 -1.2842 -0.8634  0.1338
 3495TIP3   OH232043   4.673   6.076   8.419 -0.0909  0.0716  0.7957
 3495TIP3    H132044   4.648   6.163   8.450 -1.3184 -0.0556  0.2017
 3495TIP3    H232045   4.768   6.082   8.406  0.0061  0.9872  1.7707
 3496TIP3   OH232046   6.449   0.606   8.202 -0.5483  0.7353  0.3842
 3496TIP3    H132047   6.491   0.535   8.251  0.8555  1.4926  0.3219
 3496TIP3    H232048   6.376   0.564   8.157 -0.1790 -0.5197  0.9183
 3497TIP3   OH232049   3.607   2.672   0.779 -0.1633 -0.2981 -0.4076
 3497TIP3    H132050   3.593   2.766   0.778 -1.0789 -0.4142  0.0894
 3497TIP3    H232051   3.702   2.661   0.780 -0.0421  0.5928 -1.6207
 3498TIP3   OH232052   4.650   3.840   8.401  0.0401 -0.4372  0.5549
 3498TIP3    H132053   4.656   3.928   8.438  0.2323 -1.4180  3.1143
 3498TIP3    H232054   4.582   3.797   8.454 -1.0603 -1.4397 -1.5581
 3499TIP3   OH232055   5.277   4.328   8.595  0.2167 -0.2710  0.1123
 3499TIP3    H132056   5.258   4.260   8.530  0.4632  0.2912 -0.5592
 3499TIP3    H232057   5.373   4.334   8.595  0.1567  1.1387 -0.9668
 3500TIP3   OH232058   4.545   0.740   0.801 -0.2003  0.1049 -0.4163
 3500TIP3    H132059   4.557   0.789   0.882  1.6744 -0.2396 -0.4321
 3500TIP3    H232060   4.452   0.717   0.800 -0.3496  0.4600  1.4362
 3501TIP3   OH232061   2.210   4.280   2.118  0.4566 -0.1437  0.1172
 3501TIP3    H132062   2.261   4.297   2.039  0.0828  0.3776 -0.0178
 3501TIP3    H232063   2.205   4.364   2.163  0.5619 -0.4107  0.6347
 3502TIP3   OH232064   6.762   2.209   2.947 -0.3561  0.3973 -0.1640
 3502TIP3    H132065   6.733   2.119   2.957 -1.0062  0.4161 -1.7139
 3502TIP3    H232066   6.856   2.203   2.932 -0.2279  0.0676  0.6881
 3503TIP3   OH232067   6.108   5.365   1.805 -0.1326 -0.4411  0.2692
 3503TIP3    H132068   6.123   5.307   1.880 -0.2439 -1.9353 -0.8161
 3503TIP3    H232069   6.138   5.314   1.729 -1.7351  0.2860 -0.8980
 3504TIP3   OH232070   3.978   4.298   1.793  0.0679 -0.8761  0.3296
 3504TIP3    H132071   4.073   4.287   1.788  0.1685 -0.1719  0.5269
 3504TIP3    H232072   3.952   4.253   1.873  0.4054 -0.0388  0.9199
 3505TIP3   OH232073   6.452   0.879   8.297  0.6458 -0.5025  0.7118
 3505TIP3    H132074   6.373   0.914   8.339  0.6800  0.4726  0.0157
 3505TIP3    H232075   6.425   0.795   8.260  0.4361 -1.0443  2.0424
 3506TIP3   OH232076   5.478   6.356   0.410  0.1911 -0.0440  0.8766
 3506TIP3    H132077   5.439   6.392   0.489 -0.3621 -1.4472  1.2881
 3506TIP3    H232078   5.485   6.262   0.428 -0.9464 -0.5815 -1.1324
 3507TIP3   OH232079   4.660   4.169   0.666 -0.2334 -0.0962 -0.0024
 3507TIP3    H132080   4.726   4.128   0.610  0.6851 -0.7933  1.5470
 3507TIP3    H232081   4.581   4.171   0.612  0.6408 -0.6584 -1.3504
 3508TIP3   OH232082   4.894   3.762   0.762 -0.8600  0.2960 -0.0471
 3508TIP3    H132083   4.974   3.798   0.723  0.2229 -1.3835  0.5138
 3508TIP3    H232084   4.832   3.757   0.690 -0.0151  0.3847 -0.7994
 3509TIP3   OH232085   0.919   0.305   1.459  0.0932  0.3407 -0.1178
 3509TIP3    H132086   1.000   0.255   1.459 -1.5789 -2.6416  1.4593
 3509TIP3    H232087   0.882   0.292   1.372  0.2525 -0.1866 -0.1069
 3510TIP3   OH232088   4.227   3.030   1.908 -0.2625 -0.0084  0.2026
 3510TIP3    H132089   4.163   3.090   1.870 -2.0000 -1.2756  0.9698
 3510TIP3    H232090   4.191   2.943   1.892  0.6510 -0.7184  1.7147
 3511TIP3   OH232091   4.651   3.468   1.180 -0.0363  0.0103 -0.1899
 3511TIP3    H132092   4.595   3.545   1.182  0.3213  0.2866 -0.6414
 3511TIP3    H232093   4.729   3.496   1.132  1.2156  0.1267  1.7572
 3512TIP3   OH232094   0.282   2.194   7.559 -0.0078 -0.4134 -0.2799
 3512TIP3    H132095   0.326   2.199   7.474 -1.8451 -2.6303 -1.4880
 3512TIP3    H232096   0.353   2.201   7.623  1.7255 -0.8661 -2.0321
 3513TIP3   OH232097   2.407   6.098   8.203 -0.1879 -0.3554  1.1937
 3513TIP3    H132098   2.473   6.167   8.197 -0.4355 -0.2257 -2.7355
 3513TIP3    H232099   2.452   6.019   8.173 -1.1606 -0.8027  0.8509
 3514TIP3   OH232100   0.098   0.372   8.341 -0.2400  0.3332  0.4784
 3514TIP3    H132101   0.146   0.374   8.423 -1.1472  2.1612  1.0125
 3514TIP3    H232102   0.142   0.436   8.285  0.0747 -0.5440 -0.3100
 3515TIP3   OH232103   1.172   5.886   8.136  0.3165 -0.5045  0.7942
 3515TIP3    H132104   1.132   5.809   8.177 -0.5811  0.4703  1.8411
 3515TIP3    H232105   1.098   5.939   8.107  0.8912  0.2329  0.6295
 3516TIP3   OH232106   1.793   3.371   8.721  0.0847  0.3651  0.0082
 3516TIP3    H132107   1.741   3.326   8.655 -0.6960 -0.0674  0.8996
 3516TIP3    H232108   1.876   3.392   8.677 -0.2215 -0.3754 -0.9348
 3517TIP3   OH232109   0.697   5.762   1.668 -0.2882 -0.5106  0.2385
 3517TIP3    H132110   0.643   5.836   1.639  0.7771  0.5848  0.9040
 3517TIP3    H232111   0.680   5.693   1.605  0.4111  1.0678 -1.8081
 3518TIP3   OH232112   2.588   6.342   6.832  0.3509 -0.1132  0.7078
 3518TIP3    H132113   2.528   6.361   6.760  0.4557 -0.7410  0.4524
 3518TIP3    H232114   2.545   6.271   6.881  0.8612 -0.5420  0.5435
 3519TIP3   OH232115   1.452   2.703   0.511 -0.3083 -0.7611  0.3020
 3519TIP3    H132116   1.385   2.698   0.580  0.7507  1.4152  1.6351
 3519TIP3    H232117   1.535   2.699   0.559  0.4704  1.7047 -0.6739
 3520TIP3   OH232118   5.910   1.069   1.787 -0.7313 -0.1766 -0.3332
 3520TIP3    H132119   5.826   1.031   1.813 -1.1479  0.4995 -0.6627
 3520TIP3    H232120   5.956   1.086   1.870 -0.8807 -0.6241 -0.1570
 3521TIP3   OH232121   6.267   3.399   0.330  0.2572  0.5237 -0.2976
 3521TIP3    H132122   6.184   3.351   0.326 -0.0402  1.0474 -0.5709
 3521TIP3    H232123   6.299   3.384   0.419  0.7328 -1.0899 -0.7060
 3522TIP3   OH232124   5.148   3.059   8.225 -1.0575  0.6898  0.3156
 3522TIP3    H132125   5.150   3.149   8.257 -1.4558  0.1976  1.7538
 3522TIP3    H232126   5.117   3.067   8.134 -1.8635  1.9252  0.6785
 3523TIP3   OH232127   5.859   2.950   0.381  0.1336  0.0164  0.2061
 3523TIP3    H132128   5.933   2.955   0.441 -1.1734 -0.3203  1.8981
 3523TIP3    H232129   5.816   2.868   0.403 -0.0801 -0.4157 -1.6075
 3524TIP3   OH232130   1.177   3.471   1.213 -0.1675  0.1319 -0.7654
 3524TIP3    H132131   1.089   3.502   1.191 -1.0188 -0.1911  1.8308
 3524TIP3    H232132   1.205   3.528   1.285  1.0460 -0.8591 -0.4230
 3525TIP3   OH232133   6.574   3.650   0.728  0.3684 -0.5914  0.2429
 3525TIP3    H132134   6.644   3.715   0.731 -0.6630  0.5477  0.4815
 3525TIP3    H232135   6.529   3.659   0.812 -2.1843  1.1888 -1.1631
 3526TIP3   OH232136   6.787   2.108   0.092  0.1377 -0.2511 -0.6902
 3526TIP3    H132137   6.764   2.106   0.185  0.4344 -1.4097 -0.6274
 3526TIP3    H232138   6.845   2.184   0.083 -0.8757  0.6139 -0.1827
 3527TIP3   OH232139   4.702   4.278   1.738  0.0979  0.1455 -0.0885
 3527TIP3    H132140   4.738   4.192   1.762 -0.9865 -0.7569 -1.5434
 3527TIP3    H232141   4.778   4.326   1.704  0.6306 -0.4222  0.2752
 3528TIP3   OH232142   4.199   2.882   0.623 -0.0761 -0.3895 -0.4640
 3528TIP3    H132143   4.109   2.857   0.603  0.0463  0.1160 -1.8007
 3528TIP3    H232144   4.190   2.956   0.683 -0.5396 -0.6897 -0.1575
 3529TIP3   OH232145   5.274   0.584   0.195 -0.1752 -0.0512  0.1844
 3529TIP3    H132146   5.355   0.558   0.151 -0.6095  0.2163 -0.7979
 3529TIP3    H232147   5.302   0.608   0.284  0.7189 -0.5901  0.0597
 3530TIP3   OH232148   3.456   6.210   1.577  0.8946  0.2667 -0.1507
 3530TIP3    H132149   3.507   6.132   1.599 -0.6521 -0.9446 -0.6994
 3530TIP3    H232150   3.478   6.274   1.645  1.6107 -0.9087  0.7437
 3531TIP3   OH232151   5.730   5.748   7.310  0.1488  0.2032 -0.3133
 3531TIP3    H132152   5.702   5.745   7.401  2.5934  0.1602  0.4934
 3531TIP3    H232153   5.777   5.666   7.296  0.1212  0.3695 -1.5124
 3532TIP3   OH232154   5.429   5.734   0.501 -0.1946  0.1158 -0.1716
 3532TIP3    H132155   5.503   5.738   0.561  1.9274  0.5794 -2.6601
 3532TIP3    H232156   5.437   5.813   0.448 -2.3957  0.0770 -0.6566
 3533TIP3   OH232157   3.282   1.667   8.723 -0.3528  0.4485 -0.3358
 3533TIP3    H132158   3.260   1.756   8.751 -0.4362  0.7038 -1.1771
 3533TIP3    H232159   3.211   1.642   8.664 -0.5669 -0.3613  0.2559
 3534TIP3   OH232160   2.042   1.860   1.956  0.2037  0.6731  0.1956
 3534TIP3    H132161   2.104   1.917   2.001  0.1070 -0.0309  1.2325
 3534TIP3    H232162   1.956   1.898   1.976  0.2060  0.8505 -0.1135
 3535TIP3   OH232163   2.503   0.408   7.829 -0.0708  0.0942 -0.4224
 3535TIP3    H132164   2.569   0.424   7.761  0.6413 -0.1727  0.1949
 3535TIP3    H232165   2.432   0.363   7.783  0.3460  0.0257 -1.0122
 3536TIP3   OH232166   5.985   6.071   6.800 -0.4679 -0.4858 -0.5907
 3536TIP3    H132167   6.003   6.136   6.732 -1.1424  0.1870 -0.1472
 3536TIP3    H232168   6.071   6.043   6.830 -0.1575 -0.8230 -1.7340
 3537TIP3   OH232169   6.175   5.486   6.873 -0.0634  0.7946  0.7083
 3537TIP3    H132170   6.139   5.552   6.932 -1.1324  2.3964 -1.5906
 3537TIP3    H232171   6.269   5.507   6.869  0.1338  0.3172  2.1815
 3538TIP3   OH232172   1.354   4.922   1.508  0.3516  0.2287 -0.0123
 3538TIP3    H132173   1.367   4.832   1.539  1.0363 -0.0751 -1.1359
 3538TIP3    H232174   1.287   4.958   1.566  0.7158 -0.7139  1.0300
 3539TIP3   OH232175   2.207   5.523   8.143 -0.2065  0.6413  0.1651
 3539TIP3    H132176   2.274   5.476   8.093 -0.4944 -0.2981  0.6548
 3539TIP3    H232177   2.130   5.521   8.087 -0.8220 -1.2613  1.0026
 3540TIP3   OH232178   4.195   4.207   1.494  0.2172  0.1261  0.5481
 3540TIP3    H132179   4.220   4.288   1.449  0.3041  0.2282  0.7794
 3540TIP3    H232180   4.100   4.206   1.492  0.2139  0.2877  0.6393
 3541TIP3   OH232181   5.293   3.546   7.426 -0.2844  0.5295 -0.7856
 3541TIP3    H132182   5.247   3.586   7.352 -0.1457  0.8455 -0.7032
 3541TIP3    H232183   5.295   3.453   7.405 -0.3978  0.5947 -1.0978
 3542TIP3   OH232184   3.420   3.885   2.479 -0.0419  0.1915  0.2445
 3542TIP3    H132185   3.374   3.932   2.409  0.0208 -2.3916 -1.7017
 3542TIP3    H232186   3.513   3.890   2.454 -0.0139 -0.6986  0.1191
 3543TIP3   OH232187   5.916   5.953   7.196 -0.2111  0.2348  0.3548
 3543TIP3    H132188   5.986   5.975   7.258 -0.4409 -0.4467  0.8748
 3543TIP3    H232189   5.880   5.871   7.229  0.0216 -0.4343 -1.0032
 3544TIP3   OH232190   0.395   6.700   1.505  0.2903 -0.5724  0.1385
 3544TIP3    H132191   0.431   6.613   1.487  0.8847 -0.0295 -1.3940
 3544TIP3    H232192   0.468   6.750   1.542  0.7613  0.0810 -1.5831
 3545TIP3   OH232193   0.384   5.692   1.078  0.3109  0.1102  0.4231
 3545TIP3    H132194   0.308   5.729   1.123 -0.6274 -1.3956  0.1259
 3545TIP3    H232195   0.455   5.754   1.097 -0.9242  1.4512  0.8572
 3546TIP3   OH232196   4.093   0.208   6.976  1.0136  0.2450 -0.1376
 3546TIP3    H132197   4.136   0.265   6.913  1.8265  0.6474  0.7597
 3546TIP3    H232198   4.028   0.160   6.925  0.1832  2.0754 -0.8882
 3547TIP3   OH232199   0.976   6.510   2.882 -0.4039  0.0792 -0.4132
 3547TIP3    H132200   0.916   6.528   2.810 -1.7749 -0.1500  0.6313
 3547TIP3    H232201   0.947   6.568   2.953 -0.8768 -1.6537  0.8764
 3548TIP3   OH232202   0.230   5.490   8.656  0.3129 -0.1474 -0.5103
 3548TIP3    H132203   0.165   5.552   8.623 -0.5916 -0.0950  1.2567
 3548TIP3    H232204   0.280   5.465   8.579 -1.1483  0.5814 -1.7556
 3549TIP3   OH232205   2.094   2.649   2.595  0.4444  0.2256 -0.2959
 3549TIP3    H132206   2.151   2.583   2.556  0.5273 -0.4662  0.9331
 3549TIP3    H232207   2.092   2.627   2.688 -1.4746  0.4932 -0.2244
 3550TIP3   OH232208   2.763   5.501   8.270 -0.4967 -0.1335 -0.0593
 3550TIP3    H132209   2.677   5.512   8.229 -0.8315  0.3836  0.7705
 3550TIP3    H232210   2.810   5.581   8.248 -0.9487  0.4976  1.1945
 3551TIP3   OH232211   2.865   5.467   8.532 -0.2758  0.6777 -0.1204
 3551TIP3    H132212   2.819   5.482   8.450  3.5375  0.9318 -2.4631
 3551TIP3    H232213   2.833   5.382   8.562 -1.1707  0.1412 -2.3552
 3552TIP3   OH232214   4.384   5.335   0.597 -0.4230  0.3923  0.0853
 3552TIP3    H132215   4.478   5.317   0.591 -0.6463 -1.1575  0.7286
 3552TIP3    H232216   4.379   5.416   0.648  0.5322 -0.1602  1.1030
 3553TIP3   OH232217   2.193   4.700   1.319 -0.4130  0.5000  0.0631
 3553TIP3    H132218   2.196   4.754   1.240  1.3147 -0.4425 -0.5800
 3553TIP3    H232219   2.239   4.753   1.385  0.6225  0.1512 -0.3599
 3554TIP3   OH232220   2.435   4.987   0.310 -0.4505 -0.2978 -0.1685
 3554TIP3    H132221   2.527   4.993   0.282 -0.8414  0.1792 -1.4062
 3554TIP3    H232222   2.420   5.066   0.361 -0.1171 -0.4931  0.2418
 3555TIP3   OH232223   2.904   0.491   1.483  0.4288 -0.7988 -0.0379
 3555TIP3    H132224   2.932   0.583   1.474  0.5422 -0.6518  1.4703
 3555TIP3    H232225   2.817   0.496   1.522 -0.1696 -1.3326 -1.2614
 3556TIP3   OH232226   6.133   4.284   8.449  0.5274  0.1737  0.1260
 3556TIP3    H132227   6.170   4.210   8.495  0.5102 -0.1481 -0.3677
 3556TIP3    H232228   6.090   4.336   8.517  3.4360  1.5767  1.0537
 3557TIP3   OH232229   3.606   3.846   1.138  0.2420  0.1132  0.7219
 3557TIP3    H132230   3.535   3.808   1.086  0.4485 -0.2862  0.7279
 3557TIP3    H232231   3.578   3.836   1.229  0.8003 -1.0947  0.7897
 3558TIP3   OH232232   6.292   3.299   0.645 -0.3529  0.2263 -0.6642
 3558TIP3    H132233   6.280   3.338   0.731 -3.3694  0.9679 -1.3066
 3558TIP3    H232234   6.283   3.205   0.659 -1.8207  0.4107 -0.2740
 3559TIP3   OH232235   3.389   6.421   0.479 -0.1297  0.2257 -0.0108
 3559TIP3    H132236   3.326   6.394   0.413 -0.8868  1.2870  0.2431
 3559TIP3    H232237   3.362   6.374   0.558  0.2624 -0.3973 -0.2424
 3560TIP3   OH232238   6.257   4.328   0.248 -0.1846  0.4241  0.0356
 3560TIP3    H132239   6.192   4.265   0.218 -0.5127  1.2508 -1.0606
 3560TIP3    H232240   6.206   4.394   0.296 -0.0047  0.4670  0.1681
 3561TIP3   OH232241   6.193   1.176   2.058  0.2307  0.4406  0.0360
 3561TIP3    H132242   6.156   1.104   2.108  2.4538 -1.2503 -0.6000
 3561TIP3    H232243   6.198   1.249   2.120 -0.4648 -0.4782  1.2003
 3562TIP3   OH232244   6.454   2.342   0.347  0.4263  0.0962  0.3941
 3562TIP3    H132245   6.477   2.434   0.332  0.2160  0.2867  1.1910
 3562TIP3    H232246   6.528   2.307   0.396  0.3696 -0.0812  0.3515
 3563TIP3   OH232247   5.590   5.573   0.999  0.0910 -0.1403 -0.3566
 3563TIP3    H132248   5.511   5.565   0.946  0.0094  0.0494 -0.2631
 3563TIP3    H232249   5.568   5.637   1.067  0.5807  0.5055 -0.7977
 3564TIP3   OH232250   1.537   6.055   2.548  0.0436 -0.1466  0.2228
 3564TIP3    H132251   1.611   6.085   2.494 -1.3049  1.2921 -0.9233
 3564TIP3    H232252   1.473   6.023   2.485  0.2538 -2.9330  1.2789
 3565TIP3   OH232253   3.016   5.509   8.067 -0.6821  0.1661 -0.1064
 3565TIP3    H132254   3.039   5.535   8.156 -0.8897  0.3955 -0.1196
 3565TIP3    H232255   2.988   5.590   8.024 -1.3982 -0.0915 -0.1240
 3566TIP3   OH232256   3.137   4.871   1.150  0.1841  0.2940 -0.0122
 3566TIP3    H132257   3.146   4.878   1.055 -1.9437 -0.2067 -0.2952
 3566TIP3    H232258   3.080   4.796   1.164  0.2139  0.5328  1.6719
 3567TIP3   OH232259   1.224   6.391   0.336 -0.4681 -0.3889  0.0667
 3567TIP3    H132260   1.239   6.383   0.430  0.3367 -0.3144 -0.0464
 3567TIP3    H232261   1.307   6.363   0.296 -1.2625 -1.8109 -0.6742
 3568TIP3   OH232262   4.582   4.560   1.262 -0.0964  0.3213  0.0570
 3568TIP3    H132263   4.638   4.576   1.186  1.3647 -2.5652  0.4200
 3568TIP3    H232264   4.628   4.601   1.335  0.9440 -0.9226  0.1319
 3569TIP3   OH232265   4.564   0.267   7.382  0.2938 -0.3475 -0.0670
 3569TIP3    H132266   4.519   0.302   7.305  0.8016 -0.3617 -0.3816
 3569TIP3    H232267   4.642   0.225   7.346  1.3076  0.9118  0.5667
 3570TIP3   OH232268   2.902   4.837   8.271 -0.5200  0.2898  0.3054
 3570TIP3    H132269   2.956   4.781   8.327 -2.0603  0.3111  1.8999
 3570TIP3    H232270   2.956   4.914   8.254 -0.1151  0.4796  2.1743
 3571TIP3   OH232271   3.866   4.711   7.650  0.6595 -0.0958  0.0750
 3571TIP3    H132272   3.874   4.648   7.578  2.8794 -0.3825  0.4990
 3571TIP3    H232273   3.865   4.656   7.729  1.0196  0.3256  0.3756
 3572TIP3   OH232274   4.681   4.540   0.644  0.6651 -0.4886 -0.3050
 3572TIP3    H132275   4.624   4.480   0.596  0.3412  1.4837 -2.6096
 3572TIP3    H232276   4.625   4.614   0.666  1.4099 -0.3147  1.0623
 3573TIP3   OH232277   1.035   0.119   7.740 -0.0384 -0.3280  0.3283
 3573TIP3    H132278   1.093   0.160   7.804  1.3151  0.3951 -1.2979
 3573TIP3    H232279   1.065   0.028   7.735  1.0284  0.0433 -0.5109
 3574TIP3   OH232280   6.743   2.738   0.094  0.8785 -0.2139  0.5295
 3574TIP3    H132281   6.793   2.818   0.078  0.9474 -0.4581 -0.5328
 3574TIP3    H232282   6.655   2.768   0.113 -0.0607  0.0765 -3.4264
 3575TIP3   OH232283   1.262   1.072   1.333 -0.3383  0.1403  0.1066
 3575TIP3    H132284   1.294   1.037   1.415 -0.3536 -0.3988 -0.1160
 3575TIP3    H232285   1.341   1.092   1.282 -0.3286 -0.9763 -0.3524
 3576TIP3   OH232286   6.827   2.795   7.131 -0.3495  0.4269  0.1458
 3576TIP3    H132287   6.832   2.701   7.149  1.3382 -0.0155 -2.2007
 3576TIP3    H232288   6.738   2.819   7.156 -1.0655 -1.9363  0.1329
 3577TIP3   OH232289   2.854   0.584   0.141  0.6075  0.5428 -0.3906
 3577TIP3    H132290   2.803   0.524   0.086  1.5581  1.5021 -2.4295
 3577TIP3    H232291   2.914   0.526   0.189  0.4258 -0.2872 -1.1220
 3578TIP3   OH232292   3.383   0.598   1.736  0.2833 -0.1757  0.2813
 3578TIP3    H132293   3.473   0.587   1.705  0.9120  3.4864  0.4042
 3578TIP3    H232294   3.331   0.548   1.674  2.2573 -1.1724 -0.6895
 3579TIP3   OH232295   0.127   0.717   0.210 -0.3158  0.0972 -0.3591
 3579TIP3    H132296   0.032   0.713   0.221 -0.5330  0.4120 -1.8575
 3579TIP3    H232297   0.139   0.719   0.115  1.1934  0.0941 -0.1827
 3580TIP3   OH232298   1.838   2.091   0.530 -0.4983 -0.2695 -0.5657
 3580TIP3    H132299   1.832   2.159   0.597 -0.0027 -0.9731  0.2186
 3580TIP3    H232300   1.892   2.129   0.461  0.0485  0.0236  0.0156
 3581TIP3   OH232301   5.526   5.783   1.148 -0.0086  0.4332  0.0757
 3581TIP3    H132302   5.482   5.867   1.133 -0.2692 -0.0751 -2.4555
 3581TIP3    H232303   5.603   5.806   1.199  0.1064  2.2948 -0.8333
 3582TIP3   OH232304   4.668   1.556   8.157 -0.3728  0.0284  0.0709
 3582TIP3    H132305   4.614   1.507   8.219  0.8214 -0.9850  0.3354
 3582TIP3    H232306   4.696   1.492   8.093 -0.4276  0.7907 -0.7365
 3583TIP3   OH232307   4.542   5.978   0.821  0.5107 -0.6868 -0.4216
 3583TIP3    H132308   4.448   5.978   0.837  0.3117 -1.0064 -1.5300
 3583TIP3    H232309   4.569   6.069   0.835 -0.4224 -0.0309 -2.5608
 3584TIP3   OH232310   5.775   5.274   7.132  0.3390  0.0928  0.7375
 3584TIP3    H132311   5.820   5.203   7.086 -0.1822  0.3323 -0.1813
 3584TIP3    H232312   5.682   5.254   7.123 -0.0682  2.5814 -2.6045
 3585TIP3   OH232313   6.736   2.180   7.752 -0.3950  0.4613  0.4801
 3585TIP3    H132314   6.758   2.192   7.659 -2.3733 -1.3872 -0.3080
 3585TIP3    H232315   6.807   2.224   7.799  2.9864 -1.9740 -1.8530
 3586TIP3   OH232316   5.478   5.869   2.341  0.1578 -0.1393  0.3190
 3586TIP3    H132317   5.432   5.918   2.273 -0.9135 -0.7270  0.5994
 3586TIP3    H232318   5.562   5.915   2.352 -0.1027  0.5795 -0.6405
 3587TIP3   OH232319   1.140   6.314   2.768  0.3325 -0.0378 -0.2929
 3587TIP3    H132320   1.105   6.324   2.679  1.6194 -0.9579 -0.9412
 3587TIP3    H232321   1.096   6.382   2.819  0.3691  1.2363 -1.8751
 3588TIP3   OH232322   0.459   2.910   0.570 -0.3255  0.8615 -0.1553
 3588TIP3    H132323   0.401   2.974   0.611  0.8595  1.2650  0.9208
 3588TIP3    H232324   0.414   2.886   0.488 -2.1278  0.9561  0.7679
 3589TIP3   OH232325   6.648   5.578   2.463  0.0347  0.1151  0.1847
 3589TIP3    H132326   6.726   5.586   2.518  0.6106  0.2166 -0.6316
 3589TIP3    H232327   6.679   5.533   2.384 -0.6974  0.3027 -0.2196
 3590TIP3   OH232328   1.237   5.116   2.254  0.3881 -0.4366 -0.4443
 3590TIP3    H132329   1.144   5.108   2.277  1.0571 -0.0363  2.9547
 3590TIP3    H232330   1.284   5.084   2.331  3.0810  2.3147 -0.7581
 3591TIP3   OH232331   1.413   0.491   7.908 -0.4808  0.3445 -0.6287
 3591TIP3    H132332   1.426   0.493   8.003  1.9225 -1.3515 -0.8114
 3591TIP3    H232333   1.321   0.514   7.895 -0.7570  1.0259  2.0698
 3592TIP3   OH232334   2.845   4.910   1.713  0.4971  0.4876  0.7892
 3592TIP3    H132335   2.806   4.922   1.626  1.4234 -1.8536 -0.0197
 3592TIP3    H232336   2.780   4.947   1.773 -0.1704  2.1562 -0.8436
 3593TIP3   OH232337   1.606   1.677   8.272 -0.1447 -0.2058  0.3074
 3593TIP3    H132338   1.583   1.625   8.349  1.3556 -1.0087  0.2586
 3593TIP3    H232339   1.527   1.675   8.218 -0.7173 -0.9253  1.1356
 3594TIP3   OH232340   5.583   4.574   0.375  0.1914  0.3957 -0.2410
 3594TIP3    H132341   5.575   4.554   0.468  0.7998 -1.4324 -0.5355
 3594TIP3    H232342   5.499   4.613   0.351  0.0701  0.9795  1.0793
 3595TIP3   OH232343   6.224   6.822   1.293 -0.1522  0.4011 -0.0864
 3595TIP3    H132344   6.227   6.741   1.344  2.4754  1.1047  1.0458
 3595TIP3    H232345   6.165   6.879   1.342  1.8689  0.8521  1.9878
 3596TIP3   OH232346   6.729   0.777   0.850  0.4907  0.0661 -0.1772
 3596TIP3    H132347   6.665   0.720   0.807  0.5319 -0.0425 -0.0948
 3596TIP3    H232348   6.769   0.721   0.917  0.1498  0.3428  0.2685
 3597TIP3   OH232349   6.452   4.719   7.834  0.2185  0.6285 -0.0805
 3597TIP3    H132350   6.514   4.765   7.777  0.7866  1.0735  0.8639
 3597TIP3    H232351   6.507   4.665   7.891 -0.4535 -1.4430 -1.3182
 3598TIP3   OH232352   5.897   1.760   1.536  0.2324 -0.0333 -0.1991
 3598TIP3    H132353   5.973   1.716   1.574  0.9128 -0.1764 -1.6390
 3598TIP3    H232354   5.900   1.848   1.573 -0.7623 -0.9322  2.2007
 3599TIP3   OH232355   2.494   3.480   1.890  0.3777 -0.3512  0.2216
 3599TIP3    H132356   2.544   3.530   1.955  0.8695 -0.1197 -0.3259
 3599TIP3    H232357   2.402   3.496   1.913  0.5307  0.6051  0.2012
 3600TIP3   OH232358   0.302   2.618   0.723  0.2548  0.4724 -0.0585
 3600TIP3    H132359   0.243   2.624   0.799 -1.3709  2.7724 -1.3775
 3600TIP3    H232360   0.378   2.670   0.748  0.4514 -0.0742  0.5361
 3601TIP3   OH232361   6.822   4.983   6.894  0.2187 -0.7739  0.2465
 3601TIP3    H132362   6.858   4.966   6.981  2.6035 -2.2416 -0.9258
 3601TIP3    H232363   6.841   5.076   6.878  0.8352 -0.7908  0.8435
 3602TIP3   OH232364   2.245   1.778   8.437  0.2197  0.8295 -0.3173
 3602TIP3    H132365   2.170   1.818   8.482  0.2280  2.3557 -1.5852
 3602TIP3    H232366   2.314   1.777   8.503 -0.4100  0.9566  0.3605
 3603TIP3   OH232367   6.313   4.093   8.600 -0.3650  0.1752 -0.5473
 3603TIP3    H132368   6.379   4.156   8.630 -0.3477 -0.0874 -0.0277
 3603TIP3    H232369   6.364   4.025   8.555 -0.1966 -0.4398  0.5541
 3604TIP3   OH232370   0.878   2.187   0.990 -0.7105  0.7385  0.2033
 3604TIP3    H132371   0.837   2.205   0.905 -0.6627 -0.1564 -0.0180
 3604TIP3    H232372   0.972   2.187   0.972 -0.7387 -1.8767 -0.2866
 3605TIP3   OH232373   5.853   3.333   1.493 -0.9764  0.0370 -0.4055
 3605TIP3    H132374   5.903   3.284   1.427  1.1430  2.3132 -0.6740
 3605TIP3    H232375   5.892   3.307   1.576  0.9441  1.9068 -0.6233
 3606TIP3   OH232376   5.889   1.329   0.221  0.0595 -0.0405 -0.0311
 3606TIP3    H132377   5.903   1.249   0.271 -0.8384 -0.1271  0.0809
 3606TIP3    H232378   5.795   1.344   0.222  0.0266  0.0544 -1.5337
 3607TIP3   OH232379   3.051   1.593   7.917 -0.7357 -0.3570  0.7309
 3607TIP3    H132380   2.996   1.515   7.915 -1.1532 -0.0996  1.9049
 3607TIP3    H232381   3.130   1.566   7.964 -0.7527 -0.1537  0.8759
 3608TIP3   OH232382   5.988   5.680   7.840  0.5804 -0.0075  0.6039
 3608TIP3    H132383   5.907   5.728   7.826  0.7324  0.9722  2.7332
 3608TIP3    H232384   5.961   5.602   7.888  0.9903  0.9992  2.5653
 3609TIP3   OH232385   2.495   2.370   7.955 -0.9337  0.5369  1.1058
 3609TIP3    H132386   2.412   2.349   7.997  0.0983 -0.9151  2.5335
 3609TIP3    H232387   2.531   2.286   7.927  0.4274  1.0290  1.2606
 3610TIP3   OH232388   2.525   2.664   8.733 -0.2205 -0.2291  0.3683
 3610TIP3    H132389   2.527   2.644   8.640  3.1389 -2.2989  0.7021
 3610TIP3    H232390   2.566   2.750   8.741 -1.5474  0.4787 -0.0603
 3611TIP3   OH232391   1.417   3.770   1.337 -0.7690  0.2380 -0.3880
 3611TIP3    H132392   1.393   3.844   1.283 -1.3325 -0.2753 -0.8564
 3611TIP3    H232393   1.340   3.755   1.393 -0.5775  0.1352 -0.1468
 3612TIP3   OH232394   1.298   5.328   0.607  0.1945  0.2360  0.2462
 3612TIP3    H132395   1.241   5.282   0.545 -0.3913  1.1085  0.1148
 3612TIP3    H232396   1.386   5.296   0.588 -0.0079  0.3169 -0.8774
 3613TIP3   OH232397   3.193   1.989   7.079  0.1479 -0.3344 -0.0550
 3613TIP3    H132398   3.112   2.006   7.030  0.1937 -0.5379 -0.2035
 3613TIP3    H232399   3.232   2.075   7.092  1.3668 -0.4524 -2.4809
 3614TIP3   OH232400   2.965   2.453   0.334  1.1496 -0.2087 -0.5907
 3614TIP3    H132401   2.911   2.422   0.261 -1.6713 -1.8987  1.9819
 3614TIP3    H232402   2.990   2.373   0.380  0.0698  0.8847  2.0680
 3615TIP3   OH232403   1.286   6.565   2.213  0.9442  0.0139  0.2106
 3615TIP3    H132404   1.327   6.586   2.297  1.9178  3.7304 -1.0298
 3615TIP3    H232405   1.281   6.469   2.213  1.4276 -0.1853  4.2003
 3616TIP3   OH232406   1.441   3.164   2.604  0.1953 -0.0955 -0.1311
 3616TIP3    H132407   1.452   3.163   2.509 -2.7609 -1.6913 -0.5638
 3616TIP3    H232408   1.474   3.079   2.634  1.8420  0.6975  0.4514
 3617TIP3   OH232409   6.242   6.101   8.556 -0.0217 -0.0553  0.3006
 3617TIP3    H132410   6.166   6.046   8.536  1.0332 -1.1239 -0.9383
 3617TIP3    H232411   6.213   6.156   8.628 -1.9344 -0.5219 -0.0563
 3618TIP3   OH232412   4.870   2.108   1.199 -0.1344  0.2060 -0.6807
 3618TIP3    H132413   4.790   2.089   1.249 -0.0013  1.7943  0.2044
 3618TIP3    H232414   4.898   2.023   1.165  0.1149 -1.1140  2.4839
 3619TIP3   OH232415   1.786   2.403   1.378 -0.1810  0.2237  0.1701
 3619TIP3    H132416   1.750   2.315   1.374 -0.9233  0.4456  1.3275
 3619TIP3    H232417   1.730   2.455   1.321 -1.5100  0.4740  1.6141
 3620TIP3   OH232418   3.174   4.669   7.322 -0.6209  0.2701 -0.0940
 3620TIP3    H132419   3.121   4.593   7.301 -0.1715  0.0423 -0.4239
 3620TIP3    H232420   3.195   4.709   7.238  0.4615 -0.1484 -0.0394
 3621TIP3   OH232421   1.636   6.692   2.146 -0.0283  0.1406 -0.6581
 3621TIP3    H132422   1.638   6.655   2.058  0.0635 -0.8665 -0.2591
 3621TIP3    H232423   1.555   6.742   2.150 -0.3068 -0.2663 -1.1387
 3622TIP3   OH232424   4.024   2.647   0.599 -0.8046  0.1913 -0.0592
 3622TIP3    H132425   4.084   2.586   0.556 -0.3876  0.5832 -0.0388
 3622TIP3    H232426   3.951   2.657   0.538 -1.4285 -1.2029  0.4213
 3623TIP3   OH232427   6.488   3.011   2.045 -0.3079  0.4268  0.3379
 3623TIP3    H132428   6.513   3.089   2.094 -0.3436  0.2443  0.6546
 3623TIP3    H232429   6.392   3.013   2.042 -0.2567  2.0412 -2.3857
 3624TIP3   OH232430   5.552   3.719   7.533  1.1877 -0.3280 -0.1145
 3624TIP3    H132431   5.481   3.677   7.582  0.6640  0.9648  0.2902
 3624TIP3    H232432   5.528   3.811   7.531  2.2179 -0.0595 -1.1099
 3625TIP3   OH232433   3.811   0.019   0.733  0.6515 -0.4520  0.2384
 3625TIP3    H132434   3.776  -0.054   0.783  1.7549 -1.5778 -0.5410
 3625TIP3    H232435   3.735   0.070   0.707 -0.2033 -1.6486  0.3344
 3626TIP3   OH232436   0.412   5.737   8.712 -0.3832 -0.9257  0.4222
 3626TIP3    H132437   0.335   5.681   8.706  1.5714 -3.7675  0.2298
 3626TIP3    H232438   0.427   5.748   8.806 -1.3264  0.1809  0.4668
 3627TIP3   OH232439   6.023   5.764   0.065 -0.1220  0.5483  0.3927
 3627TIP3    H132440   6.056   5.744  -0.022  1.5029  0.0928  1.0817
 3627TIP3    H232441   6.016   5.679   0.108  0.2258  0.8652  1.0884
 3628TIP3   OH232442   2.149   5.618   2.422  0.0143 -0.2328  0.3151
 3628TIP3    H132443   2.071   5.656   2.381 -1.0677 -1.1984  1.3696
 3628TIP3    H232444   2.141   5.642   2.515  0.0679 -1.7061  0.7404
 3629TIP3   OH232445   3.097   4.081   1.216 -0.3331  0.2094  0.2692
 3629TIP3    H132446   3.171   4.086   1.155 -0.5859  1.4032  0.0453
 3629TIP3    H232447   3.109   4.155   1.275 -1.9889  1.1601 -0.5176
 3630TIP3   OH232448   0.951   5.947   0.109 -0.4788 -0.1060 -0.6726
 3630TIP3    H132449   1.036   5.902   0.108  0.9248  2.3885 -0.5317
 3630TIP3    H232450   0.891   5.882   0.146  1.7640 -1.3150  1.1692
 3631TIP3   OH232451   3.425   3.927   2.051 -0.9097 -0.6139 -0.0648
 3631TIP3    H132452   3.330   3.933   2.059 -1.1940 -1.5585 -1.9659
 3631TIP3    H232453   3.445   3.972   1.969  0.1842 -1.0027 -0.0309
 3632TIP3   OH232454   2.514   1.561   8.309  0.1225  0.0571 -0.0819
 3632TIP3    H132455   2.489   1.626   8.243 -0.4622 -1.6623 -1.6498
 3632TIP3    H232456   2.442   1.498   8.309  1.1599 -1.1743  0.6083
 3633TIP3   OH232457   0.202   2.529   2.146  0.0147  0.3014  0.0170
 3633TIP3    H132458   0.274   2.485   2.099 -0.0316 -0.4761  0.6609
 3633TIP3    H232459   0.215   2.621   2.126  0.6837  0.0943 -0.5892
 3634TIP3   OH232460   5.685   2.350   1.732 -0.2604 -0.1394  0.0052
 3634TIP3    H132461   5.754   2.398   1.686 -1.8098  0.8398 -1.4059
 3634TIP3    H232462   5.638   2.304   1.663 -2.1128  0.6368  0.7062
 3635TIP3   OH232463   5.089   1.414   7.711 -0.5129  0.4181  0.2892
 3635TIP3    H132464   5.146   1.338   7.722 -2.3120 -0.9736  0.5840
 3635TIP3    H232465   5.080   1.450   7.800 -0.8613  0.0426  0.4083
 3636TIP3   OH232466   2.321   4.164   1.464 -0.2502 -0.9308 -0.2150
 3636TIP3    H132467   2.318   4.113   1.383 -0.5475 -1.7097  0.2754
 3636TIP3    H232468   2.287   4.250   1.440 -1.2861 -1.4653 -0.6963
 3637TIP3   OH232469   1.945   3.710   1.275 -0.3779 -0.0806  0.3080
 3637TIP3    H132470   1.909   3.629   1.310 -0.8739 -0.4208 -0.9420
 3637TIP3    H232471   1.966   3.690   1.184  0.0783  1.0186  0.1556
 3638TIP3   OH232472   6.601   3.356   0.812  0.1030 -0.0184  0.2883
 3638TIP3    H132473   6.660   3.345   0.886  1.0054  0.8965 -0.2750
 3638TIP3    H232474   6.608   3.449   0.789 -2.9666  0.6040  1.3757
 3639TIP3   OH232475   0.143   1.606   1.531 -0.0297  0.1932  0.0475
 3639TIP3    H132476   0.113   1.611   1.622 -1.0106 -1.1326 -0.1772
 3639TIP3    H232477   0.065   1.581   1.482  0.4757  0.9438 -1.1805
 3640TIP3   OH232478   0.882   2.866   0.791  0.4106 -0.1905 -0.2107
 3640TIP3    H132479   0.929   2.832   0.868  0.1526  0.9635  0.4734
 3640TIP3    H232480   0.948   2.867   0.722  1.0066 -0.0060  0.3427
 3641TIP3   OH232481   3.870   6.400   2.969  0.1232 -0.4692  0.2825
 3641TIP3    H132482   3.867   6.441   2.883  0.2650 -0.9073  0.0659
 3641TIP3    H232483   3.798   6.439   3.017 -1.8162 -2.2817 -0.9634
 3642TIP3   OH232484   4.988   2.983   0.720  0.0483 -0.0159 -0.6382
 3642TIP3    H132485   5.007   2.895   0.754 -2.0163 -1.1315 -2.1477
 3642TIP3    H232486   4.913   3.013   0.771  0.8537  0.9839 -0.0113
 3643TIP3   OH232487   1.185   6.035   0.453  0.5544 -0.6788 -0.2810
 3643TIP3    H132488   1.143   6.075   0.377  0.4979 -1.8092 -0.8668
 3643TIP3    H232489   1.279   6.049   0.439  0.4699  0.8308  0.4489
 3644TIP3   OH232490   6.527   0.479   8.590 -0.5525 -0.4530 -0.0477
 3644TIP3    H132491   6.592   0.438   8.647 -0.3605  1.1314  0.9486
 3644TIP3    H232492   6.557   0.460   8.501  0.6249 -0.7319  0.3944
 3645TIP3   OH232493   5.861   6.817   1.833  0.6626  0.4538  0.5353
 3645TIP3    H132494   5.944   6.837   1.789 -0.3371  2.0546 -0.7646
 3645TIP3    H232495   5.853   6.882   1.902  0.3350  0.5312  0.4293
 3646TIP3   OH232496   3.807   2.380   2.482 -0.3766 -0.7498 -0.0628
 3646TIP3    H132497   3.734   2.375   2.420 -0.2215  1.6155 -0.5068
 3646TIP3    H232498   3.778   2.326   2.556 -1.7261 -1.4306 -1.0222
 3647TIP3   OH232499   5.488   5.257   1.102  0.7661  0.3881 -0.1361
 3647TIP3    H132500   5.512   5.335   1.053  1.4942  0.3699  0.1739
 3647TIP3    H232501   5.507   5.185   1.042 -1.8788  0.4776 -1.2407
 3648TIP3   OH232502   6.061   3.570   0.507  0.0504 -0.4021 -0.2534
 3648TIP3    H132503   6.128   3.595   0.570 -1.8727  1.0132  1.3419
 3648TIP3    H232504   6.005   3.509   0.554 -1.3146  0.5234 -0.6341
 3649TIP3   OH232505   4.817   5.366   6.959 -0.4847  0.9563  0.0772
 3649TIP3    H132506   4.732   5.335   6.930 -0.3366  0.4573  0.1771
 3649TIP3    H232507   4.850   5.418   6.886  0.1334 -0.7460 -0.9056
 3650TIP3   OH232508   3.633   4.273   8.526 -0.1225  0.3729 -0.1707
 3650TIP3    H132509   3.600   4.190   8.561 -1.7670  0.5868 -1.1275
 3650TIP3    H232510   3.595   4.340   8.584 -0.8152  0.5813 -0.8501
 3651TIP3   OH232511   6.401   3.902   1.990  0.7733  0.3835  0.3246
 3651TIP3    H132512   6.376   3.993   1.999  1.2278  0.4643  0.8182
 3651TIP3    H232513   6.490   3.898   2.023  0.4757 -0.3878  1.0685
 3652TIP3   OH232514   4.988   3.665   1.288  0.1052  0.0958  0.0095
 3652TIP3    H132515   5.019   3.755   1.300  0.4797 -0.2888  2.3226
 3652TIP3    H232516   4.937   3.668   1.207  1.9567  1.8705 -1.1954
 3653TIP3   OH232517   2.797   3.403   8.083  0.6530  0.1429 -0.3274
 3653TIP3    H132518   2.844   3.450   8.152 -0.1360  0.1134  0.2431
 3653TIP3    H232519   2.716   3.374   8.125  1.5070 -2.5501 -0.3486
 3654TIP3   OH232520   6.573   6.181   2.647 -0.2371  0.0576 -0.0464
 3654TIP3    H132521   6.572   6.166   2.553  0.9239 -0.0318 -0.0661
 3654TIP3    H232522   6.488   6.150   2.678 -0.9803  0.9094 -1.1755
 3655TIP3   OH232523   3.423   2.275   0.822  0.1787  0.3799  0.2502
 3655TIP3    H132524   3.440   2.363   0.857 -0.2033  0.1010  1.1772
 3655TIP3    H232525   3.329   2.261   0.838  0.4772 -0.6618  1.2162
 3656TIP3   OH232526   5.457   6.742   7.425  0.0796  0.3423 -0.1331
 3656TIP3    H132527   5.462   6.756   7.520  0.5052 -0.1799 -0.0765
 3656TIP3    H232528   5.374   6.783   7.400 -0.6254 -0.5477  0.6568
 3657TIP3   OH232529   1.020   3.712   8.483 -0.1371 -0.1830  0.0956
 3657TIP3    H132530   1.013   3.685   8.574 -0.7757  0.4268  0.2337
 3657TIP3    H232531   0.974   3.796   8.479 -0.4545 -0.3918 -0.8676
 3658TIP3   OH232532   6.193   1.424   0.652  0.0223  0.1265  0.0859
 3658TIP3    H132533   6.287   1.404   0.657  0.3001  1.5608  1.1400
 3658TIP3    H232534   6.160   1.365   0.584  1.8548  0.2184 -0.9557
 3659TIP3   OH232535   5.088   5.100   7.296  0.0653  0.5594  0.1507
 3659TIP3    H132536   5.158   5.079   7.234 -1.5587  0.6649 -1.8580
 3659TIP3    H232537   5.040   5.017   7.307  0.3334  0.5413  1.3136
 3660TIP3   OH232538   5.775   6.052   6.980  0.1227  0.3189 -0.0235
 3660TIP3    H132539   5.848   6.053   6.917  1.1124  2.1616  1.0487
 3660TIP3    H232540   5.816   6.024   7.062 -0.4868  0.8747  0.4742
 3661TIP3   OH232541   1.954   0.799   2.041 -0.7430 -0.0841 -0.5198
 3661TIP3    H132542   1.942   0.704   2.042  0.0727 -0.2081  1.1029
 3661TIP3    H232543   1.918   0.827   1.957 -1.2289 -1.7923 -0.9195
 3662TIP3   OH232544   5.503   1.924   0.939  0.0739 -0.3347 -0.6840
 3662TIP3    H132545   5.524   1.846   0.887  1.5802 -0.4387  0.0096
 3662TIP3    H232546   5.442   1.893   1.006  0.8176 -1.0105 -0.2878
 3663TIP3   OH232547   0.487   3.250   1.464  1.1731  0.2283 -0.0508
 3663TIP3    H132548   0.543   3.284   1.534  0.5143 -1.3463  1.3270
 3663TIP3    H232549   0.503   3.156   1.464 -1.1842 -0.2374  0.1782
 3664TIP3   OH232550   0.605   1.199   8.210  0.1153  0.2517 -0.0118
 3664TIP3    H132551   0.538   1.181   8.145 -0.0828 -0.5544  0.4063
 3664TIP3    H232552   0.586   1.139   8.282  1.6512 -0.4546 -0.1494
 3665TIP3   OH232553   4.622   6.656   0.049  0.1457  0.2064  0.1929
 3665TIP3    H132554   4.709   6.632   0.082 -0.3815 -1.4589  0.4562
 3665TIP3    H232555   4.604   6.593  -0.020 -0.9020  0.4952  0.1890
 3666TIP3   OH232556   3.529   2.947   1.748 -0.4520  0.0392 -0.3576
 3666TIP3    H132557   3.597   2.926   1.812 -1.1141 -0.7057  0.1182
 3666TIP3    H232558   3.566   3.018   1.696  1.7682 -2.1253 -1.8906
 3667TIP3   OH232559   6.735   2.316   8.268 -0.1099  0.2211 -0.2844
 3667TIP3    H132560   6.669   2.248   8.258 -0.8498  0.5528  1.8077
 3667TIP3    H232561   6.707   2.365   8.346  3.4315 -0.6059  1.7018
 3668TIP3   OH232562   4.009   5.730   8.628 -0.0796  0.5293  0.0807
 3668TIP3    H132563   3.988   5.755   8.717 -1.3404 -1.4212  0.3917
 3668TIP3    H232564   3.965   5.795   8.573  0.6446  1.6940  0.8465
 3669TIP3   OH232565   1.829   1.945   7.952  0.0174 -0.0321 -0.0263
 3669TIP3    H132566   1.901   1.980   7.900 -0.3074 -1.9330 -1.8568
 3669TIP3    H232567   1.752   1.954   7.896 -0.6582 -0.6089  0.7867
 3670TIP3   OH232568   6.283   3.393   2.039  0.1679  0.2271  0.0666
 3670TIP3    H132569   6.255   3.346   2.118  2.3129  0.5428  1.0803
 3670TIP3    H232570   6.259   3.484   2.056 -0.9063  0.0586 -0.4288
 3671TIP3   OH232571   0.115   2.511   0.535 -0.8379 -0.7055 -0.3175
 3671TIP3    H132572   0.164   2.492   0.455 -1.9357  2.0760 -1.8107
 3671TIP3    H232573   0.180   2.545   0.596 -0.2743 -0.9553 -0.7680
 3672TIP3   OH232574   0.490   5.914   2.193  0.4382 -0.1096 -0.0193
 3672TIP3    H132575   0.465   5.824   2.212 -1.0774 -0.3334 -2.5404
 3672TIP3    H232576   0.414   5.951   2.148  1.8223  1.7326 -0.9875
 3673TIP3   OH232577   1.886   3.293   1.820 -0.6350 -0.6197 -0.3294
 3673TIP3    H132578   1.957   3.266   1.763  0.0388  0.3312  0.0354
 3673TIP3    H232579   1.847   3.212   1.851  0.7773 -1.1662  0.0761
 3674TIP3   OH232580   4.046   4.148   7.485 -0.2063  0.4786 -0.4577
 3674TIP3    H132581   4.062   4.217   7.421  1.2134  0.6886  0.1030
 3674TIP3    H232582   3.951   4.134   7.481 -0.4794  2.2380 -0.8046
 3675TIP3   OH232583   2.637   5.664   3.197 -0.1680 -0.0937 -0.6773
 3675TIP3    H132584   2.591   5.717   3.131 -0.2655 -0.3378 -0.8088
 3675TIP3    H232585   2.717   5.712   3.216  0.2207 -0.3794 -1.5203
 3676TIP3   OH232586   4.430   5.617   8.203  0.2529  0.2619 -0.2710
 3676TIP3    H132587   4.379   5.615   8.284  0.2023  1.6983 -0.2423
 3676TIP3    H232588   4.495   5.686   8.217  2.5809 -1.8314 -0.1153
 3677TIP3   OH232589   5.288   2.982   2.567  0.0965 -0.2855  0.0137
 3677TIP3    H132590   5.275   3.009   2.476  1.8892 -1.2167 -0.5566
 3677TIP3    H232591   5.286   2.886   2.564  1.0565 -0.3402  0.8074
 3678TIP3   OH232592   6.749   1.244   0.466  0.1319  0.3168 -0.1209
 3678TIP3    H132593   6.724   1.336   0.479  0.8626  0.8464 -2.0722
 3678TIP3    H232594   6.681   1.209   0.409 -0.6145 -0.6521  1.2967
 3679TIP3   OH232595   3.544   1.576   1.996  0.1187 -0.1997 -0.0511
 3679TIP3    H132596   3.569   1.640   1.930 -0.7898 -0.4369 -0.6393
 3679TIP3    H232597   3.566   1.618   2.080  1.6951 -0.0773 -0.4978
 3680TIP3   OH232598   2.958   0.511   2.309  0.1697 -0.1585 -0.4098
 3680TIP3    H132599   2.881   0.503   2.252  0.5742 -0.2273 -0.9570
 3680TIP3    H232600   2.950   0.598   2.348 -0.9418 -0.7082  0.6659
 3681TIP3   OH232601   6.678   4.000   8.751 -0.2598  0.3165 -0.1359
 3681TIP3    H132602   6.636   4.035   8.829 -0.1909  1.9375 -0.7762
 3681TIP3    H232603   6.771   4.001   8.772 -0.2347  0.8261 -0.2495
 3682TIP3   OH232604   2.245   2.781   0.495  0.3702 -0.1162  0.5713
 3682TIP3    H132605   2.183   2.767   0.423  1.7365  1.9757 -1.1191
 3682TIP3    H232606   2.329   2.751   0.460  1.0312  0.7861  1.3542
 3683TIP3   OH232607   6.656   1.646   0.038 -0.3653 -0.6545 -0.5491
 3683TIP3    H132608   6.574   1.663  -0.008  0.1684 -1.5109 -1.8532
 3683TIP3    H232609   6.718   1.620  -0.030  0.7585 -0.8930  0.5165
 3684TIP3   OH232610   0.318   1.247   0.906 -0.0596  0.5378  0.1814
 3684TIP3    H132611   0.287   1.162   0.938  0.0647  0.4123 -0.0213
 3684TIP3    H232612   0.270   1.312   0.957 -1.1743  0.3586 -0.6086
 3685TIP3   OH232613   6.202   6.263   7.582  0.7134  0.5993  0.0119
 3685TIP3    H132614   6.170   6.237   7.668  2.1970 -0.4586  0.2840
 3685TIP3    H232615   6.192   6.358   7.580  0.2879  0.5884  1.1910
 3686TIP3   OH232616   6.455   3.782   7.486 -0.3294  0.1657 -0.4164
 3686TIP3    H132617   6.425   3.866   7.520  0.4251  0.1190  0.4054
 3686TIP3    H232618   6.375   3.738   7.457 -1.1385 -0.0285  1.8504
 3687TIP3   OH232619   3.245   5.158   7.925 -0.3691 -0.1718 -0.0080
 3687TIP3    H132620   3.225   5.250   7.907  0.8569 -0.2779 -2.3029
 3687TIP3    H232621   3.332   5.160   7.963 -0.8441 -0.3215  1.1060
 3688TIP3   OH232622   4.783   1.814   0.595 -0.0479 -0.1814 -0.1171
 3688TIP3    H132623   4.719   1.826   0.665  0.2967 -1.5962  0.4652
 3688TIP3    H232624   4.847   1.753   0.631  0.9836  0.2593 -1.1264
 3689TIP3   OH232625   5.736   1.072   1.335 -0.3371 -0.2599 -0.6283
 3689TIP3    H132626   5.766   1.146   1.283  1.2743 -1.0149 -0.8188
 3689TIP3    H232627   5.812   1.014   1.342 -1.2963 -1.4802  0.2639
 3690TIP3   OH232628   1.599   2.831   1.918  0.3036 -0.4396 -0.1289
 3690TIP3    H132629   1.575   2.800   2.005 -0.2010 -0.1878 -0.1763
 3690TIP3    H232630   1.592   2.754   1.862  1.1973 -0.7398  0.1520
 3691TIP3   OH232631   0.830   1.594   8.239 -0.7069  0.1400  0.1868
 3691TIP3    H132632   0.911   1.633   8.273 -1.2282  0.1229  1.4750
 3691TIP3    H232633   0.789   1.665   8.189  0.5090 -0.1064 -1.2458
 3692TIP3   OH232634   5.930   5.847   2.335  0.1218  0.1282  0.4813
 3692TIP3    H132635   5.852   5.887   2.295 -0.5607 -0.1824  1.4587
 3692TIP3    H232636   5.956   5.778   2.274  1.0394  1.7115 -1.0099
 3693TIP3   OH232637   1.099   5.380   1.158 -0.3512 -0.3632  0.1321
 3693TIP3    H132638   1.150   5.408   1.234 -0.1692 -1.6413  0.5005
 3693TIP3    H232639   1.014   5.422   1.170 -0.1477 -0.1169  0.7552
 3694TIP3   OH232640   2.997   1.953   0.659 -0.1861 -0.1337 -0.0097
 3694TIP3    H132641   2.992   1.927   0.567  1.6584  0.2711 -0.2469
 3694TIP3    H232642   2.953   1.882   0.705 -1.2604 -0.2817 -1.1920
 3695TIP3   OH232643   4.038   6.306   0.996  0.2443  0.0386 -0.3424
 3695TIP3    H132644   4.085   6.308   1.079  1.4598 -0.0446 -1.0063
 3695TIP3    H232645   3.984   6.227   1.002  0.4860 -0.0902  0.2760
 3696TIP3   OH232646   2.464   1.595   1.560 -0.0466  0.4851  0.0324
 3696TIP3    H132647   2.391   1.563   1.613 -0.5989  0.6921 -0.5818
 3696TIP3    H232648   2.531   1.527   1.569 -0.7569 -0.2940 -0.3083
 3697TIP3   OH232649   6.319   5.909   0.476  0.2263 -0.2404  0.1349
 3697TIP3    H132650   6.324   5.822   0.515 -0.0443  0.4332  1.7847
 3697TIP3    H232651   6.367   5.902   0.394  0.0236 -1.9852  0.1378
 3698TIP3   OH232652   4.712   0.381   1.170 -0.1264 -0.1546  0.0907
 3698TIP3    H132653   4.739   0.293   1.143 -0.3230 -0.1318 -0.1810
 3698TIP3    H232654   4.629   0.396   1.124 -0.9693 -0.4991  1.4615
 3699TIP3   OH232655   3.170   4.255   0.126 -0.6871 -0.1065  0.1591
 3699TIP3    H132656   3.143   4.164   0.132 -0.4500 -0.1544  0.4967
 3699TIP3    H232657   3.265   4.252   0.124 -0.5109  0.2853  3.2963
 3700TIP3   OH232658   3.502   5.480   8.771 -0.4186 -0.1959  0.3487
 3700TIP3    H132659   3.448   5.551   8.806 -0.1145 -0.5468  1.6018
 3700TIP3    H232660   3.581   5.524   8.739  0.0942 -0.0040  1.7923
 3701TIP3   OH232661   3.710   3.546   1.598 -0.5020 -0.0333 -0.3291
 3701TIP3    H132662   3.677   3.466   1.557  1.7894 -1.5472  0.5440
 3701TIP3    H232663   3.772   3.582   1.534 -0.2575  0.0824 -0.0297
 3702TIP3   OH232664   5.986   3.190   7.693  0.0341 -0.1612 -0.3657
 3702TIP3    H132665   6.026   3.114   7.736  0.9372  0.9029  0.7298
 3702TIP3    H232666   5.893   3.168   7.689  0.0351 -0.6614  1.3953
 3703TIP3   OH232667   6.276   5.444   7.865 -0.4091 -0.4726  0.4197
 3703TIP3    H132668   6.282   5.367   7.921  1.9475  0.9550  2.3660
 3703TIP3    H232669   6.210   5.422   7.800 -1.9368 -2.9968  2.6145
 3704TIP3   OH232670   5.973   3.946   0.760 -0.4532  0.0991 -0.6105
 3704TIP3    H132671   5.993   3.916   0.849  0.1963 -0.7792 -1.0370
 3704TIP3    H232672   5.967   4.041   0.767  2.0740  0.2725 -0.0850
 3705TIP3   OH232673   3.119   1.551   8.356 -0.0286  0.7358  0.2808
 3705TIP3    H132674   3.148   1.531   8.266  0.4045  1.6568  0.2093
 3705TIP3    H232675   3.170   1.628   8.381 -0.4027  0.6926  1.1961
 3706TIP3   OH232676   4.917   2.767   1.317  0.1255  0.2462  0.1202
 3706TIP3    H132677   4.986   2.725   1.266  1.4437  1.5695  0.7281
 3706TIP3    H232678   4.938   2.745   1.408 -0.1838  0.7746  0.3212
 3707TIP3   OH232679   5.658   3.940   2.326  0.3977 -0.2874  0.1854
 3707TIP3    H132680   5.626   3.863   2.374  1.9436 -1.4393 -0.5205
 3707TIP3    H232681   5.620   4.015   2.372 -1.5915 -1.4623  0.5955
 3708TIP3   OH232682   5.190   4.979   1.836 -0.3391 -0.5875 -0.2847
 3708TIP3    H132683   5.143   4.962   1.754  1.4746 -0.8924 -1.3239
 3708TIP3    H232684   5.147   5.056   1.872 -1.7387 -0.9513 -1.0580
 3709TIP3   OH232685   1.326   5.824   7.667 -0.1486  0.1120 -0.3211
 3709TIP3    H132686   1.302   5.805   7.757 -1.6756  1.4597 -0.3886
 3709TIP3    H232687   1.314   5.741   7.621  1.0335 -0.6929  0.7552
 3710TIP3   OH232688   1.881   0.290   2.410 -0.1609  0.1710 -0.4812
 3710TIP3    H132689   1.860   0.348   2.484 -3.5882 -1.0000 -0.3484
 3710TIP3    H232690   1.952   0.335   2.364  0.0782  2.4275  1.8349
 3711TIP3   OH232691   2.824   0.463   2.597 -0.2874  0.4350 -1.2594
 3711TIP3    H132692   2.799   0.538   2.651 -1.6681 -0.6293 -0.3636
 3711TIP3    H232693   2.752   0.454   2.534 -0.6057 -0.6962 -0.7493
 3712TIP3   OH232694   2.537   5.993   2.139 -0.0345  0.2647 -0.2134
 3712TIP3    H132695   2.512   6.017   2.228 -0.2505  0.9339 -0.4433
 3712TIP3    H232696   2.471   6.034   2.084  0.6066  0.6356 -0.7305
 3713TIP3   OH232697   6.528   5.610   1.353  0.2027 -0.0826 -0.2956
 3713TIP3    H132698   6.513   5.703   1.367 -0.6983 -0.1934 -0.4363
 3713TIP3    H232699   6.521   5.571   1.440  0.5027 -0.0266 -0.2471
 3714TIP3   OH232700   3.936   1.659   1.910  0.0528 -0.1099  0.1502
 3714TIP3    H132701   3.980   1.741   1.933 -0.1158 -0.0707  0.3441
 3714TIP3    H232702   3.843   1.677   1.928  0.0934 -0.5726  0.8768
 3715TIP3   OH232703   4.244   3.563   8.468 -0.0406 -0.3869 -0.6907
 3715TIP3    H132704   4.254   3.472   8.497 -0.9382 -0.0118  0.9011
 3715TIP3    H232705   4.168   3.595   8.516  0.1341  1.1531 -1.3984
 3716TIP3   OH232706   6.038   3.401   2.785 -0.5209  0.0623  0.5737
 3716TIP3    H132707   6.134   3.403   2.793 -0.5036 -1.3729  0.9730
 3716TIP3    H232708   6.022   3.363   2.699 -0.7500  0.6920  0.3285
 3717TIP3   OH232709   3.759   2.138   2.039 -0.3573  0.4512  0.6150
 3717TIP3    H132710   3.826   2.205   2.026 -0.4162  0.2516 -0.8091
 3717TIP3    H232711   3.759   2.123   2.134 -0.3618  2.4608  0.9812
 3718TIP3   OH232712   3.121   1.239   2.369  0.4675  0.5908 -0.1752
 3718TIP3    H132713   3.187   1.301   2.401  0.0522  1.7115 -1.3927
 3718TIP3    H232714   3.124   1.167   2.431  2.3296  0.9462  0.2133
 3719TIP3   OH232715   5.752   6.334   2.277 -0.7667 -0.2811 -0.7026
 3719TIP3    H132716   5.706   6.292   2.350 -0.5756 -0.7932 -0.8753
 3719TIP3    H232717   5.821   6.273   2.254 -1.1746 -0.3780 -1.6855
 3720TIP3   OH232718   3.423   5.211   0.949  0.7748  0.6830 -0.2742
 3720TIP3    H132719   3.462   5.162   1.021  2.6350  1.6857 -0.5595
 3720TIP3    H232720   3.397   5.144   0.886  2.7660 -0.0148 -0.4091
 3721TIP3   OH232721   4.202   1.244   2.276  0.2916  0.1268  0.0275
 3721TIP3    H132722   4.276   1.268   2.221  0.4128 -0.3466 -0.0184
 3721TIP3    H232723   4.128   1.294   2.240  0.0774 -1.1715 -1.4184
 3722TIP3   OH232724   1.380   2.636   1.110 -0.0235 -0.4394  0.0946
 3722TIP3    H132725   1.463   2.651   1.065 -0.5636  0.0673 -0.7611
 3722TIP3    H232726   1.393   2.554   1.158  0.9548 -0.3796 -0.0454
 3723TIP3   OH232727   0.209   6.820   8.449 -0.2267 -0.5675  0.5924
 3723TIP3    H132728   0.224   6.860   8.363 -1.0454  0.3577  0.8553
 3723TIP3    H232729   0.294   6.786   8.475  0.0026 -0.9764 -0.6410
 3724TIP3   OH232730   3.240   5.159   8.401  0.0012 -0.4875  0.5028
 3724TIP3    H132731   3.300   5.177   8.328 -1.3981  1.0566 -0.3474
 3724TIP3    H232732   3.264   5.223   8.468 -1.7585  1.4082 -0.5542
 3725TIP3   OH232733   6.734   4.238   1.176  0.0191  0.1422 -0.0891
 3725TIP3    H132734   6.705   4.153   1.144 -1.7239  0.1143  1.4247
 3725TIP3    H232735   6.656   4.294   1.169  0.0784  0.6125  2.2846
 3726TIP3   OH232736   5.159   2.000   1.657 -0.2608  0.1074  0.0030
 3726TIP3    H132737   5.077   1.980   1.701 -0.9755  2.6807 -0.0339
 3726TIP3    H232738   5.220   2.019   1.728 -0.1120 -0.3181 -0.0093
 3727TIP3   OH232739   2.985   1.718   1.914  0.3021  0.4295 -0.5545
 3727TIP3    H132740   2.938   1.797   1.941  1.0364  0.3412  1.1281
 3727TIP3    H232741   3.076   1.735   1.938  0.3360 -1.2507  0.6470
 3728TIP3   OH232742   6.424   4.318   8.715 -0.3903  0.5457  0.2180
 3728TIP3    H132743   6.518   4.298   8.712 -0.5074 -0.0836  0.6338
 3728TIP3    H232744   6.415   4.379   8.788 -0.3406  0.4046  0.3415
 3729TIP3   OH232745   5.839   4.824   7.175 -0.0670 -0.1674 -0.9097
 3729TIP3    H132746   5.866   4.916   7.173  0.3626 -0.2938 -1.1765
 3729TIP3    H232747   5.829   4.804   7.268 -0.3007  0.1879 -0.8563
 3730TIP3   OH232748   1.523   2.407   2.224 -0.3217  0.0723 -0.7625
 3730TIP3    H132749   1.502   2.479   2.283 -2.7458 -1.0353 -0.1199
 3730TIP3    H232750   1.596   2.438   2.172  0.5333  1.9108  1.3867
 3731TIP3   OH232751   3.311   3.619   0.019  0.5952  0.3109  0.2758
 3731TIP3    H132752   3.375   3.653   0.081  1.3476  0.0386 -0.3419
 3731TIP3    H232753   3.288   3.533   0.053 -0.7327  1.0631  1.4168
 3732TIP3   OH232754   0.598   2.821   0.819 -0.2212  0.4712  0.6923
 3732TIP3    H132755   0.688   2.846   0.797 -0.2136 -0.4801 -0.4660
 3732TIP3    H232756   0.544   2.862   0.751 -0.2290 -2.2512 -1.1109
 3733TIP3   OH232757   2.393   5.568   7.055  0.4464 -0.0578 -0.0889
 3733TIP3    H132758   2.300   5.567   7.078 -0.0638  2.1765 -1.6766
 3733TIP3    H232759   2.394   5.565   6.959  2.0255  0.0080 -0.1021
 3734TIP3   OH232760   6.543   5.988   7.373 -0.2245  0.2503 -0.2047
 3734TIP3    H132761   6.517   5.996   7.281  0.3515 -0.6797 -0.4537
 3734TIP3    H232762   6.606   6.059   7.386 -0.9147  0.8960 -0.2932
 3735TIP3   OH232763   6.637   1.595   8.514 -0.0576  0.0388  0.3138
 3735TIP3    H132764   6.636   1.661   8.444 -1.5709 -0.8315 -0.5208
 3735TIP3    H232765   6.717   1.545   8.499  0.5945  1.0395  0.3598
 3736TIP3   OH232766   1.251   3.112   7.648  0.1126 -0.5060 -0.5399
 3736TIP3    H132767   1.335   3.146   7.616  0.5118  0.1699  1.0829
 3736TIP3    H232768   1.252   3.132   7.742 -1.6440 -0.9716 -0.3877
 3737TIP3   OH232769   2.433   5.280   0.385  0.7093  0.0987 -0.0427
 3737TIP3    H132770   2.494   5.350   0.362  1.4400 -0.3684  0.4228
 3737TIP3    H232771   2.421   5.288   0.480  0.6469 -0.2838 -0.0168
 3738TIP3   OH232772   1.833   3.516   1.651 -0.4947 -0.0120 -0.0149
 3738TIP3    H132773   1.857   3.442   1.707 -1.7773  0.8624  1.7301
 3738TIP3    H232774   1.834   3.592   1.708 -1.6048  0.9610 -1.2237
 3739TIP3   OH232775   1.969   2.518   8.288  0.3477  0.3941 -0.1728
 3739TIP3    H132776   2.056   2.477   8.289 -0.3294 -1.1277 -0.8470
 3739TIP3    H232777   1.924   2.480   8.363  0.3169  1.3756  0.3272
 3740TIP3   OH232778   1.055   0.058   8.372 -0.1832  0.0493  0.9042
 3740TIP3    H132779   0.979   0.032   8.320  1.9484 -0.7831 -2.0305
 3740TIP3    H232780   1.073  -0.017   8.428  1.0408 -1.6815 -1.6291
 3741TIP3   OH232781   0.314   2.554   3.133 -0.3721  0.0722  0.1032
 3741TIP3    H132782   0.395   2.590   3.167 -0.4145  2.2006 -1.7989
 3741TIP3    H232783   0.338   2.469   3.098  0.8090  0.2472  0.4601
 3742TIP3   OH232784   5.790   0.460   6.482  0.2563  0.4783 -0.4258
 3742TIP3    H132785   5.783   0.420   6.568  2.4830 -0.3996 -0.5930
 3742TIP3    H232786   5.719   0.421   6.431  0.9098 -1.5272  0.1092
 3743TIP3   OH232787   3.281   2.250   1.458 -0.4872  0.1908  0.1155
 3743TIP3    H132788   3.230   2.330   1.475  1.4980  1.4066  0.6867
 3743TIP3    H232789   3.362   2.282   1.419  0.0644 -1.6341 -0.2944
 3744TIP3   OH232790   0.529   6.477   0.374  0.3153 -0.3348 -0.1449
 3744TIP3    H132791   0.505   6.561   0.335 -0.2575  1.2398  3.2330
 3744TIP3    H232792   0.615   6.492   0.414  0.3282 -1.4440  0.2886
 3745TIP3   OH232793   4.149   4.317   8.013  0.3826 -0.5894  0.0284
 3745TIP3    H132794   4.090   4.306   7.938  0.6961 -0.6877 -0.2068
 3745TIP3    H232795   4.157   4.412   8.024  0.3222 -0.5758 -0.0478
 3746TIP3   OH232796   5.814   4.119   1.748  0.5106 -0.5983 -0.4081
 3746TIP3    H132797   5.827   4.123   1.843 -2.0633 -0.9226  0.0445
 3746TIP3    H232798   5.815   4.025   1.728  1.1602 -0.5240 -0.7241
 3747TIP3   OH232799   4.429   6.680   2.569  0.0594  0.0023  0.3431
 3747TIP3    H132800   4.437   6.594   2.611 -0.7138 -0.8115 -1.1044
 3747TIP3    H232801   4.518   6.716   2.569  0.1102  0.0291  2.5810
 3748TIP3   OH232802   2.851   1.411   8.261  0.0832  0.4086 -0.3020
 3748TIP3    H132803   2.934   1.365   8.253 -0.1854 -0.0955 -0.2168
 3748TIP3    H232804   2.830   1.440   8.172 -1.0308 -1.9001 -0.8547
 3749TIP3   OH232805   3.668   2.145   8.082  0.1059 -0.0830 -0.0646
 3749TIP3    H132806   3.631   2.211   8.023 -1.1207 -1.5081 -0.9745
 3749TIP3    H232807   3.614   2.149   8.161  0.2295  0.2158  0.0034
 3750TIP3   OH232808   0.450   6.798   0.607 -0.1423 -0.3184 -0.2495
 3750TIP3    H132809   0.497   6.879   0.622  0.0770 -0.3939 -0.5200
 3750TIP3    H232810   0.514   6.729   0.623 -0.3177 -0.4394 -0.0512
 3751TIP3   OH232811   3.480   2.426   1.366 -0.0466  0.0476  0.6548
 3751TIP3    H132812   3.566   2.387   1.352 -0.1271 -0.5880  1.8022
 3751TIP3    H232813   3.484   2.511   1.321  0.6052 -0.6680 -0.6976
 3752TIP3   OH232814   3.989   0.710   2.616 -0.3320 -0.6663 -0.4150
 3752TIP3    H132815   3.978   0.630   2.666  0.0715 -0.9051 -0.7035
 3752TIP3    H232816   4.062   0.692   2.557  0.2543  0.1623  0.0298
 3753TIP3   OH232817   4.375   2.588   1.628  0.7762 -0.1811 -0.3591
 3753TIP3    H132818   4.384   2.493   1.639  0.6863 -0.1621 -0.1076
 3753TIP3    H232819   4.295   2.610   1.676  1.3490  0.1662  0.4691
 3754TIP3   OH232820   6.200   0.547   8.093  0.3285 -0.4871  0.0860
 3754TIP3    H132821   6.199   0.457   8.125  0.3730 -0.4508  0.1916
 3754TIP3    H232822   6.207   0.539   7.998 -0.3802 -0.6007  0.0418
 3755TIP3   OH232823   1.682   2.856   8.520 -0.3478  0.5678  0.1660
 3755TIP3    H132824   1.718   2.929   8.571 -1.4222  0.8435  0.5532
 3755TIP3    H232825   1.745   2.843   8.449  1.3693 -0.0361  1.7068
 3756TIP3   OH232826   1.990   2.723   1.905 -0.0195 -0.2391 -0.2017
 3756TIP3    H132827   1.940   2.677   1.972 -0.8061 -0.4047 -0.8841
 3756TIP3    H232828   1.956   2.689   1.822  1.3528 -0.4708 -0.6896
 3757TIP3   OH232829   5.168   6.498   6.377  1.4099 -0.3114  0.2869
 3757TIP3    H132830   5.233   6.481   6.308  1.6243 -0.5877  0.5579
 3757TIP3    H232831   5.192   6.439   6.448  1.1144 -0.1105  0.5543
 3758TIP3   OH232832   3.515   1.363   0.517  0.3604  0.4608 -0.2937
 3758TIP3    H132833   3.459   1.402   0.584 -0.1210  0.0141 -0.4343
 3758TIP3    H232834   3.455   1.330   0.451  0.4545 -3.1493  1.1412
 3759TIP3   OH232835   0.993   0.214   6.560  0.0999 -0.2352  0.4422
 3759TIP3    H132836   1.013   0.179   6.647 -2.5893 -0.1189  1.1962
 3759TIP3    H232837   0.913   0.169   6.534  0.8927 -0.3598 -2.0856
 3760TIP3   OH232838   3.615   5.809   8.409  0.8031 -0.3448  0.5170
 3760TIP3    H132839   3.526   5.775   8.415  1.1221 -0.9758  2.4803
 3760TIP3    H232840   3.625   5.865   8.486  1.2872  1.9095 -1.0817
 3761TIP3   OH232841   1.189   1.034   0.999 -0.1294  0.5162  0.1114
 3761TIP3    H132842   1.220   0.950   0.965  0.5854  1.0843 -0.6637
 3761TIP3    H232843   1.106   1.012   1.043  0.8749 -0.8861  1.4392
 3762TIP3   OH232844   6.044   2.089   1.508  0.8498 -0.3769 -0.1058
 3762TIP3    H132845   6.052   2.119   1.417  0.2433  0.7632  0.2026
 3762TIP3    H232846   6.063   2.167   1.561  3.3793 -1.5033  0.8280
 3763TIP3   OH232847   4.345   5.124   0.289  0.0581 -0.1932 -0.4070
 3763TIP3    H132848   4.436   5.110   0.313 -0.0550  0.7608  0.6588
 3763TIP3    H232849   4.342   5.109   0.194  0.8276 -2.5276 -0.1075
 3764TIP3   OH232850   5.886   4.688   6.916 -0.4344 -0.2929 -0.3444
 3764TIP3    H132851   5.952   4.695   6.847  0.6701 -1.8282  0.4681
 3764TIP3    H232852   5.892   4.596   6.945 -3.3553 -0.6647 -0.6158
 3765TIP3   OH232853   3.599   4.521   2.448  0.9850 -0.3585 -0.2051
 3765TIP3    H132854   3.556   4.445   2.486 -1.0095  0.2327 -1.1139
 3765TIP3    H232855   3.622   4.576   2.523  1.3863 -1.3001  0.3758
 3766TIP3   OH232856   3.815   0.626   1.770 -0.8274 -0.6690 -0.1808
 3766TIP3    H132857   3.801   0.690   1.700  1.6641  0.6789  0.4058
 3766TIP3    H232858   3.883   0.568   1.736 -2.4191 -2.5157 -0.3463
 3767TIP3   OH232859   4.797   4.968   6.673 -0.0373  0.7037  0.5796
 3767TIP3    H132860   4.727   4.923   6.626  1.1896 -0.8809  0.1784
 3767TIP3    H232861   4.826   4.905   6.739  1.2732  1.1829  0.4802
 3768TIP3   OH232862   0.421   2.091   1.469  0.2306  0.5219  0.4651
 3768TIP3    H132863   0.440   2.059   1.381 -2.9690 -0.7345  0.1213
 3768TIP3    H232864   0.388   2.179   1.457 -0.0318  0.4179  0.4184
 3769TIP3   OH232865   1.433   4.233   7.731 -0.0485  0.2534  0.0549
 3769TIP3    H132866   1.482   4.302   7.774  1.9375 -0.2402 -1.2957
 3769TIP3    H232867   1.425   4.261   7.640 -0.8460 -0.4313 -0.1022
 3770TIP3   OH232868   5.897   0.651   1.103  0.3921  0.3769 -0.2941
 3770TIP3    H132869   5.904   0.718   1.035 -0.6577 -0.4525 -1.2509
 3770TIP3    H232870   5.821   0.679   1.155  0.5187  0.4119 -0.1261
 3771TIP3   OH232871   5.549   0.073   1.749 -0.2096 -0.1621  0.0061
 3771TIP3    H132872   5.553  -0.020   1.771  0.3021 -0.1790 -0.1446
 3771TIP3    H232873   5.460   0.099   1.770 -0.7183 -0.9660 -1.0553
 3772TIP3   OH232874   6.588   0.088   1.305  0.1865  0.2820 -0.0533
 3772TIP3    H132875   6.516   0.040   1.347 -1.0259  2.9438  1.1547
 3772TIP3    H232876   6.610   0.157   1.367  2.6378  0.6248 -1.1933
 3773TIP3   OH232877   1.329   4.915   8.194 -0.1110 -0.1589  0.2250
 3773TIP3    H132878   1.389   4.946   8.262 -1.2074  1.9062  0.3452
 3773TIP3    H232879   1.243   4.913   8.237 -0.6674  0.2755 -0.8392
 3774TIP3   OH232880   4.355   0.262   8.182  0.4025  0.5163 -0.4881
 3774TIP3    H132881   4.266   0.270   8.217  0.4929  1.5101 -0.4487
 3774TIP3    H232882   4.394   0.191   8.233 -0.0863  0.6548  0.0986
 3775TIP3   OH232883   6.117   2.443   7.252  0.2462 -0.0014  0.3063
 3775TIP3    H132884   6.054   2.515   7.253  0.4568  0.1852  0.5724
 3775TIP3    H232885   6.132   2.425   7.159  0.9081  0.9399  0.2124
 3776TIP3   OH232886   1.848   0.170   2.155  0.2217 -0.2080 -0.1175
 3776TIP3    H132887   1.939   0.149   2.137  0.5558  0.9051  0.1614
 3776TIP3    H232888   1.844   0.180   2.251 -0.6880 -2.3346  0.1293
 3777TIP3   OH232889   4.980   1.367   8.545 -0.5899  0.2522 -0.1951
 3777TIP3    H132890   4.940   1.288   8.582  0.5572 -0.1858  0.1472
 3777TIP3    H232891   4.911   1.405   8.490 -1.6765 -0.1391  0.8409
 3778TIP3   OH232892   2.623   2.131   0.068  0.3364  0.1419  0.3993
 3778TIP3    H132893   2.545   2.103   0.020  0.5086  1.5925 -0.7876
 3778TIP3    H232894   2.694   2.122   0.005  0.7268  1.1536  0.6773
 3779TIP3   OH232895   4.052   6.465   7.527  0.1923 -0.1798 -0.2758
 3779TIP3    H132896   4.048   6.374   7.498 -0.6062 -0.1243 -0.3539
 3779TIP3    H232897   4.145   6.486   7.528  0.4458 -1.3230  0.7837
 3780TIP3   OH232898   1.824   4.717   1.836  0.0426  0.0420 -0.1285
 3780TIP3    H132899   1.800   4.680   1.751  0.0740  0.4788 -0.3289
 3780TIP3    H232900   1.762   4.788   1.850  1.1375  1.1193 -0.6053
 3781TIP3   OH232901   1.449   2.402   8.186 -0.0276 -0.3439 -0.1553
 3781TIP3    H132902   1.539   2.430   8.169  0.1676 -0.4253  0.7041
 3781TIP3    H232903   1.443   2.315   8.147  0.4194 -0.5503  0.2325
 3782TIP3   OH232904   2.644   6.256   8.768 -0.3483 -0.0661  0.5232
 3782TIP3    H132905   2.597   6.283   8.689 -0.1909  0.5241  0.6241
 3782TIP3    H232906   2.688   6.336   8.798 -0.1877 -0.3503  1.0549
 3783TIP3   OH232907   1.568   4.135   2.389  0.1415 -0.1110 -0.1094
 3783TIP3    H132908   1.556   4.041   2.397 -0.9146  0.0364  0.2052
 3783TIP3    H232909   1.479   4.171   2.388  0.4982  1.1365  2.7297
 3784TIP3   OH232910   5.521   0.648   1.041 -0.5367 -0.2891 -0.2042
 3784TIP3    H132911   5.486   0.736   1.056  1.6363  0.8489 -1.4763
 3784TIP3    H232912   5.554   0.621   1.127  0.8342  1.1207 -0.2501
 3785TIP3   OH232913   3.130   1.458   1.386  0.1145 -0.1906 -1.0971
 3785TIP3    H132914   3.139   1.476   1.479 -0.9943 -0.5649 -0.9035
 3785TIP3    H232915   3.213   1.487   1.348  0.2804  0.7040 -0.1094
 3786TIP3   OH232916   3.254   6.114   1.411 -0.5498 -0.2844 -0.0917
 3786TIP3    H132917   3.320   6.150   1.471  0.1618 -0.9705 -0.4452
 3786TIP3    H232918   3.289   6.131   1.324 -1.6721  0.8766 -0.3563
 3787TIP3   OH232919   6.815   1.018   1.704  0.2665  0.0830  1.2812
 3787TIP3    H132920   6.861   0.975   1.776  1.2917 -0.8647  0.1002
 3787TIP3    H232921   6.723   0.993   1.716  0.7356 -1.9826  1.0006
 3788TIP3   OH232922   1.369   3.080   0.730 -0.0914  0.0128  0.0622
 3788TIP3    H132923   1.334   3.091   0.819 -0.0600 -0.4464  0.1327
 3788TIP3    H232924   1.292   3.086   0.673  0.1959  3.6953 -0.2060
 3789TIP3   OH232925   3.401   3.994   0.289 -0.6987  0.1751 -0.9675
 3789TIP3    H132926   3.357   3.932   0.347 -0.2128  1.3882  0.7751
 3789TIP3    H232927   3.426   4.067   0.346  0.9214  0.8703 -2.4583
 3790TIP3   OH232928   0.594   6.051   1.967 -0.4551  0.0977  0.3810
 3790TIP3    H132929   0.532   5.996   2.014 -1.4271  1.6311  0.9645
 3790TIP3    H232930   0.668   6.059   2.028  0.8362 -2.4913 -0.6843
 3791TIP3   OH232931   4.753   6.126   7.988 -0.1038  0.0603 -0.4427
 3791TIP3    H132932   4.739   6.144   7.896 -0.3281 -0.1680 -0.4548
 3791TIP3    H232933   4.674   6.081   8.016 -0.9624  1.9757  0.3682
 3792TIP3   OH232934   4.007   0.799   2.319  0.2465 -0.2984  0.4387
 3792TIP3    H132935   3.964   0.820   2.402  0.6235 -0.4929  0.6861
 3792TIP3    H232936   4.007   0.704   2.315 -2.1243 -0.3146 -1.0353
 3793TIP3   OH232937   5.595   0.955   0.471 -0.0914  0.5595  0.3109
 3793TIP3    H132938   5.578   1.049   0.478 -0.8404  0.4561 -0.0047
 3793TIP3    H232939   5.546   0.916   0.543 -1.2386  0.2595 -0.5919
 3794TIP3   OH232940   6.121   2.637   0.820 -0.4257 -0.3514 -0.3376
 3794TIP3    H132941   6.049   2.576   0.802 -1.0805  0.3587 -0.1662
 3794TIP3    H232942   6.179   2.628   0.744 -2.1831  1.1882 -1.9813
 3795TIP3   OH232943   1.097   2.961   0.086 -0.0638 -0.4537 -0.0079
 3795TIP3    H132944   1.018   2.954   0.139 -1.8509 -0.5442 -2.4957
 3795TIP3    H232945   1.108   2.874   0.047 -0.4923  0.3035 -1.9356
 3796TIP3   OH232946   2.374   0.020   0.091  0.1117  0.0430  0.2400
 3796TIP3    H132947   2.364   0.109   0.059  0.6517 -0.1899 -0.6243
 3796TIP3    H232948   2.448   0.024   0.152  1.0716 -0.0544 -0.8744
 3797TIP3   OH232949   0.903   6.661   7.574 -0.3273 -0.2477 -0.0760
 3797TIP3    H132950   0.847   6.688   7.501 -0.1006  2.6453  0.7094
 3797TIP3    H232951   0.987   6.639   7.533 -0.3999  0.7253 -0.7695
 3798TIP3   OH232952   4.108   0.494   0.287 -0.2700  0.3394  0.4615
 3798TIP3    H132953   4.084   0.582   0.257 -2.5141  0.1547  1.5385
 3798TIP3    H232954   4.103   0.440   0.209 -1.7513  0.6561  0.3084
 3799TIP3   OH232955   5.743   5.795   7.817 -0.1153 -0.2949  0.2287
 3799TIP3    H132956   5.709   5.884   7.805 -1.3375 -0.9864 -2.0317
 3799TIP3    H232957   5.696   5.761   7.894 -0.7899  0.4848  0.1714
 3800TIP3   OH232958   2.009   4.129   1.601  0.0089 -0.9596 -0.5258
 3800TIP3    H132959   2.026   4.188   1.528 -1.6120 -0.0577 -0.2268
 3800TIP3    H232960   2.095   4.099   1.629  0.7152 -0.5251 -2.1466
 3801TIP3   OH232961   4.854   6.322   0.038 -0.1029 -0.0273 -0.3165
 3801TIP3    H132962   4.854   6.317  -0.058 -3.2506 -1.7909 -0.3570
 3801TIP3    H232963   4.847   6.415   0.057  2.1996  0.5137 -1.6693
 3802TIP3   OH232964   3.986   3.546   0.497  0.1837  0.2269  0.8988
 3802TIP3    H132965   4.054   3.512   0.438 -1.4420  0.1547 -1.0371
 3802TIP3    H232966   3.906   3.545   0.445 -0.7450  3.2762  2.0740
 3803TIP3   OH232967   0.574   6.653   7.533 -0.0914 -0.4678 -0.3886
 3803TIP3    H132968   0.542   6.724   7.589  0.5850 -0.0789 -0.4955
 3803TIP3    H232969   0.561   6.685   7.444  0.9299 -0.1472 -0.4340
 3804TIP3   OH232970   4.941   5.319   1.002  0.4310 -0.0757 -0.1138
 3804TIP3    H132971   4.949   5.405   0.959 -2.4344  0.8982  1.0552
 3804TIP3    H232972   5.031   5.291   1.016  1.4886  1.4814 -2.8998
 3805TIP3   OH232973   2.031   6.458   2.450  0.3092  0.3235  0.1576
 3805TIP3    H132974   2.109   6.504   2.483  0.1522  0.9812 -0.3761
 3805TIP3    H232975   2.067   6.388   2.395  0.5397  0.2064  0.4558
 3806TIP3   OH232976   0.868   5.477   7.197 -0.0614 -0.3939 -0.3032
 3806TIP3    H132977   0.897   5.397   7.242 -0.6782 -0.5202 -0.1171
 3806TIP3    H232978   0.927   5.485   7.123 -1.0083 -1.9565 -1.2798
 3807TIP3   OH232979   5.464   6.428   1.127  0.4174  0.3803 -0.4004
 3807TIP3    H132980   5.547   6.454   1.167 -0.0250 -0.1310  0.8868
 3807TIP3    H232981   5.445   6.342   1.163 -0.6521  0.4676 -0.7103
 3808TIP3   OH232982   0.974   1.226   1.986 -0.4001 -0.3854 -0.2753
 3808TIP3    H132983   0.960   1.306   2.037  0.1341 -0.3479 -0.1828
 3808TIP3    H232984   0.898   1.220   1.929  0.5551  1.3739 -1.8557
 3809TIP3   OH232985   0.589   1.518   8.074  0.2849 -0.4383 -0.0653
 3809TIP3    H132986   0.576   1.580   8.146 -0.2293 -0.6234  0.0061
 3809TIP3    H232987   0.550   1.437   8.105  2.3215 -1.2685  0.4653
 3810TIP3   OH232988   0.939   6.479   0.307  0.1193  0.4276 -0.6572
 3810TIP3    H132989   0.936   6.508   0.216  1.0594  1.3885 -0.4001
 3810TIP3    H232990   1.027   6.442   0.318 -0.6334 -1.4598 -0.6330
 3811TIP3   OH232991   5.933   4.876   1.346  0.4535 -0.3960  0.1697
 3811TIP3    H132992   5.884   4.940   1.397  3.1786  1.7174  0.3717
 3811TIP3    H232993   6.008   4.854   1.401  0.9067 -1.8561 -0.9653
 3812TIP3   OH232994   3.776   5.939   7.657  0.4984 -0.2284  0.2884
 3812TIP3    H132995   3.780   5.864   7.598 -0.6510  0.0119 -0.1229
 3812TIP3    H232996   3.819   5.909   7.737  0.5418 -1.1350 -0.0674
 3813TIP3   OH232997   1.139   1.796   0.864 -0.2281  0.1231 -0.8800
 3813TIP3    H132998   1.150   1.718   0.810 -1.3355 -0.3290 -0.4834
 3813TIP3    H232999   1.046   1.795   0.890  0.6066 -0.8109  2.6990
 3814TIP3   OH233000   4.637   0.009   0.359 -0.2316 -0.4164 -0.0979
 3814TIP3    H133001   4.595   0.094   0.367  0.6124 -0.0503  0.5329
 3814TIP3    H233002   4.564  -0.054   0.359 -1.0234  0.3813 -2.6596
 3815TIP3   OH233003   4.510   5.129   1.823 -0.2045  0.4025 -0.4569
 3815TIP3    H133004   4.424   5.105   1.790 -0.2725 -0.8964  0.5796
 3815TIP3    H233005   4.510   5.100   1.914  1.7291 -0.7011 -0.7648
 3816TIP3   OH233006   2.626   5.518   7.192 -0.1218  0.0992  0.1119
 3816TIP3    H133007   2.553   5.532   7.131  0.3965 -1.0001 -0.7900
 3816TIP3    H233008   2.678   5.449   7.152  0.8650  0.1470  1.2573
 3817TIP3   OH233009   6.388   0.776   7.117  0.2775 -0.6727 -0.0911
 3817TIP3    H133010   6.334   0.842   7.073 -0.2158 -0.0925  1.3263
 3817TIP3    H233011   6.337   0.695   7.110  1.1409 -1.1024 -2.3360
 3818TIP3   OH233012   3.063   4.598   2.978  0.4514 -0.0840  0.4741
 3818TIP3    H133013   2.998   4.668   2.968  0.1547 -0.1985  1.4550
 3818TIP3    H233014   3.140   4.642   3.013  0.8953  0.0392 -0.6270
 3819TIP3   OH233015   0.959   4.232   7.981 -0.3865  0.2316  0.0069
 3819TIP3    H133016   1.040   4.273   8.014 -0.4160  0.1643  0.1643
 3819TIP3    H233017   0.973   4.225   7.887  0.6755 -1.7282  0.2613
 3820TIP3   OH233018   3.383   5.653   6.912 -0.4444 -0.0766  0.2056
 3820TIP3    H133019   3.427   5.626   6.831 -1.1455 -2.5090  0.5509
 3820TIP3    H233020   3.296   5.681   6.884 -0.1477  0.6239 -0.0322
 3821TIP3   OH233021   2.050   1.233   1.253 -0.6898 -0.5558  0.0205
 3821TIP3    H133022   2.041   1.286   1.333  1.0279 -1.4339  0.8557
 3821TIP3    H233023   2.092   1.291   1.191 -0.8684 -0.2623  0.1679
 3822TIP3   OH233024   6.695   0.780   0.117  0.1261 -0.1800 -0.2684
 3822TIP3    H133025   6.729   0.834   0.047 -0.1519  0.6474  0.2139
 3822TIP3    H233026   6.600   0.787   0.108  0.0851  0.1489  0.3335
 3823TIP3   OH233027   0.949   6.322   7.496  0.3489  0.0911  0.0731
 3823TIP3    H133028   1.023   6.383   7.504  0.9232 -0.8328  2.8054
 3823TIP3    H233029   0.985   6.247   7.448  1.4559 -0.6215  1.9171
 3824TIP3   OH233030   4.561   3.715   0.234  0.6396  0.0269  0.8382
 3824TIP3    H133031   4.654   3.740   0.241  1.0275 -1.1077  0.0014
 3824TIP3    H233032   4.562   3.620   0.224 -0.4853  0.1698 -1.1669
 3825TIP3   OH233033   4.435   6.383   7.580 -0.1114 -0.8451 -0.0842
 3825TIP3    H133034   4.458   6.424   7.664  0.1668 -1.1943  0.0112
 3825TIP3    H233035   4.402   6.456   7.527 -1.7523 -0.8613  0.8341
 3826TIP3   OH233036   5.773   5.802   0.273 -0.3556 -0.3032  0.6473
 3826TIP3    H133037   5.835   5.730   0.261 -0.9600 -0.9629  1.4110
 3826TIP3    H233038   5.730   5.811   0.188  1.6160  0.9883 -0.2842
 3827TIP3   OH233039   0.509   2.456   0.535  0.0476 -0.1764  0.2370
 3827TIP3    H133040   0.598   2.485   0.556  0.8496 -3.0997  1.4462
 3827TIP3    H233041   0.456   2.491   0.607  0.2589  1.2292 -0.2615
 3828TIP3   OH233042   4.494   6.310   0.363 -0.1677  0.5614  0.0293
 3828TIP3    H133043   4.588   6.298   0.347 -0.1929  1.3814 -0.8267
 3828TIP3    H233044   4.460   6.347   0.281 -1.4608 -0.7493 -0.0709
 3829TIP3   OH233045   3.511   6.429   1.718 -0.1213  0.0178  0.0812
 3829TIP3    H133046   3.507   6.521   1.694  0.6483  0.3281  1.0455
 3829TIP3    H233047   3.502   6.429   1.814 -2.4696 -1.1005 -0.0711
 3830TIP3   OH233048   2.494   1.985   8.604 -0.2862 -0.2995  0.1404
 3830TIP3    H133049   2.496   1.997   8.509  0.5252 -0.3521  0.1487
 3830TIP3    H233050   2.409   2.021   8.630  0.6052  2.2733 -0.2609
 3831TIP3   OH233051   5.062   6.368   2.010  0.3965  0.2301 -0.1241
 3831TIP3    H133052   5.133   6.357   2.074 -2.0169 -3.0454  2.2961
 3831TIP3    H233053   4.984   6.381   2.063 -1.3991 -0.0872 -2.5366
 3832TIP3   OH233054   5.975   4.887   8.057  0.2258 -0.3438 -0.0865
 3832TIP3    H133055   6.014   4.805   8.026  0.2255 -0.1970 -0.4780
 3832TIP3    H233056   6.043   4.926   8.112  0.4284 -0.3479 -0.3335
 3833TIP3   OH233057   0.682   4.534   1.502  0.3690 -0.8615 -0.4263
 3833TIP3    H133058   0.593   4.567   1.496 -0.3907 -2.6429  0.3040
 3833TIP3    H233059   0.731   4.583   1.435 -0.6887  1.4589  0.3957
 3834TIP3   OH233060   3.841   5.032   1.159 -0.2854  0.3631  0.4642
 3834TIP3    H133061   3.898   5.029   1.083  0.0715 -2.3068  0.7200
 3834TIP3    H233062   3.818   5.124   1.169  2.7471  1.3429 -0.5550
 3835TIP3   OH233063   6.515   0.656   0.727 -0.2677 -0.5091 -0.1919
 3835TIP3    H133064   6.499   0.750   0.714  0.2909 -0.7416 -3.6600
 3835TIP3    H233065   6.437   0.614   0.689 -0.4584 -1.4830  1.2223
 3836TIP3   OH233066   5.311   0.699   0.824  0.4198  0.2308  0.2615
 3836TIP3    H133067   5.239   0.636   0.822  0.1296  0.5484 -2.1055
 3836TIP3    H233068   5.329   0.712   0.917 -1.3735 -1.2168  0.8684
 3837TIP3   OH233069   3.684   6.127   1.931 -1.0021  0.7492 -0.3263
 3837TIP3    H133070   3.652   6.192   1.994 -0.2861  0.9936 -0.2094
 3837TIP3    H233071   3.765   6.094   1.970 -1.1811  0.0281 -0.5496
 3838TIP3   OH233072   1.894   2.553   7.578  0.0417 -0.2977 -0.4826
 3838TIP3    H133073   1.884   2.584   7.668 -0.6572  1.8446 -1.2452
 3838TIP3    H233074   1.979   2.586   7.551  0.2305 -0.8985 -0.6319
 3839TIP3   OH233075   3.528   1.607   8.078 -0.3476 -0.1774  0.5517
 3839TIP3    H133076   3.574   1.545   8.022  0.0578 -0.0853  0.7763
 3839TIP3    H233077   3.525   1.565   8.164 -0.1685  0.0584  0.6771
 3840TIP3   OH233078   5.693   2.545   8.169 -0.0596 -0.0940 -0.7141
 3840TIP3    H133079   5.773   2.594   8.188 -0.6419  0.4039  0.5842
 3840TIP3    H233080   5.671   2.569   8.079  0.9203  0.2216 -0.8818
 3841TIP3   OH233081   4.386   3.831   7.714  0.0929 -0.1728  0.3927
 3841TIP3    H133082   4.404   3.863   7.802  0.3989  0.8856 -0.0310
 3841TIP3    H233083   4.300   3.867   7.693 -0.4552 -1.3163  0.6560
 3842TIP3   OH233084   4.848   6.634   1.872  0.1842  0.5650 -0.0491
 3842TIP3    H133085   4.791   6.616   1.797 -0.5760 -0.3620  0.7259
 3842TIP3    H233086   4.834   6.560   1.931  2.7167 -0.0685 -0.1158
 3843TIP3   OH233087   0.172   0.302   0.604 -0.1024 -0.0636  0.0470
 3843TIP3    H133088   0.194   0.372   0.542 -0.5614  2.0676  2.1506
 3843TIP3    H233089   0.176   0.222   0.552 -0.1552  1.5571 -2.6363
 3844TIP3   OH233090   2.109   5.361   0.924  0.2737 -0.0704  0.0527
 3844TIP3    H133091   2.154   5.345   0.841 -1.3687  0.3839 -0.9690
 3844TIP3    H233092   2.112   5.457   0.934 -0.8300  0.0023 -0.2564
 3845TIP3   OH233093   2.235   5.965   8.494  0.2978 -0.0821 -0.1412
 3845TIP3    H133094   2.141   5.945   8.496  0.3999 -0.7487 -1.2546
 3845TIP3    H233095   2.276   5.893   8.541  0.3596 -0.6000 -0.9625
 3846TIP3   OH233096   4.640   2.876   2.264  0.5434 -0.4715  0.0263
 3846TIP3    H133097   4.561   2.885   2.316  0.0708 -0.9841 -0.5952
 3846TIP3    H233098   4.613   2.828   2.185  1.1074  0.8400 -1.0017
 3847TIP3   OH233099   0.856   5.852   7.759  0.6985 -0.0001  0.8112
 3847TIP3    H133100   0.887   5.762   7.760 -0.8306 -0.7004 -2.8371
 3847TIP3    H233101   0.930   5.902   7.724  0.8726 -0.1286  0.9920
 3848TIP3   OH233102   2.034   3.468   1.081  0.2273  0.6136 -0.5193
 3848TIP3    H133103   2.060   3.453   0.990 -0.8065 -0.0792 -0.7213
 3848TIP3    H233104   1.955   3.416   1.092  0.0097  1.1518  0.6167
 3849TIP3   OH233105   4.007   6.807   1.449  0.4167  0.1002 -0.6463
 3849TIP3    H133106   3.983   6.715   1.435  1.0610 -0.2408  0.3808
 3849TIP3    H233107   3.975   6.828   1.537  0.0490  0.9405 -0.9697
 3850TIP3   OH233108   4.349   5.261   7.030 -0.5701 -0.3836 -0.1716
 3850TIP3    H133109   4.424   5.263   6.971  0.7398 -2.9182  1.2567
 3850TIP3    H233110   4.313   5.173   7.020 -2.1606  0.1342  0.6514
 3851TIP3   OH233111   3.654   1.361   1.799  0.0597  0.4829 -0.3540
 3851TIP3    H133112   3.609   1.409   1.869 -0.4545  0.5842 -0.7432
 3851TIP3    H233113   3.673   1.275   1.837 -0.1927  0.5452 -0.0784
 3852TIP3   OH233114   3.486   1.095   7.776 -0.0238 -0.2753 -0.4157
 3852TIP3    H133115   3.527   1.104   7.862 -0.1452 -0.2006 -0.3658
 3852TIP3    H233116   3.560   1.081   7.716  0.0013 -1.4302 -0.1544
 3853TIP3   OH233117   4.206   3.242   1.420 -0.0295  0.2323 -0.1748
 3853TIP3    H133118   4.158   3.306   1.368  0.9424  0.3189 -1.0007
 3853TIP3    H233119   4.298   3.261   1.403  0.2853 -1.4853 -0.5769
 3854TIP3   OH233120   2.710   5.503   7.625 -0.2156 -0.2161 -0.3882
 3854TIP3    H133121   2.649   5.431   7.644 -0.4078  0.2157  0.6712
 3854TIP3    H233122   2.717   5.551   7.707  1.1571  0.0496 -0.6381
 3855TIP3   OH233123   6.214   3.021   2.067  0.6249 -0.6402  0.0411
 3855TIP3    H133124   6.159   2.953   2.105 -0.7251 -0.6485 -1.7909
 3855TIP3    H233125   6.211   3.093   2.130 -2.2204 -0.3209 -0.3357
 3856TIP3   OH233126   1.945   4.475   0.008  0.2933 -0.0825  0.6044
 3856TIP3    H133127   1.886   4.423   0.063 -0.1258  0.0651  0.3022
 3856TIP3    H233128   1.993   4.530   0.069  0.9354 -1.0076  0.9562
 3857TIP3   OH233129   4.763   5.813   8.478 -0.0831 -0.0901 -0.8263
 3857TIP3    H133130   4.764   5.813   8.382 -3.4587  1.2738 -1.0054
 3857TIP3    H233131   4.740   5.903   8.502 -0.7750 -0.7472  1.1889
 3858TIP3   OH233132   6.629   3.496   8.186  0.4904 -0.2842 -0.1867
 3858TIP3    H133133   6.685   3.452   8.251  1.7160  1.3973 -0.0313
 3858TIP3    H233134   6.588   3.568   8.235 -3.4721 -2.5264  0.2266
 3859TIP3   OH233135   5.245   1.233   8.601 -0.3318  0.3954 -0.0408
 3859TIP3    H133136   5.260   1.192   8.516  1.0254 -2.1385  1.2664
 3859TIP3    H233137   5.184   1.304   8.584  0.7498  0.7062 -3.2753
 3860TIP3   OH233138   0.420   0.506   8.415  0.5994  0.2167  0.2972
 3860TIP3    H133139   0.385   0.514   8.504 -0.4719  0.7238 -0.1531
 3860TIP3    H233140   0.389   0.585   8.370  1.1092 -0.0487 -0.5359
 3861TIP3   OH233141   4.407   4.352   7.871  0.3816  0.2589 -0.1180
 3861TIP3    H133142   4.388   4.402   7.791 -0.4595  0.4958  0.2239
 3861TIP3    H233143   4.326   4.355   7.921  0.2497 -1.6303 -0.1683
 3862TIP3   OH233144   5.155   0.436   8.046  0.2117  0.0072 -0.3018
 3862TIP3    H133145   5.139   0.368   7.982  1.9730  0.2122 -1.0216
 3862TIP3    H233146   5.231   0.405   8.096 -0.0061  0.6790  0.4862
 3863TIP3   OH233147   6.104   3.629   1.077 -0.1219 -0.1914  0.1277
 3863TIP3    H133148   6.102   3.698   1.142 -1.4149  0.3473 -0.4452
 3863TIP3    H233149   6.149   3.556   1.120 -0.4333  0.3460  1.4098
 3864TIP3   OH233150   3.797   4.993   7.661 -0.0296 -0.0528  0.5849
 3864TIP3    H133151   3.826   4.906   7.634 -0.0289  0.2796 -0.5366
 3864TIP3    H233152   3.703   4.994   7.644 -0.2125 -0.1614  1.5340
 3865TIP3   OH233153   4.055   5.383   8.095 -0.3058 -0.2395  0.2964
 3865TIP3    H133154   4.126   5.358   8.154  0.2136 -0.3225 -0.3531
 3865TIP3    H233155   4.094   5.448   8.037 -0.5588 -0.7914 -0.5085
 3866TIP3   OH233156   2.096   5.645   0.927 -0.2105  0.9298 -0.3061
 3866TIP3    H133157   2.189   5.666   0.921  0.1262  0.1666  1.5862
 3866TIP3    H233158   2.066   5.646   0.836  1.9369 -0.0504 -1.1137
 3867TIP3   OH233159   2.672   5.859   6.933  0.0080  0.1581 -0.4395
 3867TIP3    H133160   2.662   5.801   6.857  0.9850 -0.5431 -0.0575
 3867TIP3    H233161   2.590   5.908   6.937 -0.4330 -0.4775 -1.3855
 3868TIP3   OH233162   0.739   5.311   2.070 -0.1335 -1.0403  0.2282
 3868TIP3    H133163   0.742   5.296   1.975  0.3586 -2.5061  0.4509
 3868TIP3    H233164   0.677   5.247   2.103  0.2607 -1.0484  0.9779
 3869TIP3   OH233165   2.922   1.759   2.234  0.2770  0.4527 -0.4924
 3869TIP3    H133166   2.861   1.687   2.219  1.6932 -1.2316  1.3501
 3869TIP3    H233167   2.971   1.766   2.152  0.5882 -1.1875 -0.4744
 3870TIP3   OH233168   4.538   3.305   1.881  0.2392  0.3922  0.1981
 3870TIP3    H133169   4.489   3.316   1.800  1.6248  1.2837 -0.5744
 3870TIP3    H233170   4.572   3.215   1.876 -1.0696 -0.1387  0.6206
 3871TIP3   OH233171   2.567   6.268   8.442  0.8099 -0.5991 -0.2327
 3871TIP3    H133172   2.605   6.181   8.451  0.8775 -0.6900 -1.3582
 3871TIP3    H233173   2.618   6.310   8.373 -0.5328 -0.4049 -1.1399
 3872TIP3   OH233174   6.033   6.537   1.632  0.9322 -0.0418 -0.3929
 3872TIP3    H133175   6.087   6.471   1.674  1.8639  0.9030 -0.0628
 3872TIP3    H233176   5.943   6.514   1.657  1.3238 -0.5721  0.5743
 3873TIP3   OH233177   2.837   0.926   1.281 -0.2326  0.1954 -0.6086
 3873TIP3    H133178   2.894   0.888   1.214 -0.9097 -0.6630 -0.7220
 3873TIP3    H233179   2.896   0.968   1.343  0.3898  1.3688 -1.9492
 3874TIP3   OH233180   4.375   3.616   1.380 -0.4108  0.3324  0.4106
 3874TIP3    H133181   4.329   3.669   1.445 -2.4414 -0.2529 -0.4642
 3874TIP3    H233182   4.316   3.543   1.362  0.9859 -0.6004 -0.6317
 3875TIP3   OH233183   4.045   1.866   2.422  0.1524 -0.1484  0.5190
 3875TIP3    H133184   4.124   1.901   2.381 -0.4144  1.6653  0.8439
 3875TIP3    H233185   4.011   1.939   2.474 -2.3556 -0.4471 -0.5132
 3876TIP3   OH233186   2.780   2.774   2.448 -0.0838  0.5127  0.6130
 3876TIP3    H133187   2.772   2.680   2.466  2.2188 -0.1014 -1.2168
 3876TIP3    H233188   2.847   2.804   2.509 -0.8196  1.0034  1.1963
 3877TIP3   OH233189   1.339   2.280   8.741  0.2727  0.3866  0.3806
 3877TIP3    H133190   1.256   2.326   8.751 -0.4296 -0.5401 -0.8569
 3877TIP3    H233191   1.374   2.312   8.658  0.1476 -0.6962 -0.1073
 3878TIP3   OH233192   2.516   4.061   0.098 -0.6651 -0.3339 -0.1826
 3878TIP3    H133193   2.574   4.134   0.079  0.3461 -1.1629 -0.3797
 3878TIP3    H233194   2.566   4.005   0.158 -2.1348  0.0603  1.5017
 3879TIP3   OH233195   6.675   5.701   7.180 -0.1370 -0.2256 -0.4916
 3879TIP3    H133196   6.750   5.728   7.232 -0.1824  2.0596 -1.4911
 3879TIP3    H233197   6.702   5.618   7.140  1.0416 -0.4795  0.7687
 3880TIP3   OH233198   2.460   6.312   1.425  0.4947  0.0224  0.2117
 3880TIP3    H133199   2.499   6.232   1.389  0.1328 -0.4996  0.9683
 3880TIP3    H233200   2.372   6.286   1.450 -0.3423  1.1626 -1.3789
 3881TIP3   OH233201   0.725   5.808   0.175 -0.3769 -0.5506  0.6795
 3881TIP3    H133202   0.710   5.899   0.153  1.2361 -0.7962 -1.8262
 3881TIP3    H233203   0.637   5.771   0.189 -1.2661  0.7201 -1.1999
 3882TIP3   OH233204   2.686   6.573   7.110  0.0283  0.1865 -0.1759
 3882TIP3    H133205   2.741   6.632   7.160  2.4106 -0.8609 -1.3851
 3882TIP3    H233206   2.626   6.535   7.174  1.4037  0.6232  1.4264
 3883TIP3   OH233207   6.438   2.458   8.160  0.2350 -0.1493 -0.4545
 3883TIP3    H133208   6.409   2.540   8.201  1.6946 -0.1506  0.6337
 3883TIP3    H233209   6.389   2.390   8.206  1.4946 -0.1125  0.9834
 3884TIP3   OH233210   6.210   1.485   7.871  0.0686 -0.2908 -0.2510
 3884TIP3    H133211   6.286   1.456   7.921 -0.7433  0.1010  1.2535
 3884TIP3    H233212   6.207   1.426   7.795  2.2279  0.0872 -0.6972
 3885TIP3   OH233213   1.530   5.166   8.235 -0.4719  0.7304  0.3555
 3885TIP3    H133214   1.597   5.121   8.286  0.9480  0.4989 -1.5836
 3885TIP3    H233215   1.521   5.251   8.277  0.3700  0.4212  1.1955
 3886TIP3   OH233216   1.194   2.282   2.261  0.0671 -0.3435 -0.4019
 3886TIP3    H133217   1.287   2.300   2.279 -0.2105 -0.9065  1.7669
 3886TIP3    H233218   1.167   2.355   2.204  1.6339  0.2539 -0.4309
 3887TIP3   OH233219   3.097   3.118   8.412 -0.3545 -0.0616  0.3513
 3887TIP3    H133220   3.102   3.157   8.325 -0.0536  0.5138  0.6220
 3887TIP3    H233221   3.004   3.121   8.435 -0.9143 -2.8030 -1.1029
 3888TIP3   OH233222   6.725   3.251   2.675  0.3109 -0.6800 -0.2666
 3888TIP3    H133223   6.648   3.242   2.618  0.2373 -1.4494 -0.0568
 3888TIP3    H233224   6.782   3.312   2.629  1.1101 -2.7024 -2.1140
 3889TIP3   OH233225   6.523   2.630   1.664  0.5577  0.2981 -0.6859
 3889TIP3    H133226   6.466   2.650   1.739  2.2835 -1.0170  1.0860
 3889TIP3    H233227   6.463   2.601   1.596 -0.9680 -0.3804  0.8554
 3890TIP3   OH233228   4.975   6.188   7.433 -0.4792 -0.5387 -0.6961
 3890TIP3    H133229   4.936   6.275   7.426  1.7950  0.5284 -1.3637
 3890TIP3    H233230   5.013   6.172   7.346  1.4838 -0.9425  0.1697
 3891TIP3   OH233231   2.149   0.214   1.887  0.3267  0.2553  0.1418
 3891TIP3    H133232   2.224   0.265   1.917 -0.1776 -0.5944  3.2694
 3891TIP3    H233233   2.082   0.279   1.867  1.1596  0.9368 -0.4988
 3892TIP3   OH233234   2.491   2.568   2.840 -0.0139  0.0235  0.4182
 3892TIP3    H133235   2.542   2.628   2.785  0.8998 -1.8698 -0.9296
 3892TIP3    H233236   2.443   2.514   2.777  0.5040 -1.7544  1.4965
 3893TIP3   OH233237   5.450   4.511   0.932  0.0997 -0.1044 -0.8053
 3893TIP3    H133238   5.380   4.576   0.921 -1.6722 -1.8155 -0.0902
 3893TIP3    H233239   5.500   4.542   1.008  0.4049  1.3344 -1.5519
 3894TIP3   OH233240   5.591   4.054   8.522  0.2572 -0.3918 -0.7365
 3894TIP3    H133241   5.653   3.989   8.556  0.7171  0.0944 -0.6438
 3894TIP3    H233242   5.509   4.005   8.510  0.9173 -1.2732 -1.7889
 3895TIP3   OH233243   3.555   1.602   7.720 -0.2065  0.0089 -0.5083
 3895TIP3    H133244   3.572   1.518   7.763  2.3689  0.7549  0.0923
 3895TIP3    H233245   3.614   1.664   7.763 -1.5884  2.0409 -1.3436
 3896TIP3   OH233246   0.939   5.922   8.016  0.2712  0.0626  0.4164
 3896TIP3    H133247   0.912   5.870   7.940  0.3918  1.5131 -0.6713
 3896TIP3    H233248   0.860   5.930   8.069  0.0780 -0.6127  0.2495
 3897TIP3   OH233249   4.238   5.941   0.419  0.1405 -0.1111  0.3653
 3897TIP3    H133250   4.305   5.886   0.376 -0.7071 -0.0821 -1.0677
 3897TIP3    H233251   4.289   6.009   0.463  1.1710 -1.4946  1.4179
 3898TIP3   OH233252   2.187   2.887   2.171  0.4439 -0.4381 -0.3115
 3898TIP3    H133253   2.278   2.903   2.146  0.7545 -0.3593  0.8017
 3898TIP3    H233254   2.190   2.804   2.220 -0.0456 -0.3295 -0.0927
 3899TIP3   OH233255   0.230   6.808   1.765 -0.4419 -0.7046  0.1246
 3899TIP3    H133256   0.200   6.776   1.680 -2.7703 -0.2001  0.6930
 3899TIP3    H233257   0.168   6.771   1.828  0.4454 -0.0002  1.4631
 3900TIP3   OH233258   3.204   3.920   0.469  0.1622 -0.0372 -0.2121
 3900TIP3    H133259   3.166   3.844   0.425  0.1945  1.0121 -2.1504
 3900TIP3    H233260   3.167   3.995   0.424  0.2683  1.1339  1.5415
 3901TIP3   OH233261   0.530   0.070   7.663  0.2271  0.2367  0.2737
 3901TIP3    H133262   0.614   0.105   7.633  0.9707 -0.5951  1.3281
 3901TIP3    H233263   0.541   0.056   7.757 -0.7918 -0.6974  0.2837
 3902TIP3   OH233264   1.454   2.412   2.734 -0.9673  0.3615 -0.4162
 3902TIP3    H133265   1.373   2.461   2.746 -1.7693 -0.7028 -1.2868
 3902TIP3    H233266   1.459   2.355   2.811  0.4058  2.3006  1.0425
 3903TIP3   OH233267   6.309   1.088   8.037  0.5656  0.2241  0.3019
 3903TIP3    H133268   6.278   1.029   7.969 -0.4949 -0.5122  1.3880
 3903TIP3    H233269   6.380   1.040   8.080  1.6913  0.9533 -0.6511
 3904TIP3   OH233270   2.406   4.756   0.575 -0.4660 -0.0264  0.1296
 3904TIP3    H133271   2.364   4.841   0.564 -0.3552  0.1550  1.0156
 3904TIP3    H233272   2.422   4.749   0.670  0.0330 -0.7856  0.0005
 3905TIP3   OH233273   0.272   1.822   0.856  0.4845  0.2069  0.0325
 3905TIP3    H133274   0.334   1.749   0.860 -0.9398 -1.1077 -0.7578
 3905TIP3    H233275   0.231   1.823   0.942  2.7828  2.2895  1.2587
 3906TIP3   OH233276   2.949   3.447   7.314  0.1416 -0.6459 -0.4221
 3906TIP3    H133277   2.890   3.482   7.381  1.7476  1.2345  0.0801
 3906TIP3    H233278   3.004   3.384   7.360  3.3278  2.8091  0.9936
 3907TIP3   OH233279   4.958   3.189   7.675 -0.0300  0.0315 -0.4458
 3907TIP3    H133280   4.931   3.204   7.585  0.3836 -0.2935 -0.6264
 3907TIP3    H233281   4.965   3.094   7.683 -0.5612  0.0298  0.0771
 3908TIP3   OH233282   6.702   1.654   7.185  0.5611  0.2828  0.2823
 3908TIP3    H133283   6.617   1.611   7.170  0.6481  0.6325 -1.5479
 3908TIP3    H233284   6.711   1.658   7.280 -0.1987 -2.2404  0.5414
 3909TIP3   OH233285   3.650   2.051   1.222  0.7614  0.1345  0.0374
 3909TIP3    H133286   3.616   2.061   1.133  2.4196  0.4232 -0.6076
 3909TIP3    H233287   3.644   1.957   1.239 -1.0113  0.2621  0.2511
 3910TIP3   OH233288   3.563   0.755   8.659  0.3946  0.0475 -0.2655
 3910TIP3    H133289   3.509   0.694   8.609  0.9867  0.4722 -1.4598
 3910TIP3    H233290   3.632   0.701   8.697  0.9951 -0.0511 -1.4269
 3911TIP3   OH233291   4.115   1.582   0.988  0.0357 -0.7175 -0.2819
 3911TIP3    H133292   4.031   1.539   1.003  0.3404 -0.6544  1.8663
 3911TIP3    H233293   4.096   1.647   0.920 -1.2900 -1.6560 -0.8639
 3912TIP3   OH233294   3.019   1.696   0.153  0.3526  0.0493 -0.0491
 3912TIP3    H133295   3.086   1.669   0.216  0.2450  0.3205  0.1847
 3912TIP3    H233296   3.031   1.637   0.079 -1.0703 -1.9293  1.1953
 3913TIP3   OH233297   6.173   1.173   8.639  0.3841  0.2576  0.1074
 3913TIP3    H133298   6.191   1.259   8.677  0.1624 -0.0113  0.8384
 3913TIP3    H233299   6.118   1.191   8.563 -0.5129  0.6854  0.8493
 3914TIP3   OH233300   2.466   2.720   2.524  0.2355 -0.0055 -0.0984
 3914TIP3    H133301   2.538   2.667   2.558  0.6280  0.7847  0.3219
 3914TIP3    H233302   2.434   2.671   2.448 -0.9337 -2.0403  1.5897
 3915TIP3   OH233303   0.710   1.152   7.780 -0.6736 -0.0301 -0.6317
 3915TIP3    H133304   0.772   1.224   7.774  0.3863 -0.7322  1.0497
 3915TIP3    H233305   0.625   1.192   7.764  0.0990  1.1148 -2.1361
 3916TIP3   OH233306   6.565   0.475   0.923  0.2071 -0.1360 -0.1232
 3916TIP3    H133307   6.483   0.467   0.972  0.4777 -1.3298  0.1464
 3916TIP3    H233308   6.547   0.544   0.859 -0.9825 -0.3359 -0.0273
 3917TIP3   OH233309   5.978   4.246   0.726  0.1853  0.2396 -0.1201
 3917TIP3    H133310   5.899   4.242   0.780 -0.8245  0.7089 -1.5066
 3917TIP3    H233311   5.946   4.265   0.638  2.0083  3.1279 -0.2876
 3918TIP3   OH233312   4.730   6.168   1.959  0.7718  0.2879 -0.2549
 3918TIP3    H133313   4.697   6.212   1.881 -2.2560 -0.9055  0.2246
 3918TIP3    H233314   4.745   6.238   2.022  3.2846  1.2779 -1.7977
 3919TIP3   OH233315   2.458   2.661   1.540  0.2260 -0.3540  0.1292
 3919TIP3    H133316   2.428   2.570   1.540 -1.5915  0.1889  1.1447
 3919TIP3    H233317   2.517   2.667   1.615 -0.4661 -0.4887  0.7047
 3920TIP3   OH233318   2.068   6.113   1.744  0.2986  0.2930  0.0199
 3920TIP3    H133319   2.120   6.174   1.691  3.2015 -1.6893  0.3738
 3920TIP3    H233320   2.037   6.048   1.682  3.2326 -1.7164  0.4623
 3921TIP3   OH233321   5.640   2.288   3.010  0.6075  0.0070  0.1447
 3921TIP3    H133322   5.690   2.365   3.037  0.5901  0.5184 -1.1988
 3921TIP3    H233323   5.611   2.249   3.092 -3.0270  3.7856  0.9928
 3922TIP3   OH233324   4.985   6.456   8.287 -0.0215  0.9790 -0.5893
 3922TIP3    H133325   5.044   6.497   8.350 -0.5249 -0.8230  1.1527
 3922TIP3    H233326   4.907   6.511   8.289  0.4940  1.7266 -0.7024
 3923TIP3   OH233327   5.938   0.887   0.983  0.2495  0.1511  0.3725
 3923TIP3    H133328   5.948   0.934   0.900 -0.0045 -1.5228 -0.6590
 3923TIP3    H233329   5.953   0.953   1.050 -1.9394  2.1635 -0.9571
 3924TIP3   OH233330   0.778   4.584   0.211 -0.1719 -0.5028 -0.3362
 3924TIP3    H133331   0.860   4.566   0.165 -1.2421 -2.4077 -1.6363
 3924TIP3    H233332   0.804   4.637   0.286  2.2414 -1.0413 -0.7024
 3925TIP3   OH233333   3.746   1.287   0.688  0.5758 -0.0799 -0.3360
 3925TIP3    H133334   3.684   1.254   0.623  2.1971  0.0969 -2.0512
 3925TIP3    H233335   3.736   1.382   0.685  1.3655 -0.0110 -1.1040
 3926TIP3   OH233336   0.986   0.246   0.037 -0.6454 -0.5628  0.3940
 3926TIP3    H133337   0.948   0.247   0.125 -0.6880  1.3578  0.3849
 3926TIP3    H233338   0.955   0.326  -0.004  2.2104  0.3796 -0.1455
 3927TIP3   OH233339   0.737   3.765   2.116  0.2465 -0.5304  0.1303
 3927TIP3    H133340   0.726   3.706   2.041  1.7015 -2.1393  1.1078
 3927TIP3    H233341   0.799   3.832   2.085 -0.5768 -0.1111 -0.6481
 3928TIP3   OH233342   3.826   4.142   2.040  0.7561  0.4725  0.2703
 3928TIP3    H133343   3.769   4.172   1.969 -1.3291 -0.8467  1.3022
 3928TIP3    H233344   3.805   4.050   2.051  1.8211  0.3826  1.9118
 3929TIP3   OH233345   3.922   6.134   2.877 -0.1301 -0.5789 -0.4614
 3929TIP3    H133346   3.891   6.220   2.905  1.1035 -0.2818  0.0619
 3929TIP3    H233347   3.853   6.100   2.820 -1.3219  0.1084  0.5340
 3930TIP3   OH233348   0.910   3.705   0.205  0.1663 -0.1018  0.3363
 3930TIP3    H133349   0.958   3.769   0.258 -0.1987 -0.7713  1.5163
 3930TIP3    H233350   0.976   3.639   0.182  0.4064  0.3718 -0.3721
 3931TIP3   OH233351   3.662   3.007   2.047  0.2686  0.2201  0.1520
 3931TIP3    H133352   3.734   2.998   2.109 -0.0468  1.4601  0.7334
 3931TIP3    H233353   3.693   3.070   1.983 -0.3733  0.9889  0.5673
 3932TIP3   OH233354   3.608   5.306   2.244 -0.5296 -0.0360 -0.1966
 3932TIP3    H133355   3.516   5.290   2.224 -0.2434 -0.9118 -0.8458
 3932TIP3    H233356   3.621   5.268   2.331 -1.1313  1.4559  0.5948
 3933TIP3   OH233357   3.464   2.446   0.312  0.3229  0.0068 -0.0836
 3933TIP3    H133358   3.463   2.474   0.404 -1.0613 -0.6737  0.1275
 3933TIP3    H233359   3.436   2.523   0.263  0.3813  0.1603  0.1234
 3934TIP3   OH233360   4.961   0.776   7.566  0.7957 -0.3354 -0.1136
 3934TIP3    H133361   4.958   0.752   7.659  2.8273  0.5303  0.2444
 3934TIP3    H233362   4.980   0.870   7.567  1.3884 -0.4212 -1.3919
 3935TIP3   OH233363   4.558   6.442   1.851  0.5802  0.1130 -0.1946
 3935TIP3    H133364   4.602   6.478   1.774 -0.2324  3.5424  0.7506
 3935TIP3    H233365   4.519   6.518   1.894  0.9228 -1.6047  3.5897
 3936TIP3   OH233366   6.181   0.558   2.288 -0.2063  0.5422  0.3377
 3936TIP3    H133367   6.097   0.541   2.245  0.1695  1.3942 -0.7824
 3936TIP3    H233368   6.158   0.569   2.380 -1.0054 -1.5906  0.4646
 3937TIP3   OH233369   4.396   1.194   1.901 -0.0779  0.7409  0.1786
 3937TIP3    H133370   4.370   1.202   1.809 -0.9060 -1.5074  0.1512
 3937TIP3    H233371   4.369   1.105   1.926  0.0481  1.3263  2.6313
 3938TIP3   OH233372   0.820   3.051   7.702 -0.0608  0.3099 -0.0169
 3938TIP3    H133373   0.831   2.973   7.756  0.0884  0.4805  0.1953
 3938TIP3    H233374   0.869   3.031   7.622  2.0889  1.1787  1.0230
 3939TIP3   OH233375   6.308   5.913   7.476  0.0479  0.1806 -0.0822
 3939TIP3    H133376   6.319   5.818   7.486  3.1299  0.1096 -2.6603
 3939TIP3    H233377   6.391   5.943   7.439 -1.8810  3.4210 -2.2864
 3940TIP3   OH233378   3.308   2.949   8.598  0.1328  0.2287 -0.2833
 3940TIP3    H133379   3.254   2.881   8.638  0.7633  0.7686  1.6197
 3940TIP3    H233380   3.324   2.918   8.509 -3.3843  0.1321 -1.0084
 3941TIP3   OH233381   2.386   3.185   1.839 -0.5918 -0.5966 -0.1142
 3941TIP3    H133382   2.423   3.272   1.853  0.2180 -1.2949  2.6016
 3941TIP3    H233383   2.460   3.132   1.811 -1.1772 -0.3789 -2.2349
 3942TIP3   OH233384   6.310   5.008   0.714  0.0915  0.1600  0.0293
 3942TIP3    H133385   6.355   4.924   0.709 -1.5378 -0.7169 -0.8804
 3942TIP3    H233386   6.380   5.072   0.723  1.7775 -0.9148 -3.3907
 3943TIP3   OH233387   2.637   0.630   8.160  0.4126 -0.5910  0.1355
 3943TIP3    H133388   2.643   0.713   8.113  0.8714 -0.8300 -0.2363
 3943TIP3    H233389   2.575   0.578   8.108 -2.1544  0.4922  1.8762
 3944TIP3   OH233390   0.544   3.238   0.941  0.2159 -0.0672 -0.0469
 3944TIP3    H133391   0.622   3.199   0.902 -0.0827 -0.1569 -0.5568
 3944TIP3    H233392   0.569   3.257   1.031  1.4107  1.5829 -0.6906
 3945TIP3   OH233393   0.877   1.435   1.013  0.3208  0.3675 -0.2945
 3945TIP3    H133394   0.931   1.367   0.974  1.0868  1.8881 -2.0421
 3945TIP3    H233395   0.883   1.420   1.108  3.3102  0.0965 -0.4539
 3946TIP3   OH233396   5.689   5.166   0.567  0.0855 -0.1103 -0.4448
 3946TIP3    H133397   5.732   5.123   0.641  1.2266  2.5455  0.5948
 3946TIP3    H233398   5.609   5.203   0.604 -0.1657 -0.1533 -0.9427
 3947TIP3   OH233399   1.524   3.972   1.893 -0.0696 -0.1512  0.5281
 3947TIP3    H133400   1.507   3.976   1.798  0.8820  1.0514  0.3701
 3947TIP3    H233401   1.519   4.063   1.921  1.7114 -0.2211  1.2204
 3948TIP3   OH233402   4.185   5.130   0.548 -0.5632 -0.4791 -0.5694
 3948TIP3    H133403   4.216   5.118   0.459  1.8411  0.0674  0.1085
 3948TIP3    H233404   4.254   5.180   0.591 -2.1229  0.1813  1.3419
 3949TIP3   OH233405   6.063   6.095   1.194  0.2445 -0.5259 -0.5877
 3949TIP3    H133406   6.088   6.175   1.148 -0.5915  1.2963  1.8900
 3949TIP3    H233407   6.146   6.055   1.220  0.7633  1.4917  1.1623
 3950TIP3   OH233408   4.486   4.360   8.681 -0.2396  0.1677 -0.3577
 3950TIP3    H133409   4.498   4.392   8.591 -0.8260  0.7792 -0.2298
 3950TIP3    H233410   4.493   4.439   8.735 -0.1385 -0.1608  0.1151
 3951TIP3   OH233411   6.693   1.821   7.666  0.3649  0.0608 -0.6666
 3951TIP3    H133412   6.650   1.815   7.751 -0.5587  1.7565 -0.9839
 3951TIP3    H233413   6.778   1.860   7.685  0.4311 -0.1790 -0.4578
 3952TIP3   OH233414   3.930   1.476   7.673  0.0762  0.2227  0.1063
 3952TIP3    H133415   3.949   1.553   7.618  2.0397 -1.0147 -1.0785
 3952TIP3    H233416   3.981   1.491   7.753  0.4915  0.1450 -0.1404
 3953TIP3   OH233417   1.215   6.348   0.662 -0.2323 -0.3073 -0.1050
 3953TIP3    H133418   1.284   6.307   0.714 -0.8929 -0.0642  0.9830
 3953TIP3    H233419   1.163   6.397   0.725 -1.0155  0.0549 -1.0078
 3954TIP3   OH233420   1.191   2.502   1.626  0.0242  0.0475  0.1819
 3954TIP3    H133421   1.154   2.486   1.539  0.0870  0.6580  0.0397
 3954TIP3    H233422   1.114   2.514   1.683 -0.0313 -1.1370  0.3712
 3955TIP3   OH233423   5.949   2.754   1.174 -0.0928  0.0634  0.0265
 3955TIP3    H133424   5.925   2.666   1.203 -1.4274  0.9026  1.6420
 3955TIP3    H233425   6.044   2.753   1.168  0.0190 -1.0719  1.5234
 3956TIP3   OH233426   5.395   3.635   2.264  0.4822 -0.2036 -0.2817
 3956TIP3    H133427   5.394   3.716   2.213 -0.2960  0.1734  0.3163
 3956TIP3    H233428   5.461   3.651   2.332  1.3779 -0.6323 -1.0348
 3957TIP3   OH233429   4.352   1.793   1.501  0.3435  0.3589 -0.6489
 3957TIP3    H133430   4.282   1.730   1.514 -1.7496  2.4777 -1.0154
 3957TIP3    H233431   4.390   1.770   1.416 -0.4161 -0.3569 -0.8101
 3958TIP3   OH233432   3.854   3.188   1.404 -0.2291 -0.5138  0.5767
 3958TIP3    H133433   3.822   3.277   1.392 -1.6867 -0.8487  1.6921
 3958TIP3    H233434   3.894   3.188   1.491 -1.5634 -1.2707  1.2269
 3959TIP3   OH233435   1.861   3.096   0.619  1.1976  0.5588 -0.2031
 3959TIP3    H133436   1.861   3.120   0.526  2.3556 -0.3738 -0.4632
 3959TIP3    H233437   1.922   3.157   0.660  2.1970 -0.2810 -0.4160
 3960TIP3   OH233438   6.202   5.913   7.993 -0.0829 -0.5173  0.0625
 3960TIP3    H133439   6.189   5.949   7.905 -2.8185  0.5841  0.8202
 3960TIP3    H233440   6.292   5.879   7.992  0.2478  0.1802 -2.8728
 3961TIP3   OH233441   0.852   1.746   1.536  0.4250 -0.6265  0.4681
 3961TIP3    H133442   0.769   1.793   1.539  1.2399  0.8735  0.4280
 3961TIP3    H233443   0.879   1.750   1.444 -0.4000 -2.9111  0.0540
 3962TIP3   OH233444   3.110   5.137   2.069  0.4891 -0.2829 -0.0237
 3962TIP3    H133445   3.078   5.069   2.011  2.0286 -0.9320 -0.1681
 3962TIP3    H233446   3.072   5.218   2.034 -2.5349 -1.1510  1.0137
 3963TIP3   OH233447   2.324   5.756   8.310  0.1835  0.1925  0.2530
 3963TIP3    H133448   2.314   5.842   8.349 -1.4706  0.0747  0.1451
 3963TIP3    H233449   2.304   5.695   8.381 -0.7386 -0.0497 -0.1927
 3964TIP3   OH233450   1.406   5.445   1.234  0.1475  0.2505  0.3727
 3964TIP3    H133451   1.486   5.394   1.219  0.1592  0.1949  0.6171
 3964TIP3    H233452   1.421   5.527   1.188 -0.2185 -0.2889 -0.7500
 3965TIP3   OH233453   6.483   2.047   7.838  0.4634  0.1408 -0.3131
 3965TIP3    H133454   6.545   2.102   7.791  0.2232 -0.2222 -1.0664
 3965TIP3    H233455   6.535   1.973   7.869  0.1842 -0.8699 -2.1179
 3966TIP3   OH233456   2.619   2.811   2.241  0.2589  0.2241  0.1690
 3966TIP3    H133457   2.550   2.755   2.275 -0.8369  1.6556  0.3861
 3966TIP3    H233458   2.679   2.823   2.315  0.0790 -0.0091  0.3539
 3967TIP3   OH233459   4.486   1.324   7.699 -0.4424  0.2520 -0.2637
 3967TIP3    H133460   4.415   1.274   7.739 -1.0643  1.2030 -0.1222
 3967TIP3    H233461   4.480   1.410   7.741  1.8328 -0.1172  0.9659
 3968TIP3   OH233462   3.743   5.137   7.344  0.0197 -0.0070  0.0301
 3968TIP3    H133463   3.714   5.048   7.361 -0.7292  0.2572  0.1768
 3968TIP3    H233464   3.684   5.170   7.276 -0.2777  0.6699  0.6052
 3969TIP3   OH233465   0.822   2.443   2.298  0.3138  0.8166  0.5727
 3969TIP3    H133466   0.777   2.501   2.236 -0.7414  1.8152  2.2165
 3969TIP3    H233467   0.773   2.360   2.291  1.2048  0.3776 -1.0484
 3970TIP3   OH233468   6.286   1.660   6.674 -0.2473 -0.0788 -0.7258
 3970TIP3    H133469   6.239   1.649   6.592 -1.3450 -1.7777  0.0757
 3970TIP3    H233470   6.362   1.603   6.666 -0.7973 -0.9016 -0.2812
 3971TIP3   OH233471   2.010   4.882   8.121  0.6811 -0.7210  0.0372
 3971TIP3    H133472   1.952   4.953   8.150 -0.0089  1.0982 -4.7534
 3971TIP3    H233473   2.098   4.914   8.139  0.3392  0.8213 -0.8321
 3972TIP3   OH233474   6.165   0.924   7.848 -0.0203 -0.1677 -0.0307
 3972TIP3    H133475   6.129   0.988   7.786  0.4702  0.4756  0.3486
 3972TIP3    H233476   6.098   0.855   7.851 -0.8250  0.5971  0.0055
 3973TIP3   OH233477   0.817   6.812   8.245 -0.2170  0.1393  0.2122
 3973TIP3    H133478   0.801   6.738   8.187  0.6339 -0.0496  0.2077
 3973TIP3    H233479   0.750   6.876   8.221 -0.5999 -0.3989 -0.1733
 3974TIP3   OH233480   1.152   1.605   1.487 -0.0757 -0.0890 -0.1378
 3974TIP3    H133481   1.095   1.653   1.427  1.4254  1.9749 -0.0288
 3974TIP3    H233482   1.239   1.642   1.472  0.9737 -2.0270  0.8146
 3975TIP3   OH233483   5.774   6.187   6.552 -0.3978  0.0637 -0.0914
 3975TIP3    H133484   5.705   6.128   6.519 -0.5568 -0.6809  1.4801
 3975TIP3    H233485   5.821   6.135   6.617  3.0739 -0.2080 -2.5338
 3976TIP3   OH233486   5.356   1.089   2.032  0.5761  0.4130 -0.1347
 3976TIP3    H133487   5.319   1.161   2.084  1.2700  1.6616 -1.3051
 3976TIP3    H233488   5.280   1.035   2.009  0.3977 -1.1316  3.4553
 3977TIP3   OH233489   0.557   2.662   7.084 -0.0612 -0.4464  0.1099
 3977TIP3    H133490   0.630   2.652   7.023 -0.0210 -0.1416  0.1105
 3977TIP3    H233491   0.492   2.713   7.035 -0.4900 -1.1492 -0.0823
 3978TIP3   OH233492   3.867   5.721   8.074  0.5270  0.4707 -0.4985
 3978TIP3    H133493   3.822   5.642   8.043 -1.7888  1.2949  0.5619
 3978TIP3    H233494   3.909   5.695   8.156  0.6681  0.0813 -0.6919
 3979TIP3   OH233495   6.457   4.392   0.903  0.1992 -0.2523  0.4681
 3979TIP3    H133496   6.473   4.390   0.997 -0.9257 -0.8900  0.6592
 3979TIP3    H233497   6.363   4.379   0.894  0.2285  0.2045 -0.7359
 3980TIP3   OH233498   3.464   6.576   8.160  0.0807  0.0767  0.7673
 3980TIP3    H133499   3.555   6.588   8.134 -0.4324  0.6273 -0.8497
 3980TIP3    H233500   3.428   6.516   8.096 -1.3220  1.7749 -0.1013
 3981TIP3   OH233501   0.888   0.587   1.552 -0.4459 -0.0588 -0.6568
 3981TIP3    H133502   0.890   0.492   1.543  0.4210 -0.0199 -0.9447
 3981TIP3    H233503   0.967   0.608   1.602 -0.6858  0.5002 -0.5072
 3982TIP3   OH233504   4.776   3.550   8.688  0.1242 -0.3370 -0.3061
 3982TIP3    H133505   4.844   3.538   8.753 -1.2019 -2.1059  0.8619
 3982TIP3    H233506   4.695   3.526   8.733 -1.4124  2.1968 -1.4468
 3983TIP3   OH233507   3.768   2.992   1.231 -0.4027 -0.1477  0.0896
 3983TIP3    H133508   3.811   3.063   1.279 -0.4265 -0.7643  1.0304
 3983TIP3    H233509   3.791   2.913   1.279 -0.0223 -0.8435 -1.1953
 3984TIP3   OH233510   6.213   2.663   1.155 -0.1516 -0.2054  0.9631
 3984TIP3    H133511   6.212   2.574   1.190 -2.1838  0.4464  2.8142
 3984TIP3    H233512   6.233   2.653   1.062 -1.3014 -2.6723  0.9129
 3985TIP3   OH233513   0.096   6.082   0.434 -0.5614 -0.3413 -0.2662
 3985TIP3    H133514   0.020   6.103   0.489 -0.5256  0.1171 -0.3903
 3985TIP3    H233515   0.095   6.149   0.366  0.2346 -0.0472  0.0021
 3986TIP3   OH233516   5.403   3.031   0.418  0.0404 -0.4399 -0.0816
 3986TIP3    H133517   5.495   3.057   0.417 -0.5034  1.6041 -0.6952
 3986TIP3    H233518   5.389   2.998   0.507  0.6694  2.0623  1.0399
 3987TIP3   OH233519   0.179   2.096   0.490  0.3444  0.0810 -0.4296
 3987TIP3    H133520   0.181   2.002   0.471 -0.1500 -0.1125  0.4040
 3987TIP3    H233521   0.160   2.101   0.584  0.6276  1.0126 -0.4122
 3988TIP3   OH233522   6.512   2.732   7.816  0.7508 -0.0367 -0.3249
 3988TIP3    H133523   6.497   2.644   7.780  0.3087  0.2875 -0.9589
 3988TIP3    H233524   6.494   2.791   7.743 -1.2625  0.7102  0.6935
 3989TIP3   OH233525   4.782   0.047   8.753  0.5041 -0.1588  0.0531
 3989TIP3    H133526   4.743   0.104   8.819  0.8245  0.2722 -0.1267
 3989TIP3    H233527   4.746  -0.040   8.771  0.7050 -0.0731  0.8935
 3990TIP3   OH233528   1.859   4.074   8.329 -0.1561  0.6383 -0.3040
 3990TIP3    H133529   1.858   4.166   8.305 -1.0704  0.7923  0.2948
 3990TIP3    H233530   1.910   4.071   8.410 -0.5308  0.6879 -0.0645
 3991TIP3   OH233531   6.349   1.474   0.244 -0.1450 -0.2014  0.1520
 3991TIP3    H133532   6.372   1.473   0.152  1.0496  0.5473  0.4197
 3991TIP3    H233533   6.343   1.567   0.267  1.3924 -0.3325  1.2356
 3992TIP3   OH233534   2.190   1.388   6.882 -0.5360  0.1559 -0.1090
 3992TIP3    H133535   2.233   1.469   6.855 -1.2262  0.4489 -0.3506
 3992TIP3    H233536   2.156   1.352   6.800 -0.8411 -0.0174  0.0959
 3993TIP3   OH233537   3.796   5.767   7.250  0.1446  0.2847  0.5558
 3993TIP3    H133538   3.801   5.750   7.344  0.3774 -0.7290  0.3692
 3993TIP3    H233539   3.707   5.801   7.236 -1.4840 -3.5293  0.5739
 3994TIP3   OH233540   5.581   0.737   1.727  0.4357  0.1274  0.1858
 3994TIP3    H133541   5.581   0.648   1.690  1.6471  0.6772 -1.2120
 3994TIP3    H233542   5.554   0.793   1.654 -0.7426  0.9062  1.1695
 3995TIP3   OH233543   3.996   6.479   7.084  0.2119  0.6817 -0.1747
 3995TIP3    H133544   3.927   6.431   7.038  1.1511  0.8187 -1.8170
 3995TIP3    H233545   4.071   6.420   7.083  0.6334  1.2077  0.0198
 3996TIP3   OH233546   1.093   5.140   2.849 -0.6459  0.1092  0.0544
 3996TIP3    H133547   1.104   5.193   2.929 -0.5473 -1.6208  1.2440
 3996TIP3    H233548   1.177   5.148   2.804  0.6334 -1.6077  1.9138
 3997TIP3   OH233549   0.267   4.209   1.117 -0.1030  0.0128  0.5414
 3997TIP3    H133550   0.324   4.219   1.193  0.7344 -0.7746  0.0397
 3997TIP3    H233551   0.192   4.160   1.151 -0.4605  0.9774  1.1867
 3998TIP3   OH233552   4.910   3.277   1.686 -0.1308  0.0766  0.1431
 3998TIP3    H133553   4.935   3.366   1.710 -0.2673  0.3853 -0.8233
 3998TIP3    H233554   4.878   3.284   1.596 -1.5128 -0.7029  0.5407
 3999TIP3   OH233555   1.924   2.717   0.677  0.4977 -0.2441 -0.7362
 3999TIP3    H133556   1.915   2.802   0.721  0.8409  1.1233 -3.1437
 3999TIP3    H233557   2.018   2.702   0.673  0.4264 -1.1953  0.3722
 4000TIP3   OH233558   4.568   6.449   1.055 -0.0472 -0.0161 -0.3507
 4000TIP3    H133559   4.519   6.480   1.132 -0.8929 -0.8847 -0.5031
 4000TIP3    H233560   4.631   6.387   1.091 -0.6933 -0.7056 -0.3693
 4001TIP3   OH233561   2.024   0.197   1.022 -0.7733  0.0497 -0.1979
 4001TIP3    H133562   1.955   0.137   0.993  0.0999 -0.2617 -1.7999
 4001TIP3    H233563   1.979   0.280   1.037 -1.8151 -0.6827  0.8869
 4002TIP3   OH233564   3.298   3.045   7.384  0.0571 -0.1468 -0.1239
 4002TIP3    H133565   3.261   2.960   7.406 -3.1982  0.9604 -0.7356
 4002TIP3    H233566   3.275   3.058   7.292  0.7887  1.2340 -0.1468
 4003TIP3   OH233567   1.139   1.524   1.921 -0.0077  0.4077  0.3753
 4003TIP3    H133568   1.140   1.516   2.016 -0.3897 -0.6177  0.2995
 4003TIP3    H233569   1.046   1.534   1.898  0.0740  0.5773  0.1064
 4004TIP3   OH233570   5.641   5.720   7.567 -0.0665 -0.4592 -0.0105
 4004TIP3    H133571   5.687   5.769   7.635  0.6992  2.9378 -2.6709
 4004TIP3    H233572   5.552   5.708   7.602  0.5182  0.3323  1.8851
 4005TIP3   OH233573   2.384   3.040   8.085  0.2490  0.5534 -0.1626
 4005TIP3    H133574   2.443   2.985   8.033  0.4139 -0.1814  0.7831
 4005TIP3    H233575   2.322   3.076   8.021  1.0742  0.5030 -1.0134
 4006TIP3   OH233576   3.644   5.844   2.806 -0.9082 -0.0881  0.3482
 4006TIP3    H133577   3.585   5.776   2.840 -0.8087 -2.0439 -2.9880
 4006TIP3    H233578   3.589   5.922   2.799 -3.3313 -1.8327 -2.6252
 4007TIP3   OH233579   0.143   3.031   6.989 -0.1597  0.1228 -0.3949
 4007TIP3    H133580   0.095   3.051   7.070  2.0868 -0.9217  1.3149
 4007TIP3    H233581   0.189   3.113   6.969  1.8703 -0.4894  1.3747
 4008TIP3   OH233582   4.068   3.627   8.723  0.0053 -0.2689 -0.4063
 4008TIP3    H133583   4.118   3.705   8.749 -1.3705 -0.1323  2.1687
 4008TIP3    H233584   3.980   3.643   8.756 -0.4342 -2.6978 -0.2276
 4009TIP3   OH233585   2.178   5.526   8.430 -0.0769 -0.2542 -0.0106
 4009TIP3    H133586   2.235   5.464   8.476  1.2414  0.4684 -0.6077
 4009TIP3    H233587   2.179   5.497   8.339  0.8873  0.8406 -0.3765
 4010TIP3   OH233588   6.345   4.611   1.796  0.3504  0.1565 -1.0957
 4010TIP3    H133589   6.344   4.611   1.700  0.5058  0.2997 -1.0993
 4010TIP3    H233590   6.426   4.565   1.819  1.5197  2.0814 -1.0754
 4011TIP3   OH233591   3.564   5.302   2.788 -0.0239  0.3071 -0.6162
 4011TIP3    H133592   3.509   5.343   2.722 -0.7312 -2.0426 -1.6051
 4011TIP3    H233593   3.504   5.248   2.839  0.7584  0.9259  1.0325
 4012TIP3   OH233594   1.892   4.202   2.685  0.6676 -0.2529 -0.2698
 4012TIP3    H133595   1.903   4.284   2.734 -0.0289  0.6358 -1.5584
 4012TIP3    H233596   1.880   4.135   2.753  0.6109  0.8119  0.7957
 4013TIP3   OH233597   4.060   3.851   0.451  0.0930 -0.2521  0.1354
 4013TIP3    H133598   4.077   3.758   0.463  2.3343  0.3006  1.7186
 4013TIP3    H233599   4.025   3.880   0.535  3.2274  1.0484  1.1214
 4014TIP3   OH233600   0.503   6.427   8.394 -0.2984 -0.1696 -0.1370
 4014TIP3    H133601   0.501   6.488   8.320  1.6980  0.2725  0.0997
 4014TIP3    H233602   0.419   6.381   8.390  0.2575 -1.2074 -3.5738
 4015TIP3   OH233603   6.108   4.362   8.194  0.0151 -0.1778 -0.0282
 4015TIP3    H133604   6.095   4.328   8.282 -0.5645  0.4320  0.1277
 4015TIP3    H233605   6.122   4.456   8.205 -1.1731  0.0991 -0.6493
 4016TIP3   OH233606   3.817   2.062   7.648  0.4052  0.4151 -0.1756
 4016TIP3    H133607   3.793   2.062   7.556  0.5508  0.0711 -0.2195
 4016TIP3    H233608   3.817   1.969   7.672 -1.2725  0.5818  0.6118
 4017TIP3   OH233609   4.192   1.796   1.785  0.3799  0.4504  0.1761
 4017TIP3    H133610   4.196   1.833   1.873  0.5820 -0.4620  0.5714
 4017TIP3    H233611   4.146   1.861   1.733  0.8229  1.2816  0.8118
 4018TIP3   OH233612   4.226   5.324   0.898  0.2216  0.6017  0.1111
 4018TIP3    H133613   4.164   5.397   0.897 -0.0258  0.3936  0.0734
 4018TIP3    H233614   4.285   5.342   0.825  0.3972  0.9632  0.3386
 4019TIP3   OH233615   4.010   3.241   8.449 -0.4469 -0.2703  0.2492
 4019TIP3    H133616   4.017   3.169   8.387 -0.8812 -0.3982  0.3460
 4019TIP3    H233617   3.934   3.291   8.419 -1.6652 -1.2376  1.6024
 4020TIP3   OH233618   3.584   6.621   0.573 -0.0710  0.6383  0.2819
 4020TIP3    H133619   3.526   6.572   0.515  1.9182 -1.8303  0.2167
 4020TIP3    H233620   3.613   6.695   0.519 -0.8692  0.2736 -0.6846
 4021TIP3   OH233621   3.231   0.784   1.012 -0.8876 -0.5110  0.4303
 4021TIP3    H133622   3.184   0.715   0.965 -0.4895 -0.4908 -0.0129
 4021TIP3    H233623   3.323   0.771   0.987 -0.8288  0.2677  0.2217
 4022TIP3   OH233624   3.522   2.951   0.016  0.1502  0.3835  0.1860
 4022TIP3    H133625   3.519   3.025  -0.044  0.7265  0.1875 -0.0969
 4022TIP3    H233626   3.515   2.873  -0.040 -1.3362  0.2213  0.5553
 4023TIP3   OH233627   1.702   6.394   1.808  0.8372 -0.1914  0.4393
 4023TIP3    H133628   1.771   6.365   1.868  0.1896 -0.7859  0.9278
 4023TIP3    H233629   1.710   6.337   1.732 -0.4394 -1.7559  1.4027
 4024TIP3   OH233630   4.238   5.949   7.887 -0.2524  0.1310  0.1755
 4024TIP3    H133631   4.224   5.944   7.792  0.7482  0.4133 -0.0056
 4024TIP3    H233632   4.153   5.974   7.923 -1.4095 -2.6960 -0.3420
 4025TIP3   OH233633   3.797   0.364   2.595 -0.1479  0.9544 -0.0652
 4025TIP3    H133634   3.880   0.391   2.634  0.2862 -1.0494  0.5391
 4025TIP3    H233635   3.731   0.380   2.662  0.3011 -0.6033  0.8046
 4026TIP3   OH233636   0.862   4.901   2.903 -0.1204  0.0501  0.0834
 4026TIP3    H133637   0.851   4.994   2.882  0.2739  0.2074  0.5491
 4026TIP3    H233638   0.775   4.863   2.892  0.3024 -0.2266 -3.4196
 4027TIP3   OH233639   6.727   2.542   1.115  0.0189 -0.2342  0.3066
 4027TIP3    H133640   6.731   2.632   1.083  1.9332 -0.6218 -0.7168
 4027TIP3    H233641   6.747   2.489   1.038  3.1634 -1.2875  1.6930
 4028TIP3   OH233642   3.492   4.445   2.974  0.1858  0.0725 -0.2852
 4028TIP3    H133643   3.448   4.375   3.023 -0.3314  1.1603  0.8495
 4028TIP3    H233644   3.429   4.471   2.907  0.5481 -0.8140 -0.9952
 4029TIP3   OH233645   5.995   4.441   6.905 -0.2272 -0.4302 -0.1411
 4029TIP3    H133646   6.021   4.363   6.954  1.5201  0.4301  0.4007
 4029TIP3    H233647   6.065   4.454   6.840 -0.6508  0.4853 -0.4446
 4030TIP3   OH233648   4.821   3.171   1.094  0.4088 -0.3927  0.0926
 4030TIP3    H133649   4.869   3.124   1.162  3.0456 -1.0212 -2.0428
 4030TIP3    H233650   4.731   3.138   1.100  1.0566 -1.9873  1.8662
 4031TIP3   OH233651   4.993   5.008   1.310 -0.7897  0.1848 -0.0878
 4031TIP3    H133652   5.050   5.084   1.296 -0.9514  1.0171  3.0572
 4031TIP3    H233653   4.906   5.039   1.285 -0.5184  0.2477 -1.0004
 4032TIP3   OH233654   3.028   1.475   8.759 -0.9617 -0.4445 -0.0799
 4032TIP3    H133655   3.106   1.420   8.767  0.3462  1.1931 -0.8076
 4032TIP3    H233656   2.965   1.437   8.820  0.2436 -2.0926  0.2067
 4033TIP3   OH233657   5.565   4.624   2.090  0.2005  0.0879 -0.3758
 4033TIP3    H133658   5.471   4.617   2.073  0.1771  1.0655 -0.7187
 4033TIP3    H233659   5.600   4.672   2.015  0.3443  3.1513  1.4879
 4034TIP3   OH233660   3.170   0.625   2.078 -0.1337  0.6677 -0.3345
 4034TIP3    H133661   3.191   0.546   2.027  0.6071  0.9379 -0.4636
 4034TIP3    H233662   3.081   0.611   2.108 -0.6005  0.4998 -1.7172
 4035TIP3   OH233663   4.651   6.563   0.612 -0.3310  0.4633 -0.1051
 4035TIP3    H133664   4.701   6.622   0.668 -0.1191  1.0299 -0.8722
 4035TIP3    H233665   4.626   6.490   0.669  2.7571 -0.6957 -0.0498
 4036TIP3   OH233666   4.016   1.037   7.912  0.5207  0.1424 -0.3670
 4036TIP3    H133667   4.074   0.968   7.880 -0.5611 -1.3250  0.7078
 4036TIP3    H233668   4.074   1.101   7.954  1.3539 -1.3853  0.8695
 4037TIP3   OH233669   1.020   5.206   7.169  0.4820  0.0378 -0.2853
 4037TIP3    H133670   0.935   5.190   7.210  0.7628  1.3778  0.9249
 4037TIP3    H233671   1.065   5.121   7.172 -0.4872 -0.4807 -0.1485
 4038TIP3   OH233672   4.210   5.174   1.119 -0.6248  0.3818 -0.8685
 4038TIP3    H133673   4.230   5.243   1.055  1.4008 -0.0229 -0.7582
 4038TIP3    H233674   4.160   5.219   1.187  0.8211  1.8463 -0.6967
 4039TIP3   OH233675   3.986   0.563   1.015  0.5985  0.1105  0.1303
 4039TIP3    H133676   3.922   0.501   1.050  2.9085 -1.7397  1.4287
 4039TIP3    H233677   4.061   0.508   0.991  1.4527  2.0657 -2.0533
 4040TIP3   OH233678   2.965   2.516   8.002  0.4167  0.2946  0.1269
 4040TIP3    H133679   2.932   2.503   7.913 -0.7274  1.6602  0.3264
 4040TIP3    H233680   3.060   2.513   7.993  0.3100 -1.4625 -0.8222
 4041TIP3   OH233681   2.253   1.098   7.956 -0.3370 -0.4278  0.1905
 4041TIP3    H133682   2.246   1.122   7.863  1.1432 -2.2914 -0.4738
 4041TIP3    H233683   2.181   1.037   7.970 -0.2339 -0.5722  0.1013
 4042TIP3   OH233684   1.823   3.961   1.971 -0.2116 -0.3993 -0.0504
 4042TIP3    H133685   1.842   3.958   2.064 -1.5248  3.5844  0.5293
 4042TIP3    H233686   1.728   3.960   1.965 -0.1621 -0.1800 -1.2810
 4043TIP3   OH233687   3.616   3.376   1.390  0.2053 -0.0147  0.0218
 4043TIP3    H133688   3.536   3.354   1.438  0.7178 -2.7162 -0.1823
 4043TIP3    H233689   3.589   3.442   1.326 -1.7752 -0.5874  0.2081
 4044TIP3   OH233690   1.938   4.030   6.825 -0.2851  0.0446  0.2662
 4044TIP3    H133691   1.969   3.952   6.779  0.7036  1.2352 -1.1587
 4044TIP3    H233692   1.911   3.997   6.911 -0.4603 -1.9533 -0.4810
 4045TIP3   OH233693   0.527   1.297   2.534  0.0759  0.6694 -0.1953
 4045TIP3    H133694   0.568   1.320   2.617  0.1272  1.4418 -0.4269
 4045TIP3    H233695   0.452   1.243   2.558  1.0426 -0.5364  0.2495
 4046TIP3   OH233696   0.409   1.860   3.287  0.1074  0.9293 -0.3801
 4046TIP3    H133697   0.330   1.809   3.271  0.8050 -0.2202 -0.3206
 4046TIP3    H233698   0.460   1.851   3.206  1.7901 -1.4500  0.8170
 4047TIP3   OH233699   4.234   0.135   7.208 -0.4885  0.5221 -0.2502
 4047TIP3    H133700   4.185   0.155   7.128 -0.7985  3.1500  0.5199
 4047TIP3    H233701   4.315   0.186   7.199 -0.5786  0.9283  1.1545
 4048TIP3   OH233702   0.969   5.273   7.498  0.7046 -0.2910 -0.0718
 4048TIP3    H133703   0.999   5.362   7.481  0.7052  0.0336  1.5056
 4048TIP3    H233704   0.909   5.254   7.426  2.4067  0.1261 -1.6597
 4049TIP3   OH233705   1.761   1.047   0.129  0.5441  0.0947  0.1495
 4049TIP3    H133706   1.813   0.968   0.144 -0.2153 -0.6214 -0.8603
 4049TIP3    H233707   1.827   1.115   0.112  1.1856 -0.6622 -0.5098
 4050TIP3   OH233708   4.000   0.383   8.010 -0.0439  0.1362 -0.1646
 4050TIP3    H133709   3.945   0.342   8.077  0.2622  0.8652  0.5479
 4050TIP3    H233710   4.021   0.311   7.949  0.3674 -0.7406  0.9709
 4051TIP3   OH233711   2.531   4.759   7.215  0.7700 -0.6833 -0.2287
 4051TIP3    H133712   2.625   4.776   7.224  0.4028  1.3720  0.2492
 4051TIP3    H233713   2.496   4.840   7.179 -0.7673 -1.6188 -0.9187
 4052TIP3   OH233714   4.198   0.958   2.165  0.4584  0.1574 -0.0636
 4052TIP3    H133715   4.171   1.046   2.139  0.3693  0.4912  1.0718
 4052TIP3    H233716   4.144   0.939   2.242  0.8632 -0.6755  0.0254
 4053TIP3   OH233717   4.539   5.549   0.495 -0.3390  0.1323 -0.4371
 4053TIP3    H133718   4.563   5.483   0.560 -0.9768  0.8053  0.5263
 4053TIP3    H233719   4.553   5.507   0.410  0.6230 -0.7318  0.1316
 4054TIP3   OH233720   3.470   2.654   8.107  0.0058 -0.2258 -0.1561
 4054TIP3    H133721   3.551   2.637   8.156  0.0145 -0.7335 -0.3323
 4054TIP3    H233722   3.428   2.568   8.100  0.0320 -0.1776 -1.0724
 4055TIP3   OH233723   3.109   6.076   1.039  0.3664  0.5259  0.1933
 4055TIP3    H133724   3.061   6.099   0.959  0.7371  1.6679  0.2697
 4055TIP3    H233725   3.086   5.985   1.057 -0.5812  0.5995 -0.6057
 4056TIP3   OH233726   0.668   0.670   2.402 -0.1411  0.5086 -0.3501
 4056TIP3    H133727   0.642   0.601   2.462  2.7787 -1.8660 -1.5609
 4056TIP3    H233728   0.664   0.630   2.315 -0.0028  2.4344 -1.3137
 4057TIP3   OH233729   6.168   1.218   1.455  0.6694 -0.6547 -0.2070
 4057TIP3    H133730   6.225   1.249   1.525 -0.4190 -0.6095  0.6916
 4057TIP3    H233731   6.119   1.145   1.493 -3.2213  2.0917  0.7220
 4058TIP3   OH233732   3.663   3.037   3.201 -0.4612 -0.1255 -0.2389
 4058TIP3    H133733   3.726   2.965   3.206 -2.2064 -1.6806  0.8700
 4058TIP3    H233734   3.613   3.021   3.121 -0.1638  0.4884 -0.5553
 4059TIP3   OH233735   0.697   1.746   7.724 -0.2895 -0.7625  0.0241
 4059TIP3    H133736   0.634   1.816   7.710  0.1639  0.0386  1.7642
 4059TIP3    H233737   0.704   1.703   7.639 -2.1419 -0.0221 -0.5473
 4060TIP3   OH233738   6.424   6.388   0.247  0.2284  0.2552 -0.5727
 4060TIP3    H133739   6.483   6.455   0.214  1.2051  0.1622  0.8981
 4060TIP3    H233740   6.471   6.349   0.320 -1.7848  0.3954  0.8715
 4061TIP3   OH233741   5.173   3.532   0.213 -0.6636  0.4368 -0.0008
 4061TIP3    H133742   5.241   3.572   0.267 -0.9142 -0.3762  0.9442
 4061TIP3    H233743   5.206   3.445   0.193 -1.3194  0.1223  0.2663
 4062TIP3   OH233744   3.799   1.312   6.996 -0.4943  0.1152 -0.2110
 4062TIP3    H133745   3.821   1.238   7.052 -3.4207  0.2772  1.3372
 4062TIP3    H233746   3.819   1.282   6.908  2.1715 -0.9628  0.6503
 4063TIP3   OH233747   1.261   1.207   1.924 -0.1477 -0.2912  0.4660
 4063TIP3    H133748   1.280   1.300   1.910  0.4229 -0.5779 -0.8064
 4063TIP3    H233749   1.170   1.206   1.954 -0.1216  0.6831  0.6337
 4064TIP3   OH233750   4.689   0.893   7.489 -0.5457 -0.2032 -0.5293
 4064TIP3    H133751   4.755   0.843   7.537  0.8704 -0.4744 -2.6163
 4064TIP3    H233752   4.671   0.970   7.544  2.0577  0.2351 -0.1999
 4065TIP3   OH233753   5.406   3.226   2.137  0.3643  0.0389  0.0547
 4065TIP3    H133754   5.454   3.173   2.073  0.4402  1.2683 -0.9409
 4065TIP3    H233755   5.432   3.316   2.118 -2.2247  0.7594 -0.4208
 4066TIP3   OH233756   2.674   5.526   0.096  0.1056  0.1496 -0.2811
 4066TIP3    H133757   2.632   5.596   0.146  1.2691 -0.2120  1.3024
 4066TIP3    H233758   2.603   5.465   0.076 -0.7265  1.2240 -0.7395
 4067TIP3   OH233759   1.517   1.249   2.434  0.2989  0.1099  0.0069
 4067TIP3    H133760   1.478   1.326   2.476 -0.5129 -0.4184  0.2486
 4067TIP3    H233761   1.521   1.184   2.503  1.8101  0.1907  0.0368
 4068TIP3   OH233762   2.282   1.048   0.152  0.1346 -0.9624  0.2796
 4068TIP3    H133763   2.222   1.061   0.079  0.9503 -0.1729 -0.2677
 4068TIP3    H233764   2.272   0.956   0.175  0.9724 -1.6391 -1.8281
 4069TIP3   OH233765   0.545   6.771   0.898 -0.0196  0.7678  0.0312
 4069TIP3    H133766   0.555   6.845   0.838  1.2838  1.0572  0.5625
 4069TIP3    H233767   0.603   6.704   0.861  0.2030  0.6736  0.5532
 4070TIP3   OH233768   4.574   6.169   6.993  0.3071  0.1963 -0.0909
 4070TIP3    H133769   4.599   6.212   6.911  1.1635  2.0491  1.0776
 4070TIP3    H233770   4.483   6.143   6.979  1.0713 -1.6049 -2.4157
 4071TIP3   OH233771   2.415   6.574   7.940  0.5256 -0.6750  0.1581
 4071TIP3    H133772   2.382   6.656   7.977 -1.3147 -1.3525  0.0970
 4071TIP3    H233773   2.375   6.568   7.854  0.0315 -1.9829  0.4494
 4072TIP3   OH233774   0.247   2.200   0.935 -0.1396 -0.6289  0.1555
 4072TIP3    H133775   0.172   2.169   0.986  0.1499  0.3183  1.1712
 4072TIP3    H233776   0.304   2.243   0.998 -0.6551  2.2526 -1.2008
 4073TIP3   OH233777   3.732   5.961   8.225 -0.3003 -0.1390  0.0325
 4073TIP3    H133778   3.671   5.914   8.282 -0.1919 -0.7369 -0.3392
 4073TIP3    H233779   3.749   5.901   8.152 -1.0911  0.9387 -1.0806
 4074TIP3   OH233780   2.847   3.312   8.481 -0.4726  0.3329  0.1905
 4074TIP3    H133781   2.810   3.371   8.547  2.0713  0.2012  1.8763
 4074TIP3    H233782   2.903   3.369   8.428 -0.6894  0.0201 -0.3798
 4075TIP3   OH233783   2.629   5.745   8.384 -0.4622 -0.2710  0.2389
 4075TIP3    H133784   2.630   5.710   8.473 -2.4697  1.0851  0.8643
 4075TIP3    H233785   2.559   5.696   8.341 -1.8192  1.3974  0.4783
 4076TIP3   OH233786   4.968   5.507   0.558  0.0831 -0.4432 -0.0195
 4076TIP3    H133787   4.918   5.576   0.513 -0.5297 -0.5337  0.4965
 4076TIP3    H233788   5.032   5.478   0.494 -0.2905 -0.0628 -0.5809
 4077TIP3   OH233789   2.742   3.627   7.492 -0.1778  0.3590  0.3201
 4077TIP3    H133790   2.673   3.562   7.482  0.1312  0.0484  0.1708
 4077TIP3    H233791   2.705   3.692   7.551 -0.6104  0.2169  0.2114
 4078TIP3   OH233792   0.697   4.380   8.131 -0.1292 -0.5831 -0.4501
 4078TIP3    H133793   0.744   4.298   8.146  1.2727 -0.1967 -2.3474
 4078TIP3    H233794   0.605   4.355   8.131  0.0487 -1.5766  2.1248
 4079TIP3   OH233795   5.018   1.381   7.969  0.2848  0.0697 -0.0051
 4079TIP3    H133796   4.930   1.343   7.977  0.2853  0.1873  0.6410
 4079TIP3    H233797   5.066   1.344   8.043  1.4486 -1.7420 -1.5764
 4080TIP3   OH233798   0.913   1.915   7.796 -0.5738  0.7727  0.4091
 4080TIP3    H133799   0.910   1.921   7.701  0.6744  0.2652  0.3105
 4080TIP3    H233800   0.857   1.840   7.817  0.0931  0.1292 -0.0459
 4081TIP3   OH233801   2.440   0.426   0.509  0.2056 -0.3611 -0.5860
 4081TIP3    H133802   2.414   0.491   0.574 -0.0368 -1.0284 -0.0090
 4081TIP3    H233803   2.362   0.371   0.497  1.0188 -1.7863  0.4366
 4082TIP3   OH233804   6.273   1.795   0.553  0.0188  0.2946  0.4212
 4082TIP3    H133805   6.342   1.856   0.576  0.7421  0.2676 -1.5394
 4082TIP3    H233806   6.280   1.784   0.458 -3.1146  0.8516  0.0135
 4083TIP3   OH233807   0.290   1.204   2.938 -0.0241 -0.3397 -0.1602
 4083TIP3    H133808   0.225   1.198   2.868 -1.6783  0.7527  1.2117
 4083TIP3    H233809   0.280   1.123   2.987 -1.0139  0.1912  0.5560
 4084TIP3   OH233810   4.754   1.309   8.037 -0.1678  0.2906  0.0309
 4084TIP3    H133811   4.783   1.268   8.119  0.5810  0.6895 -0.0182
 4084TIP3    H233812   4.708   1.240   7.990  0.7908 -0.4130  0.0877
 4085TIP3   OH233813   4.641   5.266   0.430 -0.1047 -0.2443  0.1640
 4085TIP3    H133814   4.634   5.175   0.402 -1.4814 -0.4276  1.0349
 4085TIP3    H233815   4.702   5.265   0.504 -0.2389 -0.4801  0.2698
 4086TIP3   OH233816   4.342   4.044   7.279  0.1399  0.1751 -0.1844
 4086TIP3    H133817   4.321   4.082   7.194 -1.1418  2.1732  0.9398
 4086TIP3    H233818   4.434   4.067   7.293  0.2978  0.0146 -0.9338
 4087TIP3   OH233819   2.133   6.390   7.983  0.3943 -0.2200 -0.1544
 4087TIP3    H133820   2.172   6.340   8.055  0.9339 -2.7238 -2.0251
 4087TIP3    H233821   2.201   6.392   7.916 -0.5451  0.8862 -1.1180
 4088TIP3   OH233822   6.753   3.083   7.710 -0.1307 -0.1049  0.0661
 4088TIP3    H133823   6.686   3.151   7.702 -0.5415 -0.5736 -0.5284
 4088TIP3    H233824   6.832   3.130   7.737 -0.5698  0.5184  0.2793
 4089TIP3   OH233825   0.728   2.596   0.607 -0.0901  0.6852  0.4552
 4089TIP3    H133826   0.818   2.588   0.637  0.1045 -0.9716 -0.4606
 4089TIP3    H233827   0.725   2.682   0.564  1.1259  0.6581  0.2749
 4090TIP3   OH233828   4.196   5.941   7.610  0.2648 -0.8106  0.1488
 4090TIP3    H133829   4.160   5.892   7.535  1.0563  0.1349 -0.8932
 4090TIP3    H233830   4.246   6.012   7.569 -0.4824  0.6117  1.5826
 4091TIP3   OH233831   1.295   6.601   0.551 -0.7487  0.0433 -0.0437
 4091TIP3    H133832   1.382   6.614   0.514 -0.9333  1.5494 -0.0155
 4091TIP3    H233833   1.297   6.512   0.587  0.7887  0.0793  0.0248
 4092TIP3   OH233834   5.840   1.656   1.284 -0.2507 -0.0238 -0.1033
 4092TIP3    H133835   5.850   1.712   1.361 -0.5271  0.0964 -0.1522
 4092TIP3    H233836   5.884   1.574   1.308 -0.0293  0.1397  0.0480
 4093TIP3   OH233837   6.582   0.271   0.767  0.1906 -0.2596 -0.5853
 4093TIP3    H133838   6.623   0.309   0.689 -1.8480  1.4351 -0.9115
 4093TIP3    H233839   6.602   0.333   0.837  1.8585 -1.6881  0.2881
 4094TIP3   OH233840   0.615   1.944   2.689  0.1210  0.6397  0.3430
 4094TIP3    H133841   0.605   2.030   2.729  0.5667  1.4537 -1.1877
 4094TIP3    H233842   0.660   1.891   2.755 -2.0804  0.8805  2.1611
 4095TIP3   OH233843   4.666   3.419   2.546 -0.5479 -0.1782 -0.4349
 4095TIP3    H133844   4.622   3.403   2.629 -2.5016  0.8990 -1.1906
 4095TIP3    H233845   4.671   3.333   2.504 -0.7177 -0.5211  0.2339
 4096TIP3   OH233846   0.784   0.893   1.730 -0.0501  0.5298  0.0939
 4096TIP3    H133847   0.828   0.915   1.648 -0.3253 -0.7213 -0.4081
 4096TIP3    H233848   0.691   0.902   1.711 -0.1401 -0.3937  0.0672
 4097TIP3   OH233849   6.555   6.594   0.115  0.0250 -0.2410  0.6100
 4097TIP3    H133850   6.500   6.672   0.122  0.5795  0.2207 -0.0852
 4097TIP3    H233851   6.595   6.600   0.028  0.5174 -1.0088  0.7704
 4098TIP3   OH233852   2.954   5.160   0.840  0.4561 -0.1720 -0.0891
 4098TIP3    H133853   3.011   5.214   0.894  0.7689  2.0917 -2.5248
 4098TIP3    H233854   2.995   5.158   0.754 -0.8885 -2.2173 -0.7788
 4099TIP3   OH233855   4.054   1.838   0.809  0.3121 -0.4119 -0.1195
 4099TIP3    H133856   3.998   1.870   0.739 -1.3468 -2.8024 -0.0233
 4099TIP3    H233857   4.138   1.820   0.767  0.7298  2.0734 -0.5232
 4100TIP3   OH233858   4.550   4.589   0.054 -0.0267 -0.1855 -0.1023
 4100TIP3    H133859   4.533   4.677   0.020  0.9352 -0.3516 -1.0566
 4100TIP3    H233860   4.558   4.602   0.149 -0.7829  0.6025 -0.1324
 4101TIP3   OH233861   6.226   3.287   2.535  0.0965 -0.1573 -0.1700
 4101TIP3    H133862   6.249   3.223   2.603 -0.3631  0.1789  0.3130
 4101TIP3    H233863   6.266   3.253   2.455  2.3005  0.4242  0.6098
 4102TIP3   OH233864   3.101   2.863   1.675 -0.4574 -0.3484  0.4455
 4102TIP3    H133865   3.196   2.858   1.662 -0.7133 -1.7396 -1.3116
 4102TIP3    H233866   3.087   2.947   1.719  1.3844  0.9442 -1.2606
 4103TIP3   OH233867   3.803   4.819   0.792 -0.2187 -0.1189 -0.5176
 4103TIP3    H133868   3.810   4.912   0.770 -0.1816  0.0097  0.0308
 4103TIP3    H233869   3.712   4.808   0.819  0.1128  0.0463  0.7093
 4104TIP3   OH233870   2.263   4.014   1.700 -0.0586  0.0496 -0.0618
 4104TIP3    H133871   2.345   3.983   1.740 -0.9270 -0.8881  1.0576
 4104TIP3    H233872   2.284   4.023   1.607  1.4834  0.4135  0.2844
 4105TIP3   OH233873   4.843   4.020   8.745  0.1513 -0.2848  0.5690
 4105TIP3    H133874   4.775   3.954   8.742 -2.1769  1.9925 -1.8536
 4105TIP3    H233875   4.849   4.044   8.838 -2.3946 -0.6070  0.8900
 4106TIP3   OH233876   4.243   4.128   1.160  0.0022  0.2417  0.1675
 4106TIP3    H133877   4.278   4.171   1.082  1.6169 -0.1641  0.6325
 4106TIP3    H233878   4.216   4.201   1.216  0.2725  0.5790 -0.1316
 4107TIP3   OH233879   0.707   5.316   8.452 -0.3890  0.0344  0.1150
 4107TIP3    H133880   0.614   5.328   8.437 -0.3647  1.5917  0.9836
 4107TIP3    H233881   0.730   5.382   8.517  1.5091  0.3237 -0.7582
 4108TIP3   OH233882   6.545   3.914   0.954  0.1055  0.1174 -0.5074
 4108TIP3    H133883   6.624   3.887   0.907 -1.0200 -1.7132 -1.4861
 4108TIP3    H233884   6.503   3.978   0.897 -1.6281 -2.6205 -2.5759
 4109TIP3   OH233885   0.384   6.096   0.524  0.0191 -0.4158  0.5471
 4109TIP3    H133886   0.315   6.031   0.514  0.7395 -0.9974 -0.8843
 4109TIP3    H233887   0.384   6.145   0.441 -0.1608  1.0807  1.3881
 4110TIP3   OH233888   6.635   4.916   7.714  0.4199  0.4088  0.5037
 4110TIP3    H133889   6.557   4.969   7.699 -2.4713 -3.2248  1.4113
 4110TIP3    H233890   6.665   4.942   7.802 -1.5849 -0.0846  1.3944
 4111TIP3   OH233891   4.625   2.808   0.358 -0.0648  0.4431  0.2988
 4111TIP3    H133892   4.707   2.768   0.331  0.7324  0.6499  2.2088
 4111TIP3    H233893   4.598   2.757   0.435 -1.9086  0.1839 -0.4608
 4112TIP3   OH233894   1.620   6.010   0.694 -0.1955 -0.0132  0.0176
 4112TIP3    H133895   1.578   6.006   0.780 -0.8105  1.6806 -0.1801
 4112TIP3    H233896   1.665   6.094   0.693  0.4815 -0.3745 -1.0229
 4113TIP3   OH233897   5.680   0.670   2.458 -0.1625 -0.1311 -0.1745
 4113TIP3    H133898   5.661   0.658   2.365 -3.6704 -0.3072  0.4273
 4113TIP3    H233899   5.654   0.760   2.476  2.1460  0.4913  0.3795
 4114TIP3   OH233900   5.000   1.287   1.038 -0.2131  0.0373  0.1280
 4114TIP3    H133901   5.083   1.246   1.063 -0.4015  0.2741  1.1683
 4114TIP3    H233902   5.006   1.296   0.942  1.6286  1.4687  0.3050
 4115TIP3   OH233903   5.365   6.368   1.854  0.4659 -0.3926 -0.1383
 4115TIP3    H133904   5.461   6.374   1.850  0.4801  2.3718  1.5127
 4115TIP3    H233905   5.335   6.425   1.783 -0.0141 -1.6340 -0.9624
 4116TIP3   OH233906   5.752   5.492   1.246 -0.2546  0.5601  0.7934
 4116TIP3    H133907   5.780   5.582   1.231  0.4936  0.5254  1.8579
 4116TIP3    H233908   5.677   5.480   1.187  0.1582  1.5974  0.0274
 4117TIP3   OH233909   0.809   1.945   8.734  0.0838  0.2341 -0.0402
 4117TIP3    H133910   0.753   1.883   8.782  0.7217  0.0684  0.5222
 4117TIP3    H233911   0.867   1.889   8.682 -0.5505  0.4138 -0.9543
 4118TIP3   OH233912   5.968   0.195   8.488 -1.0447  0.0406 -0.0980
 4118TIP3    H133913   6.048   0.144   8.476 -0.6945  0.8311 -1.3028
 4118TIP3    H233914   5.910   0.166   8.417 -1.6892 -0.2614  0.5429
 4119TIP3   OH233915   0.977   0.390   7.312  0.4262 -0.9273 -0.0330
 4119TIP3    H133916   0.966   0.303   7.349  1.2561 -1.4267 -0.9169
 4119TIP3    H233917   0.890   0.429   7.317 -0.1027 -2.0456 -0.2297
 4120TIP3   OH233918   1.966   4.559   1.331 -0.0291  0.0420 -0.1175
 4120TIP3    H133919   1.913   4.637   1.313 -1.0021  0.0817  2.5601
 4120TIP3    H233920   2.055   4.586   1.307 -0.4729  1.7095 -0.0302
 4121TIP3   OH233921   4.417   4.350   2.311 -0.0811  0.5764  0.0533
 4121TIP3    H133922   4.374   4.335   2.396  2.8257  1.2161  1.7771
 4121TIP3    H233923   4.428   4.263   2.274 -0.4924  0.1968  0.7916
 4122TIP3   OH233924   1.661   3.131   1.015 -0.2270  0.2331 -0.4168
 4122TIP3    H133925   1.664   3.048   0.967  0.9917  0.2169 -0.3664
 4122TIP3    H233926   1.578   3.130   1.062 -0.6125 -0.5678 -1.1118
 4123TIP3   OH233927   4.373   6.688   1.465 -0.2645 -0.0403 -0.3274
 4123TIP3    H133928   4.424   6.749   1.518 -0.7183 -0.6640  0.8486
 4123TIP3    H233929   4.322   6.638   1.528 -2.1866  0.4077 -1.4523
 4124TIP3   OH233930   2.648   0.361   1.932  0.3599 -0.2092 -0.2364
 4124TIP3    H133931   2.732   0.318   1.912  0.6336  1.0549 -2.0918
 4124TIP3    H233932   2.649   0.374   2.027  0.8798 -2.9486  0.2121
 4125TIP3   OH233933   3.000   0.974   1.706  0.0367 -0.2262 -0.5886
 4125TIP3    H133934   3.029   0.996   1.795  0.2040  1.9682 -1.1322
 4125TIP3    H233935   3.080   0.976   1.654 -0.3702  0.8759 -1.1959
 4126TIP3   OH233936   3.528   3.560   1.211 -0.1952 -0.5058 -0.2944
 4126TIP3    H133937   3.470   3.603   1.274  0.6941  0.2633  0.0261
 4126TIP3    H233938   3.504   3.598   1.126 -0.7636 -0.8582 -0.2940
 4127TIP3   OH233939   6.141   5.230   0.655  0.0947 -0.1171 -0.0443
 4127TIP3    H133940   6.214   5.167   0.653 -0.2581 -0.5822  0.9265
 4127TIP3    H233941   6.087   5.205   0.580  0.5301 -0.2784 -0.3085
 4128TIP3   OH233942   5.447   3.289   7.123 -0.5435 -0.0944  0.3088
 4128TIP3    H133943   5.406   3.203   7.114  0.8813 -0.7553 -0.0642
 4128TIP3    H233944   5.373   3.350   7.130 -1.5847 -1.2456 -0.3335
 4129TIP3   OH233945   3.147   5.862   1.363  0.1320 -0.4855  0.2347
 4129TIP3    H133946   3.054   5.848   1.382 -0.0887 -0.5951 -0.8769
 4129TIP3    H233947   3.168   5.945   1.406 -0.9111  0.3776 -0.8894
 4130TIP3   OH233948   2.988   1.871   8.609  0.2324  0.2792  0.3284
 4130TIP3    H133949   2.979   1.825   8.526  0.2621 -0.6082  0.8009
 4130TIP3    H233950   2.922   1.831   8.666  0.9684  0.0693  1.0652
 4131TIP3   OH233951   6.299   1.414   1.276 -0.0215  0.1591  0.1630
 4131TIP3    H133952   6.326   1.492   1.326  0.7082 -0.1545  0.2684
 4131TIP3    H233953   6.223   1.380   1.324  0.3813  0.1330  0.7955
 4132TIP3   OH233954   0.146   1.760   3.242  0.4519  0.1528 -0.2528
 4132TIP3    H133955   0.051   1.774   3.244  0.3432 -0.2476 -1.5950
 4132TIP3    H233956   0.157   1.680   3.190  1.5034 -0.0678  0.2945
 4133TIP3   OH233957   4.389   5.231   1.382 -0.5862  0.3567  0.2079
 4133TIP3    H133958   4.303   5.232   1.340 -0.6896 -1.3938  0.3144
 4133TIP3    H233959   4.409   5.138   1.395  1.3142  0.7233  0.2249
 4134TIP3   OH233960   4.261   3.615   0.908  0.4490  0.2595 -0.6572
 4134TIP3    H133961   4.327   3.666   0.955 -0.0374  0.8905 -0.6507
 4134TIP3    H233962   4.198   3.679   0.878  1.1176 -0.0487 -2.8398
 4135TIP3   OH233963   0.387   5.162   8.568 -0.4230 -0.0739 -0.1332
 4135TIP3    H133964   0.364   5.237   8.513  1.2629 -0.0616 -0.8778
 4135TIP3    H233965   0.313   5.102   8.557 -0.8878  0.6388 -1.0929
 4136TIP3   OH233966   3.231   3.606   0.484 -0.0374  0.2328  0.8046
 4136TIP3    H133967   3.175   3.662   0.538  0.2022  2.3639 -1.0091
 4136TIP3    H233968   3.173   3.536   0.454 -0.7310  0.2895  1.9524
 4137TIP3   OH233969   0.659   0.546   0.708 -0.4634 -0.4888 -0.1925
 4137TIP3    H133970   0.564   0.553   0.695 -0.3182 -1.4969 -2.3791
 4137TIP3    H233971   0.675   0.587   0.793 -2.8099 -0.0304  0.1077
 4138TIP3   OH233972   3.316   3.096   2.630 -0.6736  0.1665  0.4335
 4138TIP3    H133973   3.239   3.067   2.678 -1.0875 -0.7808 -0.7618
 4138TIP3    H233974   3.367   3.145   2.694 -0.3248 -2.4957  2.3662
 4139TIP3   OH233975   2.476   2.870   8.326 -0.5810  0.7966 -0.0811
 4139TIP3    H133976   2.409   2.912   8.273 -0.9628  1.4117  0.8712
 4139TIP3    H233977   2.542   2.938   8.342 -0.1508  0.4371 -0.3051
 4140TIP3   OH233978   0.175   1.298   0.667 -0.0743  0.4573  0.7934
 4140TIP3    H133979   0.229   1.292   0.746  1.4019  0.7003 -0.1605
 4140TIP3    H233980   0.180   1.391   0.641  1.5773 -0.0455 -0.9572
 4141TIP3   OH233981   2.864   4.666   2.352  0.2277  0.3495  0.3464
 4141TIP3    H133982   2.777   4.629   2.340 -1.1432  3.1152  0.9814
 4141TIP3    H233983   2.918   4.592   2.380 -2.3306 -1.1164  1.7429
 4142TIP3   OH233984   2.982   1.508   1.736 -0.1164  0.2243  0.1141
 4142TIP3    H133985   2.990   1.576   1.803 -0.6828  0.0351  0.3824
 4142TIP3    H233986   3.070   1.500   1.698  0.4733 -0.3635  1.5283
 4143TIP3   OH233987   5.510   6.603   2.639 -0.1703  0.1175  0.2342
 4143TIP3    H133988   5.524   6.626   2.730  1.4763  2.8526 -0.6003
 4143TIP3    H233989   5.424   6.638   2.618 -0.3762 -0.1576  0.6067
 4144TIP3   OH233990   2.130   4.047   1.949 -0.0939 -0.2098 -0.3973
 4144TIP3    H133991   2.158   4.028   1.859  0.9410  0.4819 -0.2455
 4144TIP3    H233992   2.169   4.132   1.968 -0.2635 -0.3706  0.7284
 4145TIP3   OH233993   4.974   5.664   7.955 -0.3748 -0.1339  0.4892
 4145TIP3    H133994   4.931   5.660   7.870  0.9675  1.2707 -0.2962
 4145TIP3    H233995   5.019   5.748   7.956  2.2557 -1.4257  1.3107
 4146TIP3   OH233996   2.661   0.621   0.853  1.0393  0.2474 -0.1904
 4146TIP3    H133997   2.610   0.612   0.934 -1.3706 -0.3519 -1.6947
 4146TIP3    H233998   2.662   0.534   0.815  0.5646  0.8742 -1.6978
 4147TIP3   OH233999   2.331   4.859   1.521  0.2127 -0.4866  0.0114
 4147TIP3    H134000   2.347   4.813   1.604 -1.3928  0.0750  0.6793
 4147TIP3    H234001   2.245   4.900   1.533 -0.6257 -1.3743 -2.3897
 4148TIP3   OH234002   1.246   1.110   8.336 -0.5468 -0.5870  0.0999
 4148TIP3    H134003   1.211   1.101   8.247  0.9680  0.8704 -0.7053
 4148TIP3    H234004   1.311   1.040   8.344 -1.6875 -1.6075  0.6042
 4149TIP3   OH234005   4.978   3.038   8.005  0.1598 -0.4975 -0.1862
 4149TIP3    H134006   4.912   3.010   8.068 -0.3029 -1.2270 -0.9772
 4149TIP3    H234007   4.934   3.105   7.953  0.4907 -0.0065  0.1621
 4150TIP3   OH234008   5.718   2.593   8.739  0.2977 -0.4098  0.2691
 4150TIP3    H134009   5.652   2.566   8.675  1.8585 -2.3270 -0.6845
 4150TIP3    H234010   5.741   2.682   8.714  0.4610 -0.9240 -1.5498
 4151TIP3   OH234011   3.824   6.212   7.621  0.6550 -0.2389 -0.0395
 4151TIP3    H134012   3.898   6.212   7.560 -1.3091 -0.1949 -2.5642
 4151TIP3    H234013   3.806   6.120   7.639  2.0321 -0.2434  1.6367
 4152TIP3   OH234014   1.942   3.593   7.864 -0.1883 -0.4413 -0.4192
 4152TIP3    H134015   1.997   3.518   7.839  1.7316  1.2231 -1.5077
 4152TIP3    H234016   1.992   3.638   7.931 -1.0954  0.1489 -0.1260
 4153TIP3   OH234017   5.295   6.583   2.355  0.0249 -0.3949 -0.3566
 4153TIP3    H134018   5.208   6.593   2.393 -0.4089 -0.4266 -1.2944
 4153TIP3    H234019   5.290   6.633   2.273  0.5140 -1.3537 -0.9840
 4154TIP3   OH234020   2.591   4.171   0.423  0.3548  0.1395 -0.2034
 4154TIP3    H134021   2.525   4.108   0.450  1.8816 -2.0947 -1.3395
 4154TIP3    H234022   2.609   4.222   0.502 -2.1427  0.3519  0.3087
 4155TIP3   OH234023   6.058   4.096   7.273 -0.3577 -0.0327 -0.3645
 4155TIP3    H134024   6.127   4.034   7.298 -0.3152 -0.4484 -1.4790
 4155TIP3    H234025   6.062   4.164   7.341  1.1238 -0.0633 -0.3753
 4156TIP3   OH234026   1.743   1.421   8.188  0.0187 -0.7833  0.2536
 4156TIP3    H134027   1.737   1.505   8.233 -0.4380 -0.0151 -1.2053
 4156TIP3    H234028   1.720   1.357   8.255  0.2453  0.2450  1.3549
 4157TIP3   OH234029   5.899   6.459   6.562 -0.0607  0.1959  0.5104
 4157TIP3    H134030   5.966   6.405   6.604  0.3804  1.0930  0.9811
 4157TIP3    H234031   5.826   6.399   6.547  0.5339 -0.6047  0.7315
 4158TIP3   OH234032   1.544   4.840   0.421 -0.0681  0.0741 -0.2973
 4158TIP3    H134033   1.613   4.905   0.409  0.5342 -0.4932  0.0316
 4158TIP3    H234034   1.503   4.864   0.504  0.1267  0.0617 -0.1956
 4159TIP3   OH234035   1.378   0.522   1.906  0.1144 -0.2379 -0.2410
 4159TIP3    H134036   1.428   0.602   1.890  0.4708  0.0570  2.0973
 4159TIP3    H234037   1.313   0.521   1.836  0.6370  1.6395 -0.8221
 4160TIP3   OH234038   1.875   2.439   1.021 -0.1601  0.8094 -0.2198
 4160TIP3    H134039   1.928   2.518   1.019  0.4070  0.5627  2.3627
 4160TIP3    H234040   1.921   2.380   1.080 -2.9239  0.3485  1.6646
 4161TIP3   OH234041   5.598   3.846   1.597  0.3249 -0.3853  0.9552
 4161TIP3    H134042   5.549   3.771   1.564  0.6855 -0.7445  1.2177
 4161TIP3    H234043   5.585   3.844   1.692  1.8309 -1.2247  1.1766
 4162TIP3   OH234044   5.944   0.236   7.605 -0.3625 -0.1186 -0.7305
 4162TIP3    H134045   6.003   0.266   7.675  1.7489 -1.8030 -1.6728
 4162TIP3    H234046   5.881   0.179   7.650 -1.5150  1.8826  0.3338
 4163TIP3   OH234047   5.288   2.689   6.752 -0.3987 -0.3218  0.1667
 4163TIP3    H134048   5.329   2.675   6.666 -1.6836 -1.3898 -0.3160
 4163TIP3    H234049   5.341   2.637   6.812  1.1468  1.2556  0.2610
 4164TIP3   OH234050   1.007   3.163   0.353  0.4650  0.2773 -0.0477
 4164TIP3    H134051   1.066   3.199   0.286  0.2452 -1.0262 -0.9650
 4164TIP3    H234052   0.931   3.132   0.304  0.4602 -1.0210  0.7529
 4165TIP3   OH234053   0.507   6.314   1.057 -0.3353  0.8137 -0.4357
 4165TIP3    H134054   0.465   6.400   1.059  1.0930  1.5556 -0.9633
 4165TIP3    H234055   0.598   6.332   1.079  0.0454 -0.5323 -0.8418
 4166TIP3   OH234056   3.711   1.300   7.624  0.5359 -0.0174  0.2279
 4166TIP3    H134057   3.792   1.341   7.653  1.2027 -0.2688 -1.2195
 4166TIP3    H234058   3.739   1.224   7.574 -0.6627 -2.1418  2.5762
 4167TIP3   OH234059   4.181   0.637   1.630  0.3711 -0.5176  0.0843
 4167TIP3    H134060   4.215   0.627   1.719  1.3801 -1.9751 -0.4150
 4167TIP3    H234061   4.246   0.594   1.575  0.8115  2.0917 -1.6177
 4168TIP3   OH234062   4.912   3.532   0.167 -0.4047  0.4898 -0.4084
 4168TIP3    H134063   4.881   3.466   0.228  0.5760  1.4542  1.2275
 4168TIP3    H234064   5.007   3.533   0.180 -0.4900  3.1265  0.6756
 4169TIP3   OH234065   5.797   5.015   1.669  0.1982 -0.3221  0.2636
 4169TIP3    H134066   5.886   5.001   1.701 -0.3055  0.3354  2.1403
 4169TIP3    H234067   5.756   5.068   1.738 -1.7421 -0.9204 -0.3733
 4170TIP3   OH234068   2.347   1.628   6.884  0.7261 -0.6081  0.3589
 4170TIP3    H134069   2.430   1.667   6.859  0.8168  0.5239  2.2415
 4170TIP3    H234070   2.370   1.548   6.932  0.6371 -1.3696 -0.8350
 4171TIP3   OH234071   2.127   3.550   6.861 -0.4069  0.0080  0.2188
 4171TIP3    H134072   2.046   3.502   6.880  0.2754 -1.9481 -1.4472
 4171TIP3    H234073   2.197   3.494   6.895  0.3568  0.7485 -0.0944
 4172TIP3   OH234074   3.917   1.909   1.142  0.1511  0.1219  0.2086
 4172TIP3    H134075   3.899   1.999   1.171  0.1764  0.4943 -0.8772
 4172TIP3    H234076   3.874   1.854   1.207 -0.5843  0.9386  0.4348
 4173TIP3   OH234077   4.533   6.743   7.508 -0.1585  0.3683  0.6185
 4173TIP3    H134078   4.564   6.750   7.598  0.5766 -1.0961  0.5120
 4173TIP3    H234079   4.566   6.822   7.465  1.6617 -0.1126  1.0422
 4174TIP3   OH234080   2.476   0.547   1.040  0.1175 -0.3860 -0.3224
 4174TIP3    H134081   2.404   0.502   1.084  0.0996  0.0588  0.1113
 4174TIP3    H234082   2.463   0.640   1.061  1.0228 -0.3330  0.0829
 4175TIP3   OH234083   4.607   0.008   1.581 -0.6057  0.1997  0.0708
 4175TIP3    H134084   4.680   0.042   1.530 -0.5220  0.5525  0.4205
 4175TIP3    H234085   4.579   0.082   1.636 -1.2043  0.0610 -0.0382
 4176TIP3   OH234086   6.540   5.095   1.004  0.7795 -0.0206 -0.1563
 4176TIP3    H134087   6.486   5.144   0.942  1.0320  1.5421  0.8052
 4176TIP3    H234088   6.484   5.082   1.080  0.9305 -0.6723 -0.1488
 4177TIP3   OH234089   4.695   0.845   0.157 -0.5160  0.1570  0.3590
 4177TIP3    H134090   4.760   0.797   0.106  0.2187  1.4950 -0.0135
 4177TIP3    H234091   4.747   0.904   0.212 -1.3794  0.4474  0.8829
 4178TIP3   OH234092   2.892   3.943   0.541 -0.1427 -0.2421  0.0018
 4178TIP3    H134093   2.800   3.917   0.552 -0.1157  0.3111  1.8047
 4178TIP3    H234094   2.918   3.904   0.457 -2.3557  0.5419 -1.1398
 4179TIP3   OH234095   1.606   0.464   7.429  0.3459  0.0284 -0.2913
 4179TIP3    H134096   1.595   0.558   7.414  1.5512  0.1459 -0.5052
 4179TIP3    H234097   1.697   0.446   7.407 -0.1399 -1.4064 -1.2928
 4180TIP3   OH234098   3.183   6.414   1.316  0.6266 -0.0959 -0.3196
 4180TIP3    H134099   3.251   6.375   1.261  0.6693  0.1151 -0.4189
 4180TIP3    H234100   3.104   6.413   1.261  0.1711 -1.6821  0.3026
 4181TIP3   OH234101   0.950   5.095   2.612 -0.0791 -0.0233  0.2869
 4181TIP3    H134102   0.995   5.117   2.693  1.2298  0.7406 -0.6091
 4181TIP3    H234103   0.941   4.999   2.615  0.7034 -0.0933  0.9551
 4182TIP3   OH234104   4.525   0.190   0.818  0.2758  0.3882  0.2608
 4182TIP3    H134105   4.528   0.185   0.914 -0.2776 -0.7652  0.2437
 4182TIP3    H234106   4.461   0.122   0.793  0.5229  0.5723 -0.9317
 4183TIP3   OH234107   5.808   4.343   7.879 -0.2100  0.1311 -0.2289
 4183TIP3    H134108   5.757   4.294   7.944 -1.3374 -1.8337 -2.4540
 4183TIP3    H234109   5.750   4.414   7.852  0.3548  1.1008  1.0140
 4184TIP3   OH234110   3.043   2.172   2.041  0.6130 -0.7349  0.2839
 4184TIP3    H134111   3.091   2.165   2.123  1.0647  0.0995  0.1106
 4184TIP3    H234112   3.019   2.265   2.035  0.8287 -0.7237 -0.6512
 4185TIP3   OH234113   0.158   6.752   0.809 -0.3608 -0.3832  0.2892
 4185TIP3    H134114   0.230   6.690   0.816 -1.0340 -1.1703  0.4932
 4185TIP3    H234115   0.135   6.751   0.716 -1.4597 -1.7519  0.5423
 4186TIP3   OH234116   3.033   2.035   7.849  0.1459  0.6670 -0.6702
 4186TIP3    H134117   3.075   2.084   7.779  0.6647  1.0531 -0.0997
 4186TIP3    H234118   2.980   2.101   7.895 -1.8168  0.0363 -1.8904
 4187TIP3   OH234119   1.662   0.305   7.069 -0.9461  0.6813 -0.3975
 4187TIP3    H134120   1.661   0.245   6.995  0.1801 -0.2901  0.3443
 4187TIP3    H234121   1.634   0.389   7.033 -1.6089 -0.0655 -1.6510
 4188TIP3   OH234122   2.165   1.457   1.132 -0.0945  0.5407  0.4641
 4188TIP3    H134123   2.084   1.504   1.110 -0.3436 -0.4921 -0.9843
 4188TIP3    H234124   2.230   1.494   1.073 -0.1698 -0.5172 -0.3094
 4189TIP3   OH234125   4.354   1.582   2.084 -0.5831  0.4149  0.2549
 4189TIP3    H134126   4.266   1.594   2.120 -0.4526  0.1880  0.6511
 4189TIP3    H234127   4.407   1.553   2.159 -0.4294 -0.6170 -0.2436
 4190TIP3   OH234128   6.596   6.041   6.629 -0.3341  1.2286  0.3196
 4190TIP3    H134129   6.575   6.002   6.713  0.2432  0.2770  0.0452
 4190TIP3    H234130   6.603   6.135   6.647  3.9538  0.7866  2.3401
 4191TIP3   OH234131   3.981   0.654   0.540  0.3723 -0.0898 -0.0952
 4191TIP3    H134132   3.983   0.694   0.453  0.6331 -0.3494 -0.2085
 4191TIP3    H234133   3.940   0.569   0.527  0.2155 -0.0407  0.0734
 4192TIP3   OH234134   3.809   0.248   7.623 -0.0463 -0.5758 -0.3916
 4192TIP3    H134135   3.788   0.331   7.667  0.1813 -0.6786 -0.0811
 4192TIP3    H234136   3.898   0.259   7.590 -0.3819 -0.3395 -1.2223
 4193TIP3   OH234137   1.817   2.083   1.592  0.8956 -0.2836 -0.0215
 4193TIP3    H134138   1.863   2.036   1.522  1.8367  0.8682 -0.2063
 4193TIP3    H234139   1.732   2.106   1.554  1.5068  0.5911 -0.9174
 4194TIP3   OH234140   3.035   5.226   1.456 -0.3946  0.6269  0.0815
 4194TIP3    H134141   3.085   5.252   1.379  1.2717  2.1542  1.5871
 4194TIP3    H234142   2.955   5.188   1.421  0.6684  0.4802 -2.3958
 4195TIP3   OH234143   3.733   3.922   1.759  0.1519 -0.0068 -0.2501
 4195TIP3    H134144   3.728   3.832   1.792 -2.0446  0.0829 -0.1484
 4195TIP3    H234145   3.654   3.964   1.793  0.7165  1.7404 -0.9778
 4196TIP3   OH234146   5.668   3.427   7.036 -0.5842  0.8936  0.1007
 4196TIP3    H134147   5.666   3.519   7.061 -1.3250  1.3011 -1.3468
 4196TIP3    H234148   5.584   3.392   7.066 -0.1969  0.5955  0.8859
 4197TIP3   OH234149   4.372   0.265   7.919 -0.2120 -0.0092 -0.3934
 4197TIP3    H134150   4.332   0.268   8.006 -1.2608 -0.3048 -0.8496
 4197TIP3    H234151   4.321   0.198   7.872  0.0838  0.4332 -1.3584
 4198TIP3   OH234152   4.675   5.441   0.218 -0.5332  0.1787 -0.2834
 4198TIP3    H134153   4.649   5.383   0.289  0.6497  1.5228  1.3402
 4198TIP3    H234154   4.761   5.409   0.191 -0.1710  0.7331  0.1710
 4199TIP3   OH234155   1.614   0.463   2.228  0.0093 -0.1578 -0.5210
 4199TIP3    H134156   1.669   0.428   2.299  0.3115 -0.9451 -1.1250
 4199TIP3    H234157   1.636   0.556   2.225  0.9132 -0.3544 -0.3876
 4200TIP3   OH234158   6.153   4.698   7.925  0.2146 -0.2520  0.6405
 4200TIP3    H134159   6.131   4.616   7.882 -0.1767 -0.0603  0.4658
 4200TIP3    H234160   6.248   4.704   7.920  0.1168  0.4058 -1.4028
 4201TIP3   OH234161   1.154   1.634   8.367 -0.0284  0.1279  1.1862
 4201TIP3    H134162   1.236   1.601   8.404  0.6760  0.2918 -0.1789
 4201TIP3    H234163   1.174   1.723   8.340 -1.1932  0.8273  2.4869
 4202TIP3   OH234164   0.209   2.519   7.401  0.5804 -0.0884 -0.4381
 4202TIP3    H134165   0.141   2.516   7.334  0.8824 -1.2631 -0.7101
 4202TIP3    H234166   0.162   2.534   7.482 -0.0485 -1.1984 -0.5816
 4203TIP3   OH234167   0.514   3.211   7.897 -0.3682  0.6375 -0.3252
 4203TIP3    H134168   0.518   3.118   7.877 -0.5449  0.3025  1.0963
 4203TIP3    H234169   0.438   3.221   7.953 -0.4665  1.6795 -0.6129
 4204TIP3   OH234170   2.010   3.080   7.663 -0.4004  0.1151 -0.4882
 4204TIP3    H134171   1.926   3.122   7.645 -0.2517  2.1403  2.7188
 4204TIP3    H234172   2.066   3.107   7.591 -1.6101  1.6165 -0.9241
 4205TIP3   OH234173   0.917   0.814   1.362 -0.1612  0.4498  0.3205
 4205TIP3    H134174   0.954   0.770   1.439  0.0047  0.2477  0.1264
 4205TIP3    H234175   0.849   0.872   1.398 -1.3546 -0.9781  0.4703
 4206TIP3   OH234176   0.176   2.549   7.092 -0.3021  1.0213 -0.3763
 4206TIP3    H134177   0.108   2.536   7.158  0.0000  2.6588  0.3059
 4206TIP3    H234178   0.146   2.497   7.017 -1.4415  0.3688  0.4912
 4207TIP3   OH234179   5.040   0.348   0.020 -0.1253 -0.5922 -0.5274
 4207TIP3    H134180   5.011   0.270   0.066  2.1429 -2.0365 -1.3710
 4207TIP3    H234181   4.959   0.390  -0.009 -1.4584 -1.7456  1.2846
 4208TIP3   OH234182   4.112   1.848   2.051  0.0761 -0.1516 -0.3169
 4208TIP3    H134183   4.118   1.929   2.102  0.3263 -0.2441 -0.2010
 4208TIP3    H234184   4.125   1.778   2.114  0.5855 -0.2602 -0.5377
 4209TIP3   OH234185   6.184   6.329   1.096  0.2622 -0.5993 -0.2478
 4209TIP3    H134186   6.174   6.389   1.023 -1.3529 -1.0651 -0.4504
 4209TIP3    H234187   6.277   6.333   1.119  0.3191  1.4558 -0.6735
 4210TIP3   OH234188   3.294   2.409   8.635 -0.2343  0.0063  0.2752
 4210TIP3    H134189   3.356   2.391   8.564  0.5435 -1.1968  1.2175
 4210TIP3    H234190   3.335   2.478   8.686  0.3216 -0.7303  0.8498
 4211TIP3   OH234191   6.459   5.321   8.671 -0.2083  0.2261 -0.4806
 4211TIP3    H134192   6.465   5.412   8.643 -2.0679 -0.0820 -2.1195
 4211TIP3    H234193   6.393   5.282   8.613  0.6149 -2.2086  0.0801
 4212TIP3   OH234194   5.182   3.276   7.411  0.7980  0.3163 -0.4663
 4212TIP3    H134195   5.101   3.327   7.415 -1.0152 -2.4451  1.2901
 4212TIP3    H234196   5.178   3.231   7.326 -0.3228 -0.8992  0.1865
 4213TIP3   OH234197   3.945   5.920   7.873 -0.1821 -0.3296  0.2804
 4213TIP3    H134198   3.915   5.872   7.950  0.0155 -2.6935 -1.0126
 4213TIP3    H234199   4.007   5.861   7.831  1.9041  2.0611 -0.2147
 4214TIP3   OH234200   5.648   5.842   8.398  0.0665  0.1130 -0.2467
 4214TIP3    H134201   5.739   5.815   8.411 -0.0216  0.2595  0.7682
 4214TIP3    H234202   5.596   5.768   8.430 -0.2225 -1.0298 -3.0843
 4215TIP3   OH234203   0.362   0.096   2.268 -0.3689  0.3991  0.2824
 4215TIP3    H134204   0.283   0.044   2.252 -0.1529 -0.4110  1.6634
 4215TIP3    H234205   0.329   0.186   2.278 -1.2793 -0.0640  1.8145
 4216TIP3   OH234206   0.567   3.559   7.565 -0.0214 -0.6585 -0.3976
 4216TIP3    H134207   0.631   3.605   7.511  1.0375  0.0559  1.3944
 4216TIP3    H234208   0.508   3.517   7.501  1.8109 -0.7977 -2.0979
 4217TIP3   OH234209   0.228   0.648   1.806  0.3081 -0.5302 -0.3965
 4217TIP3    H134210   0.143   0.613   1.834  0.6215 -0.2646  0.9632
 4217TIP3    H234211   0.236   0.621   1.714 -2.7789  2.3204 -1.7552
 4218TIP3   OH234212   1.253   5.207   7.530  0.1881 -0.5163 -0.2991
 4218TIP3    H134213   1.268   5.175   7.441  1.0352  2.8787 -1.5060
 4218TIP3    H234214   1.176   5.263   7.523 -0.7014 -1.4085  1.5230
 4219TIP3   OH234215   0.738   6.314   0.169  0.2570  0.5295  0.1929
 4219TIP3    H134216   0.730   6.387   0.108  3.0100  0.6753 -0.1231
 4219TIP3    H234217   0.752   6.355   0.254 -0.2474  0.3436  0.3689
 4220TIP3   OH234218   3.189   1.042   8.434 -0.4190  0.3567  0.0913
 4220TIP3    H134219   3.252   1.010   8.499  0.7395  0.7946 -0.7853
 4220TIP3    H234220   3.151   1.120   8.474 -2.0198 -1.0871  1.5313
 4221TIP3   OH234221   2.089   2.766   0.264 -0.1919  0.2880 -0.2371
 4221TIP3    H134222   2.118   2.821   0.191 -1.2411  1.1296 -0.0366
 4221TIP3    H234223   2.077   2.680   0.226  1.2526  0.2169 -0.6092
 4222TIP3   OH234224   0.368   6.424   0.614  0.0260 -0.2694 -0.8176
 4222TIP3    H134225   0.453   6.395   0.582 -0.4210 -0.0486 -2.2552
 4222TIP3    H234226   0.350   6.366   0.688  0.2400 -2.1242 -2.1410
 4223TIP3   OH234227   2.627   6.089   1.361  0.4548 -0.1305  0.2308
 4223TIP3    H134228   2.701   6.085   1.300  0.5050 -0.9858  0.3318
 4223TIP3    H234229   2.598   5.998   1.370  0.0476  0.0613  0.9909
 4224TIP3   OH234230   0.924   3.386   7.141 -0.5061  0.5621 -0.1255
 4224TIP3    H134231   0.901   3.381   7.233  1.1274 -1.2730  0.2629
 4224TIP3    H234232   1.005   3.437   7.139  0.3376 -0.7440 -0.3161
 4225TIP3   OH234233   0.481   0.792   0.949  0.2385 -0.5429  0.0520
 4225TIP3    H134234   0.502   0.846   1.026  1.6998 -1.4520  0.3243
 4225TIP3    H234235   0.566   0.770   0.912 -0.3294 -2.4215 -0.2169
 4226TIP3   OH234236   6.632   0.418   8.324 -0.1921 -0.1591  0.5035
 4226TIP3    H134237   6.707   0.462   8.284 -0.0025 -0.2487  0.7559
 4226TIP3    H234238   6.650   0.325   8.312 -0.2972 -0.1798  0.5049
 4227TIP3   OH234239   1.893   0.210   8.106 -0.1217  0.0557  0.1983
 4227TIP3    H134240   1.922   0.246   8.022  0.0224 -2.3996 -0.8955
 4227TIP3    H234241   1.799   0.229   8.109  0.2976  2.3072  0.6970
 4228TIP3   OH234242   1.297   6.473   8.681  0.0722 -0.1151  0.4669
 4228TIP3    H134243   1.295   6.381   8.707  1.0895 -0.5352 -0.8852
 4228TIP3    H234244   1.302   6.521   8.764  0.0663 -1.2929  1.1649
 4229TIP3   OH234245   6.502   0.169   8.401 -0.0963 -0.2687 -0.7551
 4229TIP3    H134246   6.424   0.120   8.424 -1.0840  0.8751 -1.5632
 4229TIP3    H234247   6.572   0.127   8.451 -1.2892 -1.0176  0.3546
 4230TIP3   OH234248   5.737   4.762   0.619  0.6474 -0.2862 -0.0772
 4230TIP3    H134249   5.660   4.804   0.582  1.9740  1.2820 -1.1951
 4230TIP3    H234250   5.769   4.703   0.551  0.8210 -0.4227  0.1171
 4231TIP3   OH234251   6.261   2.682   1.785 -1.1114  0.5527  0.6236
 4231TIP3    H134252   6.250   2.591   1.810  1.0075  0.7728  2.8243
 4231TIP3    H234253   6.212   2.692   1.704 -0.8693 -2.6898 -0.0413
 4232TIP3   OH234254   4.944   4.901   8.396 -0.2130  0.1614 -0.2151
 4232TIP3    H134255   4.939   4.995   8.381 -0.2517  0.4744  1.5826
 4232TIP3    H234256   4.853   4.872   8.402 -0.2123  0.4884  1.8257
 4233TIP3   OH234257   4.693   6.218   7.722 -0.1753  0.2754 -0.0595
 4233TIP3    H134258   4.736   6.303   7.727  0.3161  0.0162  0.1953
 4233TIP3    H234259   4.669   6.208   7.630 -2.0512  1.5674  0.2412
 4234TIP3   OH234260   0.168   2.632   2.847 -0.5373  0.1016  0.5590
 4234TIP3    H134261   0.147   2.656   2.757  0.8800 -1.0233 -0.1099
 4234TIP3    H234262   0.196   2.713   2.888 -1.4998  0.6828  0.0935
 4235TIP3   OH234263   2.986   1.153   6.858  0.3724  0.0869 -0.1236
 4235TIP3    H134264   2.971   1.217   6.789  0.8081  1.1059  0.7048
 4235TIP3    H234265   2.943   1.189   6.935  1.1710 -0.2836  0.5190
 4236TIP3   OH234266   1.960   6.197   8.345  0.0482 -0.3701  0.2081
 4236TIP3    H134267   1.939   6.164   8.433  0.1764  0.8334  0.7105
 4236TIP3    H234268   1.919   6.134   8.286 -1.8580 -0.0843  1.1474
 4237TIP3   OH234269   4.676   4.387   8.019 -0.2231 -0.2343  0.2475
 4237TIP3    H134270   4.623   4.426   7.949 -1.5301  1.0197  1.8584
 4237TIP3    H234271   4.763   4.427   8.008 -0.7759  1.0052  0.1248
 4238TIP3   OH234272   2.772   0.147   2.296 -0.2880  0.3296 -0.1686
 4238TIP3    H134273   2.743   0.057   2.314 -0.5151  0.4786  0.2026
 4238TIP3    H234274   2.868   0.140   2.291 -0.2725  0.1544  0.3434
 4239TIP3   OH234275   4.252   1.885   2.712 -0.0821  0.3928  0.4813
 4239TIP3    H134276   4.327   1.872   2.771  0.8214 -3.0712 -1.1684
 4239TIP3    H234277   4.202   1.804   2.719 -1.5262  1.0629 -1.3598
 4240TIP3   OH234278   0.163   3.860   8.108  0.0623  0.0651  0.2855
 4240TIP3    H134279   0.092   3.796   8.096 -1.0808  1.2925  0.3599
 4240TIP3    H234280   0.137   3.911   8.184  0.6689  0.9934 -0.1164
 4241TIP3   OH234281   6.554   3.567   1.828  0.7794  0.3499 -0.4416
 4241TIP3    H134282   6.497   3.641   1.808  0.8685  0.1626 -1.4060
 4241TIP3    H234283   6.505   3.516   1.893  0.9291  1.5051  0.6285
 4242TIP3   OH234284   6.082   5.109   0.232  0.0544  0.3921  0.4660
 4242TIP3    H134285   6.027   5.127   0.308  0.7318 -0.7284  1.2445
 4242TIP3    H234286   6.122   5.194   0.210 -0.6141  0.8449  0.9615
 4243TIP3   OH234287   6.526   5.265   7.553 -0.2139 -0.2158 -0.0762
 4243TIP3    H134288   6.457   5.208   7.516  0.9858 -1.4569 -0.5013
 4243TIP3    H234289   6.578   5.291   7.477  1.7319 -2.0342  0.5372
 4244TIP3   OH234290   3.858   4.786   8.609 -0.1013  0.0956 -0.3333
 4244TIP3    H134291   3.790   4.843   8.571 -0.9316 -0.5555  0.1327
 4244TIP3    H234292   3.824   4.765   8.697  0.8732  0.0304  0.0322
 4245TIP3   OH234293   0.162   6.389   1.040 -0.4161  0.1331  0.0044
 4245TIP3    H134294   0.227   6.319   1.046 -1.2383 -0.7936 -1.3337
 4245TIP3    H234295   0.212   6.469   1.053  1.2908 -0.4591 -2.2619
 4246TIP3   OH234296   4.536   6.396   0.795 -0.3895  0.3241  0.0104
 4246TIP3    H134297   4.442   6.383   0.784 -0.2042 -0.8007 -0.4431
 4246TIP3    H234298   4.547   6.417   0.888 -1.0619  0.1999  0.1214
 4247TIP3   OH234299   0.970   6.719   0.865 -0.7696 -0.3081  0.2950
 4247TIP3    H134300   0.915   6.750   0.937  1.2685  1.9521  0.9970
 4247TIP3    H234301   0.992   6.798   0.817 -0.2359 -1.5064 -1.5285
 4248TIP3   OH234302   4.962   4.113   2.805  0.5650 -0.6288 -0.2598
 4248TIP3    H134303   5.046   4.148   2.837  0.6328 -1.3256  0.3691
 4248TIP3    H234304   4.986   4.053   2.735  0.5257 -0.2436 -0.6097
 4249TIP3   OH234305   6.653   0.995   1.221 -0.7918 -0.3124 -0.2117
 4249TIP3    H134306   6.623   1.002   1.131  2.5168  1.2130 -1.3603
 4249TIP3    H234307   6.671   0.901   1.233  0.6464 -0.3071 -1.9070
 4250TIP3   OH234308   2.960   1.875   0.374  0.4539 -0.1384  0.0204
 4250TIP3    H134309   2.984   1.820   0.300  2.7376 -0.3467  0.8489
 4250TIP3    H234310   2.975   1.965   0.343 -1.9653  0.0537 -0.8650
 4251TIP3   OH234311   2.666   5.826   0.783 -0.6076  0.0303 -0.1156
 4251TIP3    H134312   2.606   5.843   0.710 -0.0993 -0.0442 -0.5643
 4251TIP3    H234313   2.648   5.736   0.808 -1.0288  0.1683  0.0852
 4252TIP3   OH234314   6.423   6.431   2.637 -0.2802 -0.1289 -0.3158
 4252TIP3    H134315   6.485   6.369   2.675 -1.2671 -1.4403 -0.7798
 4252TIP3    H234316   6.363   6.452   2.708  0.5365  1.0042  0.0825
 4253TIP3   OH234317   0.046   2.881   2.230  0.2179  0.0363 -0.6609
 4253TIP3    H134318  -0.006   2.926   2.163 -1.1729  1.0143  1.0162
 4253TIP3    H234319  -0.015   2.820   2.271  0.8489 -0.0195  0.2249
 4254TIP3   OH234320   6.523   6.023   8.497 -0.2134  0.3640  0.4331
 4254TIP3    H134321   6.521   6.111   8.459  1.1002  0.3710  0.3492
 4254TIP3    H234322   6.434   6.010   8.530 -0.8415  1.1474 -0.8406
 4255TIP3   OH234323   2.665   4.117   7.917  0.1874 -0.0200 -0.2763
 4255TIP3    H134324   2.623   4.124   8.002  1.4568 -0.3472  0.3924
 4255TIP3    H234325   2.729   4.188   7.915  0.3582 -0.1807 -0.8441
 4256TIP3   OH234326   3.043   1.508   0.419  0.2450 -0.1888 -0.5593
 4256TIP3    H134327   3.129   1.520   0.460 -0.5148  1.0689  0.7278
 4256TIP3    H234328   3.005   1.432   0.463  0.4809 -0.4503 -0.7968
 4257TIP3   OH234329   1.050   4.627   7.547  0.3672 -0.7811 -0.0948
 4257TIP3    H134330   1.094   4.643   7.630  0.3595 -1.6689  0.0870
 4257TIP3    H234331   1.084   4.696   7.489  3.2901 -2.3613 -0.4583
 4258TIP3   OH234332   5.324   1.305   0.605  0.4034  0.3292 -0.6276
 4258TIP3    H134333   5.278   1.248   0.543  0.6890 -0.5753 -0.0281
 4258TIP3    H234334   5.275   1.387   0.602  1.2468  0.8227 -3.1166
 4259TIP3   OH234335   4.218   6.680   8.179  0.3122  0.4027 -0.4114
 4259TIP3    H134336   4.196   6.592   8.150  1.2465  0.5348 -1.6223
 4259TIP3    H234337   4.199   6.735   8.102 -1.5279  1.4719  0.7423
 4260TIP3   OH234338   1.801   6.545   0.788  0.3865  0.3584  0.3868
 4260TIP3    H134339   1.797   6.607   0.715  1.3353  1.8462  1.5464
 4260TIP3    H234340   1.731   6.572   0.847 -0.2238 -0.6964  0.1889
 4261TIP3   OH234341   0.993   1.465   8.530 -0.1032  0.5138 -0.0045
 4261TIP3    H134342   0.952   1.403   8.470  0.0072 -1.2486  1.6863
 4261TIP3    H234343   1.048   1.519   8.473 -0.0724 -1.0309 -1.5234
 4262TIP3   OH234344   1.284   0.218   8.338 -0.0578 -0.1393 -0.2273
 4262TIP3    H134345   1.324   0.223   8.425  0.8893 -1.6687 -0.5312
 4262TIP3    H234346   1.196   0.185   8.353  1.0085 -3.1370  0.0118
 4263TIP3   OH234347   2.649   4.621   7.700 -0.1268  0.3821 -0.1328
 4263TIP3    H134348   2.717   4.578   7.648 -0.0469  0.8957 -0.4596
 4263TIP3    H234349   2.576   4.632   7.639 -0.5180 -0.1979  0.2263
 4264TIP3   OH234350   1.758   5.451   1.347  0.6233 -0.8254 -0.0477
 4264TIP3    H134351   1.755   5.512   1.420 -1.8266 -0.5188 -0.3067
 4264TIP3    H234352   1.802   5.499   1.277  1.9687 -0.7146  0.8485
 4265TIP3   OH234353   5.999   3.494   2.052 -0.3073  0.0110 -0.2456
 4265TIP3    H134354   6.051   3.569   2.079  1.6379 -1.9210  1.7502
 4265TIP3    H234355   6.044   3.460   1.975 -0.5866  0.2490 -0.5195
 4266TIP3   OH234356   4.862   4.077   1.899  0.4344 -0.0495  0.0930
 4266TIP3    H134357   4.915   4.149   1.931  2.0884 -0.5001 -1.4666
 4266TIP3    H234358   4.910   3.998   1.924 -0.9790 -0.6140  1.1363
 4267TIP3   OH234359   0.917   4.110   7.732 -0.0721 -0.2919 -0.5446
 4267TIP3    H134360   0.990   4.050   7.718  2.0005  2.2403 -1.5731
 4267TIP3    H234361   0.892   4.137   7.643 -1.0213  0.2834 -0.1164
 4268TIP3   OH234362   5.124   3.594   2.607 -0.6979 -0.0448  0.0111
 4268TIP3    H134363   5.038   3.611   2.645 -0.4360 -1.1296  1.1369
 4268TIP3    H234364   5.186   3.617   2.676 -0.0488  0.7865 -0.8080
 4269TIP3   OH234365   4.290   0.937   1.887  0.2441  0.4759  0.1069
 4269TIP3    H134366   4.363   0.877   1.900  0.1690  0.1089 -1.0948
 4269TIP3    H234367   4.212   0.883   1.898  0.1748  0.4009 -0.7098
 4270TIP3   OH234368   6.429   4.740   0.879  0.1902 -0.2046 -0.1840
 4270TIP3    H134369   6.384   4.791   0.946 -1.1727  1.3063 -2.1526
 4270TIP3    H234370   6.384   4.655   0.879  0.2413 -0.2494  0.7950
 4271TIP3   OH234371   2.877   0.186   7.328 -0.2784 -0.0131  0.0299
 4271TIP3    H134372   2.837   0.178   7.414  0.3841  0.6022  0.4074
 4271TIP3    H234373   2.953   0.128   7.332  0.0039  0.3532  0.0157
 4272TIP3   OH234374   3.533   6.740   8.430  0.0452  0.2363 -0.1179
 4272TIP3    H134375   3.606   6.690   8.393 -1.0024 -2.0309  0.6999
 4272TIP3    H234376   3.518   6.811   8.367  1.8889 -0.1808 -1.1010
 4273TIP3   OH234377   4.821   5.874   8.188  0.2631 -0.7483 -0.0724
 4273TIP3    H134378   4.777   5.937   8.131  0.4336 -1.2066 -0.7251
 4273TIP3    H234379   4.913   5.878   8.162  0.0179 -2.5670 -1.4115
 4274TIP3   OH234380   6.772   3.307   1.332 -0.1617  0.2547 -0.2050
 4274TIP3    H134381   6.779   3.344   1.421 -1.3932 -1.7126  0.7586
 4274TIP3    H234382   6.760   3.213   1.346  1.0381 -0.3014 -2.5265
 4275TIP3   OH234383   4.792   3.886   7.748  0.2652  0.2208  0.0843
 4275TIP3    H134384   4.871   3.911   7.700  0.1099  0.1971 -0.1839
 4275TIP3    H234385   4.727   3.952   7.724  0.6447  1.1697  1.5276
 4276TIP3   OH234386   3.664   3.731   0.725  0.0311  0.7742 -0.8685
 4276TIP3    H134387   3.621   3.761   0.646 -2.0189 -2.3408 -1.1350
 4276TIP3    H234388   3.608   3.659   0.757  2.1797  0.1476  1.9167
 4277TIP3   OH234389   0.844   1.512   1.918 -0.5960 -0.5716 -0.0443
 4277TIP3    H134390   0.821   1.595   1.959  0.9900  0.7023 -1.5593
 4277TIP3    H234391   0.766   1.486   1.869 -1.2484 -0.2306  0.7920
 4278TIP3   OH234392   4.793   3.748   1.781 -0.2799  1.0733  0.2220
 4278TIP3    H134393   4.735   3.675   1.806  3.2366 -1.6264  1.3565
 4278TIP3    H234394   4.841   3.715   1.705 -0.1111  3.1744 -0.6387
 4279TIP3   OH234395   1.332   6.390   6.998  0.2388  0.6896 -0.5972
 4279TIP3    H134396   1.309   6.307   7.039 -0.2141  1.2592  0.3509
 4279TIP3    H234397   1.312   6.456   7.065  1.0814  1.5219 -1.1326
 4280TIP3   OH234398   2.013   1.741   8.604 -0.1654 -0.0762  0.2174
 4280TIP3    H134399   1.993   1.663   8.656 -1.0390 -0.5492 -0.7885
 4280TIP3    H234400   1.943   1.744   8.538 -1.2234  2.5678  1.3183
 4281TIP3   OH234401   2.085   3.002   1.945 -0.2705 -0.1560  0.3009
 4281TIP3    H134402   2.148   2.974   2.011  1.8902 -0.2805 -1.6812
 4281TIP3    H234403   2.033   2.924   1.927  0.6437 -0.7733  0.2600
 4282TIP3   OH234404   3.577   1.221   0.885 -0.1158 -0.3809 -0.2368
 4282TIP3    H134405   3.579   1.126   0.884 -1.2858 -0.4394  0.7554
 4282TIP3    H234406   3.626   1.247   0.807  1.5139 -1.7524  0.2556
 4283TIP3   OH234407   3.323   1.249   1.565  0.7480  0.1830  0.0686
 4283TIP3    H134408   3.335   1.343   1.574  0.4951  0.3572 -1.2534
 4283TIP3    H234409   3.412   1.213   1.561  0.8400  0.4503 -0.2521
 4284TIP3   OH234410   3.128   0.122   0.809  0.3583  0.5862 -0.2906
 4284TIP3    H134411   3.223   0.131   0.810  0.4750 -0.4810 -0.9324
 4284TIP3    H234412   3.101   0.150   0.897  1.4633 -1.2017  0.6750
 4285TIP3   OH234413   6.435   3.442   7.410 -0.1760 -0.9457  0.0058
 4285TIP3    H134414   6.373   3.405   7.348  0.2875  0.1852 -1.1608
 4285TIP3    H234415   6.492   3.498   7.358  1.4113 -1.4107  1.1464
 4286TIP3   OH234416   5.926   3.275   1.767  0.8871  0.1611 -0.1606
 4286TIP3    H134417   6.020   3.255   1.762  0.8656  0.1409 -0.5266
 4286TIP3    H234418   5.889   3.202   1.815  1.6150  2.0315  3.6425
 4287TIP3   OH234419   5.078   2.742   0.811  0.1386  0.5031 -0.1467
 4287TIP3    H134420   5.173   2.734   0.823  0.0554  1.2835  1.0805
 4287TIP3    H234421   5.045   2.653   0.822  0.7130  0.2323 -0.5530
 4288TIP3   OH234422   0.880   4.321   0.948 -0.0171 -0.0720  0.1775
 4288TIP3    H134423   0.943   4.280   0.888 -0.2424  0.7487 -0.6399
 4288TIP3    H234424   0.809   4.256   0.955  0.4047 -0.5357  0.2464
 4289TIP3   OH234425   0.207   4.733   2.107  0.2281 -0.5395 -0.0025
 4289TIP3    H134426   0.255   4.790   2.047  0.3014 -0.8215 -0.2158
 4289TIP3    H234427   0.274   4.674   2.142  0.0725 -0.7965 -0.1398
 4290TIP3   OH234428   6.729   4.860   8.653 -0.0815  0.0754 -0.1164
 4290TIP3    H134429   6.686   4.931   8.701 -3.1541 -0.8555 -1.3036
 4290TIP3    H234430   6.761   4.901   8.573  1.6146  0.8219  0.8794
 4291TIP3   OH234431   1.213   0.021   7.402  0.0904  0.0074  0.1748
 4291TIP3    H134432   1.280  -0.019   7.458  1.3914  1.9374  0.0823
 4291TIP3    H234433   1.257   0.039   7.320 -0.7959  0.5152 -0.2082
 4292TIP3   OH234434   5.010   6.198   0.631  0.8006  0.0563 -0.2187
 4292TIP3    H134435   4.915   6.185   0.633  0.8219 -0.0441  0.9852
 4292TIP3    H234436   5.029   6.247   0.711  1.8624 -0.6535 -0.0104
 4293TIP3   OH234437   5.034   4.567   0.266 -0.5801 -0.2558 -0.7127
 4293TIP3    H134438   5.099   4.498   0.273 -0.0361 -0.1368 -3.4706
 4293TIP3    H234439   4.984   4.562   0.348  2.9478 -0.1926  1.6393
 4294TIP3   OH234440   1.807   2.569   1.660 -0.3398  0.1787  0.1637
 4294TIP3    H134441   1.779   2.619   1.736 -4.5121  0.3586 -1.2600
 4294TIP3    H234442   1.757   2.488   1.664  1.3521 -1.0051 -1.0597
 4295TIP3   OH234443   5.871   4.124   8.293 -0.4052  0.3757  0.0931
 4295TIP3    H134444   5.816   4.181   8.239 -0.8082 -0.1392 -0.0412
 4295TIP3    H234445   5.853   4.152   8.383 -1.3855 -0.2251  0.0890
 4296TIP3   OH234446   4.162   4.108   0.613  0.3799  0.4686 -0.6787
 4296TIP3    H134447   4.110   4.042   0.659  0.6752  0.4167 -0.4112
 4296TIP3    H234448   4.101   4.179   0.595  0.1343  0.2581 -0.6831
 4297TIP3   OH234449   5.421   4.856   1.977 -0.3621  0.3880  0.8615
 4297TIP3    H134450   5.363   4.909   1.923  0.4617  1.2248  0.7640
 4297TIP3    H234451   5.459   4.918   2.040  1.5110  0.1857  0.0006
 4298TIP3   OH234452   4.639   1.098   7.144 -0.1434  0.0431  0.5809
 4298TIP3    H134453   4.615   1.126   7.232 -2.4103  0.4628 -0.1005
 4298TIP3    H234454   4.615   1.006   7.141  2.0523 -0.6034  1.0509
 4299TIP3   OH234455   0.981   4.474   2.139 -0.0027 -0.0921 -0.1512
 4299TIP3    H134456   0.894   4.507   2.116  0.3704 -0.6896 -2.7123
 4299TIP3    H234457   0.964   4.391   2.183 -0.7451  0.3921  0.5030
 4300TIP3   OH234458   5.757   2.032   8.653 -0.2217  0.2742  0.1943
 4300TIP3    H134459   5.844   2.065   8.676  0.5635 -0.0771 -2.0566
 4300TIP3    H234460   5.724   2.094   8.588 -0.4127 -1.1633 -1.1295
 4301TIP3   OH234461   1.748   5.640   8.232  0.3574 -0.0047  0.2435
 4301TIP3    H134462   1.837   5.673   8.248 -0.1903  2.1683 -0.7905
 4301TIP3    H234463   1.707   5.708   8.179 -2.0425 -0.8431  0.9210
 4302TIP3   OH234464   6.248   4.269   7.972 -0.2899  0.1562  0.3266
 4302TIP3    H134465   6.185   4.200   7.951 -0.6573  0.2995  0.8948
 4302TIP3    H234466   6.209   4.313   8.048 -0.5954  1.6702 -0.6678
 4303TIP3   OH234467   2.689   3.386   1.276 -0.4219  0.1207 -0.3596
 4303TIP3    H134468   2.671   3.324   1.347  0.1643  1.0624  0.6273
 4303TIP3    H234469   2.778   3.416   1.292 -0.8693  1.6206 -0.4982
 4304TIP3   OH234470   2.806   1.855   2.811 -0.0253 -0.2791  0.0282
 4304TIP3    H134471   2.763   1.804   2.879 -0.9438 -0.1361 -0.4216
 4304TIP3    H234472   2.767   1.942   2.819  0.5440 -0.0173 -0.0732
 4305TIP3   OH234473   1.364   2.759   1.679 -0.3675  0.5929  0.5103
 4305TIP3    H134474   1.363   2.781   1.773 -2.1218 -1.0019  0.9154
 4305TIP3    H234475   1.369   2.663   1.677 -0.5147  0.6018 -1.0348
 4306TIP3   OH234476   3.883   5.054   0.302  0.2367 -0.4342  0.3494
 4306TIP3    H134477   3.944   5.127   0.293 -2.4107  2.1558  1.9454
 4306TIP3    H234478   3.817   5.068   0.235 -0.3235 -1.3942  0.6691
 4307TIP3   OH234479   6.252   0.756   1.468 -0.2117 -0.4407 -0.1295
 4307TIP3    H134480   6.172   0.774   1.517  0.2269  1.4842 -0.0309
 4307TIP3    H234481   6.260   0.828   1.406  0.2384 -1.8445 -1.7779
 4308TIP3   OH234482   2.731   2.639   0.579  0.7313  0.2325 -0.5854
 4308TIP3    H134483   2.814   2.594   0.563  0.5020  0.1323 -1.5642
 4308TIP3    H234484   2.668   2.593   0.525  0.7379  2.4677 -2.6967
 4309TIP3   OH234485   2.013   6.307   0.231  0.3428  0.4654 -0.0181
 4309TIP3    H134486   2.092   6.253   0.230  0.7206  1.0141 -0.5220
 4309TIP3    H234487   1.980   6.301   0.321  1.0597  0.3828  0.2412
 4310TIP3   OH234488   3.597   1.399   7.909  0.3882 -0.7149 -0.4488
 4310TIP3    H134489   3.678   1.348   7.923  0.8648  0.0080 -0.5069
 4310TIP3    H234490   3.531   1.333   7.889  0.8023 -1.3843  0.2856
 4311TIP3   OH234491   4.053   5.032   7.754  0.1923 -0.9932 -0.5617
 4311TIP3    H134492   3.960   5.008   7.755  0.1340 -0.8064  0.7427
 4311TIP3    H234493   4.053   5.128   7.757  0.4378 -0.7472 -4.2110
 4312TIP3   OH234494   3.457   4.277   0.132 -0.2274  0.0036  0.8311
 4312TIP3    H134495   3.451   4.257   0.226  0.2549  0.2940  0.9270
 4312TIP3    H234496   3.453   4.192   0.089  1.4887 -0.2938  1.2086
 4313TIP3   OH234497   1.422   5.141   0.298 -0.1246  0.2022  0.1286
 4313TIP3    H134498   1.423   5.167   0.205  0.0682 -0.8191 -0.1651
 4313TIP3    H234499   1.463   5.215   0.343  0.6159  0.3324 -0.7146
 4314TIP3   OH234500   3.813   1.661   8.517 -0.5879  0.2279  0.5819
 4314TIP3    H134501   3.746   1.695   8.457  0.2511  0.4189 -0.2756
 4314TIP3    H234502   3.772   1.665   8.603 -2.2804 -1.2343 -0.0971
 4315TIP3   OH234503   3.170   5.484   0.388 -0.1976  0.1647  0.3724
 4315TIP3    H134504   3.203   5.418   0.326  1.0687 -0.7210  1.9132
 4315TIP3    H234505   3.082   5.454   0.411 -0.4245  0.1474 -0.4855
 4316TIP3   OH234506   3.707   4.880   1.819 -0.3980  0.1162 -0.0112
 4316TIP3    H134507   3.666   4.828   1.888 -2.2700  0.1773 -1.0176
 4316TIP3    H234508   3.714   4.820   1.744 -2.2756  1.1215 -1.0784
 4317TIP3   OH234509   1.871   0.987   1.249 -0.1729  0.9449 -0.4197
 4317TIP3    H134510   1.942   1.048   1.273  1.2931  0.3904 -2.9378
 4317TIP3    H234511   1.823   1.033   1.180  1.4182 -0.8588 -2.9160
 4318TIP3   OH234512   2.678   2.844   8.098 -0.5771  0.5108 -0.2432
 4318TIP3    H134513   2.662   2.775   8.034  0.9210 -0.6211  0.5352
 4318TIP3    H234514   2.660   2.803   8.183  1.1411  0.7615  0.2876
 4319TIP3   OH234515   3.544   2.931   0.820  0.2885  0.2316 -0.2847
 4319TIP3    H134516   3.573   2.947   0.909 -2.2011  0.3416  0.5870
 4319TIP3    H234517   3.452   2.907   0.829  0.4245 -1.5248 -2.6873
 4320TIP3   OH234518   4.541   2.138   0.100  0.1406  0.5072 -0.3367
 4320TIP3    H134519   4.484   2.150   0.024 -1.2093  0.1793  0.5905
 4320TIP3    H234520   4.627   2.166   0.069 -0.3598  0.3503 -1.9900
 4321TIP3   OH234521   1.767   4.559   1.634  0.0691  0.2755 -0.3833
 4321TIP3    H134522   1.734   4.590   1.549 -1.1472  0.7188  0.2349
 4321TIP3    H234523   1.716   4.480   1.652 -1.4519  1.5195  1.0556
 4322TIP3   OH234524   2.756   6.567   1.748 -0.4115 -0.2076  0.4507
 4322TIP3    H134525   2.682   6.578   1.807 -0.4345 -0.0814  0.3988
 4322TIP3    H234526   2.716   6.545   1.664 -0.4045  0.2010  0.3415
 4323TIP3   OH234527   5.267   6.144   8.240 -0.0847 -0.0477 -0.2265
 4323TIP3    H134528   5.301   6.062   8.274 -2.5998 -1.0169  0.1593
 4323TIP3    H234529   5.345   6.197   8.222  1.5287 -1.6160  1.7008
 4324TIP3   OH234530   1.466   4.255   1.923 -0.4424  0.2721 -0.2469
 4324TIP3    H134531   1.522   4.248   2.000  0.1869  0.3181 -0.6859
 4324TIP3    H234532   1.436   4.346   1.924 -1.2163  0.0197  0.4598
 4325TIP3   OH234533   4.046   0.207   7.461 -0.0942  0.0387 -0.1301
 4325TIP3    H134534   3.988   0.244   7.395 -1.5686 -1.1378  0.4394
 4325TIP3    H234535   4.125   0.183   7.413 -0.1347  1.4781 -0.9675
 4326TIP3   OH234536   0.886   1.763   0.654  0.3051  0.0353 -0.1786
 4326TIP3    H134537   0.884   1.685   0.598 -0.3133 -0.5919  0.7011
 4326TIP3    H234538   0.960   1.813   0.620  0.2096 -0.5268 -1.2898
 4327TIP3   OH234539   5.985   2.229   8.299  0.5286 -0.2679  0.8119
 4327TIP3    H134540   5.896   2.194   8.294  0.4055 -0.1893  2.0893
 4327TIP3    H234541   6.040   2.152   8.308  0.6945 -0.3742 -0.9424
 4328TIP3   OH234542   6.719   4.630   2.298  0.6120  0.4048 -0.3899
 4328TIP3    H134543   6.655   4.686   2.343 -1.2628 -1.2643 -0.8330
 4328TIP3    H234544   6.703   4.645   2.205  1.0164  0.1453 -0.5016
 4329TIP3   OH234545   4.765   3.116   0.829 -0.0657  0.1237 -0.5453
 4329TIP3    H134546   4.751   3.143   0.920 -1.5956  1.8174 -1.2074
 4329TIP3    H234547   4.698   3.050   0.813  0.9092 -1.0014 -0.1764
 4330TIP3   OH234548   5.169   5.696   0.445  0.1699 -0.5365 -0.2050
 4330TIP3    H134549   5.141   5.787   0.438 -0.5970 -0.8481 -1.8254
 4330TIP3    H234550   5.263   5.700   0.458  0.0565  0.4946  0.3224
 4331TIP3   OH234551   5.985   4.433   8.664 -1.3963  0.8561 -0.2805
 4331TIP3    H134552   5.975   4.372   8.737 -0.8577  0.5203 -0.4846
 4331TIP3    H234553   5.924   4.504   8.684 -0.8074  1.0768  0.8191
 4332TIP3   OH234554   1.324   2.696   0.812  1.2488  0.0380 -0.1552
 4332TIP3    H134555   1.263   2.747   0.865  1.5250 -0.8782  1.0930
 4332TIP3    H234556   1.406   2.698   0.860  1.9447  0.4149 -1.3083
 4333TIP3   OH234557   5.187   1.863   8.131 -0.0210 -0.3233 -0.1940
 4333TIP3    H134558   5.176   1.796   8.064 -0.0484 -0.7795  0.2641
 4333TIP3    H234559   5.173   1.818   8.214  2.3514 -0.3385  0.2847
 4334TIP3   OH234560   1.092   3.686   7.774 -0.8609  0.3768 -0.2273
 4334TIP3    H134561   1.028   3.708   7.841  1.2699  2.2833  1.3433
 4334TIP3    H234562   1.123   3.771   7.743  3.1812 -0.2912  1.4485
 4335TIP3   OH234563   5.319   3.926   0.453  0.1795  0.3029  0.0393
 4335TIP3    H134564   5.317   3.912   0.358  1.6581 -0.7419  0.1099
 4335TIP3    H234565   5.409   3.903   0.478 -0.5329 -0.7294  1.8694
 4336TIP3   OH234566   0.275   0.939   3.035  0.5122  0.1820 -0.6792
 4336TIP3    H134567   0.192   0.920   2.992 -0.4667 -1.2512  1.6083
 4336TIP3    H234568   0.337   0.878   2.996  0.0938  0.1383 -1.2862
 4337TIP3   OH234569   1.271   2.203   1.526 -0.6505  0.1520  0.1227
 4337TIP3    H134570   1.237   2.158   1.448  0.5499 -1.4815  0.5030
 4337TIP3    H234571   1.201   2.195   1.590 -1.0157  0.1132 -0.2710
 4338TIP3   OH234572   2.718   1.491   7.495  0.0221 -0.2453 -0.0523
 4338TIP3    H134573   2.661   1.568   7.504  1.5326  0.8964  0.0850
 4338TIP3    H234574   2.787   1.519   7.436  0.8273 -1.3804  0.3143
 4339TIP3   OH234575   6.777   3.405   1.868  0.6542 -0.0737  0.3530
 4339TIP3    H134576   6.817   3.477   1.918 -2.5226  0.0108  3.1342
 4339TIP3    H234577   6.692   3.440   1.841 -0.0988 -2.1282 -0.0551
 4340TIP3   OH234578   2.538   4.756   2.280 -0.7174 -0.0595  0.0092
 4340TIP3    H134579   2.470   4.811   2.319  0.3709  1.5295 -0.2421
 4340TIP3    H234580   2.563   4.696   2.350 -1.1496  0.5129  0.6687
 4341TIP3   OH234581   1.487   3.242   2.874 -0.1926  0.2553  0.2950
 4341TIP3    H134582   1.573   3.232   2.835 -0.6139 -0.4790 -0.4673
 4341TIP3    H234583   1.441   3.161   2.854 -0.2740 -0.3917  2.7654
 4342TIP3   OH234584   2.939   4.369   0.318 -0.1695  0.2473 -0.4137
 4342TIP3    H134585   2.964   4.458   0.294 -1.0577  0.0802 -2.1926
 4342TIP3    H234586   2.856   4.379   0.365 -0.1795  0.3822 -0.4608
 4343TIP3   OH234587   3.337   3.443   6.883  0.1253  0.2509 -0.0925
 4343TIP3    H134588   3.353   3.409   6.971 -0.2706  1.2656  0.3930
 4343TIP3    H234589   3.415   3.420   6.834  0.1394 -0.7768  0.3798
 4344TIP3   OH234590   6.815   5.599   1.113 -0.1856 -0.4187  0.1935
 4344TIP3    H134591   6.848   5.669   1.058 -0.0969 -0.5313  0.1032
 4344TIP3    H234592   6.720   5.601   1.101 -0.2315  0.0284  0.6001
 4345TIP3   OH234593   6.060   1.075   1.142  0.0105 -0.5923  0.2032
 4345TIP3    H134594   6.151   1.092   1.163  0.5453 -2.9174  0.0390
 4345TIP3    H234595   6.027   1.026   1.217 -0.7110 -0.9424 -0.3326
 4346TIP3   OH234596   6.389   6.764   7.924  0.3266 -0.0415  0.1956
 4346TIP3    H134597   6.306   6.720   7.906  0.9852 -1.2965  0.0492
 4346TIP3    H234598   6.365   6.847   7.963 -1.0744  0.9973 -2.6383
 4347TIP3   OH234599   2.996   5.113   7.718  0.3437 -0.2045  0.3978
 4347TIP3    H134600   2.942   5.168   7.775 -1.0990 -0.4381 -0.6882
 4347TIP3    H234601   2.989   5.025   7.755 -2.1062 -0.7203 -1.0850
 4348TIP3   OH234602   1.870   4.770   0.016 -0.0916  0.1439  0.2124
 4348TIP3    H134603   1.828   4.687  -0.006  0.6318 -0.4338  0.9510
 4348TIP3    H234604   1.958   4.764  -0.023 -0.5503  1.2261 -1.0829
 4349TIP3   OH234605   4.306   4.709   2.617 -0.4519 -0.1388 -0.3614
 4349TIP3    H134606   4.397   4.683   2.601  0.3417  1.2677  1.4779
 4349TIP3    H234607   4.298   4.708   2.713 -2.6009 -0.8732 -0.5007
 4350TIP3   OH234608   6.224   1.956   8.006  0.0410 -0.4269  0.0486
 4350TIP3    H134609   6.135   1.974   8.035 -0.0472  0.0434 -0.5028
 4350TIP3    H234610   6.245   2.028   7.946  0.0744 -1.5633 -1.3628
 4351TIP3   OH234611   0.697   4.049   1.970 -0.2472  0.3235  0.0422
 4351TIP3    H134612   0.781   4.002   1.970 -0.1154  0.5440 -0.6479
 4351TIP3    H234613   0.656   4.024   2.052  0.1157 -0.4827 -0.0060
 4352TIP3   OH234614   1.031   2.229   8.730 -0.3553  0.1367  0.5500
 4352TIP3    H134615   1.073   2.314   8.737  0.6438 -0.2957  0.0803
 4352TIP3    H234616   1.088   2.179   8.670 -0.3439 -1.1975  1.6181
 4353TIP3   OH234617   0.012   5.234   8.580  0.3156 -0.4753  0.4141
 4353TIP3    H134618  -0.016   5.269   8.495 -2.3116 -1.8764  0.6088
 4353TIP3    H234619   0.062   5.155   8.559 -0.2857 -0.7907  0.1489
 4354TIP3   OH234620   0.601   6.092   0.104  0.2102 -0.2605 -0.1806
 4354TIP3    H134621   0.582   6.100   0.010  0.2204 -2.1557 -0.3690
 4354TIP3    H234622   0.664   6.162   0.121  0.8093 -0.3676 -1.7703
 4355TIP3   OH234623   2.648   0.707   1.334 -0.7360  1.0691 -0.0496
 4355TIP3    H134624   2.723   0.761   1.310 -0.2379  0.3565 -0.0873
 4355TIP3    H234625   2.620   0.743   1.419 -0.6346  1.6132 -0.2385
 4356TIP3   OH234626   2.276   4.852   7.522  0.3803 -0.0752 -0.3890
 4356TIP3    H134627   2.284   4.892   7.436  3.1633 -1.1340 -0.7085
 4356TIP3    H234628   2.273   4.758   7.505  1.2666 -0.3171  0.6655
 4357TIP3   OH234629   1.944   5.558   1.156  0.2919  0.3916 -0.4621
 4357TIP3    H134630   1.885   5.498   1.109  1.2873 -0.6794 -0.3839
 4357TIP3    H234631   1.963   5.626   1.092  1.8704 -1.2075 -1.7908
 4358TIP3   OH234632   5.914   2.768   8.432 -0.1118  0.3620  0.2344
 4358TIP3    H134633   6.005   2.782   8.406  0.2238 -0.8870  0.6516
 4358TIP3    H234634   5.863   2.799   8.357  0.7356 -0.6887 -0.8338
 4359TIP3   OH234635   0.006   3.296   2.340  0.0003  0.2398  0.1680
 4359TIP3    H134636   0.036   3.348   2.414  2.6931 -0.0456 -0.6093
 4359TIP3    H234637  -0.004   3.359   2.269  2.1995 -0.0448 -0.4751
 4360TIP3   OH234638   0.858   3.360   7.402  0.0430  0.3011 -0.0457
 4360TIP3    H134639   0.949   3.335   7.415  0.5434  2.0152 -0.0208
 4360TIP3    H234640   0.841   3.425   7.470 -1.3555 -0.2908  0.2226
 4361TIP3   OH234641   0.053   5.014   7.162  0.5257  0.7530 -0.1182
 4361TIP3    H134642   0.034   5.026   7.255 -0.0930  2.1600 -0.3884
 4361TIP3    H234643   0.033   5.099   7.123 -0.5059 -0.1881 -1.7425
 4362TIP3   OH234644   1.324   3.825   8.742  0.2666  0.3916 -0.2180
 4362TIP3    H134645   1.381   3.859   8.672 -2.4931  3.1826 -1.3253
 4362TIP3    H234646   1.277   3.902   8.774  0.1003 -1.0864  3.6053
 4363TIP3   OH234647   1.818   1.272   8.717  0.1110 -0.6407 -0.0299
 4363TIP3    H134648   1.724   1.254   8.719  0.2378 -1.5463 -1.0805
 4363TIP3    H234649   1.830   1.342   8.781 -1.2674 -0.5381  0.1598
 4364TIP3   OH234650   0.646   2.630   1.187 -0.4340  0.1814  0.2405
 4364TIP3    H134651   0.552   2.646   1.181 -0.6219 -1.2206 -0.9069
 4364TIP3    H234652   0.653   2.538   1.211  0.6590  0.3952  0.7989
 4365TIP3   OH234653   3.955   5.474   7.672  0.4406 -0.2756  0.1085
 4365TIP3    H134654   4.006   5.540   7.718  0.8087 -0.0225 -0.6385
 4365TIP3    H234655   3.961   5.395   7.726  1.5329 -0.2173  0.0964
 4366TIP3   OH234656   4.136   3.374   7.495 -0.0996 -0.0393  0.1112
 4366TIP3    H134657   4.047   3.378   7.461  0.0802  0.8753 -0.3038
 4366TIP3    H234658   4.147   3.456   7.543  0.1613 -0.6378  1.0986
 4367TIP3   OH234659   5.653   5.647   2.247  0.1720 -0.0961 -0.7581
 4367TIP3    H134660   5.578   5.592   2.226 -0.3030  0.5965 -0.8767
 4367TIP3    H234661   5.618   5.714   2.306  1.2534 -1.4278  1.5674
 4368TIP3   OH234662   4.816   1.785   7.247  0.5281  0.8727 -0.2995
 4368TIP3    H134663   4.753   1.745   7.187  1.0591  0.0825 -0.3476
 4368TIP3    H234664   4.770   1.860   7.284  0.0070  1.0620 -1.2949
 4369TIP3   OH234665   0.969   4.597   7.892 -0.0258 -0.2641  0.0896
 4369TIP3    H134666   1.034   4.583   7.823  0.2168  0.4930  0.1487
 4369TIP3    H234667   0.893   4.546   7.865  0.0750  0.0041 -0.7217
 4370TIP3   OH234668   0.108   5.298   1.169  0.3758  0.0809  0.2552
 4370TIP3    H134669   0.075   5.376   1.215 -0.2478 -0.0706  0.0646
 4370TIP3    H234670   0.054   5.292   1.090  1.5166  0.4136 -0.5830
 4371TIP3   OH234671   3.925   3.946   0.702 -1.2340 -0.3327 -0.9705
 4371TIP3    H134672   3.845   3.899   0.680 -2.8352  2.4257 -1.4853
 4371TIP3    H234673   3.895   4.026   0.745  1.3359  0.1251  0.1336
 4372TIP3   OH234674   5.605   4.819   0.008  0.0697  0.1714  0.5261
 4372TIP3    H134675   5.690   4.850  -0.024 -0.9384 -0.2415 -2.9791
 4372TIP3    H234676   5.544   4.888  -0.017 -1.0065 -0.8466  0.2516
 4373TIP3   OH234677   3.271   0.878   2.295 -0.0033 -0.4304  0.2120
 4373TIP3    H134678   3.209   0.867   2.223  0.5626  0.4562 -0.4302
 4373TIP3    H234679   3.218   0.911   2.368 -0.3874 -0.2794 -0.1357
 4374TIP3   OH234680   4.557   1.163   1.606  0.5030 -0.4906 -0.3677
 4374TIP3    H134681   4.627   1.145   1.668 -1.1716  1.1422  2.1903
 4374TIP3    H234682   4.580   1.248   1.568 -0.0362  0.0460  0.4730
 4375TIP3   OH234683   6.155   1.870   7.165 -0.2623  0.3427  0.6192
 4375TIP3    H134684   6.232   1.815   7.153 -0.2169  0.4019  0.6402
 4375TIP3    H234685   6.170   1.915   7.248  0.1554  1.1169  0.1409
 4376TIP3   OH234686   1.005   6.424   1.478  0.0919  0.1420 -0.0120
 4376TIP3    H134687   0.921   6.467   1.496 -0.2257 -0.4667 -0.0147
 4376TIP3    H234688   1.011   6.423   1.382 -0.3969 -0.7438 -0.0436
 4377TIP3   OH234689   3.773   5.810   0.945 -0.0074  0.3079  0.0373
 4377TIP3    H134690   3.805   5.813   0.855  1.2112  1.9680  0.4700
 4377TIP3    H234691   3.688   5.855   0.942 -0.2082 -0.0840 -0.3440
 4378TIP3   OH234692   1.382   2.346   1.220 -0.1960 -0.2962 -0.6796
 4378TIP3    H134693   1.291   2.333   1.248  0.2447 -0.2337  0.8973
 4378TIP3    H234694   1.413   2.258   1.200 -0.0553 -0.5904  0.6869
 4379TIP3   OH234695   0.356   2.134   2.725 -0.0015 -0.6634  0.0861
 4379TIP3    H134696   0.359   2.073   2.798  0.0804 -0.6992  0.0533
 4379TIP3    H234697   0.430   2.193   2.740  1.0817 -1.7265 -0.8875
 4380TIP3   OH234698   2.094   1.685   0.297 -0.1195 -0.6140  0.2334
 4380TIP3    H134699   2.127   1.681   0.207 -1.5489 -2.6911 -0.2423
 4380TIP3    H234700   2.033   1.759   0.297 -0.5247 -0.9416 -0.6569
 4381TIP3   OH234701   3.564   4.016   8.549  0.4668  0.2055  0.0591
 4381TIP3    H134702   3.511   3.984   8.476  0.6707  1.8259 -0.8465
 4381TIP3    H234703   3.579   3.939   8.604  0.8560 -1.2103 -1.9313
 4382TIP3   OH234704   1.689   5.729   1.857  0.1039 -0.5848  0.1768
 4382TIP3    H134705   1.780   5.718   1.882  0.5991  0.7748 -0.9232
 4382TIP3    H234706   1.652   5.641   1.861  1.6116 -1.2426  0.0420
 4383TIP3   OH234707   3.904   3.494   7.848  0.4193 -0.3315  0.1311
 4383TIP3    H134708   3.912   3.400   7.831  0.8153 -0.3845  0.5770
 4383TIP3    H234709   3.966   3.511   7.919  0.4997  0.3047 -0.0810
 4384TIP3   OH234710   5.984   6.465   7.712 -0.2920 -0.1119 -0.1899
 4384TIP3    H134711   5.984   6.418   7.795 -0.9173 -1.8495 -1.1311
 4384TIP3    H234712   5.906   6.521   7.717 -1.4334 -1.6430 -0.3591
 4385TIP3   OH234713   1.830   2.487   7.305  0.4484 -0.2040  0.1503
 4385TIP3    H134714   1.862   2.401   7.277  0.3860 -0.5212  1.0133
 4385TIP3    H234715   1.853   2.492   7.398 -2.0420 -0.5097  0.8760
 4386TIP3   OH234716   6.187   1.207   0.906 -0.1517 -0.8197 -0.1324
 4386TIP3    H134717   6.136   1.180   0.830  0.0180  2.3538 -1.5450
 4386TIP3    H234718   6.242   1.132   0.927 -0.3538 -1.8777 -3.0182
 4387TIP3   OH234719   0.213   6.299   8.118  0.5298  0.1906  0.4591
 4387TIP3    H134720   0.277   6.344   8.062 -0.4145 -1.7036 -2.3852
 4387TIP3    H234721   0.136   6.355   8.117  0.3925 -0.0007 -0.5095
 4388TIP3   OH234722   4.713   0.258   7.607 -0.2871 -0.2547 -0.1891
 4388TIP3    H134723   4.639   0.222   7.559  0.7072 -2.0168 -0.4572
 4388TIP3    H234724   4.695   0.237   7.699 -0.6629  0.3678 -0.1090
 4389TIP3   OH234725   0.659   4.860   1.622 -0.1545 -0.0535  0.0625
 4389TIP3    H134726   0.706   4.883   1.541  0.4005 -0.8606  0.1476
 4389TIP3    H234727   0.592   4.797   1.594 -0.8511  0.6845  0.0286
 4390TIP3   OH234728   0.761   0.518   8.460  0.2196 -0.2770 -0.5723
 4390TIP3    H134729   0.706   0.597   8.469  1.7861  0.7422  0.6927
 4390TIP3    H234730   0.717   0.453   8.515 -1.3198 -0.4559 -1.9573
 4391TIP3   OH234731   0.790   5.379   7.770 -0.5443 -0.6309  0.0166
 4391TIP3    H134732   0.743   5.329   7.837 -0.2845  0.4437  1.0514
 4391TIP3    H234733   0.775   5.332   7.689 -0.8110 -2.0298  0.8467
 4392TIP3   OH234734   6.168   1.556   6.939 -0.3088  0.4404 -0.3350
 4392TIP3    H134735   6.246   1.505   6.916  0.0871  1.0490 -0.3719
 4392TIP3    H234736   6.171   1.632   6.881 -1.3982  0.0536 -0.9338
 4393TIP3   OH234737   5.581   0.870   1.479  0.0503 -0.5704 -0.1276
 4393TIP3    H134738   5.620   0.954   1.456  0.2227 -0.2145  1.3695
 4393TIP3    H234739   5.594   0.815   1.401 -0.1202  0.7891 -1.1372
 4394TIP3   OH234740   5.751   6.622   6.939  0.1201  0.1564 -0.1700
 4394TIP3    H134741   5.679   6.601   6.880  0.0015  0.0921  0.0001
 4394TIP3    H234742   5.715   6.688   6.999 -0.2977 -1.0740  0.9673
 4395TIP3   OH234743   2.200   2.707   0.765 -0.1742 -0.6921  0.2800
 4395TIP3    H134744   2.264   2.739   0.829 -0.7777  3.1862 -0.7527
 4395TIP3    H234745   2.226   2.749   0.683 -3.0618 -0.2960 -0.5208
 4396TIP3   OH234746   4.073   3.161   7.786 -0.2522  0.3884 -0.3364
 4396TIP3    H134747   4.109   3.156   7.698 -1.3291  1.4493 -0.8673
 4396TIP3    H234748   4.084   3.072   7.821  0.0465 -0.0956 -1.5922
 4397TIP3   OH234749   5.445   6.792   8.308  0.0340  0.0879  0.0277
 4397TIP3    H134750   5.396   6.731   8.363  0.4320  0.2375  0.5584
 4397TIP3    H234751   5.455   6.870   8.362 -0.0353  0.4368 -0.4614
 4398TIP3   OH234752   3.999   1.953   6.962 -0.2820  0.4754 -0.8156
 4398TIP3    H134753   4.016   2.047   6.972 -0.2773  0.2500  2.4248
 4398TIP3    H234754   3.906   1.944   6.981 -0.1805 -0.2099 -0.6247
 4399TIP3   OH234755   6.813   5.018   0.672 -0.2426  0.3759  0.2257
 4399TIP3    H134756   6.865   4.955   0.622 -0.3020  0.5374 -0.0388
 4399TIP3    H234757   6.801   4.976   0.757 -3.0952 -1.5014 -0.9645
 4400TIP3   OH234758   3.808   3.633   0.051  0.4363  0.1296  0.0661
 4400TIP3    H134759   3.726   3.614   0.005  0.7017 -1.1999  0.0911
 4400TIP3    H234760   3.807   3.575   0.127  1.9764 -0.8860 -0.6310
 4401TIP3   OH234761   2.337   5.868   0.119 -0.4630  0.6905  0.1198
 4401TIP3    H134762   2.267   5.853   0.055 -0.6849  0.6665  0.3679
 4401TIP3    H234763   2.348   5.963   0.120 -1.5981  0.8389  1.2459
 4402TIP3   OH234764   3.220   6.327   0.687 -0.2223  0.6755  0.1198
 4402TIP3    H134765   3.171   6.388   0.632 -0.8924  1.3584  1.4309
 4402TIP3    H234766   3.269   6.383   0.748 -1.2867 -0.0499  1.7235
 4403TIP3   OH234767   3.537   5.564   7.123 -1.0391  0.0307  0.3523
 4403TIP3    H134768   3.621   5.568   7.077 -0.6247 -3.8848  0.3769
 4403TIP3    H234769   3.473   5.594   7.059  0.0870  0.0412 -0.8074
 4404TIP3   OH234770   3.016   3.930   1.505  0.1789 -0.1050  0.3063
 4404TIP3    H134771   3.041   4.016   1.470  0.3847 -0.0992  0.4661
 4404TIP3    H234772   2.929   3.944   1.543  0.5150  0.2145  0.9827
 4405TIP3   OH234773   0.205   5.813   2.867  0.5233  0.0776  0.6125
 4405TIP3    H134774   0.152   5.888   2.839 -0.4441 -1.6208 -2.4985
 4405TIP3    H234775   0.281   5.814   2.808  0.3310 -1.5396  0.3067
 4406TIP3   OH234776   1.966   2.253   8.065 -0.4184 -0.1781 -0.9389
 4406TIP3    H134777   1.981   2.163   8.036 -1.4664  0.4762 -3.8702
 4406TIP3    H234778   1.952   2.246   8.160 -1.0342 -3.1477 -1.1525
 4407TIP3   OH234779   2.008   5.167   2.080 -0.6069  0.1750  0.0028
 4407TIP3    H134780   2.002   5.083   2.124 -1.0659 -0.0407 -0.4621
 4407TIP3    H234781   2.064   5.150   2.003 -2.3970 -0.2373 -1.2750
 4408TIP3   OH234782   5.749   4.552   8.583  0.0795  0.7356  0.0372
 4408TIP3    H134783   5.662   4.591   8.590 -0.0691  0.1764  2.0877
 4408TIP3    H234784   5.795   4.607   8.520 -2.3300 -0.1566 -2.7299
 4409TIP3   OH234785   4.439   2.819   7.589  0.8148  0.6781  0.3868
 4409TIP3    H134786   4.489   2.888   7.545  1.5168 -0.4973 -0.7237
 4409TIP3    H234787   4.460   2.739   7.540 -1.5193 -0.0122  0.3967
 4410TIP3   OH234788   3.506   6.143   2.337  0.6868  0.6386 -0.2588
 4410TIP3    H134789   3.503   6.177   2.247  0.9087 -0.7451 -0.8166
 4410TIP3    H234790   3.539   6.053   2.328 -1.2556 -0.2739  0.9650
 4411TIP3   OH234791   1.743   0.579   0.463 -0.4973  0.0889  0.3088
 4411TIP3    H134792   1.692   0.660   0.460 -0.9337 -0.1631 -2.4317
 4411TIP3    H234793   1.703   0.528   0.534 -2.1171  1.1338  0.2059
 4412TIP3   OH234794   3.091   5.665   2.087 -0.1355  0.4310 -0.0909
 4412TIP3    H134795   3.115   5.748   2.046  0.1003  0.2983 -0.2297
 4412TIP3    H234796   3.154   5.602   2.051 -1.0714 -0.0575 -0.9345
 4413TIP3   OH234797   4.956   1.847   8.738 -0.4052 -0.3073  0.3894
 4413TIP3    H134798   4.987   1.899   8.812 -1.6159  0.7568  0.2075
 4413TIP3    H234799   4.985   1.896   8.661  0.6813 -1.3061  0.1408
 4414TIP3   OH234800   5.286   4.725   1.362 -0.3588  0.2377 -0.0566
 4414TIP3    H134801   5.373   4.690   1.383 -0.3447 -0.5526 -1.3286
 4414TIP3    H234802   5.298   4.820   1.360  0.2487  0.1835  0.7471
 4415TIP3   OH234803   2.144   3.010   2.548  0.4988 -0.7908 -0.4308
 4415TIP3    H134804   2.134   3.029   2.455  4.0393 -0.0896 -0.8431
 4415TIP3    H234805   2.166   3.095   2.587 -0.5856 -1.1435  0.9964
 4416TIP3   OH234806   0.181   2.093   8.097 -0.1241  0.1161  0.4108
 4416TIP3    H134807   0.136   2.050   8.170 -1.1043  1.6639  0.7776
 4416TIP3    H234808   0.256   2.136   8.138 -0.9718  1.4324  0.6472
 4417TIP3   OH234809   3.024   5.778   1.073 -0.0317 -0.4382 -0.5772
 4417TIP3    H134810   3.065   5.701   1.034  1.1323 -0.4711  0.6430
 4417TIP3    H234811   3.033   5.766   1.167  0.7108  1.4342 -0.3503
 4418TIP3   OH234812   3.044   3.720   0.619  0.2640  0.0716 -0.7764
 4418TIP3    H134813   3.057   3.712   0.713  0.4366 -1.5298 -0.9109
 4418TIP3    H234814   3.018   3.811   0.606 -1.0398  0.0002  0.9616
 4419TIP3   OH234815   2.610   6.617   7.471 -0.0920  0.7517 -0.2620
 4419TIP3    H134816   2.575   6.652   7.553 -0.9847  0.7701 -0.6425
 4419TIP3    H234817   2.609   6.690   7.411  0.8458  0.8144 -0.2224
 4420TIP3   OH234818   0.717   3.064   1.277  0.0662 -0.1027 -0.0986
 4420TIP3    H134819   0.645   3.011   1.241  0.5752 -0.0292 -1.2712
 4420TIP3    H234820   0.692   3.154   1.258  0.4187 -0.0717 -0.4266
 4421TIP3   OH234821   2.255   6.158   0.282  0.0213 -0.7921  0.5266
 4421TIP3    H134822   2.320   6.187   0.218 -0.1630  0.1761  0.7585
 4421TIP3    H234823   2.306   6.119   0.352  0.4693  0.8866  1.1905
 4422TIP3   OH234824   1.275   3.871   2.877 -0.5818 -0.0966 -0.1759
 4422TIP3    H134825   1.300   3.926   2.803 -0.0392 -0.6424 -0.4118
 4422TIP3    H234826   1.357   3.860   2.927 -0.8654 -0.0198  0.3154
 4423TIP3   OH234827   1.201   5.026   1.696 -0.2001 -0.5917 -0.1188
 4423TIP3    H134828   1.272   5.070   1.744 -1.9465  3.2344 -0.6666
 4423TIP3    H234829   1.161   4.968   1.761  1.6272 -0.6998  1.0012
 4424TIP3   OH234830   3.623   6.686   2.472 -0.8337 -0.1130  0.1398
 4424TIP3    H134831   3.618   6.617   2.539 -0.5671  0.3183  0.6062
 4424TIP3    H234832   3.565   6.755   2.504  0.1158  0.5482  0.4638
 4425TIP3   OH234833   2.642   4.215   7.642  0.2385  0.0905 -1.0033
 4425TIP3    H134834   2.633   4.150   7.712 -0.0203  2.1074  0.9565
 4425TIP3    H234835   2.557   4.212   7.597 -0.1172 -0.2889 -0.3395
 4426TIP3   OH234836   3.056   4.830   1.453  0.3008  0.5424  0.3679
 4426TIP3    H134837   3.041   4.759   1.391  0.0748 -0.3036  1.3629
 4426TIP3    H234838   2.976   4.883   1.449 -0.5358 -0.6006  1.3189
 4427TIP3   OH234839   3.218   6.719   7.567  0.9958 -0.1767  0.0791
 4427TIP3    H134840   3.191   6.776   7.639 -0.2461  0.9482 -1.2056
 4427TIP3    H234841   3.301   6.682   7.595  0.5677  0.2592  2.0578
 4428TIP3   OH234842   0.536   4.502   8.607  0.5999  0.1112  0.1152
 4428TIP3    H134843   0.459   4.537   8.652  0.5390  0.8333 -0.5291
 4428TIP3    H234844   0.610   4.552   8.643  0.5987  0.4076 -0.2953
 4429TIP3   OH234845   0.593   6.770   0.224  0.0883 -0.0569  0.3256
 4429TIP3    H134846   0.646   6.848   0.213 -1.8697  1.2331 -0.4002
 4429TIP3    H234847   0.616   6.714   0.149 -0.0622  0.7798 -0.3520
 4430TIP3   OH234848   0.205   4.627   8.346 -0.5211 -0.4149 -0.3314
 4430TIP3    H134849   0.160   4.552   8.307  0.0438 -1.2089  0.4705
 4430TIP3    H234850   0.257   4.588   8.417  0.4771  0.6281 -0.4641
 4431TIP3   OH234851   6.382   2.510   2.518 -0.1204 -0.2106  0.3840
 4431TIP3    H134852   6.452   2.451   2.492 -1.6487 -1.8550 -0.2499
 4431TIP3    H234853   6.386   2.511   2.614  1.1430  0.2411  0.3437
 4432TIP3   OH234854   6.527   0.914   2.157 -0.2637 -0.1585 -0.2074
 4432TIP3    H134855   6.446   0.877   2.192 -0.7871 -0.0798 -1.3034
 4432TIP3    H234856   6.502   0.951   2.072  0.8233  0.2807 -0.3514
 4433TIP3   OH234857   3.348   6.788   8.032 -0.6594 -0.6824 -0.1240
 4433TIP3    H134858   3.345   6.695   8.053  3.8815 -0.9896  0.1404
 4433TIP3    H234859   3.381   6.830   8.111  1.3569  0.4384 -1.4361
 4434TIP3   OH234860   0.947   0.964   1.116 -0.5777 -0.0907  1.0251
 4434TIP3    H134861   0.958   0.934   1.206 -0.7845  0.7079  1.3265
 4434TIP3    H234862   0.861   0.931   1.089 -0.1074 -1.1524  0.7743
 4435TIP3   OH234863   3.564   3.386   8.325  0.2588  0.7633 -0.3339
 4435TIP3    H134864   3.604   3.391   8.411 -1.6498  1.0536  0.5979
 4435TIP3    H234865   3.597   3.463   8.278  0.6193  1.0946  0.4538
 4436TIP3   OH234866   3.749   3.117   7.665 -0.6378 -0.4980 -0.3472
 4436TIP3    H134867   3.678   3.135   7.603  0.0193  0.6785 -0.7839
 4436TIP3    H234868   3.808   3.058   7.618 -1.4253 -1.6780  0.1047
 4437TIP3   OH234869   5.324   3.599   7.676 -0.5245 -0.1198  0.5928
 4437TIP3    H134870   5.317   3.561   7.588 -0.2212 -1.2311  1.0473
 4437TIP3    H234871   5.253   3.663   7.679  1.1401  2.0326 -1.4861
 4438TIP3   OH234872   5.487   3.191   0.931 -0.3712 -0.3203 -0.0489
 4438TIP3    H134873   5.511   3.218   0.843  1.5815  2.9275  1.2944
 4438TIP3    H234874   5.404   3.236   0.948  0.0993  0.4515  0.2854
 4439TIP3   OH234875   4.124   6.263   0.036  0.1927  0.0208  0.5450
 4439TIP3    H134876   4.064   6.289   0.105  0.5446  0.6952  0.5996
 4439TIP3    H234877   4.179   6.196   0.076 -0.5080 -0.5998  0.4945
 4440TIP3   OH234878   4.800   0.447   8.686 -0.0363 -0.0546  0.2368
 4440TIP3    H134879   4.720   0.483   8.724 -1.0395  0.3359 -2.0932
 4440TIP3    H234880   4.812   0.494   8.604  1.3863 -1.6092 -0.5171
 4441TIP3   OH234881   1.931   2.925   0.820  0.1526  0.8627 -0.5260
 4441TIP3    H134882   1.900   2.995   0.763  2.9787  1.3552 -1.6611
 4441TIP3    H234883   1.952   2.969   0.903 -0.0157  0.9582 -0.5333
 4442TIP3   OH234884   3.422   4.413   7.372  0.4385  0.0360  0.2075
 4442TIP3    H134885   3.476   4.342   7.406 -0.3223 -0.3648  0.5959
 4442TIP3    H234886   3.380   4.376   7.295  0.6040  0.3057 -0.0160
 4443TIP3   OH234887   3.333   5.506   2.052 -0.2191  0.6040 -0.4256
 4443TIP3    H134888   3.307   5.487   1.962 -2.3280  2.2959 -0.2460
 4443TIP3    H234889   3.336   5.420   2.095 -0.6752 -0.0825 -1.7213
 4444TIP3   OH234890   6.806   0.200   8.159 -0.2428  0.2770  0.1988
 4444TIP3    H134891   6.858   0.235   8.087  0.3380 -1.3411 -0.2119
 4444TIP3    H234892   6.852   0.230   8.238  1.0700 -0.6794 -0.1528
 4445TIP3   OH234893   3.970   2.572   8.418 -0.4710 -0.2216  0.0724
 4445TIP3    H134894   4.005   2.487   8.392  2.5852  0.5345  1.3246
 4445TIP3    H234895   3.933   2.557   8.505 -2.5974 -0.8147 -0.8709
 4446TIP3   OH234896   5.776   6.544   8.761 -0.0648  0.4357  0.0977
 4446TIP3    H134897   5.698   6.529   8.815  0.1837  0.8452  0.5808
 4446TIP3    H234898   5.845   6.492   8.802 -0.6989 -2.2179 -1.9373
 4447TIP3   OH234899   0.578   4.250   7.699 -0.1475  0.0595 -0.1016
 4447TIP3    H134900   0.533   4.185   7.754  0.2709 -0.9262 -0.8793
 4447TIP3    H234901   0.636   4.197   7.644  1.8298  1.2669  0.7230
 4448TIP3   OH234902   6.041   4.434   1.363  0.2479  0.1947  0.0751
 4448TIP3    H134903   6.017   4.434   1.455 -1.9822 -0.5919 -0.4327
 4448TIP3    H234904   5.972   4.484   1.320  0.1901 -1.0394 -1.3666
 4449TIP3   OH234905   0.419   2.979   0.092 -0.4392 -0.0107  0.0306
 4449TIP3    H134906   0.389   2.956   0.004 -2.2742  2.8885 -0.2407
 4449TIP3    H234907   0.349   2.949   0.150  0.2849 -1.0003  0.4015
 4450TIP3   OH234908   0.742   2.467   3.234  0.1793  0.5815  0.0359
 4450TIP3    H134909   0.837   2.481   3.224  0.0166  1.9563  0.1625
 4450TIP3    H234910   0.722   2.394   3.175  1.2505  0.5561 -0.3204
 4451TIP3   OH234911   6.408   2.462   2.789  0.1123  0.1580 -0.7495
 4451TIP3    H134912   6.433   2.397   2.855  0.2659 -0.6317 -1.5611
 4451TIP3    H234913   6.353   2.524   2.835  1.6691  0.6388  0.5644
 4452TIP3   OH234914   3.482   4.823   2.954 -0.3203  0.4893  0.1244
 4452TIP3    H134915   3.489   4.802   2.861 -0.5807  1.0860 -0.0361
 4452TIP3    H234916   3.552   4.885   2.970  0.1757 -0.1543  0.4962
 4453TIP3   OH234917   1.164   2.458   7.564 -0.3380 -0.8515  0.7567
 4453TIP3    H134918   1.225   2.524   7.532  0.4670 -1.6777  0.5067
 4453TIP3    H234919   1.109   2.437   7.488  0.1623 -1.2717  0.4966
 4454TIP3   OH234920   2.761   5.828   2.152 -0.2003 -0.0725 -0.3081
 4454TIP3    H134921   2.755   5.808   2.245 -1.6865  2.8523  0.3713
 4454TIP3    H234922   2.685   5.883   2.134  0.7743  0.6099 -2.9350
 4455TIP3   OH234923   3.568   0.889   1.101  0.0216  0.4020 -0.0838
 4455TIP3    H134924   3.518   0.908   1.022  0.4047 -1.1233 -0.7342
 4455TIP3    H234925   3.657   0.918   1.081 -0.0265  0.6482  0.0544
 4456TIP3   OH234926   6.297   0.186   1.884 -0.5348 -0.0159 -0.2255
 4456TIP3    H134927   6.279   0.216   1.974 -1.7056 -0.2208 -0.3840
 4456TIP3    H234928   6.299   0.091   1.891  3.8313 -0.1114  0.4038
 4457TIP3   OH234929   3.299   6.157   8.367 -0.0730  0.2073 -0.5530
 4457TIP3    H134930   3.352   6.104   8.307 -0.8896 -2.3403  0.8327
 4457TIP3    H234931   3.360   6.222   8.402  1.6625 -1.3665 -0.4926
 4458TIP3   OH234932   1.875   1.710   2.471 -0.1993 -0.2239 -0.5380
 4458TIP3    H134933   1.965   1.711   2.505 -0.8228 -2.5788  1.4271
 4458TIP3    H234934   1.830   1.778   2.521  0.1078 -0.0735 -0.4591
 4459TIP3   OH234935   5.614   5.721   8.047 -0.1557 -0.1995 -0.3893
 4459TIP3    H134936   5.692   5.679   8.082 -0.6701 -0.0599  0.9494
 4459TIP3    H234937   5.547   5.652   8.047 -0.6897  0.2951  0.7562
 4460TIP3   OH234938   2.220   0.995   0.536  0.8470 -0.6547 -0.1537
 4460TIP3    H134939   2.137   0.952   0.515  1.1390 -0.1133 -2.8334
 4460TIP3    H234940   2.283   0.923   0.543  0.4077 -0.9765  0.5888
 4461TIP3   OH234941   5.198   4.281   2.040 -0.5797 -0.2331  0.2261
 4461TIP3    H134942   5.246   4.257   1.961  0.4521  0.9542  0.4588
 4461TIP3    H234943   5.109   4.298   2.010 -0.0815  0.7376 -0.7992
 4462TIP3   OH234944   2.151   3.836   0.088 -0.0688  0.0285  0.0328
 4462TIP3    H134945   2.187   3.884   0.013  0.0477 -3.7115 -2.5682
 4462TIP3    H234946   2.210   3.762   0.100 -2.4880 -1.8910  0.9164
 4463TIP3   OH234947   5.153   4.699   1.105 -0.1515 -0.2450  0.1108
 4463TIP3    H134948   5.243   4.693   1.073 -0.2967 -3.6124  0.0331
 4463TIP3    H234949   5.161   4.698   1.200 -0.0982  0.1702  0.1130
 4464TIP3   OH234950   1.487   4.680   7.498  0.1539 -0.1492  0.5176
 4464TIP3    H134951   1.456   4.703   7.410  1.3790  0.7100  0.2930
 4464TIP3    H234952   1.417   4.710   7.556 -0.1658  0.2920 -0.0866
 4465TIP3   OH234953   4.333   6.040   1.885  0.3652 -0.5117  0.8509
 4465TIP3    H134954   4.370   6.095   1.954 -1.1213 -1.3346  2.3781
 4465TIP3    H234955   4.301   5.962   1.931  0.7255 -1.8280 -0.9915
 4466TIP3   OH234956   3.870   0.393   0.427  0.2452 -0.5421  0.2692
 4466TIP3    H134957   3.947   0.429   0.383 -0.5087  0.3668 -0.3460
 4466TIP3    H234958   3.898   0.308   0.458  1.1043 -0.8117 -1.1440
 4467TIP3   OH234959   1.771   6.368   2.439 -0.0691  0.5222  0.0429
 4467TIP3    H134960   1.789   6.274   2.430 -0.9712  0.1830  1.5198
 4467TIP3    H234961   1.857   6.409   2.427  0.4280 -0.5133 -0.1159
 4468TIP3   OH234962   5.474   1.619   0.431  0.1212  0.3721  0.3470
 4468TIP3    H134963   5.467   1.559   0.356  1.9936 -0.1079  0.5090
 4468TIP3    H234964   5.443   1.703   0.397  0.2476 -0.0111 -0.7564
 4469TIP3   OH234965   1.610   1.345   1.702  0.9142 -0.0668  0.2056
 4469TIP3    H134966   1.661   1.292   1.641 -0.5919 -2.5003  0.9258
 4469TIP3    H234967   1.642   1.322   1.789  1.3197  1.4781  0.5102
 4470TIP3   OH234968   0.455   2.395   8.488  0.3718  0.0393  0.1251
 4470TIP3    H134969   0.491   2.395   8.399  1.7491  0.6807  0.6576
 4470TIP3    H234970   0.484   2.313   8.526  1.3101  0.5533  0.5522
 4471TIP3   OH234971   3.913   5.416   7.410  0.1113  0.7287 -0.6272
 4471TIP3    H134972   3.931   5.437   7.502 -1.2019 -1.3226  0.1773
 4471TIP3    H234973   3.818   5.411   7.405  0.2120 -1.1792 -1.5715
 4472TIP3   OH234974   0.205   6.714   2.485  0.1798 -0.3629 -0.3000
 4472TIP3    H134975   0.181   6.753   2.401 -1.2610 -0.9357 -0.1807
 4472TIP3    H234976   0.232   6.787   2.540 -2.4764  0.5403 -0.0649
 4473TIP3   OH234977   5.967   0.949   0.165 -0.4631  0.3573  0.0945
 4473TIP3    H134978   5.880   0.923   0.135 -0.9146  1.4185  0.4369
 4473TIP3    H234979   5.951   1.023   0.223  0.6081  0.0069  0.8600
 4474TIP3   OH234980   1.137   0.152   8.006 -0.5884 -0.6265 -0.7045
 4474TIP3    H134981   1.226   0.137   8.036 -1.2068 -1.0608  1.0555
 4474TIP3    H234982   1.084   0.090   8.057 -2.0479  0.5454 -0.7218
 4475TIP3   OH234983   5.109   2.607   8.171 -0.1532  0.5912  0.4987
 4475TIP3    H134984   5.143   2.684   8.216 -1.4268  0.5596  1.5532
 4475TIP3    H234985   5.167   2.536   8.197  0.8675  1.1113 -0.2667
 4476TIP3   OH234986   3.562   2.090   0.694 -0.1946  0.5031 -0.1219
 4476TIP3    H134987   3.523   2.165   0.739  0.4856  0.8512 -0.0850
 4476TIP3    H234988   3.544   2.106   0.602 -3.4993 -1.3079  0.0581
 4477TIP3   OH234989   6.306   5.901   1.283  0.7736 -0.5115 -0.1653
 4477TIP3    H134990   6.347   5.927   1.366 -0.3879  0.9891 -0.0140
 4477TIP3    H234991   6.378   5.902   1.220  1.1485  1.5295  0.2079
 4478TIP3   OH234992   2.716   5.812   1.583 -0.3729  0.1440  0.3899
 4478TIP3    H134993   2.797   5.801   1.633 -1.4381 -2.4577  1.7368
 4478TIP3    H234994   2.647   5.814   1.649 -1.5224  1.3981 -0.7784
 4479TIP3   OH234995   6.568   6.452   7.535  0.1198  0.0355  0.5737
 4479TIP3    H134996   6.661   6.470   7.553  0.1409 -0.2344  0.7447
 4479TIP3    H234997   6.562   6.356   7.539 -0.2317  0.0696  0.8971
 4480TIP3   OH234998   4.904   3.269   2.768 -0.1204  0.1864 -0.0722
 4480TIP3    H134999   4.930   3.177   2.770 -0.0699  0.1757 -0.8738
 4480TIP3    H235000   4.830   3.272   2.707  0.2914  0.7762 -0.5558
 4481TIP3   OH235001   5.484   0.428   0.061  0.1469  0.0035 -0.2765
 4481TIP3    H135002   5.514   0.338   0.046  0.3278  0.0320 -0.1013
 4481TIP3    H235003   5.544   0.462   0.128  0.5135  0.4846 -0.8451
 4482TIP3   OH235004   4.799   6.693   8.258 -0.1746 -0.1595 -0.4076
 4482TIP3    H135005   4.826   6.771   8.307  1.8823 -0.4129 -1.0259
 4482TIP3    H235006   4.722   6.661   8.305  1.6889 -0.4383  2.8022
 4483TIP3   OH235007   5.262   3.818   1.727  0.1008  0.4746 -0.0886
 4483TIP3    H135008   5.281   3.893   1.671  1.1485  2.1568  2.3609
 4483TIP3    H235009   5.177   3.839   1.767 -0.6544 -0.7203 -1.0022
 4484TIP3   OH235010   1.891   4.501   7.938 -0.7671 -0.4140 -0.4566
 4484TIP3    H135011   1.922   4.539   8.020 -1.7436 -1.3813  0.3999
 4484TIP3    H235012   1.965   4.448   7.906 -0.7492 -0.9178  0.3958
 4485TIP3   OH235013   0.109   6.693   6.651  0.2782 -0.1679 -0.2724
 4485TIP3    H135014   0.027   6.644   6.649 -0.2586  0.6846  0.3905
 4485TIP3    H235015   0.173   6.631   6.686 -0.0473 -0.8589 -0.8576
 4486TIP3   OH235016   6.000   3.989   2.060 -0.4090 -0.5020 -0.1137
 4486TIP3    H135017   5.927   4.051   2.065  0.3671  0.3361  2.1156
 4486TIP3    H235018   6.071   4.032   2.108  0.4184 -2.7518  0.8079
 4487TIP3   OH235019   5.007   0.608   0.242 -0.1955  0.0402 -0.0204
 4487TIP3    H135020   5.101   0.599   0.226 -0.1545 -2.6802  1.2013
 4487TIP3    H235021   4.983   0.527   0.287 -3.1447  0.6498 -0.3276
 4488TIP3   OH235022   1.462   1.243   2.157  0.3787 -0.1942 -0.1160
 4488TIP3    H135023   1.500   1.255   2.244 -0.8152 -0.8311  0.5208
 4488TIP3    H235024   1.386   1.302   2.156  1.4429  1.2326 -1.4440
 4489TIP3   OH235025   4.654   6.193   1.650  0.0080 -0.1846  0.8052
 4489TIP3    H135026   4.625   6.110   1.611 -0.0765  0.4853 -0.6478
 4489TIP3    H235027   4.734   6.215   1.602 -0.5287  1.0667  0.4445
 4490TIP3   OH235028   2.234   1.312   7.474 -0.4638 -0.2227 -0.1391
 4490TIP3    H135029   2.225   1.294   7.381  0.3756  1.4655 -0.5788
 4490TIP3    H235030   2.328   1.316   7.490 -0.5833  1.4558  0.3422
 4491TIP3   OH235031   4.012   5.009   0.941 -0.2940  0.1207  0.2051
 4491TIP3    H135032   4.028   4.925   0.983 -0.8917 -0.5846 -0.9254
 4491TIP3    H235033   4.091   5.060   0.958  0.7119 -1.2082 -0.3646
 4492TIP3   OH235034   3.276   1.304   8.741 -0.0477  0.4754 -0.0890
 4492TIP3    H135035   3.364   1.335   8.722  0.8166 -1.4479  0.5969
 4492TIP3    H235036   3.288   1.226   8.795 -2.1811  0.3338  0.2934
 4493TIP3   OH235037   0.397   1.051   1.350 -0.3212 -0.4702  0.0439
 4493TIP3    H135038   0.389   1.144   1.326  1.6856 -0.1686  0.3662
 4493TIP3    H235039   0.309   1.026   1.379 -0.9082  1.3215 -0.0712
 4494TIP3   OH235040   3.338   1.387   0.307  0.3396 -0.0008 -1.1597
 4494TIP3    H135041   3.333   1.473   0.264  0.8041  0.3117 -0.5944
 4494TIP3    H235042   3.257   1.343   0.281  0.3688  0.3770 -1.9398
 4495TIP3   OH235043   2.313   5.195   7.712  0.1126  0.0559  0.6561
 4495TIP3    H135044   2.251   5.167   7.646  0.5437  0.9586 -0.1685
 4495TIP3    H235045   2.314   5.125   7.777 -0.1565 -0.9452 -0.4039
 4496TIP3   OH235046   0.855   1.380   7.632  0.4958 -0.2716 -0.2606
 4496TIP3    H135047   0.860   1.459   7.577  0.3201 -0.7489 -0.9773
 4496TIP3    H235048   0.815   1.410   7.713 -1.3879  0.0233 -1.2424
 4497TIP3   OH235049   4.629   6.731   1.103 -0.3737 -0.2438 -0.0600
 4497TIP3    H135050   4.584   6.657   1.061  0.8036 -0.8184 -0.3653
 4497TIP3    H235051   4.689   6.689   1.165 -0.8514  0.5355  0.9405
 4498TIP3   OH235052   4.254   4.285   0.038 -0.7658 -0.7180  0.1181
 4498TIP3    H135053   4.324   4.274  -0.026 -0.3334 -0.2853  0.5039
 4498TIP3    H235054   4.185   4.225   0.010 -1.0648  0.2906 -1.4089
 4499TIP3   OH235055   2.602   5.963   8.100 -0.1511  0.3728  0.0257
 4499TIP3    H135056   2.600   6.015   8.019 -2.3856  1.2857  0.5768
 4499TIP3    H235057   2.588   5.873   8.071  1.7336  0.2985 -0.7837
 4500TIP3   OH235058   2.544   5.015   8.718  0.3091  0.1471  0.0404
 4500TIP3    H135059   2.594   4.999   8.638 -0.2139 -1.6035  0.0173
 4500TIP3    H235060   2.603   5.066   8.773  0.2469  2.5202 -1.8909
 4501TIP3   OH235061   4.345   1.927   2.397 -0.1779 -0.9636 -0.2195
 4501TIP3    H135062   4.355   1.928   2.492 -1.4702  0.1598 -0.0709
 4501TIP3    H235063   4.422   1.880   2.365  0.0450 -1.7512  1.4038
 4502TIP3   OH235064   4.848   3.660   1.035 -0.5400 -0.1485  0.4711
 4502TIP3    H135065   4.901   3.582   1.019  0.1015  0.0254  1.6675
 4502TIP3    H235066   4.824   3.691   0.947  2.2187  0.3880 -0.1856
 4503TIP3   OH235067   5.382   3.795   8.716 -0.6784  0.5294  0.2899
 4503TIP3    H135068   5.292   3.765   8.729 -1.2188  1.7902 -0.3581
 4503TIP3    H235069   5.390   3.811   8.622  0.2763  0.2929  0.3140
 4504TIP3   OH235070   1.970   6.631   1.064  0.0458  0.0753  0.0977
 4504TIP3    H135071   1.904   6.694   1.035  0.4809  1.7695  2.5516
 4504TIP3    H235072   1.920   6.550   1.078 -2.0050  1.7144  3.4308
 4505TIP3   OH235073   3.973   1.221   0.484  0.2675 -0.5908  0.6588
 4505TIP3    H135074   3.935   1.303   0.452  1.4979  0.3385  1.4711
 4505TIP3    H235075   3.942   1.214   0.574  0.1783 -1.0095  0.5948
 4506TIP3   OH235076   3.157   4.087   7.572 -0.1277 -0.4922 -0.0922
 4506TIP3    H135077   3.148   4.170   7.524  0.0825  0.0083  0.7060
 4506TIP3    H235078   3.225   4.039   7.524 -1.0494 -0.7002 -1.2223
 4507TIP3   OH235079   4.135   1.078   8.766  0.7365 -0.5496  0.2018
 4507TIP3    H135080   4.053   1.125   8.782  0.8183 -0.1164 -0.5755
 4507TIP3    H235081   4.200   1.122   8.820  0.3600 -1.2212  1.2173
 4508TIP3   OH235082   1.447   5.158   8.613  0.0700 -0.1734 -0.4986
 4508TIP3    H135083   1.464   5.114   8.697  0.2710  1.4668  0.3616
 4508TIP3    H235084   1.392   5.096   8.565 -0.7164 -0.8423  1.1639
 4509TIP3   OH235085   3.506   0.983   0.858  0.1873  0.3457  0.5870
 4509TIP3    H135086   3.422   0.992   0.812  0.6716  1.6141 -0.0908
 4509TIP3    H235087   3.549   0.909   0.815 -0.4542 -0.1272  0.7431
 4510TIP3   OH235088   1.483   6.455   1.241  0.2210 -0.1474  0.4009
 4510TIP3    H135089   1.457   6.396   1.311 -1.7147 -0.0091 -0.1387
 4510TIP3    H235090   1.500   6.538   1.285  0.8829 -0.5498  0.9147
 4511TIP3   OH235091   0.204   0.653   6.546  0.2670  0.3800  0.5043
 4511TIP3    H135092   0.273   0.648   6.613 -0.6881 -0.2807  1.4742
 4511TIP3    H235093   0.160   0.568   6.552 -0.5747  0.7642 -0.1715
 4512TIP3   OH235094   0.242   0.795   1.160  0.8833  0.4511  0.1464
 4512TIP3    H135095   0.261   0.715   1.111  1.0391  0.2136  0.6008
 4512TIP3    H235096   0.154   0.782   1.195  1.4549 -0.1220  1.4179
 4513TIP3   OH235097   2.397   3.657   7.914 -0.0763 -0.3398  0.1338
 4513TIP3    H135098   2.463   3.688   7.976  0.4486 -2.3629  0.6654
 4513TIP3    H235099   2.346   3.735   7.892  1.3802  0.9341  1.0662
 4514TIP3   OH235100   3.791   4.414   1.489 -0.3086 -0.0343  0.3271
 4514TIP3    H135101   3.877   4.451   1.507  0.0009 -1.3502  1.7224
 4514TIP3    H235102   3.746   4.483   1.439  0.7161  1.6333  1.5793
 4515TIP3   OH235103   3.875   1.462   0.384  0.5841  0.3884  0.3701
 4515TIP3    H135104   3.815   1.528   0.350 -0.2910  1.2025  3.2473
 4515TIP3    H235105   3.904   1.496   0.468  0.8380 -2.4630  1.5700
 4516TIP3   OH235106   6.411   1.867   8.174 -0.0117  0.2898 -0.2548
 4516TIP3    H135107   6.456   1.789   8.142  1.3809  1.3078 -0.9035
 4516TIP3    H235108   6.346   1.887   8.107 -1.8318 -1.4301  0.8818
 4517TIP3   OH235109   0.373   6.574   1.061  0.2139 -0.1747  0.0032
 4517TIP3    H135110   0.333   6.620   1.135  0.4517 -0.7706  0.5047
 4517TIP3    H235111   0.429   6.640   1.020  1.6897 -0.3892  1.5846
 4518TIP3   OH235112   3.959   4.333   8.225 -0.0150  0.2785  0.3303
 4518TIP3    H135113   4.024   4.320   8.155  0.2082  0.7120  0.4527
 4518TIP3    H235114   3.929   4.245   8.246  0.8332  0.0333  0.5505
 4519TIP3   OH235115   6.128   2.967   8.556  0.6510 -0.3308 -0.7818
 4519TIP3    H135116   6.173   3.047   8.585 -0.1824  0.0586 -0.5490
 4519TIP3    H235117   6.133   2.908   8.631 -1.5159  0.6797  0.2157
 4520TIP3   OH235118   4.201   2.186   8.724  0.2350 -0.1776  0.1476
 4520TIP3    H135119   4.200   2.120   8.794  0.9352  0.4086  0.7355
 4520TIP3    H235120   4.201   2.135   8.643  0.9155 -0.9073  0.5917
 4521TIP3   OH235121   2.430   4.613   2.072 -0.3801 -0.3956 -0.2265
 4521TIP3    H135122   2.483   4.671   2.126 -0.7094 -0.6696  0.4080
 4521TIP3    H235123   2.492   4.549   2.038  0.0281  0.4590 -1.1366
 4522TIP3   OH235124   4.496   2.323   1.577 -0.0670 -0.6772 -0.0955
 4522TIP3    H135125   4.589   2.344   1.587 -0.2696  0.0096  0.3772
 4522TIP3    H235126   4.490   2.278   1.492  0.8799 -1.8223  0.4235
 4523TIP3   OH235127   5.847   1.280   0.685 -0.1619  0.4842 -0.4261
 4523TIP3    H135128   5.865   1.355   0.742 -2.0453 -0.2889  1.2956
 4523TIP3    H235129   5.752   1.271   0.686 -0.0762 -1.0418 -1.7906
 4524TIP3   OH235130   6.579   5.458   0.765 -0.1004  0.0104 -0.3185
 4524TIP3    H135131   6.608   5.495   0.681  0.7214 -1.2859 -0.6405
 4524TIP3    H235132   6.621   5.513   0.831  0.8616 -0.1531 -0.7791
 4525TIP3   OH235133   0.082   4.142   1.381  0.0170 -0.0578 -0.5019
 4525TIP3    H135134   0.021   4.184   1.320 -0.9725  0.2233  0.6449
 4525TIP3    H235135   0.096   4.055   1.345  1.3073  0.8533 -2.3913
 4526TIP3   OH235136   4.242   5.059   8.116 -0.1560  1.0589  0.7428
 4526TIP3    H135137   4.280   4.979   8.152 -1.3218 -0.2012 -0.6937
 4526TIP3    H235138   4.153   5.061   8.153 -0.3436  1.3470  0.2786
 4527TIP3   OH235139   3.349   2.433   8.201  0.4297  0.6243  0.2592
 4527TIP3    H135140   3.310   2.499   8.257 -1.1272 -0.6258  0.7148
 4527TIP3    H235141   3.344   2.352   8.252 -0.6999 -0.4826 -1.5166
 4528TIP3   OH235142   0.535   4.277   1.915 -0.3218 -0.1068 -0.1730
 4528TIP3    H135143   0.578   4.191   1.916 -0.0338  0.0021 -1.2424
 4528TIP3    H235144   0.607   4.339   1.925 -0.6685  0.0200  2.1200
 4529TIP3   OH235145   3.179   2.605   1.022 -0.2796 -0.8244 -0.1077
 4529TIP3    H135146   3.115   2.673   1.000  1.3695  0.6304 -0.6699
 4529TIP3    H235147   3.173   2.542   0.950 -0.5278 -0.2857 -0.5706
 4530TIP3   OH235148   5.641   1.356   1.921  0.1929  0.3044  0.5738
 4530TIP3    H135149   5.669   1.436   1.875 -2.0167 -0.6684 -2.8626
 4530TIP3    H235150   5.664   1.372   2.012  0.6687  4.5140 -0.0586
 4531TIP3   OH235151   2.834   0.616   7.806  0.2518 -0.3063 -0.2168
 4531TIP3    H135152   2.811   0.648   7.719  0.2563 -0.4854 -0.2867
 4531TIP3    H235153   2.791   0.530   7.812 -0.8787  0.2887  0.4830
 4532TIP3   OH235154   6.695   3.705   2.235  0.2735 -0.1661  0.4388
 4532TIP3    H135155   6.674   3.782   2.182  1.9153 -0.3240 -0.5031
 4532TIP3    H235156   6.692   3.737   2.325 -0.1771  0.7084  0.1288
 4533TIP3   OH235157   1.185   0.598   1.210  0.4355  0.1762 -0.3521
 4533TIP3    H135158   1.144   0.622   1.293  1.6321 -0.3118  0.3946
 4533TIP3    H235159   1.229   0.515   1.228 -0.5047 -0.7015 -1.8680
 4534TIP3   OH235160   0.041   5.066   7.437  0.0721  0.0006 -0.8914
 4534TIP3    H135161   0.075   5.119   7.509  0.9364  0.7851 -1.8412
 4534TIP3    H235162  -0.042   5.032   7.469  1.7289 -2.0954  1.5881
 4535TIP3   OH235163   3.737   5.093   7.948 -0.3640 -0.4899 -0.2188
 4535TIP3    H135164   3.730   5.057   7.860  1.6696  2.7649 -1.9337
 4535TIP3    H235165   3.652   5.135   7.964 -0.6348 -0.8230 -0.7602
 4536TIP3   OH235166   3.314   2.864   1.972  1.0510 -0.3660  0.1783
 4536TIP3    H135167   3.299   2.957   1.989  1.0646  0.3417 -2.9395
 4536TIP3    H235168   3.400   2.861   1.929  1.2490 -1.8927  0.6184
 4537TIP3   OH235169   2.287   4.986   7.897 -0.8982  0.2414  0.0822
 4537TIP3    H135170   2.296   4.986   7.992 -0.2358 -1.2241  0.0528
 4537TIP3    H235171   2.228   4.913   7.878  1.6067 -1.7162 -0.7651
 4538TIP3   OH235172   0.084   5.423   0.397 -0.2624  0.8523  0.0247
 4538TIP3    H135173   0.152   5.464   0.450 -1.4910  2.2668  0.5528
 4538TIP3    H235174   0.121   5.422   0.308  1.0362  0.2108  0.5495
 4539TIP3   OH235175   3.424   3.065   2.187  0.2531 -0.0106 -0.4312
 4539TIP3    H135176   3.513   3.039   2.165  0.2352  0.7133 -1.4530
 4539TIP3    H235177   3.385   3.089   2.103 -0.2863  1.5323  0.2167
 4540TIP3   OH235178   3.129   5.463   8.613 -0.6679  0.4913  0.2045
 4540TIP3    H135179   3.049   5.496   8.574 -0.4963  1.2254  0.4481
 4540TIP3    H235180   3.111   5.462   8.707 -1.0011 -1.0442  0.1542
 4541TIP3   OH235181   6.568   5.413   1.871 -0.2715  0.5866 -0.0869
 4541TIP3    H135182   6.510   5.361   1.926  0.3580 -0.7218 -0.6269
 4541TIP3    H235183   6.538   5.503   1.884 -1.5892  0.0786  0.6218
 4542TIP3   OH235184   5.984   3.871   6.544 -0.5425  0.4046 -0.0630
 4542TIP3    H135185   6.048   3.800   6.541  1.0020  1.7327 -0.1437
 4542TIP3    H235186   5.915   3.839   6.602  0.2744 -1.0202  0.1609
 4543TIP3   OH235187   5.671   2.003   0.252 -0.0270 -0.1625  0.5036
 4543TIP3    H135188   5.743   2.053   0.213 -0.1841  0.8821  1.4937
 4543TIP3    H235189   5.714   1.935   0.305  0.2596  0.5905  1.2636
 4544TIP3   OH235190   6.106   3.907   1.200  0.1204 -0.2856  0.2462
 4544TIP3    H135191   6.052   3.981   1.228 -0.4863 -0.5861 -0.1005
 4544TIP3    H235192   6.131   3.863   1.282  1.6464  1.0713  0.5574
 4545TIP3   OH235193   2.671   0.249   7.963 -0.4394  0.9871  0.2405
 4545TIP3    H135194   2.638   0.161   7.980  0.4393  0.5434 -0.2742
 4545TIP3    H235195   2.596   0.295   7.925 -0.3798 -0.1383 -1.3436
 4546TIP3   OH235196   5.866   4.464   1.084 -0.4621 -0.7602 -0.3679
 4546TIP3    H135197   5.893   4.517   1.009  0.0721 -0.1780  0.2329
 4546TIP3    H235198   5.810   4.522   1.136  1.3801 -0.2311  1.1108
 4547TIP3   OH235199   4.614   4.129   7.310  0.7967  0.1027  0.1851
 4547TIP3    H135200   4.647   4.208   7.268  1.3431  0.1863  0.7722
 4547TIP3    H235201   4.676   4.110   7.381  0.5774 -0.7502  0.1661
 4548TIP3   OH235202   5.774   5.464   0.152 -0.0967 -0.9990  0.0427
 4548TIP3    H135203   5.696   5.480   0.204  0.7509  0.6220  0.8846
 4548TIP3    H235204   5.847   5.473   0.214  0.7710 -2.9214 -0.6118
 4549TIP3   OH235205   6.521   0.783   7.985  0.3915  0.6672  1.1479
 4549TIP3    H135206   6.516   0.712   7.921  0.6752  0.2891  1.5355
 4549TIP3    H235207   6.467   0.752   8.058  0.5953  0.8095  1.3591
 4550TIP3   OH235208   1.290   3.788   1.904  0.6850 -0.1450 -0.7838
 4550TIP3    H135209   1.219   3.832   1.858  0.1525  0.2578  0.3780
 4550TIP3    H235210   1.357   3.855   1.915  1.4454 -0.6297 -2.2307
 4551TIP3   OH235211   5.095   1.547   8.267 -0.0190  0.0841  0.2457
 4551TIP3    H135212   5.125   1.583   8.184  1.5539  0.2301  0.8390
 4551TIP3    H235213   5.012   1.591   8.284 -0.3495  0.0644 -1.2250
 4552TIP3   OH235214   3.084   6.042   8.744 -0.1703  0.0315  0.0106
 4552TIP3    H135215   3.000   6.000   8.730  0.5731 -2.2698  1.7360
 4552TIP3    H235216   3.064   6.120   8.796 -1.1298 -1.5387  2.1265
 4553TIP3   OH235217   0.310   3.319   2.491  0.3178 -0.2711 -0.2190
 4553TIP3    H135218   0.265   3.250   2.440  0.3643 -1.0505  0.7657
 4553TIP3    H235219   0.379   3.272   2.537  1.0477  0.6432 -0.3762
 4554TIP3   OH235220   2.763   5.244   7.513 -0.3994 -0.3937  0.3751
 4554TIP3    H135221   2.776   5.187   7.589  2.2587  0.2360  0.4942
 4554TIP3    H235222   2.762   5.333   7.548 -0.6832 -0.1673 -0.1799
 4555TIP3   OH235223   5.826   1.817   0.825 -0.1185 -0.0053 -0.2704
 4555TIP3    H135224   5.860   1.741   0.873 -1.3830 -0.1539  0.4282
 4555TIP3    H235225   5.762   1.781   0.765  1.9645  0.0880 -2.7136
 4556TIP3   OH235226   3.253   2.918   1.100  0.2607 -0.1792  0.4638
 4556TIP3    H135227   3.223   3.007   1.117 -2.8610 -0.5293 -2.1301
 4556TIP3    H235228   3.172   2.868   1.090  1.6118 -1.9127 -4.4984
 4557TIP3   OH235229   4.296   6.608   7.484  0.5303  0.4446 -0.7219
 4557TIP3    H135230   4.253   6.631   7.401 -0.0814  0.4168 -0.4163
 4557TIP3    H235231   4.378   6.657   7.482  0.2117  0.9838 -1.0424
 4558TIP3   OH235232   6.714   1.255   7.914  0.1438 -0.4151  0.0813
 4558TIP3    H135233   6.633   1.216   7.947  0.1395 -0.0824  0.4591
 4558TIP3    H235234   6.761   1.181   7.875  0.3918 -0.9277  1.2974
 4559TIP3   OH235235   0.349   3.145   8.320 -0.3986 -0.5653 -0.3085
 4559TIP3    H135236   0.301   3.117   8.398 -2.0956  0.6324 -0.8715
 4559TIP3    H235237   0.389   3.064   8.287  1.1190 -0.9451  2.2531
 4560TIP3   OH235238   3.824   3.732   1.055  0.4838 -0.2053  0.4932
 4560TIP3    H135239   3.740   3.773   1.074  0.2839 -0.5255  0.3109
 4560TIP3    H235240   3.886   3.805   1.050  0.1279  0.0818  0.1414
 4561TIP3   OH235241   2.911   1.393   0.208 -0.3475  0.0263 -0.0803
 4561TIP3    H135242   2.963   1.447   0.268 -0.2963  0.9107 -0.9041
 4561TIP3    H235243   2.821   1.404   0.237 -0.3942  0.9793 -0.5526
 4562TIP3   OH235244   4.142   1.643   2.250 -0.9214 -0.4219 -0.1449
 4562TIP3    H135245   4.162   1.641   2.344 -1.1318 -0.8097 -0.1061
 4562TIP3    H235246   4.080   1.571   2.237  0.0143 -1.1419 -0.7919
 4563TIP3   OH235247   6.259   3.162   8.708 -0.1219 -0.7789  0.4699
 4563TIP3    H135248   6.345   3.125   8.724  0.3527  0.1213  0.0614
 4563TIP3    H235249   6.274   3.256   8.702 -1.1629 -0.5918  0.5766
 4564TIP3   OH235250   5.319   0.451   1.806 -0.7529 -0.1443  0.0808
 4564TIP3    H135251   5.277   0.377   1.848 -0.9976  1.2262  2.4456
 4564TIP3    H235252   5.252   0.486   1.747 -1.5843 -0.2819  0.9088
 4565TIP3   OH235253   4.745   5.913   0.036  0.8239  1.0799 -0.3565
 4565TIP3    H135254   4.669   5.938  -0.016  0.5034  2.0120  0.5359
 4565TIP3    H235255   4.744   5.817   0.035  0.1299  1.0843 -1.0485
 4566TIP3   OH235256   5.808   4.179   2.041 -0.2604 -0.2037 -0.2844
 4566TIP3    H135257   5.727   4.171   2.091  0.7902 -2.0759  1.2628
 4566TIP3    H235258   5.860   4.242   2.090 -0.5897  0.6872 -1.0515
 4567TIP3   OH235259   6.748   6.191   7.299 -0.7459 -0.0920  0.6251
 4567TIP3    H135260   6.733   6.282   7.274 -1.9141 -0.1429  1.0938
 4567TIP3    H235261   6.841   6.189   7.324 -0.7528  1.0167  0.8013
 4568TIP3   OH235262   5.332   0.059   0.776  0.7195 -0.0774 -0.2874
 4568TIP3    H135263   5.300  -0.015   0.724  0.1821 -1.0614  1.3766
 4568TIP3    H235264   5.363   0.123   0.711 -0.3145 -1.0701 -1.8030
 4569TIP3   OH235265   5.420   1.504   0.190  0.7134  0.3133  0.9633
 4569TIP3    H135266   5.494   1.547   0.147  0.5031  0.4145  0.6979
 4569TIP3    H235267   5.414   1.419   0.146  0.7728  0.2433  1.0931
 4570TIP3   OH235268   5.683   4.583   2.340  0.1435  0.1234  0.1433
 4570TIP3    H135269   5.659   4.509   2.396  2.9983 -0.7633  0.3569
 4570TIP3    H235270   5.643   4.563   2.256  1.1109 -1.9199  0.0876
 4571TIP3   OH235271   4.762   1.107   1.795  0.0025 -0.1038  0.7328
 4571TIP3    H135272   4.766   1.060   1.878  1.1708 -2.1137 -0.3747
 4571TIP3    H235273   4.848   1.150   1.788  0.5820 -1.3660 -0.1795
 4572TIP3   OH235274   0.985   4.614   0.660 -0.4460 -0.1066 -0.0999
 4572TIP3    H135275   0.939   4.625   0.743 -0.6490 -1.3217 -0.0386
 4572TIP3    H235276   1.073   4.585   0.685 -1.2813 -3.2078 -0.2978
 4573TIP3   OH235277   4.793   4.558   8.537 -0.0853  0.1302  0.0167
 4573TIP3    H135278   4.881   4.529   8.560 -0.4228 -1.6280 -0.7560
 4573TIP3    H235279   4.771   4.624   8.603  0.8994 -1.1383  1.6826
 4574TIP3   OH235280   0.959   5.525   1.847 -0.5620  0.6213  0.7186
 4574TIP3    H135281   1.048   5.552   1.824 -1.0531  1.2083 -0.6483
 4574TIP3    H235282   0.966   5.432   1.867  0.5894  0.9693  2.0689
 4575TIP3   OH235283   4.287   4.843   8.724 -0.4032  0.0768  0.3054
 4575TIP3    H135284   4.303   4.933   8.752 -2.3307  1.0704 -1.5008
 4575TIP3    H235285   4.211   4.815   8.774 -1.1763  0.2965 -0.7097
 4576TIP3   OH235286   0.760   6.761   2.187 -0.1722  0.3628  0.2033
 4576TIP3    H135287   0.842   6.745   2.234  0.7907 -1.0952 -1.8561
 4576TIP3    H235288   0.711   6.680   2.196 -1.1376  0.9916  0.8352
 4577TIP3   OH235289   5.376   3.627   0.361  0.0369  0.3344 -0.0585
 4577TIP3    H135290   5.465   3.658   0.347  0.7359 -1.5368  0.0265
 4577TIP3    H235291   5.383   3.565   0.434 -1.1662 -0.5683 -0.6770
 4578TIP3   OH235292   0.187   0.728   7.488 -0.5232  0.1108  0.1593
 4578TIP3    H135293   0.198   0.768   7.575 -0.7747  0.8236 -0.1233
 4578TIP3    H235294   0.259   0.764   7.437  0.5046 -1.4637  0.4590
 4579TIP3   OH235295   6.649   4.692   2.036 -0.5998 -1.2620  0.0347
 4579TIP3    H135296   6.645   4.645   1.953 -1.6518 -0.9185 -0.1204
 4579TIP3    H235297   6.558   4.701   2.064 -0.5385  1.3129 -0.3158
 4580TIP3   OH235298   2.672   4.535   0.803 -0.3266 -0.4691  0.2452
 4580TIP3    H135299   2.723   4.473   0.856 -0.5067 -0.6896  0.1642
 4580TIP3    H235300   2.583   4.528   0.838 -0.4394 -0.5872 -0.0651
 4581TIP3   OH235301   6.430   3.370   1.486 -0.1838  0.4140  0.1725
 4581TIP3    H135302   6.410   3.307   1.417  0.8222 -0.3234  0.5397
 4581TIP3    H235303   6.348   3.418   1.499 -0.8431 -0.5358 -0.3909
 4582TIP3   OH235304   2.487   5.459   8.229  0.6270  0.4675 -0.3603
 4582TIP3    H135305   2.420   5.518   8.195  0.1007 -0.1640 -0.4459
 4582TIP3    H235306   2.439   5.379   8.252  1.4250 -0.1611 -0.8409
 4583TIP3   OH235307   3.275   1.775   0.664 -0.3334 -0.5320 -0.1866
 4583TIP3    H135308   3.242   1.846   0.608  0.1616 -0.0742  0.0948
 4583TIP3    H235309   3.240   1.795   0.751 -2.1731 -1.9376 -0.5383
 4584TIP3   OH235310   1.238   3.579   2.087 -0.1066  0.0517  0.1815
 4584TIP3    H135311   1.238   3.663   2.041 -0.3066 -0.4726 -0.7917
 4584TIP3    H235312   1.319   3.536   2.060  0.4448  0.2883  1.3799
 4585TIP3   OH235313   4.623   2.994   7.465  0.1673 -0.1408  0.1890
 4585TIP3    H135314   4.685   3.062   7.489 -1.7203  1.4763  0.7805
 4585TIP3    H235315   4.649   2.967   7.377  0.1284  2.4179 -0.6823
 4586TIP3   OH235316   0.385   2.197   1.719 -0.7440  0.0754 -0.0273
 4586TIP3    H135317   0.473   2.234   1.731  0.3858 -2.4273  0.0976
 4586TIP3    H235318   0.392   2.148   1.637 -1.4953 -1.5377  0.8461
 4587TIP3   OH235319   0.862   2.852   7.892 -0.3248  0.3849 -0.0695
 4587TIP3    H135320   0.794   2.857   7.959  0.9148  0.3163  1.2353
 4587TIP3    H235321   0.859   2.761   7.861  0.2125 -0.0612  1.1313
 4588TIP3   OH235322   1.220   0.114   8.753 -0.3973 -0.2442 -0.0837
 4588TIP3    H135323   1.143   0.162   8.782  1.0919  1.4985  1.2293
 4588TIP3    H235324   1.248   0.157   8.672 -0.5711 -0.6279 -0.3519
 4589TIP3   OH235325   1.852   3.042   2.483 -0.1933 -0.2515  0.3466
 4589TIP3    H135326   1.842   3.098   2.560  1.5573  0.3582  0.1716
 4589TIP3    H235327   1.923   3.082   2.433 -0.5668 -1.2535 -1.0541
 4590TIP3   OH235328   1.618   4.054   0.364 -0.3907  0.2968  0.6181
 4590TIP3    H135329   1.620   3.960   0.379  1.1869  0.2353  0.2322
 4590TIP3    H235330   1.644   4.064   0.272 -0.7217  1.0957  0.6043
 4591TIP3   OH235331   4.863   6.671   7.996  0.1032 -0.1102  0.5277
 4591TIP3    H135332   4.879   6.579   8.020 -0.1728 -0.2728  0.1123
 4591TIP3    H235333   4.812   6.706   8.069  0.8735 -0.0621  1.0590
 4592TIP3   OH235334   0.506   2.319   7.741  0.2585 -0.0393  0.1782
 4592TIP3    H135335   0.587   2.268   7.749 -0.9630 -2.0689  0.3284
 4592TIP3    H235336   0.438   2.260   7.771 -1.1928  1.9848  1.0534
 4593TIP3   OH235337   4.234   6.367   0.469  0.2810 -0.1646 -0.3517
 4593TIP3    H135338   4.226   6.461   0.485  0.0042 -0.3626  0.7482
 4593TIP3    H235339   4.328   6.352   0.462  0.2960  0.4213 -2.1570
 4594TIP3   OH235340   0.113   5.499   7.373 -0.0746  0.3306 -0.2641
 4594TIP3    H135341   0.184   5.465   7.427 -0.8790  0.3351  0.8212
 4594TIP3    H235342   0.126   5.457   7.287  0.6749 -0.3992  0.1892
 4595TIP3   OH235343   3.818   0.543   8.502  0.1079 -0.6633 -0.3649
 4595TIP3    H135344   3.777   0.543   8.415 -1.3289 -1.7361  0.2800
 4595TIP3    H235345   3.748   0.517   8.562  1.7944 -2.9680  0.7477
 4596TIP3   OH235346   0.185   3.101   2.311 -0.2789 -0.7693 -0.2555
 4596TIP3    H135347   0.139   3.017   2.306  0.6591 -1.2489 -0.9397
 4596TIP3    H235348   0.114   3.166   2.313 -1.0101 -1.5550  0.1747
 4597TIP3   OH235349   5.737   5.756   6.989  0.1261  0.8095 -0.1383
 4597TIP3    H135350   5.668   5.718   7.044  1.4020 -1.0955  0.2476
 4597TIP3    H235351   5.705   5.844   6.968 -2.3995  0.0221  0.0258
 4598TIP3   OH235352   1.135   2.721   7.925  0.2800  0.0738  0.2253
 4598TIP3    H135353   1.054   2.682   7.891 -0.0474 -0.1152  1.1927
 4598TIP3    H235354   1.166   2.777   7.854 -0.4445 -0.2173 -0.3400
 4599TIP3   OH235355   0.467   1.385   2.791 -0.9072  0.4901 -0.2450
 4599TIP3    H135356   0.526   1.434   2.848 -0.7625  0.6433 -0.5239
 4599TIP3    H235357   0.414   1.333   2.850  0.4716 -0.7530 -0.0505
 4600TIP3   OH235358   6.738   2.063   8.604 -0.2527 -0.6226  0.3766
 4600TIP3    H135359   6.772   2.064   8.694  0.0726  0.2545  0.2575
 4600TIP3    H235360   6.664   2.003   8.607 -1.2234  0.5747  1.6179
 4601TIP3   OH235361   4.302   4.811   8.264  0.3673  0.1513 -0.0933
 4601TIP3    H135362   4.357   4.817   8.342  0.0399 -1.9100  0.3496
 4601TIP3    H235363   4.229   4.755   8.290 -0.8632  1.1477 -1.2845
 4602TIP3   OH235364   1.147   3.231   0.113 -0.4199  0.0655  0.2539
 4602TIP3    H135365   1.121   3.151   0.068 -0.1416 -0.3639  0.8382
 4602TIP3    H235366   1.136   3.300   0.048 -1.4731 -0.3200 -0.0103
 4603TIP3   OH235367   0.761   5.457   0.345 -0.0620  0.8216 -0.4855
 4603TIP3    H135368   0.772   5.455   0.440  0.6554 -0.1528 -0.5646
 4603TIP3    H235369   0.832   5.513   0.314  0.8255 -0.2906 -0.5469
 4604TIP3   OH235370   1.095   1.052   2.413 -0.2091 -0.7211 -0.3153
 4604TIP3    H135371   1.015   1.010   2.382 -1.5198  1.0383  0.5607
 4604TIP3    H235372   1.112   1.011   2.498 -1.7633  0.7835  0.7669
 4605TIP3   OH235373   4.616   1.554   0.263  0.4607 -0.5691  0.5943
 4605TIP3    H135374   4.707   1.582   0.269  0.9918 -1.7033 -1.2074
 4605TIP3    H235375   4.566   1.625   0.303  2.0486  0.6939  0.4374
 4606TIP3   OH235376   3.240   1.510   2.165 -0.1484 -0.2010  0.4471
 4606TIP3    H135377   3.160   1.462   2.145 -1.0138  0.7476  1.5075
 4606TIP3    H235378   3.231   1.534   2.257  0.3901  1.7080  0.0475
 4607TIP3   OH235379   5.114   1.623   8.004 -0.1868  0.4783 -0.4904
 4607TIP3    H135380   5.198   1.595   7.967 -0.1315  0.3179 -0.2375
 4607TIP3    H235381   5.057   1.547   7.994  0.7004 -0.7404  2.6618
 4608TIP3   OH235382   2.178   5.381   2.142  0.0915 -0.2761 -0.2367
 4608TIP3    H135383   2.148   5.298   2.105 -1.0856 -0.4550  1.0626
 4608TIP3    H235384   2.243   5.356   2.208  0.1743 -0.1258 -0.2603
 4609TIP3   OH235385   1.446   4.215   1.437 -0.2672 -0.2762 -0.0397
 4609TIP3    H135386   1.364   4.262   1.422 -0.4903 -1.0479 -1.4072
 4609TIP3    H235387   1.510   4.262   1.383  0.0340 -0.1380  0.4300
 4610TIP3   OH235388   5.587   6.130   2.009  0.3856  0.1820  0.5628
 4610TIP3    H135389   5.550   6.145   1.922  0.7166  0.8336  0.5280
 4610TIP3    H235390   5.510   6.116   2.065  0.0562  1.5124  0.4881
 4611TIP3   OH235391   0.555   6.168   2.234 -0.6876 -0.2173  0.0835
 4611TIP3    H135392   0.641   6.194   2.202  0.5444  0.2023  3.3061
 4611TIP3    H235393   0.555   6.072   2.226  0.0220 -0.2104 -0.1038
 4612TIP3   OH235394   1.749   6.826   0.035 -0.3003  0.0129  0.6422
 4612TIP3    H135395   1.740   6.832  -0.060  1.2142 -0.2571  0.4606
 4612TIP3    H235396   1.668   6.863   0.069 -0.0332  1.9569 -0.7216
 4613TIP3   OH235397   1.459   5.343   7.217  0.6100  0.4416  0.0460
 4613TIP3    H135398   1.434   5.254   7.242 -1.0166  0.7376 -0.4229
 4613TIP3    H235399   1.414   5.399   7.280 -0.6125  1.0257 -1.2760
 4614TIP3   OH235400   1.044   4.897   1.848  0.1113 -0.2120 -0.5074
 4614TIP3    H135401   1.015   4.925   1.935  0.5572  1.9084 -0.9697
 4614TIP3    H235402   0.973   4.844   1.814 -1.2767  1.1854  0.1044
 4615TIP3   OH235403   0.938   2.164   2.109  0.5833  0.2473 -0.2898
 4615TIP3    H135404   1.008   2.176   2.173  0.6280 -1.3705 -0.0046
 4615TIP3    H235405   0.876   2.235   2.127  2.4434  2.2168 -1.0348
 4616TIP3   OH235406   0.339   5.285   7.389 -0.4677 -0.3316  0.1542
 4616TIP3    H135407   0.398   5.257   7.320 -2.4844  1.6122 -2.5619
 4616TIP3    H235408   0.271   5.218   7.392 -0.7599 -0.0631 -0.3026
 4617TIP3   OH235409   5.307   0.924   1.462  0.0158  0.5531  0.0940
 4617TIP3    H135410   5.393   0.889   1.484 -0.3005  1.2434  2.8073
 4617TIP3    H235411   5.306   1.012   1.501 -1.9870  0.4807  0.3383
 4618TIP3   OH235412   1.092   3.664   8.741 -0.1503  0.0593 -0.2749
 4618TIP3    H135413   1.173   3.712   8.758  0.1084 -0.6016  0.4071
 4618TIP3    H235414   1.120   3.585   8.696 -0.4636  0.0111 -0.3869
 4619TIP3   OH235415   6.331   5.046   1.240  0.2656  0.2438 -0.2798
 4619TIP3    H135416   6.278   5.004   1.309 -1.0445  2.8480  0.4322
 4619TIP3    H235417   6.405   5.085   1.287  0.2825  0.5908 -0.5889
 4620TIP3   OH235418   3.751   4.030   8.082 -0.1282 -0.1026  0.7592
 4620TIP3    H135419   3.698   3.973   8.027 -1.1277  1.8559 -0.4508
 4620TIP3    H235420   3.707   4.115   8.077  1.6850  0.9715  1.8549
 4621TIP3   OH235421   2.927   4.686   0.841 -0.4401  0.5805  0.1138
 4621TIP3    H135422   2.946   4.602   0.882  1.2117  0.4977 -0.7136
 4621TIP3    H235423   2.931   4.669   0.747 -3.9498  0.8087 -0.1897
 4622TIP3   OH235424   2.552   3.057   1.293 -0.1989 -0.4493  0.1410
 4622TIP3    H135425   2.560   3.092   1.381  1.1148 -1.6872  0.5435
 4622TIP3    H235426   2.638   3.020   1.274 -0.0630  0.8351 -2.1336
 4623TIP3   OH235427   6.411   1.796   6.864 -0.3722  0.3736 -0.6706
 4623TIP3    H135428   6.504   1.805   6.844 -0.1454  0.6631  0.4758
 4623TIP3    H235429   6.374   1.756   6.785  0.8850 -0.6544 -0.7763
 4624TIP3   OH235430   4.400   2.342   1.911 -0.0788 -0.1812 -0.0980
 4624TIP3    H135431   4.415   2.250   1.935  1.4447 -0.0725 -0.5116
 4624TIP3    H235432   4.487   2.374   1.886 -0.3379  1.7530  1.2916
 4625TIP3   OH235433   1.931   0.525   2.071 -0.4368  0.2077 -0.9195
 4625TIP3    H135434   1.982   0.541   2.150  1.9118  1.1298 -2.5068
 4625TIP3    H235435   1.865   0.461   2.097  0.7233 -0.0815  1.5777
 4626TIP3   OH235436   5.731   6.122   7.289 -0.0668 -0.6826  0.6373
 4626TIP3    H135437   5.799   6.060   7.264 -0.4416 -0.9289  0.2121
 4626TIP3    H235438   5.779   6.203   7.310  0.2934 -0.5146 -0.7313
 4627TIP3   OH235439   6.720   6.575   8.688 -0.2632 -0.1979  0.6778
 4627TIP3    H135440   6.787   6.522   8.733  1.1194 -0.4265 -1.4791
 4627TIP3    H235441   6.721   6.542   8.598 -1.2579  1.7515 -0.0930
 4628TIP3   OH235442   5.976   1.411   7.959  0.2231  0.4035 -0.0304
 4628TIP3    H135443   6.058   1.452   7.933 -0.3837  0.9811 -1.1131
 4628TIP3    H235444   5.908   1.460   7.913 -0.7286 -0.1682  0.7048
 4629TIP3   OH235445   6.228   1.279   2.319 -0.1058 -0.3125  0.0170
 4629TIP3    H135446   6.316   1.310   2.343 -0.5692  0.0519  1.3047
 4629TIP3    H235447   6.186   1.258   2.402 -1.5015  0.2251 -0.5163
 4630TIP3   OH235448   2.835   3.414   1.689  0.1286  0.1905 -0.2941
 4630TIP3    H135449   2.818   3.359   1.766  2.8672  1.7073  1.5685
 4630TIP3    H235450   2.754   3.464   1.677 -0.5106 -0.3577  1.3792
 4631TIP3   OH235451   1.373   1.430   8.169 -0.9462  0.1275  0.0312
 4631TIP3    H135452   1.439   1.453   8.103 -0.1772 -0.7398  0.4621
 4631TIP3    H235453   1.294   1.413   8.118  0.0953 -2.3664 -0.9507
 4632TIP3   OH235454   3.217   5.841   8.627  0.1988  0.8263 -0.6094
 4632TIP3    H135455   3.171   5.923   8.643  0.5142  1.2816 -1.8977
 4632TIP3    H235456   3.151   5.773   8.639 -0.5955  1.4105 -1.5150
 4633TIP3   OH235457   5.026   6.533   8.547  0.2346  0.2019  0.5594
 4633TIP3    H135458   4.985   6.619   8.551 -2.6305 -1.0198 -0.0681
 4633TIP3    H235459   5.048   6.512   8.638 -1.1775  0.6581  1.0250
 4634TIP3   OH235460   0.584   5.040   8.470 -0.6413 -0.0484  0.3882
 4634TIP3    H135461   0.513   5.100   8.492  0.0622  1.5798 -1.4876
 4634TIP3    H235462   0.650   5.055   8.537  0.2133  2.5913 -0.8923
 4635TIP3   OH235463   1.875   2.751   2.455  0.3389  0.0415 -0.2699
 4635TIP3    H135464   1.943   2.694   2.489  0.5880  1.6164  2.1669
 4635TIP3    H235465   1.903   2.839   2.480 -2.1957  0.8158  0.1945
 4636TIP3   OH235466   4.350   1.573   1.808 -0.6628 -0.1160 -0.1371
 4636TIP3    H135467   4.302   1.650   1.779  0.5953  0.4277 -0.8378
 4636TIP3    H235468   4.352   1.581   1.903 -0.3406  0.8533 -0.2114
 4637TIP3   OH235469   0.158   2.010   2.450  0.8811  0.6112  0.5734
 4637TIP3    H135470   0.106   2.066   2.508  0.1308 -0.2995  0.8136
 4637TIP3    H235471   0.143   2.046   2.362  0.2659  0.6805  0.7039
 4638TIP3   OH235472   5.644   5.816   0.001  0.3816 -0.4061 -0.4775
 4638TIP3    H135473   5.551   5.828  -0.018  0.1126 -0.3518  0.7311
 4638TIP3    H235474   5.682   5.904  -0.008  0.2631 -0.3790 -0.7117
 4639TIP3   OH235475   5.023   2.869   7.652  0.5211 -0.3108 -0.2231
 4639TIP3    H135476   5.013   2.801   7.585  1.7226 -0.4734 -0.2731
 4639TIP3    H235477   5.045   2.822   7.732 -0.4185 -0.0819  0.1849
 4640TIP3   OH235478   0.220   3.353   1.487 -0.0352  0.5919  0.3665
 4640TIP3    H135479   0.158   3.290   1.525 -0.3670  0.7045  0.0111
 4640TIP3    H235480   0.300   3.302   1.474 -0.6745 -0.1109 -1.0805
 4641TIP3   OH235481   4.375   3.237   8.242  0.1095 -0.9227 -0.6741
 4641TIP3    H135482   4.325   3.249   8.161  1.8001 -1.1199 -1.8093
 4641TIP3    H235483   4.367   3.321   8.287  1.3500  0.1877 -2.3911
 4642TIP3   OH235484   5.350   0.851   1.093  0.1482 -0.3053  0.0042
 4642TIP3    H135485   5.309   0.904   1.025  0.7378 -0.1534 -0.2320
 4642TIP3    H235486   5.370   0.912   1.163  2.7306  0.2270 -1.0936
 4643TIP3   OH235487   6.149   4.268   7.067 -0.6561  0.0828  0.1094
 4643TIP3    H135488   6.095   4.207   7.117 -0.5134 -0.6521 -0.6133
 4643TIP3    H235489   6.216   4.297   7.128 -0.5966 -0.6524  0.3961
 4644TIP3   OH235490   3.447   3.199   8.579 -0.1378  0.1459  0.2421
 4644TIP3    H135491   3.513   3.188   8.512  0.3270  1.6489  0.4085
 4644TIP3    H235492   3.391   3.122   8.571  2.0584 -1.5887  0.6260
 4645TIP3   OH235493   4.986   2.846   1.926  0.6493 -0.1077  0.1709
 4645TIP3    H135494   5.063   2.862   1.980 -0.0335 -0.3645  1.2465
 4645TIP3    H235495   5.020   2.840   1.837  1.6162  2.0222  0.3147
 4646TIP3   OH235496   6.531   2.599   0.432  0.1255  0.1746  0.1375
 4646TIP3    H135497   6.532   2.587   0.527 -0.6163 -2.7219 -0.1518
 4646TIP3    H235498   6.622   2.589   0.405  0.0263 -1.4140  0.3320
 4647TIP3   OH235499   5.010   1.952   1.883 -0.1153  0.8596  0.4524
 4647TIP3    H135500   5.013   1.932   1.976 -0.5121 -0.5690  0.1816
 4647TIP3    H235501   4.964   1.878   1.843 -0.5067  1.7293 -0.8078
 4648TIP3   OH235502   5.272   1.300   2.197  1.2832 -0.2002 -0.0815
 4648TIP3    H135503   5.177   1.295   2.202  1.2623  1.0225  2.1920
 4648TIP3    H235504   5.290   1.394   2.192  2.3659 -0.4681 -2.2361
 4649TIP3   OH235505   5.151   3.349   7.855  0.4477  0.4592  0.0790
 4649TIP3    H135506   5.228   3.305   7.820 -0.9308 -1.8979 -0.2493
 4649TIP3    H235507   5.077   3.301   7.818 -1.1430  0.4523  2.9492
 4650TIP3   OH235508   4.494   1.990   1.667 -0.5731  0.0394  0.7323
 4650TIP3    H135509   4.441   1.922   1.625 -0.3652 -1.4937  2.8415
 4650TIP3    H235510   4.446   2.071   1.649 -1.5706 -0.8043 -0.6495
 4651TIP3   OH235511   5.531   4.368   1.322  0.5141  0.3523 -0.0170
 4651TIP3    H135512   5.446   4.328   1.339 -0.0553  1.2125 -0.7421
 4651TIP3    H235513   5.584   4.344   1.398  0.0036 -1.1760 -0.1071
 4652TIP3   OH235514   2.563   6.105   0.703 -0.6049 -0.0594 -0.0508
 4652TIP3    H135515   2.469   6.089   0.697 -0.6049 -0.5121  0.9476
 4652TIP3    H235516   2.591   6.055   0.780  0.1365  1.4955  0.7245
 4653TIP3   OH235517   1.140   6.543   7.466  0.9351 -0.8463  0.4162
 4653TIP3    H135518   1.215   6.588   7.505  0.0197  1.1958 -0.0600
 4653TIP3    H235519   1.151   6.553   7.372 -0.0348 -0.3500  0.3465
 4654TIP3   OH235520   0.741   0.590   7.334  0.0608 -0.7467  0.3244
 4654TIP3    H135521   0.762   0.681   7.315 -2.9037  0.0947  0.6058
 4654TIP3    H235522   0.695   0.593   7.417 -3.6598 -1.8728 -1.5068
 4655TIP3   OH235523   1.637   4.968   1.437  0.6761  0.5254  0.7243
 4655TIP3    H135524   1.664   5.059   1.443 -0.4257  1.2356 -2.8015
 4655TIP3    H235525   1.546   4.967   1.465 -0.0468  1.0563 -1.4240
 4656TIP3   OH235526   0.550   1.670   0.914 -0.8348 -0.1843 -0.0979
 4656TIP3    H135527   0.582   1.659   1.004  0.3995 -2.3769 -0.7391
 4656TIP3    H235528   0.579   1.758   0.890  1.1144 -0.5065  0.8145
 4657TIP3   OH235529   6.400   1.621   7.478 -0.8491  0.5284  1.3660
 4657TIP3    H135530   6.325   1.564   7.458 -0.6345  0.3835  0.9735
 4657TIP3    H235531   6.360   1.698   7.518 -1.6787  2.2621 -2.3417
 4658TIP3   OH235532   1.709   4.325   1.412 -0.3407 -0.2449  0.1294
 4658TIP3    H135533   1.684   4.356   1.499 -1.1271 -1.4133  0.3485
 4658TIP3    H235534   1.784   4.379   1.387 -0.4865  0.5121  1.2716
 4659TIP3   OH235535   1.142   4.075   2.590 -0.5471  0.0864 -0.2940
 4659TIP3    H135536   1.146   4.171   2.588 -0.9765  0.2159  2.1817
 4659TIP3    H235537   1.230   4.048   2.617 -0.9151 -0.1103  0.7241
 4660TIP3   OH235538   4.200   1.990   0.273  0.1035  0.3573 -0.2907
 4660TIP3    H135539   4.171   1.907   0.311  0.9941  0.4607  0.6569
 4660TIP3    H235540   4.246   1.966   0.193  2.2349 -0.2830  1.0558
 4661TIP3   OH235541   3.375   0.069   1.145  0.2754 -0.5538  0.1567
 4661TIP3    H135542   3.400  -0.022   1.128 -0.1572 -0.4820 -0.9359
 4661TIP3    H235543   3.280   0.067   1.151  0.1880 -0.0473 -0.8062
 4662TIP3   OH235544   4.620   0.266   8.533 -0.1912  0.4434  0.4699
 4662TIP3    H135545   4.599   0.328   8.464 -0.6856 -0.9925 -0.7305
 4662TIP3    H235546   4.697   0.302   8.576 -0.2415  1.6767 -0.4318
 4663TIP3   OH235547   5.766   2.226   1.938 -0.4505 -0.2058  0.2582
 4663TIP3    H135548   5.726   2.249   1.854 -1.1078  1.7424  1.0364
 4663TIP3    H235549   5.723   2.284   2.001  2.8373  1.2926  1.3252
 4664TIP3   OH235550   6.055   4.107   0.216 -0.0762  0.3121 -0.6492
 4664TIP3    H135551   6.112   4.067   0.150  0.6969  0.1086  0.1308
 4664TIP3    H235552   5.996   4.163   0.165  0.0616 -0.3495 -1.5778
 4665TIP3   OH235553   3.331   4.977   1.328  0.0197  0.3151  0.2549
 4665TIP3    H135554   3.279   4.940   1.257  0.3035  0.1358  0.1387
 4665TIP3    H235555   3.314   5.071   1.324  0.0897  0.3127 -0.0923
 4666TIP3   OH235556   2.161   2.664   2.323 -0.5041 -0.6519  0.2721
 4666TIP3    H135557   2.235   2.603   2.331  0.3631  0.4253  0.8385
 4666TIP3    H235558   2.145   2.694   2.412 -0.9307 -0.0850  0.0092
 4667TIP3   OH235559   4.547   2.226   1.019  0.9326  0.2710  0.4046
 4667TIP3    H135560   4.592   2.297   0.972 -0.6259  1.4329  0.5815
 4667TIP3    H235561   4.479   2.197   0.958  0.1704  0.4306  1.1581
 4668TIP3   OH235562   1.929   2.248   7.667 -0.0755  0.1842 -0.0354
 4668TIP3    H135563   1.958   2.315   7.605  0.5981  0.1132  0.1950
 4668TIP3    H235564   1.884   2.183   7.612  1.5209 -0.4575 -0.6459
 4669TIP3   OH235565   5.876   3.657   0.924  0.4251 -0.0388 -0.1266
 4669TIP3    H135566   5.813   3.588   0.948  0.2066 -0.3596 -1.5668
 4669TIP3    H235567   5.958   3.630   0.966 -0.1865 -0.0033  1.1508
 4670TIP3   OH235568   1.315   0.799   7.838 -0.2737  0.3489 -0.8652
 4670TIP3    H135569   1.329   0.888   7.806  0.1182  0.3258 -0.7519
 4670TIP3    H235570   1.329   0.744   7.762  3.7721  0.0149 -0.0592
 4671TIP3   OH235571   2.729   3.928   1.841 -0.3068  0.8169 -0.5047
 4671TIP3    H135572   2.750   3.887   1.757 -3.4333  0.0330 -1.0319
 4671TIP3    H235573   2.748   3.859   1.906 -2.1994 -0.3304 -1.0740
 4672TIP3   OH235574   0.315   4.337   8.338 -0.5637  0.2379  0.2441
 4672TIP3    H135575   0.283   4.379   8.418 -3.1109  1.4878 -1.2984
 4672TIP3    H235576   0.394   4.385   8.316  0.4746 -0.4413  2.1930
 4673TIP3   OH235577   0.605   6.184   1.394 -0.0546  0.2225  0.3805
 4673TIP3    H135578   0.667   6.163   1.325 -1.6109 -1.9493 -0.4775
 4673TIP3    H235579   0.659   6.214   1.467  1.8599 -0.1443 -0.8173
 4674TIP3   OH235580   0.241   3.585   8.671  0.3952 -0.0678 -1.0384
 4674TIP3    H135581   0.325   3.625   8.650  0.3039 -0.1475 -1.5651
 4674TIP3    H235582   0.191   3.656   8.712  0.8373 -0.1140 -0.4165
 4675TIP3   OH235583   1.463   2.741   0.251  0.2153 -0.1951 -0.6942
 4675TIP3    H135584   1.457   2.730   0.346  0.3544 -0.6700 -0.7376
 4675TIP3    H235585   1.474   2.835   0.239 -0.2315 -0.0814 -0.2625
 4676TIP3   OH235586   3.534   2.912   1.098 -0.4633 -0.5954 -0.1111
 4676TIP3    H135587   3.457   2.967   1.114  0.5011  0.5482  0.8073
 4676TIP3    H235588   3.604   2.955   1.146  0.7363 -1.6786 -0.8324
 4677TIP3   OH235589   2.054   0.387   2.898  0.4352  0.0206  0.3896
 4677TIP3    H135590   2.115   0.460   2.911 -0.5157  1.8328 -3.6942
 4677TIP3    H235591   2.110   0.313   2.874  1.2789  1.4639 -2.5796
 4678TIP3   OH235592   6.007   4.725   2.604 -0.3155 -0.2700  0.3182
 4678TIP3    H135593   5.932   4.759   2.554 -0.1224  1.0003  0.8462
 4678TIP3    H235594   6.059   4.677   2.540 -0.3936  0.7934 -0.5726
 4679TIP3   OH235595   3.480   4.677   0.148 -0.2482  0.4973  0.2818
 4679TIP3    H135596   3.574   4.677   0.163 -0.1628  2.5809 -0.0187
 4679TIP3    H235597   3.458   4.768   0.132 -1.7531 -0.2871 -3.0874
 4680TIP3   OH235598   3.024   0.604   8.454  0.4110  0.1935 -0.3557
 4680TIP3    H135599   2.986   0.531   8.504 -1.0592  0.2960 -1.2457
 4680TIP3    H235600   3.086   0.645   8.514  0.8724 -1.4552  0.3449
 4681TIP3   OH235601   2.505   6.048   2.401 -0.3563  0.0908 -0.1765
 4681TIP3    H135602   2.459   6.125   2.433 -0.6929  0.5054 -1.5557
 4681TIP3    H235603   2.472   5.976   2.455 -4.4196 -0.0333 -2.3900
 4682TIP3   OH235604   3.804   3.488   0.293  0.5282  0.0072 -0.4401
 4682TIP3    H135605   3.837   3.413   0.243  1.1866  0.4245 -0.6501
 4682TIP3    H235606   3.709   3.482   0.286  0.6004 -0.2653 -1.2667
 4683TIP3   OH235607   0.510   0.916   2.358 -0.0661 -0.5787  0.1630
 4683TIP3    H135608   0.453   0.915   2.435  0.6735 -1.9213  0.7274
 4683TIP3    H235609   0.564   0.837   2.367  0.2509 -0.6024 -1.5754
 4684TIP3   OH235610   3.969   6.764   0.124 -0.1801  0.0410  0.5285
 4684TIP3    H135611   4.022   6.690   0.153 -0.4369 -0.1066  0.6247
 4684TIP3    H235612   3.881   6.743   0.153 -0.4440 -0.1049 -0.3425
 4685TIP3   OH235613   0.979   4.931   7.366 -0.2837  0.1049  0.3791
 4685TIP3    H135614   0.931   5.013   7.363 -2.2540 -1.0077 -0.5548
 4685TIP3    H235615   1.061   4.949   7.320  0.0679  1.9310  1.6085
 4686TIP3   OH235616   2.814   6.726   0.432  0.6749  0.0713 -0.1832
 4686TIP3    H135617   2.899   6.728   0.389 -0.4065 -0.9431 -2.5272
 4686TIP3    H235618   2.830   6.765   0.519  3.5159 -0.2736 -0.4652
 4687TIP3   OH235619   2.908   1.222   8.602  0.3100  0.3348  0.0948
 4687TIP3    H135620   2.954   1.194   8.681  0.4357 -0.2030 -0.1654
 4687TIP3    H235621   2.971   1.279   8.557  0.1242  0.8909  0.5296
 4688TIP3   OH235622   2.668   1.197   8.199 -1.1247  0.4185 -0.0744
 4688TIP3    H135623   2.693   1.174   8.109 -0.6663 -1.2133  0.4426
 4688TIP3    H235624   2.707   1.283   8.213 -0.5505  0.3593 -1.1791
 4689TIP3   OH235625   3.227   4.442   8.141  0.1052 -0.0934 -0.8196
 4689TIP3    H135626   3.221   4.413   8.050 -1.1203  0.6618 -1.0039
 4689TIP3    H235627   3.312   4.487   8.147 -0.8600  2.0913 -2.2982
 4690TIP3   OH235628   6.147   5.363   7.175 -0.1405  0.7372  0.2407
 4690TIP3    H135629   6.221   5.421   7.158 -0.3205  0.6860 -0.7965
 4690TIP3    H235630   6.113   5.342   7.088  0.4608 -1.6428  0.5258
 4691TIP3   OH235631   1.459   2.543   3.009 -0.2027  0.3468  0.7176
 4691TIP3    H135632   1.373   2.568   3.042 -0.0859  0.0030  1.3019
 4691TIP3    H235633   1.477   2.606   2.939 -0.5559  0.9509  1.1588
 4692TIP3   OH235634   3.485   6.072   7.646  0.0703 -0.2264  0.1778
 4692TIP3    H135635   3.527   6.098   7.564 -2.0387  0.8210 -0.6323
 4692TIP3    H235636   3.525   6.128   7.712 -2.0405  3.0254 -1.0360
 4693TIP3   OH235637   5.704   6.624   8.519  0.3662  0.4912 -0.0331
 4693TIP3    H135638   5.643   6.556   8.492  0.2127  1.0691 -1.2063
 4693TIP3    H235639   5.735   6.596   8.606 -1.5925  0.2178  0.6240
 4694TIP3   OH235640   4.945   0.500   1.241  0.2290  0.2791  0.1007
 4694TIP3    H135641   4.866   0.448   1.223  0.4338 -0.0206  0.0578
 4694TIP3    H235642   4.966   0.480   1.332  0.4742  0.0599 -0.0029
 4695TIP3   OH235643   4.565   3.486   8.206  0.4366 -0.2661  0.2171
 4695TIP3    H135644   4.545   3.393   8.197 -1.6517  0.0862  0.6960
 4695TIP3    H235645   4.572   3.501   8.300 -2.1444  0.5367  0.3560
 4696TIP3   OH235646   2.459   0.661   7.916  0.4493 -0.5424 -0.6345
 4696TIP3    H135647   2.498   0.743   7.884  1.4230 -1.3155 -1.4805
 4696TIP3    H235648   2.460   0.603   7.840 -0.7733 -1.1700 -0.2026
 4697TIP3   OH235649   3.231   5.465   0.690  0.0088 -0.2462 -0.1259
 4697TIP3    H135650   3.196   5.544   0.648  1.0526  0.5621  0.5072
 4697TIP3    H235651   3.324   5.482   0.699  0.8168 -2.6853 -2.4988
 4698TIP3   OH235652   3.368   1.639   0.218  0.2435 -0.0716 -0.1211
 4698TIP3    H135653   3.349   1.633   0.125 -2.6840 -1.0451  0.4165
 4698TIP3    H235654   3.368   1.733   0.237  1.2189  0.1466 -1.1120
 4699TIP3   OH235655   0.520   1.520   2.151 -0.5615 -0.3331  0.3744
 4699TIP3    H135656   0.555   1.605   2.123 -0.0336 -0.6009  0.2051
 4699TIP3    H235657   0.517   1.526   2.246  0.6083 -0.5418  0.4456
 4700TIP3   OH235658   4.109   0.242   8.292 -0.0156  0.2313 -0.2119
 4700TIP3    H135659   4.016   0.252   8.271 -0.6656 -0.0022  2.2808
 4700TIP3    H235660   4.115   0.156   8.332  0.9705  0.8811  1.0905
 4701TIP3   OH235661   1.563   3.621   1.015  0.5288  0.5900  0.1979
 4701TIP3    H135662   1.596   3.694   1.067 -2.4532  0.9813  1.7827
 4701TIP3    H235663   1.528   3.559   1.079 -0.0586 -0.6533 -1.2392
 4702TIP3   OH235664   1.775   3.375   2.106  0.0167 -0.4472  0.2851
 4702TIP3    H135665   1.781   3.346   2.014 -0.5626  1.9760 -0.5879
 4702TIP3    H235666   1.866   3.391   2.132  0.1933 -1.2482  0.1879
 4703TIP3   OH235667   0.768   0.739   0.896 -0.1349  0.2861  0.7371
 4703TIP3    H135668   0.856   0.706   0.915 -0.1886 -0.4471 -0.1937
 4703TIP3    H235669   0.782   0.806   0.830 -0.4199 -1.4244 -1.1606
 4704TIP3   OH235670   2.100   4.240   6.754  0.7733  0.4885  0.1589
 4704TIP3    H135671   2.061   4.153   6.762  1.7519 -0.1158 -1.3408
 4704TIP3    H235672   2.045   4.296   6.810 -0.3862 -0.9069  0.4675
 4705TIP3   OH235673   3.486   5.852   6.637 -0.1514  0.4219 -0.9207
 4705TIP3    H135674   3.535   5.928   6.607  1.6591  0.1011  1.0463
 4705TIP3    H235675   3.475   5.865   6.731 -1.5656 -0.8170 -0.8634
 4706TIP3   OH235676   5.515   0.237   2.189  0.3974 -0.1829 -1.0043
 4706TIP3    H135677   5.496   0.322   2.148  1.6754  1.6573  1.8729
 4706TIP3    H235678   5.446   0.227   2.255  0.8814 -0.8336 -0.5944
 4707TIP3   OH235679   5.340   3.899   2.171 -0.0900  0.2236  0.6494
 4707TIP3    H135680   5.414   3.936   2.123 -0.9690  1.1537 -0.0310
 4707TIP3    H235681   5.280   3.973   2.183 -0.3672 -0.2274  2.2784
 4708TIP3   OH235682   4.174   3.763   1.620 -0.2746 -0.4384 -0.7634
 4708TIP3    H135683   4.106   3.830   1.629 -0.6918 -0.9971  0.5251
 4708TIP3    H235684   4.203   3.747   1.710  1.1892 -0.6017 -1.2484
 4709TIP3   OH235685   5.097   2.623   8.451 -0.4399  0.4463 -0.5809
 4709TIP3    H135686   5.058   2.586   8.372  1.3040 -1.7531 -0.5107
 4709TIP3    H235687   5.162   2.686   8.419 -1.6681  1.6726 -0.7647
 4710TIP3   OH235688   3.675   1.431   2.706 -0.6931  0.4531  0.7149
 4710TIP3    H135689   3.631   1.395   2.782 -1.0398  1.9562  1.2733
 4710TIP3    H235690   3.605   1.468   2.652 -0.3846  0.0955  0.0559
 4711TIP3   OH235691   5.184   3.237   2.802  0.0857 -0.1454 -0.2517
 4711TIP3    H135692   5.130   3.315   2.791  0.4348 -0.2419 -3.3457
 4711TIP3    H235693   5.132   3.166   2.764  0.0688 -1.3883  1.8943
 4712TIP3   OH235694   5.923   5.796   6.507  0.3250 -0.2775  0.1295
 4712TIP3    H135695   5.994   5.753   6.555 -1.1255  0.3682  3.1354
 4712TIP3    H235696   5.950   5.888   6.503 -0.1140 -0.0996  0.9419
 4713TIP3   OH235697   3.095   4.107   7.080  0.0291 -0.0976  0.6059
 4713TIP3    H135698   3.094   4.037   7.014  1.1656  0.9195 -0.5291
 4713TIP3    H235699   3.045   4.178   7.040  0.3978  0.3852  0.9918
 4714TIP3   OH235700   3.834   3.231   7.897 -0.3468 -0.1799 -0.2937
 4714TIP3    H135701   3.800   3.191   7.817 -1.0830  0.1368 -0.1456
 4714TIP3    H235702   3.926   3.203   7.901 -0.0298  0.6012 -1.7511
 4715TIP3   OH235703   6.266   4.507   7.261 -0.0769  0.2920 -0.2580
 4715TIP3    H135704   6.317   4.474   7.187 -0.9736 -0.9610 -0.3588
 4715TIP3    H235705   6.196   4.559   7.221 -0.3266 -0.0555 -0.2813
 4716TIP3   OH235706   1.458   6.315   8.393  0.2309 -0.3524 -0.1319
 4716TIP3    H135707   1.362   6.314   8.399  0.2624 -0.1740  0.5762
 4716TIP3    H235708   1.484   6.227   8.418  0.2960 -0.0539  0.9087
 4717TIP3   OH235709   2.343   3.379   0.218  0.1210 -0.0757  0.5830
 4717TIP3    H135710   2.283   3.356   0.288 -0.0347  0.1722  0.5323
 4717TIP3    H235711   2.430   3.368   0.256  0.0572  2.1401  1.5258
 4718TIP3   OH235712   0.349   1.831   8.642 -0.2692  0.4442 -0.1684
 4718TIP3    H135713   0.436   1.799   8.666 -0.4442 -1.9354 -2.3025
 4718TIP3    H235714   0.367   1.906   8.584  0.3248  0.4622  0.0278
 4719TIP3   OH235715   4.122   2.764   8.295  0.0476 -0.2127  0.0474
 4719TIP3    H135716   4.087   2.692   8.347 -0.8584  1.3228  1.6456
 4719TIP3    H235717   4.212   2.773   8.324  0.6641 -1.6230 -1.2579
 4720TIP3   OH235718   1.895   4.037   0.913 -0.1908  0.0517 -0.1081
 4720TIP3    H135719   1.805   4.019   0.939 -0.3746  0.3784 -0.5015
 4720TIP3    H235720   1.947   4.016   0.990 -0.4528 -1.5099 -0.3146
 4721TIP3   OH235721   6.658   1.910   1.468  0.0240  0.8453 -0.1901
 4721TIP3    H135722   6.569   1.924   1.435 -0.9491  0.0300  1.9105
 4721TIP3    H235723   6.698   1.851   1.403 -2.0667 -1.3395  0.3583
 4722TIP3   OH235724   5.639   5.993   0.836 -0.0529  0.1255 -0.8176
 4722TIP3    H135725   5.705   5.960   0.898  0.1370  1.1317 -0.4754
 4722TIP3    H235726   5.577   6.041   0.890  0.3296  1.3608 -1.4501
 4723TIP3   OH235727   4.248   2.171   1.643  0.0537 -0.0344  0.5311
 4723TIP3    H135728   4.183   2.216   1.696 -0.1820 -0.4549  0.5924
 4723TIP3    H235729   4.238   2.210   1.556  1.1211  1.3868  0.9929
 4724TIP3   OH235730   0.373   3.350   2.166  0.1337 -0.3951 -0.2522
 4724TIP3    H135731   0.411   3.274   2.209 -0.4121  0.1521  1.2584
 4724TIP3    H235732   0.306   3.314   2.108  2.1628 -1.2930 -2.1909
 4725TIP3   OH235733   6.566   1.874   8.402  0.3920  0.1689  0.3483
 4725TIP3    H135734   6.517   1.910   8.476 -0.5194  0.2704 -0.2854
 4725TIP3    H235735   6.506   1.880   8.328  1.4679  0.5396 -0.5232
 4726TIP3   OH235736   2.095   2.011   0.946 -0.1111  0.4164 -0.0082
 4726TIP3    H135737   2.053   1.987   0.863  0.4368  0.1165 -0.2026
 4726TIP3    H235738   2.131   1.928   0.979  1.1363  0.8237 -0.3082
 4727TIP3   OH235739   4.847   1.012   0.303  0.7714 -0.9012 -0.3569
 4727TIP3    H135740   4.935   1.012   0.265  0.1919 -1.4561 -1.7648
 4727TIP3    H235741   4.841   1.096   0.347  1.2025  0.1961 -2.2536
 4728TIP3   OH235742   3.790   2.440   0.502  0.3724 -0.2785 -0.1558
 4728TIP3    H135743   3.844   2.441   0.422  0.2330 -1.5222 -0.2927
 4728TIP3    H235744   3.703   2.414   0.471  0.3771 -1.0046  0.4269
 4729TIP3   OH235745   3.122   1.055   1.992 -0.3472  0.2293 -0.1631
 4729TIP3    H135746   3.089   1.144   2.001  1.2031  0.6091  3.7024
 4729TIP3    H235747   3.061   1.002   2.044 -0.0125 -0.5956 -0.6011
 4730TIP3   OH235748   0.621   5.731   8.500 -0.2467  0.3139  0.1781
 4730TIP3    H135749   0.602   5.764   8.413  1.9774  0.5487 -0.2693
 4730TIP3    H235750   0.567   5.785   8.558 -0.1169  1.6361 -0.8896
 4731TIP3   OH235751   0.557   0.501   6.582  0.2097  0.0661  0.4837
 4731TIP3    H135752   0.629   0.554   6.614 -0.4836  0.9246  0.6485
 4731TIP3    H235753   0.531   0.543   6.499  1.9747 -2.1038 -1.3032
 4732TIP3   OH235754   2.432   2.225   1.299  0.2121 -0.1465 -0.3433
 4732TIP3    H135755   2.420   2.150   1.242 -0.7475  1.0823 -1.8392
 4732TIP3    H235756   2.344   2.257   1.317  0.5509  0.1045  1.0267
 4733TIP3   OH235757   4.743   2.824   7.750  0.0085 -0.6450 -0.0411
 4733TIP3    H135758   4.822   2.863   7.713 -1.2071 -0.3524 -2.5565
 4733TIP3    H235759   4.714   2.762   7.684 -1.1806 -1.6929  1.4014
 4734TIP3   OH235760   3.803   5.172   7.048 -0.2661 -0.5920  0.6984
 4734TIP3    H135761   3.734   5.229   7.083 -0.1168  0.4242 -0.5889
 4734TIP3    H235762   3.757   5.091   7.024 -0.5878 -0.8100  1.9673
 4735TIP3   OH235763   5.286   1.915   1.395  0.0391 -0.0050 -0.0964
 4735TIP3    H135764   5.368   1.879   1.429 -1.0132 -1.4614  0.9942
 4735TIP3    H235765   5.223   1.902   1.465 -1.2276  0.7900 -1.0460
 4736TIP3   OH235766   1.869   3.264   1.110 -0.6573  0.3652 -0.0021
 4736TIP3    H135767   1.803   3.226   1.053  0.7672  0.5537 -1.8703
 4736TIP3    H235768   1.860   3.216   1.193 -1.6318 -1.1532 -0.9489
 4737TIP3   OH235769   5.480   1.253   7.226  0.0487 -0.2354  0.3717
 4737TIP3    H135770   5.466   1.236   7.132  0.5723 -2.8998  0.7153
 4737TIP3    H235771   5.575   1.251   7.237 -0.0270 -0.2925  1.0213
 4738TIP3   OH235772   3.492   1.104   8.316 -0.4148 -0.1369 -0.5336
 4738TIP3    H135773   3.565   1.050   8.348 -0.1659  0.2677 -0.4136
 4738TIP3    H235774   3.415   1.068   8.360 -0.3513 -0.8332 -0.9764
 4739TIP3   OH235775   5.935   5.458   1.466  0.2501 -0.0335 -0.2636
 4739TIP3    H135776   5.961   5.547   1.488 -0.1514  0.4084 -1.4882
 4739TIP3    H235777   5.880   5.468   1.389 -0.2135 -1.3044 -0.1135
 4740TIP3   OH235778   0.100   2.306   7.898  0.1534  0.2868  0.1077
 4740TIP3    H135779   0.089   2.289   7.992  2.0778 -0.5134  0.2453
 4740TIP3    H235780   0.164   2.377   7.895  2.4338 -1.6580 -0.5422
 4741TIP3   OH235781   3.438   3.229   2.418 -0.3474 -0.8045 -0.3425
 4741TIP3    H135782   3.409   3.173   2.491  1.3724 -1.1422  0.1170
 4741TIP3    H235783   3.446   3.168   2.344  2.2882 -1.4117  0.3495
 4742TIP3   OH235784   1.875   0.443   0.046 -0.2930 -0.5208 -0.0191
 4742TIP3    H135785   1.851   0.376   0.109  1.3062 -0.3922  0.7894
 4742TIP3    H235786   1.793   0.470   0.006 -1.3258 -0.8141  1.8115
 4743TIP3   OH235787   1.622   3.092   7.248 -0.1040  0.1954 -0.2434
 4743TIP3    H135788   1.702   3.069   7.201 -0.5245 -0.1402 -0.8039
 4743TIP3    H235789   1.579   3.009   7.265 -1.4504  0.5016 -1.9589
 4744TIP3   OH235790   1.522   1.349   7.337  0.1222 -0.0750  0.3994
 4744TIP3    H135791   1.485   1.308   7.415  1.3037  2.0692  2.2019
 4744TIP3    H235792   1.447   1.366   7.280 -1.0938  0.2882  2.0514
 4745TIP3   OH235793   6.788   0.775   8.427 -0.5894 -0.5299  0.2344
 4745TIP3    H135794   6.871   0.813   8.399 -0.9713 -0.7140 -1.2679
 4745TIP3    H235795   6.742   0.755   8.345 -0.8933 -3.1473  0.9425
 4746TIP3   OH235796   2.356   0.603   0.735 -1.1617 -0.8121 -0.9810
 4746TIP3    H135797   2.290   0.554   0.785 -1.5076  0.1709 -0.4488
 4746TIP3    H235798   2.402   0.655   0.801 -2.8982  1.9901 -1.7972
 4747TIP3   OH235799   5.845   4.573   0.436 -0.1229  0.5966 -0.3190
 4747TIP3    H135800   5.867   4.494   0.485 -1.2514  0.8972  0.7176
 4747TIP3    H235801   5.762   4.552   0.394 -0.0114  0.9441 -0.7167
 4748TIP3   OH235802   1.423   4.556   2.012  0.0019 -0.1987  0.5742
 4748TIP3    H135803   1.474   4.619   1.961  0.3240 -0.1452  0.9503
 4748TIP3    H235804   1.333   4.569   1.984  0.2975 -0.9549 -0.8043
 4749TIP3   OH235805   4.064   0.110   2.730 -0.0909 -0.2123 -0.0823
 4749TIP3    H135806   4.066   0.167   2.806 -1.2983  0.9200 -0.8680
 4749TIP3    H235807   3.986   0.056   2.742  0.2304 -0.6828 -0.0704
 4750TIP3   OH235808   1.806   6.827   0.911 -0.1957 -0.2463 -0.0449
 4750TIP3    H135809   1.711   6.830   0.914 -0.2036  0.6507 -0.8098
 4750TIP3    H235810   1.830   6.879   0.834  0.9678  0.9712  1.0713
 4751TIP3   OH235811   5.716   3.853   7.739  0.2984 -0.5496  0.3263
 4751TIP3    H135812   5.736   3.777   7.792  0.8084 -0.6087  0.0562
 4751TIP3    H235813   5.687   3.817   7.655 -0.7305 -0.4618  0.6302
 4752TIP3   OH235814   0.026   3.119   0.849  0.1645  0.1509  0.1371
 4752TIP3    H135815   0.017   3.204   0.892  1.7740  1.2139 -1.4598
 4752TIP3    H235816  -0.016   3.057   0.908 -3.1227  2.3165  0.2891
 4753TIP3   OH235817   4.520   1.279   0.256  0.1969  0.4312 -0.1819
 4753TIP3    H135818   4.547   1.371   0.253 -2.9385  1.4574  0.0090
 4753TIP3    H235819   4.523   1.256   0.349 -0.1392  0.7137 -0.0997
 4754TIP3   OH235820   2.073   4.825   0.605  0.8098  0.0561 -0.1782
 4754TIP3    H135821   2.008   4.891   0.582 -0.2452 -0.9938 -0.2894
 4754TIP3    H235822   2.150   4.876   0.633 -0.1855  1.3242  0.3445
 4755TIP3   OH235823   6.017   2.873   7.613  0.0976 -0.6673  0.4031
 4755TIP3    H135824   6.062   2.812   7.555  0.3960 -2.4444  2.3722
 4755TIP3    H235825   6.088   2.917   7.661 -0.0925  1.5923 -1.2120
 4756TIP3   OH235826   2.760   0.030   7.588 -0.5401  0.4892 -0.3986
 4756TIP3    H135827   2.698   0.008   7.657  0.4886  1.9672  1.0582
 4756TIP3    H235828   2.716   0.005   7.507 -0.8547 -3.5223  0.8218
 4757TIP3   OH235829   3.091   6.767   2.644  0.0707  0.4314 -0.0819
 4757TIP3    H135830   3.148   6.831   2.687  1.1673  0.3334 -1.3283
 4757TIP3    H235831   3.144   6.732   2.572 -0.8117 -1.2621  0.0451
 4758TIP3   OH235832   1.122   5.425   8.488 -0.0578  0.7191 -0.6438
 4758TIP3    H135833   1.166   5.351   8.529 -0.4726  0.7748 -0.0849
 4758TIP3    H235834   1.193   5.475   8.447  0.1957 -0.1006 -1.2227
 4759TIP3   OH235835   2.366   0.190   1.299  0.0691 -0.0082  0.7517
 4759TIP3    H135836   2.274   0.165   1.308  0.0747 -0.8541 -1.0426
 4759TIP3    H235837   2.396   0.204   1.389 -1.2728 -1.7475  1.5326
 4760TIP3   OH235838   3.139   4.430   7.028  0.8888  0.3096 -0.1931
 4760TIP3    H135839   3.068   4.435   7.092  1.2277  1.1025  0.1387
 4760TIP3    H235840   3.127   4.506   6.972  2.2120  1.1942  0.6721
 4761TIP3   OH235841   3.972   0.926   7.313 -0.1389  0.0142 -0.3049
 4761TIP3    H135842   4.043   0.881   7.359 -0.2898 -0.5371 -0.6124
 4761TIP3    H235843   3.961   0.878   7.231 -1.5165 -0.5188  0.1548
 4762TIP3   OH235844   0.789   3.471   2.122 -0.0253 -0.7047  0.1445
 4762TIP3    H135845   0.809   3.556   2.159 -0.1851  0.3619 -2.0625
 4762TIP3    H235846   0.863   3.415   2.146  1.2150  0.6931 -0.3121
 4763TIP3   OH235847   5.859   1.633   8.174 -0.1304 -0.0774 -0.2005
 4763TIP3    H135848   5.772   1.591   8.174 -0.7330  1.1324 -0.3770
 4763TIP3    H235849   5.843   1.721   8.208  0.4299  1.2943 -3.1204
 4764TIP3   OH235850   3.687   4.649   3.073  0.2513  0.0931 -0.2182
 4764TIP3    H135851   3.683   4.739   3.042  1.0878  0.3288  0.3417
 4764TIP3    H235852   3.618   4.604   3.023  0.7185  0.7337 -1.4876
 4765TIP3   OH235853   6.357   1.860   2.043 -0.0245  0.0319  0.2119
 4765TIP3    H135854   6.451   1.877   2.039 -0.2658  1.6033  0.6822
 4765TIP3    H235855   6.342   1.832   2.134  0.0483 -0.6356  0.0205
 4766TIP3   OH235856   2.234   6.005   6.938 -0.1416 -0.2112  0.1696
 4766TIP3    H135857   2.169   5.940   6.911 -1.5170  0.1599  2.3450
 4766TIP3    H235858   2.189   6.059   7.002  2.0344  0.7291  1.0132
 4767TIP3   OH235859   3.589   6.184   0.571  0.2116 -0.2133  0.4689
 4767TIP3    H135860   3.570   6.191   0.477 -0.5799 -1.0039  0.5566
 4767TIP3    H235861   3.669   6.234   0.583 -0.8522  1.7698 -0.2396
 4768TIP3   OH235862   0.245   3.916   7.843  0.2744 -0.2008 -0.0506
 4768TIP3    H135863   0.166   3.919   7.790  0.8083 -0.5413 -0.8978
 4768TIP3    H235864   0.216   3.884   7.929 -0.4767 -0.4625 -0.3972
 4769TIP3   OH235865   4.359   0.409   0.792 -0.5727 -0.4575  0.0922
 4769TIP3    H135866   4.435   0.350   0.796  0.5492  0.8964 -0.2703
 4769TIP3    H235867   4.323   0.407   0.881  1.6263  0.9944  1.1167
 4770TIP3   OH235868   4.829   4.158   7.460 -0.1608 -0.0401 -0.2797
 4770TIP3    H135869   4.882   4.099   7.514  0.6973  0.7106 -0.2738
 4770TIP3    H235870   4.886   4.178   7.385 -0.0728  1.4882  0.1703
 4771TIP3   OH235871   1.597   5.067   0.846  0.3891  0.0853 -0.2585
 4771TIP3    H135872   1.622   4.976   0.860 -0.8923 -0.5640 -1.9081
 4771TIP3    H235873   1.678   5.111   0.821  0.6982 -1.0106 -1.2352
 4772TIP3   OH235874   3.177   0.184   8.336 -0.1202 -0.4256  0.3021
 4772TIP3    H135875   3.136   0.265   8.305 -1.1260  0.2679  3.1023
 4772TIP3    H235876   3.126   0.114   8.296 -1.2316  0.3785  0.2700
 4773TIP3   OH235877   1.446   6.643   0.243  0.2365 -0.1443 -0.0582
 4773TIP3    H135878   1.357   6.618   0.220  0.8412 -2.8803  0.2498
 4773TIP3    H235879   1.473   6.704   0.174 -0.7754 -1.8280 -2.0559
 4774TIP3   OH235880   2.699   6.467   1.497 -0.5481 -0.2194 -0.0577
 4774TIP3    H135881   2.617   6.443   1.455  1.0967 -1.2844 -2.9921
 4774TIP3    H235882   2.743   6.384   1.513  1.2876  0.3614 -1.6463
 4775TIP3   OH235883   0.094   0.209   7.651  0.1258  0.1162 -0.0086
 4775TIP3    H135884   0.015   0.215   7.598 -0.2359  0.3068  0.5466
 4775TIP3    H235885   0.166   0.222   7.589 -0.3022  0.6631 -0.3991
 4776TIP3   OH235886   4.193   3.845   0.755  0.4807  0.2024 -0.2433
 4776TIP3    H135887   4.112   3.896   0.767  0.7417  0.6589 -0.3943
 4776TIP3    H235888   4.263   3.908   0.773  0.8031 -0.1705 -0.2011
 4777TIP3   OH235889   2.802   0.329   0.504 -0.0642  0.2211 -0.0099
 4777TIP3    H135890   2.888   0.295   0.528 -0.2185  0.5541  1.0440
 4777TIP3    H235891   2.821   0.412   0.460  0.1821 -0.0793 -0.4862
 4778TIP3   OH235892   4.146   5.012   8.415 -0.0022 -0.0433 -0.1700
 4778TIP3    H135893   4.233   5.052   8.410 -0.3526  0.5844 -2.1605
 4778TIP3    H235894   4.127   5.008   8.509  1.0512  2.3212  0.2269
 4779TIP3   OH235895   5.805   3.158   2.353  0.4093 -0.1670 -0.1701
 4779TIP3    H135896   5.804   3.126   2.262  0.0654  0.1976 -0.2946
 4779TIP3    H235897   5.797   3.253   2.345  0.7049 -0.1062  0.2330
 4780TIP3   OH235898   5.402   1.570   8.256 -0.7750  0.6384 -0.2097
 4780TIP3    H135899   5.449   1.506   8.202  0.2476  1.3237 -0.1636
 4780TIP3    H235900   5.347   1.517   8.314  2.1839 -0.4234  1.8718
 4781TIP3   OH235901   1.641   1.712   7.782 -1.0748 -0.4817  0.1621
 4781TIP3    H135902   1.683   1.658   7.715 -1.6004  0.0854 -0.6366
 4781TIP3    H235903   1.661   1.802   7.757  0.8131 -0.2427  2.1374
 4782TIP3   OH235904   0.951   2.952   1.379 -0.1706  0.1347  0.9386
 4782TIP3    H135905   0.868   2.985   1.345 -0.6530  0.3979  2.2893
 4782TIP3    H235906   1.017   3.012   1.345 -0.5754  0.1844  0.2127
 4783TIP3   OH235907   5.510   0.812   0.240  0.4847 -0.0083  0.0627
 4783TIP3    H135908   5.519   0.721   0.269  0.0707  0.0156  0.2848
 4783TIP3    H235909   5.542   0.864   0.314 -1.7127  0.0874  1.0219
 4784TIP3   OH235910   3.824   0.944   2.532  0.2990  0.1322  0.5833
 4784TIP3    H135911   3.763   0.975   2.599 -1.3716 -1.1967 -0.2341
 4784TIP3    H235912   3.883   0.885   2.579  1.3852  1.8536  1.4910
 4785TIP3   OH235913   0.551   1.767   3.049  0.3137 -0.1546 -0.3702
 4785TIP3    H135914   0.637   1.795   3.016 -0.2725  2.8783  0.3748
 4785TIP3    H235915   0.550   1.673   3.036  4.3054 -0.5430  0.8659
 4786TIP3   OH235916   1.201   3.753   0.390 -0.3993 -0.1473  0.4886
 4786TIP3    H135917   1.273   3.747   0.453  2.3814 -0.7443 -2.4893
 4786TIP3    H235918   1.206   3.671   0.340 -3.4017 -0.3287  0.3071
 4787TIP3   OH235919   4.907   3.044   1.310 -0.5685  0.6983 -0.1363
 4787TIP3    H135920   4.868   3.054   1.396  2.5272 -0.3037  1.5667
 4787TIP3    H235921   4.903   2.950   1.293 -0.2411  0.7645 -0.6077
 4788TIP3   OH235922   6.370   0.514   0.044  0.4398  0.1178 -0.0565
 4788TIP3    H135923   6.284   0.473   0.036 -0.1464  1.5133 -1.3998
 4788TIP3    H235924   6.411   0.501  -0.042  0.2005  2.3395 -0.5593
 4789TIP3   OH235925   4.542   5.565   6.709  0.0889 -0.1546  0.7195
 4789TIP3    H135926   4.630   5.551   6.673  0.0319  0.3615  0.3644
 4789TIP3    H235927   4.540   5.658   6.732 -0.9214  0.2725 -0.8629
 4790TIP3   OH235928   3.635   0.747   2.408 -0.5755  1.1402 -0.3601
 4790TIP3    H135929   3.697   0.812   2.441 -1.0704  1.8155 -0.7443
 4790TIP3    H235930   3.628   0.766   2.315 -0.7937  0.5847 -0.4607
 4791TIP3   OH235931   0.655   3.767   7.393  0.0173 -0.1436  0.1166
 4791TIP3    H135932   0.748   3.763   7.371 -0.3014  1.0366 -1.7267
 4791TIP3    H235933   0.610   3.752   7.309 -1.3592  2.4962  0.2766
 4792TIP3   OH235934   6.279   1.821   2.306 -0.4389 -0.5445  0.0149
 4792TIP3    H135935   6.233   1.737   2.305 -0.4236 -0.5620  0.4679
 4792TIP3    H235936   6.210   1.885   2.325 -0.8389 -0.1920 -2.3522
 4793TIP3   OH235937   5.671   6.668   0.310  0.3096 -0.6157  0.6966
 4793TIP3    H135938   5.599   6.613   0.279 -1.4089  0.4480  2.5770
 4793TIP3    H235939   5.733   6.607   0.348 -0.6008 -1.4120  0.9504
 4794TIP3   OH235940   6.504   6.758   1.836  0.6175  0.0731  0.1411
 4794TIP3    H135941   6.526   6.805   1.916  1.1691  0.7428 -0.3969
 4794TIP3    H235942   6.414   6.727   1.850  0.4000  0.9209  0.6673
 4795TIP3   OH235943   0.318   4.435   2.016  0.2786 -0.4626  0.0747
 4795TIP3    H135944   0.326   4.462   2.108 -0.7596  0.6110 -0.1337
 4795TIP3    H235945   0.404   4.400   1.994  0.7898  0.0258  1.2204
 4796TIP3   OH235946   3.080   6.300   0.045  0.7365  0.1690 -0.1031
 4796TIP3    H135947   3.006   6.360   0.060  1.0550  0.6824 -0.5288
 4796TIP3    H235948   3.119   6.331  -0.037 -0.0403 -1.5776 -1.1936
 4797TIP3   OH235949   3.424   6.650   7.760  0.1938 -0.6773 -0.0788
 4797TIP3    H135950   3.428   6.730   7.812  0.6626 -0.1233 -0.9421
 4797TIP3    H235951   3.509   6.608   7.772  0.6508 -0.0875 -1.0767
 4798TIP3   OH235952   1.952   6.245   7.838 -0.5267 -0.4810  0.5353
 4798TIP3    H135953   1.984   6.224   7.751 -2.9483  0.0154 -0.5761
 4798TIP3    H235954   2.021   6.297   7.878  0.5944 -0.6257 -1.1367
 4799TIP3   OH235955   6.131   6.721   1.048 -0.2487 -0.2310  0.5138
 4799TIP3    H135956   6.187   6.662   0.997  0.0800  0.8337 -0.4031
 4799TIP3    H235957   6.164   6.713   1.138  0.8595 -0.2318  0.1237
 4800TIP3   OH235958   2.901   0.273   7.629 -0.3146 -0.1174 -0.5056
 4800TIP3    H135959   2.854   0.192   7.646 -1.7575  0.3473 -1.9391
 4800TIP3    H235960   2.836   0.342   7.642 -0.4402  0.4937 -3.6014
 4801TIP3   OH235961   4.745   2.429   0.244 -0.0557  0.5739 -0.4169
 4801TIP3    H135962   4.706   2.508   0.206 -3.0486 -1.2261 -1.3673
 4801TIP3    H235963   4.674   2.386   0.290  1.8402 -0.9380  1.3063
 4802TIP3   OH235964   1.465   1.062   0.772  0.0541 -0.0919 -0.2048
 4802TIP3    H135965   1.491   1.143   0.729  1.0569 -1.2681 -1.9754
 4802TIP3    H235966   1.371   1.070   0.784  0.2309  1.5942  0.2761
 4803TIP3   OH235967   3.569   0.616   0.274  0.5371 -0.0316  0.1957
 4803TIP3    H135968   3.586   0.710   0.272  0.4194 -0.0233 -1.1131
 4803TIP3    H235969   3.614   0.582   0.198 -0.1069 -0.9220  0.1984
 4804TIP3   OH235970   1.308   6.373   7.808 -0.0108 -0.3255  0.1640
 4804TIP3    H135971   1.221   6.406   7.829 -0.2626 -0.5100 -0.5590
 4804TIP3    H235972   1.367   6.446   7.829 -0.6398  0.9668 -2.2384
 4805TIP3   OH235973   2.377   6.574   0.105 -0.0744  0.2858  0.1940
 4805TIP3    H135974   2.373   6.666   0.079 -0.7406  0.0668 -0.5128
 4805TIP3    H235975   2.374   6.526   0.023  0.2688 -0.3779  0.5590
 4806TIP3   OH235976   5.993   1.576   0.510 -0.6275  0.0837 -0.2336
 4806TIP3    H135977   6.058   1.645   0.494 -0.7603  0.3367  0.2935
 4806TIP3    H235978   6.042   1.494   0.501 -0.1456  0.2797  0.5266
 4807TIP3   OH235979   6.354   5.731   1.666 -0.0932 -0.2007 -0.0514
 4807TIP3    H135980   6.401   5.653   1.635  0.1058 -0.5496  1.0986
 4807TIP3    H235981   6.262   5.702   1.671 -0.7582  0.8373 -3.5172
 4808TIP3   OH235982   1.532   6.494   2.572 -0.1687 -0.4368  0.0868
 4808TIP3    H135983   1.574   6.442   2.504 -0.3159  1.5548 -1.6268
 4808TIP3    H235984   1.442   6.505   2.541 -1.3406 -2.4144  2.4057
 4809TIP3   OH235985   4.411   6.125   0.130 -0.2864 -0.0169 -0.2036
 4809TIP3    H135986   4.488   6.095   0.177  0.4421  0.7933 -0.8531
 4809TIP3    H235987   4.353   6.160   0.198  0.1724 -0.0717  0.2164
 4810TIP3   OH235988   3.019   5.411   1.663  0.6557  0.6749 -0.1112
 4810TIP3    H135989   2.934   5.379   1.692  1.6770 -2.0829  0.1115
 4810TIP3    H235990   3.040   5.359   1.586  1.7227  2.0189 -0.7761
 4811TIP3   OH235991   4.583   5.591   1.223 -0.0556  0.0702 -0.0548
 4811TIP3    H135992   4.494   5.560   1.203  0.1331  0.3457 -1.4233
 4811TIP3    H235993   4.640   5.534   1.171  0.5189  0.3718  0.2389
 4812TIP3   OH235994   0.803   6.614   8.059  0.1188  0.2921  0.2302
 4812TIP3    H135995   0.791   6.620   7.964 -1.3673 -1.3365  0.2505
 4812TIP3    H235996   0.785   6.522   8.080 -0.4572  0.7846  2.1862
 4813TIP3   OH235997   2.638   3.015   0.036 -0.0775 -0.5960 -0.0141
 4813TIP3    H135998   2.710   3.029  -0.025 -0.4611  0.1009 -0.3112
 4813TIP3    H235999   2.583   3.092   0.027 -1.9935 -2.0312 -1.3142
 4814TIP3   OH236000   0.419   2.491   8.087  0.3554  0.2610  0.1719
 4814TIP3    H136001   0.478   2.479   8.162  0.2777  2.0005  0.5532
 4814TIP3    H236002   0.332   2.473   8.122  0.2720  1.4594  0.6543
 4815TIP3   OH236003   2.481   0.302   1.575 -1.1591  0.1549  0.0704
 4815TIP3    H136004   2.396   0.340   1.598  0.4165  2.7499  2.2711
 4815TIP3    H236005   2.506   0.347   1.494 -1.4657  0.1210 -0.0450
 4816TIP3   OH236006   2.531   5.628   2.034 -0.3330  0.0518 -0.0852
 4816TIP3    H136007   2.617   5.600   2.064 -0.7850 -1.3772 -0.0546
 4816TIP3    H236008   2.471   5.600   2.103 -0.8495  0.8828 -0.1845
 4817TIP3   OH236009   2.541   4.624   0.336  0.0118  0.1245 -0.1133
 4817TIP3    H136010   2.506   4.548   0.383 -0.3302 -1.2646 -2.4391
 4817TIP3    H236011   2.482   4.695   0.360 -0.4390 -0.6265  1.1256
 4818TIP3   OH236012   6.713   6.321   8.371  0.3208  0.0019  0.3474
 4818TIP3    H136013   6.768   6.399   8.381 -0.6501  0.7413  0.0913
 4818TIP3    H236014   6.624   6.355   8.373 -0.1271 -1.1454  0.4931
 4819TIP3   OH236015   5.934   2.181   0.952 -0.4526  0.7018  0.1633
 4819TIP3    H136016   5.938   2.173   0.857  0.8414 -0.6909  0.2936
 4819TIP3    H236017   5.856   2.131   0.978 -0.3444  0.3871 -0.1106
 4820TIP3   OH236018   0.647   5.232   0.364  0.1758  0.0898  0.2652
 4820TIP3    H136019   0.684   5.319   0.353  2.0644 -0.9281 -2.5392
 4820TIP3    H236020   0.553   5.244   0.354  0.4011  1.7720 -0.1479
 4821TIP3   OH236021   4.936   1.782   6.845  0.8340 -0.4937  0.3494
 4821TIP3    H136022   5.030   1.771   6.838  0.9087  0.3148 -0.0578
 4821TIP3    H236023   4.901   1.693   6.844  1.6350 -0.8331  1.3006
 4822TIP3   OH236024   5.487   6.459   7.411 -0.3140 -0.4081  0.6235
 4822TIP3    H136025   5.520   6.548   7.401 -1.2250  0.0179  1.2532
 4822TIP3    H236026   5.473   6.449   7.505  0.2694 -1.4106  0.6141
 4823TIP3   OH236027   4.626   1.245   8.718 -0.3992  0.6643  0.4147
 4823TIP3    H136028   4.540   1.209   8.697 -0.2369  0.8884 -0.6759
 4823TIP3    H236029   4.626   1.254   8.814 -1.6829  0.9338  0.3991
 4824TIP3   OH236030   4.422   4.363   8.173 -0.2817 -0.5322  0.5627
 4824TIP3    H136031   4.454   4.334   8.087  0.2178  0.4466  0.4099
 4824TIP3    H236032   4.472   4.442   8.193 -0.4699 -0.6791  1.7138
 4825TIP3   OH236033   1.336   4.007   1.252  0.1218  0.2829  0.3416
 4825TIP3    H136034   1.243   4.024   1.267  0.4490  1.9499  0.6998
 4825TIP3    H236035   1.380   4.080   1.294  1.6060 -0.4777  0.1609
 4826TIP3   OH236036   2.241   5.108   0.953  0.1520 -0.2197 -0.1625
 4826TIP3    H136037   2.328   5.136   0.927 -0.0505 -0.0992 -0.7208
 4826TIP3    H236038   2.183   5.179   0.927  0.0581  0.4315  1.6388
 4827TIP3   OH236039   2.994   6.281   7.709  0.1682  0.3198 -0.1367
 4827TIP3    H136040   2.913   6.252   7.668  0.5035  0.7596 -1.1601
 4827TIP3    H236041   2.980   6.374   7.726  0.2574  0.2735  0.1937
 4828TIP3   OH236042   4.450   6.272   2.048 -0.3387 -0.6178  0.0544
 4828TIP3    H136043   4.517   6.320   2.000 -0.3146  0.5234  1.1593
 4828TIP3    H236044   4.497   6.201   2.091 -0.3782 -1.7078 -1.6215
 4829TIP3   OH236045   6.825   4.672   1.733  0.0762  0.2701 -0.1764
 4829TIP3    H136046   6.818   4.759   1.772 -1.4139  0.4049 -0.7011
 4829TIP3    H236047   6.838   4.614   1.808  2.7634  1.0601  0.0720
 4830TIP3   OH236048   1.085   5.909   0.689 -0.3915  0.1592 -0.3033
 4830TIP3    H136049   1.166   5.879   0.650 -1.8457 -0.6613 -2.9091
 4830TIP3    H236050   1.047   5.968   0.624 -1.5997  1.0556  1.1389
 4831TIP3   OH236051   5.112   3.049   1.495 -0.4107  0.2298  0.3514
 4831TIP3    H136052   5.053   3.069   1.567 -0.0976 -0.0827  0.7047
 4831TIP3    H236053   5.057   3.006   1.430 -0.4691 -0.6538  0.9524
 4832TIP3   OH236054   6.503   2.518   7.649 -0.3361  0.0338  0.0137
 4832TIP3    H136055   6.471   2.454   7.586  1.6787 -1.3194  0.2516
 4832TIP3    H236056   6.585   2.550   7.610 -1.4126  2.7566 -0.2377
 4833TIP3   OH236057   1.946   0.694   1.127  0.3265 -0.2005 -0.0887
 4833TIP3    H136058   2.030   0.668   1.166  0.5190  1.4114  0.6887
 4833TIP3    H236059   1.942   0.789   1.143 -1.0124 -0.0204 -1.3444
 4834TIP3   OH236060   4.356   2.722   1.384  0.6031 -0.2378 -0.1226
 4834TIP3    H136061   4.381   2.811   1.408 -0.0558  0.2994 -1.3130
 4834TIP3    H236062   4.365   2.672   1.465 -0.0280  1.1325  0.8429
 4835TIP3   OH236063   6.477   5.221   2.312 -0.2384 -0.2393  0.1019
 4835TIP3    H136064   6.524   5.155   2.364  1.2908  2.0916  1.9395
 4835TIP3    H236065   6.410   5.255   2.372  0.1984  1.0789 -0.1208
 4836TIP3   OH236066   4.902   4.460   0.472  0.0126  0.3183  0.6340
 4836TIP3    H136067   4.843   4.498   0.537 -2.5153 -1.8508 -0.2493
 4836TIP3    H236068   4.957   4.400   0.522 -0.0071  0.7255  1.1566
 4837TIP3   OH236069   4.302   0.080   6.801 -0.0236  0.2636  0.2707
 4837TIP3    H136070   4.392   0.050   6.787  0.1449  0.0380  1.6313
 4837TIP3    H236071   4.307   0.176   6.798 -0.0140  0.2328 -1.0925
 4838TIP3   OH236072   4.307   2.438   8.173 -0.1319  0.4582 -0.5208
 4838TIP3    H136073   4.237   2.466   8.231  0.2769 -1.1177  0.8228
 4838TIP3    H236074   4.382   2.491   8.198  0.2601 -0.7400  1.0233
 4839TIP3   OH236075   5.189   2.458   2.246  0.8951 -0.0414 -0.1642
 4839TIP3    H136076   5.159   2.462   2.337 -1.6084 -0.2942 -0.8904
 4839TIP3    H236077   5.179   2.366   2.222  2.0780 -0.0800 -0.5634
 4840TIP3   OH236078   3.402   3.252   2.819  0.1144 -0.2523 -0.0040
 4840TIP3    H136079   3.491   3.222   2.834 -0.5920 -1.4245  2.2372
 4840TIP3    H236080   3.376   3.293   2.902 -1.8523 -1.0674 -0.1644
 4841TIP3   OH236081   0.651   3.228   7.581  0.2805 -0.0968  1.1293
 4841TIP3    H136082   0.698   3.265   7.507 -0.2765 -1.2421  0.1773
 4841TIP3    H236083   0.715   3.173   7.626  0.7216  0.8834  1.7508
 4842TIP3   OH236084   0.730   3.716   8.609  0.2648  0.0993 -0.1496
 4842TIP3    H136085   0.721   3.690   8.700 -0.4494  1.1378  0.0910
 4842TIP3    H236086   0.718   3.811   8.609 -1.9032 -0.0876 -1.5466
 4843TIP3   OH236087   5.189   0.270   1.973  0.3429  0.7901  0.0289
 4843TIP3    H136088   5.225   0.325   2.042  2.4455 -1.2088  0.6759
 4843TIP3    H236089   5.162   0.190   2.018  1.1885 -0.3169 -1.3417
 4844TIP3   OH236090   6.377   3.260   2.291 -0.1248 -0.1596 -0.0166
 4844TIP3    H136091   6.382   3.353   2.313  0.3834 -0.8969  3.7618
 4844TIP3    H236092   6.439   3.218   2.352  0.1446 -2.9469 -2.0187
 4845TIP3   OH236093   5.560   4.937   1.579 -0.0116 -0.3567  0.4557
 4845TIP3    H136094   5.651   4.964   1.594  0.0906 -0.4895  0.0861
 4845TIP3    H236095   5.508   5.011   1.610  0.2663  0.2384 -0.4422
 4846TIP3   OH236096   3.874   4.341   8.724  0.5592  0.0818  0.0402
 4846TIP3    H136097   3.825   4.360   8.804  0.6291  0.0289  0.0961
 4846TIP3    H236098   3.878   4.245   8.721 -0.4990  0.0417 -0.6683
 4847TIP3   OH236099   1.418   4.142   1.001  0.3976  0.3100 -0.1784
 4847TIP3    H136100   1.476   4.194   1.056  1.3384  0.4373 -1.2570
 4847TIP3    H236101   1.369   4.087   1.062  0.4243  1.4159  0.8739
 4848TIP3   OH236102   3.581   6.086   7.353 -0.5623  0.2675  0.0770
 4848TIP3    H136103   3.619   6.147   7.289  1.7824 -1.4878 -0.3271
 4848TIP3    H236104   3.599   5.999   7.318  1.2479 -0.8230  3.2727
 4849TIP3   OH236105   1.591   4.050   0.074  0.1926  0.2413  0.4427
 4849TIP3    H136106   1.619   3.982   0.013 -0.6775 -1.2394  1.6141
 4849TIP3    H236107   1.501   4.070   0.049  0.4945  1.0740  0.0145
 4850TIP3   OH236108   4.832   0.171   0.509 -0.2520 -0.0135 -0.6796
 4850TIP3    H136109   4.808   0.108   0.441  0.7190 -0.7175 -0.3982
 4850TIP3    H236110   4.904   0.129   0.556 -0.2357  0.8947  0.1463
 4851TIP3   OH236111   4.519   2.374   0.616  0.3638 -0.5088 -0.0001
 4851TIP3    H136112   4.513   2.376   0.520 -0.5381  1.4083  0.0456
 4851TIP3    H236113   4.606   2.336   0.633  0.3237 -1.3991 -1.5397
 4852TIP3   OH236114   0.859   2.148   0.187  0.1789  0.0058 -0.6548
 4852TIP3    H136115   0.936   2.169   0.134  1.0945  0.1031  0.6652
 4852TIP3    H236116   0.824   2.067   0.148  0.5101  0.3514 -1.7073
 4853TIP3   OH236117   0.767   5.587   7.999  0.0957  0.8116  0.4319
 4853TIP3    H136118   0.833   5.522   7.975 -0.1440  0.6458  0.2228
 4853TIP3    H236119   0.685   5.538   8.004  0.3046  0.5752  2.8060
 4854TIP3   OH236120   6.462   0.694   2.510  0.1513 -0.0935 -0.2703
 4854TIP3    H136121   6.462   0.757   2.583 -1.1094 -0.6804  0.2637
 4854TIP3    H236122   6.459   0.608   2.552 -0.6456 -0.4426 -1.0129
 4855TIP3   OH236123   2.776   4.429   7.551 -0.0219 -0.1216  0.1754
 4855TIP3    H136124   2.782   4.380   7.469 -0.5329  1.4092 -0.8361
 4855TIP3    H236125   2.719   4.377   7.607 -0.8963 -0.4833 -1.0116
 4856TIP3   OH236126   2.624   2.108   0.936  0.6719  0.1924 -0.4949
 4856TIP3    H136127   2.569   2.180   0.904  0.4473  0.2212 -0.0537
 4856TIP3    H236128   2.633   2.125   1.030  0.2931 -0.5677 -0.3108
 4857TIP3   OH236129   4.116   4.784   1.040 -0.3062 -0.0621  0.2968
 4857TIP3    H136130   4.159   4.739   1.113  0.7503  0.1056 -0.2014
 4857TIP3    H236131   4.137   4.731   0.963 -0.6644  0.2398 -0.0140
 4858TIP3   OH236132   6.089   2.406   7.505 -0.2966 -0.2389 -0.6201
 4858TIP3    H136133   6.084   2.403   7.410  0.5147 -0.6705 -0.6640
 4858TIP3    H236134   6.181   2.425   7.523 -0.5164  0.2050  0.0758
 4859TIP3   OH236135   2.187   2.588   8.454  0.2102  0.0765  0.5427
 4859TIP3    H136136   2.122   2.654   8.432 -0.5261 -0.9132 -0.3455
 4859TIP3    H236137   2.258   2.603   8.392 -1.2548 -1.8092 -1.8085
 4860TIP3   OH236138   3.516   1.788   8.604  0.0827 -0.2626 -0.6144
 4860TIP3    H136139   3.555   1.855   8.661 -1.2807  0.9197 -1.0197
 4860TIP3    H236140   3.474   1.727   8.665 -1.2339  0.9103 -0.2925
 4861TIP3   OH236141   3.729   3.572   8.170  0.1944 -0.2645 -0.4524
 4861TIP3    H136142   3.799   3.626   8.133 -1.5266  3.0630  0.7276
 4861TIP3    H236143   3.667   3.561   8.098  0.5873 -0.7691 -0.7186
 4862TIP3   OH236144   0.666   0.805   7.153 -0.8911 -0.5882 -0.1046
 4862TIP3    H136145   0.635   0.884   7.198  2.4432  1.2231 -0.6329
 4862TIP3    H236146   0.673   0.830   7.061  1.3675 -0.9985 -0.1063
 4863TIP3   OH236147   3.249   3.054   7.827  0.0955 -0.4780 -0.4312
 4863TIP3    H136148   3.246   2.986   7.760  1.5665 -0.1791 -0.8317
 4863TIP3    H236149   3.286   3.011   7.904 -0.6197 -0.5595 -0.1256
 4864TIP3   OH236150   4.154   2.212   0.626 -0.1293  0.3885 -0.0224
 4864TIP3    H136151   4.060   2.206   0.613 -0.2411  2.8440 -0.8202
 4864TIP3    H236152   4.165   2.272   0.700  0.7966  0.4659 -0.2074
 4865TIP3   OH236153   2.956   3.184   0.573  0.2565 -0.2774 -0.3200
 4865TIP3    H136154   2.982   3.097   0.602  3.5779  0.7016  0.0981
 4865TIP3    H236155   2.878   3.205   0.624  0.4542 -2.2796  0.8956
 4866TIP3   OH236156   1.992   3.970   1.177  0.3577  0.6241 -0.3228
 4866TIP3    H136157   1.978   3.912   1.252 -2.3378 -0.2652 -1.3588
 4866TIP3    H236158   2.083   3.997   1.183  0.6366 -0.6067  2.4018
 4867TIP3   OH236159   0.380   4.816   7.175  0.0952  0.1700 -0.2114
 4867TIP3    H136160   0.408   4.733   7.135 -0.5212 -0.1306 -0.0397
 4867TIP3    H236161   0.379   4.799   7.269  2.8989  1.2960  0.1195
 4868TIP3   OH236162   0.795   0.212   1.910  0.1829  0.3460  0.3267
 4868TIP3    H136163   0.875   0.254   1.880 -0.9672  1.1358 -1.9083
 4868TIP3    H236164   0.803   0.121   1.882  0.9220  0.0097  1.5314
 4869TIP3   OH236165   4.092   2.611   1.588 -0.1431 -0.1892  0.3559
 4869TIP3    H136166   4.039   2.681   1.549 -2.7971 -1.3296  1.5980
 4869TIP3    H236167   4.113   2.642   1.676  0.0732 -0.2928  0.3415
 4870TIP3   OH236168   5.613   5.539   0.376  0.1199  0.1559  0.0964
 4870TIP3    H136169   5.665   5.555   0.455  0.3065  1.1194 -0.2121
 4870TIP3    H236170   5.549   5.610   0.375 -0.3045 -0.2266 -0.2709
 4871TIP3   OH236171   4.689   6.780   0.802 -0.7250 -0.6713  0.0345
 4871TIP3    H136172   4.782   6.803   0.800 -0.1897 -2.5719  0.8937
 4871TIP3    H236173   4.643   6.863   0.791  1.0567  0.6870  2.0319
 4872TIP3   OH236174   0.098   5.951   7.586  0.1520 -0.0261  0.3096
 4872TIP3    H136175   0.051   6.026   7.623  0.1018  0.5772 -0.9320
 4872TIP3    H236176   0.187   5.983   7.573  0.9706 -1.1460  2.6021
 4873TIP3   OH236177   5.433   5.664   8.435 -0.0520 -0.9554 -0.3739
 4873TIP3    H136178   5.350   5.652   8.389 -0.8012 -1.5387  1.0693
 4873TIP3    H236179   5.466   5.575   8.448  0.8856 -0.7258 -1.0468
 4874TIP3   OH236180   0.766   5.121   1.520  0.3727  0.0969  0.4998
 4874TIP3    H136181   0.855   5.087   1.526 -0.0444 -1.2561 -0.5138
 4874TIP3    H236182   0.775   5.204   1.474  1.0934 -0.1076  0.2626
 4875TIP3   OH236183   6.388   4.982   7.925 -0.2050 -0.4607 -0.6222
 4875TIP3    H136184   6.380   5.000   7.831  1.0295  0.1552 -0.6238
 4875TIP3    H236185   6.424   4.894   7.929  0.3569 -0.2387 -0.7433
 4876TIP3   OH236186   0.522   1.952   8.373 -0.7290  0.0909  0.4588
 4876TIP3    H136187   0.535   1.925   8.283 -0.0241 -0.3585  0.6817
 4876TIP3    H236188   0.550   1.877   8.425 -0.5189  0.5711  1.0563
 4877TIP3   OH236189   3.238   6.658   8.315 -0.4279 -0.5278 -0.1182
 4877TIP3    H136190   3.183   6.692   8.244 -0.8971 -0.5334  0.2423
 4877TIP3    H236191   3.318   6.629   8.271 -1.1179 -1.4849 -0.7847
 4878TIP3   OH236192   6.330   0.450   2.535 -0.5702 -0.1855  0.0681
 4878TIP3    H136193   6.288   0.367   2.510 -2.8354  0.6201  0.8716
 4878TIP3    H236194   6.257   0.513   2.538  0.9011  1.5711  0.5963
 4879TIP3   OH236195   5.122   1.568   0.174 -0.4382  0.0348  0.0536
 4879TIP3    H136196   5.129   1.650   0.124 -1.2659  0.6187  0.8653
 4879TIP3    H236197   5.213   1.544   0.194 -0.0873 -0.2011 -1.6783
 4880TIP3   OH236198   5.294   6.518   7.980  0.5904 -0.0263  0.1253
 4880TIP3    H136199   5.226   6.452   7.993  2.0159 -1.5267  0.2841
 4880TIP3    H236200   5.268   6.564   7.900  0.0053 -1.3804 -0.4947
 4881TIP3   OH236201   2.428   1.575   8.682  0.1559  0.0823 -0.0200
 4881TIP3    H136202   2.485   1.503   8.709 -0.5089 -0.2522  0.5254
 4881TIP3    H236203   2.474   1.615   8.608  1.2221 -0.0131  0.5593
 4882TIP3   OH236204   0.281   3.700   0.372 -0.1601  0.7050 -0.2937
 4882TIP3    H136205   0.319   3.638   0.311  1.3783  0.4151  0.8988
 4882TIP3    H236206   0.335   3.693   0.451 -2.5806  0.3832  1.4631
 4883TIP3   OH236207   1.906   3.948   0.421  0.4136  0.4930  0.3774
 4883TIP3    H136208   1.815   3.923   0.438  0.1779  0.3061 -1.0177
 4883TIP3    H236209   1.903   4.043   0.410  0.3805  0.4870  0.3340
 4884TIP3   OH236210   5.578   3.056   8.712  0.3969  0.2206  0.0228
 4884TIP3    H136211   5.637   3.073   8.786  1.0805  1.3128 -0.7413
 4884TIP3    H236212   5.492   3.048   8.752  0.7388  0.9210  0.9396
 4885TIP3   OH236213   4.024   5.284   3.008 -0.1021 -0.1062 -0.3033
 4885TIP3    H136214   3.997   5.357   3.063  3.0174  1.1427 -0.2187
 4885TIP3    H236215   4.064   5.324   2.931 -0.8202 -1.7857 -1.6150
 4886TIP3   OH236216   2.736   4.593   1.245  0.3679  0.2923 -0.1563
 4886TIP3    H136217   2.690   4.665   1.200 -0.6618  0.1542  0.6578
 4886TIP3    H236218   2.697   4.514   1.209  1.0304  0.1348 -0.5508
 4887TIP3   OH236219   5.753   2.264   1.243 -0.4493  0.1389 -0.1538
 4887TIP3    H136220   5.697   2.235   1.314 -0.5073 -0.3589 -0.3965
 4887TIP3    H236221   5.756   2.190   1.183 -0.5131  0.5997 -0.7388
 4888TIP3   OH236222   1.382   0.421   8.167  0.8869 -0.0399  0.0929
 4888TIP3    H136223   1.407   0.481   8.237 -1.6821 -0.2532  1.3349
 4888TIP3    H236224   1.358   0.340   8.212 -1.3800 -0.0103 -0.8819
 4889TIP3   OH236225   2.888   6.766   1.934 -0.4557 -0.1071 -0.0009
 4889TIP3    H136226   2.795   6.766   1.913 -0.5163  0.2353  0.2720
 4889TIP3    H236227   2.904   6.679   1.971 -0.4096 -0.6087 -1.1592
 4890TIP3   OH236228   2.640   6.424   7.945 -0.4192  0.0176  0.1279
 4890TIP3    H136229   2.686   6.470   7.874 -1.9194 -1.8037 -2.1436
 4890TIP3    H236230   2.563   6.478   7.963  0.4459  0.9771  1.1166
 4891TIP3   OH236231   4.230   5.693   8.038 -0.2657  0.4281  0.1711
 4891TIP3    H136232   4.303   5.652   8.083 -0.4739  0.0623  0.1850
 4891TIP3    H236233   4.224   5.781   8.075  0.4849  0.6397 -0.1963
 4892TIP3   OH236234   5.371   3.137   7.802 -0.4883  0.2598  0.0881
 4892TIP3    H136235   5.376   3.112   7.894  0.4004 -0.1924 -0.0682
 4892TIP3    H236236   5.438   3.205   7.792  0.1775 -0.4638 -0.4532
 4893TIP3   OH236237   1.731   5.069   1.901  0.1306  0.0747 -0.4895
 4893TIP3    H136238   1.736   5.030   1.989  0.8464  2.2847  0.5186
 4893TIP3    H236239   1.812   5.118   1.892 -0.9928  1.8660 -1.3808
 4894TIP3   OH236240   6.643   1.060   7.595 -0.0005 -0.2611 -0.5252
 4894TIP3    H136241   6.699   1.037   7.670  0.9914 -0.1647 -1.2212
 4894TIP3    H236242   6.555   1.030   7.621  0.0697  0.8214  1.1708
 4895TIP3   OH236243   1.630   5.402   2.951 -0.3362  0.4343  0.6196
 4895TIP3    H136244   1.618   5.308   2.965 -1.2222  0.9137  4.0582
 4895TIP3    H236245   1.543   5.433   2.925 -0.6161  0.5683  1.6704
 4896TIP3   OH236246   0.013   1.815   0.149  0.4611 -0.1143 -0.6069
 4896TIP3    H136247  -0.024   1.897   0.116  1.7960 -0.3714 -2.9402
 4896TIP3    H236248  -0.048   1.747   0.119 -0.2081 -0.0973  0.6242
 4897TIP3   OH236249   5.926   3.840   8.281  0.1524  0.4272  0.6952
 4897TIP3    H136250   5.886   3.924   8.259 -0.6114 -0.3954 -1.3135
 4897TIP3    H236251   6.017   3.848   8.253 -0.3751  0.0088 -1.2969
 4898TIP3   OH236252   1.256   6.070   2.093  0.0159  0.4006  0.3767
 4898TIP3    H136253   1.344   6.093   2.065  0.8765  0.4401  2.9280
 4898TIP3    H236254   1.238   6.128   2.167 -2.4658  0.8859 -0.5090
 4899TIP3   OH236255   5.454   3.372   1.486  0.1758 -0.2220 -0.2460
 4899TIP3    H136256   5.489   3.327   1.563 -2.3839 -0.8170  0.6643
 4899TIP3    H236257   5.406   3.305   1.438 -0.4349  0.6956 -0.9628
 4900TIP3   OH236258   4.257   6.075   1.619  0.1930 -0.3688 -0.2388
 4900TIP3    H136259   4.282   6.068   1.711 -0.9899 -0.0191  0.1340
 4900TIP3    H236260   4.340   6.069   1.571  1.0046  0.8306  0.9158
 4901TIP3   OH236261   4.143   1.858   8.528 -0.7556  0.4054  0.4711
 4901TIP3    H136262   4.172   1.767   8.526  0.3539  0.7118  1.3630
 4901TIP3    H236263   4.219   1.906   8.561 -0.9089  1.8259 -1.1104
 4902TIP3   OH236264   6.760   4.110   0.619  0.0185 -0.2365 -0.6664
 4902TIP3    H136265   6.794   4.185   0.668 -1.9736  0.2340  0.0762
 4902TIP3    H236266   6.665   4.113   0.633 -0.3056 -1.7883 -2.1989
 4903TIP3   OH236267   4.369   2.816   8.570 -0.0055  0.2374  0.6227
 4903TIP3    H136268   4.445   2.758   8.576  0.2547  0.5785  0.6457
 4903TIP3    H236269   4.375   2.854   8.482 -0.3866 -0.0610  0.4664
 4904TIP3   OH236270   4.464   0.617   1.264  0.2002 -0.0395 -0.4490
 4904TIP3    H136271   4.482   0.536   1.216  0.5042  0.4940 -1.2616
 4904TIP3    H236272   4.548   0.661   1.269  0.0182  0.2741 -0.1072
 4905TIP3   OH236273   5.529   0.895   2.086 -0.2676 -0.1992 -0.4931
 4905TIP3    H136274   5.461   0.960   2.070 -1.2280 -1.1125 -0.2691
 4905TIP3    H236275   5.581   0.931   2.157 -1.1050  0.1014 -0.0196
 4906TIP3   OH236276   2.806   3.263   1.929  0.6988 -0.1701  0.2675
 4906TIP3    H136277   2.779   3.343   1.974  0.3043 -1.0631  1.6659
 4906TIP3    H236278   2.724   3.214   1.917  0.8806 -0.2177 -0.9375
 4907TIP3   OH236279   4.472   6.374   1.559 -0.2179 -0.3616 -0.7900
 4907TIP3    H136280   4.533   6.301   1.573 -0.3494 -0.6411 -1.5920
 4907TIP3    H236281   4.486   6.431   1.634  0.2078 -0.9921 -0.3711
 4908TIP3   OH236282   6.398   1.333   1.002 -0.1204  0.4340  0.6569
 4908TIP3    H136283   6.326   1.307   0.944 -0.5543 -2.3385  2.2474
 4908TIP3    H236284   6.364   1.315   1.090  1.7714  1.1563  1.5765
 4909TIP3   OH236285   6.766   5.302   1.538 -0.1272 -0.1284 -0.5683
 4909TIP3    H136286   6.799   5.384   1.502 -1.6345  0.8691  0.2478
 4909TIP3    H236287   6.751   5.320   1.631 -1.8210 -0.8735 -0.6670
 4910TIP3   OH236288   5.730   3.344   8.645 -0.1747 -0.6601  0.1403
 4910TIP3    H136289   5.635   3.326   8.642 -0.1447 -1.0071  1.0504
 4910TIP3    H236290   5.753   3.362   8.554 -1.4576  1.2557  0.1350
 4911TIP3   OH236291   6.280   6.305   1.534  0.0777  0.0639 -0.2552
 4911TIP3    H136292   6.236   6.224   1.560  1.1768 -1.7011 -3.3125
 4911TIP3    H236293   6.373   6.285   1.540  0.3700  0.8128 -1.8093
 4912TIP3   OH236294   3.248   4.573   1.374  0.5064  0.3776 -0.3489
 4912TIP3    H136295   3.297   4.611   1.448 -0.1586  0.4807  0.0497
 4912TIP3    H236296   3.183   4.640   1.353  0.0477 -0.0763 -0.3771
 4913TIP3   OH236297   2.839   2.360   0.113 -0.2854 -0.2981  0.0104
 4913TIP3    H136298   2.867   2.289   0.056  0.0402 -0.4135  0.3129
 4913TIP3    H236299   2.747   2.341   0.131 -0.4370 -0.1789 -0.5951
 4914TIP3   OH236300   5.226   5.362   8.625 -0.3702 -0.5803 -0.3110
 4914TIP3    H136301   5.321   5.359   8.613 -0.2870 -2.9328  0.3540
 4914TIP3    H236302   5.190   5.361   8.537  0.2377 -1.0739 -0.5610
 4915TIP3   OH236303   3.512   1.057   7.430  0.3744  0.1325  0.2256
 4915TIP3    H136304   3.501   1.123   7.361 -1.1804  2.1134  2.2547
 4915TIP3    H236305   3.514   0.974   7.382  1.3847  1.5117 -2.3566
 4916TIP3   OH236306   4.188   1.215   8.022 -0.4601 -0.3964 -0.0641
 4916TIP3    H136307   4.210   1.178   8.107  1.1410  0.3171 -0.1222
 4916TIP3    H236308   4.150   1.300   8.042  1.5002  0.5365 -0.0429
 4917TIP3   OH236309   0.585   6.269   8.635 -0.0409 -0.5918 -0.3448
 4917TIP3    H136310   0.665   6.276   8.584  0.5491 -1.1498  0.4719
 4917TIP3    H236311   0.518   6.309   8.580  0.7880 -0.1217 -1.0490
 4918TIP3   OH236312   3.344   0.556   7.836  0.1238  0.2523 -1.0540
 4918TIP3    H136313   3.281   0.596   7.896  1.0043 -0.9709  0.8293
 4918TIP3    H236314   3.406   0.625   7.815  0.8768  0.3064  1.0700
 4919TIP3   OH236315   1.596   1.170   1.923  0.1373  0.0926 -0.0386
 4919TIP3    H136316   1.553   1.189   2.007  0.2120  2.1213 -0.4063
 4919TIP3    H236317   1.535   1.112   1.878 -0.0166 -0.8466  1.3038
 4920TIP3   OH236318   6.550   4.197   2.935  0.4306 -0.2000  0.5410
 4920TIP3    H136319   6.533   4.291   2.934 -1.4027 -0.5076  0.9477
 4920TIP3    H236320   6.646   4.191   2.928  0.6651  1.6997  1.3845
 4921TIP3   OH236321   5.491   0.879   0.713  0.3293 -0.1309  1.0259
 4921TIP3    H136322   5.422   0.814   0.729  1.0215 -0.4579  2.8977
 4921TIP3    H236323   5.475   0.948   0.776  0.2900  0.9911 -0.1822
 4922TIP3   OH236324   3.384   1.094   0.140 -0.1866 -0.0749  0.1001
 4922TIP3    H136325   3.379   1.066   0.231  1.6509 -0.7294  0.0394
 4922TIP3    H236326   3.478   1.095   0.120 -0.5125  0.6595 -1.6035
 4923TIP3   OH236327   2.699   5.048   0.239  0.5358 -0.2102  0.2171
 4923TIP3    H136328   2.728   5.123   0.188  2.4454 -0.3603  0.9766
 4923TIP3    H236329   2.721   5.070   0.330 -2.0097 -0.2947  0.9266
 4924TIP3   OH236330   6.794   5.020   0.964  0.7036 -0.3591 -0.4678
 4924TIP3    H136331   6.783   5.114   0.974  0.3792 -0.6580  3.7611
 4924TIP3    H236332   6.712   4.982   0.995  1.5091 -2.0335 -0.2572
 4925TIP3   OH236333   1.692   2.807   6.953 -0.3387 -0.3844 -0.0199
 4925TIP3    H136334   1.596   2.805   6.954 -0.3469 -0.2824  0.8662
 4925TIP3    H236335   1.717   2.781   7.042  0.4901 -1.3848 -0.5235
 4926TIP3   OH236336   4.600   5.937   7.134  0.7103 -0.4466 -0.3978
 4926TIP3    H136337   4.514   5.950   7.173 -0.1908 -3.4001 -1.1529
 4926TIP3    H236338   4.609   6.008   7.071 -1.4989 -0.4627 -0.8094
 4927TIP3   OH236339   5.835   6.219   8.752 -0.5166  0.3072  0.1589
 4927TIP3    H136340   5.892   6.296   8.748 -1.7448  1.3457  1.7847
 4927TIP3    H236341   5.869   6.168   8.825 -0.1230 -0.4090 -0.4989
 4928TIP3   OH236342   0.139   4.377   0.390 -0.4671 -0.0918  0.0679
 4928TIP3    H136343   0.114   4.448   0.331  0.6875 -0.8621 -1.4142
 4928TIP3    H236344   0.081   4.304   0.366  0.6060 -0.6927 -0.7826
 4929TIP3   OH236345   2.729   1.421   8.012 -0.1122  0.0512  0.1935
 4929TIP3    H136346   2.656   1.363   7.990 -1.5717  1.5585  0.8098
 4929TIP3    H236347   2.771   1.439   7.928  0.4317 -1.9101  0.0048
 4930TIP3   OH236348   2.212   0.793   7.271  0.8707  0.1957  0.0219
 4930TIP3    H136349   2.264   0.874   7.273  1.6291 -0.2485 -0.9236
 4930TIP3    H236350   2.135   0.817   7.219  0.2348  0.7758  1.1898
 4931TIP3   OH236351   5.083   5.872   7.839 -0.0122 -0.5962  0.0853
 4931TIP3    H136352   4.993   5.874   7.808 -0.5784  0.0570  1.6834
 4931TIP3    H236353   5.129   5.933   7.780 -0.0644 -2.5761 -2.1534
 4932TIP3   OH236354   3.673   4.670   1.979 -0.1782  0.1934  0.4412
 4932TIP3    H136355   3.733   4.612   2.027 -2.2437 -0.7528  2.0136
 4932TIP3    H236356   3.664   4.630   1.893  2.7208  1.3064 -0.5087
 4933TIP3   OH236357   2.545   3.274   0.352  0.7018 -0.4653  0.1432
 4933TIP3    H136358   2.511   3.185   0.365 -0.3692 -0.0571  0.2461
 4933TIP3    H236359   2.536   3.317   0.437  1.4645 -0.3308  0.1628
 4934TIP3   OH236360   5.527   5.416   8.547  0.1374 -0.0679 -0.4716
 4934TIP3    H136361   5.516   5.329   8.584 -0.3740  0.9194  1.8818
 4934TIP3    H236362   5.593   5.458   8.604  0.8504  0.8897 -1.9357
 4935TIP3   OH236363   2.527   2.816   0.696  0.6896 -0.5998 -0.0380
 4935TIP3    H136364   2.564   2.897   0.732  0.8541 -0.4506 -0.5414
 4935TIP3    H236365   2.596   2.782   0.640  1.3460 -2.0459  1.5512
 4936TIP3   OH236366   2.028   1.434   1.449 -0.3095 -0.0208 -0.0378
 4936TIP3    H136367   2.109   1.471   1.413  0.6257 -1.4387  0.4647
 4936TIP3    H236368   2.038   1.444   1.544 -0.1558 -1.2105  0.0948
 4937TIP3   OH236369   2.822   6.215   1.514 -0.1006  0.5965 -0.9038
 4937TIP3    H136370   2.886   6.200   1.444 -0.2551  0.4486 -1.0130
 4937TIP3    H236371   2.744   6.167   1.487  0.1355 -0.2088 -0.2067
 4938TIP3   OH236372   1.815   0.608   7.129  0.6251  0.2759 -0.1629
 4938TIP3    H136373   1.857   0.554   7.196 -0.6307  1.0407  1.2793
 4938TIP3    H236374   1.721   0.590   7.139 -0.0001  3.7053  1.3230
 4939TIP3   OH236375   6.431   6.326   2.237  0.3084  0.2160 -0.2831
 4939TIP3    H136376   6.485   6.385   2.289 -0.7427  0.2849  0.7691
 4939TIP3    H236377   6.411   6.376   2.157  0.2533  0.8977  0.1516
 4940TIP3   OH236378   3.884   5.797   0.118  0.2844  0.1582  0.3578
 4940TIP3    H136379   3.821   5.730   0.090  1.4010 -0.8538  0.1668
 4940TIP3    H236380   3.845   5.880   0.091 -1.1355 -0.4003  0.5904
 4941TIP3   OH236381   3.258   4.573   0.904 -0.2405  0.7695  0.2779
 4941TIP3    H136382   3.234   4.543   0.992 -0.1208  0.5122  0.2232
 4941TIP3    H236383   3.270   4.492   0.854  0.5681  0.8974  0.2566
 4942TIP3   OH236384   1.576   6.253   1.033 -0.0835  0.3515 -0.0086
 4942TIP3    H136385   1.641   6.185   1.049  0.3405  0.2681 -1.8533
 4942TIP3    H236386   1.530   6.263   1.116  0.4199 -1.5764  0.5426
 4943TIP3   OH236387   1.594   1.547   2.002  0.2483  0.4390  0.5974
 4943TIP3    H136388   1.535   1.589   1.941  1.2486 -0.1999 -0.8573
 4943TIP3    H236389   1.546   1.547   2.086 -1.1839  1.2278 -0.1900
 4944TIP3   OH236390   4.479   3.652   8.598  0.2175  0.3937  0.1214
 4944TIP3    H136391   4.542   3.593   8.556  0.2662  0.0598  0.6520
 4944TIP3    H236392   4.394   3.621   8.567  0.2983  0.7950 -0.5323
 4945TIP3   OH236393   5.283   5.048   8.488  0.4806  0.1662 -0.2248
 4945TIP3    H136394   5.313   4.958   8.477  0.3061  0.0965 -0.1358
 4945TIP3    H236395   5.306   5.091   8.406 -0.8390 -0.3535 -0.8932
 4946TIP3   OH236396   6.064   1.656   0.144  0.2896  0.2580 -0.2719
 4946TIP3    H136397   6.110   1.693   0.219  1.6003 -0.7172 -0.5552
 4946TIP3    H236398   5.971   1.664   0.165  0.6351 -0.7304  1.8158
 4947TIP3   OH236399   1.592   5.682   1.106  0.1114  0.5116 -0.2589
 4947TIP3    H136400   1.650   5.606   1.105 -1.3939 -0.6990  0.0738
 4947TIP3    H236401   1.567   5.694   1.015 -0.0794  0.2497 -0.2424
 4948TIP3   OH236402   5.441   3.353   0.457 -0.0214  0.3392  0.1439
 4948TIP3    H136403   5.419   3.368   0.549 -1.2344 -1.8769  0.3000
 4948TIP3    H236404   5.506   3.283   0.459  1.1827  1.3884 -0.6664
 4949TIP3   OH236405   0.586   6.569   1.933  0.1630  0.0278  0.2149
 4949TIP3    H136406   0.668   6.535   1.969  0.4693  1.0585  0.5046
 4949TIP3    H236407   0.523   6.498   1.949  1.2771 -1.3757 -1.3059
 4950TIP3   OH236408   3.378   6.636   8.659 -0.6776 -0.2356 -0.4333
 4950TIP3    H136409   3.361   6.730   8.665 -1.6504 -0.4786  1.2743
 4950TIP3    H236410   3.424   6.625   8.576 -2.8745  1.4215 -1.9725
 4951TIP3   OH236411   2.422   2.796   0.929 -0.0382 -0.3040  0.3453
 4951TIP3    H136412   2.459   2.800   0.841  1.0561  1.2574  0.8393
 4951TIP3    H236413   2.496   2.773   0.986 -0.2788  0.6445  1.0783
 4952TIP3   OH236414   4.612   3.602   1.538 -0.4992 -1.1506  0.3804
 4952TIP3    H136415   4.606   3.625   1.631  0.2163  1.6634 -0.1861
 4952TIP3    H236416   4.521   3.601   1.508 -0.6249 -0.0289  0.6916
 4953TIP3   OH236417   2.951   4.213   8.757  0.2809  0.0158  0.0218
 4953TIP3    H136418   3.011   4.202   8.682  0.0602  0.6351 -0.2536
 4953TIP3    H236419   2.999   4.269   8.818 -0.4036  1.4239 -0.6731
 4954TIP3   OH236420   0.507   4.549   8.326 -0.6105 -0.2187  0.0062
 4954TIP3    H136421   0.500   4.511   8.414 -0.6912 -1.6697 -0.5914
 4954TIP3    H236422   0.547   4.634   8.340  0.3547 -0.8511  1.3486
 4955TIP3   OH236423   0.156   5.445   0.138  0.2165  0.0082 -0.2262
 4955TIP3    H136424   0.154   5.463   0.044 -0.6665  0.4278 -0.1372
 4955TIP3    H236425   0.232   5.389   0.150  0.9866  0.8349 -1.0334
 4956TIP3   OH236426   3.895   6.416   7.829  0.0848 -0.4058  0.4243
 4956TIP3    H136427   3.914   6.356   7.757  1.2047  0.1413  0.2374
 4956TIP3    H236428   3.981   6.443   7.861 -0.4002  0.3326  1.1494
 4957TIP3   OH236429   6.519   5.961   2.917  0.4849  0.2822  0.1214
 4957TIP3    H136430   6.467   6.019   2.861  1.1091  1.2609  0.5374
 4957TIP3    H236431   6.594   6.014   2.944 -0.2136  0.1645  2.5924
 4958TIP3   OH236432   4.431   3.050   1.641  0.3960 -0.1620 -0.2855
 4958TIP3    H136433   4.452   3.020   1.552  1.2288 -0.5727  0.0347
 4958TIP3    H236434   4.516   3.070   1.680  0.0312  0.0759  0.4011
 4959TIP3   OH236435   4.144   5.496   2.822 -0.0099  0.2908  0.2212
 4959TIP3    H136436   4.050   5.493   2.802  0.1476  0.1533 -0.5357
 4959TIP3    H236437   4.164   5.589   2.832  0.4169  0.6279 -2.9299
 4960TIP3   OH236438   2.966   1.668   7.498 -0.0003 -0.5590 -0.0844
 4960TIP3    H136439   3.027   1.601   7.529 -0.1950  0.6938  3.4752
 4960TIP3    H236440   3.011   1.711   7.425  1.9616 -1.7365  0.3857
 4961TIP3   OH236441   3.098   6.565   7.783 -0.3345 -0.4040  0.3780
 4961TIP3    H136442   3.099   6.660   7.796 -0.7742 -0.4137  0.4876
 4961TIP3    H236443   3.128   6.554   7.693 -0.5717 -0.1450  0.2664
 4962TIP3   OH236444   0.026   6.099   1.416 -0.2708  0.2960  0.2238
 4962TIP3    H136445   0.029   6.012   1.457  1.0900  0.8286  1.3370
 4962TIP3    H236446   0.061   6.085   1.328  0.4746 -0.2040  0.5868
 4963TIP3   OH236447   4.381   3.046   8.743 -0.3664 -0.1847 -0.2705
 4963TIP3    H136448   4.387   2.986   8.669 -0.0948 -0.1994 -0.2375
 4963TIP3    H236449   4.383   2.990   8.820 -5.2853 -0.6990 -0.1558
 4964TIP3   OH236450   0.847   0.262   0.258 -0.2218 -0.4384 -0.6450
 4964TIP3    H136451   0.809   0.302   0.336 -0.6968  0.1110 -1.1561
 4964TIP3    H236452   0.774   0.250   0.198 -0.1515 -2.3657 -0.3988
 4965TIP3   OH236453   2.102   6.751   0.097  0.4225  0.0653 -0.2911
 4965TIP3    H136454   2.115   6.679   0.158 -0.2000  1.1717  1.1852
 4965TIP3    H236455   2.191   6.774   0.069  0.7307 -0.3663  0.3043
 4966TIP3   OH236456   4.519   6.054   2.227 -0.1200  0.4506 -0.1867
 4966TIP3    H136457   4.592   6.003   2.262 -0.6943  0.8980  1.7693
 4966TIP3    H236458   4.442   5.998   2.238 -0.0669 -0.3037 -2.8663
 4967TIP3   OH236459   0.584   3.387   2.331 -0.5603  0.4019  0.2408
 4967TIP3    H136460   0.578   3.299   2.368 -0.0580  0.5081  0.5838
 4967TIP3    H236461   0.634   3.376   2.250  0.9055  0.5953  1.0899
 4968TIP3   OH236462   1.200   0.628   8.306  0.2927 -0.1494  0.4153
 4968TIP3    H136463   1.293   0.636   8.327 -0.2188  0.5455  2.7191
 4968TIP3    H236464   1.184   0.695   8.240  1.1383  0.7368  1.0924
 4969TIP3   OH236465   2.752   5.651   1.069 -0.4006 -0.1146 -0.3023
 4969TIP3    H136466   2.807   5.581   1.034  2.4341  0.7362  2.0542
 4969TIP3    H236467   2.792   5.731   1.038  0.3715  0.5637  2.1943
 4970TIP3   OH236468   0.230   1.732   2.467  0.2328  0.5625  0.2470
 4970TIP3    H136469   0.299   1.735   2.533  1.9252  1.0584 -1.4718
 4970TIP3    H236470   0.210   1.824   2.448  1.9480  0.5374 -2.0444
 4971TIP3   OH236471   2.203   6.306   8.228 -0.0466 -0.1480 -0.9289
 4971TIP3    H136472   2.248   6.222   8.227 -2.0076 -1.2645 -1.1358
 4971TIP3    H236473   2.127   6.292   8.285 -0.0519  1.7071 -0.3901
 4972TIP3   OH236474   0.675   4.879   8.223 -0.5435  0.3068  0.2925
 4972TIP3    H136475   0.588   4.848   8.199  0.6008 -1.2619 -2.3043
 4972TIP3    H236476   0.725   4.800   8.240  0.9407  1.0102 -0.5902
 4973TIP3   OH236477   4.478   3.609   2.314 -0.5668  0.4517  0.3157
 4973TIP3    H136478   4.480   3.514   2.298  0.1065  0.0880  2.2336
 4973TIP3    H236479   4.527   3.620   2.395  0.0846  2.5658 -0.3038
 4974TIP3   OH236480   6.620   2.959   1.784 -0.1877  0.0197  0.1489
 4974TIP3    H136481   6.596   2.958   1.877 -0.7466  1.6744  0.0636
 4974TIP3    H236482   6.560   3.023   1.745 -1.3227 -2.0752 -1.7585
 4975TIP3   OH236483   5.808   3.586   2.325 -0.1227 -0.4352 -0.3326
 4975TIP3    H136484   5.803   3.509   2.268 -1.1935  0.0692 -0.9508
 4975TIP3    H236485   5.719   3.597   2.358 -0.4722  1.6493 -1.7814
 4976TIP3   OH236486   3.399   5.774   8.013  0.0272  0.3560  0.3708
 4976TIP3    H136487   3.332   5.834   7.981 -0.7658 -0.5013  0.3799
 4976TIP3    H236488   3.439   5.738   7.934  1.4708  1.9169  0.3543
 4977TIP3   OH236489   3.861   4.348   1.113 -0.3683  0.2580  0.4895
 4977TIP3    H136490   3.779   4.396   1.103  0.5265  2.1238  1.5277
 4977TIP3    H236491   3.899   4.345   1.025 -1.0711  0.2669  0.1847
 4978TIP3   OH236492   2.024   3.775   2.054 -0.0609  0.1112  0.6548
 4978TIP3    H136493   2.057   3.748   1.968  0.3788 -0.4771  0.9967
 4978TIP3    H236494   2.017   3.870   2.049 -0.7664  0.0179 -0.2806
 4979TIP3   OH236495   3.700   5.702   1.692  0.2721 -0.1702 -0.5389
 4979TIP3    H136496   3.655   5.645   1.754 -0.2986  1.3887  0.5601
 4979TIP3    H236497   3.647   5.698   1.612 -0.1228 -0.6593 -0.2523
 4980TIP3   OH236498   5.247   3.756   0.848 -0.0343  0.1079  0.6568
 4980TIP3    H136499   5.233   3.739   0.754  1.0257  2.5155 -0.0095
 4980TIP3    H236500   5.164   3.731   0.888 -0.3620 -1.4235 -0.8302
 4981TIP3   OH236501   5.534   2.986   3.190  0.0318 -0.2065 -0.2667
 4981TIP3    H136502   5.523   2.902   3.145  2.3394  0.1087 -1.5919
 4981TIP3    H236503   5.482   3.047   3.139 -0.3943 -0.5443 -0.2419
 4982TIP3   OH236504   2.030   6.645   1.465  0.0524 -0.1953 -0.2716
 4982TIP3    H136505   1.987   6.677   1.544  1.0385 -1.2521  0.7226
 4982TIP3    H236506   2.000   6.555   1.456  1.0377 -0.5307 -0.2972
 4983TIP3   OH236507   0.324   2.782   2.332  0.4243 -0.1305  0.0420
 4983TIP3    H136508   0.234   2.764   2.359  0.6604 -0.2980  0.7256
 4983TIP3    H236509   0.315   2.835   2.253 -0.2725  1.1358  0.9418
 4984TIP3   OH236510   6.814   4.363   2.229 -0.1768 -0.3501 -0.0128
 4984TIP3    H136511   6.812   4.447   2.275  3.0108 -0.9999  1.5755
 4984TIP3    H236512   6.890   4.369   2.171 -1.7491 -1.0805 -2.3001
 4985TIP3   OH236513   4.096   4.762   0.121  0.3400 -0.3576 -0.5407
 4985TIP3    H136514   4.107   4.673   0.090  2.6230 -1.0701  1.9382
 4985TIP3    H236515   4.020   4.759   0.179  0.6649 -0.8216 -0.1309
 4986TIP3   OH236516   4.030   3.171   2.440 -0.4566  0.0012  0.5906
 4986TIP3    H136517   3.987   3.162   2.355 -1.3910  0.1739  1.0309
 4986TIP3    H236518   4.097   3.239   2.426 -0.3237 -0.2608 -0.0992
 4987TIP3   OH236519   1.546   6.486   0.473  0.4000  0.3577 -0.4241
 4987TIP3    H136520   1.515   6.507   0.385 -2.8773  0.6672  0.6596
 4987TIP3    H236521   1.558   6.571   0.516 -1.3927  0.2413  0.4022
 4988TIP3   OH236522   3.030   2.121   8.300 -0.6919  0.1787  0.0578
 4988TIP3    H136523   3.090   2.149   8.232 -0.3549 -1.4484 -0.3676
 4988TIP3    H236524   3.086   2.103   8.375 -0.8492  0.2395  0.1907
 4989TIP3   OH236525   4.161   0.516   8.340 -0.7488  0.5096 -0.4792
 4989TIP3    H136526   4.125   0.428   8.344 -0.5835  0.4475 -0.3815
 4989TIP3    H236527   4.252   0.507   8.367 -0.8031  0.7476 -0.2096
 4990TIP3   OH236528   4.696   4.976   1.473  0.1228 -0.2375  0.0431
 4990TIP3    H136529   4.601   4.968   1.467 -0.1383  1.4207  1.1806
 4990TIP3    H236530   4.710   5.042   1.541  2.1100 -0.8341  0.2810
 4991TIP3   OH236531   4.620   0.086   1.941 -0.5768 -0.0270  0.0286
 4991TIP3    H136532   4.583   0.153   1.998 -4.1888 -1.9760  0.2539
 4991TIP3    H236533   4.622   0.125   1.854  2.0546  1.8964  0.8119
 4992TIP3   OH236534   4.394   6.726   8.571 -0.2204 -0.2770 -0.3899
 4992TIP3    H136535   4.436   6.705   8.654 -1.3453  1.7617  0.7506
 4992TIP3    H236536   4.389   6.642   8.525  2.2948 -1.1059  0.6724
 4993TIP3   OH236537   2.591   5.381   8.471 -0.0999  0.0206 -0.1268
 4993TIP3    H136538   2.622   5.413   8.387  0.2658 -1.6833 -0.6862
 4993TIP3    H236539   2.580   5.459   8.525  1.0926  1.0104 -1.2776
 4994TIP3   OH236540   0.926   1.875   8.339  0.0509 -0.2743 -0.2266
 4994TIP3    H136541   0.871   1.953   8.335  2.1052  1.2408 -0.6836
 4994TIP3    H236542   0.991   1.888   8.270  2.3198 -0.8611  1.6657
 4995TIP3   OH236543   1.381   1.801   0.135  0.4898 -0.4321 -0.0776
 4995TIP3    H136544   1.383   1.890   0.099 -0.5491 -0.3260  0.0758
 4995TIP3    H236545   1.414   1.811   0.225  1.3285 -0.3789 -0.3876
 4996TIP3   OH236546   3.691   4.404   0.188  0.1018  0.2614  0.0384
 4996TIP3    H136547   3.733   4.318   0.190 -0.5859 -0.0996  3.2005
 4996TIP3    H236548   3.598   4.385   0.176  0.0099  0.6028  0.1979
 4997TIP3   OH236549   2.264   6.028   7.901  0.3111  0.2820  0.4162
 4997TIP3    H136550   2.300   6.114   7.879  0.3937  0.4991  1.3894
 4997TIP3    H236551   2.247   6.031   7.995 -1.2043 -0.2189  0.1855
 4998TIP3   OH236552   2.439   4.442   0.529  0.1647 -0.4310 -0.4794
 4998TIP3    H136553   2.412   4.373   0.591 -0.5749  0.7433  0.5433
 4998TIP3    H236554   2.389   4.519   0.556  0.3908  0.3170 -2.0970
 4999TIP3   OH236555   4.539   5.226   7.436  0.4381 -0.3620  0.2576
 4999TIP3    H136556   4.472   5.234   7.368  1.0533  1.7019 -0.1783
 4999TIP3    H236557   4.610   5.177   7.395  1.3981  2.0622 -1.1520
 5000TIP3   OH236558   2.514   1.644   0.497  0.2594 -0.4928 -0.3313
 5000TIP3    H136559   2.472   1.605   0.420  0.0508  1.7860 -1.4883
 5000TIP3    H236560   2.607   1.626   0.486  0.5766  1.8177 -2.5483
 5001TIP3   OH236561   5.018   5.424   1.943 -0.4981 -0.2036 -0.4073
 5001TIP3    H136562   5.060   5.499   1.985 -1.2025 -0.4306  0.7623
 5001TIP3    H236563   5.090   5.371   1.910  0.0841  0.0283  0.4670
 5002TIP3   OH236564   6.122   3.797   1.478  0.1403 -0.3241 -0.0018
 5002TIP3    H136565   6.030   3.819   1.464 -0.2966 -1.4430  0.8898
 5002TIP3    H236566   6.124   3.701   1.474  1.3409 -0.2986 -0.3864
 5003TIP3   OH236567   2.322   4.433   1.250 -0.0102  0.5977 -0.1973
 5003TIP3    H136568   2.349   4.439   1.342 -0.7088  1.0317 -0.0119
 5003TIP3    H236569   2.284   4.519   1.231 -0.1064  0.4212 -0.8207
 5004TIP3   OH236570   5.773   3.181   2.949 -0.5006  0.1209 -0.5502
 5004TIP3    H136571   5.750   3.112   3.011  1.1095 -1.7776 -1.9220
 5004TIP3    H236572   5.837   3.235   2.995 -0.9818  0.0704  0.1824
 5005TIP3   OH236573   6.791   1.007   7.821  0.1590 -0.4219 -0.1063
 5005TIP3    H136574   6.861   1.017   7.757 -0.3023  0.4347 -0.4968
 5005TIP3    H236575   6.835   0.983   7.903  0.8482 -0.4339 -0.4813
 5006TIP3   OH236576   5.788   5.503   8.397  0.5508 -0.2803 -0.0697
 5006TIP3    H136577   5.721   5.435   8.405 -0.3676  0.6750  0.5919
 5006TIP3    H236578   5.778   5.556   8.476  0.0610  1.6521 -1.3475
 5007TIP3   OH236579   5.236   2.825   1.752  0.4289 -0.2847  0.5154
 5007TIP3    H136580   5.283   2.846   1.671  1.0753 -2.0422  0.3956
 5007TIP3    H236581   5.288   2.865   1.821 -0.4061  1.6828  0.0699
 5008TIP3   OH236582   5.137   6.487   7.403 -0.2183  0.4178  0.1051
 5008TIP3    H136583   5.215   6.527   7.363  0.6495  0.4534  1.7530
 5008TIP3    H236584   5.066   6.508   7.343  0.9897  0.5844 -1.3347
 5009TIP3   OH236585   6.076   1.634   2.296  0.2675 -0.0569 -0.2609
 5009TIP3    H136586   5.985   1.652   2.274  0.1096 -1.7109 -1.1594
 5009TIP3    H236587   6.072   1.575   2.372  0.2897 -3.4473 -2.6254
 5010TIP3   OH236588   5.759   2.916   7.539  0.5024  0.6646  0.8876
 5010TIP3    H136589   5.743   2.858   7.465  0.3302  0.5460  1.0169
 5010TIP3    H236590   5.846   2.891   7.572 -0.0892 -0.3746  1.7184
 5011TIP3   OH236591   4.076   3.211   0.466 -0.0332 -0.0867  0.5105
 5011TIP3    H136592   4.030   3.131   0.490  2.1783 -1.2862  1.0008
 5011TIP3    H236593   4.081   3.209   0.371  1.7690 -1.6695  0.5695
 5012TIP3   OH236594   5.922   2.264   7.107 -0.0130 -0.5304 -0.1745
 5012TIP3    H136595   6.001   2.273   7.054 -0.4279 -2.0756 -1.1532
 5012TIP3    H236596   5.852   2.253   7.042 -1.3261  2.3570  0.6088
 5013TIP3   OH236597   2.737   4.460   0.482  0.0962 -0.0526 -0.1175
 5013TIP3    H136598   2.680   4.414   0.544 -3.2423 -0.3642 -3.1056
 5013TIP3    H236599   2.693   4.543   0.465  0.4585 -0.2883 -2.5495
 5014TIP3   OH236600   0.702   2.571   8.616 -0.4371  0.5841  0.0298
 5014TIP3    H136601   0.737   2.640   8.673 -0.6199 -0.3867  1.3556
 5014TIP3    H236602   0.708   2.491   8.668  0.7330 -0.6283 -1.8463
 5015TIP3   OH236603   0.861   1.735   0.927  0.7235  0.2768  0.3366
 5015TIP3    H136604   0.839   1.745   0.835  0.2984  0.0908  0.4135
 5015TIP3    H236605   0.869   1.640   0.940  1.2399  0.3243  0.3892
 5016TIP3   OH236606   5.087   4.692   7.679  0.0266  0.5255 -0.5013
 5016TIP3    H136607   5.110   4.604   7.708  0.7174  1.0171  0.4613
 5016TIP3    H236608   5.137   4.751   7.735  1.0864  1.5315 -2.3740
 5017TIP3   OH236609   3.987   1.646   8.239  0.0283 -0.4955  0.0633
 5017TIP3    H136610   3.950   1.580   8.180 -0.4933 -0.7881  0.7055
 5017TIP3    H236611   3.958   1.619   8.326 -0.0374  0.4838  0.3545
 5018TIP3   OH236612   6.375   5.672   8.757  0.6005  0.5125  0.5976
 5018TIP3    H136613   6.315   5.705   8.690  1.0863 -1.6482 -1.0028
 5018TIP3    H236614   6.323   5.610   8.808  0.8780  0.3113  0.6397
 5019TIP3   OH236615   5.989   5.086   8.642  0.2270 -0.0022 -0.2938
 5019TIP3    H136616   5.937   5.153   8.686 -0.4200 -0.5180 -0.2454
 5019TIP3    H236617   5.969   5.005   8.690  1.5937 -0.1082  0.1547
 5020TIP3   OH236618   5.755   2.021   1.062  0.4769  0.0719  0.1274
 5020TIP3    H136619   5.823   1.955   1.049  1.0914  0.4710  1.2051
 5020TIP3    H236620   5.676   1.981   1.026  0.8019 -1.3433  0.9159
 5021TIP3   OH236621   1.299   5.502   0.956 -0.3567  0.1206 -0.2870
 5021TIP3    H136622   1.215   5.548   0.953 -0.7746 -0.6364 -0.9603
 5021TIP3    H236623   1.283   5.428   1.015  0.3788  0.9513  0.9834
 5022TIP3   OH236624   3.675   5.688   6.855  0.0118  0.0396 -0.1901
 5022TIP3    H136625   3.633   5.756   6.908 -0.1180 -0.5997  0.5401
 5022TIP3    H236626   3.717   5.736   6.784  1.9831  1.1438  1.6206
 5023TIP3   OH236627   0.159   4.661   7.787 -0.1653 -0.7088  0.5310
 5023TIP3    H136628   0.106   4.666   7.708  1.7374 -0.9527 -0.8430
 5023TIP3    H236629   0.214   4.584   7.774 -0.6231 -1.4577  2.6694
 5024TIP3   OH236630   6.216   4.853   1.058  0.1120 -0.4728  0.1651
 5024TIP3    H136631   6.207   4.788   1.127  0.6020 -2.4183 -1.5145
 5024TIP3    H236632   6.231   4.936   1.104  0.2686 -1.6664  2.3562
 5025TIP3   OH236633   3.364   2.675   0.211 -0.1530  0.3669  0.0609
 5025TIP3    H136634   3.304   2.749   0.226 -1.6458 -0.6516 -0.5942
 5025TIP3    H236635   3.357   2.657   0.117 -2.4975 -2.6720  0.6426
 5026TIP3   OH236636   0.451   5.962   7.929  0.5690 -0.1641  0.1706
 5026TIP3    H136637   0.432   6.019   7.855  0.3261 -0.0709  0.3031
 5026TIP3    H236638   0.546   5.966   7.939  0.6935 -0.8630 -0.6828
 5027TIP3   OH236639   6.190   6.459   0.337 -0.5838  0.0934 -0.1005
 5027TIP3    H136640   6.134   6.383   0.352 -0.1215 -0.6631 -1.9778
 5027TIP3    H236641   6.274   6.422   0.310 -0.5770  1.2429 -1.7985
 5028TIP3   OH236642   5.640   2.357   7.692 -0.0315  0.1070  0.2844
 5028TIP3    H136643   5.651   2.263   7.711  0.5802 -0.1268 -1.1020
 5028TIP3    H236644   5.727   2.387   7.666 -0.8401  0.1645 -2.8106
 5029TIP3   OH236645   5.111   6.684   7.823 -0.1069  0.0697 -0.2991
 5029TIP3    H136646   5.024   6.691   7.862  0.0568 -0.0736  0.0971
 5029TIP3    H236647   5.104   6.732   7.741  0.5309  3.6414  1.5475
 5030TIP3   OH236648   2.075   5.303   7.860 -1.1791  0.4273 -0.1029
 5030TIP3    H136649   2.118   5.282   7.777 -2.6770  2.2993 -1.4585
 5030TIP3    H236650   2.033   5.221   7.887 -2.0989  0.1629 -2.1429
 5031TIP3   OH236651   1.975   6.499   8.664 -0.2721  0.2883 -0.2551
 5031TIP3    H136652   1.934   6.552   8.732  0.6855  0.8146 -0.0773
 5031TIP3    H236653   1.924   6.519   8.585 -1.1930 -0.0979  0.2184
 5032TIP3   OH236654   0.304   6.504   6.761 -0.3810 -0.0789  0.1305
 5032TIP3    H136655   0.307   6.469   6.850 -0.0122 -0.6176 -0.0878
 5032TIP3    H236656   0.309   6.427   6.705  0.0548  0.2977 -0.3597
 5033TIP3   OH236657   5.188   3.232   0.564 -0.2016 -0.0878  0.0566
 5033TIP3    H136658   5.182   3.139   0.545 -1.2698 -0.2226  0.8853
 5033TIP3    H236659   5.204   3.274   0.480  0.1611 -1.0146 -0.3381
 5034TIP3   OH236660   4.466   3.335   2.291  0.2695  0.3779  0.3643
 5034TIP3    H136661   4.486   3.317   2.199 -0.4681  2.0484 -0.1653
 5034TIP3    H236662   4.464   3.249   2.332 -1.6463 -0.6424 -1.6583
 5035TIP3   OH236663   0.563   2.562   0.910  0.4267 -0.0849  0.1491
 5035TIP3    H136664   0.507   2.542   0.985 -0.7156 -0.6756 -0.8226
 5035TIP3    H236665   0.593   2.652   0.925 -0.5226  0.1233  0.8500
 5036TIP3   OH236666   4.874   6.700   0.390 -0.4275  0.2547  0.2255
 5036TIP3    H136667   4.791   6.747   0.384 -0.3946  0.4279  1.0527
 5036TIP3    H236668   4.857   6.630   0.453  0.0371  0.2560  0.3566
 5037TIP3   OH236669   4.578   5.679   8.640 -0.0346  0.0602 -0.3973
 5037TIP3    H136670   4.483   5.671   8.650  0.0574 -2.7710 -0.7383
 5037TIP3    H236671   4.591   5.750   8.578 -1.8162  1.5569  0.8634
 5038TIP3   OH236672   0.629   2.673   7.988 -0.1888  0.8034  0.5395
 5038TIP3    H136673   0.555   2.613   7.993 -0.4609  1.0835 -0.0417
 5038TIP3    H236674   0.666   2.673   8.077  1.1167 -1.8027  0.1088
 5039TIP3   OH236675   3.873   5.414   0.897  0.4612 -0.2389 -0.7877
 5039TIP3    H136676   3.825   5.433   0.817  1.7171 -1.1201 -1.7973
 5039TIP3    H236677   3.947   5.474   0.895  2.2660 -2.3688 -1.9880
 5040TIP3   OH236678   0.219   2.281   2.964  0.1896 -0.2482 -0.3521
 5040TIP3    H136679   0.297   2.238   2.929 -1.1245 -3.2547  0.1929
 5040TIP3    H236680   0.180   2.218   3.023 -2.2786  1.4532  0.0007
 5041TIP3   OH236681   1.880   5.941   7.876 -0.0532  0.4084  0.3102
 5041TIP3    H136682   1.945   5.956   7.945  0.4885 -0.2622 -0.0380
 5041TIP3    H236683   1.892   6.015   7.816  0.1051  0.5037  0.4578
 5042TIP3   OH236684   4.826   5.122   8.691 -0.5619  0.0421  0.8861
 5042TIP3    H136685   4.918   5.117   8.668 -0.4471 -0.0538  1.3762
 5042TIP3    H236686   4.821   5.191   8.758 -0.8588  0.1128  0.7948
 5043TIP3   OH236687   6.518   1.342   8.592  0.2832  0.4554  0.3186
 5043TIP3    H136688   6.565   1.408   8.541  0.1036  0.6858  0.4517
 5043TIP3    H236689   6.426   1.351   8.564  0.3551 -0.1935 -0.1630
 5044TIP3   OH236690   1.425   3.176   8.621  0.2455 -0.4644 -0.1056
 5044TIP3    H136691   1.438   3.113   8.691  0.1542 -2.1168 -1.5169
 5044TIP3    H236692   1.338   3.158   8.587  0.3502  0.1863 -0.7644
 5045TIP3   OH236693   3.778   6.361   1.245  0.0955  0.3199  0.0609
 5045TIP3    H136694   3.829   6.442   1.254  0.6082  0.2462 -1.7094
 5045TIP3    H236695   3.689   6.388   1.266  0.3043  1.3040 -0.2145
 5046TIP3   OH236696   6.661   5.805   7.569  0.5512  0.3133  0.0652
 5046TIP3    H136697   6.739   5.841   7.526 -0.1169 -0.0921 -1.5478
 5046TIP3    H236698   6.596   5.800   7.499 -1.1426  1.2202  1.5129
 5047TIP3   OH236699   2.980   0.120   0.330  0.2062  0.2389 -0.3001
 5047TIP3    H136700   2.973   0.081   0.417  0.2525 -0.3680 -0.5675
 5047TIP3    H236701   3.064   0.166   0.332  0.3758 -0.0722 -0.1432
 5048TIP3   OH236702   0.954   5.584   7.426  0.0779 -1.0518  0.3054
 5048TIP3    H136703   0.976   5.607   7.336 -0.7587  0.2804  0.4142
 5048TIP3    H236704   0.863   5.557   7.422  0.3476 -2.0480  0.5936
 5049TIP3   OH236705   1.764   0.057   8.508 -0.0421  0.2648 -0.1029
 5049TIP3    H136706   1.682   0.106   8.511 -0.5289 -0.3286 -2.0372
 5049TIP3    H236707   1.831   0.124   8.490 -0.6432  0.3487 -2.3050
 5050TIP3   OH236708   6.149   2.385   6.998  0.0181  0.1169 -0.1948
 5050TIP3    H136709   6.170   2.477   6.981  0.0458  0.0674 -0.4190
 5050TIP3    H236710   6.226   2.336   6.969 -0.3344 -0.0488 -0.8732
 5051TIP3   OH236711   0.983   0.140   7.348  0.2025 -0.2370 -0.0597
 5051TIP3    H136712   0.921   0.068   7.338  0.2777 -0.2717 -0.2757
 5051TIP3    H236713   1.064   0.097   7.375  0.0131 -0.1493  0.6723
 5052TIP3   OH236714   1.985   2.442   1.922  0.1711 -0.1201  0.3314
 5052TIP3    H136715   2.017   2.429   1.832 -0.3525  0.8568 -0.0003
 5052TIP3    H236716   2.014   2.363   1.968 -0.5381 -1.1805 -0.9636
 5053TIP3   OH236717   1.626   5.469   6.641  0.0449  0.0315 -0.2675
 5053TIP3    H136718   1.718   5.495   6.634  0.5160 -1.5766 -0.4036
 5053TIP3    H236719   1.580   5.550   6.661  1.5005  0.8555 -0.1141
 5054TIP3   OH236720   0.776   4.420   7.427  0.2490  0.4444 -0.0183
 5054TIP3    H136721   0.744   4.474   7.500  1.8239  2.8863 -0.9989
 5054TIP3    H236722   0.728   4.452   7.351  1.2730  0.5489 -0.6354
 5055TIP3   OH236723   4.200   3.629   7.967  0.2949  0.1949  0.0311
 5055TIP3    H136724   4.241   3.715   7.959  1.4888 -0.3489 -0.0155
 5055TIP3    H236725   4.258   3.570   7.917 -1.1853 -0.4249 -1.0181
 5056TIP3   OH236726   5.993   2.008   0.581 -0.5123  0.7394 -0.7168
 5056TIP3    H136727   6.080   1.998   0.619 -1.4636  0.6281  1.6333
 5056TIP3    H236728   5.934   2.007   0.657 -2.5721  0.6790 -2.2408
 5057TIP3   OH236729   3.372   5.496   1.165 -0.1839  0.5833  0.6011
 5057TIP3    H136730   3.455   5.465   1.130 -0.5715 -0.8210  0.8472
 5057TIP3    H236731   3.396   5.558   1.233  0.6898 -0.1177  0.9555
 5058TIP3   OH236732   5.696   3.479   1.640 -0.0200  0.6071  0.4337
 5058TIP3    H136733   5.748   3.436   1.573  1.5709  0.8368  1.4664
 5058TIP3    H236734   5.643   3.544   1.592  0.7599  0.4693 -0.6335
 5059TIP3   OH236735   1.805   0.264   0.451  0.0454 -0.3943 -0.4140
 5059TIP3    H136736   1.788   0.187   0.397 -0.2329 -0.4818 -0.2080
 5059TIP3    H236737   1.865   0.317   0.399  2.9242 -2.2523  0.7547
 5060TIP3   OH236738   0.054   4.376   7.157  0.1171 -0.3248  0.2797
 5060TIP3    H136739  -0.029   4.371   7.109  0.9568 -1.8410 -1.1253
 5060TIP3    H236740   0.113   4.421   7.096  0.2164  1.3270  1.5200
 5061TIP3   OH236741   5.377   1.230   0.086  0.3893 -0.4134 -0.6491
 5061TIP3    H136742   5.360   1.216  -0.007  0.5686  0.0865 -0.7593
 5061TIP3    H236743   5.295   1.204   0.130  0.3392 -0.7410 -0.9355
 5062TIP3   OH236744   0.496   5.739   0.457 -0.3370  0.2215  0.6022
 5062TIP3    H136745   0.512   5.801   0.528 -0.5731  0.4387  0.4684
 5062TIP3    H236746   0.401   5.725   0.458 -0.1779 -0.8802  1.2503
 5063TIP3   OH236747   6.336   3.540   0.086  0.8118 -0.0396  0.4267
 5063TIP3    H136748   6.295   3.513   0.168 -1.1735 -1.2493 -0.8797
 5063TIP3    H236749   6.429   3.520   0.098  0.4722 -0.7653  2.1463
 5064TIP3   OH236750   3.906   4.315   7.886  0.1838  0.1688 -0.1452
 5064TIP3    H136751   3.901   4.394   7.833 -2.2477 -0.5373 -1.1002
 5064TIP3    H236752   3.843   4.328   7.956  0.9438 -0.2955  0.6578
 5065TIP3   OH236753   0.587   5.942   6.744  0.1788 -0.1251 -0.1657
 5065TIP3    H136754   0.508   5.896   6.773 -0.6321  1.7221  0.8234
 5065TIP3    H236755   0.638   5.877   6.697 -0.2365 -2.3719  2.2792
 5066TIP3   OH236756   4.066   2.811   1.833  0.4952 -0.4391  0.2968
 5066TIP3    H136757   4.053   2.719   1.853 -0.1129 -0.2539  0.7705
 5066TIP3    H236758   3.978   2.845   1.818  0.8090 -0.2708 -1.4085
 5067TIP3   OH236759   0.467   2.972   1.452  0.0632 -0.4544 -0.5646
 5067TIP3    H136760   0.449   2.990   1.359  0.0407  0.7015 -0.3428
 5067TIP3    H236761   0.389   2.925   1.482  1.2770 -3.5551 -1.8231
 5068TIP3   OH236762   3.869   2.585   7.832 -0.0320  0.0485  0.1966
 5068TIP3    H136763   3.929   2.618   7.899  0.0636 -0.0130  0.1406
 5068TIP3    H236764   3.924   2.568   7.756  0.1228 -1.3230  0.5771
 5069TIP3   OH236765   1.172   0.665   0.230 -0.3597  0.4801 -0.2290
 5069TIP3    H136766   1.230   0.604   0.184  0.9593 -0.4457  2.4213
 5069TIP3    H236767   1.182   0.748   0.183  0.8196 -0.3961 -1.6102
 5070TIP3   OH236768   2.303   1.402   1.994  0.0351  0.4489  0.0648
 5070TIP3    H136769   2.315   1.487   1.952 -0.8180 -0.1002 -1.3994
 5070TIP3    H236770   2.214   1.404   2.028  0.8249  0.9952  2.2050
 5071TIP3   OH236771   2.591   3.283   8.754 -0.5532  0.0729 -0.2489
 5071TIP3    H136772   2.525   3.322   8.697  0.8129 -0.6248 -2.3856
 5071TIP3    H236773   2.581   3.331   8.837 -3.2244  0.4699 -0.6938
 5072TIP3   OH236774   4.650   1.793   0.074  0.0967  0.1485  0.5981
 5072TIP3    H136775   4.636   1.837  -0.010  0.5439  1.3429  1.1350
 5072TIP3    H236776   4.689   1.709   0.050  1.1920  0.8967 -0.3576
 5073TIP3   OH236777   3.528   5.807   7.266 -0.5769 -0.7468  0.0723
 5073TIP3    H136778   3.448   5.830   7.313  0.0662 -0.6813  1.1487
 5073TIP3    H236779   3.513   5.717   7.236 -0.8740 -0.9050  0.6759
 5074TIP3   OH236780   5.244   0.808   8.773  0.1628 -0.3225 -0.6705
 5074TIP3    H136781   5.209   0.757   8.700 -1.1941 -0.9687  0.3857
 5074TIP3    H236782   5.225   0.755   8.850 -0.7692  1.5021  0.4146
 5075TIP3   OH236783   3.329   2.949   8.325 -0.6186 -0.0402 -0.3931
 5075TIP3    H136784   3.367   3.023   8.278  1.3008 -0.3845  0.5232
 5075TIP3    H236785   3.244   2.981   8.357 -0.8003  1.0161 -1.8600
 5076TIP3   OH236786   3.144   2.122   0.840  0.0754  0.2349 -0.0561
 5076TIP3    H136787   3.099   2.064   0.778 -1.6328  0.1483  1.1986
 5076TIP3    H236788   3.101   2.207   0.830 -0.2284  0.2171  0.9936
 5077TIP3   OH236789   1.233   4.379   1.383  0.5613 -0.0413 -0.5506
 5077TIP3    H136790   1.140   4.367   1.402  0.5074  0.7418 -0.2965
 5077TIP3    H236791   1.243   4.473   1.369  1.5548  0.0811  0.7772
 5078TIP3   OH236792   6.823   6.308   2.409 -0.3666  0.1063  0.3552
 5078TIP3    H136793   6.838   6.395   2.444  1.3773  0.6956 -1.6114
 5078TIP3    H236794   6.911   6.270   2.400 -0.5688  0.1134 -3.3461
 5079TIP3   OH236795   0.356   6.116   7.687  0.0593 -0.1632  0.4632
 5079TIP3    H136796   0.310   6.187   7.730 -0.8265 -0.0832 -0.5730
 5079TIP3    H236797   0.424   6.159   7.635  0.1506 -0.1528  0.5900
 5080TIP3   OH236798   1.690   6.254   7.814  0.1567 -0.3029 -0.8011
 5080TIP3    H136799   1.655   6.248   7.903  0.5852 -1.7170 -0.7019
 5080TIP3    H236800   1.785   6.253   7.825  0.2168  0.0114 -1.2612
 5081TIP3   OH236801   2.064   2.093   0.113  0.0777 -0.6169  0.1776
 5081TIP3    H136802   2.070   2.085   0.208  0.6648 -2.6697  0.0245
 5081TIP3    H236803   1.971   2.079   0.094 -0.1811  0.6074  0.4846
 5082TIP3   OH236804   0.369   0.528   7.654  0.1743  0.5628 -0.2537
 5082TIP3    H136805   0.447   0.492   7.696 -0.3469  0.6460  0.8141
 5082TIP3    H236806   0.380   0.508   7.561  0.9605 -0.3568  0.0263
 5083TIP3   OH236807   1.879   0.886   0.738 -0.3938 -0.3034 -0.5065
 5083TIP3    H136808   1.947   0.835   0.783 -0.1030  1.5683  1.3424
 5083TIP3    H236809   1.902   0.881   0.645  0.3679 -2.3661 -0.2488
 5084TIP3   OH236810   3.019   1.781   8.124  0.3090 -0.2143  0.6247
 5084TIP3    H136811   3.094   1.839   8.140 -0.6708  1.7360 -1.2644
 5084TIP3    H236812   3.047   1.726   8.051  0.2320 -0.1798  0.5704
 5085TIP3   OH236813   3.970   6.815   7.610  0.2239  0.2538  0.3353
 5085TIP3    H136814   4.002   6.899   7.578  0.1318 -0.7304 -2.6397
 5085TIP3    H236815   4.023   6.796   7.688  1.7266  2.0312 -0.2029
 5086TIP3   OH236816   0.921   5.407   8.291 -0.0825  0.4586  0.4025
 5086TIP3    H136817   1.004   5.390   8.336  0.0755  0.1132 -0.0065
 5086TIP3    H236818   0.854   5.381   8.354  0.0735  2.1539  1.3073
 5087TIP3   OH236819   3.822   5.977   8.520  0.2969 -0.6006  0.4674
 5087TIP3    H136820   3.835   6.072   8.512  0.5065 -0.5294  1.4911
 5087TIP3    H236821   3.795   5.949   8.433  2.2221  0.0926 -0.4193
 5088TIP3   OH236822   0.997   2.600   2.506  0.7931  0.3228  0.4691
 5088TIP3    H136823   1.007   2.512   2.470 -0.9040 -0.2119  1.2146
 5088TIP3    H236824   0.994   2.587   2.600 -3.3111  0.6226  0.5446
 5089TIP3   OH236825   1.503   0.293   7.731  0.3893  0.3113 -0.0546
 5089TIP3    H136826   1.427   0.279   7.674  0.0060  3.0833 -0.3317
 5089TIP3    H236827   1.472   0.355   7.797  1.4715 -1.1307  1.9111
 5090TIP3   OH236828   4.892   1.639   0.282  0.9884 -0.0201  0.0852
 5090TIP3    H136829   4.960   1.593   0.234 -0.7391  0.2226 -2.8368
 5090TIP3    H236830   4.927   1.727   0.297  1.2435  0.1888 -1.6139
 5091TIP3   OH236831   2.254   3.367   7.585  0.3781  0.9104 -0.2349
 5091TIP3    H136832   2.344   3.363   7.553  0.5832  1.8544  0.1935
 5091TIP3    H236833   2.200   3.350   7.507  0.8653  3.0579 -1.1229
 5092TIP3   OH236834   4.303   3.405   1.069 -0.1095  0.1881  0.2276
 5092TIP3    H136835   4.278   3.482   1.018  0.3322 -0.5200 -1.0984
 5092TIP3    H236836   4.234   3.397   1.135 -1.1570  0.6487 -0.7745
 5093TIP3   OH236837   2.071   3.152   8.745  0.9138  0.1051 -0.0536
 5093TIP3    H136838   2.116   3.073   8.716  2.9812  0.9465  0.7173
 5093TIP3    H236839   2.061   3.204   8.665  1.1159 -0.1778 -0.2643
 5094TIP3   OH236840   5.689   0.906   0.037  0.2031  0.3891  0.7842
 5094TIP3    H136841   5.673   0.831  -0.020 -1.9889  1.0638  0.4087
 5094TIP3    H236842   5.623   0.898   0.106 -0.0509  1.9298  0.7512
 5095TIP3   OH236843   6.295   2.917   0.395 -0.3349 -1.1642 -0.3834
 5095TIP3    H136844   6.263   2.982   0.334 -2.3110 -2.2479 -0.5860
 5095TIP3    H236845   6.330   2.847   0.340 -0.0964 -1.1817 -0.2132
 5096TIP3   OH236846   4.741   1.272   0.662  0.0914  0.0882  0.3987
 5096TIP3    H136847   4.776   1.183   0.667 -1.4892 -0.5617  0.6467
 5096TIP3    H236848   4.766   1.304   0.576  0.7323 -0.5786  0.3362
 5097TIP3   OH236849   2.620   4.546   2.459  0.6754 -0.7898 -0.1608
 5097TIP3    H136850   2.661   4.523   2.543  0.8780 -0.4719 -0.1721
 5097TIP3    H236851   2.570   4.468   2.435  0.1329 -0.6766  0.5525
 5098TIP3   OH236852   6.395   0.949   7.695 -0.1126  0.4693 -0.1701
 5098TIP3    H136853   6.350   0.957   7.779  1.5664 -0.1731  0.8461
 5098TIP3    H236854   6.347   0.882   7.647  0.6494 -1.3476  1.5113
 5099TIP3   OH236855   2.173   4.074   0.272 -0.0197 -0.0125  0.4898
 5099TIP3    H136856   2.153   3.990   0.230 -0.2102  0.8185 -1.1430
 5099TIP3    H236857   2.194   4.133   0.200  0.3166  1.3056  1.6251
 5100TIP3   OH236858   4.145   5.589   1.569  0.2491  0.0349 -0.0117
 5100TIP3    H136859   4.176   5.527   1.635 -2.5346 -1.8507 -0.2875
 5100TIP3    H236860   4.096   5.655   1.619  0.2068 -0.0039 -0.0020
 5101TIP3   OH236861   6.726   4.393   7.720 -1.0353  0.2391 -0.3474
 5101TIP3    H136862   6.715   4.351   7.805  0.8947  0.9429  0.3272
 5101TIP3    H236863   6.698   4.484   7.735  1.0389  0.8646  0.1441
 5102TIP3   OH236864   2.663   2.903   1.573  1.0884 -0.6733  0.4674
 5102TIP3    H136865   2.698   2.934   1.490  1.8891 -1.1896  0.6085
 5102TIP3    H236866   2.574   2.873   1.552  0.6718  0.7218  0.1265
 5103TIP3   OH236867   0.895   6.495   8.555 -0.1157 -0.1623 -0.5514
 5103TIP3    H136868   0.867   6.407   8.526 -0.4638 -0.4984  0.7616
 5103TIP3    H236869   0.824   6.553   8.526 -1.2126 -0.7117  0.8798
 5104TIP3   OH236870   0.447   4.618   1.576  0.9511 -0.3371  0.7705
 5104TIP3    H136871   0.419   4.541   1.625 -1.2717  0.8151  1.4295
 5104TIP3    H236872   0.379   4.632   1.511  1.0150  1.3565  1.0188
 5105TIP3   OH236873   4.442   6.265   8.653 -0.2281 -0.0335 -0.2403
 5105TIP3    H136874   4.438   6.254   8.748  1.2859 -0.0136 -0.1482
 5105TIP3    H236875   4.467   6.178   8.620  1.4673  0.4889 -0.4065
 5106TIP3   OH236876   2.031   4.435   6.938  0.0374 -0.0329  0.0721
 5106TIP3    H136877   1.973   4.503   6.973  0.2587  0.7970 -1.0897
 5106TIP3    H236878   2.118   4.459   6.970  0.5799  1.8938 -2.5002
 5107TIP3   OH236879   6.794   1.004   0.953  0.1884 -0.1346  0.8439
 5107TIP3    H136880   6.764   0.915   0.934  0.7762  0.0649 -1.2108
 5107TIP3    H236881   6.724   1.061   0.920 -0.3058  0.2201  2.3761
 5108TIP3   OH236882   4.938   5.740   1.162 -0.1516 -0.6870 -0.3465
 5108TIP3    H136883   4.894   5.762   1.080  1.2918 -1.2650 -1.3204
 5108TIP3    H236884   5.020   5.698   1.135  0.3588 -0.9044  1.3961
 5109TIP3   OH236885   5.292   6.389   2.135 -0.1013  0.5226 -0.6749
 5109TIP3    H136886   5.334   6.377   2.050 -1.7757  0.3510 -1.5133
 5109TIP3    H236887   5.310   6.481   2.157 -0.0494  0.7022 -1.4276
 5110TIP3   OH236888   6.567   3.286   8.016 -0.0520 -0.0419  0.7371
 5110TIP3    H136889   6.606   3.314   7.933  1.3338 -2.4689  0.4802
 5110TIP3    H236890   6.569   3.365   8.071 -0.1616  1.3784 -1.2027
 5111TIP3   OH236891   1.105   6.657   8.537 -1.1487 -0.1573 -0.6563
 5111TIP3    H136892   1.054   6.578   8.552 -0.4411 -0.6362 -0.7328
 5111TIP3    H236893   1.171   6.658   8.607 -1.4215  0.5989 -0.3932
 5112TIP3   OH236894   6.683   6.207   0.632  0.2092  0.4239  0.0016
 5112TIP3    H136895   6.631   6.281   0.601  0.3133  1.0756  1.3108
 5112TIP3    H236896   6.621   6.151   0.678  0.4539  0.6204  0.5743
 5113TIP3   OH236897   3.235   2.323   1.086  0.1101 -0.0638  0.1087
 5113TIP3    H136898   3.222   2.412   1.116  3.1443  0.1455  1.1471
 5113TIP3    H236899   3.327   2.320   1.058  0.2630 -2.9708  0.5964
 5114TIP3   OH236900   5.335   2.518   1.579 -0.1153 -0.2204 -0.1500
 5114TIP3    H136901   5.410   2.575   1.562 -0.0854 -0.1653  0.1527
 5114TIP3    H236902   5.337   2.454   1.508  0.1241 -0.1238 -0.2316
 5115TIP3   OH236903   2.983   5.709   8.715 -0.0630  0.0345 -0.1523
 5115TIP3    H136904   2.958   5.721   8.806 -1.1753 -0.0994 -0.4215
 5115TIP3    H236905   2.914   5.654   8.678  0.3139  0.1696 -1.1012
 5116TIP3   OH236906   0.999   3.786   1.577  0.1321 -0.0619  0.0140
 5116TIP3    H136907   0.966   3.807   1.489 -0.3300  1.0534  0.4360
 5116TIP3    H236908   1.010   3.871   1.619  2.4206 -0.4338  0.3247
 5117TIP3   OH236909   5.354   1.798   0.168  0.2194 -0.5938 -0.5978
 5117TIP3    H136910   5.372   1.891   0.162  1.0507 -0.7064 -0.0836
 5117TIP3    H236911   5.432   1.756   0.131  1.0964 -1.1157  1.7029
 5118TIP3   OH236912   6.466   6.667   0.489  0.0111  0.0799  0.4650
 5118TIP3    H136913   6.470   6.763   0.487  0.2716  0.0683  0.2262
 5118TIP3    H236914   6.428   6.643   0.404  0.0759 -0.0318  0.4676
 5119TIP3   OH236915   5.478   2.692   2.514  0.5798 -0.1348 -0.4209
 5119TIP3    H136916   5.502   2.676   2.605 -0.8660  0.4925  0.1039
 5119TIP3    H236917   5.383   2.705   2.517 -0.1276 -3.5322 -2.4551
 5120TIP3   OH236918   4.455   3.157   7.827 -0.0969  0.2579 -0.1217
 5120TIP3    H136919   4.397   3.170   7.903 -1.4902 -2.3512 -0.6058
 5120TIP3    H236920   4.396   3.160   7.752  0.4929 -1.4931 -0.7090
 5121TIP3   OH236921   5.119   5.118   8.677  0.3693 -0.2322 -0.5240
 5121TIP3    H136922   5.160   5.204   8.682  0.4190  0.0457 -3.6845
 5121TIP3    H236923   5.179   5.066   8.623  0.0972 -2.1185  0.9137
 5122TIP3   OH236924   6.311   1.457   1.962 -0.3200  0.0848 -0.0316
 5122TIP3    H136925   6.370   1.486   1.892  1.6396 -1.4052  0.9077
 5122TIP3    H236926   6.357   1.480   2.043 -1.9887  0.6862  0.7811
 5123TIP3   OH236927   3.045   1.780   2.510 -0.0868  0.2490 -0.3835
 5123TIP3    H136928   3.003   1.749   2.429 -0.6039 -0.1189  0.0153
 5123TIP3    H236929   3.136   1.750   2.503 -0.5630 -1.4169 -0.0183
 5124TIP3   OH236930   6.483   5.690   7.362 -0.1075  0.0466 -0.2536
 5124TIP3    H136931   6.538   5.742   7.303 -0.5992  2.6040  1.4101
 5124TIP3    H236932   6.535   5.611   7.379  2.0853  1.3563 -0.4647
 5125TIP3   OH236933   1.960   1.278   8.115  0.0860 -0.3543  0.8198
 5125TIP3    H136934   1.887   1.339   8.129  0.6271  0.9527 -1.5336
 5125TIP3    H236935   2.030   1.332   8.078  1.8942 -1.7893  1.9861
 5126TIP3   OH236936   0.770   3.207   2.873  0.1050 -0.0889 -0.2375
 5126TIP3    H136937   0.725   3.291   2.882  0.0911 -0.0600 -0.5505
 5126TIP3    H236938   0.801   3.186   2.961  0.7434  0.6005 -0.2835
 5127TIP3   OH236939   2.130   1.723   2.550 -0.3063 -0.2628 -0.1257
 5127TIP3    H136940   2.175   1.804   2.527  1.4064 -0.6420  1.6414
 5127TIP3    H236941   2.183   1.654   2.508  0.9887 -0.7251  2.1235
 5128TIP3   OH236942   6.508   0.167   7.724 -0.1271 -0.4154 -0.5342
 5128TIP3    H136943   6.533   0.217   7.802 -0.8273  1.1437 -1.2603
 5128TIP3    H236944   6.550   0.082   7.735  0.0444 -0.1244  1.3902
 5129TIP3   OH236945   4.430   4.417   0.694 -0.5388  0.1584  0.2725
 5129TIP3    H136946   4.432   4.355   0.621  1.2871 -0.6710  0.9640
 5129TIP3    H236947   4.380   4.373   0.762  0.7205 -0.5727  0.7468
 5130TIP3   OH236948   2.813   0.379   8.142  0.0023  0.4205 -0.2817
 5130TIP3    H136949   2.780   0.469   8.141 -1.9655 -0.2198  1.2440
 5130TIP3    H236950   2.756   0.332   8.081  0.6618  0.0880 -0.6487
 5131TIP3   OH236951   6.450   5.019   0.418  0.0994 -0.0063  0.0280
 5131TIP3    H136952   6.438   5.099   0.470  0.1726  1.6549 -2.3439
 5131TIP3    H236953   6.513   5.044   0.351 -1.7882 -1.2155 -2.3486
 5132TIP3   OH236954   0.912   6.272   0.813  0.1100 -0.2420  0.3200
 5132TIP3    H136955   0.981   6.337   0.829 -1.6197  2.0832 -1.0293
 5132TIP3    H236956   0.940   6.227   0.734  0.8605 -0.5106  0.7208
 5133TIP3   OH236957   0.779   6.296   7.772 -0.3081  0.1767  0.2974
 5133TIP3    H136958   0.780   6.375   7.827 -1.9697 -0.1452  0.8491
 5133TIP3    H236959   0.692   6.295   7.733 -0.2124 -1.2326  0.0708
 5134TIP3   OH236960   1.297   3.448   8.172  0.4491 -0.0744 -0.1291
 5134TIP3    H136961   1.348   3.382   8.219  0.5592 -1.1434 -1.6691
 5134TIP3    H236962   1.206   3.424   8.186  0.3964  0.7897  1.1507
 5135TIP3   OH236963   2.513   0.078   0.626  0.2806  0.0267 -0.5536
 5135TIP3    H136964   2.482   0.083   0.535 -1.3823 -2.3285 -0.1753
 5135TIP3    H236965   2.592   0.133   0.626  0.5115 -0.1109 -3.4869
 5136TIP3   OH236966   6.819   4.388   8.504  0.5101  0.0484  1.0641
 5136TIP3    H136967   6.854   4.329   8.438  0.6668 -1.1952  2.2008
 5136TIP3    H236968   6.893   4.441   8.532  0.6514 -0.0606  0.8919
 5137TIP3   OH236969   2.029   1.220   0.947  0.5044 -0.2927  0.1645
 5137TIP3    H136970   2.057   1.130   0.960 -0.8049 -0.6709  0.4920
 5137TIP3    H236971   2.032   1.232   0.852 -3.9009 -2.3274 -0.4673
 5138TIP3   OH236972   0.756   2.325   8.034  0.0510 -0.4548 -1.0620
 5138TIP3    H136973   0.823   2.282   7.980 -0.0749 -2.3116  0.1432
 5138TIP3    H236974   0.676   2.320   7.982 -0.1378 -2.4935 -0.6654
 5139TIP3   OH236975   0.096   2.748   2.526 -0.4601 -0.3864 -0.5519
 5139TIP3    H136976   0.008   2.711   2.531 -0.4083 -0.4297  0.1316
 5139TIP3    H236977   0.094   2.822   2.588  0.7052 -1.9176  1.4186
 5140TIP3   OH236978   0.876   6.730   7.281 -0.2431 -0.6307 -0.7336
 5140TIP3    H136979   0.838   6.762   7.198  0.7398 -2.8000 -2.0966
 5140TIP3    H236980   0.952   6.679   7.254  0.8292 -0.3856  1.6397
 5141TIP3   OH236981   2.587   4.737   2.795  0.5727 -0.4672  0.7454
 5141TIP3    H136982   2.672   4.717   2.756  0.6857 -1.0385  1.2776
 5141TIP3    H236983   2.600   4.821   2.839  0.5741 -0.0495 -0.0399
 5142TIP3   OH236984   0.452   5.883   0.771 -0.3869 -0.2247 -0.4220
 5142TIP3    H136985   0.379   5.823   0.790 -0.8403  0.6255  0.6308
 5142TIP3    H236986   0.531   5.830   0.787 -0.7839 -0.6409  0.2029
 5143TIP3   OH236987   4.920   5.071   7.862  0.7413 -0.2243 -0.0383
 5143TIP3    H136988   4.887   5.019   7.935  0.0223  0.5747  0.2196
 5143TIP3    H236989   4.912   5.162   7.891  1.0896  0.0736 -0.8396
 5144TIP3   OH236990   2.845   6.482   2.076 -0.1287  0.1027 -0.4230
 5144TIP3    H136991   2.763   6.531   2.083 -0.4948 -0.5380 -0.1813
 5144TIP3    H236992   2.818   6.390   2.078  0.7520 -0.1675  1.7583
 5145TIP3   OH236993   3.246   0.770   8.241 -0.4299  0.2373  0.4400
 5145TIP3    H136994   3.339   0.778   8.259 -0.9570 -0.7781  4.5541
 5145TIP3    H236995   3.240   0.702   8.173  1.7789 -2.0067  2.3175
 5146TIP3   OH236996   6.805   2.309   7.517  0.2791 -0.0917 -0.2380
 5146TIP3    H136997   6.854   2.243   7.468  0.4555 -0.1507  0.0177
 5146TIP3    H236998   6.720   2.313   7.473 -0.6158 -2.1640  1.1140
 5147TIP3   OH236999   6.006   4.231   1.085  0.1106 -0.2248 -0.7466
 5147TIP3    H137000   5.950   4.308   1.075 -0.8765 -0.9467 -0.9406
 5147TIP3    H237001   5.945   4.158   1.090  0.9909 -0.9260  0.2623
 5148TIP3   OH237002   1.011   6.364   8.111 -0.6663  0.3752  0.0446
 5148TIP3    H137003   1.062   6.297   8.158  0.1528  1.6232  1.0047
 5148TIP3    H237004   1.012   6.335   8.020 -2.0810 -1.9862  0.6853
 5149TIP3   OH237005   0.122   1.728   8.401 -0.2680 -0.5010 -0.3022
 5149TIP3    H137006   0.161   1.804   8.357  0.9989 -0.6967  0.4386
 5149TIP3    H237007   0.091   1.762   8.485  0.5602 -0.8488  0.1524
 5150TIP3   OH237008   2.459   2.841   7.899  0.0008 -0.3026  0.3757
 5150TIP3    H137009   2.373   2.807   7.874  0.3574 -0.3918 -0.7478
 5150TIP3    H237010   2.516   2.764   7.902  0.0685 -0.2379  1.0729
 5151TIP3   OH237011   5.568   6.506   8.005  0.3265  0.4811  0.1227
 5151TIP3    H137012   5.476   6.526   7.986  0.3140  1.8976  1.5036
 5151TIP3    H237013   5.584   6.425   7.957 -2.0395 -0.5803  0.9416
 5152TIP3   OH237014   5.747   4.477   0.145  0.2645 -0.2409  0.3413
 5152TIP3    H137015   5.671   4.482   0.087  0.0504 -0.1132  0.6345
 5152TIP3    H237016   5.711   4.481   0.233  0.8269  4.4187  0.5754
 5153TIP3   OH237017   5.671   1.231   8.196 -0.3680  0.0118  0.2165
 5153TIP3    H137018   5.607   1.162   8.181  0.5750 -0.5812 -1.3825
 5153TIP3    H237019   5.750   1.201   8.152  0.4621  1.5410  0.5663
 5154TIP3   OH237020   6.498   3.201   0.392  0.3868 -0.4372  0.4809
 5154TIP3    H137021   6.402   3.198   0.398  0.4704 -0.3841  4.0687
 5154TIP3    H237022   6.517   3.288   0.358 -0.8148 -0.6712 -0.8660
 5155TIP3   OH237023   4.203   2.065   2.197 -0.4116 -0.0093 -0.0060
 5155TIP3    H137024   4.255   2.116   2.136 -1.1939  1.5815  0.5966
 5155TIP3    H237025   4.260   2.051   2.272 -0.7777  1.6885  0.6345
 5156TIP3   OH237026   0.721   5.206   7.976 -0.2783  0.6956 -0.3738
 5156TIP3    H137027   0.672   5.186   8.056  1.8701 -0.6199  0.7003
 5156TIP3    H237028   0.802   5.246   8.006  0.0426  1.3669 -2.0049
 5157TIP3   OH237029   1.135   4.197   8.360 -0.4866 -0.0041  0.2771
 5157TIP3    H137030   1.187   4.164   8.288 -3.6536 -0.1075 -2.2009
 5157TIP3    H237031   1.064   4.134   8.370 -0.2946  0.1165  3.4430
 5158TIP3   OH237032   3.791   3.639   1.311  0.0367 -0.2990  0.3634
 5158TIP3    H137033   3.712   3.593   1.284 -1.3551  1.2205  1.5497
 5158TIP3    H237034   3.814   3.694   1.236  0.4788 -1.3546 -0.2891
 5159TIP3   OH237035   0.508   2.999   7.584  0.1022 -0.0358  0.4546
 5159TIP3    H137036   0.553   3.080   7.561 -0.5604 -0.1590 -1.4616
 5159TIP3    H237037   0.448   3.023   7.655 -0.4296  1.2869 -0.4110
 5160TIP3   OH237038   0.552   1.868   1.798  0.1270 -0.2683 -0.0381
 5160TIP3    H137039   0.606   1.940   1.829  0.5653 -0.5126 -0.2234
 5160TIP3    H237040   0.571   1.862   1.704  0.5258 -0.9753  0.0747
 5161TIP3   OH237041   4.568   3.402   2.805  0.4646 -0.4997  0.1915
 5161TIP3    H137042   4.590   3.435   2.892  1.1858 -0.3941 -0.0296
 5161TIP3    H237043   4.561   3.307   2.817  2.0538 -0.6527  0.0659
 5162TIP3   OH237044   1.941   5.079   0.649 -0.6824  0.1797  0.0933
 5162TIP3    H137045   1.995   5.156   0.630  1.3868 -1.2368 -0.2045
 5162TIP3    H237046   1.927   5.082   0.744  0.6278  0.2147  0.3146
 5163TIP3   OH237047   4.366   1.540   0.761  0.4685 -0.5598 -0.3677
 5163TIP3    H137048   4.283   1.495   0.744 -0.2324 -0.5599  2.5107
 5163TIP3    H237049   4.424   1.472   0.795  0.3404  0.1010  1.2814
 5164TIP3   OH237050   2.419   6.369   7.595  0.0440 -0.7833 -0.0343
 5164TIP3    H137051   2.328   6.360   7.624 -0.1097  1.8813  0.6378
 5164TIP3    H237052   2.429   6.463   7.580  2.4039 -1.1506 -1.1438
 5165TIP3   OH237053   0.685   0.265   8.285  0.1723 -0.4606  0.6320
 5165TIP3    H137054   0.731   0.335   8.332 -0.6532  0.8512 -0.4752
 5165TIP3    H237055   0.676   0.298   8.196 -0.6789 -1.7791  0.2119
 5166TIP3   OH237056   6.561   4.469   1.894  0.3754  0.3041 -0.1899
 5166TIP3    H137057   6.631   4.446   1.833  0.8565 -0.3019  0.5689
 5166TIP3    H237058   6.536   4.385   1.934 -0.6013  0.5489 -0.2515
 5167TIP3   OH237059   0.234   2.793   2.064  0.2673  0.0912  0.3887
 5167TIP3    H137060   0.277   2.868   2.025  0.1891 -0.3061 -0.5017
 5167TIP3    H237061   0.166   2.830   2.120  1.6483  0.7194  1.7255
 5168TIP3   OH237062   1.957   0.918   0.474 -0.1873  0.6777 -0.6111
 5168TIP3    H137063   2.002   0.856   0.417 -0.1606 -2.5727  2.5595
 5168TIP3    H237064   1.867   0.922   0.441  0.4881  1.2273 -2.4914
 5169TIP3   OH237065   0.198   3.480   1.019  0.0049 -0.9330 -0.2400
 5169TIP3    H137066   0.225   3.436   0.938  0.7299 -0.8463 -0.0504
 5169TIP3    H237067   0.277   3.523   1.051 -0.5932  0.1958 -0.2160
 5170TIP3   OH237068   2.411   5.694   8.030 -0.5155  0.1906 -0.4465
 5170TIP3    H137069   2.355   5.704   8.107 -0.3288 -2.4971  0.1613
 5170TIP3    H237070   2.356   5.720   7.956 -1.7180  0.0068  0.3600
 5171TIP3   OH237071   1.310   6.198   1.067 -0.1690  0.3436  0.1706
 5171TIP3    H137072   1.347   6.136   1.004  0.6192  1.2083 -0.2459
 5171TIP3    H237073   1.230   6.156   1.099  0.4228 -0.9472  0.0167
 5172TIP3   OH237074   6.150   3.374   7.454 -0.0004 -0.2097  0.2301
 5172TIP3    H137075   6.208   3.400   7.382  0.9208 -1.0448  0.6462
 5172TIP3    H237076   6.067   3.352   7.411 -0.3953  1.9971 -0.2708
 5173TIP3   OH237077   0.257   6.509   2.257  0.3149  0.1931  0.2661
 5173TIP3    H137078   0.219   6.559   2.329 -1.9370 -0.6911 -0.2351
 5173TIP3    H237079   0.246   6.566   2.180  2.1088  0.8603  0.4685
 5174TIP3   OH237080   3.390   1.495   8.491  0.0021  0.3967  0.2553
 5174TIP3    H137081   3.444   1.445   8.553 -0.8250  0.3625  0.9729
 5174TIP3    H237082   3.424   1.584   8.495  0.9752  0.0762 -0.4418
 5175TIP3   OH237083   5.005   3.248   0.007 -0.9826  0.4279 -0.3587
 5175TIP3    H137084   4.910   3.241   0.018 -0.7639 -0.4253  1.1367
 5175TIP3    H237085   5.042   3.213   0.088  0.6308 -0.0011 -1.2359
 5176TIP3   OH237086   5.800   3.826   6.731  0.3303  0.2224 -0.1055
 5176TIP3    H137087   5.729   3.837   6.794  0.9317  0.2018  0.5902
 5176TIP3    H237088   5.807   3.731   6.719  0.5938  0.1945  0.2470
 5177TIP3   OH237089   0.163   1.645   8.690 -0.1251 -0.3785 -0.1897
 5177TIP3    H137090   0.176   1.617   8.780  0.6468 -0.2440 -0.2518
 5177TIP3    H237091   0.225   1.716   8.677  0.6057 -1.1445 -1.1602
 5178TIP3   OH237092   3.611   4.594   1.392  0.3539 -0.3988  0.0795
 5178TIP3    H137093   3.635   4.670   1.338  0.2284  0.6945  1.4908
 5178TIP3    H237094   3.526   4.618   1.430 -0.0653 -1.6058 -0.0737
 5179TIP3   OH237095   5.930   5.974   0.628 -0.1447 -0.2917  0.1608
 5179TIP3    H137096   5.874   5.904   0.594 -1.6272  0.6829  0.5453
 5179TIP3    H237097   5.872   6.028   0.681  0.8218  1.6202 -0.6527
 5180TIP3   OH237098   6.222   3.290   1.776  0.1405  0.0320  0.2122
 5180TIP3    H137099   6.255   3.331   1.856  0.9259 -1.5461  0.7383
 5180TIP3    H237100   6.299   3.247   1.738 -0.0726  1.2643 -1.7534
 5181TIP3   OH237101   6.254   0.238   2.186  0.1716  0.1642  0.0417
 5181TIP3    H137102   6.168   0.196   2.176  0.2671 -0.8542  2.6619
 5181TIP3    H237103   6.283   0.211   2.273  1.7731  3.0354  0.5003
 5182TIP3   OH237104   0.965   5.319   8.036 -0.0466  0.4394  0.0752
 5182TIP3    H137105   0.956   5.345   8.127  0.4778 -1.0148  0.5720
 5182TIP3    H237106   1.037   5.372   8.002  2.3858 -1.6517  1.6302
 5183TIP3   OH237107   2.671   3.936   0.271  0.4925  0.0252  0.4497
 5183TIP3    H137108   2.664   3.849   0.309 -1.7534 -0.5908 -1.1437
 5183TIP3    H237109   2.659   3.996   0.345 -0.2631 -1.0644  1.2323
 5184TIP3   OH237110   3.276   1.967   1.102  0.4652  0.0719  0.3670
 5184TIP3    H137111   3.361   1.969   1.057  1.2918  1.4822  1.8661
 5184TIP3    H237112   3.292   1.914   1.180  0.2236  1.0573  1.1003
 5185TIP3   OH237113   6.306   1.692   1.370  0.8569  0.1725 -0.1932
 5185TIP3    H137114   6.272   1.762   1.425 -0.1904 -1.1846  0.9370
 5185TIP3    H237115   6.240   1.681   1.301  1.4892  0.9071 -0.9525
 5186TIP3   OH237116   0.593   4.262   8.720 -0.6473  0.2179  0.0478
 5186TIP3    H137117   0.596   4.335   8.658 -0.0538  0.2504  0.1088
 5186TIP3    H237118   0.502   4.259   8.750 -1.0687 -0.1041 -1.1883
 5187TIP3   OH237119   2.407   2.387   1.832 -0.1358  0.5574 -0.2798
 5187TIP3    H137120   2.390   2.470   1.877  0.8398 -0.0631  1.2881
 5187TIP3    H237121   2.500   2.392   1.807  0.4633 -0.7684  1.4727
 5188TIP3   OH237122   5.401   6.116   0.663  0.1633  0.3969 -0.1037
 5188TIP3    H137123   5.479   6.064   0.684 -0.6003 -0.0137  2.0122
 5188TIP3    H237124   5.357   6.067   0.594  0.5119 -0.7223  0.4372
 5189TIP3   OH237125   1.626   0.457   2.610  0.4921 -0.1286  0.1723
 5189TIP3    H137126   1.590   0.372   2.587  2.0582 -0.6290 -0.5574
 5189TIP3    H237127   1.692   0.438   2.677  0.8354  0.5121  0.0239
 5190TIP3   OH237128   2.766   0.772   8.505 -0.5759  0.1998  0.3082
 5190TIP3    H137129   2.724   0.686   8.495  1.2937 -0.7028 -0.4197
 5190TIP3    H237130   2.850   0.752   8.547 -0.0557  1.6612  0.0048
 5191TIP3   OH237131   1.639   4.335   0.874 -0.0871  0.0973 -0.1914
 5191TIP3    H137132   1.607   4.280   0.945 -3.1587  1.9304  0.0268
 5191TIP3    H237133   1.633   4.279   0.796 -0.6792 -0.6425  0.3713
 5192TIP3   OH237134   0.527   4.141   1.527  0.1602  0.3453  0.5094
 5192TIP3    H137135   0.441   4.165   1.560  0.5964 -0.9596  2.8299
 5192TIP3    H237136   0.588   4.176   1.592  1.2554 -0.3979 -0.0799
 5193TIP3   OH237137   4.825   2.999   1.587 -0.0891 -0.1789 -0.4287
 5193TIP3    H137138   4.822   3.069   1.652  1.5397 -0.0496 -0.4532
 5193TIP3    H237139   4.759   2.936   1.617 -0.3796  0.5576  0.5369
 5194TIP3   OH237140   3.393   3.151   0.160  0.2637 -0.3623 -0.6529
 5194TIP3    H137141   3.450   3.078   0.135  1.4685  0.3108  0.0115
 5194TIP3    H237142   3.305   3.120   0.142  0.6668 -2.3461  0.4947
 5195TIP3   OH237143   3.793   5.173   2.645 -0.3685 -0.1256 -0.1461
 5195TIP3    H137144   3.716   5.143   2.595 -0.5466  1.4294 -0.8648
 5195TIP3    H237145   3.757   5.201   2.729 -0.5385  0.1938 -0.3208
 5196TIP3   OH237146   0.267   0.552   1.507 -0.4945 -0.2905  0.0316
 5196TIP3    H137147   0.335   0.492   1.541 -0.5181  0.2577  1.0918
 5196TIP3    H237148   0.276   0.547   1.412 -0.1706 -1.6054  0.1138
 5197TIP3   OH237149   2.299   1.350   8.381 -0.6729 -0.6483  0.1396
 5197TIP3    H137150   2.371   1.292   8.406 -0.3489  0.1078  1.0114
 5197TIP3    H237151   2.280   1.327   8.290  0.7791 -0.7556 -0.1562
 5198TIP3   OH237152   6.580   5.594   0.184 -0.3209 -0.0483 -0.3353
 5198TIP3    H137153   6.522   5.582   0.109 -2.5214 -0.2134  1.3058
 5198TIP3    H237154   6.546   5.535   0.251  1.4335  0.2644  0.8974
 5199TIP3   OH237155   5.326   1.927   8.466  0.7873 -0.8964  0.2041
 5199TIP3    H137156   5.405   1.916   8.518  1.3121 -0.5985 -0.5147
 5199TIP3    H237157   5.353   1.908   8.376  0.0172 -0.9125 -0.0308
 5200TIP3   OH237158   1.388   3.369   0.195 -0.4524  0.5300  0.5390
 5200TIP3    H137159   1.301   3.339   0.170  0.3823 -1.1984 -0.4622
 5200TIP3    H237160   1.419   3.418   0.119 -0.2577  0.4854  0.5886
 5201TIP3   OH237161   6.291   3.897   0.681 -0.3626 -0.5407  0.5930
 5201TIP3    H137162   6.216   3.941   0.641 -0.9241 -1.2532  0.8389
 5201TIP3    H237163   6.267   3.804   0.680  1.3270 -1.0172 -1.0883
 5202TIP3   OH237164   4.212   6.046   0.767  0.0382 -0.3506  0.4776
 5202TIP3    H137165   4.294   6.058   0.720  0.2583 -0.9233  0.7152
 5202TIP3    H237166   4.235   6.057   0.859 -0.2771  0.1526  0.4983
 5203TIP3   OH237167   5.820   5.557   8.136  0.7230 -0.4718 -0.2726
 5203TIP3    H137168   5.794   5.543   8.227 -0.8445  1.4013 -0.3775
 5203TIP3    H237169   5.908   5.594   8.141  1.2870 -1.8260  0.3677
 5204TIP3   OH237170   1.156   6.711   7.728 -0.3167 -0.2883  0.0388
 5204TIP3    H137171   1.189   6.676   7.811 -0.9237 -0.2222  0.3165
 5204TIP3    H237172   1.082   6.655   7.706 -0.2762 -0.1876 -0.3633
 5205TIP3   OH237173   3.912   6.050   7.261  0.3716 -0.4988 -0.1981
 5205TIP3    H137174   3.950   6.013   7.181 -0.4100 -0.3725 -0.6375
 5205TIP3    H237175   3.856   6.121   7.230  0.9874  0.3330  0.5575
 5206TIP3   OH237176   3.491   0.224   1.356  0.2937  0.1258 -0.2365
 5206TIP3    H137177   3.447   0.294   1.306 -0.8299 -0.8702 -0.7022
 5206TIP3    H237178   3.486   0.147   1.299 -0.5969 -0.9287  1.1856
 5207TIP3   OH237179   0.340   2.593   8.764  0.1469  0.2071  1.0134
 5207TIP3    H137180   0.334   2.600   8.668 -0.5511 -1.2905  0.9247
 5207TIP3    H237181   0.398   2.519   8.779  2.3462  1.9805  1.8230
 5208TIP3   OH237182   5.523   4.375   1.966 -0.6843 -0.4196 -0.6078
 5208TIP3    H137183   5.605   4.390   1.917  0.9728  1.3187  2.4104
 5208TIP3    H237184   5.469   4.451   1.944 -0.1104  0.1534 -0.0843
 5209TIP3   OH237185   6.353   4.735   6.855 -0.2006  0.4248  0.2118
 5209TIP3    H137186   6.413   4.808   6.840 -1.8415  1.4760 -1.7188
 5209TIP3    H237187   6.410   4.660   6.872  1.6694  1.4027 -1.3572
 5210TIP3   OH237188   0.176   3.851   8.622  0.2132  0.4525 -0.1061
 5210TIP3    H137189   0.260   3.814   8.595  1.7459  2.2304  1.8393
 5210TIP3    H237190   0.161   3.924   8.562  0.3846  0.5235 -0.0632
 5211TIP3   OH237191   3.696   1.956   2.331  0.0240 -0.5965 -0.9412
 5211TIP3    H137192   3.696   1.901   2.409  1.6296  0.2502 -0.2959
 5211TIP3    H237193   3.680   1.895   2.259 -2.1685 -1.3110  0.0411
 5212TIP3   OH237194   0.943   2.742   2.052  0.7817 -0.0916  0.0720
 5212TIP3    H137195   0.989   2.756   1.970  0.7561 -0.2530  0.0305
 5212TIP3    H237196   0.869   2.802   2.049  1.0875  0.2985  0.2159
 5213TIP3   OH237197   4.272   6.577   1.224 -0.0050  0.2425  0.3446
 5213TIP3    H137198   4.259   6.650   1.164  0.5669  0.5598  0.5880
 5213TIP3    H237199   4.311   6.618   1.302 -1.7659  0.0237  1.3960
 5214TIP3   OH237200   4.726   1.565   7.517 -0.1653  0.2786 -0.0436
 5214TIP3    H137201   4.669   1.580   7.593 -0.3541  0.6520 -0.2605
 5214TIP3    H237202   4.689   1.619   7.448  0.5941  0.7187 -0.1200
 5215TIP3   OH237203   4.427   6.759   0.824  0.1260  0.2928 -0.0495
 5215TIP3    H137204   4.386   6.690   0.771 -1.7673 -0.1238  1.8347
 5215TIP3    H237205   4.521   6.738   0.821 -0.1006 -0.6701 -1.8215
 5216TIP3   OH237206   5.034   3.942   0.326 -0.3637 -0.5851 -0.6559
 5216TIP3    H137207   5.024   4.013   0.263  0.2926  1.5409  1.5116
 5216TIP3    H237208   5.119   3.902   0.304  0.1750  0.5758 -0.7303
 5217TIP3   OH237209   4.245   0.640   2.539  0.0796 -0.2463 -0.5322
 5217TIP3    H137210   4.282   0.553   2.555  0.3194 -0.3294 -1.4791
 5217TIP3    H237211   4.293   0.698   2.599 -0.2726 -0.8054  0.2969
 5218TIP3   OH237212   0.647   2.294   1.712  0.3458  0.2189  0.2201
 5218TIP3    H137213   0.669   2.310   1.620 -1.7237 -0.9751 -0.5680
 5218TIP3    H237214   0.728   2.309   1.760  1.0970  2.4566 -1.5949
 5219TIP3   OH237215   1.211   2.208   2.588 -0.1338 -0.1756  0.1389
 5219TIP3    H137216   1.246   2.167   2.666 -1.1665 -1.1759  0.0987
 5219TIP3    H237217   1.133   2.255   2.618  0.3100  0.7071 -0.0428
 5220TIP3   OH237218   0.325   1.037   0.617 -0.3997  0.1143  0.2843
 5220TIP3    H137219   0.387   1.083   0.674 -1.1817  0.0279  1.2159
 5220TIP3    H237220   0.377   0.969   0.575  0.3264  0.5835  0.4107
 5221TIP3   OH237221   2.284   3.695   2.302  0.3173  0.0645 -0.2309
 5221TIP3    H137222   2.367   3.658   2.334  0.3185  0.3083  0.0500
 5221TIP3    H237223   2.309   3.746   2.225  0.6340  1.2615  0.6430
 5222TIP3   OH237224   2.444   3.998   2.342  0.8204  0.2894 -0.3174
 5222TIP3    H137225   2.396   3.971   2.420  0.6202  0.5785 -0.3400
 5222TIP3    H237226   2.383   3.983   2.270  1.7400 -2.0539 -0.7044
 5223TIP3   OH237227   3.041   0.157   8.663 -0.7290  0.2382  0.2637
 5223TIP3    H137228   3.047   0.076   8.611 -0.8667  0.0653  0.5158
 5223TIP3    H237229   3.009   0.223   8.601 -1.6735 -0.1509  0.3304
 5224TIP3   OH237230   3.494   2.377   8.453  0.4204 -0.3732 -0.6370
 5224TIP3    H137231   3.574   2.334   8.422  1.1163 -0.3930  1.0484
 5224TIP3    H237232   3.510   2.470   8.440  0.5640 -0.3995 -0.6463
 5225TIP3   OH237233   0.729   6.623   0.729 -0.7305  0.0865 -0.5361
 5225TIP3    H137234   0.823   6.612   0.748 -0.9405  0.6184  0.9728
 5225TIP3    H237235   0.725   6.633   0.634  0.8760  1.2064 -0.5366
 5226TIP3   OH237236   1.149   1.433   2.563 -0.3286 -0.8230 -0.2590
 5226TIP3    H137237   1.118   1.348   2.596  0.7129 -1.3396 -0.5650
 5226TIP3    H237238   1.135   1.494   2.636 -2.7596 -0.8376 -0.6397
 5227TIP3   OH237239   5.731   3.448   1.004 -0.5599 -0.1708  0.5568
 5227TIP3    H137240   5.661   3.448   1.069 -1.1681 -0.2717 -0.0886
 5227TIP3    H237241   5.776   3.364   1.017 -1.5544 -0.8193 -0.0761
 5228TIP3   OH237242   5.049   0.866   1.056  0.0699 -0.1246  0.2056
 5228TIP3    H137243   4.988   0.910   0.997  0.4006 -0.5741 -0.4968
 5228TIP3    H237244   5.015   0.883   1.144 -0.4521  0.5351 -0.1149
 5229TIP3   OH237245   5.836   4.755   0.219 -0.0470  0.1844  0.3424
 5229TIP3    H137246   5.846   4.660   0.213 -0.1817  0.2239 -0.7301
 5229TIP3    H237247   5.741   4.769   0.222 -0.0179  0.2252  2.0807
 5230TIP3   OH237248   6.564   4.886   0.621  0.1068 -0.0214  0.0690
 5230TIP3    H137249   6.644   4.938   0.632  0.3425 -0.4978  0.7006
 5230TIP3    H237250   6.513   4.934   0.556  0.6494  0.5998  0.0848
 5231TIP3   OH237251   2.636   4.457   1.948  0.7720  0.1547  0.2387
 5231TIP3    H137252   2.664   4.382   2.001 -0.5246 -0.6254 -0.1267
 5231TIP3    H237253   2.670   4.438   1.861 -1.2685 -1.0897 -0.3460
 5232TIP3   OH237254   2.705   4.235   0.168  0.0631  0.0214 -0.0689
 5232TIP3    H137255   2.672   4.230   0.258 -0.0254  1.9366  0.0449
 5232TIP3    H237256   2.782   4.291   0.174  1.3584 -1.5747 -0.8886
 5233TIP3   OH237257   3.113   1.548   7.238  0.2390 -0.7349 -0.0002
 5233TIP3    H137258   3.156   1.472   7.276 -0.3548 -1.6372 -1.0928
 5233TIP3    H237259   3.184   1.595   7.194  0.4846 -1.0077  0.0973
 5234TIP3   OH237260   3.234   4.894   0.043 -0.0014  0.7378 -0.0902
 5234TIP3    H137261   3.313   4.926   0.086 -0.9433  2.0195  0.7630
 5234TIP3    H237262   3.172   4.881   0.115 -0.4227 -0.7128 -0.6961
 5235TIP3   OH237263   0.977   4.503   1.139 -0.0426 -0.8918  0.2269
 5235TIP3    H137264   1.065   4.505   1.102  0.8414 -2.1992  2.0682
 5235TIP3    H237265   0.928   4.443   1.082  0.5460 -0.9517 -0.2276
 5236TIP3   OH237266   6.068   4.620   7.471 -0.6391  0.3445 -0.4499
 5236TIP3    H137267   6.095   4.585   7.386  0.6250  0.7120 -0.2332
 5236TIP3    H237268   6.103   4.709   7.472 -1.8983  0.8479 -0.1144
 5237TIP3   OH237269   4.113   4.788   1.772 -0.1615 -0.2253  0.5310
 5237TIP3    H137270   4.145   4.720   1.832 -0.4620 -1.7979 -1.0132
 5237TIP3    H237271   4.035   4.824   1.816 -1.4742 -2.6325  0.3464
 5238TIP3   OH237272   4.919   2.031   0.484 -0.1774  0.4964  0.0256
 5238TIP3    H137273   4.881   2.036   0.396  1.1335 -0.6110 -0.6303
 5238TIP3    H237274   4.897   1.943   0.514  2.8780 -0.7086 -0.9118
 5239TIP3   OH237275   5.306   5.728   7.896 -0.1669  0.2335  0.2393
 5239TIP3    H137276   5.364   5.786   7.946  0.1679 -0.6036  0.8345
 5239TIP3    H237277   5.231   5.783   7.873 -0.3704  0.6147  1.7514
 5240TIP3   OH237278   6.595   2.995   0.218 -0.5155 -0.3034 -0.1026
 5240TIP3    H137279   6.586   3.071   0.276  0.1699 -0.3244  0.0378
 5240TIP3    H237280   6.526   2.935   0.247 -1.0883  0.2776 -0.2417
 5241TIP3   OH237281   1.747   5.412   8.640  0.3208  0.0917  0.7544
 5241TIP3    H137282   1.689   5.483   8.667  0.2357 -0.1922  1.3433
 5241TIP3    H237283   1.779   5.375   8.723 -0.1505 -0.9697  0.4882
 5242TIP3   OH237284   6.395   0.766   0.125  0.0052 -0.0811  0.2815
 5242TIP3    H137285   6.391   0.678   0.090  0.6355  0.3428 -0.8882
 5242TIP3    H237286   6.305   0.798   0.120 -0.1444 -0.4981  0.3060
 5243TIP3   OH237287   3.763   0.350   2.248  0.1158 -0.2827  0.3083
 5243TIP3    H137288   3.843   0.297   2.254 -0.2688 -0.7383  2.1396
 5243TIP3    H237289   3.785   0.419   2.186  2.0733 -0.1987  1.0040
 5244TIP3   OH237290   0.288   3.459   8.332  0.6124 -0.5224 -0.5719
 5244TIP3    H137291   0.305   3.365   8.334  0.3236 -0.5701 -0.0631
 5244TIP3    H237292   0.311   3.490   8.420 -1.4079 -0.5135  0.0021
 5245TIP3   OH237293   3.050   6.510   1.083  0.7258  1.0889  0.7695
 5245TIP3    H137294   3.029   6.527   0.991  0.9390 -0.5520  0.3781
 5245TIP3    H237295   3.134   6.554   1.097  0.5062  1.6712  0.2924
 5246TIP3   OH237296   6.447   6.766   2.159 -0.1128  0.3512  0.1066
 5246TIP3    H137297   6.393   6.691   2.133 -0.1349  0.3105  0.2724
 5246TIP3    H237298   6.535   6.730   2.168 -0.5039 -0.1532  2.4281
 5247TIP3   OH237299   4.005   5.831   2.287  0.1921  0.8138 -0.0742
 5247TIP3    H137300   4.064   5.832   2.362  1.2376 -0.3158 -0.8414
 5247TIP3    H237301   3.941   5.763   2.306  1.9969 -1.3674 -1.2552
 5248TIP3   OH237302   0.461   5.424   7.612 -0.8616 -0.0086 -0.1268
 5248TIP3    H137303   0.416   5.379   7.540  0.3902 -0.9238 -0.3787
 5248TIP3    H237304   0.441   5.372   7.689  0.8898 -1.3130 -0.4778
 5249TIP3   OH237305   2.769   3.645   1.377 -1.5881 -0.1921  0.1280
 5249TIP3    H137306   2.721   3.562   1.368 -1.4079 -0.1830 -1.1860
 5249TIP3    H237307   2.724   3.705   1.317  0.8435 -0.5843 -2.3023
 5250TIP3   OH237308   1.918   5.982   7.566  0.1466 -0.0854 -0.3361
 5250TIP3    H137309   1.933   5.985   7.472 -1.3062  0.9196 -0.5654
 5250TIP3    H237310   1.969   6.055   7.601  0.0601  0.0279 -0.4452
 5251TIP3   OH237311   6.341   2.202   2.286  0.4345 -0.0283 -0.2514
 5251TIP3    H137312   6.431   2.234   2.296  0.9952 -1.5536 -0.1907
 5251TIP3    H237313   6.318   2.169   2.373  0.0069 -0.1474 -0.4081
 5252TIP3   OH237314   5.410   1.269   8.339  0.1944  0.1033 -0.3528
 5252TIP3    H137315   5.466   1.281   8.415  0.5274  0.4301 -0.6498
 5252TIP3    H237316   5.469   1.271   8.264  0.0633 -1.6900 -0.5419
 5253TIP3   OH237317   1.277   6.001   2.421  0.4469 -0.0510 -0.0371
 5253TIP3    H137318   1.277   5.947   2.500  2.8283 -1.7557 -1.0882
 5253TIP3    H237319   1.228   5.950   2.356 -0.3097  0.7070 -0.0817
 5254TIP3   OH237320   3.284   4.318   0.805 -0.6029  0.0272 -0.1324
 5254TIP3    H137321   3.207   4.272   0.770 -0.5679 -0.4501  0.4095
 5254TIP3    H237322   3.309   4.268   0.882  0.3111  0.1295 -0.3528
 5255TIP3   OH237323   2.223   3.730   1.437  0.2286 -0.4728  0.1313
 5255TIP3    H137324   2.244   3.668   1.367 -1.1459  0.5153 -1.2138
 5255TIP3    H237325   2.139   3.701   1.472 -0.1440  0.2694 -0.1184
 5256TIP3   OH237326   0.870   2.628   1.026 -0.5654 -0.2726 -0.0996
 5256TIP3    H137327   0.832   2.578   0.954  0.2288 -0.3144 -0.5063
 5256TIP3    H237328   0.799   2.637   1.089 -1.3150 -0.1404 -0.9360
 5257TIP3   OH237329   2.859   1.136   1.038  0.0967  0.1796  0.2467
 5257TIP3    H137330   2.843   1.190   1.116  1.1699  0.6220  0.1839
 5257TIP3    H237331   2.954   1.126   1.036  0.1311  0.6462 -1.3285
 5258TIP3   OH237332   3.368   2.052   1.610 -0.5381  0.3473 -0.1913
 5258TIP3    H137333   3.331   1.980   1.559 -1.6505  1.6695 -1.3482
 5258TIP3    H237334   3.332   2.131   1.569  1.1298  1.5948  0.6343
 5259TIP3   OH237335   5.786   1.572   7.835  0.2436  0.5026  0.0113
 5259TIP3    H137336   5.775   1.570   7.740  3.7516 -0.1440 -0.5251
 5259TIP3    H237337   5.752   1.657   7.861  1.1895  1.6396 -2.1819
 5260TIP3   OH237338   3.106   5.972   7.525  0.3496 -0.3108  0.7850
 5260TIP3    H137339   3.101   6.033   7.599 -0.9174  0.7072 -0.0887
 5260TIP3    H237340   3.038   6.002   7.465  2.3426 -0.1054 -1.5405
 5261TIP3   OH237341   1.977   6.047   8.581  0.8145 -0.4024  0.5040
 5261TIP3    H137342   2.015   6.113   8.639  0.6438 -1.5119  1.9361
 5261TIP3    H237343   1.897   6.019   8.625 -1.4229  1.3439 -2.0754
 5262TIP3   OH237344   5.892   0.582   1.878 -0.2954 -0.5708 -0.2635
 5262TIP3    H137345   5.952   0.513   1.907  0.7077  0.4860  0.2264
 5262TIP3    H237346   5.813   0.534   1.851  0.8316 -2.0201 -1.1876
 5263TIP3   OH237347   5.045   0.036   6.742  0.1059  0.3494  0.0143
 5263TIP3    H137348   5.102   0.100   6.784 -1.5006  2.5320 -0.9349
 5263TIP3    H237349   5.097   0.002   6.669  2.0205 -1.6741  2.1672
 5264TIP3   OH237350   1.293   4.923   7.555  0.1513  0.1483 -0.2065
 5264TIP3    H137351   1.360   4.981   7.591  0.7703 -0.5292 -0.2527
 5264TIP3    H237352   1.213   4.976   7.557  0.7266  1.0555 -0.3902
 5265TIP3   OH237353   6.185   3.961   8.211 -0.5315  0.8718 -0.2175
 5265TIP3    H137354   6.136   4.026   8.160 -0.4949  0.2460 -1.0593
 5265TIP3    H237355   6.204   3.891   8.149  1.9376  1.3379 -0.0707
 5266TIP3   OH237356   1.602   0.584   0.184  0.2028  0.1032 -0.0082
 5266TIP3    H137357   1.680   0.596   0.239  0.6060 -0.3303 -0.4657
 5266TIP3    H237358   1.564   0.671   0.176  2.1768  0.8692 -2.0051
 5267TIP3   OH237359   2.191   0.279   8.072 -0.3285  0.0299  0.7401
 5267TIP3    H137360   2.136   0.313   8.002  1.6505 -2.7970 -2.4512
 5267TIP3    H237361   2.139   0.208   8.111 -0.0577 -0.8964 -0.5077
 5268TIP3   OH237362   2.600   2.843   0.261  0.0490 -0.1301  0.4506
 5268TIP3    H137363   2.688   2.861   0.294  0.7653 -2.2599 -0.1048
 5268TIP3    H237364   2.595   2.890   0.178  1.2247 -1.1006 -0.2014
 5269TIP3   OH237365   5.121   6.360   0.400 -0.8351 -0.2336  0.0305
 5269TIP3    H137366   5.125   6.452   0.426  0.8497 -0.6606  1.4836
 5269TIP3    H237367   5.125   6.311   0.482 -2.1355 -1.6356 -0.6830
 5270TIP3   OH237368   1.664   3.288   8.489  0.3033  0.5885  0.0270
 5270TIP3    H137369   1.579   3.267   8.528  0.8908 -1.7606  0.2143
 5270TIP3    H237370   1.712   3.205   8.490  2.6875  1.8632  0.0776
 5271TIP3   OH237371   0.499   3.772   0.557 -0.7920  0.4140  0.1268
 5271TIP3    H137372   0.564   3.833   0.522 -1.9667  0.9095 -1.2682
 5271TIP3    H237373   0.489   3.798   0.648  2.4755 -1.0149  1.0598
 5272TIP3   OH237374   6.783   6.545   0.745 -0.2293 -0.0048  0.5206
 5272TIP3    H137375   6.875   6.522   0.736 -0.2816 -0.3755  0.8785
 5272TIP3    H237376   6.779   6.600   0.823 -0.5978 -1.8342  1.8751
 5273TIP3   OH237377   5.667   3.267   0.713  0.0609  0.0247 -0.0522
 5273TIP3    H137378   5.710   3.314   0.642  0.2828  0.5120  0.3992
 5273TIP3    H237379   5.727   3.274   0.787 -1.2195  1.6636  0.9192
 5274TIP3   OH237380   6.532   5.561   7.946  0.2354  0.3584 -0.4576
 5274TIP3    H137381   6.575   5.567   7.861  0.3867  0.6699 -0.3574
 5274TIP3    H237382   6.450   5.515   7.928  0.6639 -0.3531 -0.6253
 5275TIP3   OH237383   0.883   5.495   0.987  0.4900 -0.1340  0.4194
 5275TIP3    H137384   0.897   5.416   0.935  3.3893  1.1902 -1.0301
 5275TIP3    H237385   0.867   5.564   0.923 -1.3073  0.6344  1.6195
 5276TIP3   OH237386   3.506   4.060   1.827 -0.2946 -0.4954 -0.3713
 5276TIP3    H137387   3.427   4.050   1.775  0.7289 -0.9318 -1.9157
 5276TIP3    H237388   3.510   4.153   1.848 -3.0825 -0.9135  2.9391
 5277TIP3   OH237389   0.417   1.910   8.079 -0.1353 -0.0239  0.1623
 5277TIP3    H137390   0.344   1.895   8.140 -0.2955  0.0198 -0.0164
 5277TIP3    H237391   0.395   1.856   8.002 -0.3428  0.5373 -0.1833
 5278TIP3   OH237392   4.444   5.832   7.397  0.2782 -0.8105  0.2161
 5278TIP3    H137393   4.376   5.878   7.349  0.7588 -2.1375 -1.8906
 5278TIP3    H237394   4.398   5.765   7.447 -0.1556 -0.0040  0.9175
 5279TIP3   OH237395   6.113   5.009   8.297  0.4895 -0.0968 -0.5163
 5279TIP3    H137396   6.140   5.100   8.282  3.5208 -0.7498  0.2699
 5279TIP3    H237397   6.051   5.013   8.369  0.6745  1.3392 -0.4157
 5280TIP3   OH237398   1.944   3.861   7.468  0.2899  0.3107  0.8620
 5280TIP3    H137399   1.896   3.866   7.550 -2.3102  2.3323 -0.6449
 5280TIP3    H237400   1.896   3.795   7.417  0.9329  0.2168  0.3669
 5281TIP3   OH237401   5.434   6.393   0.725  0.2580 -0.1608 -0.3798
 5281TIP3    H137402   5.528   6.395   0.738 -0.0432 -0.3978  2.4853
 5281TIP3    H237403   5.414   6.301   0.707  0.5322 -0.1442 -0.7873
 5282TIP3   OH237404   4.292   0.453   7.691  0.1569  0.1312 -0.1648
 5282TIP3    H137405   4.351   0.508   7.640 -0.3921 -0.1013 -1.0650
 5282TIP3    H237406   4.335   0.445   7.776  0.7558  1.0734 -0.3633
 5283TIP3   OH237407   2.902   1.336   6.675  0.6778  0.3201 -0.0904
 5283TIP3    H137408   2.867   1.316   6.588 -1.1862  2.2736  0.1427
 5283TIP3    H237409   2.911   1.431   6.676 -2.5871  0.8070  2.8888
 5284TIP3   OH237410   5.168   5.045   7.787 -0.3490  0.4599 -0.5500
 5284TIP3    H137411   5.199   4.973   7.843 -0.4571 -0.3659 -1.5153
 5284TIP3    H237412   5.078   5.060   7.815  0.5370  2.2443  1.6419
 5285TIP3   OH237413   2.442   3.378   0.906 -0.5007  0.1116 -0.3828
 5285TIP3    H137414   2.415   3.341   0.990 -1.2943  1.2477 -0.1027
 5285TIP3    H237415   2.438   3.305   0.845  3.0747 -1.5377  1.0658
 5286TIP3   OH237416   6.052   1.981   8.372 -0.3602 -0.1996 -0.0025
 5286TIP3    H137417   6.085   1.894   8.350 -0.0817 -0.2552  0.6257
 5286TIP3    H237418   6.071   1.992   8.465 -1.8338 -0.1089  0.3142
 5287TIP3   OH237419   3.164   4.181   2.845  0.5108  0.0011  0.4488
 5287TIP3    H137420   3.227   4.119   2.808  0.7834 -1.7755  3.6070
 5287TIP3    H237421   3.089   4.127   2.870 -1.3306  1.7250 -1.0137
 5288TIP3   OH237422   4.311   5.503   1.157 -0.2648  0.1830 -0.0941
 5288TIP3    H137423   4.276   5.518   1.069  1.3641  3.1970 -0.3563
 5288TIP3    H237424   4.248   5.545   1.216 -0.5020 -0.3651  0.0496
 5289TIP3   OH237425   6.657   3.909   2.038 -0.2245 -0.0641 -0.3237
 5289TIP3    H137426   6.700   3.992   2.058 -0.0425  0.3603 -2.2849
 5289TIP3    H237427   6.678   3.892   1.946 -0.9384 -1.8811 -0.1980
 5290TIP3   OH237428   4.654   1.150   1.178  0.7497  0.0844  0.0075
 5290TIP3    H137429   4.722   1.156   1.111 -0.0565  4.4140 -0.7335
 5290TIP3    H237430   4.572   1.163   1.130 -0.3206 -1.3800  1.3281
 5291TIP3   OH237431   3.423   0.418   0.127 -0.4530 -0.3367  0.2312
 5291TIP3    H137432   3.337   0.410   0.087 -0.5893 -0.9404  0.6368
 5291TIP3    H237433   3.410   0.477   0.201 -0.3344  0.2567 -0.2100
 5292TIP3   OH237434   3.699   6.149   2.718 -0.5234  0.3700 -0.1069
 5292TIP3    H137435   3.614   6.104   2.720 -0.5626  0.4695  0.9408
 5292TIP3    H237436   3.677   6.241   2.700 -0.6134  0.3567 -0.0648
 5293TIP3   OH237437   2.976   3.629   1.846  0.2670  0.0372 -0.5104
 5293TIP3    H137438   2.911   3.659   1.910 -1.4899 -1.0243 -1.7076
 5293TIP3    H237439   2.927   3.570   1.788  2.4347 -1.2128 -1.1811
 5294TIP3   OH237440   0.033   0.486   1.676 -0.2366  0.8185 -0.7169
 5294TIP3    H137441  -0.045   0.533   1.646 -1.2147 -0.3952 -0.1762
 5294TIP3    H237442   0.096   0.495   1.604 -2.0755 -0.9961 -2.6954
 5295TIP3   OH237443   6.812   4.345   0.756  0.2195  0.0007 -0.5911
 5295TIP3    H137444   6.852   4.429   0.734  1.4203 -0.3389  0.1776
 5295TIP3    H237445   6.756   4.363   0.831  1.2545 -0.0423  0.2164
 5296TIP3   OH237446   6.732   6.377   1.888 -0.0249  0.2898  0.3862
 5296TIP3    H137447   6.732   6.393   1.982 -1.1442  0.4984  0.3572
 5296TIP3    H237448   6.646   6.405   1.858  0.6918  1.2383 -0.8851
 5297TIP3   OH237449   6.349   2.738   0.658 -0.1718  0.2453 -0.0238
 5297TIP3    H137450   6.413   2.810   0.663  0.8645 -0.5969 -0.5805
 5297TIP3    H237451   6.312   2.744   0.570  0.5668 -0.4076 -0.3947
 5298TIP3   OH237452   0.431   4.670   0.050  0.3310  0.7746 -0.1666
 5298TIP3    H137453   0.484   4.743   0.082  0.5706  1.4879 -2.0469
 5298TIP3    H237454   0.445   4.600   0.114  1.3860  1.8349  0.8190
 5299TIP3   OH237455   1.050   3.573   0.801  0.4308 -0.2947 -0.4335
 5299TIP3    H137456   1.145   3.562   0.798  0.4093 -0.5095 -0.3151
 5299TIP3    H237457   1.034   3.629   0.877  0.3916 -1.0059  0.0832
 5300TIP3   OH237458   1.958   2.743   8.770  0.1230  0.3416  0.8580
 5300TIP3    H137459   2.002   2.661   8.794  1.5280  1.4456  2.2730
 5300TIP3    H237460   2.024   2.793   8.722 -1.4022 -0.1609 -1.9591
 5301TIP3   OH237461   5.565   6.200   2.447  0.7175  0.3757  0.3428
 5301TIP3    H137462   5.525   6.124   2.489  0.2246 -0.3645 -1.3686
 5301TIP3    H237463   5.507   6.273   2.467 -0.0358 -0.1599  0.1235
 5302TIP3   OH237464   6.046   4.100   6.659  0.4976 -0.3106 -0.1443
 5302TIP3    H137465   6.012   4.027   6.608 -2.1275  1.1554 -0.6772
 5302TIP3    H237466   5.989   4.104   6.735  0.4771  1.2860 -0.2222
 5303TIP3   OH237467   3.210   6.507   8.034  0.1609  0.0040  0.2854
 5303TIP3    H137468   3.196   6.414   8.016  1.6966  0.0322 -1.2643
 5303TIP3    H237469   3.176   6.551   7.956 -1.2635  0.8524  1.3265
 5304TIP3   OH237470   2.813   2.319   8.528 -0.2023  0.1830 -0.1921
 5304TIP3    H137471   2.739   2.341   8.471  0.0969 -0.8086 -0.9851
 5304TIP3    H237472   2.874   2.392   8.516 -0.9716  0.9365  0.3603
 5305TIP3   OH237473   2.864   5.509   1.417  0.6847 -0.2089 -0.0539
 5305TIP3    H137474   2.931   5.440   1.421  0.5926 -0.3036 -0.1410
 5305TIP3    H237475   2.914   5.590   1.405  0.7722 -0.3065 -0.3641
 5306TIP3   OH237476   4.136   4.089   0.279  0.0676  0.1104  0.1610
 5306TIP3    H137477   4.112   4.009   0.326  0.5417 -1.0398 -1.4906
 5306TIP3    H237478   4.112   4.072   0.188  0.0600  1.9090 -0.2122
 5307TIP3   OH237479   3.692   5.266   8.605 -0.3840  0.5050 -0.4557
 5307TIP3    H137480   3.716   5.357   8.588 -1.7215  1.1607  0.8691
 5307TIP3    H237481   3.596   5.267   8.606 -0.4140 -0.7968  0.1439
 5308TIP3   OH237482   1.827   1.384   7.270  0.4306  0.4736  0.1884
 5308TIP3    H137483   1.742   1.344   7.289 -0.2364  0.8585 -1.7548
 5308TIP3    H237484   1.836   1.452   7.337 -0.7886  0.4092  0.4448
 5309TIP3   OH237485   1.877   0.577   1.535 -0.3376 -0.2335  0.1304
 5309TIP3    H137486   1.803   0.555   1.592 -0.5280  0.6007  0.2164
 5309TIP3    H237487   1.881   0.672   1.537  0.3040 -0.2431 -0.4384
 5310TIP3   OH237488   4.194   2.433   8.587  0.0286 -0.6102  0.0696
 5310TIP3    H137489   4.282   2.469   8.591  0.2897 -1.1517 -0.5205
 5310TIP3    H237490   4.192   2.366   8.656 -0.1303 -0.1682  0.4985
 5311TIP3   OH237491   0.797   3.444   7.782 -0.0511 -0.0114 -0.1575
 5311TIP3    H137492   0.806   3.515   7.845 -0.6223  0.5672 -0.7078
 5311TIP3    H237493   0.887   3.418   7.761  0.1512  0.3157  0.3012
 5312TIP3   OH237494   0.319   6.594   7.833  0.0131 -0.1035 -0.5217
 5312TIP3    H137495   0.257   6.648   7.784 -2.2661 -0.3443  1.8842
 5312TIP3    H237496   0.336   6.643   7.913  1.0035 -1.1860 -0.0432
 5313TIP3   OH237497   1.504   3.872   8.509  0.3061 -0.4600  0.7654
 5313TIP3    H137498   1.542   3.948   8.464  0.2460 -0.0517  1.3942
 5313TIP3    H237499   1.429   3.847   8.455  0.8793 -0.6622  0.0460
 5314TIP3   OH237500   6.186   5.297   2.453 -0.1180  1.1545  0.4103
 5314TIP3    H137501   6.154   5.207   2.459 -0.4739  1.2022 -0.6550
 5314TIP3    H237502   6.169   5.334   2.540 -0.1701  0.2666  0.7861
 5315TIP3   OH237503   5.448   3.468   0.025 -0.2483 -0.2524  0.6241
 5315TIP3    H137504   5.471   3.540   0.083  0.3824  0.4355 -0.4439
 5315TIP3    H237505   5.426   3.396   0.084  2.5935 -0.3166  1.7639
 5316TIP3   OH237506   0.507   0.010   1.760  0.3663 -0.0153  0.7308
 5316TIP3    H137507   0.412   0.004   1.755  0.3594  0.6923 -0.3419
 5316TIP3    H237508   0.525   0.022   1.853 -0.9211  3.8946  0.6845
 5317TIP3   OH237509   6.054   6.405   0.077  0.5135  0.4099 -0.1522
 5317TIP3    H137510   6.114   6.451   0.018 -0.3772  2.8316  0.6958
 5317TIP3    H237511   6.110   6.348   0.128  1.4372 -0.9935 -2.5597
 5318TIP3   OH237512   2.368   3.812   0.969 -0.2059 -0.0270 -0.0641
 5318TIP3    H137513   2.432   3.882   0.979  0.0124  0.0096 -1.4804
 5318TIP3    H237514   2.417   3.732   0.982 -0.2517  0.0413  0.5763
 5319TIP3   OH237515   6.116   0.412   1.954 -0.3172 -0.7294 -0.0958
 5319TIP3    H137516   6.119   0.367   1.869 -2.5454  2.5049 -2.1376
 5319TIP3    H237517   6.063   0.355   2.010  1.4311 -3.0815 -0.6923
 5320TIP3   OH237518   3.297   4.061   1.028  0.0244  0.0412  0.0587
 5320TIP3    H137519   3.310   4.033   0.937  0.7778 -2.0392  0.7538
 5320TIP3    H237520   3.386   4.070   1.063 -0.2238  1.9906  0.3081
 5321TIP3   OH237521   6.205   6.045   1.641 -0.0798 -0.5850 -0.3444
 5321TIP3    H137522   6.121   6.003   1.628 -0.4541  0.4072 -1.2267
 5321TIP3    H237523   6.257   5.980   1.690 -2.2470 -0.1889  2.8217
 5322TIP3   OH237524   1.463   4.470   8.741 -0.3340  0.8833  0.0549
 5322TIP3    H137525   1.420   4.400   8.692  0.6929  0.4013 -0.1803
 5322TIP3    H237526   1.555   4.465   8.714 -0.1457  1.9665  0.4577
 5323TIP3   OH237527   4.687   6.768   2.457 -0.5239 -0.4493  0.0760
 5323TIP3    H137528   4.646   6.854   2.446  0.0160 -0.4053 -2.3010
 5323TIP3    H237529   4.781   6.787   2.456 -0.3825 -0.9048  1.7520
 5324TIP3   OH237530   4.930   5.217   2.084 -0.6941  0.1721  0.1074
 5324TIP3    H137531   4.975   5.242   2.164 -1.2290 -0.0894  0.4906
 5324TIP3    H237532   4.945   5.290   2.024  0.4782 -0.0268  0.1206
 5325TIP3   OH237533   2.343   3.794   2.045 -0.1005 -0.6241  0.2630
 5325TIP3    H137534   2.355   3.855   1.972  1.0849 -0.8506  0.2546
 5325TIP3    H237535   2.314   3.713   2.004 -0.1079 -0.5509  0.1216
 5326TIP3   OH237536   2.620   2.193   1.518  0.1806 -0.7978  0.6962
 5326TIP3    H137537   2.709   2.163   1.500  0.7998  1.7704 -1.1172
 5326TIP3    H237538   2.574   2.183   1.435 -0.5151  0.0830  0.9615
 5327TIP3   OH237539   3.953   2.195   8.101  0.2544  0.5868  0.4190
 5327TIP3    H137540   3.946   2.105   8.134  0.2000 -1.0239 -3.5296
 5327TIP3    H237541   3.864   2.217   8.073  0.8874  0.2984 -2.0651
 5328TIP3   OH237542   2.118   0.714   8.315 -0.3476  0.8781 -0.2504
 5328TIP3    H137543   2.168   0.751   8.387  1.9175 -2.7648  0.2835
 5328TIP3    H237544   2.028   0.710   8.348  0.6635 -0.9959  2.6982
 5329TIP3   OH237545   5.580   2.032   7.636 -0.3072 -0.0347  0.2404
 5329TIP3    H137546   5.614   2.067   7.554 -1.9640  1.2969  0.0634
 5329TIP3    H237547   5.521   1.962   7.611 -0.3461 -0.0361  0.3350
 5330TIP3   OH237548   2.896   1.684   0.838 -1.0274 -0.8306 -0.0582
 5330TIP3    H137549   2.815   1.685   0.785 -1.8662  0.4849  1.1852
 5330TIP3    H237550   2.866   1.660   0.926  0.1762 -1.7968  0.1046
 5331TIP3   OH237551   6.093   3.198   2.275 -0.0251  0.0189 -0.4225
 5331TIP3    H137552   6.126   3.127   2.329  1.7772  0.9136 -0.2973
 5331TIP3    H237553   6.034   3.247   2.332  1.8054  0.9183  0.7788
 5332TIP3   OH237554   1.400   0.028   2.157 -0.2741  0.4537  0.1493
 5332TIP3    H137555   1.402   0.008   2.251  0.9810  0.8763  0.2342
 5332TIP3    H237556   1.407   0.124   2.153  2.6435  0.3110 -0.3852
 5333TIP3   OH237557   3.105   3.352   1.627 -0.7125  0.5633  0.1413
 5333TIP3    H137558   3.010   3.365   1.622 -0.7150  0.4375 -0.1605
 5333TIP3    H237559   3.142   3.436   1.601 -0.7147 -0.2971 -3.1313
 5334TIP3   OH237560   6.808   0.614   1.048  0.0599 -0.1116  0.5663
 5334TIP3    H137561   6.812   0.633   1.142  1.5428 -1.3027  0.7928
 5334TIP3    H237562   6.758   0.533   1.043 -0.9707  0.5304  0.2002
 5335TIP3   OH237563   3.146   1.465   7.636 -0.1034  0.2350  0.0700
 5335TIP3    H137564   3.186   1.392   7.683  0.0987  0.6114  0.4971
 5335TIP3    H237565   3.220   1.517   7.606 -0.2097  1.9418  2.4477
 5336TIP3   OH237566   4.271   1.431   0.406  0.5671 -0.1378 -0.1929
 5336TIP3    H137567   4.207   1.382   0.354  0.9163  1.0905 -1.8630
 5336TIP3    H237568   4.324   1.364   0.449  0.5921 -1.2413 -1.8633
 5337TIP3   OH237569   0.858   1.536   0.495  0.7496  0.6451 -0.5794
 5337TIP3    H137570   0.870   1.527   0.401  1.7357  1.7909 -0.5973
 5337TIP3    H237571   0.896   1.456   0.532 -1.4043 -0.7391 -1.2090
 5338TIP3   OH237572   1.219   4.386   8.012 -0.5391  0.3633 -0.1578
 5338TIP3    H137573   1.311   4.413   8.011 -0.7122  1.3969  2.4263
 5338TIP3    H237574   1.190   4.394   7.921  1.6498  0.9548 -0.8670
 5339TIP3   OH237575   1.566   4.310   1.155  0.4939 -0.4331  0.6626
 5339TIP3    H137576   1.619   4.281   1.229 -0.3533 -0.2781  1.3507
 5339TIP3    H237577   1.610   4.389   1.123  1.6537 -1.2903  0.0867
 5340TIP3   OH237578   0.302   0.235   7.480  0.3530  0.0416  0.1452
 5340TIP3    H137579   0.391   0.198   7.483 -0.0012 -0.9309 -0.6072
 5340TIP3    H237580   0.312   0.318   7.435  0.9119  0.0178  0.2178
 5341TIP3   OH237581   6.281   3.612   8.212  0.3401 -0.2923  0.0905
 5341TIP3    H137582   6.283   3.569   8.126 -1.5510 -1.2070  0.4385
 5341TIP3    H237583   6.294   3.540   8.274 -0.5164  0.0033  0.6238
 5342TIP3   OH237584   3.172   0.354   0.053  0.1514 -0.0282 -0.4362
 5342TIP3    H137585   3.104   0.294   0.022 -1.5535  1.4718  0.2473
 5342TIP3    H237586   3.158   0.360   0.147  1.5001  0.0291 -0.2143
 5343TIP3   OH237587   6.022   2.407   0.272  0.3646 -0.3743 -0.0074
 5343TIP3    H137588   6.046   2.494   0.239  2.3420 -0.9741 -0.3031
 5343TIP3    H237589   6.029   2.350   0.195  0.2289 -0.9876  0.4312
 5344TIP3   OH237590   1.336   4.610   2.570  0.0334  0.8022 -0.1224
 5344TIP3    H137591   1.371   4.563   2.645 -0.2595  0.5039 -0.1692
 5344TIP3    H237592   1.371   4.699   2.578  2.0800  0.1238 -1.0340
 5345TIP3   OH237593   1.871   1.589   1.947  0.3156 -0.0880  0.4876
 5345TIP3    H137594   1.777   1.581   1.959  0.1721  1.2472  0.3570
 5345TIP3    H237595   1.888   1.683   1.947  1.4610 -0.2502 -1.0105
 5346TIP3   OH237596   2.880   4.557   0.071 -0.1575 -0.1127  0.8382
 5346TIP3    H137597   2.849   4.639   0.108 -2.0101  0.6519 -2.0350
 5346TIP3    H237598   2.928   4.583  -0.008 -3.6862 -1.6951 -2.0965
 5347TIP3   OH237599   6.357   5.243   0.875 -0.2456 -0.3190 -0.1049
 5347TIP3    H137600   6.378   5.334   0.854 -0.8653  0.2051  1.4067
 5347TIP3    H237601   6.273   5.228   0.832  0.1568 -0.3876 -0.8812
 5348TIP3   OH237602   4.294   2.476   7.721  0.1336  0.2582  0.0123
 5348TIP3    H137603   4.306   2.403   7.660  0.6445  0.0714  0.3333
 5348TIP3    H237604   4.233   2.442   7.786  1.8612 -0.5887  1.2648
 5349TIP3   OH237605   3.293   3.982   2.715 -0.4054  0.1329  0.1951
 5349TIP3    H137606   3.215   3.928   2.701 -1.3720  1.4951  0.1358
 5349TIP3    H237607   3.349   3.963   2.640 -1.0502 -0.2599 -0.1986
 5350TIP3   OH237608   1.765   1.178   2.341  0.0466  0.2495  0.7429
 5350TIP3    H137609   1.821   1.187   2.419 -0.6296 -0.9660  1.3922
 5350TIP3    H237610   1.679   1.207   2.370 -0.2982 -0.5771  0.5643
 5351TIP3   OH237611   5.069   2.673   1.601 -0.2854 -0.2712  0.2841
 5351TIP3    H137612   5.118   2.742   1.646 -0.9547  1.4518 -1.5238
 5351TIP3    H237613   5.109   2.668   1.514 -1.2195 -1.1042 -0.1131
 5352TIP3   OH237614   3.255   1.793   8.442  0.2047  0.6273  0.5521
 5352TIP3    H137615   3.320   1.797   8.372  1.0898 -0.7821  1.2573
 5352TIP3    H237616   3.250   1.883   8.475  0.5240  1.0946 -0.6237
 5353TIP3   OH237617   6.521   5.524   1.614  0.4948  0.2006 -0.2415
 5353TIP3    H137618   6.471   5.443   1.609 -0.2337  0.6035  0.3091
 5353TIP3    H237619   6.595   5.503   1.671  0.8728 -0.3471 -0.9143
 5354TIP3   OH237620   6.307   6.003   6.865 -0.1028 -0.5625  0.1169
 5354TIP3    H137621   6.290   6.042   6.780 -2.7958 -1.5635  0.1105
 5354TIP3    H237622   6.402   5.985   6.865  0.1365  0.3980 -2.2091
 5355TIP3   OH237623   1.786   5.686   0.754 -0.0006 -0.3048 -0.0412
 5355TIP3    H137624   1.693   5.673   0.774  0.0618 -0.4406  0.1654
 5355TIP3    H237625   1.797   5.648   0.667  0.1866 -1.7283  0.5761
 5356TIP3   OH237626   5.690   3.059   1.387  0.6889  0.6236  0.1823
 5356TIP3    H137627   5.764   2.998   1.385  1.0175  1.0489 -1.3928
 5356TIP3    H237628   5.695   3.107   1.305 -1.6470  0.2987 -0.2343
 5357TIP3   OH237629   2.474   4.427   1.500 -0.0664 -0.0183 -0.1057
 5357TIP3    H137630   2.527   4.409   1.422  3.1274  2.4016  1.2921
 5357TIP3    H237631   2.524   4.389   1.572 -0.7391  1.4203  1.1708
 5358TIP3   OH237632   1.399   4.500   0.236 -0.3762 -0.8295 -0.2258
 5358TIP3    H137633   1.438   4.502   0.149 -1.7557 -2.0057 -0.9171
 5358TIP3    H237634   1.385   4.593   0.258  0.2260 -0.5127 -1.1462
 5359TIP3   OH237635   4.995   1.044   1.594  0.7209 -0.0285  0.3919
 5359TIP3    H137636   4.913   1.004   1.624  0.6885 -1.8939 -1.8686
 5359TIP3    H237637   5.036   1.078   1.673 -1.7639  0.0991  1.7321
 5360TIP3   OH237638   3.551   2.728   2.280 -0.7966 -0.1867  0.5201
 5360TIP3    H137639   3.533   2.816   2.312  0.8386  0.4700 -0.2248
 5360TIP3    H237640   3.585   2.681   2.357  2.1223  1.0766  0.1611
 5361TIP3   OH237641   4.866   4.383   7.651 -0.0422 -0.1425 -0.2783
 5361TIP3    H137642   4.909   4.371   7.567  2.2453 -0.2142  0.8249
 5361TIP3    H237643   4.806   4.456   7.637 -0.7785 -1.0773 -2.3067
 5362TIP3   OH237644   4.140   6.714   1.871 -0.0252 -0.2466 -0.2899
 5362TIP3    H137645   4.149   6.640   1.930  0.7639  1.7242  2.2363
 5362TIP3    H237646   4.229   6.738   1.848 -0.1906  0.6813 -0.0219
 5363TIP3   OH237647   3.812   4.670   0.135 -0.7198 -0.6116  0.3236
 5363TIP3    H137648   3.791   4.580   0.161 -1.5856 -0.4214  0.2990
 5363TIP3    H237649   3.784   4.723   0.209 -1.0730 -0.2753 -0.0489
 5364TIP3   OH237650   4.501   1.248   2.614 -0.2875 -0.3834  0.4006
 5364TIP3    H137651   4.511   1.281   2.525  0.0244  0.0763  0.5996
 5364TIP3    H237652   4.574   1.286   2.662 -2.1254  1.9529  1.5703
 5365TIP3   OH237653   3.818   3.542   8.538  0.4281 -0.6055 -0.2884
 5365TIP3    H137654   3.764   3.610   8.497 -0.5942 -0.6156  0.9733
 5365TIP3    H237655   3.871   3.590   8.602  0.2195 -0.9111  0.1106
 5366TIP3   OH237656   3.511   0.410   8.304  0.3073  0.0019 -0.0407
 5366TIP3    H137657   3.589   0.461   8.324  1.0488 -0.3541 -1.8845
 5366TIP3    H237658   3.438   0.463   8.337  1.0642  2.1930 -1.7258
 5367TIP3   OH237659   2.849   2.654   1.435 -0.6440  0.4932  0.4483
 5367TIP3    H137660   2.860   2.725   1.371 -0.8190 -1.3133 -1.6830
 5367TIP3    H237661   2.762   2.619   1.416 -0.3112 -0.6971  1.0560
 5368TIP3   OH237662   6.430   4.694   2.187  0.5866  0.5215 -0.3127
 5368TIP3    H137663   6.369   4.620   2.192 -0.3722  1.1764 -1.6649
 5368TIP3    H237664   6.457   4.709   2.278 -0.2777 -0.5849  0.1556
 5369TIP3   OH237665   2.437   0.927   1.942  0.2085 -0.1975  0.4802
 5369TIP3    H137666   2.368   0.860   1.936  0.7991 -0.8060  0.3595
 5369TIP3    H237667   2.397   1.006   1.906 -0.1765 -0.7438 -0.3310
 5370TIP3   OH237668   3.671   4.469   0.454 -0.2367 -0.1387  0.3397
 5370TIP3    H137669   3.752   4.461   0.404 -1.3543  0.0177 -1.5850
 5370TIP3    H237670   3.650   4.562   0.453 -1.0730 -0.3233 -0.2457
 5371TIP3   OH237671   3.736   0.054   2.241  0.4009 -0.4989  0.0729
 5371TIP3    H137672   3.716   0.010   2.325  0.9667  0.8923  0.9615
 5371TIP3    H237673   3.734   0.147   2.262 -0.2474 -0.0862 -1.6666
 5372TIP3   OH237674   3.765   1.543   2.336 -0.2887 -0.6886 -0.0136
 5372TIP3    H137675   3.699   1.596   2.289 -0.3552  0.0094  0.8359
 5372TIP3    H237676   3.765   1.579   2.424  2.6427  0.6670 -0.4543
 5373TIP3   OH237677   4.033   6.211   7.450  0.0920  0.1953 -0.5266
 5373TIP3    H137678   3.983   6.151   7.394 -1.0838  0.5032  0.1657
 5373TIP3    H237679   4.117   6.166   7.463  0.5414  0.2759 -2.7952
 5374TIP3   OH237680   2.388   6.123   0.046 -0.2465 -0.1236  0.0470
 5374TIP3    H137681   2.475   6.157   0.028 -0.5293  0.7429  0.2815
 5374TIP3    H237682   2.334   6.154  -0.027 -0.3337 -0.7954 -0.1872
 5375TIP3   OH237683   2.152   5.557   7.653 -0.1133 -0.7355  0.0345
 5375TIP3    H137684   2.059   5.565   7.673 -0.7549 -0.8631 -2.5727
 5375TIP3    H237685   2.195   5.620   7.711 -1.8086 -0.5736  1.1754
 5376TIP3   OH237686   1.214   3.655   1.481  0.0661 -0.1680 -0.3153
 5376TIP3    H137687   1.235   3.594   1.552 -0.2863 -0.0851 -0.1358
 5376TIP3    H237688   1.134   3.699   1.511 -1.5444 -1.8739 -1.8439
 5377TIP3   OH237689   6.559   5.922   1.444 -0.4800 -1.1031 -0.0406
 5377TIP3    H137690   6.635   5.866   1.461 -1.1970 -1.7582  1.0610
 5377TIP3    H237691   6.596   6.011   1.441  0.2622 -1.3421  1.1203
 5378TIP3   OH237692   5.391   2.367   0.152  0.6003  0.3697  0.4577
 5378TIP3    H137693   5.379   2.386   0.245  0.7798  1.1736  0.3219
 5378TIP3    H237694   5.302   2.365   0.116  0.5674  0.8024  0.5088
 5379TIP3   OH237695   3.056   0.575   1.198 -0.2766 -0.5533 -0.1094
 5379TIP3    H137696   3.008   0.628   1.134 -0.5003 -0.1861  0.3588
 5379TIP3    H237697   3.072   0.634   1.271  0.9006 -0.6760 -0.2573
 5380TIP3   OH237698   6.050   1.423   1.035 -0.4523 -0.2723 -0.0014
 5380TIP3    H137699   6.090   1.338   1.014  0.1146 -0.0470  0.1599
 5380TIP3    H237700   6.029   1.418   1.128  2.6351  0.9593  0.8689
 5381TIP3   OH237701   6.478   0.121   0.381  0.1437 -0.4467  0.2183
 5381TIP3    H137702   6.419   0.139   0.308  2.0640  2.4108 -0.8011
 5381TIP3    H237703   6.448   0.180   0.450  0.5304 -0.4986  0.4333
 5382TIP3   OH237704   6.436   2.926   7.604  0.1003  0.3080 -0.0978
 5382TIP3    H137705   6.356   2.944   7.653  1.0596  0.9133  1.3336
 5382TIP3    H237706   6.490   3.005   7.617  1.9245 -1.0530  1.0934
 5383TIP3   OH237707   0.002   6.682   1.865 -0.1445  0.7167 -0.4587
 5383TIP3    H137708  -0.038   6.662   1.950  1.6456  1.7501  0.6950
 5383TIP3    H237709  -0.059   6.743   1.823 -1.1462  0.0367 -0.0037
 5384TIP3   OH237710   4.730   6.142   2.746  0.1893 -0.4019  0.2966
 5384TIP3    H137711   4.644   6.182   2.747  1.2442  2.0679 -0.8274
 5384TIP3    H237712   4.729   6.083   2.670 -0.6757 -0.9079  0.6838
 5385TIP3   OH237713   2.691   4.152   2.393 -0.0531 -1.1335 -0.4001
 5385TIP3    H137714   2.685   4.237   2.350  1.7901 -1.2389 -0.9621
 5385TIP3    H237715   2.616   4.103   2.359  0.1712 -0.5105 -1.8782
 5386TIP3   OH237716   2.111   0.758   0.791  0.2383  0.0664  0.8111
 5386TIP3    H137717   2.189   0.744   0.738 -0.5216  1.1359 -0.6436
 5386TIP3    H237718   2.091   0.671   0.827  1.5893 -0.3914  0.5139
 5387TIP3   OH237719   5.053   4.569   1.494 -0.3231 -0.3351  0.2139
 5387TIP3    H137720   4.979   4.621   1.463 -1.4323 -0.5711  2.2756
 5387TIP3    H237721   5.130   4.618   1.466 -1.2048 -0.0381 -1.9219
 5388TIP3   OH237722   4.324   2.017   7.801 -0.5293  0.1103  0.0306
 5388TIP3    H137723   4.406   1.968   7.801 -0.2527  0.5669 -0.7086
 5388TIP3    H237724   4.300   2.023   7.894  0.1718 -0.1852  0.2376
 5389TIP3   OH237725   0.859   0.706   0.591  0.0024  0.7054 -0.1544
 5389TIP3    H137726   0.858   0.687   0.497 -1.0429  1.1665 -0.2563
 5389TIP3    H237727   0.795   0.645   0.628  1.0618 -0.0914  0.4021
 5390TIP3   OH237728   0.305   3.336   0.800 -0.4433  0.2508  0.9260
 5390TIP3    H137729   0.386   3.297   0.833  1.2928  2.0344 -0.9135
 5390TIP3    H237730   0.284   3.284   0.722 -0.3851  0.5041  0.7398
 5391TIP3   OH237731   0.543   1.416   8.447  0.0213 -0.6811 -0.4987
 5391TIP3    H137732   0.470   1.376   8.400  2.2899 -2.7406 -2.5104
 5391TIP3    H237733   0.608   1.434   8.379  1.4891  0.9705  1.2412
 5392TIP3   OH237734   6.803   6.294   2.732 -0.2863 -0.4766 -0.0376
 5392TIP3    H137735   6.713   6.260   2.734 -0.5443  0.1974  1.1801
 5392TIP3    H237736   6.800   6.365   2.669 -0.5205 -0.6906 -0.2708
 5393TIP3   OH237737   2.518   4.044   0.764  0.9067 -0.2282  0.1051
 5393TIP3    H137738   2.473   4.127   0.747 -1.3983 -1.5153 -0.5339
 5393TIP3    H237739   2.545   4.049   0.855  0.4239  1.0645  0.1986
 5394TIP3   OH237740   4.936   4.694   0.032  0.1128 -0.9379 -0.0718
 5394TIP3    H137741   4.954   4.675   0.124  0.9817  0.7210  0.1366
 5394TIP3    H237742   4.965   4.615  -0.014  0.3303 -1.5082  1.0087
 5395TIP3   OH237743   3.265   1.239   7.747  0.1295 -0.6002  0.0269
 5395TIP3    H137744   3.233   1.215   7.659  1.1551 -1.1104 -0.2257
 5395TIP3    H237745   3.340   1.182   7.761 -0.2465 -0.7923  1.4129
 5396TIP3   OH237746   6.210   5.529   0.167  0.2487  0.7237  0.1334
 5396TIP3    H137747   6.225   5.497   0.256  0.3216  0.9321  0.1979
 5396TIP3    H237748   6.200   5.450   0.114 -3.3301  0.5266  0.8896
 5397TIP3   OH237749   1.387   3.717   0.602  0.8840 -0.0285  0.0197
 5397TIP3    H137750   1.445   3.651   0.564  2.0787 -0.3260  2.2049
 5397TIP3    H237751   1.445   3.777   0.647 -0.3758  0.9527  0.3884
 5398TIP3   OH237752   5.772   3.094   0.147  0.0206 -0.7615 -0.5444
 5398TIP3    H137753   5.802   3.034   0.216  0.1047  2.5553  2.6075
 5398TIP3    H237754   5.852   3.126   0.106  0.1458 -0.5637 -0.1484
 5399TIP3   OH237755   1.637   4.807   0.860  0.1224 -0.6165 -0.1199
 5399TIP3    H137756   1.709   4.750   0.888 -0.8544 -0.8733  2.1108
 5399TIP3    H237757   1.569   4.747   0.831  0.3716 -0.4172 -1.1493
 5400TIP3   OH237758   2.783   1.281   7.005  0.1037 -0.2349  0.2656
 5400TIP3    H137759   2.831   1.238   7.076  0.0430 -2.1595 -0.7910
 5400TIP3    H237760   2.695   1.293   7.041 -0.2307 -2.1806  0.2233
 5401TIP3   OH237761   6.178   4.625   2.421 -0.3626  0.5417  0.2526
 5401TIP3    H137762   6.190   4.554   2.358  3.2777 -0.9686  2.3611
 5401TIP3    H237763   6.171   4.704   2.367  0.1073 -0.9232 -2.0789
 5402TIP3   OH237764   3.148   2.557   7.571 -0.2509 -0.0595  0.3126
 5402TIP3    H137765   3.127   2.593   7.485 -0.5778 -0.0707  0.3851
 5402TIP3    H237766   3.063   2.533   7.608 -0.1345  0.1769  0.7398
 5403TIP3   OH237767   5.827   4.967   0.747  0.1778 -0.4735  0.4017
 5403TIP3    H137768   5.834   4.929   0.834 -0.9055 -2.1056 -0.1929
 5403TIP3    H237769   5.819   4.892   0.688  0.0037  0.6218 -1.0231
 5404TIP3   OH237770   2.908   2.071   2.559  0.5022 -0.3426  0.1556
 5404TIP3    H137771   2.862   2.154   2.575  1.3805  0.2818 -0.4660
 5404TIP3    H237772   2.923   2.069   2.465  1.2359 -0.8029  0.2690
 5405TIP3   OH237773   2.844   0.303   1.276  0.2863 -0.0853  0.9799
 5405TIP3    H137774   2.769   0.361   1.288  1.3530  0.8793  3.5994
 5405TIP3    H237775   2.917   0.348   1.319  2.6967 -0.5246 -2.1939
 5406TIP3   OH237776   1.548   3.266   0.609  0.1316 -0.7289  0.1087
 5406TIP3    H137777   1.589   3.294   0.692 -0.4114  0.7565 -0.0833
 5406TIP3    H237778   1.472   3.215   0.636  0.1022 -0.4714  0.5306
 5407TIP3   OH237779   0.074   4.605   7.387  0.5631 -0.7127 -0.5412
 5407TIP3    H137780   0.091   4.630   7.296  1.1087  0.0059 -0.2513
 5407TIP3    H237781   0.120   4.521   7.397  0.4128 -0.8489 -0.9539
 5408TIP3   OH237782   1.076   3.499   0.319  0.1326  0.1837 -0.1688
 5408TIP3    H137783   1.008   3.518   0.384 -0.9060 -0.1469 -1.1234
 5408TIP3    H237784   1.093   3.405   0.330 -0.4279  0.0143 -0.7222
 5409TIP3   OH237785   2.721   3.488   2.950  0.2937  0.1067  0.6140
 5409TIP3    H137786   2.756   3.577   2.948  2.5458 -0.7041 -0.6025
 5409TIP3    H237787   2.658   3.488   3.022  1.0030  2.3909  1.3244
 5410TIP3   OH237788   1.508   0.628   8.311 -0.3893  0.1584  0.5842
 5410TIP3    H137789   1.578   0.609   8.373  2.0049  1.7357 -1.4176
 5410TIP3    H237790   1.513   0.723   8.298 -2.4585  0.2110 -0.1903
 5411TIP3   OH237791   2.780   5.232   8.183  0.1257 -0.4678  0.1391
 5411TIP3    H137792   2.867   5.215   8.149 -0.0145 -0.0476 -0.4422
 5411TIP3    H237793   2.785   5.321   8.217  0.7261 -1.4060  2.7357
 5412TIP3   OH237794   3.010   4.184   0.920 -0.2409  0.2006 -0.3140
 5412TIP3    H137795   3.029   4.100   0.963  1.2741  0.7601  0.1923
 5412TIP3    H237796   3.018   4.166   0.827  0.0390 -0.2241 -0.2101
 5413TIP3   OH237797   4.097   4.587   8.034 -0.2761  0.4635 -0.7724
 5413TIP3    H137798   4.122   4.665   7.984 -0.9862  0.5152 -1.0745
 5413TIP3    H237799   4.010   4.608   8.068 -1.2889 -0.8731 -2.3971
 5414TIP3   OH237800   3.494   3.701   3.182 -0.1020 -0.7434 -0.1996
 5414TIP3    H137801   3.418   3.729   3.130 -0.7690 -0.2148  1.0246
 5414TIP3    H237802   3.498   3.607   3.169 -0.1923 -0.6192 -1.2723
 5415TIP3   OH237803   1.440   1.578   2.232  0.5539 -0.1042  0.1852
 5415TIP3    H137804   1.415   1.553   2.321  0.9564 -0.7345  0.1332
 5415TIP3    H237805   1.414   1.669   2.224 -0.4343 -0.3356  0.5929
 5416TIP3   OH237806   2.064   3.791   6.733 -0.0534 -0.4285 -0.4496
 5416TIP3    H137807   2.137   3.816   6.677  0.3320  1.5943  0.8547
 5416TIP3    H237808   2.091   3.708   6.772  1.5180  0.2333 -0.0654
 5417TIP3   OH237809   0.861   3.637   7.550  0.0726 -0.0044  0.0534
 5417TIP3    H137810   0.947   3.671   7.527 -0.2577  2.2227  1.8013
 5417TIP3    H237811   0.868   3.608   7.641 -1.3896  1.7949  0.7993
 5418TIP3   OH237812   2.236   3.113   7.822  0.1528 -0.1099  0.1337
 5418TIP3    H137813   2.188   3.032   7.838  0.6950 -0.2866  0.9745
 5418TIP3    H237814   2.193   3.153   7.747 -0.2660 -1.0670 -0.1484
 5419TIP3   OH237815   6.090   1.428   7.616 -0.3077  0.0198  0.1807
 5419TIP3    H137816   6.085   1.521   7.638 -1.8088  0.0293 -0.1546
 5419TIP3    H237817   6.031   1.417   7.541  3.7246 -0.2015 -3.3943
 5420TIP3   OH237818   4.976   5.543   8.444  0.4848  0.4173 -0.4461
 5420TIP3    H137819   5.030   5.563   8.520 -0.1277  0.3688  0.0089
 5420TIP3    H237820   5.026   5.477   8.395  0.7120  0.1792  0.1062
 5421TIP3   OH237821   5.661   1.830   1.858 -0.5302 -0.3205 -0.1281
 5421TIP3    H137822   5.693   1.901   1.914  0.6604 -0.6997 -0.2801
 5421TIP3    H237823   5.597   1.872   1.800  1.1802  0.9865 -1.1904
 5422TIP3   OH237824   1.054   1.214   7.572  0.3011 -0.4260  0.0104
 5422TIP3    H137825   1.098   1.255   7.497  0.4442 -3.1347 -1.4925
 5422TIP3    H237826   0.991   1.280   7.602  2.0872  1.7489 -0.7537
 5423TIP3   OH237827   2.768   6.020   1.126  0.2561  0.3012  0.5053
 5423TIP3    H137828   2.787   5.947   1.185 -0.5038  0.8444  1.4519
 5423TIP3    H237829   2.673   6.017   1.115  0.3063  0.6916 -0.0674
 5424TIP3   OH237830   4.363   0.207   7.554  0.2744  0.2959 -0.4443
 5424TIP3    H137831   4.343   0.293   7.590 -0.5152  1.2897 -2.9990
 5424TIP3    H237832   4.446   0.219   7.508  0.8003 -0.6719  0.2123
 5425TIP3   OH237833   0.196   0.494   0.409  0.2174 -0.0002 -0.3017
 5425TIP3    H137834   0.252   0.566   0.379 -0.3653  0.7874  0.4226
 5425TIP3    H237835   0.146   0.468   0.331  1.4142 -0.5657 -0.8947
 5426TIP3   OH237836   2.093   0.036   1.276 -0.7816  0.3209  0.3739
 5426TIP3    H137837   2.069  -0.040   1.329 -0.3670 -0.0584  0.0273
 5426TIP3    H237838   2.077   0.008   1.186  0.8007  0.0887  0.1298
 5427TIP3   OH237839   1.487   5.895   0.186 -0.4311  0.0041 -0.0559
 5427TIP3    H137840   1.466   5.810   0.147  0.8844 -0.9981  1.2787
 5427TIP3    H237841   1.470   5.959   0.117 -2.5598 -1.2142 -0.7139
 5428TIP3   OH237842   1.402   6.131   7.864 -0.1683 -0.0351 -0.1241
 5428TIP3    H137843   1.329   6.068   7.867 -0.9709  0.8660  2.5708
 5428TIP3    H237844   1.360   6.215   7.845  0.4175  0.2391 -0.2252
 5429TIP3   OH237845   6.647   2.743   2.575  0.2577  0.3257  0.5444
 5429TIP3    H137846   6.594   2.722   2.498  1.2988 -1.7800  0.3210
 5429TIP3    H237847   6.606   2.820   2.613 -1.2010  0.4845 -1.2485
 5430TIP3   OH237848   2.429   5.777   2.994 -0.8130  0.2275  0.3984
 5430TIP3    H137849   2.500   5.761   2.932 -0.1243 -0.3634  1.3093
 5430TIP3    H237850   2.359   5.718   2.966 -0.4599 -0.1257  0.2484
 5431TIP3   OH237851   0.509   2.375   2.346  0.2429 -0.7485  0.8050
 5431TIP3    H137852   0.504   2.457   2.296 -0.7893 -0.3417  1.5429
 5431TIP3    H237853   0.429   2.374   2.399  0.3160 -2.1589  0.9338
 5432TIP3   OH237854   6.464   3.131   8.345  0.1719 -0.2894 -0.0454
 5432TIP3    H137855   6.531   3.078   8.301  1.2240 -0.7764  2.0293
 5432TIP3    H237856   6.507   3.162   8.425 -1.1741  1.8302 -0.0821
 5433TIP3   OH237857   4.332   3.288   0.101 -0.6986  0.3916  0.1009
 5433TIP3    H137858   4.360   3.205   0.063 -0.1068  1.0943 -1.0560
 5433TIP3    H237859   4.240   3.296   0.075 -1.5724 -1.1272  2.4850
 5434TIP3   OH237860   5.484   5.974   1.415 -0.4377  0.0729  0.3447
 5434TIP3    H137861   5.418   6.037   1.446  0.1291  0.6315  0.4341
 5434TIP3    H237862   5.513   5.930   1.495  0.6963  1.1984  0.5956
 5435TIP3   OH237863   2.851   3.103   8.653  0.0866  0.1147 -0.1168
 5435TIP3    H137864   2.817   3.146   8.574  0.4757  1.2079  0.2848
 5435TIP3    H237865   2.937   3.144   8.667  0.2204 -0.3971  0.6201
 5436TIP3   OH237866   1.008   3.683   2.348  0.1712 -0.5259  0.0453
 5436TIP3    H137867   1.050   3.687   2.434 -0.4870  1.1575  0.3149
 5436TIP3    H237868   1.060   3.741   2.293 -2.3700  2.6533  0.7058
 5437TIP3   OH237869   1.368   1.527   2.784 -0.1643 -0.1455  0.1825
 5437TIP3    H137870   1.422   1.564   2.854 -0.1640  0.0032  0.1034
 5437TIP3    H237871   1.318   1.457   2.827  0.9391 -1.0608  0.0060
 5438TIP3   OH237872   2.599   5.560   1.274  0.5930 -0.1844  0.7858
 5438TIP3    H137873   2.592   5.546   1.179 -0.7476 -0.6464  0.9313
 5438TIP3    H237874   2.691   5.542   1.294  1.3715  1.7502 -0.7015
 5439TIP3   OH237875   4.347   5.380   7.291 -1.0136 -0.2501 -0.5260
 5439TIP3    H137876   4.360   5.344   7.203  0.9614  4.1594 -2.3154
 5439TIP3    H237877   4.271   5.438   7.282  2.5306  4.8829 -1.3842
 5440TIP3   OH237878   4.042   1.705   7.048  0.1693 -0.4721  0.2843
 5440TIP3    H137879   4.045   1.789   7.003 -0.8551 -0.6799 -0.2178
 5440TIP3    H237880   4.084   1.720   7.132 -0.9003  0.8220  0.6194
 5441TIP3   OH237881   1.140   5.124   1.042 -0.5288  0.4173 -0.4549
 5441TIP3    H137882   1.213   5.143   0.983  0.3171  2.0301  1.0219
 5441TIP3    H237883   1.122   5.207   1.087  0.2702 -1.0942  3.0150
 5442TIP3   OH237884   4.401   3.586   7.461 -0.2974 -0.1112  1.1728
 5442TIP3    H137885   4.352   3.662   7.428  0.3507 -0.7363 -1.4502
 5442TIP3    H237886   4.334   3.520   7.479 -0.8848  1.0405  3.6488
 5443TIP3   OH237887   1.117   6.625   8.093 -0.3765 -0.1829 -0.5312
 5443TIP3    H137888   1.027   6.617   8.124 -0.2675 -0.4397 -0.2770
 5443TIP3    H237889   1.152   6.536   8.098  0.1097  0.0361  0.0409
 5444TIP3   OH237890   5.431   1.623   1.329 -0.3881 -0.8869 -0.0660
 5444TIP3    H137891   5.473   1.549   1.373 -0.9291 -0.9729  0.3116
 5444TIP3    H237892   5.340   1.597   1.319 -0.2110 -1.0288 -1.5952
 5445TIP3   OH237893   0.728   2.933   1.587  0.3661 -0.5682 -0.3622
 5445TIP3    H137894   0.774   2.948   1.505 -0.1442 -1.1710 -0.7638
 5445TIP3    H237895   0.637   2.954   1.568  0.6523  2.1360  0.8357
 5446TIP3   OH237896   2.885   3.962   1.073 -0.6117  0.1091 -0.6222
 5446TIP3    H137897   2.797   3.989   1.098 -0.5833 -0.4854  0.1563
 5446TIP3    H237898   2.943   4.018   1.124 -0.5552 -0.7765  0.3324
 5447TIP3   OH237899   5.967   5.061   7.194  0.9265  0.1828 -0.1511
 5447TIP3    H137900   6.035   5.023   7.250  0.8490  1.2744  0.7100
 5447TIP3    H237901   5.917   5.118   7.252 -0.4979 -0.2864 -0.8561
 5448TIP3   OH237902   4.807   0.614   2.213 -0.1311  0.1504  0.4526
 5448TIP3    H137903   4.836   0.689   2.161 -0.5245  0.1635  0.2533
 5448TIP3    H237904   4.808   0.647   2.303 -1.7866  0.8892  0.2339
 5449TIP3   OH237905   3.403   3.730   0.994  0.9691 -0.1235  0.3763
 5449TIP3    H137906   3.312   3.709   1.013  0.2878  0.2833 -2.1617
 5449TIP3    H237907   3.408   3.733   0.899  3.7655 -0.6567  0.4178
 5450TIP3   OH237908   0.093   6.668   1.555  0.0293  0.0965  0.3841
 5450TIP3    H137909   0.083   6.581   1.594 -1.6815  0.2799  0.4252
 5450TIP3    H237910   0.118   6.650   1.464 -1.2128 -0.4987  0.1267
 5451TIP3   OH237911   1.518   5.026   0.077 -0.2540 -0.3528  0.0482
 5451TIP3    H137912   1.542   5.009   0.168 -0.1662 -0.7010 -0.0375
 5451TIP3    H237913   1.587   4.982   0.026 -0.4968 -0.4619 -0.1872
 5452TIP3   OH237914   3.328   6.007   0.415 -0.6419  0.2711  0.1290
 5452TIP3    H137915   3.310   5.944   0.345  2.3526 -0.0429 -0.4936
 5452TIP3    H237916   3.386   6.072   0.375  1.7575 -0.2897  2.3887
 5453TIP3   OH237917   2.593   5.239   0.614  0.1180  0.8291 -0.1685
 5453TIP3    H137918   2.658   5.268   0.679  0.2497  0.9485 -0.3509
 5453TIP3    H237919   2.509   5.260   0.653  0.1499 -0.2771  0.5259
 5454TIP3   OH237920   4.660   3.403   0.591 -0.1347  0.2163 -0.2587
 5454TIP3    H137921   4.716   3.352   0.649 -0.7959  0.3827  0.5472
 5454TIP3    H237922   4.586   3.428   0.645 -0.6530  0.5904 -1.1148
 5455TIP3   OH237923   2.428   3.767   0.403 -0.3627  0.7688 -0.4630
 5455TIP3    H137924   2.422   3.862   0.409 -1.1240  0.6977  0.1188
 5455TIP3    H237925   2.347   3.735   0.443 -0.2460 -0.1179 -0.9072
 5456TIP3   OH237926   6.311   2.717   2.336 -0.3141 -0.0572 -0.0266
 5456TIP3    H137927   6.316   2.642   2.394  0.0978 -0.4985 -0.6183
 5456TIP3    H237928   6.365   2.693   2.260 -2.1654 -0.1913 -1.3596
 5457TIP3   OH237929   5.359   5.399   1.503  0.6326 -0.4068  0.0136
 5457TIP3    H137930   5.266   5.396   1.526  0.6839  1.0696  0.5443
 5457TIP3    H237931   5.378   5.312   1.469 -1.3602 -0.2551 -1.7497
 5458TIP3   OH237932   4.498   6.027   8.062 -0.1523 -0.6151  0.0744
 5458TIP3    H137933   4.478   6.108   8.108 -0.1783  0.9501 -2.5018
 5458TIP3    H237934   4.422   6.013   8.005  1.9730  0.5224 -3.3269
 5459TIP3   OH237935   5.477   2.578   6.948 -0.5435 -0.1200 -0.3306
 5459TIP3    H137936   5.487   2.485   6.968 -0.0383 -0.0463 -0.2156
 5459TIP3    H237937   5.550   2.620   6.994 -1.2663  0.4357  0.3245
 5460TIP3   OH237938   2.503   4.604   8.520  0.5410 -0.1264  0.2124
 5460TIP3    H137939   2.503   4.662   8.595  0.4713 -0.2521  0.3091
 5460TIP3    H237940   2.579   4.632   8.468 -1.3766  2.3380 -1.5173
 5461TIP3   OH237941   5.701   1.953   7.866 -0.3136  0.2664 -0.6648
 5461TIP3    H137942   5.678   1.996   7.783  0.5891 -1.0722 -1.6531
 5461TIP3    H237943   5.642   1.878   7.871 -0.3517  0.3316 -0.0957
 5462TIP3   OH237944   4.685   0.548   7.627 -0.0194 -0.5208 -0.4764
 5462TIP3    H137945   4.756   0.486   7.610 -0.0439 -0.8740  0.6287
 5462TIP3    H237946   4.654   0.525   7.715  0.9718  2.0378  0.6195
 5463TIP3   OH237947   4.038   2.295   1.784  0.5278  0.3786 -0.1098
 5463TIP3    H137948   4.026   2.266   1.874 -0.6268 -0.3059 -0.4674
 5463TIP3    H237949   3.954   2.276   1.741  0.7209  1.5953 -1.0842
 5464TIP3   OH237950   5.853   6.775   6.602 -0.1087  0.5769  0.1912
 5464TIP3    H137951   5.860   6.765   6.507  0.5504  1.1264  0.1713
 5464TIP3    H237952   5.853   6.686   6.636  2.7430  0.3781 -0.1281
 5465TIP3   OH237953   2.330   3.658   0.157  0.2107  0.4452  0.6406
 5465TIP3    H137954   2.349   3.692   0.245  0.6118 -1.1517  1.2032
 5465TIP3    H237955   2.350   3.565   0.163 -4.1992 -0.7416  0.2280
 5466TIP3   OH237956   6.197   1.205   1.755  0.1691  0.2155 -0.2693
 5466TIP3    H137957   6.163   1.123   1.719 -0.6610  0.8800 -1.0828
 5466TIP3    H237958   6.281   1.217   1.711 -0.2019  0.3194 -0.9812
 5467TIP3   OH237959   3.966   2.461   7.624 -0.4949 -0.0493 -0.0816
 5467TIP3    H137960   3.933   2.486   7.537  0.3170  0.2705 -0.3086
 5467TIP3    H237961   3.898   2.404   7.660 -1.9231  1.6284  0.0169
 5468TIP3   OH237962   0.565   2.677   3.226  0.1091  0.1075 -0.3151
 5468TIP3    H137963   0.610   2.729   3.159  0.1472  0.1156 -0.2836
 5468TIP3    H237964   0.623   2.603   3.243 -0.9126 -1.0926 -1.8709
 5469TIP3   OH237965   0.592   3.318   1.210  0.2769  0.6020 -0.0094
 5469TIP3    H137966   0.598   3.413   1.198 -0.4125  0.4508 -1.8083
 5469TIP3    H237967   0.570   3.307   1.303  1.2003  2.1454  0.4347
 5470TIP3   OH237968   5.929   6.776   0.870 -0.1466  0.0400 -0.1813
 5470TIP3    H137969   5.939   6.868   0.845 -1.1649  0.9561  2.4600
 5470TIP3    H237970   6.008   6.757   0.922  0.1817 -0.6978 -0.9173
 5471TIP3   OH237971   5.561   3.154   1.630 -0.1929  0.2585 -0.9972
 5471TIP3    H137972   5.614   3.128   1.554  0.5218 -1.4161  0.0228
 5471TIP3    H237973   5.625   3.178   1.697 -0.7953  0.9257 -0.6567
 5472TIP3   OH237974   0.609   0.427   7.748  0.4249 -0.5443  0.4423
 5472TIP3    H137975   0.638   0.496   7.808  0.1155 -1.4883  1.7303
 5472TIP3    H237976   0.690   0.396   7.706  0.7189 -0.2196  0.7663
 5473TIP3   OH237977   6.283   5.933   8.265  0.3504 -0.2437 -0.0286
 5473TIP3    H137978   6.261   5.927   8.172  1.7272 -0.1306 -0.3918
 5473TIP3    H237979   6.341   5.858   8.281 -0.2969 -0.5628  0.8723
 5474TIP3   OH237980   3.817   0.550   2.087  0.3863 -0.0640 -0.6090
 5474TIP3    H137981   3.893   0.521   2.038  0.1765  0.2007 -1.1026
 5474TIP3    H237982   3.784   0.625   2.038  1.2392  1.3888  0.9073
 5475TIP3   OH237983   5.398   6.025   7.526  0.4396  0.6286  0.3987
 5475TIP3    H137984   5.419   5.991   7.439 -1.6636 -0.8553  0.3972
 5475TIP3    H237985   5.303   6.040   7.524  0.6331  2.4742  1.8360
 5476TIP3   OH237986   0.208   3.156   1.232  0.0372  0.3387 -0.1108
 5476TIP3    H137987   0.184   3.245   1.260 -0.4579  0.0827  0.2981
 5476TIP3    H237988   0.146   3.099   1.278  0.1212 -0.1952 -0.6467
 5477TIP3   OH237989   1.140   0.472   6.749  0.0318  0.2796  0.2144
 5477TIP3    H137990   1.200   0.541   6.777  0.6639 -0.3307  0.3823
 5477TIP3    H237991   1.109   0.502   6.663  1.0450  0.3279 -0.1570
 5478TIP3   OH237992   3.102   3.542   2.144 -0.5299  0.7073  0.4314
 5478TIP3    H137993   3.120   3.635   2.160  1.3870  0.6564 -1.1044
 5478TIP3    H237994   3.067   3.510   2.227 -3.1040  3.1932  0.4327
 5479TIP3   OH237995   1.411   1.528   0.061 -0.0634 -0.2496  0.1953
 5479TIP3    H137996   1.409   1.624   0.059 -0.4661 -0.2305  0.9777
 5479TIP3    H237997   1.321   1.502   0.042 -0.0574 -0.4577  0.4454
 5480TIP3   OH237998   4.165   1.643   2.778 -0.2682 -0.3153  0.1495
 5480TIP3    H137999   4.081   1.612   2.813  0.1514 -1.7721 -0.0569
 5480TIP3    H238000   4.168   1.608   2.689  0.3486  0.1176 -0.0009
 5481TIP3   OH238001   0.864   0.435   0.995  0.3812 -0.3492  0.2697
 5481TIP3    H138002   0.945   0.472   0.961  0.7315 -1.5743 -0.2910
 5481TIP3    H238003   0.826   0.505   1.049  1.4792  0.4608  0.0229
 5482TIP3   OH238004   2.596   3.686   2.122 -0.3627 -0.5403  0.3167
 5482TIP3    H138005   2.613   3.711   2.212  0.1039  0.1632  0.0349
 5482TIP3    H238006   2.506   3.716   2.105 -0.0831  0.2679  0.2255
 5483TIP3   OH238007   5.733   4.516   7.058 -0.3945  0.4827 -0.1427
 5483TIP3    H138008   5.659   4.456   7.057  0.2769 -0.5013  2.1755
 5483TIP3    H238009   5.763   4.516   7.149  1.4179  2.1313 -0.6667
 5484TIP3   OH238010   1.113   1.810   1.993 -0.2642  0.4383 -0.3024
 5484TIP3    H138011   1.200   1.781   1.964 -0.6667 -1.2157  0.0325
 5484TIP3    H238012   1.053   1.745   1.957 -1.2135  0.7820  0.6104
 5485TIP3   OH238013   6.459   4.319   1.170 -0.3704 -0.3663  0.1509
 5485TIP3    H138014   6.401   4.345   1.241 -2.6857 -0.8008 -1.4471
 5485TIP3    H238015   6.408   4.256   1.120  1.4458 -0.6342 -1.4863
 5486TIP3   OH238016   4.826   0.979   0.630 -0.3265 -0.3338 -0.1355
 5486TIP3    H138017   4.917   0.953   0.646 -0.3908 -0.2481  0.3671
 5486TIP3    H238018   4.804   0.937   0.547 -0.1266 -1.1079  0.1963
 5487TIP3   OH238019   2.570   0.031   0.873  0.2373  0.1811 -0.7817
 5487TIP3    H138020   2.574  -0.064   0.879 -1.0263  0.1123 -0.7765
 5487TIP3    H238021   2.559   0.049   0.779 -1.5632  0.1958 -0.6039
 5488TIP3   OH238022   6.745   6.579   0.485  0.4763  0.0805 -0.0514
 5488TIP3    H138023   6.745   6.520   0.560  0.6362 -1.3218 -1.0997
 5488TIP3    H238024   6.659   6.622   0.488  0.6120  0.2882  1.1022
 5489TIP3   OH238025   2.156   2.947   1.344 -0.1757 -0.3540 -0.1550
 5489TIP3    H138026   2.135   3.039   1.357 -1.8921 -0.8084  0.5519
 5489TIP3    H238027   2.189   2.942   1.255 -0.0740  0.9348 -0.2029
 5490TIP3   OH238028   3.194   5.425   7.866  0.0369 -0.6976 -0.1922
 5490TIP3    H138029   3.169   5.507   7.825 -0.9804 -1.3163 -0.8743
 5490TIP3    H238030   3.154   5.428   7.953  0.7063 -0.1223  0.0942
 5491TIP3   OH238031   5.475   6.447   7.684  0.2065  0.6431 -0.5238
 5491TIP3    H138032   5.383   6.468   7.699  0.9485  3.0327  1.2280
 5491TIP3    H238033   5.480   6.352   7.694 -2.0622  0.4407 -0.8424
 5492TIP3   OH238034   0.095   6.201   8.657 -0.4194 -0.2307  0.0264
 5492TIP3    H138035   0.091   6.173   8.748 -1.9181  3.6316  1.3447
 5492TIP3    H238036   0.036   6.141   8.611 -1.9234 -0.5139  2.1813
 5493TIP3   OH238037   4.353   1.742   0.969  0.4326  0.0654  0.4746
 5493TIP3    H138038   4.320   1.654   0.952  2.2308 -0.4946 -0.4056
 5493TIP3    H238039   4.355   1.784   0.883  1.6023  0.1952  0.5534
 5494TIP3   OH238040   5.257   3.821   8.220  0.2993 -0.1591  0.2528
 5494TIP3    H138041   5.220   3.898   8.176  0.4686  0.4812  1.1956
 5494TIP3    H238042   5.300   3.772   8.150  0.2191  0.6253 -0.3675
 5495TIP3   OH238043   6.801   1.706   2.494  0.7296  0.0405 -0.1686
 5495TIP3    H138044   6.897   1.703   2.483  0.5527 -0.4547 -1.9764
 5495TIP3    H238045   6.780   1.627   2.543  1.2528  0.2308  0.3746
 5496TIP3   OH238046   5.490   4.948   0.650 -0.3144  0.4210 -0.7045
 5496TIP3    H138047   5.474   4.949   0.744  1.1065  1.7674 -0.4294
 5496TIP3    H238048   5.429   4.882   0.615  0.2824 -1.3203  1.3436
 5497TIP3   OH238049   5.389   5.641   7.658 -1.3477 -0.0901 -0.0578
 5497TIP3    H138050   5.310   5.630   7.605 -0.7808 -1.3907 -0.6721
 5497TIP3    H238051   5.356   5.640   7.748 -1.9857 -1.5235 -0.2637
 5498TIP3   OH238052   4.053   3.241   3.117 -0.3544 -0.2114 -0.3937
 5498TIP3    H138053   4.116   3.288   3.171 -0.7071 -2.8124  2.5644
 5498TIP3    H238054   3.969   3.253   3.162 -0.5858 -2.7996  0.0568
 5499TIP3   OH238055   6.527   1.726   1.221  0.2034  0.0392  0.7856
 5499TIP3    H138056   6.477   1.727   1.303 -1.9789  1.9564 -0.4321
 5499TIP3    H238057   6.543   1.634   1.204 -0.7109 -0.5103  2.5520
 5500TIP3   OH238058   6.689   1.664   7.448 -0.6580  0.2457  0.0314
 5500TIP3    H138059   6.710   1.726   7.517 -1.5646  0.3946  0.1843
 5500TIP3    H238060   6.603   1.630   7.471 -0.8365  0.0614 -0.8566
 5501TIP3   OH238061   1.831   2.740   7.187  0.4229  0.3108 -0.0189
 5501TIP3    H138062   1.859   2.661   7.232  0.6340  0.2066 -0.3244
 5501TIP3    H238063   1.902   2.803   7.202 -0.0860  0.6946  0.8536
 5502TIP3   OH238064   1.151   5.203   8.733  0.0877 -0.9675 -0.6627
 5502TIP3    H138065   1.078   5.234   8.679  0.6859  3.5433  0.7069
 5502TIP3    H238066   1.110   5.147   8.799 -2.2578  1.4115  0.0718
 5503TIP3   OH238067   2.810   1.542   6.941  0.3278  0.0284 -0.6762
 5503TIP3    H138068   2.806   1.447   6.953  1.5398  0.3077  3.8304
 5503TIP3    H238069   2.876   1.555   6.873  0.3239 -2.3222 -1.2196
 5504TIP3   OH238070   2.679   1.029   8.589 -0.4017  0.1264 -0.2880
 5504TIP3    H138071   2.698   0.947   8.544  1.0334  0.6005 -0.6182
 5504TIP3    H238072   2.732   1.027   8.668 -3.3070 -0.9301  1.7999
 5505TIP3   OH238073   3.715   3.281   1.036  0.3192 -1.0936 -0.1633
 5505TIP3    H138074   3.750   3.370   1.042  0.1820 -1.1194  1.1274
 5505TIP3    H238075   3.751   3.247   0.954  0.7754 -0.0279 -0.4230
 5506TIP3   OH238076   6.178   0.529   1.138 -0.3751 -0.1131  0.1781
 5506TIP3    H138077   6.082   0.522   1.139 -0.3637 -0.3987  1.3742
 5506TIP3    H238078   6.207   0.457   1.083 -0.7713 -1.7543  1.9803
 5507TIP3   OH238079   3.668   6.317   2.170 -0.2370 -0.3654  0.1549
 5507TIP3    H138080   3.661   6.297   2.263  3.3534 -1.9974  0.2494
 5507TIP3    H238081   3.754   6.356   2.160 -0.9890  0.8494 -2.3667
 5508TIP3   OH238082   3.017   2.205   0.478 -0.4505 -0.1663  0.0189
 5508TIP3    H138083   3.056   2.187   0.564 -0.0053  2.0132  0.3269
 5508TIP3    H238084   3.061   2.143   0.419  1.3986  0.2453  0.8695
 5509TIP3   OH238085   3.097   2.725   2.544 -0.8415 -0.7132  0.0305
 5509TIP3    H138086   3.176   2.769   2.576  0.1262 -2.4163  0.0662
 5509TIP3    H238087   3.028   2.757   2.601 -0.1319  0.4978  0.2637
 5510TIP3   OH238088   3.137   3.772   7.394  0.2325  0.2461 -0.2967
 5510TIP3    H138089   3.206   3.834   7.417  0.8064 -1.2646  2.4003
 5510TIP3    H238090   3.180   3.709   7.336  0.5111  0.5356 -0.4062
 5511TIP3   OH238091   3.123   1.818   6.801  0.3206 -0.3375  1.0806
 5511TIP3    H138092   3.090   1.889   6.856  0.4265  1.9835 -1.6028
 5511TIP3    H238093   3.190   1.859   6.747 -0.4932 -2.1600 -1.5080
 5512TIP3   OH238094   2.567   4.199   8.158  0.1679 -0.1831  0.1326
 5512TIP3    H138095   2.604   4.183   8.245  2.2814 -0.2546 -0.7243
 5512TIP3    H238096   2.573   4.294   8.147  1.5647 -0.3196 -0.5722
 5513TIP3   OH238097   4.316   1.023   1.262  0.2925  0.2568  0.2055
 5513TIP3    H138098   4.351   1.112   1.263  1.7732 -0.3077  0.6422
 5513TIP3    H238099   4.378   0.972   1.314  1.4107 -1.7232 -2.7858
 5514TIP3   OH238100   4.763   3.885   2.523 -0.3343  0.4061 -0.6002
 5514TIP3    H138101   4.744   3.826   2.595  0.2308  2.5296  1.4019
 5514TIP3    H238102   4.820   3.834   2.464 -0.2622 -1.1703  0.7678
 5515TIP3   OH238103   5.134   0.616   1.112 -0.0518  0.1701 -0.0656
 5515TIP3    H138104   5.047   0.594   1.147  0.6280 -1.5949  0.6145
 5515TIP3    H238105   5.135   0.712   1.110 -2.0739  0.2436 -0.2803
 5516TIP3   OH238106   5.456   4.649   8.569  0.2969  0.0032 -0.2532
 5516TIP3    H138107   5.392   4.628   8.501  1.4549 -0.3522 -1.2687
 5516TIP3    H238108   5.495   4.732   8.541  0.7532 -0.1228 -0.0053
 5517TIP3   OH238109   6.784   6.083   0.947 -0.2461 -0.2863 -0.0292
 5517TIP3    H138110   6.744   6.153   1.000 -0.4040 -0.0557 -0.4537
 5517TIP3    H238111   6.846   6.128   0.890  0.7754 -0.6574  0.7435
 5518TIP3   OH238112   5.869   6.109   2.598  0.2747  0.4786 -0.2459
 5518TIP3    H138113   5.848   6.015   2.601 -1.0719  0.7712  0.9272
 5518TIP3    H238114   5.958   6.115   2.633  0.1171 -0.3056  0.3184
 5519TIP3   OH238115   4.281   4.752   0.452  0.2018  0.0330  0.0920
 5519TIP3    H138116   4.189   4.726   0.451  0.6754 -1.8136 -1.3577
 5519TIP3    H238117   4.282   4.841   0.417 -0.8456 -0.8781 -2.5353
 5520TIP3   OH238118   6.466   6.327   1.167  0.2257  0.7047 -0.4887
 5520TIP3    H138119   6.551   6.299   1.133 -0.1481  0.9326 -1.6620
 5520TIP3    H238120   6.476   6.421   1.181 -0.1417  0.9289 -1.6419
 5521TIP3   OH238121   2.207   5.245   0.210  0.5278 -0.2299 -0.8014
 5521TIP3    H138122   2.230   5.197   0.131 -0.6407  0.7724 -1.7938
 5521TIP3    H238123   2.288   5.247   0.261  0.8828 -2.2652 -1.2100
 5522TIP3   OH238124   5.992   1.905   0.321  0.8400 -0.1472  0.5462
 5522TIP3    H138125   6.049   1.969   0.279  0.9541 -0.1831  0.6467
 5522TIP3    H238126   5.988   1.932   0.413 -0.4765  0.7179  0.2609
 5523TIP3   OH238127   6.743   6.348   1.091  0.4198 -0.5052  0.1164
 5523TIP3    H138128   6.720   6.441   1.088 -1.8299 -1.0383 -0.8712
 5523TIP3    H238129   6.839   6.347   1.088  0.6445  1.8314  2.4374
 5524TIP3   OH238130   6.410   4.655   7.432 -0.5768  0.6658  0.0153
 5524TIP3    H138131   6.391   4.743   7.400  1.2387  0.4513 -1.8781
 5524TIP3    H238132   6.362   4.597   7.373 -1.6683  0.3281  1.1828
 5525TIP3   OH238133   2.305   5.605   0.732  0.2947  0.2685 -0.0159
 5525TIP3    H138134   2.212   5.596   0.716 -0.0264  2.4661  0.2823
 5525TIP3    H238135   2.341   5.517   0.718 -1.7187 -0.5063 -0.6280
 5526TIP3   OH238136   0.908   5.588   1.547 -0.0110 -0.1820 -0.1092
 5526TIP3    H138137   0.916   5.572   1.641 -1.7748  1.1265  0.3107
 5526TIP3    H238138   0.907   5.683   1.539 -0.3484 -0.2766 -1.4057
 5527TIP3   OH238139   2.462   0.076   2.491  0.3640 -0.4032 -0.9927
 5527TIP3    H138140   2.490  -0.002   2.539 -0.3731 -0.1526 -0.1473
 5527TIP3    H238141   2.375   0.096   2.525  0.6919  1.0104 -0.9276
 5528TIP3   OH238142   2.496   2.398   0.490 -0.3411 -0.2096 -0.1631
 5528TIP3    H138143   2.568   2.348   0.529 -0.0575  1.1633  1.1425
 5528TIP3    H238144   2.498   2.374   0.398  0.1766 -2.1204  0.2932
 5529TIP3   OH238145   5.930   0.670   0.454  0.0696  0.1030 -0.0542
 5529TIP3    H138146   5.896   0.725   0.525  0.4912  0.4375 -0.1084
 5529TIP3    H238147   6.025   0.681   0.458  0.2716 -1.6608  0.7683
 5530TIP3   OH238148   5.612   3.568   0.789  0.1702  0.7948  0.1376
 5530TIP3    H138149   5.637   3.522   0.869  0.0961  0.0597 -0.2542
 5530TIP3    H238150   5.525   3.535   0.768  0.5264  0.3526 -0.6980
 5531TIP3   OH238151   3.249   2.198   0.011  0.5742 -0.3573 -0.4019
 5531TIP3    H138152   3.274   2.277  -0.038  0.6700 -0.0895  0.0769
 5531TIP3    H238153   3.332   2.157   0.036  0.6104  0.9184  1.8168
 5532TIP3   OH238154   1.598   6.066   1.317 -0.2071  0.3566 -0.2036
 5532TIP3    H138155   1.685   6.104   1.321 -0.4431  0.8732  0.1366
 5532TIP3    H238156   1.566   6.069   1.408 -0.2663 -0.5692 -0.1809
 5533TIP3   OH238157   5.247   4.805   7.216 -0.7109 -0.0425  0.2019
 5533TIP3    H138158   5.249   4.747   7.140  0.1594 -1.8483  1.5223
 5533TIP3    H238159   5.269   4.892   7.181 -1.7832 -0.5142 -1.7980
 5534TIP3   OH238160   2.938   6.074   8.007  0.3018  0.6133  0.5818
 5534TIP3    H138161   2.930   6.168   8.022 -1.6178  0.5298  0.3350
 5534TIP3    H238162   2.861   6.036   8.050  0.1680 -0.6612 -0.6817
 5535TIP3   OH238163   2.125   0.100   2.157 -0.2083  0.2688 -0.4483
 5535TIP3    H138164   2.207   0.123   2.200  0.6606 -0.5495 -1.6032
 5535TIP3    H238165   2.128   0.145   2.073 -0.6768 -0.2186 -0.7337
 5536TIP3   OH238166   5.145   4.720   8.464  0.1826  0.4488 -0.0711
 5536TIP3    H138167   5.083   4.792   8.464 -0.7577 -0.3115 -1.2967
 5536TIP3    H238168   5.116   4.663   8.535 -0.4216  0.2000 -0.5078
 5537TIP3   OH238169   3.155   5.185   0.327 -0.1796  0.3079  0.1878
 5537TIP3    H138170   3.103   5.193   0.407 -0.1006 -1.3967  0.4452
 5537TIP3    H238171   3.214   5.111   0.343  0.4070  0.4537 -1.1334
 5538TIP3   OH238172   4.891   3.515   7.929 -0.1628 -0.3504  0.2570
 5538TIP3    H138173   4.833   3.448   7.966 -0.0163 -0.5253  0.1704
 5538TIP3    H238174   4.967   3.466   7.897 -0.6941 -0.3225 -1.1307
 5539TIP3   OH238175   4.712   2.289   8.130 -0.1310 -0.5661  0.3952
 5539TIP3    H138176   4.700   2.383   8.111  1.5295 -0.2148  0.9464
 5539TIP3    H238177   4.806   2.274   8.117 -0.1163 -1.8192  1.7456
 5540TIP3   OH238178   2.474   0.036   1.676  0.6115 -0.4885  0.2470
 5540TIP3    H138179   2.481  -0.002   1.589  1.0321 -0.5913  0.3250
 5540TIP3    H238180   2.477   0.131   1.661 -2.2493 -0.3498 -0.1295
 5541TIP3   OH238181   5.561   4.388   7.660 -0.1107 -0.2537 -0.2733
 5541TIP3    H138182   5.503   4.349   7.726  2.2616 -0.8456  1.5963
 5541TIP3    H238183   5.584   4.315   7.602 -0.4285 -0.2291 -0.4360
 5542TIP3   OH238184   4.797   5.258   8.194 -0.1614 -0.1715 -0.1916
 5542TIP3    H138185   4.886   5.260   8.228  0.8859 -0.0576 -2.7672
 5542TIP3    H238186   4.780   5.347   8.165 -1.2314 -0.1414  0.4547
 5543TIP3   OH238187   0.413   4.037   8.141  0.1686  0.5671 -0.1390
 5543TIP3    H138188   0.401   4.075   8.229  0.7667  1.1151 -0.2859
 5543TIP3    H238189   0.329   3.996   8.121 -0.0101  0.5315  0.6490
 5544TIP3   OH238190   6.289   2.211   2.583  0.2678  0.2526  0.1289
 5544TIP3    H138191   6.348   2.287   2.581 -1.7895  1.9459  0.1483
 5544TIP3    H238192   6.272   2.196   2.676 -1.3629  1.4967  0.0671
 5545TIP3   OH238193   2.322   2.171   8.739 -0.0238  0.0784  0.0104
 5545TIP3    H138194   2.246   2.167   8.797  0.5093 -1.9629  0.6412
 5545TIP3    H238195   2.302   2.242   8.678 -2.4899 -0.4696  0.0807
 5546TIP3   OH238196   6.164   2.948   1.799 -0.2908  0.1550 -0.2201
 5546TIP3    H138197   6.241   2.894   1.820 -0.8834 -1.2611 -1.4730
 5546TIP3    H238198   6.154   3.006   1.874 -0.1378 -2.1257  1.7022
 5547TIP3   OH238199   4.893   2.991   7.308  0.2954 -0.5826 -0.1169
 5547TIP3    H138200   4.968   2.960   7.257  0.1105  0.1985 -0.8804
 5547TIP3    H238201   4.819   2.942   7.274  0.4589 -1.4393  0.7169
 5548TIP3   OH238202   1.260   3.328   2.317 -0.2461 -0.0490  0.2438
 5548TIP3    H138203   1.333   3.275   2.285 -0.3961 -0.2527  0.2336
 5548TIP3    H238204   1.251   3.397   2.251  0.7943  0.7749  0.9332
 5549TIP3   OH238205   2.260   2.038   1.999 -0.5064 -0.0664 -0.3323
 5549TIP3    H138206   2.344   2.071   2.028 -0.6704 -0.4168  0.5831
 5549TIP3    H238207   2.252   2.067   1.908 -0.3376  1.7722  0.2111
 5550TIP3   OH238208   5.479   4.958   7.584 -0.2307  0.2347 -0.1883
 5550TIP3    H138209   5.521   4.913   7.511  0.0146 -1.8838  1.1709
 5550TIP3    H238210   5.546   5.018   7.617 -0.0456  0.5631 -1.1319
 5551TIP3   OH238211   6.086   4.302   7.483  1.0339  0.2635 -0.3599
 5551TIP3    H138212   6.132   4.308   7.567  1.5846  1.0192 -0.7102
 5551TIP3    H238213   6.049   4.389   7.469 -0.0954 -0.1874 -0.3346
 5552TIP3   OH238214   0.515   1.011   0.401  0.2520 -0.3742 -0.1067
 5552TIP3    H138215   0.499   1.082   0.338 -1.2545 -0.0093  0.6331
 5552TIP3    H238216   0.545   0.938   0.347  0.3701  0.3631 -1.0760
 5553TIP3   OH238217   1.698   3.038   7.804 -0.1312 -0.0581  0.3998
 5553TIP3    H138218   1.615   3.000   7.833  0.3289 -0.2997  1.4429
 5553TIP3    H238219   1.749   2.963   7.774 -0.2025  0.0679 -0.0521
 5554TIP3   OH238220   1.954   5.746   2.318 -0.1125  0.5410  0.4540
 5554TIP3    H138221   1.931   5.689   2.245 -0.3828  0.5736  0.5136
 5554TIP3    H238222   1.872   5.757   2.367  0.1344  0.2836  0.9270
 5555TIP3   OH238223   0.875   4.360   1.856  0.2187 -0.1455  0.3168
 5555TIP3    H138224   0.955   4.312   1.877 -0.5264 -1.1297  0.9561
 5555TIP3    H238225   0.850   4.404   1.937  0.3993  0.6192 -0.0275
 5556TIP3   OH238226   2.591   5.748   0.220 -0.1684 -0.2856  0.1818
 5556TIP3    H138227   2.601   5.808   0.294  0.0862  1.2903 -1.0607
 5556TIP3    H238228   2.498   5.753   0.197  0.1794  1.1048 -1.0555
 5557TIP3   OH238229   5.148   3.121   7.156 -0.2343  0.0531  0.8231
 5557TIP3    H138230   5.177   3.034   7.129 -0.4246 -0.3006  1.7545
 5557TIP3    H238231   5.100   3.154   7.080  0.7651 -0.2004  0.0462
 5558TIP3   OH238232   4.418   1.107   8.645  0.2998  0.1570 -0.1335
 5558TIP3    H138233   4.326   1.122   8.623  0.1709 -0.5066 -0.0635
 5558TIP3    H238234   4.416   1.059   8.728  0.6675 -0.6902 -0.5943
 5559TIP3   OH238235   2.265   1.131   1.877 -0.0065  0.5217 -0.5291
 5559TIP3    H138236   2.179   1.125   1.919  1.7452  1.3562  3.6731
 5559TIP3    H238237   2.280   1.225   1.869  0.8600  0.3964 -0.3902
 5560TIP3   OH238238   0.016   4.151   8.012 -0.3752  0.2747  0.1755
 5560TIP3    H138239  -0.046   4.220   8.034 -0.4746 -0.0163  0.8483
 5560TIP3    H238240  -0.036   4.070   8.017 -0.2096  0.1323 -0.3825
 5561TIP3   OH238241   2.081   3.204   2.301  0.2241 -0.1243 -0.0145
 5561TIP3    H138242   2.088   3.278   2.360  0.0575  1.2485 -1.6532
 5561TIP3    H238243   2.139   3.225   2.228 -1.8070 -0.3075 -1.7892
 5562TIP3   OH238244   6.145   6.376   0.657 -0.5730  0.5722 -0.2833
 5562TIP3    H138245   6.071   6.370   0.718 -1.2311 -1.0364 -1.1781
 5562TIP3    H238246   6.164   6.286   0.634  0.6403  1.0654 -1.3181
 5563TIP3   OH238247   0.473   4.555   7.918  0.2368 -0.3739 -0.4980
 5563TIP3    H138248   0.452   4.528   7.829 -3.3752 -0.3618  0.1722
 5563TIP3    H238249   0.452   4.478   7.971  0.6924  0.1694  0.4984
 5564TIP3   OH238250   0.581   2.095   0.387  0.3672 -0.0453 -0.1534
 5564TIP3    H138251   0.585   2.014   0.338  0.4367  0.3569 -0.8254
 5564TIP3    H238252   0.588   2.069   0.479  0.0546 -0.8190 -0.3455
 5565TIP3   OH238253   1.613   0.594   8.620  0.8210 -0.4824 -0.0417
 5565TIP3    H138254   1.663   0.627   8.695  0.6798 -0.6789  0.1385
 5565TIP3    H238255   1.537   0.652   8.614  1.5690  0.4521 -0.9343
 5566TIP3   OH238256   0.559   3.234   0.509 -0.2438 -0.1053  0.0987
 5566TIP3    H138257   0.566   3.322   0.546 -0.2570  0.8237 -1.9344
 5566TIP3    H238258   0.465   3.222   0.493 -0.1171  0.1531 -0.9639
 5567TIP3   OH238259   1.211   3.147   1.041 -0.2478 -0.3524  0.0919
 5567TIP3    H138260   1.160   3.197   1.105 -0.6489  0.6442 -0.9655
 5567TIP3    H238261   1.153   3.139   0.965  1.1429  0.8597 -1.1612
 5568TIP3   OH238262   5.456   5.536   1.880  0.4655  0.1073  0.3899
 5568TIP3    H138263   5.425   5.626   1.883  2.2009  0.7121  1.0746
 5568TIP3    H238264   5.519   5.535   1.808  1.9850 -0.0214  1.6834
 5569TIP3   OH238265   0.529   3.790   7.827 -0.5846  0.6169  0.1258
 5569TIP3    H138266   0.462   3.852   7.797 -0.9506 -0.2680 -0.9705
 5569TIP3    H238267   0.604   3.807   7.769 -0.6569  0.0989 -0.1225
 5570TIP3   OH238268   6.157   5.284   1.121 -0.4743  0.1675  0.0032
 5570TIP3    H138269   6.212   5.255   1.193 -0.6532  0.8363  0.4083
 5570TIP3    H238270   6.068   5.281   1.156 -0.5539  0.5659 -0.1664
 5571TIP3   OH238271   5.043   2.256   8.313 -0.3083  0.7585 -0.9015
 5571TIP3    H138272   5.023   2.195   8.242  2.2365  0.3793 -1.4222
 5571TIP3    H238273   5.121   2.303   8.281  0.3735  1.1925  1.2708
 5572TIP3   OH238274   1.822   5.383   8.219  0.3019  0.0967  0.7411
 5572TIP3    H138275   1.778   5.460   8.256  0.0013  0.0459  0.4998
 5572TIP3    H238276   1.890   5.420   8.162  1.0649  0.1708  1.6766
 5573TIP3   OH238277   5.079   3.827   8.426 -0.4673 -0.0129  0.0169
 5573TIP3    H138278   4.993   3.785   8.428 -0.0740 -0.8191  0.0692
 5573TIP3    H238279   5.119   3.797   8.345 -0.4522  0.8271 -0.3044
 5574TIP3   OH238280   3.652   0.937   8.453 -0.3048 -0.2098 -0.2490
 5574TIP3    H138281   3.719   1.005   8.453 -0.1082 -0.4010 -0.0064
 5574TIP3    H238282   3.670   0.885   8.531  1.7062 -2.6103 -2.0998
 5575TIP3   OH238283   0.086   0.863   1.915  0.8370  0.2257  0.7427
 5575TIP3    H138284   0.030   0.815   1.977  0.5538  0.2408  0.4997
 5575TIP3    H238285   0.157   0.802   1.895  0.3718 -0.1779  0.2792
 5576TIP3   OH238286   5.932   0.661   8.646  0.1404 -0.1044  0.0388
 5576TIP3    H138287   5.874   0.592   8.613  1.1842 -1.6791  1.3620
 5576TIP3    H238288   5.969   0.625   8.726  2.2205  1.2237 -0.2561
 5577TIP3   OH238289   4.170   6.777   7.924 -0.1520 -0.2081 -0.1983
 5577TIP3    H138290   4.220   6.803   7.846  0.6960  2.1774  1.0331
 5577TIP3    H238291   4.078   6.786   7.898  0.0180 -2.0434 -1.6729
 5578TIP3   OH238292   5.561   4.769   6.832  0.2371 -0.4520  0.0938
 5578TIP3    H138293   5.468   4.750   6.822 -0.0600  0.9425 -0.0345
 5578TIP3    H238294   5.589   4.798   6.745  0.1439  1.5911  0.6731
 5579TIP3   OH238295   3.295   1.422   1.134 -0.0477 -0.2026  0.3844
 5579TIP3    H138296   3.220   1.431   1.076 -0.8228 -0.2010  1.3561
 5579TIP3    H238297   3.273   1.346   1.189  0.7293 -0.2918  0.5792
 5580TIP3   OH238298   2.407   5.437   0.007 -0.6045  0.6092 -0.3352
 5580TIP3    H138299   2.335   5.457   0.066 -2.1604  1.1650 -2.3223
 5580TIP3    H238300   2.378   5.361  -0.042  1.1672 -0.5939  0.3791
 5581TIP3   OH238301   2.724   1.928   0.764 -0.0008 -0.1549 -0.2244
 5581TIP3    H138302   2.709   1.948   0.672 -0.0665 -0.6124 -0.3117
 5581TIP3    H238303   2.674   1.995   0.811 -0.2426 -0.1292 -0.5181
 5582TIP3   OH238304   4.922   5.049   1.848 -0.4344  0.1005  0.3858
 5582TIP3    H138305   4.925   4.953   1.847  3.3740  0.0342 -1.2484
 5582TIP3    H238306   4.940   5.072   1.939 -0.0897 -0.7869  0.5599
 5583TIP3   OH238307   1.412   2.326   8.449  0.2116  0.1529  0.6102
 5583TIP3    H138308   1.414   2.386   8.375  2.1174  1.4372  1.6170
 5583TIP3    H238309   1.494   2.277   8.443  0.4450  0.3553  1.9076
 5584TIP3   OH238310   4.493   1.849   2.076  0.4137  0.0119 -0.6653
 5584TIP3    H138311   4.536   1.851   2.161 -0.2444  1.1969 -0.3427
 5584TIP3    H238312   4.435   1.773   2.080 -0.9980  1.0938  0.6800
 5585TIP3   OH238313   1.070   6.576   7.184 -0.7255  0.5494  0.4783
 5585TIP3    H138314   1.050   6.543   7.096  0.0420 -0.6603  0.7342
 5585TIP3    H238315   1.163   6.600   7.179 -1.0222  1.7635  0.5869
 5586TIP3   OH238316   3.936   2.434   8.681 -0.7493 -0.3235 -0.4145
 5586TIP3    H138317   4.026   2.448   8.651 -0.8825  0.6153 -0.4103
 5586TIP3    H238318   3.945   2.377   8.757 -0.1077  0.1227 -0.1412
 5587TIP3   OH238319   2.301   0.127   0.995  0.3309 -0.6669  0.1673
 5587TIP3    H138320   2.222   0.180   1.006  0.5983 -0.2392  0.0334
 5587TIP3    H238321   2.271   0.050   0.945 -0.1613 -0.9005  0.7945
 5588TIP3   OH238322   5.769   3.608   7.843 -0.3281 -0.6940  0.2667
 5588TIP3    H138323   5.735   3.524   7.875 -1.7233 -0.0678  0.5043
 5588TIP3    H238324   5.848   3.584   7.793 -0.9347 -2.1845 -0.0456
 5589TIP3   OH238325   0.586   1.706   8.503  0.4536  0.2875  0.9412
 5589TIP3    H138326   0.634   1.702   8.586  3.0534  0.2296 -0.4388
 5589TIP3    H238327   0.546   1.620   8.494  1.5245 -0.2756  1.3948
 5590TIP3   OH238328   4.994   6.176   2.767  0.1738 -0.1230  0.2595
 5590TIP3    H138329   5.006   6.252   2.709  1.0075 -1.0273 -0.7844
 5590TIP3    H238330   4.900   6.158   2.763  0.0235  0.6080  0.2235
 5591TIP3   OH238331   1.399   0.259   0.284  0.4287 -0.4914  0.2199
 5591TIP3    H138332   1.329   0.206   0.323  0.3388 -0.8068 -0.3493
 5591TIP3    H238333   1.449   0.292   0.358 -1.9313  2.0315  0.8357
 5592TIP3   OH238334   3.276   0.103   0.439 -0.1676 -0.6503  0.4959
 5592TIP3    H138335   3.316   0.061   0.363 -0.7302 -0.0031 -0.1780
 5592TIP3    H238336   3.322   0.186   0.449 -1.9821  0.6145 -0.9675
 5593TIP3   OH238337   3.316   2.140   8.245  0.0942  0.4072 -0.1421
 5593TIP3    H138338   3.288   2.072   8.185  1.7482  0.8334 -1.4717
 5593TIP3    H238339   3.403   2.113   8.273  0.0540  1.1007  0.7155
 5594TIP3   OH238340   2.218   6.774   1.842 -0.2046 -0.1422  0.7022
 5594TIP3    H138341   2.190   6.863   1.859 -0.9960 -0.5848  1.8496
 5594TIP3    H238342   2.284   6.782   1.773  0.3190  1.3983  1.3323
 5595TIP3   OH238343   5.279   6.011   2.504  0.4305 -0.1659  0.0226
 5595TIP3    H138344   5.307   5.921   2.491 -2.0230 -0.9133 -0.6006
 5595TIP3    H238345   5.314   6.035   2.589 -1.8039 -3.0025  1.9349
 5596TIP3   OH238346   4.986   4.135   2.457 -0.8967  0.3874  0.1309
 5596TIP3    H138347   4.933   4.172   2.528  1.8871  1.8865  1.6108
 5596TIP3    H238348   5.015   4.050   2.489  0.1119  0.9358  0.7434
 5597TIP3   OH238349   6.372   5.747   2.898 -0.0334  0.8765 -0.5087
 5597TIP3    H138350   6.282   5.779   2.891 -0.4378 -0.0544  0.2203
 5597TIP3    H238351   6.423   5.824   2.924 -0.8026  1.1719  0.1620
 5598TIP3   OH238352   3.671   2.246   2.297 -0.1530  0.0343  0.4376
 5598TIP3    H138353   3.578   2.235   2.278  0.4356 -2.1767 -1.5732
 5598TIP3    H238354   3.701   2.160   2.326  1.1590  0.9024  1.8818
 5599TIP3   OH238355   6.223   6.152   2.032 -0.2781 -0.0045  0.3782
 5599TIP3    H138356   6.242   6.169   2.125  1.0250 -1.7670  0.4895
 5599TIP3    H238357   6.185   6.065   2.030 -0.8857  0.2693 -0.6957
 5600TIP3   OH238358   4.577   5.134   0.861 -0.5890  0.3648 -0.2329
 5600TIP3    H138359   4.525   5.058   0.834  0.7662 -0.1828 -1.4782
 5600TIP3    H238360   4.556   5.146   0.953 -1.9186 -0.6348 -0.3722
 5601TIP3   OH238361   2.536   5.104   2.572 -0.4941  0.2706 -0.1957
 5601TIP3    H138362   2.488   5.187   2.570 -1.6978 -0.3948 -0.0537
 5601TIP3    H238363   2.628   5.130   2.576 -0.7754  1.6106 -1.3234
 5602TIP3   OH238364   2.262   1.829   7.810 -0.2910 -0.7157 -0.4125
 5602TIP3    H138365   2.304   1.889   7.749  0.1286  1.5720  1.9357
 5602TIP3    H238366   2.320   1.753   7.812  0.5497 -0.1342 -1.6041
 5603TIP3   OH238367   0.692   5.503   8.647  0.3767  0.1165  0.1092
 5603TIP3    H138368   0.656   5.561   8.580  0.1992  1.7388  1.5360
 5603TIP3    H238369   0.615   5.468   8.692  0.4521  1.9641  1.8164
 5604TIP3   OH238370   2.566   2.861   6.819 -0.1023 -0.0805  0.1021
 5604TIP3    H138371   2.532   2.823   6.738 -0.9644 -1.2532  0.9774
 5604TIP3    H238372   2.657   2.830   6.824 -0.3530 -0.8571  0.0728
 5605TIP3   OH238373   0.359   4.039   2.398  0.5544 -0.2202  0.1769
 5605TIP3    H138374   0.330   4.119   2.443  1.1021 -0.9568  1.9520
 5605TIP3    H238375   0.309   3.969   2.441 -0.3283 -0.8200 -1.7262
 5606TIP3   OH238376   3.292   6.570   0.874 -0.6328  0.4790  1.0769
 5606TIP3    H138377   3.326   6.648   0.830  3.6617 -2.3248 -1.2934
 5606TIP3    H238378   3.337   6.568   0.959  0.0191  0.1885  0.7368
 5607TIP3   OH238379   3.018   1.310   7.907 -0.1840  0.4999 -0.3547
 5607TIP3    H138380   3.083   1.278   7.845 -2.3461 -0.1673 -2.4465
 5607TIP3    H238381   3.036   1.262   7.988  2.3164  0.9061 -0.5770
 5608TIP3   OH238382   6.095   4.698   6.738  0.2360 -0.1476  0.3161
 5608TIP3    H138383   6.169   4.743   6.777  0.1903 -1.1334  1.6042
 5608TIP3    H238384   6.123   4.679   6.648  1.7578 -0.9471  0.9213
 5609TIP3   OH238385   5.914   4.160   1.360 -0.4164  0.8992 -0.1321
 5609TIP3    H138386   5.928   4.219   1.286 -0.0590  0.3180 -0.5292
 5609TIP3    H238387   5.943   4.211   1.436  0.8535  0.8780 -0.5867
 5610TIP3   OH238388   5.836   5.005   6.904  0.1103  0.8973 -0.0922
 5610TIP3    H138389   5.931   5.013   6.890  0.2816 -0.3493  0.2258
 5610TIP3    H238390   5.799   5.079   6.856  1.1533  0.5887 -1.4655
 5611TIP3   OH238391   5.451   2.595   8.364 -0.5150  0.4966  0.3494
 5611TIP3    H138392   5.522   2.556   8.312 -0.6479  0.2269  0.3747
 5611TIP3    H238393   5.485   2.681   8.388 -0.3881  0.5626 -0.0527
 5612TIP3   OH238394   2.116   1.567   8.310  0.3668  0.7595 -0.2002
 5612TIP3    H138395   2.168   1.498   8.352  0.1396  0.7537  0.0715
 5612TIP3    H238396   2.157   1.648   8.341  0.2407  0.7544 -0.0180
 5613TIP3   OH238397   5.367   3.465   0.725  0.1766  0.2153 -0.1080
 5613TIP3    H138398   5.335   3.428   0.807 -0.5947  0.1327 -0.4411
 5613TIP3    H238399   5.288   3.488   0.676  0.6302  0.9429 -0.5241
 5614TIP3   OH238400   1.890   2.826   7.699 -0.4531  0.4287 -0.0234
 5614TIP3    H138401   1.838   2.811   7.621 -0.4976 -0.6288  0.1918
 5614TIP3    H238402   1.931   2.911   7.685  0.2896 -0.1489 -1.6223
 5615TIP3   OH238403   0.641   3.758   0.220 -0.0186 -0.0065  0.1329
 5615TIP3    H138404   0.728   3.720   0.223 -0.3259 -0.8787 -1.0233
 5615TIP3    H238405   0.639   3.820   0.293  1.5973  0.1288  0.1012
 5616TIP3   OH238406   5.236   2.822   8.333  0.2584 -0.2778  0.1225
 5616TIP3    H138407   5.228   2.899   8.277  1.1360 -0.0115  0.3485
 5616TIP3    H238408   5.242   2.857   8.422 -3.2289 -0.7545  0.6861
 5617TIP3   OH238409   5.534   5.919   7.289  0.5163 -0.5757 -0.0680
 5617TIP3    H138410   5.603   5.852   7.292  0.2382 -0.8422  1.2130
 5617TIP3    H238411   5.580   6.001   7.274  0.9777 -0.9092 -0.5099
 5618TIP3   OH238412   3.132   0.434   7.995  0.4541  0.4505 -0.2003
 5618TIP3    H138413   3.116   0.523   7.967 -0.7586  0.6962  1.1651
 5618TIP3    H238414   3.112   0.434   8.089  0.8671 -1.1432 -0.0777
 5619TIP3   OH238415   6.626   4.238   8.242 -0.5448  0.1393 -0.2045
 5619TIP3    H138416   6.583   4.156   8.267  1.3693 -0.7854  0.1838
 5619TIP3    H238417   6.565   4.306   8.271 -2.4727 -1.1111 -1.1162
 5620TIP3   OH238418   4.453   2.217   8.140 -0.6462  0.5074 -0.0265
 5620TIP3    H138419   4.541   2.240   8.109 -0.5048  0.4598  0.3335
 5620TIP3    H238420   4.411   2.302   8.157  0.0600  0.5303  1.8125
 5621TIP3   OH238421   1.615   2.602   8.687 -0.4998 -0.0400 -0.4075
 5621TIP3    H138422   1.692   2.652   8.716 -0.4427 -0.4063  0.1028
 5621TIP3    H238423   1.541   2.660   8.703 -0.3286  0.2999 -0.8621
 5622TIP3   OH238424   1.071   2.785   1.818  0.0238  0.4242 -0.3278
 5622TIP3    H138425   1.067   2.881   1.809 -0.1580  0.4105 -0.4014
 5622TIP3    H238426   1.053   2.752   1.730  0.8216  0.3328 -0.4672
 5623TIP3   OH238427   2.725   4.748   0.199 -0.4841  0.3702 -0.6917
 5623TIP3    H138428   2.739   4.836   0.233 -0.5136  0.1075  0.0242
 5623TIP3    H238429   2.654   4.713   0.253  1.6791 -1.2637  1.2871
 5624TIP3   OH238430   6.460   3.911   0.432 -0.3190 -0.3212 -0.3329
 5624TIP3    H138431   6.460   3.955   0.517 -0.2954  1.0554 -1.0215
 5624TIP3    H238432   6.379   3.861   0.432 -0.2868 -0.3933  0.5275
 5625TIP3   OH238433   2.527   1.365   2.121 -0.9138  0.2344 -0.0426
 5625TIP3    H138434   2.439   1.388   2.093  0.0439  1.8052 -2.0762
 5625TIP3    H238435   2.572   1.449   2.131  0.6906 -0.5420 -0.2953
 5626TIP3   OH238436   1.932   2.195   8.352  0.0701  0.7877  0.2192
 5626TIP3    H138437   1.986   2.117   8.366 -0.1452  0.4461 -0.8124
 5626TIP3    H238438   1.882   2.205   8.433 -0.0378 -0.2616  0.2851
 5627TIP3   OH238439   1.281   1.330   0.502 -0.5103  1.0650  0.2531
 5627TIP3    H138440   1.320   1.416   0.489  1.8160  0.4617  2.4725
 5627TIP3    H238441   1.322   1.296   0.581 -1.0772 -2.2458 -0.7083
 5628TIP3   OH238442   2.847   6.735   7.899  0.5129 -0.3356  0.2066
 5628TIP3    H138443   2.769   6.781   7.929  0.8794  0.4112  0.0338
 5628TIP3    H238444   2.917   6.800   7.905  1.3160 -1.2688  1.2728
 5629TIP3   OH238445   5.249   6.364   0.942 -0.3216 -0.3425  0.4379
 5629TIP3    H138446   5.252   6.386   1.035  0.0021  2.2968 -0.1369
 5629TIP3    H238447   5.326   6.405   0.905  0.5027 -2.7973 -0.7846
 5630TIP3   OH238448   4.150   1.766   7.294 -0.2417  0.4112 -0.2530
 5630TIP3    H138449   4.193   1.778   7.379 -1.8710  3.1995  0.3086
 5630TIP3    H238450   4.060   1.796   7.308 -1.2685 -1.3534 -2.3981
 5631TIP3   OH238451   3.735   5.253   1.249 -0.0144  0.1186  0.1134
 5631TIP3    H138452   3.677   5.314   1.204 -0.8695 -0.4780  0.3756
 5631TIP3    H238453   3.716   5.265   1.342 -0.7372 -1.0542  0.1359
 5632TIP3   OH238454   3.405   2.568   2.496 -0.0320  0.5100 -0.7891
 5632TIP3    H138455   3.346   2.507   2.449  1.3102 -0.7841 -0.8670
 5632TIP3    H238456   3.405   2.536   2.586  1.2848 -0.1181 -0.9920
 5633TIP3   OH238457   0.139   1.877   1.100  0.8445  0.4449  0.2502
 5633TIP3    H138458   0.090   1.851   1.178  0.3096 -0.3386 -0.3348
 5633TIP3    H238459   0.091   1.952   1.065  0.5779  0.2391  0.1770
 5634TIP3   OH238460   5.378   4.804   0.912  0.1019  0.0992  0.0800
 5634TIP3    H138461   5.341   4.874   0.967 -1.1315 -1.3735  1.2365
 5634TIP3    H238462   5.313   4.791   0.843  1.4884  1.7052 -1.6229
 5635TIP3   OH238463   3.495   2.539   0.561  0.5848 -0.0545  0.1241
 5635TIP3    H138464   3.467   2.561   0.650  0.0383 -0.7072  0.1247
 5635TIP3    H238465   3.546   2.615   0.532  2.8675 -0.8082  1.8786
 5636TIP3   OH238466   0.726   4.016   8.628 -0.2795  0.4396  0.2911
 5636TIP3    H138467   0.710   4.107   8.651 -2.4069  0.2392 -0.1792
 5636TIP3    H238468   0.804   3.992   8.678  1.7099  3.1069 -1.2492
 5637TIP3   OH238469   5.003   1.915   1.069 -0.1956 -0.4303 -0.3930
 5637TIP3    H138470   5.092   1.891   1.096 -0.1016  0.5528  0.2409
 5637TIP3    H238471   4.973   1.842   1.015  1.4755 -0.1746 -1.7123
 5638TIP3   OH238472   2.245   0.191   2.989 -0.1008  0.3445 -0.3827
 5638TIP3    H138473   2.307   0.229   3.050 -0.2975 -0.2994  0.2382
 5638TIP3    H238474   2.263   0.097   2.992 -0.2763  0.2778 -1.1379
 5639TIP3   OH238475   1.857   4.467   1.970  0.1902 -0.2985 -0.1313
 5639TIP3    H138476   1.873   4.415   1.891  1.9379  1.4783 -1.0449
 5639TIP3    H238477   1.847   4.556   1.938 -0.4012  0.2844  1.5752
 5640TIP3   OH238478   5.013   4.050   7.622  0.2627 -0.5697 -0.5523
 5640TIP3    H138479   5.095   4.020   7.583  0.5978 -4.5468  2.4551
 5640TIP3    H238480   5.041   4.103   7.697  0.4033 -3.1843  1.4038
 5641TIP3   OH238481   4.706   6.002   6.748  0.2924  0.1862 -0.5181
 5641TIP3    H138482   4.778   6.018   6.809  1.2652 -1.9663 -1.0196
 5641TIP3    H238483   4.671   6.089   6.729 -0.2156  0.9621  3.2459
 5642TIP3   OH238484   4.403   4.026   1.541  0.1547 -0.4433 -0.4858
 5642TIP3    H138485   4.416   4.060   1.453  0.7138 -0.3770 -0.3850
 5642TIP3    H238486   4.318   4.061   1.569  0.5606  0.6039 -0.5082
 5643TIP3   OH238487   4.643   2.540   7.998 -0.1175 -0.3816 -0.1245
 5643TIP3    H138488   4.681   2.503   7.919  0.0725 -1.0434  0.2725
 5643TIP3    H238489   4.620   2.630   7.974  0.1400 -0.5104 -0.8613
 5644TIP3   OH238490   6.113   4.718   0.846  0.8838 -0.2604  0.3059
 5644TIP3    H138491   6.141   4.742   0.758  3.3274 -1.1908  0.7401
 5644TIP3    H238492   6.150   4.786   0.902  4.0214 -2.3544  1.0690
 5645TIP3   OH238493   4.824   3.371   0.369 -0.3045  0.2121  0.4261
 5645TIP3    H138494   4.801   3.279   0.361 -0.3798  0.1807  0.9557
 5645TIP3    H238495   4.770   3.403   0.442 -0.8007  0.8458 -0.2102
 5646TIP3   OH238496   4.566   2.787   1.705 -0.5625 -0.2425  0.1631
 5646TIP3    H138497   4.492   2.738   1.669 -1.7781  0.4589  1.6327
 5646TIP3    H238498   4.536   2.819   1.790  0.4777  2.3577 -0.3520
 5647TIP3   OH238499   3.770   0.436   2.891  0.2987  0.5479  0.3886
 5647TIP3    H138500   3.676   0.420   2.900 -0.1188 -0.6104 -3.7477
 5647TIP3    H238501   3.812   0.356   2.922 -0.3018 -0.0119 -0.2236
 5648TIP3   OH238502   4.364   6.696   0.179 -0.0352 -0.3086 -0.1778
 5648TIP3    H138503   4.376   6.688   0.274 -0.3650  1.1684  0.0189
 5648TIP3    H238504   4.450   6.720   0.146 -0.0943 -0.0406 -0.1408
 5649TIP3   OH238505   5.351   0.150   8.095  0.0383  0.0330 -0.3928
 5649TIP3    H138506   5.394   0.231   8.068 -0.3513  0.6393  0.7583
 5649TIP3    H238507   5.410   0.113   8.160 -1.1085  0.8490  1.1687
 5650TIP3   OH238508   3.636   2.404   8.756 -0.4753 -0.1754  0.3499
 5650TIP3    H138509   3.612   2.320   8.797  1.5526 -0.0425  1.9615
 5650TIP3    H238510   3.720   2.387   8.714  0.3291  1.2008  1.3193
 5651TIP3   OH238511   6.545   3.174   2.481  0.2688  0.2551  0.2778
 5651TIP3    H138512   6.509   3.101   2.529 -0.1295  1.3545  1.7196
 5651TIP3    H238513   6.636   3.149   2.462 -0.0517 -0.8482  0.1855
 5652TIP3   OH238514   2.175   4.732   7.255 -0.2870  0.1637  0.3966
 5652TIP3    H138515   2.168   4.769   7.168  0.9700 -0.8741 -0.1730
 5652TIP3    H238516   2.100   4.768   7.303 -0.8018  0.9960 -1.0000
 5653TIP3   OH238517   4.496   2.794   8.119  0.1816  0.2167 -0.8977
 5653TIP3    H138518   4.424   2.750   8.073 -0.5930  1.0824 -0.5705
 5653TIP3    H238519   4.529   2.858   8.056  1.4038 -0.8887 -1.4263
 5654TIP3   OH238520   4.332   5.124   8.772  0.0031  0.5948  0.3696
 5654TIP3    H138521   4.248   5.156   8.739 -0.1048 -0.3764 -0.3247
 5654TIP3    H238522   4.397   5.175   8.723 -0.1649  1.3727  0.9332
 5655TIP3   OH238523   4.939   2.243   0.192 -0.0716  0.7956 -0.4647
 5655TIP3    H138524   4.905   2.169   0.243 -0.4573  0.7555 -0.7655
 5655TIP3    H238525   4.874   2.312   0.203  0.4869  1.2336  0.1343
 5656TIP3   OH238526   6.693   5.970   7.848  0.2058 -0.3684  0.0804
 5656TIP3    H138527   6.693   6.066   7.858 -0.7009 -0.4213  0.7181
 5656TIP3    H238528   6.657   5.955   7.761 -1.6263 -0.1623  0.7576
 5657TIP3   OH238529   2.468   6.701   1.201  0.1439 -0.1837 -0.3644
 5657TIP3    H138530   2.509   6.620   1.170  2.3988  0.8772 -0.3657
 5657TIP3    H238531   2.450   6.686   1.293 -0.4778 -1.0603 -0.6215
 5658TIP3   OH238532   3.580   4.308   1.931  0.0544  0.1989 -0.0782
 5658TIP3    H138533   3.638   4.363   1.878  1.9099 -1.6117 -0.0461
 5658TIP3    H238534   3.579   4.351   2.017 -0.4139  1.4125 -0.6613
 5659TIP3   OH238535   6.489   5.695   1.918  0.0806 -0.3782 -0.2005
 5659TIP3    H138536   6.421   5.718   1.980  1.2671  1.1832  0.6064
 5659TIP3    H238537   6.468   5.746   1.839  0.2728  0.0767  0.0367
 5660TIP3   OH238538   3.817   4.089   1.183 -0.0754 -0.3042  0.3431
 5660TIP3    H138539   3.779   4.043   1.258  1.8929 -2.0828  0.3657
 5660TIP3    H238540   3.802   4.181   1.201 -2.7251 -0.8193  1.1543
 5661TIP3   OH238541   1.199   0.463   0.511 -0.0706 -0.4731 -0.4397
 5661TIP3    H138542   1.178   0.547   0.552 -0.6416 -0.8310  0.0215
 5661TIP3    H238543   1.256   0.485   0.438  1.0410  0.1829  0.5878
 5662TIP3   OH238544   4.400   3.062   2.411  0.0985  0.1781 -0.3246
 5662TIP3    H138545   4.313   3.043   2.375  0.4417  0.6446 -1.4639
 5662TIP3    H238546   4.383   3.106   2.494 -0.7865  0.9774 -0.9043
 5663TIP3   OH238547   5.761   0.178   8.293 -0.1930  0.4272 -0.3373
 5663TIP3    H138548   5.769   0.137   8.206 -0.0423 -0.5289  0.1167
 5663TIP3    H238549   5.767   0.272   8.275 -2.5702  0.4161 -1.6447
 5664TIP3   OH238550   1.728   3.298   7.841  0.4755 -0.0183 -0.5709
 5664TIP3    H138551   1.818   3.310   7.871  1.5519  0.8889 -3.7576
 5664TIP3    H238552   1.717   3.203   7.836  0.6778 -0.1743  1.2484
 5665TIP3   OH238553   2.616   4.502   8.160  0.8566  0.4547 -0.1662
 5665TIP3    H138554   2.618   4.595   8.183 -1.3152  0.4568  0.2910
 5665TIP3    H238555   2.644   4.499   8.069  0.9710  1.5714 -0.1840
 5666TIP3   OH238556   1.054   0.272   1.830 -0.0844 -0.1363  0.2152
 5666TIP3    H138557   1.080   0.214   1.759 -2.3634 -1.1291  0.1140
 5666TIP3    H238558   1.101   0.354   1.813  0.8013 -0.9409 -1.3927
 5667TIP3   OH238559   5.062   1.108   0.787  0.0469  0.8235  0.1972
 5667TIP3    H138560   5.023   1.174   0.730  1.1122  0.9688 -0.3875
 5667TIP3    H238561   5.113   1.052   0.729 -0.0163  0.0990  0.8199
 5668TIP3   OH238562   6.600   6.578   7.872 -0.2075  0.1113  0.2839
 5668TIP3    H138563   6.529   6.637   7.895 -0.6166 -0.0755 -0.4709
 5668TIP3    H238564   6.593   6.506   7.935 -1.6798 -0.6859 -0.7128
 5669TIP3   OH238565   4.155   0.054   0.565  0.2403  0.2370  0.0170
 5669TIP3    H138566   4.064   0.079   0.550  0.4388  2.5566  2.0269
 5669TIP3    H238567   4.204   0.094   0.493 -0.1335  0.4515 -0.1200
 5670TIP3   OH238568   3.472   4.266   0.395  0.5299  0.0510  0.3256
 5670TIP3    H138569   3.545   4.326   0.405  0.6964  0.0549 -0.8040
 5670TIP3    H238570   3.403   4.302   0.452  1.5849 -0.3037  1.8834
 5671TIP3   OH238571   6.030   5.016   1.801 -0.3749  0.2522  0.1355
 5671TIP3    H138572   5.999   4.940   1.851  0.1543 -0.0620 -0.0132
 5671TIP3    H238573   6.123   4.999   1.786  0.0182  1.4535  1.0503
 5672TIP3   OH238574   0.854   4.436   2.925  0.3345 -0.4223 -0.1296
 5672TIP3    H138575   0.912   4.374   2.970  1.1979  0.7197  0.3537
 5672TIP3    H238576   0.768   4.421   2.964  0.6352 -0.9629  0.3473
 5673TIP3   OH238577   3.790   0.334   0.826  1.1327  0.3521 -0.9139
 5673TIP3    H138578   3.786   0.244   0.792  0.8379  0.6419 -1.6814
 5673TIP3    H238579   3.787   0.324   0.921 -3.6808 -0.3612 -0.8608
 5674TIP3   OH238580   4.583   0.756   8.703  0.4779 -0.0626 -0.0042
 5674TIP3    H138581   4.643   0.816   8.747  0.0702  0.2589  0.1301
 5674TIP3    H238582   4.534   0.716   8.775  1.3019 -1.1749 -0.0359
 5675TIP3   OH238583   3.763   3.595   2.401 -0.3621  0.1869 -0.2733
 5675TIP3    H138584   3.782   3.511   2.443  2.0935  0.8280  0.0186
 5675TIP3    H238585   3.803   3.589   2.315 -0.2549  1.0208 -0.2894
 5676TIP3   OH238586   5.956   6.006   0.201  0.4655 -0.4935  0.4056
 5676TIP3    H138587   5.903   5.963   0.268  1.1642 -2.4466 -0.2336
 5676TIP3    H238588   5.979   5.936   0.140  0.2781  1.1096 -1.6270
 5677TIP3   OH238589   6.167   3.911   1.853  0.2999 -0.7918 -0.4344
 5677TIP3    H138590   6.256   3.915   1.888  0.6253  3.5003 -1.2104
 5677TIP3    H238591   6.111   3.942   1.925  0.0367  0.5471 -1.1690
 5678TIP3   OH238592   2.921   3.998   0.150  0.4074  0.2045  0.4317
 5678TIP3    H138593   2.934   4.089   0.125 -0.4441  0.4568  0.8822
 5678TIP3    H238594   2.827   3.990   0.166  0.5542 -0.6026  0.9721
 5679TIP3   OH238595   5.968   5.145   7.641 -0.1200  0.6136 -0.1533
 5679TIP3    H138596   6.008   5.225   7.674 -0.3181  0.1883  1.1551
 5679TIP3    H238597   6.014   5.128   7.559  1.6755  0.6952  0.7862
 5680TIP3   OH238598   5.281   5.809   1.277  0.0570  0.1429 -0.3885
 5680TIP3    H138599   5.366   5.851   1.294  0.1437 -0.1554 -0.0777
 5680TIP3    H238600   5.300   5.741   1.213  0.2143 -0.5029  0.3334
 5681TIP3   OH238601   0.212   3.094   7.548  0.2696  0.0880  0.3124
 5681TIP3    H138602   0.183   3.182   7.527 -1.4697 -0.5043  0.0370
 5681TIP3    H238603   0.263   3.066   7.471  0.0369  0.5051  0.0043
 5682TIP3   OH238604   4.510   6.656   8.252  0.2635 -0.4803  0.2409
 5682TIP3    H138605   4.419   6.637   8.234 -0.2089  1.3351  0.4697
 5682TIP3    H238606   4.510   6.748   8.280  2.2550 -0.2027 -0.5135
 5683TIP3   OH238607   6.647   2.014   3.265  0.5729  0.3760  0.0744
 5683TIP3    H138608   6.732   2.055   3.279  0.4905  0.7326 -0.4546
 5683TIP3    H238609   6.667   1.921   3.251  0.7544  0.2041  1.3418
 5684TIP3   OH238610   0.313   3.369   7.683  0.0816  0.3288  0.0274
 5684TIP3    H138611   0.255   3.393   7.611 -0.1169  1.0303  0.4134
 5684TIP3    H238612   0.294   3.276   7.699 -1.2475  0.6503  0.4202
 5685TIP3   OH238613   1.482   2.266   0.218  0.3727  0.3452  0.0705
 5685TIP3    H138614   1.565   2.254   0.172 -0.2647 -0.0404 -0.9986
 5685TIP3    H238615   1.418   2.280   0.149 -0.3296  1.4566  0.9234
 5686TIP3   OH238616   2.721   0.060   1.251  0.4710 -0.2347  0.5806
 5686TIP3    H138617   2.764   0.146   1.244 -0.1420  0.0987  0.8104
 5686TIP3    H238618   2.793  -0.003   1.251  0.8640  0.0523 -2.5270
 5687TIP3   OH238619   2.783   0.883   0.092 -0.0869  0.1688  0.0021
 5687TIP3    H138620   2.705   0.828   0.082 -1.0541  1.3782  0.6435
 5687TIP3    H238621   2.805   0.875   0.185  1.2804 -1.0687 -0.3865
 5688TIP3   OH238622   5.015   5.153   0.270  0.4603 -0.8906 -0.6531
 5688TIP3    H138623   4.976   5.067   0.256 -0.0450 -1.0195  1.3473
 5688TIP3    H238624   4.979   5.207   0.199 -1.1709 -1.7053 -0.4989
 5689TIP3   OH238625   1.046   3.811   2.616  1.2080  0.2805 -0.0138
 5689TIP3    H138626   1.094   3.893   2.625 -0.5270  1.6560 -2.2865
 5689TIP3    H238627   0.968   3.822   2.670 -0.6074  1.5443 -2.6816
 5690TIP3   OH238628   6.815   1.498   7.962 -0.0720 -0.3088  0.4276
 5690TIP3    H138629   6.777   1.411   7.951 -2.8753  1.0545 -2.0502
 5690TIP3    H238630   6.750   1.547   8.011  0.2526  1.0792 -0.4654
 5691TIP3   OH238631   3.663   1.087   2.733  1.6365 -0.6448  0.2336
 5691TIP3    H138632   3.647   1.163   2.789 -0.8045 -1.5698  0.9202
 5691TIP3    H238633   3.580   1.039   2.733  2.1849 -1.8067 -2.5299
 5692TIP3   OH238634   1.285   0.802   0.903  0.1114  0.5435 -0.3461
 5692TIP3    H138635   1.379   0.811   0.920  0.4725 -2.0235 -0.6669
 5692TIP3    H238636   1.279   0.774   0.812 -1.1862  3.1420 -1.1785
 5693TIP3   OH238637   5.100   1.834   0.311  0.1009  0.2607 -0.2682
 5693TIP3    H138638   5.128   1.916   0.352  0.5817  0.4723 -1.0122
 5693TIP3    H238639   5.167   1.815   0.246  1.5304 -2.1784  1.7138
 5694TIP3   OH238640   4.220   3.195   2.132  0.7098 -0.5606 -0.0059
 5694TIP3    H138641   4.224   3.138   2.056 -0.3521  0.6704 -1.0418
 5694TIP3    H238642   4.220   3.284   2.096 -1.2307  0.0420  1.2957
 5695TIP3   OH238643   4.264   5.221   7.895 -0.8421 -0.2565 -0.4278
 5695TIP3    H138644   4.329   5.286   7.923 -0.7797 -0.7475  0.6199
 5695TIP3    H238645   4.253   5.165   7.972 -1.1984 -1.2399 -1.1922
 5696TIP3   OH238646   6.147   1.745   8.293 -0.3374 -0.1108  0.0398
 5696TIP3    H138647   6.119   1.658   8.266 -1.6718  0.6494 -1.1461
 5696TIP3    H238648   6.233   1.756   8.253 -0.2721 -0.7669 -0.0085
 5697TIP3   OH238649   5.999   5.275   8.189 -0.2464  0.0610  0.1899
 5697TIP3    H138650   6.015   5.364   8.159  1.1383  0.1643  1.1540
 5697TIP3    H238651   6.035   5.220   8.119  2.3207  0.2992  1.2194
 5698TIP3   OH238652   0.622   3.306   1.687 -0.4391  0.7749  0.0319
 5698TIP3    H138653   0.585   3.388   1.721 -0.8721 -0.4896  2.8629
 5698TIP3    H238654   0.708   3.299   1.729  1.3569  1.4931 -3.1014
 5699TIP3   OH238655   1.382   0.284   8.579  0.4576 -0.1694 -0.1282
 5699TIP3    H138656   1.352   0.357   8.633  1.5858  0.2713 -0.0741
 5699TIP3    H238657   1.459   0.317   8.534 -0.0387 -0.7637 -1.4721
 5700TIP3   OH238658   1.676   4.912   7.366  0.3223  0.3223 -0.0018
 5700TIP3    H138659   1.613   4.873   7.304 -2.1552  0.6504  2.1599
 5700TIP3    H238660   1.623   4.935   7.442  3.2412 -0.1537  2.3253
 5701TIP3   OH238661   3.508   0.505   7.123 -0.4220 -0.4481 -0.0828
 5701TIP3    H138662   3.536   0.457   7.045  0.7223  0.1588 -0.0636
 5701TIP3    H238663   3.453   0.575   7.090 -1.7120 -1.4521 -0.1507
 5702TIP3   OH238664   2.570   0.701   0.106  0.3624 -0.6041  0.1527
 5702TIP3    H138665   2.624   0.622   0.109  0.6579 -0.3753  1.2319
 5702TIP3    H238666   2.527   0.697   0.020 -0.9515 -2.7916  0.8343
 5703TIP3   OH238667   0.776   2.155   1.494  0.1479  0.4489  0.4874
 5703TIP3    H138668   0.782   2.090   1.565 -0.8695  0.0779  0.2471
 5703TIP3    H238669   0.809   2.109   1.417 -1.3130 -0.0815  0.1430
 5704TIP3   OH238670   2.916   4.355   8.411  0.5818 -0.0119  0.5781
 5704TIP3    H138671   2.833   4.307   8.421 -0.2982  1.3311  0.0449
 5704TIP3    H238672   2.890   4.447   8.407  2.2250  0.5399  1.6336
 5705TIP3   OH238673   4.309   4.296   0.321 -0.6701  0.3232  0.0402
 5705TIP3    H138674   4.246   4.226   0.336 -0.2876  0.1596  0.9421
 5705TIP3    H238675   4.313   4.305   0.226 -1.8484  0.1594 -0.0395
 5706TIP3   OH238676   5.301   6.677   2.089 -0.2819 -0.0770  0.3703
 5706TIP3    H138677   5.288   6.764   2.127  0.8315  0.1774  0.1965
 5706TIP3    H238678   5.239   6.673   2.016 -2.0282 -0.3438  1.7953
 5707TIP3   OH238679   1.576   5.967   1.616 -0.2639  0.4103  0.0719
 5707TIP3    H138680   1.556   5.954   1.708 -1.7937  1.4196 -0.0692
 5707TIP3    H238681   1.528   5.898   1.571 -2.0055  1.6810 -0.1329
 5708TIP3   OH238682   2.352   1.944   0.269  0.7921 -0.0085  0.1290
 5708TIP3    H138683   2.346   1.874   0.204  1.5024 -1.6499  1.7443
 5708TIP3    H238684   2.382   2.020   0.220 -1.6512 -0.2941 -2.0395
 5709TIP3   OH238685   0.397   5.471   0.938 -0.3406 -0.3208  0.0219
 5709TIP3    H138686   0.401   5.547   0.996  0.2651 -1.1266  1.0652
 5709TIP3    H238687   0.310   5.476   0.898 -1.4528 -0.6579  2.2653
 5710TIP3   OH238688   4.767   0.136   1.085  0.2275  0.5378  0.8401
 5710TIP3    H138689   4.722   0.053   1.075 -1.9802  1.8632 -1.1178
 5710TIP3    H238690   4.825   0.123   1.160 -1.4742 -2.1196  1.8205
 5711TIP3   OH238691   4.863   0.412   2.506  0.0042  0.4398  0.4139
 5711TIP3    H138692   4.856   0.507   2.500  1.7183  0.8069  2.8747
 5711TIP3    H238693   4.929   0.388   2.441 -0.0515  1.0061  0.1498
 5712TIP3   OH238694   3.688   1.728   1.783 -0.2052 -0.5798  0.3159
 5712TIP3    H138695   3.733   1.812   1.782  1.5447 -1.4431  0.8838
 5712TIP3    H238696   3.740   1.672   1.725 -0.8737 -1.4767  0.5450
 5713TIP3   OH238697   3.264   2.895   0.831 -0.2091 -0.1465 -0.4754
 5713TIP3    H138698   3.239   2.882   0.922  0.4125 -1.8987 -0.5076
 5713TIP3    H238699   3.182   2.893   0.782 -0.4597 -0.3629 -0.0489
 5714TIP3   OH238700   5.568   3.107   8.449  0.0780  0.1016 -0.2206
 5714TIP3    H138701   5.617   3.121   8.530 -0.3303  0.1587  0.0212
 5714TIP3    H238702   5.520   3.189   8.436 -2.6255 -1.0916  1.3996
 5715TIP3   OH238703   1.744   3.094   1.926  0.2006 -0.3625  0.4391
 5715TIP3    H138704   1.780   3.089   2.015 -2.7700  0.7613  1.8184
 5715TIP3    H238705   1.711   3.006   1.909  2.1299 -1.0039 -0.2536
 5716TIP3   OH238706   5.832   4.939   1.033 -0.1890 -0.5006 -0.5290
 5716TIP3    H138707   5.920   4.972   1.015 -0.2625 -0.0299 -0.0699
 5716TIP3    H238708   5.823   4.944   1.129  0.0853 -2.6459 -0.3541
 5717TIP3   OH238709   4.474   2.907   1.930  0.6833 -0.7887  0.0791
 5717TIP3    H138710   4.471   2.878   2.021 -0.3709  2.6371  1.2624
 5717TIP3    H238711   4.400   2.967   1.921  0.5353 -1.2537 -3.1896
 5718TIP3   OH238712   2.547   6.665   2.603 -0.0370  0.2089 -0.3054
 5718TIP3    H138713   2.509   6.610   2.671 -0.9799  1.0753 -0.1096
 5718TIP3    H238714   2.614   6.610   2.562 -0.7568 -0.9735  0.0637
 5719TIP3   OH238715   0.676   1.033   0.643 -0.2980  0.3752  0.0940
 5719TIP3    H138716   0.622   0.999   0.571 -1.3713  1.0943  0.5393
 5719TIP3    H238717   0.657   1.127   0.645  1.2070  0.7186  0.0824
 5720TIP3   OH238718   6.523   2.141   8.167  0.4936 -0.0887  0.4261
 5720TIP3    H138719   6.500   2.048   8.177 -0.4795  0.1087  0.1837
 5720TIP3    H238720   6.533   2.154   8.073  2.1215 -0.2623  0.5469
 5721TIP3   OH238721   0.412   3.139   1.751  0.7003  0.6379 -0.3129
 5721TIP3    H138722   0.481   3.205   1.752  1.4807 -0.1575 -0.3661
 5721TIP3    H238723   0.428   3.089   1.671  1.8762 -1.4063  1.1228
 5722TIP3   OH238724   5.955   3.569   1.703  0.3418 -0.2766 -0.4866
 5722TIP3    H138725   5.906   3.642   1.739  1.8297  0.1112  0.8676
 5722TIP3    H238726   5.894   3.495   1.705 -0.0736  0.0706  1.5970
 5723TIP3   OH238727   5.720   4.612   7.604 -0.1375 -0.1107 -0.1031
 5723TIP3    H138728   5.676   4.528   7.616  2.4254 -1.4445  0.7104
 5723TIP3    H238729   5.753   4.634   7.691  0.7569  0.8118 -0.6582
 5724TIP3   OH238730   3.011   5.100   8.088 -0.7729  0.2205 -0.3497
 5724TIP3    H138731   2.972   5.022   8.048 -1.8896 -0.6128  2.1599
 5724TIP3    H238732   3.100   5.103   8.053 -0.2888 -2.8934  0.2835
 5725TIP3   OH238733   2.659   0.434   0.038  0.2832  0.0610 -0.1104
 5725TIP3    H138734   2.731   0.372   0.030  0.0925 -0.5036  1.9864
 5725TIP3    H238735   2.585   0.382   0.069 -0.4977  0.9596 -0.4011
 5726TIP3   OH238736   0.401   5.358   2.494 -0.1376 -0.0122  0.4736
 5726TIP3    H138737   0.423   5.415   2.568  1.0234 -1.3051  1.1754
 5726TIP3    H238738   0.437   5.273   2.518  1.0469 -0.2872 -1.9306
 5727TIP3   OH238739   0.082   6.732   0.075  0.3238 -0.0240  0.2414
 5727TIP3    H138740   0.096   6.640   0.051 -0.8389 -0.0042 -0.6265
 5727TIP3    H238741  -0.001   6.732   0.122  0.0859  0.6417 -0.1671
 5728TIP3   OH238742   6.246   4.259   7.706 -0.5708  0.3249 -0.3923
 5728TIP3    H138743   6.235   4.274   7.800  0.0023  0.8167 -0.3967
 5728TIP3    H238744   6.325   4.308   7.683  0.7022 -1.7697 -0.6692
 5729TIP3   OH238745   3.308   4.500   2.555  0.4012 -0.5564  0.0823
 5729TIP3    H138746   3.308   4.528   2.647 -0.3994 -1.6429  0.4332
 5729TIP3    H238747   3.364   4.423   2.554 -0.3960 -1.1395 -0.1458
 5730TIP3   OH238748   4.349   5.862   2.331 -0.0812  0.2929  0.2181
 5730TIP3    H138749   4.275   5.822   2.377  1.0166  0.2259  2.0067
 5730TIP3    H238750   4.412   5.882   2.400  1.1968  1.1885 -1.1579
 5731TIP3   OH238751   4.261   0.663   0.719  0.7721  0.2426  0.0665
 5731TIP3    H138752   4.294   0.573   0.715 -2.5011 -1.1158  0.0627
 5731TIP3    H238753   4.173   0.658   0.682  0.2084  3.3618  0.6586
 5732TIP3   OH238754   5.326   1.581   0.661  0.2179 -0.2293 -0.1617
 5732TIP3    H138755   5.296   1.666   0.692 -1.0272 -0.5022 -0.5859
 5732TIP3    H238756   5.376   1.600   0.582  0.7130  0.1742  0.2374
 5733TIP3   OH238757   6.027   6.001   8.406 -0.5281 -0.2882  0.2257
 5733TIP3    H138758   5.997   5.912   8.389 -1.7349  0.5718 -2.9443
 5733TIP3    H238759   6.112   6.007   8.361  0.2536 -0.2060  1.6574
 5734TIP3   OH238760   0.635   0.703   1.464 -0.4702  0.1914  0.0468
 5734TIP3    H138761   0.720   0.666   1.488 -0.6734 -0.1622  0.2311
 5734TIP3    H238762   0.598   0.640   1.402 -1.1601 -0.3304  0.9612
 5735TIP3   OH238763   5.977   1.436   1.749  0.2811 -0.1955  0.3763
 5735TIP3    H138764   5.943   1.396   1.669 -0.3301  0.2635  0.4069
 5735TIP3    H238765   5.903   1.481   1.788  1.1139  1.6296 -0.0483
 5736TIP3   OH238766   5.098   5.990   1.363 -0.0611  0.5677  0.0711
 5736TIP3    H138767   5.011   5.971   1.329 -0.0140  2.2902 -1.1724
 5736TIP3    H238768   5.149   5.910   1.346 -0.8531  0.2986 -1.1406
 5737TIP3   OH238769   6.633   2.225   0.590  0.0559  0.2241  0.4176
 5737TIP3    H138770   6.639   2.303   0.645 -0.9934 -0.6043  1.7757
 5737TIP3    H238771   6.642   2.152   0.651  0.8603 -0.7450 -0.8080
 5738TIP3   OH238772   3.137   1.232   0.235  0.3242 -0.4500  0.1814
 5738TIP3    H138773   3.133   1.160   0.173 -0.5785 -0.3305  0.0899
 5738TIP3    H238774   3.056   1.280   0.221  0.2170 -0.2878  1.2947
 5739TIP3   OH238775   6.394   0.191   1.144 -0.0439 -0.8613 -0.3236
 5739TIP3    H138776   6.485   0.177   1.171 -0.4750  0.2758  1.9637
 5739TIP3    H238777   6.345   0.124   1.193 -0.6084 -0.4231 -0.2873
 5740TIP3   OH238778   5.540   1.837   8.240 -0.3463  0.3008  0.2334
 5740TIP3    H138779   5.460   1.789   8.263 -0.2555  1.3132  2.9436
 5740TIP3    H238780   5.602   1.814   8.308  1.9521 -0.8525 -2.0829
 5741TIP3   OH238781   4.263   5.752   2.792  0.3212 -0.2206  0.0987
 5741TIP3    H138782   4.213   5.821   2.836 -1.1952 -1.8238  1.0380
 5741TIP3    H238783   4.354   5.782   2.795 -0.2585  1.6228  0.6338
 5742TIP3   OH238784   2.767   4.288   0.938 -0.5139  0.2125  0.0495
 5742TIP3    H138785   2.722   4.231   1.000 -0.0305 -0.1197  0.1061
 5742TIP3    H238786   2.856   4.253   0.934 -0.4467  0.4371 -0.5748
 5743TIP3   OH238787   5.545   5.564   1.606  0.3173 -0.4079  0.1615
 5743TIP3    H138788   5.485   5.515   1.550  1.6808 -1.3390 -0.5620
 5743TIP3    H238789   5.502   5.648   1.620 -1.1109 -1.0141 -0.3703
 5744TIP3   OH238790   3.209   3.029   7.116  0.2572  0.1998  0.1430
 5744TIP3    H138791   3.177   2.943   7.142 -0.8213  0.9059  1.2643
 5744TIP3    H238792   3.130   3.083   7.108  0.6524  0.5321 -2.9650
 5745TIP3   OH238793   0.614   3.515   0.544  0.2815 -0.3651 -0.1192
 5745TIP3    H138794   0.594   3.608   0.538  0.3307 -0.3222  0.2995
 5745TIP3    H238795   0.654   3.492   0.460 -0.7860 -0.2691 -0.6680
 5746TIP3   OH238796   0.337   6.577   7.255 -0.7025  0.0548  0.2395
 5746TIP3    H138797   0.264   6.546   7.201  0.0198 -0.9076 -0.2118
 5746TIP3    H238798   0.326   6.530   7.338 -1.0468  0.5201  0.4616
 5747TIP3   OH238799   1.522   3.005   0.178 -0.5515 -0.8201  0.1862
 5747TIP3    H138800   1.605   2.971   0.145 -1.1413 -0.0934 -2.2128
 5747TIP3    H238801   1.547   3.078   0.234  0.4683  1.7741 -3.3357
 5748TIP3   OH238802   0.069   6.040   2.726  0.3389 -0.0069 -0.2562
 5748TIP3    H138803   0.069   6.135   2.720  0.0472  0.0460  0.4265
 5748TIP3    H238804   0.031   6.011   2.643 -0.5364  0.5199 -0.0595
 5749TIP3   OH238805   5.289   1.250   7.821 -0.2591 -0.4227 -0.1178
 5749TIP3    H138806   5.365   1.214   7.775 -0.8095 -1.7264 -0.0778
 5749TIP3    H238807   5.249   1.174   7.863 -1.4611  0.2685  0.0355
 5750TIP3   OH238808   6.374   2.045   3.127  0.1479  0.5031 -0.4617
 5750TIP3    H138809   6.327   2.120   3.162  0.7250  0.8813 -0.4858
 5750TIP3    H238810   6.447   2.031   3.188  0.0157 -0.0748 -0.4239
 5751TIP3   OH238811   5.490   4.896   8.406 -0.4932 -0.0578  0.5316
 5751TIP3    H138812   5.559   4.944   8.452 -0.1168 -0.7662  0.7184
 5751TIP3    H238813   5.521   4.888   8.316 -0.5057 -0.0465  0.5262
 5752TIP3   OH238814   4.866   5.907   7.038 -0.0981  0.1835 -0.1249
 5752TIP3    H138815   4.798   5.935   7.099 -0.6500 -0.8778 -0.2372
 5752TIP3    H238816   4.915   5.840   7.085  0.8535  0.8942 -0.0676
 5753TIP3   OH238817   3.893   0.155   3.008  0.8114  0.4851  0.0486
 5753TIP3    H138818   3.892   0.106   2.926  1.4364  2.1333 -1.0121
 5753TIP3    H238819   3.945   0.101   3.067 -0.6547 -1.3160 -0.1990
 5754TIP3   OH238820   4.243   0.224   0.360 -0.5079 -0.0968  0.3115
 5754TIP3    H138821   4.192   0.305   0.365 -0.4840  0.0449 -1.1909
 5754TIP3    H238822   4.218   0.185   0.276  2.1887  0.2164 -0.7325
 5755TIP3   OH238823   1.163   4.328   7.501 -1.0354 -0.4491  0.2566
 5755TIP3    H138824   1.161   4.233   7.514  0.3579 -0.7831 -1.5627
 5755TIP3    H238825   1.256   4.348   7.488 -1.3659  1.0838  0.1126
 5756TIP3   OH238826   5.011   1.593   1.614 -0.3271  0.0165 -0.4648
 5756TIP3    H138827   5.001   1.606   1.520  1.4646 -1.2437 -0.8898
 5756TIP3    H238828   5.011   1.498   1.626 -0.1866  0.1515  0.7651
 5757TIP3   OH238829   0.888   4.839   7.624 -0.2619 -0.2424  0.4440
 5757TIP3    H138830   0.909   4.853   7.532 -0.5753 -1.9663  0.0611
 5757TIP3    H238831   0.883   4.926   7.662 -1.5956  0.6032 -1.5054
 5758TIP3   OH238832   5.594   1.228   0.576  0.3702 -0.1131 -0.1650
 5758TIP3    H138833   5.511   1.265   0.605 -0.2582 -0.1432 -1.8325
 5758TIP3    H238834   5.603   1.256   0.485  1.5759 -1.1587 -0.4025
 5759TIP3   OH238835   2.904   5.137   6.964 -0.4036  0.0234 -0.3513
 5759TIP3    H138836   2.924   5.076   6.893 -0.5551  0.3980 -0.7205
 5759TIP3    H238837   2.952   5.102   7.040  1.0674  0.4812 -1.0202
 5760TIP3   OH238838   3.363   0.957   8.642  0.3361 -0.0131  0.7598
 5760TIP3    H138839   3.369   1.029   8.705  0.6345 -0.4279  1.2146
 5760TIP3    H238840   3.440   0.903   8.660 -0.3665 -0.9424  1.0508
 5761TIP3   OH238841   2.205   0.393   2.613 -0.2345 -0.1808 -0.4652
 5761TIP3    H138842   2.170   0.445   2.685 -3.8252 -0.9159 -1.4663
 5761TIP3    H238843   2.288   0.435   2.591  1.2007 -0.0646  4.1269
 5762TIP3   OH238844   1.984   1.935   8.175 -0.6085 -0.2603 -0.0466
 5762TIP3    H138845   1.931   1.912   8.098  1.1855  1.3043 -1.8730
 5762TIP3    H238846   2.073   1.912   8.150  0.3020  2.1683  0.7389
 5763TIP3   OH238847   6.620   1.191   0.880 -0.2855  0.1782 -0.1742
 5763TIP3    H138848   6.602   1.237   0.798  0.0595  2.4101  0.9194
 5763TIP3    H238849   6.550   1.219   0.939  1.1515  1.0905  1.1761
 5764TIP3   OH238850   0.174   0.951   8.428  0.5061 -0.3139 -0.4281
 5764TIP3    H138851   0.128   1.007   8.491 -0.4151 -1.0787 -0.3983
 5764TIP3    H238852   0.263   0.985   8.427  0.1190  0.7786  0.0285
 5765TIP3   OH238853   0.450   4.746   2.434 -0.5136  0.3574 -0.2501
 5765TIP3    H138854   0.454   4.805   2.509 -1.6295  0.2701 -0.0995
 5765TIP3    H238855   0.486   4.798   2.362  0.3881  0.5084  0.2938
 5766TIP3   OH238856   5.539   3.483   8.200 -0.2498  0.1648  0.4414
 5766TIP3    H138857   5.551   3.575   8.222 -3.4462  0.6075  0.7790
 5766TIP3    H238858   5.449   3.477   8.167 -0.1211 -2.8273  0.3120
 5767TIP3   OH238859   3.987   5.309   0.331 -0.4674 -0.2338  0.0333
 5767TIP3    H138860   4.034   5.341   0.408 -1.1175  1.8030 -0.3616
 5767TIP3    H238861   3.900   5.347   0.338 -1.0748 -1.3673 -0.8917
 5768TIP3   OH238862   1.657   1.812   0.844 -0.2981  0.2820 -0.4569
 5768TIP3    H138863   1.693   1.896   0.873 -0.8861  0.6371 -0.7415
 5768TIP3    H238864   1.734   1.762   0.815  0.1713  0.3257  0.6752
 5769TIP3   OH238865   0.111   0.367   0.063 -0.6866 -0.2911 -0.2105
 5769TIP3    H138866   0.092   0.296   0.002 -2.0720 -0.3801  0.2839
 5769TIP3    H238867   0.035   0.370   0.120 -0.4917  1.3647  0.0087
 5770TIP3   OH238868   0.384   4.454   7.686  0.2082  0.9387 -0.3857
 5770TIP3    H138869   0.443   4.380   7.675  0.0723  0.6295  0.8459
 5770TIP3    H238870   0.297   4.419   7.665  0.1474  0.7575  0.1708
 5771TIP3   OH238871   1.875   6.721   8.207  0.1241 -0.0808  0.5079
 5771TIP3    H138872   1.861   6.779   8.132  1.2618 -0.6796 -0.1967
 5771TIP3    H238873   1.877   6.633   8.170  0.4748 -0.4086  1.2794
 5772TIP3   OH238874   5.379   2.315   2.459 -0.0471  0.5660 -0.0584
 5772TIP3    H138875   5.347   2.397   2.495  1.0761  0.4203  1.3833
 5772TIP3    H238876   5.323   2.248   2.499 -0.0511  0.5356 -0.1154
 5773TIP3   OH238877   4.513   4.987   7.787  0.3562  0.1588  0.5368
 5773TIP3    H138878   4.510   4.914   7.724 -0.3225  0.9102 -0.3417
 5773TIP3    H238879   4.503   4.945   7.872  2.3401 -0.9971  0.2671
 5774TIP3   OH238880   2.254   1.131   7.684  0.0999 -0.0614  0.0006
 5774TIP3    H138881   2.347   1.133   7.663  0.4940  0.8863  1.6225
 5774TIP3    H238882   2.215   1.195   7.625  0.3135 -1.1052 -1.3003
 5775TIP3   OH238883   4.265   1.575   8.254 -0.3838 -0.2181  0.5644
 5775TIP3    H138884   4.179   1.600   8.223  1.0865  0.5920 -3.3505
 5775TIP3    H238885   4.319   1.654   8.246  1.3476 -1.3511  0.3170
 5776TIP3   OH238886   0.755   2.778   3.044  0.2150 -0.1737  0.2437
 5776TIP3    H138887   0.843   2.742   3.034  0.1303 -0.8313  1.6867
 5776TIP3    H238888   0.766   2.873   3.032  1.4473 -0.0329  2.1405
 5777TIP3   OH238889   1.095   3.247   0.804  0.0369 -0.1749 -0.0879
 5777TIP3    H138890   1.090   3.180   0.736 -1.4728  1.8200 -2.1351
 5777TIP3    H238891   1.115   3.328   0.757  0.7478  1.0283  2.1135
 5778TIP3   OH238892   6.313   6.724   0.276  0.4954 -0.2835  0.2001
 5778TIP3    H138893   6.274   6.811   0.273  0.4203 -0.1849  2.5691
 5778TIP3    H238894   6.238   6.664   0.281  0.5800 -0.4232 -0.1312
 5779TIP3   OH238895   6.826   5.886   1.700 -0.0683 -0.3869  0.1823
 5779TIP3    H138896   6.919   5.898   1.723  0.1113  0.0612 -0.6963
 5779TIP3    H238897   6.778   5.915   1.777  0.4919  1.5750 -0.1241
 5780TIP3   OH238898   1.573   3.870   0.754 -0.5198  0.0891  0.1952
 5780TIP3    H138899   1.653   3.821   0.777 -1.0118 -1.3222 -0.9823
 5780TIP3    H238900   1.558   3.927   0.830  1.0857 -0.2749  0.8364
 5781TIP3   OH238901   6.438   1.295   7.909 -0.1893 -0.0113 -0.2912
 5781TIP3    H138902   6.420   1.273   7.817  1.6790 -1.9377 -0.2697
 5781TIP3    H238903   6.394   1.226   7.959  0.6377 -0.2437  0.1307
 5782TIP3   OH238904   6.487   4.712   8.770 -0.1618 -0.4587  0.5592
 5782TIP3    H138905   6.570   4.759   8.781 -0.8309  0.8646  0.1544
 5782TIP3    H238906   6.422   4.770   8.810 -1.3013 -0.0642 -1.7521
 5783TIP3   OH238907   1.763   4.036   1.357 -0.1902  0.2800 -0.2657
 5783TIP3    H138908   1.697   4.064   1.420  0.6083 -2.0736  1.7910
 5783TIP3    H238909   1.844   4.078   1.386  0.1150 -0.5563  0.1431
 5784TIP3   OH238910   0.115   2.843   7.366 -0.2883 -0.1957  0.2845
 5784TIP3    H138911   0.093   2.843   7.272  0.2017  0.9189  0.1559
 5784TIP3    H238912   0.174   2.768   7.376  0.0122 -0.0616 -0.3894
 5785TIP3   OH238913   1.917   2.964   8.061  0.0572 -0.1227 -0.2382
 5785TIP3    H138914   1.926   2.870   8.046  2.2149  0.0809 -0.5973
 5785TIP3    H238915   1.841   2.990   8.009 -1.6329 -1.9033  1.2157
 5786TIP3   OH238916   2.027   4.948   7.148 -0.4241 -0.1560  0.1476
 5786TIP3    H138917   2.004   4.978   7.061 -0.3470 -0.7637 -0.0837
 5786TIP3    H238918   2.113   4.987   7.165 -0.1191 -0.6072 -0.3341
 5787TIP3   OH238919   6.648   2.183   1.523 -0.5752 -0.4659 -0.3135
 5787TIP3    H138920   6.657   2.089   1.542 -1.0497 -0.3566  0.5079
 5787TIP3    H238921   6.588   2.187   1.448 -0.0989 -0.8371 -0.7218
 5788TIP3   OH238922   3.322   1.640   7.536 -0.1447  0.0090  0.5089
 5788TIP3    H138923   3.295   1.726   7.504 -2.9372 -0.0566  2.3859
 5788TIP3    H238924   3.408   1.655   7.576 -1.6011  2.5976  3.0610
 5789TIP3   OH238925   4.680   3.914   1.580 -0.6000  0.4396  0.1391
 5789TIP3    H138926   4.592   3.951   1.577 -0.1975  1.4281  0.0383
 5789TIP3    H238927   4.676   3.850   1.651 -1.3540  0.6032  0.2587
 5790TIP3   OH238928   6.204   2.422   8.425  0.5923 -0.3729  0.2090
 5790TIP3    H138929   6.121   2.374   8.426 -0.0191  0.2075  5.8421
 5790TIP3    H238930   6.191   2.490   8.359 -3.6870  0.0367  1.1900
 5791TIP3   OH238931   4.966   4.422   7.906  0.2449  0.1496  0.3683
 5791TIP3    H138932   4.967   4.516   7.924  0.3122  0.1421  0.4015
 5791TIP3    H238933   4.940   4.416   7.814 -0.4838  0.1749  0.5586
 5792TIP3   OH238934   1.990   5.009   7.656 -0.6545 -0.0030  0.3877
 5792TIP3    H138935   1.972   4.915   7.647 -1.3888  0.0645  1.0494
 5792TIP3    H238936   1.965   5.029   7.746 -1.0281  0.9511  0.0790
 5793TIP3   OH238937   2.646   6.141   7.908 -0.4408  0.5239  0.2365
 5793TIP3    H138938   2.660   6.226   7.949  0.6550 -0.3617  1.7994
 5793TIP3    H238939   2.674   6.153   7.817  0.8649  1.5323  0.7388
 5794TIP3   OH238940   4.069   2.435   0.312  0.1627  0.2422 -0.8616
 5794TIP3    H138941   4.145   2.457   0.365 -0.0038 -0.9939 -0.0758
 5794TIP3    H238942   4.063   2.506   0.248  2.1153  0.2448 -1.1062
 5795TIP3   OH238943   0.922   6.588   0.057  0.3217  1.0348  0.6837
 5795TIP3    H138944   0.904   6.548  -0.028  1.4132 -0.2697  1.0312
 5795TIP3    H238945   0.890   6.678   0.048 -1.4133  0.3649 -0.4291
 5796TIP3   OH238946   1.120   2.063   8.506 -0.3809 -0.3132 -0.2456
 5796TIP3    H138947   1.043   2.019   8.471  0.9872 -2.3246 -0.9248
 5796TIP3    H238948   1.191   2.039   8.446  1.5219 -1.6536  2.3132
 5797TIP3   OH238949   0.921   6.817   1.136 -0.1301  0.2382  0.6213
 5797TIP3    H138950   0.976   6.796   1.211 -0.3090  2.6260  1.5081
 5797TIP3    H238951   0.842   6.764   1.148 -0.0333  0.3837  1.9801
 5798TIP3   OH238952   0.451   0.297   7.948 -0.3721 -0.2387  0.7912
 5798TIP3    H138953   0.433   0.388   7.972 -0.0908 -0.0516  0.3198
 5798TIP3    H238954   0.513   0.304   7.875 -3.0199 -0.7089 -1.6564
 5799TIP3   OH238955   2.730   2.080   1.213  0.0486 -0.0663  0.3260
 5799TIP3    H138956   2.804   2.032   1.177  0.1688 -0.2619  0.8243
 5799TIP3    H238957   2.662   2.013   1.225 -1.0380  0.4414 -2.1895
 5800TIP3   OH238958   4.079   1.775   0.042  0.5600 -0.1645  0.5359
 5800TIP3    H138959   4.030   1.849   0.079  1.7102  0.9768 -0.1343
 5800TIP3    H238960   4.106   1.805  -0.045  2.1718 -0.8431  0.7566
 5801TIP3   OH238961   4.694   4.595   7.573  0.4684  0.1300  0.3883
 5801TIP3    H138962   4.611   4.568   7.532  1.4476 -1.0044 -0.9595
 5801TIP3    H238963   4.678   4.684   7.604 -1.3301 -0.1646  0.4064
 5802TIP3   OH238964   2.450   6.774   3.158 -0.1276  0.5094 -0.8306
 5802TIP3    H138965   2.413   6.756   3.071  0.2642 -0.3054 -0.8352
 5802TIP3    H238966   2.517   6.841   3.141 -0.9690  1.3450 -0.9479
 5803TIP3   OH238967   1.808   4.101   7.685 -0.2028 -0.3079 -0.2207
 5803TIP3    H138968   1.812   4.163   7.757  0.5552 -0.8829  0.2432
 5803TIP3    H238969   1.768   4.150   7.613 -1.0114  0.2566  0.5940
 5804TIP3   OH238970   4.562   1.925   7.889 -0.4141  0.0012  0.0765
 5804TIP3    H138971   4.610   1.843   7.896  0.1493  0.2061 -1.2768
 5804TIP3    H238972   4.625   1.992   7.914 -0.4843  0.1331 -0.0997
 5805TIP3   OH238973   1.023   1.145   8.713 -0.0721  0.3558  0.4823
 5805TIP3    H138974   0.960   1.151   8.642  0.1141 -0.5009  0.2334
 5805TIP3    H238975   0.971   1.152   8.793 -0.4462 -0.0584  0.2769
 5806TIP3   OH238976   4.241   2.290   1.220 -0.0052  0.6305 -0.0512
 5806TIP3    H138977   4.321   2.330   1.185 -0.2224  0.1741 -1.1209
 5806TIP3    H238978   4.238   2.319   1.311  1.8830 -0.1024  0.2969
 5807TIP3   OH238979   4.516   5.898   2.812  0.1540 -0.1517  0.2676
 5807TIP3    H138980   4.495   5.987   2.839  2.0241  0.1155  1.0111
 5807TIP3    H238981   4.605   5.883   2.844  1.2293 -1.0827 -2.7300
 5808TIP3   OH238982   3.933   0.723   2.914 -0.8352  0.6449  0.2065
 5808TIP3    H138983   3.878   0.645   2.900 -1.9760  1.3186  0.8086
 5808TIP3    H238984   4.022   0.692   2.900 -1.3353 -0.5686 -0.4465
 5809TIP3   OH238985   6.598   6.601   8.344  0.2288 -0.6169 -0.0527
 5809TIP3    H138986   6.509   6.634   8.358  1.2344  2.2622  0.1908
 5809TIP3    H238987   6.615   6.617   8.251  0.9022 -0.0255  0.1694
 5810TIP3   OH238988   3.776   5.594   8.420 -0.3666  0.6100  0.4178
 5810TIP3    H138989   3.863   5.598   8.380 -0.9111 -1.0912 -1.0467
 5810TIP3    H238990   3.737   5.679   8.402 -0.0357  0.4026 -1.4452
 5811TIP3   OH238991   5.268   1.340   1.842 -0.4772  0.1582  0.1025
 5811TIP3    H138992   5.328   1.398   1.794 -1.0612  0.4050 -0.3413
 5811TIP3    H238993   5.320   1.308   1.916 -0.2236  1.4729  0.5179
 5812TIP3   OH238994   6.508   2.300   2.982 -0.8165 -0.9844 -0.4514
 5812TIP3    H138995   6.517   2.354   3.060 -3.4044 -1.7055  0.4375
 5812TIP3    H238996   6.596   2.265   2.967  0.3846  1.4747  0.3588
 5813TIP3   OH238997   6.241   5.161   8.579  0.4065  0.5646  0.6728
 5813TIP3    H138998   6.147   5.151   8.595  0.3103  0.0001 -0.1723
 5813TIP3    H238999   6.273   5.071   8.569  1.2705  0.6748  2.1456
 5814TIP3   OH239000   5.139   3.164   1.849 -0.0375  0.0612  0.3927
 5814TIP3    H139001   5.183   3.231   1.797  0.3004 -0.7068 -0.3299
 5814TIP3    H239002   5.207   3.128   1.906 -0.3534  0.7365  1.2116
 5815TIP3   OH239003   4.856   5.264   0.599  0.3348 -0.5622 -0.3239
 5815TIP3    H139004   4.891   5.191   0.650 -3.1240 -0.5563  2.4139
 5815TIP3    H239005   4.926   5.329   0.599  1.9297 -2.1728  0.9173
 5816TIP3   OH239006   0.303   1.280   1.220  0.1380 -0.5477 -0.1387
 5816TIP3    H139007   0.259   1.218   1.162 -2.1474 -0.8064  1.7487
 5816TIP3    H239008   0.259   1.364   1.205  0.8244 -0.1711 -0.1262
 5817TIP3   OH239009   1.171   4.418   7.747  0.4570 -0.2665 -0.4905
 5817TIP3    H139010   1.238   4.487   7.751 -0.0285  0.1494  0.8263
 5817TIP3    H239011   1.168   4.394   7.654  1.8607  0.2623 -0.7048
 5818TIP3   OH239012   5.041   6.622   1.417  0.3051 -0.4252 -0.7626
 5818TIP3    H139013   5.071   6.563   1.348  0.6858  0.0105 -0.9767
 5818TIP3    H239014   4.965   6.666   1.380  1.3927  0.9170 -1.5031
 5819TIP3   OH239015   3.135   5.596   1.301  0.2704 -0.5388  0.5876
 5819TIP3    H139016   3.156   5.688   1.318 -1.1800 -0.0334 -0.2593
 5819TIP3    H239017   3.177   5.577   1.217  0.0941 -0.4999  0.4925
 5820TIP3   OH239018   3.529   5.091   1.736 -0.4296  0.0566 -0.3979
 5820TIP3    H139019   3.551   4.999   1.723 -2.5157 -0.5712  0.2664
 5820TIP3    H239020   3.554   5.109   1.826 -1.5518 -0.3514  0.0080
 5821TIP3   OH239021   6.278   1.755   7.833  0.1252  0.5502  0.5984
 5821TIP3    H139022   6.228   1.675   7.851 -1.0138  0.7149 -1.4696
 5821TIP3    H239023   6.257   1.813   7.906 -0.7254 -0.2980  1.0587
 5822TIP3   OH239024   3.019   3.833   0.878 -0.2921  0.3291  0.2306
 5822TIP3    H139025   3.019   3.743   0.910  1.2882 -0.2382 -1.1746
 5822TIP3    H239026   2.974   3.883   0.945 -3.2739 -1.8427  0.0389
 5823TIP3   OH239027   5.994   4.141   8.032 -0.0290  0.1481 -0.1707
 5823TIP3    H139028   5.941   4.200   7.978 -1.2947 -0.0540  0.7895
 5823TIP3    H239029   5.977   4.169   8.122  0.0048 -1.1267  0.2597
 5824TIP3   OH239030   4.134   5.622   2.018 -0.1613 -0.0919 -0.1309
 5824TIP3    H139031   4.060   5.642   1.960 -1.5677 -2.3374  0.7600
 5824TIP3    H239032   4.165   5.707   2.048 -1.6687  0.9596 -1.4056
 5825TIP3   OH239033   5.720   1.451   0.977 -0.8751  0.2141 -0.3832
 5825TIP3    H139034   5.681   1.522   1.029 -3.5938 -1.1335 -0.3911
 5825TIP3    H239035   5.794   1.492   0.932  0.2142  2.0174  2.7120
 5826TIP3   OH239036   3.567   1.391   1.402 -0.2360  0.3571  0.4765
 5826TIP3    H139037   3.620   1.457   1.447  0.9093  0.8246 -1.4652
 5826TIP3    H239038   3.568   1.417   1.311  0.2540 -2.3137 -0.3830
 5827TIP3   OH239039   2.373   6.679   0.664 -0.0095 -0.0017  0.1562
 5827TIP3    H139040   2.422   6.760   0.651 -0.7456  0.4663  0.2369
 5827TIP3    H239041   2.339   6.686   0.754  1.6191 -1.3359  0.9121
 5828TIP3   OH239042   0.904   4.800   0.452  0.6890 -0.2663 -0.6067
 5828TIP3    H139043   0.929   4.728   0.510 -0.1348 -0.6059 -0.6693
 5828TIP3    H239044   0.907   4.878   0.508 -1.2823 -0.7464  0.2392
 5829TIP3   OH239045   2.351   2.091   7.311  0.3896  0.8247  0.6013
 5829TIP3    H139046   2.434   2.049   7.333  0.3173  0.4440  0.1591
 5829TIP3    H239047   2.375   2.178   7.280  0.8724 -0.1607 -2.0222
 5830TIP3   OH239048   0.314   6.242   2.323 -0.3617 -0.0495  0.5060
 5830TIP3    H139049   0.401   6.229   2.284 -0.5658  0.3025 -0.0841
 5830TIP3    H239050   0.305   6.336   2.332 -0.2288 -0.1421  1.6456
 5831TIP3   OH239051   1.710   5.007   8.413  0.4440  0.0686 -0.0198
 5831TIP3    H139052   1.758   5.001   8.496  1.1883  0.1280 -0.4376
 5831TIP3    H239053   1.644   4.938   8.418 -0.6410  1.1518  1.3251
 5832TIP3   OH239054   4.453   3.234   7.511  0.0569  1.0205 -0.5147
 5832TIP3    H139055   4.466   3.161   7.450 -0.3959  1.1487 -0.7712
 5832TIP3    H239056   4.358   3.243   7.517  0.1070  1.2906 -0.1223
 5833TIP3   OH239057   2.405   2.658   0.280 -0.0940  0.7197 -0.0321
 5833TIP3    H139058   2.452   2.581   0.247  0.7769  1.9078 -1.7262
 5833TIP3    H239059   2.469   2.729   0.277 -1.1583  1.7491  0.5228
 5834TIP3   OH239060   0.233   2.355   2.412 -0.4865  0.2923  0.6414
 5834TIP3    H139061   0.200   2.431   2.363  3.6512  1.0745 -1.3642
 5834TIP3    H239062   0.187   2.280   2.373 -2.6031  1.4789  0.7062
 5835TIP3   OH239063   6.047   6.048   6.470 -0.2765 -0.2578  0.2635
 5835TIP3    H139064   6.026   6.131   6.512 -1.2865 -1.1823  1.6718
 5835TIP3    H239065   6.138   6.030   6.495 -0.0159  0.4660 -0.1511
 5836TIP3   OH239066   3.626   4.487   0.976  0.1514  0.1722  0.0417
 5836TIP3    H139067   3.619   4.438   0.894  0.1227 -1.0915  0.7687
 5836TIP3    H239068   3.536   4.494   1.007  0.3797 -1.8668  1.3483
 5837TIP3   OH239069   5.364   0.601   8.272  0.4498  0.4384 -0.6363
 5837TIP3    H139070   5.429   0.618   8.339  0.8101  0.1638 -0.9111
 5837TIP3    H239071   5.363   0.680   8.218  1.5200 -0.0509 -1.4160
 5838TIP3   OH239072   3.665   5.342   7.527  0.2019  0.1033 -0.7582
 5838TIP3    H139073   3.666   5.270   7.464  1.7882 -0.4886 -0.1031
 5838TIP3    H239074   3.604   5.313   7.595 -0.7451  0.3083 -1.4965
 5839TIP3   OH239075   2.925   4.852   0.511 -0.0037  0.3529  0.2881
 5839TIP3    H139076   2.845   4.803   0.531  0.7034 -1.3188 -0.7633
 5839TIP3    H239077   2.899   4.944   0.518 -2.1850 -0.1217 -0.6513
 5840TIP3   OH239078   3.739   4.139   0.266 -0.3082  0.0638  0.5267
 5840TIP3    H139079   3.698   4.151   0.352  0.4485 -0.6586  1.0121
 5840TIP3    H239080   3.763   4.047   0.264  0.0388  0.1655 -0.3067
 5841TIP3   OH239081   3.133   3.082   0.007  0.1565 -0.0660  0.1348
 5841TIP3    H139082   3.084   3.162  -0.010 -0.4786 -0.9372 -2.6353
 5841TIP3    H239083   3.164   3.054  -0.080  2.6036 -1.4334  1.3457
 5842TIP3   OH239084   4.716   0.386   8.243  0.3473  0.8258 -0.3494
 5842TIP3    H139085   4.636   0.352   8.203  0.6351  0.1966 -0.4017
 5842TIP3    H239086   4.787   0.339   8.199  0.6757  0.0314  0.9603
 5843TIP3   OH239087   3.062   2.383   0.806 -0.2426  0.2169 -0.0034
 5843TIP3    H139088   2.974   2.404   0.839 -0.1530 -0.1930  0.5171
 5843TIP3    H239089   3.068   2.430   0.723 -1.1047 -0.0783 -0.2438
 5844TIP3   OH239090   1.781   2.482   8.483  0.4618 -0.5507  0.0120
 5844TIP3    H139091   1.743   2.400   8.452  2.0995 -1.7233  0.9518
 5844TIP3    H239092   1.726   2.508   8.557  0.7902 -1.6330  0.6663
 5845TIP3   OH239093   6.376   1.699   7.134 -0.1330 -0.4603 -0.9525
 5845TIP3    H139094   6.403   1.609   7.151 -0.0826 -0.3494 -0.4260
 5845TIP3    H239095   6.413   1.720   7.049 -0.2284 -0.9701 -1.1215
 5846TIP3   OH239096   2.778   4.869   1.388  0.6047 -0.6057  0.3806
 5846TIP3    H139097   2.752   4.919   1.310 -3.2482  0.3117  2.0376
 5846TIP3    H239098   2.727   4.788   1.382  2.0135 -1.5509  0.8583
 5847TIP3   OH239099   5.035   4.341   7.078 -0.1343  0.2750 -0.0315
 5847TIP3    H139100   5.043   4.434   7.096  0.0763  0.2249  0.1430
 5847TIP3    H239101   5.090   4.327   7.001 -0.6445  0.4019 -0.4176
 5848TIP3   OH239102   0.141   3.931   0.517 -0.0952  0.0223 -0.1879
 5848TIP3    H139103   0.223   3.977   0.500  0.3967 -0.2197  1.4138
 5848TIP3    H239104   0.091   3.990   0.574  0.1039 -0.9326  1.0156
 5849TIP3   OH239105   3.249   5.462   1.809  0.2307  0.7911  0.5123
 5849TIP3    H139106   3.320   5.443   1.749 -1.3616  0.3413 -1.3431
 5849TIP3    H239107   3.171   5.425   1.767 -0.6537 -2.1886  4.1405
 5850TIP3   OH239108   2.031   5.727   8.302 -0.0076 -0.2747  0.3731
 5850TIP3    H139109   2.035   5.650   8.359 -1.5614 -1.9388 -1.5891
 5850TIP3    H239110   2.108   5.719   8.246 -0.8840 -1.2540 -0.7497
 5851TIP3   OH239111   3.734   3.049   2.559  0.3528  0.2644  0.3756
 5851TIP3    H139112   3.805   2.989   2.585  0.1642  0.1756  0.6975
 5851TIP3    H239113   3.699   3.081   2.642  1.7616  2.4028  0.2187
 5852TIP3   OH239114   2.212   0.789   7.916 -0.4537 -0.5767 -1.1099
 5852TIP3    H139115   2.253   0.768   7.832  0.8610  0.4808 -0.7715
 5852TIP3    H239116   2.272   0.752   7.981 -0.2877  0.5231 -0.6070
 5853TIP3   OH239117   1.866   1.967   1.330  0.0078 -0.9500  0.1923
 5853TIP3    H139118   1.836   1.910   1.259  0.0580 -0.8188  0.0652
 5853TIP3    H239119   1.952   1.932   1.354 -1.1492 -2.7368  2.0852
 5854TIP3   OH239120   1.869   6.071   2.141  0.1107  0.4972 -0.3958
 5854TIP3    H139121   1.912   6.141   2.092  1.8321 -0.5631 -0.4936
 5854TIP3    H239122   1.878   5.994   2.085 -2.4891  0.3171 -0.6742
 5855TIP3   OH239123   3.265   1.862   2.264 -0.4695 -0.1654  0.0379
 5855TIP3    H139124   3.258   1.801   2.337 -1.8160  0.7100  0.6665
 5855TIP3    H239125   3.211   1.936   2.289 -0.1630  0.5882 -1.4262
 5856TIP3   OH239126   5.756   1.258   7.683 -0.2241  1.0510  0.2022
 5856TIP3    H139127   5.763   1.347   7.651  0.5041  0.7865 -0.4142
 5856TIP3    H239128   5.801   1.205   7.617  1.2433  0.4784  1.5678
 5857TIP3   OH239129   6.061   2.629   1.568 -0.3974 -0.1120 -0.4588
 5857TIP3    H139130   6.015   2.633   1.485  0.3626 -0.2816 -0.8974
 5857TIP3    H239131   6.054   2.537   1.596 -1.9233  0.2354  0.4178
 5858TIP3   OH239132   5.792   2.711   0.651 -0.0285  0.2536 -0.5498
 5858TIP3    H139133   5.759   2.800   0.664 -0.4893 -0.0332  0.3848
 5858TIP3    H239134   5.855   2.698   0.722 -1.3276 -0.7700  0.5011
 5859TIP3   OH239135   5.747   5.560   8.647 -0.0101 -0.0529  0.3828
 5859TIP3    H139136   5.807   5.506   8.700 -0.5964 -0.6205  0.4786
 5859TIP3    H239137   5.728   5.636   8.702  0.9581  0.3558  0.1811
 5860TIP3   OH239138   1.234   4.058   7.869 -0.1373  0.3125  0.2747
 5860TIP3    H139139   1.190   4.001   7.806 -1.4270  0.7299  0.7834
 5860TIP3    H239140   1.271   4.128   7.816 -3.2349  1.9743  0.1314
 5861TIP3   OH239141   5.487   0.694   7.311  0.4839  0.5031 -0.6906
 5861TIP3    H139142   5.543   0.769   7.288  0.0309  0.5132 -1.8511
 5861TIP3    H239143   5.398   0.725   7.296  0.1170  0.5363  1.2940
 5862TIP3   OH239144   2.178   2.414   8.662  0.3665 -0.0160  0.1805
 5862TIP3    H139145   2.184   2.470   8.584 -0.5589 -0.1872 -0.0242
 5862TIP3    H239146   2.197   2.473   8.735  1.2135  0.1534 -0.1649
 5863TIP3   OH239147   6.562   5.554   2.795 -0.8740  0.3845 -0.1070
 5863TIP3    H139148   6.597   5.632   2.751  0.9186 -0.0360  0.4759
 5863TIP3    H239149   6.520   5.588   2.874 -0.0309  0.7817  0.1858
 5864TIP3   OH239150   4.678   0.373   0.604  0.9188 -0.0312  0.1055
 5864TIP3    H139151   4.595   0.328   0.620  2.2236 -2.4864  0.4570
 5864TIP3    H239152   4.730   0.311   0.554  2.1869  1.9077 -1.1294
 5865TIP3   OH239153   0.821   1.042   1.480 -0.0881 -0.3192  0.2245
 5865TIP3    H139154   0.889   1.110   1.488 -0.9897  0.4961  1.3375
 5865TIP3    H239155   0.746   1.088   1.443 -1.2922 -0.2265  2.5894
 5866TIP3   OH239156   0.191   3.258   1.941  0.2540 -0.0761  0.0346
 5866TIP3    H139157   0.103   3.283   1.916  0.0534 -1.0162 -0.2350
 5866TIP3    H239158   0.228   3.218   1.863  0.7617 -0.0889  0.2745
 5867TIP3   OH239159   3.999   0.988   3.003 -0.2575 -0.0637  0.0650
 5867TIP3    H139160   3.911   1.015   3.030 -0.7951 -0.0522 -1.5867
 5867TIP3    H239161   3.987   0.901   2.965  0.2768  0.2791 -0.9462
 5868TIP3   OH239162   6.022   3.294   0.614  0.5298  0.0150  0.1099
 5868TIP3    H139163   5.970   3.315   0.691  0.1654  0.4289 -0.2424
 5868TIP3    H239164   6.113   3.307   0.642  0.4132 -0.1108  0.5480
 5869TIP3   OH239165   4.432   0.470   8.443  0.3359 -0.0524 -0.8097
 5869TIP3    H139166   4.503   0.529   8.469 -0.7253  1.1885 -0.6235
 5869TIP3    H239167   4.388   0.447   8.525 -1.0702  1.3287 -1.1123
 5870TIP3   OH239168   1.608   2.312   3.287 -0.4932  0.0436  0.3191
 5870TIP3    H139169   1.569   2.399   3.289 -0.6423 -0.0259  1.4391
 5870TIP3    H239170   1.535   2.252   3.272 -1.0386 -0.1410  3.0465
 5871TIP3   OH239171   2.416   5.930   1.597  0.2823 -0.4091  0.3853
 5871TIP3    H139172   2.428   5.884   1.680 -0.0563 -1.3590 -0.0695
 5871TIP3    H239173   2.488   5.992   1.593 -0.2589  0.3560  1.8411
 5872TIP3   OH239174   2.666   4.157   8.419 -0.3085 -0.2884  0.2331
 5872TIP3    H139175   2.600   4.207   8.467 -0.1039  1.0251 -0.8253
 5872TIP3    H239176   2.725   4.125   8.488  1.1299  3.2145  0.8745
 5873TIP3   OH239177   0.804   0.009   7.044 -0.1851 -0.3499  0.4833
 5873TIP3    H139178   0.733   0.070   7.027 -0.3010 -0.3548  0.9237
 5873TIP3    H239179   0.818  -0.036   6.961 -2.2258 -1.9761  0.9353
 5874TIP3   OH239180   2.484   5.993   1.116  0.3322 -0.2619 -0.3245
 5874TIP3    H139181   2.451   6.083   1.104  0.7223 -0.2218 -1.1635
 5874TIP3    H239182   2.493   5.984   1.210  0.3311  0.6012 -0.2288
 5875TIP3   OH239183   4.574   2.275   1.308 -0.3558  0.1392  0.6420
 5875TIP3    H139184   4.583   2.368   1.324 -0.7100  0.1023  1.1085
 5875TIP3    H239185   4.552   2.268   1.215 -2.1805  0.6605  0.9944
 5876TIP3   OH239186   4.527   0.520   1.532  0.8941  0.2137 -0.3571
 5876TIP3    H139187   4.450   0.474   1.565  2.2395 -2.0969 -0.1489
 5876TIP3    H239188   4.496   0.569   1.456 -0.8910 -0.0358  0.1636
 5877TIP3   OH239189   6.405   6.526   2.019 -0.0044 -0.1154  0.1371
 5877TIP3    H139190   6.319   6.543   1.981  0.1384  2.5135  0.8156
 5877TIP3    H239191   6.463   6.520   1.943 -0.6073 -0.8550 -0.2799
 5878TIP3   OH239192   3.488   3.493   2.228 -0.0007 -0.0298  0.1021
 5878TIP3    H139193   3.463   3.439   2.302  2.3626  1.2510  2.0048
 5878TIP3    H239194   3.452   3.580   2.248  0.8665  0.3866 -0.0572
 5879TIP3   OH239195   5.787   3.846   1.116 -0.2502  0.5034  0.5790
 5879TIP3    H139196   5.853   3.854   1.185  0.3527  2.7994 -0.1636
 5879TIP3    H239197   5.833   3.801   1.045 -0.0079  0.5720  0.6881
 5880TIP3   OH239198   3.415   4.658   8.006 -0.3650 -0.2988 -0.3543
 5880TIP3    H139199   3.404   4.690   8.096 -2.2639  0.3550 -0.7567
 5880TIP3    H239200   3.470   4.724   7.964 -0.3844 -0.0203  0.0437
 5881TIP3   OH239201   2.655   5.894   8.763  0.2277 -0.2252  0.4190
 5881TIP3    H139202   2.581   5.862   8.815 -0.6204  0.1925 -0.4818
 5881TIP3    H239203   2.710   5.941   8.826 -1.4212  1.3610  0.7444
 5882TIP3   OH239204   3.012   3.173   8.046  0.1612  0.3350  0.0425
 5882TIP3    H139205   3.081   3.139   7.988 -0.3693 -1.5449  0.4265
 5882TIP3    H239206   3.054   3.242   8.096  1.7936 -0.7691  0.2678
 5883TIP3   OH239207   5.509   3.403   7.740  0.1868 -0.0566 -0.6327
 5883TIP3    H139208   5.446   3.475   7.739  0.0457 -0.1739 -0.3403
 5883TIP3    H239209   5.535   3.393   7.649 -0.7708 -0.4861 -0.8759
 5884TIP3   OH239210   2.555   5.611   8.618  0.5295  0.7747 -0.2497
 5884TIP3    H139211   2.470   5.582   8.651 -0.3767  1.7793 -1.5650
 5884TIP3    H239212   2.594   5.659   8.691 -1.0960  2.3165 -0.3122
 5885TIP3   OH239213   5.490   0.943   7.481 -0.0862  0.1576 -0.0188
 5885TIP3    H139214   5.432   0.867   7.481  1.5585 -1.1695 -0.5445
 5885TIP3    H239215   5.532   0.940   7.395  1.4177  0.5316  0.6720
 5886TIP3   OH239216   1.764   3.576   8.408 -0.7388 -0.2748  0.0885
 5886TIP3    H139217   1.680   3.550   8.445 -0.7192  1.3439  1.3756
 5886TIP3    H239218   1.829   3.540   8.469 -0.5738 -0.0483  0.0459
 5887TIP3   OH239219   0.547   4.398   1.296  0.3225  0.0854 -0.2096
 5887TIP3    H139220   0.579   4.413   1.385  0.8881 -1.6512 -0.0897
 5887TIP3    H239221   0.552   4.484   1.254  2.9364  0.3665  0.5162
 5888TIP3   OH239222   5.620   0.658   8.383  0.1382  0.2296 -0.0125
 5888TIP3    H139223   5.654   0.746   8.369 -0.5221  0.5633  0.3751
 5888TIP3    H239224   5.646   0.636   8.473 -1.7300  1.0314  0.7888
 5889TIP3   OH239225   5.516   4.519   7.981  0.0675  0.1239 -0.5020
 5889TIP3    H139226   5.469   4.446   7.940  1.9957 -1.0321 -0.7583
 5889TIP3    H239227   5.507   4.591   7.918  1.3044 -1.0398 -2.0940
 5890TIP3   OH239228   0.056   3.011   0.153 -0.0798 -0.0585 -0.2544
 5890TIP3    H139229   0.037   3.100   0.122  1.6841  0.1968 -0.7438
 5890TIP3    H239230   0.048   3.016   0.248 -0.3851  0.5276 -0.3075
 5891TIP3   OH239231   2.306   5.590   6.784  0.3493 -0.1536 -0.5081
 5891TIP3    H139232   2.279   5.548   6.703  0.9494  0.9669 -1.3154
 5891TIP3    H239233   2.223   5.609   6.829 -0.0233 -0.1910 -1.1590
 5892TIP3   OH239234   3.562   3.366   0.225 -0.1852  0.0338 -0.0909
 5892TIP3    H139235   3.604   3.318   0.296  0.0777  0.8824  0.3418
 5892TIP3    H239236   3.494   3.307   0.193 -0.1249 -0.4685  0.6790
 5893TIP3   OH239237   4.536   6.778   7.097 -0.4264 -0.1120  0.2417
 5893TIP3    H139238   4.527   6.756   7.004 -0.5012  0.0797  0.2031
 5893TIP3    H239239   4.578   6.865   7.097 -1.9112  0.6321  0.3518
 5894TIP3   OH239240   1.122   5.683   0.849 -0.3404 -0.3371  0.5770
 5894TIP3    H139241   1.115   5.745   0.776 -0.3372 -0.1001  0.7742
 5894TIP3    H239242   1.038   5.692   0.896 -1.2332 -2.0445 -0.6045
 5895TIP3   OH239243   1.692   4.310   8.155 -0.1822 -0.3680 -0.0211
 5895TIP3    H139244   1.706   4.391   8.106  2.1960  0.3695  1.6640
 5895TIP3    H239245   1.665   4.340   8.242  0.9897 -1.3133  0.7065
 5896TIP3   OH239246   2.251   3.488   8.056  0.4545  0.3021  0.1800
 5896TIP3    H139247   2.270   3.395   8.069  1.0798  0.4020  0.0413
 5896TIP3    H239248   2.299   3.511   7.977 -0.1993  0.6020 -0.1359
 5897TIP3   OH239249   0.716   1.211   8.615 -0.4211  0.8523 -0.1548
 5897TIP3    H139250   0.643   1.156   8.586 -1.0464  1.2578  0.6080
 5897TIP3    H239251   0.693   1.299   8.585 -0.5844  1.0986  0.6617
 5898TIP3   OH239252   5.948   5.827   8.087  0.2394 -0.1735 -0.5129
 5898TIP3    H139253   5.872   5.863   8.041  1.1955  2.8777  0.0423
 5898TIP3    H239254   6.019   5.831   8.023  0.8639  1.1227  0.2248
 5899TIP3   OH239255   4.757   2.194   2.050  0.2779 -0.2191  0.5418
 5899TIP3    H139256   4.747   2.147   2.133  1.0789 -1.9972 -0.3005
 5899TIP3    H239257   4.691   2.156   1.992  0.2984  0.3846  0.1043
 5900TIP3   OH239258   5.274   2.539   1.112  0.4781  0.1217  0.0503
 5900TIP3    H139259   5.277   2.456   1.064 -0.7560 -0.2904  0.6528
 5900TIP3    H239260   5.264   2.606   1.045  1.7373 -0.1704 -0.4621
 5901TIP3   OH239261   0.825   1.335   2.248 -0.4169  0.3062 -0.1655
 5901TIP3    H139262   0.760   1.338   2.178 -0.5575 -1.3958 -0.1528
 5901TIP3    H239263   0.797   1.263   2.305  0.7046  0.4530  0.6275
 5902TIP3   OH239264   6.382   6.053   7.136 -0.5350  0.2228  0.3036
 5902TIP3    H139265   6.328   6.037   7.060  0.4171 -2.9730  0.1508
 5902TIP3    H239266   6.462   6.094   7.102 -0.6028 -0.1139 -0.2581
 5903TIP3   OH239267   2.139   0.978   1.678 -0.7737 -0.5292 -0.3027
 5903TIP3    H139268   2.187   1.046   1.726 -3.3512  0.5363  0.9935
 5903TIP3    H239269   2.200   0.947   1.612  2.3855 -0.7223  2.4422
 5904TIP3   OH239270   5.391   5.104   1.713  0.3301  0.0726  0.3645
 5904TIP3    H139271   5.341   5.052   1.776 -0.1115 -1.0713 -0.8802
 5904TIP3    H239272   5.328   5.167   1.678  0.2891 -0.0122  0.2844
 5905TIP3   OH239273   6.232   6.680   7.077 -0.4116 -0.1028  0.1287
 5905TIP3    H139274   6.223   6.728   7.159 -1.7459 -1.4180  0.7986
 5905TIP3    H239275   6.153   6.627   7.071 -0.0308 -0.5452 -1.6885
 5906TIP3   OH239276   6.134   2.898   8.302  0.4999  0.1754 -0.0301
 5906TIP3    H139277   6.141   2.939   8.388  2.1323 -1.5979  0.7638
 5906TIP3    H239278   6.135   2.971   8.240  1.2074  1.4195  1.3922
 5907TIP3   OH239279   6.599   6.361   8.044 -0.5452 -0.0776  0.2094
 5907TIP3    H139280   6.626   6.335   8.132  1.0364  1.5988  0.2655
 5907TIP3    H239281   6.633   6.292   7.987 -0.5921 -0.5912  0.7866
 5908TIP3   OH239282   4.053   3.866   1.984  0.4595  0.7957  0.0042
 5908TIP3    H139283   3.989   3.833   1.921  0.3077  1.3933 -0.1546
 5908TIP3    H239284   4.134   3.818   1.964  0.5536  1.3556 -0.9832
 5909TIP3   OH239285   0.206   6.318   7.773 -0.1668 -0.1891  0.0745
 5909TIP3    H139286   0.155   6.353   7.700  3.4357  2.3847 -1.5081
 5909TIP3    H239287   0.238   6.395   7.819  0.9926 -1.6717  1.9018
 5910TIP3   OH239288   5.328   3.010   2.291 -0.3519 -0.0276  0.3950
 5910TIP3    H139289   5.366   3.081   2.239 -1.1418  0.1517  0.0514
 5910TIP3    H239290   5.377   2.932   2.265 -1.9191 -0.3041 -2.0368
 5911TIP3   OH239291   2.953   2.179   1.548  0.1283  0.4057  0.6282
 5911TIP3    H139292   2.985   2.100   1.591 -1.7524 -0.8390 -0.1575
 5911TIP3    H239293   2.964   2.248   1.614  0.4682 -0.7751  1.8545
 5912TIP3   OH239294   3.525   4.316   1.331  0.9685  0.1741 -0.3516
 5912TIP3    H139295   3.536   4.397   1.381 -0.4613  0.7742 -0.9319
 5912TIP3    H239296   3.527   4.246   1.396 -1.9596  1.0092  0.8020
 5913TIP3   OH239297   1.767   5.981   8.753  0.1207  0.2120 -0.3061
 5913TIP3    H139298   1.779   5.998   8.847  3.2233  2.5520 -0.9731
 5913TIP3    H239299   1.695   6.039   8.728 -1.0789 -0.8024  0.6606
 5914TIP3   OH239300   6.286   0.548   0.626 -0.3955 -0.0964 -0.0710
 5914TIP3    H139301   6.228   0.530   0.700  0.7979 -1.8965  0.4845
 5914TIP3    H239302   6.320   0.463   0.601 -0.9555  0.4051 -2.9095
 5915TIP3   OH239303   3.038   3.930   3.011  0.0382  0.2392  0.8841
 5915TIP3    H139304   3.050   3.882   2.929  0.0631 -1.6544  1.9356
 5915TIP3    H239305   2.974   3.998   2.989 -0.0884 -0.3251 -0.6724
 5916TIP3   OH239306   5.983   5.928   1.601  0.7590  0.3163 -0.3802
 5916TIP3    H139307   5.936   5.882   1.671 -1.3333  0.4478 -1.5971
 5916TIP3    H239308   5.944   5.894   1.521  4.1095 -0.9518 -1.6439
 5917TIP3   OH239309   1.907   0.449   0.981 -0.2883  0.3152 -0.9474
 5917TIP3    H139310   1.816   0.420   0.974  0.0013 -2.1242  2.4881
 5917TIP3    H239311   1.903   0.529   1.032 -0.5391 -1.0533  1.3369
 5918TIP3   OH239312   5.785   5.572   0.596  0.3565  0.2372  0.1042
 5918TIP3    H139313   5.872   5.592   0.561 -0.2324 -0.0654 -1.6433
 5918TIP3    H239314   5.801   5.506   0.663  1.3970 -0.7188 -1.0283
 5919TIP3   OH239315   1.544   5.267   1.093 -0.9733  0.7134 -0.4474
 5919TIP3    H139316   1.499   5.189   1.126  0.9294 -1.5522 -2.7242
 5919TIP3    H239317   1.497   5.290   1.013  0.1263  0.0473 -1.3257
 5920TIP3   OH239318   0.263   5.615   7.012  0.4879  0.4479  0.2949
 5920TIP3    H139319   0.284   5.529   7.046  1.1519  0.2396 -0.5896
 5920TIP3    H239320   0.168   5.616   7.005  0.2984  0.6032  2.3304
 5921TIP3   OH239321   2.475   4.218   8.619  0.5688  0.2135 -0.2809
 5921TIP3    H139322   2.394   4.267   8.604  1.4318  1.5209 -0.8290
 5921TIP3    H239323   2.477   4.205   8.714 -1.1315 -1.4167 -0.3976
 5922TIP3   OH239324   1.223   2.552   2.770  0.1176  0.1096 -0.2704
 5922TIP3    H139325   1.250   2.631   2.723 -1.3982  0.4937 -0.5264
 5922TIP3    H239326   1.199   2.583   2.857 -2.7066  0.3759 -1.0475
 5923TIP3   OH239327   3.989   2.040   0.097  0.2251  0.0892 -0.1665
 5923TIP3    H139328   4.061   2.031   0.159  1.5667  1.0700 -1.5085
 5923TIP3    H239329   3.951   2.126   0.117 -0.4733 -0.3369  0.4011
 5924TIP3   OH239330   4.899   3.101   1.979  0.7490 -0.0320  0.3562
 5924TIP3    H139331   4.928   3.162   1.911  0.0545 -0.6253 -0.4972
 5924TIP3    H239332   4.931   3.016   1.950  1.5955 -0.1071  1.4689
 5925TIP3   OH239333   3.160   1.056   1.032  0.0842  0.6246  0.5876
 5925TIP3    H139334   3.166   1.111   1.110 -1.9137 -0.1331  1.3361
 5925TIP3    H239335   3.197   0.972   1.059  0.3744  0.6896  0.3888
 5926TIP3   OH239336   2.404   0.442   8.102  0.3379  0.2251  0.4165
 5926TIP3    H139337   2.441   0.416   8.018  2.2235 -1.7924  1.7285
 5926TIP3    H239338   2.323   0.391   8.110  0.2906  0.2224 -0.0593
 5927TIP3   OH239339   6.824   6.555   2.537 -0.2879 -0.0970  0.0063
 5927TIP3    H139340   6.778   6.589   2.614  1.0491 -0.3563  0.9641
 5927TIP3    H239341   6.889   6.622   2.517  1.5366 -1.4279  1.1465
 5928TIP3   OH239342   3.380   1.986   1.873 -0.2887 -0.0541 -0.5532
 5928TIP3    H139343   3.360   2.015   1.784 -0.4670  1.4581 -0.0435
 5928TIP3    H239344   3.295   1.974   1.915 -0.2047  0.7947 -0.1181
 5929TIP3   OH239345   6.265   2.861   0.935  0.9726 -0.0687 -0.8003
 5929TIP3    H139346   6.344   2.835   0.982  1.4598 -0.3708 -1.7758
 5929TIP3    H239347   6.248   2.789   0.875  0.0909  0.1075 -0.7770
 5930TIP3   OH239348   0.691   6.089   0.882 -0.4626 -0.8402  0.2725
 5930TIP3    H139349   0.771   6.037   0.894 -1.9547 -2.8440  2.5012
 5930TIP3    H239350   0.719   6.180   0.892  1.6569 -1.4228  0.1011
 5931TIP3   OH239351   5.371   4.593   1.881 -0.0078 -0.4347  0.2645
 5931TIP3    H139352   5.291   4.610   1.833  0.9462  2.4837 -0.5292
 5931TIP3    H239353   5.425   4.670   1.865  2.9511 -2.2289  0.8041
 5932TIP3   OH239354   5.785   4.933   8.219 -0.2270 -0.4096  0.1136
 5932TIP3    H139355   5.851   4.927   8.150 -0.0340 -0.5650  0.3124
 5932TIP3    H239356   5.703   4.910   8.175 -0.1021 -0.5215 -0.0614
 5933TIP3   OH239357   1.699   0.692   2.533  0.3575  0.1650 -0.1297
 5933TIP3    H139358   1.689   0.602   2.565  1.3911  0.2367  0.4220
 5933TIP3    H239359   1.610   0.721   2.517 -0.3830  0.4924  3.7058
 5934TIP3   OH239360   3.940   2.907   7.653  0.1840 -0.3656  0.2440
 5934TIP3    H139361   4.007   2.972   7.632 -0.7330  0.7267  0.5700
 5934TIP3    H239362   3.987   2.823   7.655  1.5336  0.3664  0.4890
 5935TIP3   OH239363   0.865   2.474   8.396  0.2042 -0.6615 -0.4372
 5935TIP3    H139364   0.839   2.461   8.488 -0.9551 -0.2480 -0.6826
 5935TIP3    H239365   0.901   2.563   8.394 -1.3601 -0.0011 -0.6807
 5936TIP3   OH239366   1.153   1.954   1.387  0.3478  0.3082  0.1929
 5936TIP3    H139367   1.175   1.909   1.305 -1.1641 -0.6268  0.2671
 5936TIP3    H239368   1.065   1.924   1.408 -0.0445  2.0159  1.1742
 5937TIP3   OH239369   2.368   4.266   7.578  0.0533  0.2754  0.2975
 5937TIP3    H139370   2.345   4.306   7.493 -1.5648 -0.8870  0.1374
 5937TIP3    H239371   2.287   4.223   7.606  1.0761 -0.8684  1.5912
 5938TIP3   OH239372   4.560   3.761   2.123 -0.4601 -0.1268 -0.1708
 5938TIP3    H139373   4.488   3.723   2.073 -0.5120 -0.6002  0.2562
 5938TIP3    H239374   4.563   3.710   2.204  0.3555 -0.1155 -0.1808
 5939TIP3   OH239375   2.300   0.238   7.660  0.1902 -0.2676  0.2103
 5939TIP3    H139376   2.213   0.260   7.629  0.3971  0.7262  0.3078
 5939TIP3    H239377   2.304   0.142   7.654 -0.4512 -0.2374 -0.9807
 5940TIP3   OH239378   5.102   0.543   1.645  0.6240  0.1185 -0.6662
 5940TIP3    H139379   5.140   0.589   1.571 -0.3688  1.7996 -0.1774
 5940TIP3    H239380   5.027   0.596   1.671  2.0120  0.6902  2.7276
 5941TIP3   OH239381   3.544   0.774   8.252 -0.1162 -0.2307  0.3092
 5941TIP3    H139382   3.606   0.702   8.261  0.5231  0.2722  0.0213
 5941TIP3    H239383   3.544   0.816   8.338 -0.5205 -0.5928  0.4891
 5942TIP3   OH239384   6.026   6.337   2.540 -0.3061 -0.1312  0.0492
 5942TIP3    H139385   5.959   6.356   2.606  0.3252  0.7735  0.4438
 5942TIP3    H239386   6.070   6.258   2.572  0.9190  1.0750  1.4700
 5943TIP3   OH239387   2.256   2.362   7.704 -0.0048  0.6784 -0.0687
 5943TIP3    H139388   2.340   2.315   7.704 -1.1192 -1.4844 -1.6149
 5943TIP3    H239389   2.209   2.327   7.628 -2.6229  1.2919  1.1703
 5944TIP3   OH239390   1.275   4.417   2.197  0.0435 -0.1220 -0.0174
 5944TIP3    H139391   1.207   4.484   2.202 -0.5046 -0.6198 -0.5746
 5944TIP3    H239392   1.340   4.452   2.135 -1.0694 -0.7896 -1.6417
 5945TIP3   OH239393   4.030   3.596   1.448  0.5769  0.4022 -0.3245
 5945TIP3    H139394   4.081   3.664   1.493  2.2163 -1.5826  1.0089
 5945TIP3    H239395   3.940   3.627   1.453  0.8780  1.1340  2.9303
 5946TIP3   OH239396   6.637   1.113   2.334  0.6052  0.2518 -0.4468
 5946TIP3    H139397   6.663   1.062   2.411  0.3507 -0.7171 -0.9908
 5946TIP3    H239398   6.599   1.049   2.274  2.5288  0.6318 -2.1880
 5947TIP3   OH239399   5.183   4.984   0.878  0.0131 -0.2915 -0.2032
 5947TIP3    H139400   5.094   4.971   0.846  0.5587 -1.0604 -1.4582
 5947TIP3    H239401   5.203   5.075   0.856 -1.1925  0.6272  2.0611
 5948TIP3   OH239402   6.204   0.628   0.370  0.6811 -0.2289  0.2333
 5948TIP3    H139403   6.280   0.678   0.342  0.8806 -0.2892  0.6522
 5948TIP3    H239404   6.217   0.614   0.464 -0.5861  1.0465  0.6329
 5949TIP3   OH239405   5.560   2.592   0.925  0.2650  0.5721  0.0309
 5949TIP3    H139406   5.564   2.527   0.996  1.5741  0.9912  0.3726
 5949TIP3    H239407   5.648   2.591   0.887 -0.5534 -0.0246 -1.9700
 5950TIP3   OH239408   0.444   1.812   2.283  0.0281  0.3362 -0.2831
 5950TIP3    H139409   0.443   1.885   2.345 -0.8829  0.5666 -0.5491
 5950TIP3    H239410   0.476   1.737   2.333 -0.1983  0.6382  0.3126
 5951TIP3   OH239411   1.386   1.091   7.773 -0.7869 -0.0930 -0.8549
 5951TIP3    H139412   1.427   1.061   7.691  0.9769 -0.0965 -0.0101
 5951TIP3    H239413   1.435   1.170   7.796 -0.0577 -1.0757  1.1145
 5952TIP3   OH239414   0.517   2.015   1.228 -0.2831 -0.2444 -0.7247
 5952TIP3    H139415   0.604   1.978   1.215  0.2542  0.2053  1.2802
 5952TIP3    H239416   0.514   2.091   1.170  0.0166 -1.1731 -2.0234
 5953TIP3   OH239417   6.732   2.941   7.959 -0.0545 -0.5710  0.1961
 5953TIP3    H139418   6.802   2.972   7.901  0.0492  0.9687  1.1047
 5953TIP3    H239419   6.707   2.856   7.922 -0.1458  0.4239 -2.2471
 5954TIP3   OH239420   3.848   0.777   1.270  0.5337 -0.3087 -0.2655
 5954TIP3    H139421   3.931   0.803   1.231 -1.0625  1.6516 -2.6071
 5954TIP3    H239422   3.786   0.772   1.197 -1.9782  0.7221  1.6241
 5955TIP3   OH239423   2.714   2.209   0.514 -0.7329  0.0209  0.0387
 5955TIP3    H139424   2.675   2.123   0.529  0.8438 -0.6172  0.6652
 5955TIP3    H239425   2.807   2.191   0.502 -0.6842  1.4064 -2.1758
 5956TIP3   OH239426   5.712   4.316   8.164  0.0691  0.0888 -0.0385
 5956TIP3    H139427   5.706   4.383   8.232  0.5488 -0.4861  0.5725
 5956TIP3    H239428   5.622   4.299   8.139 -0.0853  0.6043  0.1547
 5957TIP3   OH239429   5.764   0.157   1.620 -0.0376  0.6765  0.3551
 5957TIP3    H139430   5.670   0.156   1.632  0.0347 -0.4299  0.9899
 5957TIP3    H239431   5.798   0.095   1.686  0.9318 -0.5974 -1.2404
 5958TIP3   OH239432   3.450   5.635   0.729 -0.0972 -0.3357 -0.2494
 5958TIP3    H139433   3.426   5.674   0.813  1.1169 -1.5889  0.7328
 5958TIP3    H239434   3.417   5.697   0.663 -1.0428  0.6958  1.1326
 5959TIP3   OH239435   4.483   3.288   1.363 -0.2286  0.4424 -0.1489
 5959TIP3    H139436   4.572   3.275   1.396 -0.3189 -0.9490 -0.4009
 5959TIP3    H239437   4.493   3.346   1.287  0.2874  1.4095  0.6282
 5960TIP3   OH239438   0.355   5.675   7.940  0.1986 -0.3251  0.0764
 5960TIP3    H139439   0.309   5.694   7.858  1.2223  0.3245 -0.3589
 5960TIP3    H239440   0.412   5.751   7.954 -0.0831 -0.3563  1.4798
 5961TIP3   OH239441   1.158   0.910   8.636 -0.0803 -0.3173 -0.1424
 5961TIP3    H139442   1.087   0.879   8.693 -1.1107 -0.7670 -1.6014
 5961TIP3    H239443   1.118   0.980   8.585  1.2340  1.0399  0.6240
 5962TIP3   OH239444   3.766   0.688   0.045 -0.0161 -0.0513  0.1261
 5962TIP3    H139445   3.849   0.735   0.041  0.2604 -0.3617  1.5994
 5962TIP3    H239446   3.791   0.597   0.058 -0.5770 -0.3955 -1.0834
 5963TIP3   OH239447   3.769   6.427   0.983  0.3466  0.1378  0.0228
 5963TIP3    H139448   3.749   6.456   1.072  1.7003  0.0164  0.3952
 5963TIP3    H239449   3.864   6.416   0.982  0.3010 -0.3894 -1.2870
 5964TIP3   OH239450   0.212   3.007   0.683  0.0790 -0.0488 -0.4610
 5964TIP3    H139451   0.210   2.912   0.692  2.1134 -0.1802 -1.0489
 5964TIP3    H239452   0.126   3.035   0.716 -0.6587 -2.0774 -0.4909
 5965TIP3   OH239453   4.105   2.776   8.671 -0.0783 -0.1237  0.2032
 5965TIP3    H139454   4.190   2.782   8.627 -0.1611 -3.7218 -0.7733
 5965TIP3    H239455   4.045   2.826   8.615  0.8983  0.1817 -0.5957
 5966TIP3   OH239456   2.803   1.683   0.509  0.3313 -0.0737  0.1507
 5966TIP3    H139457   2.850   1.732   0.441 -0.9447  0.0874 -0.6537
 5966TIP3    H239458   2.853   1.602   0.520  0.4675 -0.1815 -1.1263
 5967TIP3   OH239459   0.047   0.133   1.494 -0.0828  0.5332  0.2509
 5967TIP3    H139460   0.079   0.083   1.418 -1.6091 -0.0171 -0.0602
 5967TIP3    H239461  -0.024   0.079   1.530 -0.1340  1.3316  1.3932
 5968TIP3   OH239462   2.196   4.516   2.276  0.6068  0.3923  0.6783
 5968TIP3    H139463   2.127   4.580   2.257  0.5849  0.6967  1.7459
 5968TIP3    H239464   2.255   4.562   2.335  0.9252 -0.3726  0.9638
 5969TIP3   OH239465   3.321   1.512   0.662 -0.8687 -0.0128  0.1574
 5969TIP3    H139466   3.290   1.484   0.748 -1.1127 -0.2356  0.0012
 5969TIP3    H239467   3.303   1.606   0.659 -0.0692  0.1644  0.6792
 5970TIP3   OH239468   6.555   1.944   0.196 -0.1293  0.3119 -0.0187
 5970TIP3    H139469   6.582   1.939   0.105 -0.3218 -2.6268 -0.0170
 5970TIP3    H239470   6.576   2.034   0.223 -1.5456  1.7822 -3.3420
 5971TIP3   OH239471   0.226   5.888   1.269 -0.0765 -0.0753 -0.2154
 5971TIP3    H139472   0.143   5.858   1.306 -0.3789  0.6179 -0.3241
 5971TIP3    H239473   0.292   5.836   1.314 -0.4078  0.9823  1.5650
 5972TIP3   OH239474   2.674   1.088   0.314  0.0662  0.0689 -0.1958
 5972TIP3    H139475   2.641   1.093   0.225  1.4282  0.6872 -0.6955
 5972TIP3    H239476   2.706   0.998   0.323  0.8922  0.3092 -0.6964
 5973TIP3   OH239477   2.825   5.709   7.951  0.2229  0.4959  0.1400
 5973TIP3    H139478   2.757   5.641   7.950 -0.7257  1.4028  0.7330
 5973TIP3    H239479   2.824   5.742   8.041  0.0194  1.9177 -0.3584
 5974TIP3   OH239480   5.946   4.263   0.442 -0.2844 -0.3267 -0.2679
 5974TIP3    H139481   5.857   4.232   0.459 -0.2290 -0.1496  0.3672
 5974TIP3    H239482   5.985   4.193   0.390 -1.0075 -0.0872 -1.1626
 5975TIP3   OH239483   5.782   5.236   0.001 -0.4575 -0.2664  0.2193
 5975TIP3    H139484   5.792   5.313   0.056  0.0846 -0.8898  1.0139
 5975TIP3    H239485   5.700   5.195   0.030 -1.4457  0.7022 -1.0995
 5976TIP3   OH239486   1.403   4.773   7.983  0.3327 -0.4553 -0.0050
 5976TIP3    H139487   1.431   4.682   7.990  0.3685 -0.4559 -0.1465
 5976TIP3    H239488   1.358   4.791   8.066 -0.2590 -0.7991 -0.2469
 5977TIP3   OH239489   2.100   3.056   3.116  0.1421 -0.5538  1.0367
 5977TIP3    H139490   2.071   3.103   3.194  1.4201 -0.8911  1.7487
 5977TIP3    H239491   2.151   3.120   3.066  2.3827 -1.2321  2.2933
 5978TIP3   OH239492   0.479   5.306   0.667  0.6141 -0.5323 -0.1406
 5978TIP3    H139493   0.554   5.260   0.630  0.2255  0.3009 -2.1257
 5978TIP3    H239494   0.414   5.237   0.682  1.5800 -1.1993  1.1835
 5979TIP3   OH239495   5.553   5.012   0.973 -0.2630  0.0942  0.6079
 5979TIP3    H139496   5.641   4.990   1.004 -0.0830 -0.0311  0.0372
 5979TIP3    H239497   5.511   4.928   0.959  0.5388  0.0109 -1.8936
 5980TIP3   OH239498   2.241   6.285   1.640  0.4737 -0.1806 -0.2956
 5980TIP3    H139499   2.335   6.284   1.661  0.2428 -2.1740  0.8838
 5980TIP3    H239500   2.207   6.359   1.690  1.3625  0.3371 -0.4352
 5981TIP3   OH239501   0.639   3.264   0.019 -0.5641 -0.0711 -0.1728
 5981TIP3    H139502   0.702   3.197   0.045 -0.4866 -0.0724 -0.3625
 5981TIP3    H239503   0.573   3.216  -0.031  0.0136  0.1489 -1.1644
 5982TIP3   OH239504   6.438   5.866   0.221  0.3076 -0.4719  0.0444
 5982TIP3    H139505   6.434   5.803   0.149  0.6859 -0.3721 -0.0651
 5982TIP3    H239506   6.455   5.950   0.178  1.1354 -0.5040  0.2912
 5983TIP3   OH239507   3.951   1.448   2.797 -0.0063 -0.5125  0.7442
 5983TIP3    H139508   3.969   1.354   2.797 -1.0104 -0.7460 -0.6867
 5983TIP3    H239509   3.871   1.457   2.744  1.1636  1.3369 -0.8412
 5984TIP3   OH239510   2.647   5.641   6.756 -0.0431  0.3337 -0.2750
 5984TIP3    H139511   2.647   5.566   6.816  1.1393  0.2953 -0.2965
 5984TIP3    H239512   2.575   5.623   6.696 -1.0253  0.1915  0.8936
 5985TIP3   OH239513   3.884   6.467   2.108  0.7031 -0.2860 -0.1792
 5985TIP3    H139514   3.968   6.502   2.136  0.2627  1.0115 -0.4081
 5985TIP3    H239515   3.825   6.542   2.109  0.1759 -0.5678 -2.6708
 5986TIP3   OH239516   2.893   6.792   0.978  0.2029  0.3383 -0.4253
 5986TIP3    H139517   2.922   6.708   0.941 -0.1955 -0.0717  0.1815
 5986TIP3    H239518   2.899   6.779   1.073 -1.3666  0.4486 -0.2866
 5987TIP3   OH239519   6.701   0.914   2.514 -0.2094  0.1588 -0.2027
 5987TIP3    H139520   6.771   0.850   2.502  1.0878  1.7757 -1.8076
 5987TIP3    H239521   6.739   0.981   2.570 -1.4196 -0.2273  1.1317
 5988TIP3   OH239522   6.175   1.628   1.676  0.3864  0.0416 -0.1374
 5988TIP3    H139523   6.162   1.705   1.732  0.4038 -0.2666  0.2951
 5988TIP3    H239524   6.113   1.563   1.709  1.7487 -0.8351  0.8304
 5989TIP3   OH239525   3.532   5.665   0.355 -0.0143 -0.2960  1.2246
 5989TIP3    H139526   3.466   5.715   0.402 -0.5201  0.2311 -0.0052
 5989TIP3    H239527   3.604   5.656   0.417 -0.7903  0.0848  2.2006
 5990TIP3   OH239528   0.305   3.570   0.640  0.0842  0.4215 -0.0674
 5990TIP3    H139529   0.301   3.478   0.666 -0.2918  0.6429  0.6863
 5990TIP3    H239530   0.382   3.605   0.685 -0.0124  0.5786 -0.0230
 5991TIP3   OH239531   0.643   3.621   1.492 -0.2039  0.6279  0.5231
 5991TIP3    H139532   0.570   3.597   1.549 -0.0375 -0.3454  0.3493
 5991TIP3    H239533   0.675   3.704   1.526 -1.2319  0.9425  0.7570
 5992TIP3   OH239534   5.208   6.602   0.168 -0.4614  0.3960  0.0230
 5992TIP3    H139535   5.197   6.676   0.108  1.4016  1.1675  0.5779
 5992TIP3    H239536   5.137   6.542   0.145 -1.0896  1.6499 -1.4715
 5993TIP3   OH239537   3.793   3.206   8.200 -0.5551  0.5453 -0.5346
 5993TIP3    H139538   3.792   3.250   8.116 -0.9430  0.6403 -0.4831
 5993TIP3    H239539   3.883   3.175   8.211  0.3028  3.0733  0.3297
 5994TIP3   OH239540   3.991   6.172   7.978 -0.2376 -0.1893  0.2931
 5994TIP3    H139541   3.924   6.235   7.949 -0.1707 -0.4292 -0.4050
 5994TIP3    H239542   3.962   6.088   7.942  0.5025 -0.2700 -0.1242
 5995TIP3   OH239543   4.434   1.282   1.370 -0.5254 -0.3024 -0.4015
 5995TIP3    H139544   4.512   1.322   1.408 -0.7772 -1.2359  1.1968
 5995TIP3    H239545   4.367   1.290   1.438 -1.3829 -0.8761 -1.1500
 5996TIP3   OH239546   1.238   0.062   0.392  0.0219  0.3825  0.1008
 5996TIP3    H139547   1.261  -0.031   0.402  1.6245  0.7329 -0.0633
 5996TIP3    H239548   1.147   0.061   0.364 -0.7283 -1.0580  2.3371
 5997TIP3   OH239549   0.063   5.523   1.352 -0.2973  0.1575 -0.0762
 5997TIP3    H139550   0.050   5.561   1.265  0.1464  0.7199  0.0940
 5997TIP3    H239551   0.077   5.599   1.409  2.4579 -0.2944 -0.0147
 5998TIP3   OH239552   0.828   4.709   1.829  0.2763 -0.3092 -0.2014
 5998TIP3    H139553   0.750   4.744   1.786 -0.9678 -1.2623  1.1388
 5998TIP3    H239554   0.793   4.646   1.893  2.1684 -0.8948  0.3238
 5999TIP3   OH239555   6.617   0.623   1.557  0.3761  0.0777 -0.7290
 5999TIP3    H139556   6.578   0.694   1.607  0.3821 -1.6279  1.8403
 5999TIP3    H239557   6.550   0.599   1.493 -0.8302  0.4097  0.3810
 6000TIP3   OH239558   0.929   0.933   7.222 -0.5881  0.1215 -0.0248
 6000TIP3    H139559   0.972   0.945   7.307 -0.3993  1.1170 -0.2502
 6000TIP3    H239560   0.841   0.969   7.234 -0.8157 -0.4307 -0.0322
 6001TIP3   OH239561   0.700   5.519   7.485 -0.3150  0.1631  0.6190
 6001TIP3    H139562   0.653   5.523   7.568 -0.0329 -0.1814  0.7936
 6001TIP3    H239563   0.639   5.478   7.424 -1.1853  1.9485  0.2016
 6002TIP3   OH239564   5.932   3.206   8.158 -0.2074 -0.3064  0.2721
 6002TIP3    H139565   5.949   3.297   8.179 -0.4051 -0.5701  1.6381
 6002TIP3    H239566   5.921   3.163   8.242 -0.4473 -1.5362 -0.3588
 6003TIP3   OH239567   5.903   6.694   0.506 -0.1588  0.6798 -0.0186
 6003TIP3    H139568   5.988   6.656   0.528 -0.4040 -0.3725 -0.7973
 6003TIP3    H239569   5.924   6.771   0.453  0.3430  1.6768  1.5728
 6004TIP3   OH239570   1.724   6.263   0.763  0.7206  0.2985  0.0115
 6004TIP3    H139571   1.757   6.353   0.762 -0.0524  0.5929  0.3394
 6004TIP3    H239572   1.739   6.233   0.853  0.4422  0.3005  0.0577
 6005TIP3   OH239573   1.412   2.523   3.318  0.1245 -0.3872  0.5905
 6005TIP3    H139574   1.353   2.559   3.385  0.0342 -0.2202  0.4269
 6005TIP3    H239575   1.369   2.546   3.235  0.3962 -0.3078  0.4701
 6006TIP3   OH239576   3.037   3.381   0.405 -0.0202  0.4470  0.5349
 6006TIP3    H139577   2.951   3.407   0.372  0.2821 -0.2109 -0.8482
 6006TIP3    H239578   3.017   3.317   0.474 -0.6501 -0.4581 -0.4532
 6007TIP3   OH239579   6.179   1.030   7.411  0.4405 -0.0017  0.5729
 6007TIP3    H139580   6.141   0.942   7.414  0.6880 -0.1976 -1.0860
 6007TIP3    H239581   6.157   1.063   7.324  1.1711  1.2124  0.8202
 6008TIP3   OH239582   1.466   5.307   7.658  0.0358  0.8140  0.1676
 6008TIP3    H139583   1.526   5.255   7.604  0.3369  0.5135  0.7748
 6008TIP3    H239584   1.381   5.265   7.646  0.1189  0.6875  0.0039
 6009TIP3   OH239585   4.720   6.210   0.646 -0.1292 -0.0084  0.3490
 6009TIP3    H139586   4.748   6.283   0.591 -1.4812  1.3201  1.3687
 6009TIP3    H239587   4.642   6.242   0.691 -1.3752 -2.4233  0.0739
 6010TIP3   OH239588   2.317   4.278   0.743 -0.7018  0.1288  0.1179
 6010TIP3    H139589   2.361   4.287   0.827  0.5714  0.8382 -0.5877
 6010TIP3    H239590   2.255   4.352   0.739 -1.9798 -0.8547  1.1012
 6011TIP3   OH239591   3.833   1.740   1.330 -0.1317  0.0535 -0.4254
 6011TIP3    H139592   3.880   1.658   1.313  0.7424  0.1058  1.4767
 6011TIP3    H239593   3.858   1.764   1.419 -2.1797  1.1943 -0.0898
 6012TIP3   OH239594   4.608   2.170   2.972 -0.5892 -0.4447  0.3539
 6012TIP3    H139595   4.596   2.111   2.897 -0.6083  0.7081 -0.5799
 6012TIP3    H239596   4.693   2.212   2.955 -0.1204 -0.8819  1.5040
 6013TIP3   OH239597   4.277   5.900   1.320 -0.0535 -0.4945 -0.0742
 6013TIP3    H139598   4.267   5.805   1.311 -0.3741 -0.4795  0.0982
 6013TIP3    H239599   4.198   5.928   1.366 -0.5967  0.0330 -1.2902
 6014TIP3   OH239600   4.755   0.421   1.944 -0.7043 -0.3504 -0.2457
 6014TIP3    H139601   4.688   0.371   1.991 -0.6029 -0.5075 -0.2674
 6014TIP3    H239602   4.744   0.511   1.975 -0.5153 -0.4873  0.2136
 6015TIP3   OH239603   5.569   0.535   7.727 -0.5422  0.5611  0.4912
 6015TIP3    H139604   5.631   0.498   7.791 -0.8014  1.3216  1.1997
 6015TIP3    H239605   5.621   0.597   7.676 -0.2595 -0.2777 -0.2697
 6016TIP3   OH239606   6.824   3.422   8.637  0.4007 -0.2400  0.0199
 6016TIP3    H139607   6.763   3.489   8.669  0.5999 -0.3522  0.6423
 6016TIP3    H239608   6.907   3.468   8.628  0.1835 -0.0339 -1.0401
 6017TIP3   OH239609   2.715   4.589   1.544  0.0663  0.2245 -0.1741
 6017TIP3    H139610   2.662   4.526   1.495  1.3209 -0.1992 -1.0334
 6017TIP3    H239611   2.802   4.551   1.545  0.6597  1.5338  0.0631
 6018TIP3   OH239612   3.937   4.849   8.043  0.3632  0.2639  0.0743
 6018TIP3    H139613   3.921   4.941   8.064  0.3468 -0.1922  2.2193
 6018TIP3    H239614   3.853   4.817   8.011 -0.1471  0.5430  1.0949
 6019TIP3   OH239615   4.920   5.460   7.609  0.1738 -0.0776  0.1335
 6019TIP3    H139616   4.981   5.393   7.639  0.5936  0.3493  0.2410
 6019TIP3    H239617   4.877   5.490   7.689  1.0595  0.8309  0.2889
 6020TIP3   OH239618   6.804   2.864   6.804 -0.0995 -0.1145 -0.0335
 6020TIP3    H139619   6.735   2.836   6.864 -0.3544  0.4946 -0.0293
 6020TIP3    H239620   6.858   2.924   6.855  1.0847 -1.3942  0.2933
 6021TIP3   OH239621   0.880   3.566   1.171 -0.4609  0.0121 -0.0281
 6021TIP3    H139622   0.876   3.476   1.138 -1.2236  0.4134 -1.0927
 6021TIP3    H239623   0.929   3.613   1.103  0.5316  0.2717  0.8496
 6022TIP3   OH239624   1.934   5.302   7.149 -0.0792 -0.0599  0.0680
 6022TIP3    H139625   1.876   5.271   7.080 -1.6422  0.7406  0.9622
 6022TIP3    H239626   1.928   5.236   7.217 -0.0762  0.0929  0.2191
 6023TIP3   OH239627   6.395   1.969   1.168  0.2148  0.4335 -0.3983
 6023TIP3    H139628   6.438   1.883   1.172  0.8032  0.6182 -2.0245
 6023TIP3    H239629   6.339   1.964   1.091  0.4066  1.5640 -0.6277
 6024TIP3   OH239630   6.571   3.425   0.242  0.2362 -0.2245 -0.1180
 6024TIP3    H139631   6.547   3.459   0.328  0.5995 -0.7236  0.1857
 6024TIP3    H239632   6.664   3.441   0.234  0.2962 -0.5981 -0.2206
 6025TIP3   OH239633   4.884   1.154   8.251  0.7439 -0.2632 -0.3221
 6025TIP3    H139634   4.974   1.186   8.249  1.2364 -1.6226 -0.8785
 6025TIP3    H239635   4.888   1.067   8.212 -0.8474 -0.2845 -0.5218
 6026TIP3   OH239636   2.766   6.116   1.759  0.1379  0.0152  0.0651
 6026TIP3    H139637   2.794   6.160   1.679  0.8002  0.4017  0.4995
 6026TIP3    H239638   2.836   6.054   1.778 -0.0198 -0.0824  0.3360
 6027TIP3   OH239639   6.234   6.556   1.405  0.4788 -0.6971 -0.1315
 6027TIP3    H139640   6.155   6.571   1.457  1.5790  1.0476  1.1138
 6027TIP3    H239641   6.259   6.466   1.427 -0.3763 -0.7862  0.5518
 6028TIP3   OH239642   6.237   1.414   8.502 -0.5532  0.9374 -0.8954
 6028TIP3    H139643   6.187   1.452   8.574  0.7283  1.5539 -0.2810
 6028TIP3    H239644   6.191   1.442   8.423 -0.2865  2.8920 -0.4141
 6029TIP3   OH239645   0.390   2.602   1.126 -0.0884  0.1697 -0.1640
 6029TIP3    H139646   0.336   2.573   1.199  0.1411  0.6377  0.1999
 6029TIP3    H239647   0.332   2.656   1.073  0.0676  0.8499  0.3420
 6030TIP3   OH239648   6.476   6.366   0.541 -0.1755  0.0894  0.4591
 6030TIP3    H139649   6.417   6.442   0.542 -0.9249 -0.4603 -0.5260
 6030TIP3    H239650   6.418   6.290   0.547  0.2060 -0.5470 -2.4823
 6031TIP3   OH239651   4.754   3.867   1.325 -0.8032  0.2022  0.0198
 6031TIP3    H139652   4.674   3.828   1.290 -0.3627 -1.9149  1.1872
 6031TIP3    H239653   4.728   3.907   1.408 -1.0250  1.4166 -0.6135
 6032TIP3   OH239654   2.181   4.882   1.098 -0.0050  0.6642  0.6466
 6032TIP3    H139655   2.182   4.967   1.053  0.4415 -0.1017 -0.8441
 6032TIP3    H239656   2.115   4.831   1.052 -0.8484  0.4300  2.0497
 6033TIP3   OH239657   6.442   3.103   1.087  0.4231 -0.4187 -0.3962
 6033TIP3    H139658   6.409   3.126   1.000  1.2911 -1.2436 -0.9637
 6033TIP3    H239659   6.490   3.022   1.074  1.2411 -0.1445  0.7110
 6034TIP3   OH239660   1.310   1.935   1.674 -0.0362  0.5707 -0.1352
 6034TIP3    H139661   1.229   1.902   1.635 -0.0926 -0.4218  0.7745
 6034TIP3    H239662   1.341   2.001   1.612 -1.7615  1.2988 -0.2994
 6035TIP3   OH239663   4.358   3.072   7.068  0.2155 -0.1698 -0.5909
 6035TIP3    H139664   4.421   3.059   6.998 -0.1543 -0.2277 -0.9177
 6035TIP3    H239665   4.277   3.033   7.035 -0.2591  0.7758 -0.5914
 6036TIP3   OH239666   0.028   6.104   8.242 -0.5866 -0.2084 -0.7248
 6036TIP3    H139667  -0.003   6.018   8.267  0.3602 -0.1990  0.5940
 6036TIP3    H239668  -0.009   6.164   8.307  0.8216  0.0126 -0.0926
 6037TIP3   OH239669   4.006   5.615   8.292  0.0310  0.3135  0.3544
 6037TIP3    H139670   4.082   5.665   8.323  0.4804 -0.3525  0.3460
 6037TIP3    H239671   4.041   5.528   8.273 -0.8031 -0.0947  0.6598
 6038TIP3   OH239672   3.949   0.434   1.637 -0.1944  0.8126 -0.1587
 6038TIP3    H139673   4.038   0.443   1.601 -0.8430  0.9839 -1.8002
 6038TIP3    H239674   3.893   0.423   1.560 -1.5134 -0.1548  0.8938
 6039TIP3   OH239675   5.570   0.030   1.241 -0.0750  0.2307 -0.2443
 6039TIP3    H139676   5.522  -0.051   1.227  0.3741 -0.1689  0.4495
 6039TIP3    H239677   5.646   0.023   1.184  2.0788 -1.6677  2.5974
 6040TIP3   OH239678   1.363   0.494   0.887  0.3179  0.5666 -0.4686
 6040TIP3    H139679   1.298   0.528   0.948  0.2075  0.7270 -0.6772
 6040TIP3    H239680   1.417   0.570   0.865  1.5549  0.1516  0.9104
 6041TIP3   OH239681   1.064   3.211   2.769  0.6323 -0.5037 -0.0226
 6041TIP3    H139682   1.088   3.150   2.838 -0.7395 -0.3947  0.5683
 6041TIP3    H239683   0.973   3.235   2.787  0.2317 -0.4648 -1.8464
 6042TIP3   OH239684   2.368   6.228   1.160  0.1854 -0.4715  0.3266
 6042TIP3    H139685   2.294   6.287   1.146  1.2389  0.7372 -0.4702
 6042TIP3    H239686   2.371   6.214   1.255  0.3473  1.4165  0.6375
 6043TIP3   OH239687   0.143   2.165   7.028  0.3402  0.2833  0.4448
 6043TIP3    H139688   0.089   2.088   7.013 -1.7331  1.4494  1.5965
 6043TIP3    H239689   0.119   2.225   6.958  1.6124  0.1068 -0.1759
 6044TIP3   OH239690   0.059   3.530   7.916  0.4906 -0.4252 -0.5144
 6044TIP3    H139691   0.053   3.444   7.958  0.1098 -0.4611 -0.6371
 6044TIP3    H239692   0.023   3.516   7.828 -0.0043 -0.0420 -0.3784
 6045TIP3   OH239693   6.052   5.747   0.533 -0.3867  0.4306  0.3452
 6045TIP3    H139694   6.039   5.747   0.628 -0.4681 -1.7353  0.3878
 6045TIP3    H239695   6.117   5.816   0.518  0.0108  0.4703  2.0404
 6046TIP3   OH239696   4.935   2.379   1.111  0.5513  0.3214  0.0228
 6046TIP3    H139697   4.928   2.286   1.132  0.6402  0.3616  0.2268
 6046TIP3    H239698   5.028   2.399   1.123  0.5288  0.4428 -0.0040
 6047TIP3   OH239699   5.518   0.301   7.597  0.3797 -0.0162 -0.2834
 6047TIP3    H139700   5.579   0.301   7.523  0.3833  0.1942 -0.2788
 6047TIP3    H239701   5.541   0.378   7.648 -1.1482  1.2226 -1.3322
 6048TIP3   OH239702   3.092   6.377   7.109  0.2242 -0.0412  0.5354
 6048TIP3    H139703   3.170   6.355   7.058  1.0426  2.3952  0.6485
 6048TIP3    H239704   3.123   6.379   7.200 -0.7442 -2.1713  0.9946
 6049TIP3   OH239705   3.220   3.961   0.752  0.1752 -0.0332  0.5310
 6049TIP3    H139706   3.221   3.934   0.660 -1.0892  2.0185 -0.1697
 6049TIP3    H239707   3.137   3.929   0.785 -0.2429  0.8667  0.3800
 6050TIP3   OH239708   4.661   5.490   1.981 -0.6748 -0.2682  0.1035
 6050TIP3    H139709   4.707   5.541   2.048 -0.5717  0.0299 -0.1907
 6050TIP3    H239710   4.713   5.410   1.973 -2.0109 -1.4234  2.0915
 6051TIP3   OH239711   1.180   5.421   7.311  0.4356  0.1070  0.0366
 6051TIP3    H139712   1.186   5.354   7.243  1.9801 -0.5434  0.7779
 6051TIP3    H239713   1.151   5.500   7.265 -0.0561 -0.7138 -1.0859
 6052TIP3   OH239714   3.651   1.860   0.255  0.1780  0.9935 -0.1097
 6052TIP3    H139715   3.610   1.927   0.200 -0.3349 -0.0386 -1.0027
 6052TIP3    H239716   3.681   1.909   0.332 -1.5368  2.0224 -0.0276
 6053TIP3   OH239717   6.136   5.203   7.416 -0.7758  0.5315 -0.0878
 6053TIP3    H139718   6.120   5.263   7.344 -1.8193 -1.6969 -1.8234
 6053TIP3    H239719   6.218   5.159   7.393 -1.2381 -0.3677 -0.0485
 6054TIP3   OH239720   4.538   3.754   1.200  0.1620  0.8709 -0.5840
 6054TIP3    H139721   4.468   3.805   1.160 -0.3586  0.2786 -0.4498
 6054TIP3    H239722   4.496   3.710   1.274  0.6460  0.4120 -0.5742
 6055TIP3   OH239723   0.796   3.489   2.537 -0.8163 -0.7018 -0.2513
 6055TIP3    H139724   0.764   3.558   2.595  1.1630  0.1003 -0.0375
 6055TIP3    H239725   0.729   3.482   2.469 -1.0496  1.5036 -0.3227
 6056TIP3   OH239726   5.909   2.137   0.135  0.0805 -0.3025 -0.1843
 6056TIP3    H139727   5.986   2.108   0.087  0.0580 -1.1404  0.2617
 6056TIP3    H239728   5.903   2.231   0.117  0.0709 -0.5886 -1.8077
 6057TIP3   OH239729   0.339   5.099   7.164 -0.3194  0.7178  0.1281
 6057TIP3    H139730   0.394   5.021   7.153  1.9100  2.0505  1.1223
 6057TIP3    H239731   0.249   5.066   7.160  0.5389 -1.8131  0.0420
 6058TIP3   OH239732   1.165   5.783   0.080  0.0242 -0.4224  0.4408
 6058TIP3    H139733   1.261   5.776   0.073 -0.0948 -2.1433  0.1504
 6058TIP3    H239734   1.132   5.700   0.046 -1.7184  1.0206 -1.7216
 6059TIP3   OH239735   2.310   5.637   2.197 -0.3115 -0.1051 -0.4085
 6059TIP3    H139736   2.258   5.569   2.154 -0.9317 -0.2728  0.5670
 6059TIP3    H239737   2.266   5.650   2.281  0.0438  1.2068 -0.4086
 6060TIP3   OH239738   5.099   0.094   0.588 -0.0036 -0.0637 -0.1710
 6060TIP3    H139739   5.077   0.143   0.667  0.1543 -1.5430  0.8311
 6060TIP3    H239740   5.193   0.107   0.575 -0.2731  1.3004 -0.9428
 6061TIP3   OH239741   5.398   6.236   7.234  0.5738  0.6767  0.4528
 6061TIP3    H139742   5.304   6.255   7.236  0.6430  1.0464  0.2653
 6061TIP3    H239743   5.436   6.295   7.300  0.7821  1.1640 -0.0869
 6062TIP3   OH239744   4.972   2.424   7.990 -0.0267 -0.6291 -0.4232
 6062TIP3    H139745   4.998   2.513   8.015 -1.8644 -0.8922  3.1495
 6062TIP3    H239746   4.899   2.436   7.929  0.1885  0.2934 -0.5164
 6063TIP3   OH239747   4.639   2.628   0.597  0.7706  0.6608  0.2501
 6063TIP3    H139748   4.579   2.554   0.603  1.9590 -0.2435  1.7845
 6063TIP3    H239749   4.715   2.594   0.551  0.9248  1.2188  0.0849
 6064TIP3   OH239750   5.928   2.298   0.501  0.0362 -0.0436 -0.0607
 6064TIP3    H139751   5.989   2.230   0.530 -0.2525 -0.3625 -0.1977
 6064TIP3    H239752   5.959   2.322   0.413 -0.3731 -0.6152 -0.3670
 6065TIP3   OH239753   3.450   5.059   8.664  0.0288  0.4116  0.2441
 6065TIP3    H139754   3.424   5.150   8.647  1.1599  1.0302  1.5829
 6065TIP3    H239755   3.400   5.033   8.741 -3.6458 -1.7193 -2.5509
 6066TIP3   OH239756   1.258   4.708   7.740 -0.5164 -0.4599  0.1979
 6066TIP3    H139757   1.260   4.777   7.674  1.2264 -1.4799 -0.9098
 6066TIP3    H239758   1.293   4.750   7.819  0.2188  0.0463 -0.3758
 6067TIP3   OH239759   5.903   2.396   8.517  0.0473  1.1812  0.2007
 6067TIP3    H139760   5.885   2.469   8.457  1.4070  0.3567 -1.3152
 6067TIP3    H239761   5.833   2.333   8.501  0.2575  1.0831 -0.3546
 6068TIP3   OH239762   1.883   6.114   1.408 -0.4810  0.4254 -0.4054
 6068TIP3    H139763   1.895   6.029   1.450 -1.2992  0.0237 -0.9631
 6068TIP3    H239764   1.952   6.118   1.342 -0.5878  0.0878 -0.5401
 6069TIP3   OH239765   4.623   5.238   7.866  0.2882 -0.6634  0.5649
 6069TIP3    H139766   4.571   5.174   7.818 -1.0024  0.7276  0.0423
 6069TIP3    H239767   4.559   5.291   7.913  1.2501  0.9418  0.1297
 6070TIP3   OH239768   4.109   0.141   1.262 -0.2064  0.0615  0.3288
 6070TIP3    H139769   4.163   0.090   1.201  0.8589  0.8365  0.6021
 6070TIP3    H239770   4.062   0.075   1.313  1.1039 -0.6574  0.6333
 6071TIP3   OH239771   1.310   5.858   1.469 -0.1917 -0.6672 -0.1346
 6071TIP3    H139772   1.273   5.939   1.504 -0.1185 -0.5323 -0.3652
 6071TIP3    H239773   1.311   5.872   1.374 -0.0570 -0.8862 -0.1646
 6072TIP3   OH239774   5.249   3.212   8.663 -0.0387 -0.6484  0.1208
 6072TIP3    H139775   5.160   3.246   8.661 -0.2000 -1.0383 -2.2633
 6072TIP3    H239776   5.277   3.225   8.754 -1.6502  1.6762  0.3992
 6073TIP3   OH239777   3.499   4.155   2.218  0.8577  0.3260 -0.5330
 6073TIP3    H139778   3.535   4.084   2.165 -1.1805 -0.3615 -1.0572
 6073TIP3    H239779   3.574   4.213   2.233  2.6402 -1.9583  0.0551
 6074TIP3   OH239780   3.884   0.123   0.497  0.3550 -0.3509 -0.0937
 6074TIP3    H139781   3.834   0.075   0.431 -0.1768  0.0126  0.0399
 6074TIP3    H239782   3.864   0.078   0.579 -0.8427  0.6286  0.1641
 6075TIP3   OH239783   1.196   4.363   2.558 -0.3722 -0.2322  0.1529
 6075TIP3    H139784   1.227   4.453   2.556 -0.2948 -0.2725 -1.8410
 6075TIP3    H239785   1.103   4.368   2.534 -0.3786 -0.6769  0.0618
 6076TIP3   OH239786   5.497   5.661   7.054  0.2580 -0.6164 -0.4589
 6076TIP3    H139787   5.515   5.573   7.022 -2.3664 -1.5727  0.3836
 6076TIP3    H239788   5.421   5.650   7.111 -0.6500  2.3292 -0.9425
 6077TIP3   OH239789   3.423   5.235   0.228  0.0684  0.5114  0.2959
 6077TIP3    H139790   3.329   5.222   0.216  0.1888  0.4021 -0.5799
 6077TIP3    H239791   3.430   5.290   0.306 -0.7534  1.2138 -0.1153
 6078TIP3   OH239792   5.687   2.238   8.485 -0.0774 -0.4812  0.0403
 6078TIP3    H139793   5.660   2.287   8.563 -0.2618 -0.2785 -0.1471
 6078TIP3    H239794   5.623   2.263   8.418  0.6392  0.0952 -0.4515
 6079TIP3   OH239795   5.289   0.127   1.747  0.8532  0.3643  0.1790
 6079TIP3    H139796   5.206   0.085   1.724  1.0133  0.6756 -1.0236
 6079TIP3    H239797   5.264   0.197   1.807  0.3078  0.1117  0.2546
 6080TIP3   OH239798   0.395   4.464   0.478  0.2537 -0.1928 -0.4396
 6080TIP3    H139799   0.433   4.530   0.421  1.5242 -0.4100  0.1274
 6080TIP3    H239800   0.310   4.445   0.439  1.0588 -0.2888 -2.2318
 6081TIP3   OH239801   0.041   3.145   7.224 -0.2029  0.1611 -0.1999
 6081TIP3    H139802  -0.034   3.115   7.275 -0.1314  0.4650  0.0873
 6081TIP3    H239803   0.117   3.113   7.272 -0.1330 -2.4075 -1.8401
 6082TIP3   OH239804   5.845   5.503   7.243  0.3550  0.0610  0.3417
 6082TIP3    H139805   5.923   5.479   7.293 -0.4271  0.1688  1.6547
 6082TIP3    H239806   5.831   5.430   7.183  1.1941 -0.1585  0.3943
 6083TIP3   OH239807   0.748   2.143   7.456  0.1365 -0.7191  0.1728
 6083TIP3    H139808   0.830   2.154   7.503 -0.5503 -2.1026  1.8053
 6083TIP3    H239809   0.715   2.232   7.442  1.5159 -0.1894  0.1497
 6084TIP3   OH239810   3.361   0.095   8.714 -0.2801 -0.3576  0.1132
 6084TIP3    H139811   3.367   0.079   8.808  0.3648  3.2091  0.8311
 6084TIP3    H239812   3.283   0.149   8.703  1.0874  1.5280 -0.9325
 6085TIP3   OH239813   2.926   1.171   7.191 -0.4077  0.1248  0.4519
 6085TIP3    H139814   3.021   1.178   7.183 -0.3004 -2.5792 -2.7514
 6085TIP3    H239815   2.908   1.077   7.182 -3.4538  0.6865 -0.3611
 6086TIP3   OH239816   4.969   2.099   8.104 -0.1745  0.3792 -0.1776
 6086TIP3    H139817   4.990   2.006   8.113 -0.0380  0.1591 -2.2321
 6086TIP3    H239818   5.005   2.123   8.019  0.5212  2.5462  0.6575
 6087TIP3   OH239819   4.537   3.414   0.229  0.2838 -0.3957 -0.8485
 6087TIP3    H139820   4.555   3.374   0.314  0.6870  0.6116 -0.4484
 6087TIP3    H239821   4.451   3.380   0.205 -0.9207  1.0441  1.0654
 6088TIP3   OH239822   0.353   3.866   2.062  0.5549 -0.5587  0.2587
 6088TIP3    H139823   0.314   3.941   2.107  0.2970 -0.4256 -0.1746
 6088TIP3    H239824   0.287   3.838   1.999  0.0085 -2.1490  1.4750
 6089TIP3   OH239825   2.821   5.132   0.482 -0.2779  0.3367 -0.5508
 6089TIP3    H139826   2.842   5.222   0.456 -1.5868  0.3889 -1.5364
 6089TIP3    H239827   2.744   5.142   0.539 -0.1516 -0.1231 -0.2951
 6090TIP3   OH239828   6.036   0.670   0.152  0.4260  0.5627 -0.1278
 6090TIP3    H139829   6.031   0.766   0.147  1.1492  0.5666 -1.0272
 6090TIP3    H239830   6.054   0.652   0.244 -2.6359  1.1335  0.7062
 6091TIP3   OH239831   5.406   0.908   7.075 -0.0892  0.1789  0.1290
 6091TIP3    H139832   5.407   0.975   7.007  2.2439 -0.9744 -1.1166
 6091TIP3    H239833   5.477   0.933   7.134 -0.9639  0.2318  1.1799
 6092TIP3   OH239834   5.272   2.347   7.911  0.0895 -0.6671 -0.4719
 6092TIP3    H139835   5.291   2.255   7.932 -0.7263 -0.9008 -0.7096
 6092TIP3    H239836   5.229   2.381   7.989 -0.4201 -0.7469 -0.7126
 6093TIP3   OH239837   0.435   6.413   1.426  0.3847 -0.1066 -0.0392
 6093TIP3    H139838   0.486   6.332   1.426 -0.8510 -0.9228  0.0120
 6093TIP3    H239839   0.344   6.383   1.417 -0.0535  1.3096 -0.5994
 6094TIP3   OH239840   5.506   0.526   0.341  0.6469 -0.2955 -0.6771
 6094TIP3    H139841   5.583   0.477   0.370 -0.4695 -2.2328 -0.8188
 6094TIP3    H239842   5.442   0.515   0.411  0.3526  1.0234 -0.7015
 6095TIP3   OH239843   3.813   6.659   1.212 -0.1165 -0.1736  0.4097
 6095TIP3    H139844   3.780   6.698   1.292  0.8645  3.6800 -0.8032
 6095TIP3    H239845   3.835   6.735   1.156  0.1335 -2.5975 -3.1187
 6096TIP3   OH239846   5.082   5.969   0.453  0.6606  0.2536  0.3678
 6096TIP3    H139847   5.071   6.032   0.524 -0.7044 -0.5868  0.9471
 6096TIP3    H239848   5.153   6.005   0.400  1.9826  0.7274  2.3440
 6097TIP3   OH239849   1.074   1.757   1.716 -0.2648  0.5479  0.0728
 6097TIP3    H139850   1.118   1.701   1.653 -1.2728 -0.9411  0.6551
 6097TIP3    H239851   0.981   1.747   1.698 -0.5042  1.4774  0.6630
 6098TIP3   OH239852   4.933   4.406   1.686  0.0274 -0.1346  0.0717
 6098TIP3    H139853   4.976   4.453   1.615 -1.9511  1.4189 -0.1808
 6098TIP3    H239854   4.938   4.465   1.761  0.7514 -1.1163  0.8326
 6099TIP3   OH239855   1.594   6.117   2.158  0.2265  0.2674 -0.5079
 6099TIP3    H139856   1.567   6.027   2.181  0.8249  0.1730 -0.1433
 6099TIP3    H239857   1.689   6.113   2.154  0.3298  1.1135  0.5313
 6100TIP3   OH239858   0.229   6.644   0.552 -0.7903  0.1211 -1.0854
 6100TIP3    H139859   0.262   6.555   0.551 -0.2999  0.2480  0.6507
 6100TIP3    H239860   0.307   6.699   0.559 -1.1202  0.6527 -1.5184
 6101TIP3   OH239861   6.180   3.519   1.528  0.5399 -0.3983  0.0469
 6101TIP3    H139862   6.132   3.542   1.607  0.5339 -0.4050  0.0452
 6101TIP3    H239863   6.112   3.507   1.462  0.6499  2.4003 -0.7179
 6102TIP3   OH239864   1.035   0.653   0.970 -0.2414 -0.0797  0.1274
 6102TIP3    H139865   1.082   0.641   1.052 -0.6316  0.8994  0.5045
 6102TIP3    H239866   1.064   0.738   0.937 -2.4236  1.0329  0.8716
 6103TIP3   OH239867   1.798   2.033   0.029 -0.2180 -0.5038 -0.2293
 6103TIP3    H139868   1.781   2.003  -0.060 -0.3653 -1.9305  0.2529
 6103TIP3    H239869   1.716   2.073   0.057 -0.1383  0.0388 -0.7620
 6104TIP3   OH239870   0.104   3.965   1.123  0.2129  0.3113 -0.1071
 6104TIP3    H139871   0.152   3.897   1.170  1.7918  1.1793 -0.3897
 6104TIP3    H239872   0.132   3.956   1.032 -1.3645 -0.1347 -0.5868
 6105TIP3   OH239873   3.341   4.419   1.967 -0.3197  0.0402 -0.0953
 6105TIP3    H139874   3.408   4.361   1.932 -0.8209 -0.2761 -0.5492
 6105TIP3    H239875   3.355   4.502   1.923 -0.8023 -0.2901 -0.8969
 6106TIP3   OH239876   3.389   4.498   1.157  0.5010 -0.2691  0.5217
 6106TIP3    H139877   3.448   4.431   1.194 -0.0609 -1.3948 -0.5577
 6106TIP3    H239878   3.346   4.536   1.233  1.4684 -0.5314  1.2233
 6107TIP3   OH239879   5.124   6.583   1.873 -0.3588 -0.2405 -0.3773
 6107TIP3    H139880   5.125   6.498   1.917 -1.0922 -0.7592 -1.3267
 6107TIP3    H239881   5.032   6.609   1.873 -0.2388  0.1945 -0.7780
 6108TIP3   OH239882   1.687   5.449   2.104 -0.3380 -0.1769 -0.4482
 6108TIP3    H139883   1.663   5.383   2.169 -0.4432  0.2802 -0.0102
 6108TIP3    H239884   1.780   5.466   2.121 -0.8541  1.5159  1.0691
 6109TIP3   OH239885   1.341   2.962   8.773 -0.4915  0.8419  0.5047
 6109TIP3    H139886   1.256   2.986   8.809 -1.1893 -2.8291  1.6937
 6109TIP3    H239887   1.403   2.985   8.843 -1.3589 -2.2586  2.4902
 6110TIP3   OH239888   2.744   0.827   7.976 -0.0679 -0.2571 -0.0868
 6110TIP3    H139889   2.763   0.752   7.921 -0.7428 -0.1866 -0.4182
 6110TIP3    H239890   2.667   0.867   7.937 -0.6256 -0.2748  0.9700
 6111TIP3   OH239891   3.405   0.702   1.976  0.0314 -0.3679 -0.9273
 6111TIP3    H139892   3.401   0.649   1.896 -1.1708 -0.0209 -1.1138
 6111TIP3    H239893   3.316   0.700   2.011  0.0336  1.2575 -0.7650
 6112TIP3   OH239894   3.217   2.813   2.251  0.3378  0.5824 -0.1721
 6112TIP3    H139895   3.275   2.854   2.188 -0.4757  2.2147  0.0726
 6112TIP3    H239896   3.258   2.828   2.336  1.3222 -1.4201 -0.2348
 6113TIP3   OH239897   0.563   0.360   7.234 -0.3831  0.3559 -0.1576
 6113TIP3    H139898   0.499   0.337   7.167 -0.3019  0.3635 -0.2383
 6113TIP3    H239899   0.551   0.454   7.248 -0.4607  0.3370 -0.0971
 6114TIP3   OH239900   3.514   4.955   0.159 -0.0236  0.2442  0.1005
 6114TIP3    H139901   3.495   4.947   0.253  1.6134 -0.1401  0.4387
 6114TIP3    H239902   3.570   5.032   0.152  0.7154 -0.3312 -0.4183
 6115TIP3   OH239903   5.783   0.514   0.146 -0.1797  0.1236 -0.2091
 6115TIP3    H139904   5.852   0.579   0.132 -0.2768  0.1317 -0.6626
 6115TIP3    H239905   5.809   0.439   0.091  0.2895 -0.4958  0.8357
 6116TIP3   OH239906   4.504   6.660   7.961  0.0948 -0.0363  0.3358
 6116TIP3    H139907   4.540   6.679   8.048 -1.1866  1.0660  0.6564
 6116TIP3    H239908   4.423   6.710   7.957  0.1564 -0.0106 -1.5333
 6117TIP3   OH239909   6.749   4.980   2.020 -0.1938 -0.4578  0.4689
 6117TIP3    H139910   6.821   4.929   1.983  1.0876 -0.8274  3.2282
 6117TIP3    H239911   6.679   4.917   2.034  0.4313 -0.9556  1.4375
 6118TIP3   OH239912   6.253   4.460   2.219 -0.2226  0.1416 -0.2199
 6118TIP3    H139913   6.315   4.389   2.233  1.8187  1.0216 -3.5837
 6118TIP3    H239914   6.170   4.416   2.201  0.5499 -1.3135 -0.3873
 6119TIP3   OH239915   2.316   0.021   7.963  0.2227 -0.4615  0.4499
 6119TIP3    H139916   2.304   0.116   7.967  0.9669 -0.3460  0.1110
 6119TIP3    H239917   2.302  -0.001   7.871 -1.4703 -0.9078  0.7877
 6120TIP3   OH239918   6.121   1.962   2.469  0.1171  1.2068  0.0308
 6120TIP3    H139919   6.105   1.886   2.525 -2.7168  2.2061  0.7510
 6120TIP3    H239920   6.170   2.023   2.524 -0.5086  1.2014  0.6066
 6121TIP3   OH239921   0.581   5.875   1.103  0.3660  0.1915  0.1791
 6121TIP3    H139922   0.575   5.959   1.057 -0.5027  1.7482  2.9097
 6121TIP3    H239923   0.665   5.878   1.148 -0.5867  0.6741  2.0524
 6122TIP3   OH239924   1.966   1.402   7.055  0.4072  0.0769  0.5743
 6122TIP3    H139925   1.918   1.422   7.135 -0.7954  2.2760 -0.6088
 6122TIP3    H239926   1.905   1.423   6.985  1.4145 -1.8213 -0.9764
 6123TIP3   OH239927   5.264   0.675   7.095 -0.1283  0.2011 -0.0278
 6123TIP3    H139928   5.251   0.614   7.023  0.9258 -0.1333  0.0620
 6123TIP3    H239929   5.333   0.734   7.065 -0.1727  0.4959  0.4346
 6124TIP3   OH239930   3.207   0.830   2.742 -0.1432  0.3525  0.6057
 6124TIP3    H139931   3.129   0.795   2.699  0.8692  0.6862 -1.6469
 6124TIP3    H239932   3.248   0.754   2.783 -1.2222  0.0439  1.1394
 6125TIP3   OH239933   2.915   2.053   2.270  0.0957  0.2707 -0.3405
 6125TIP3    H139934   3.005   2.084   2.271  0.2490 -0.0331  2.0028
 6125TIP3    H239935   2.922   1.959   2.253  0.0581  0.5242 -1.8650
 6126TIP3   OH239936   0.830   5.079   0.498  0.1744  0.1112  0.2715
 6126TIP3    H139937   0.813   5.085   0.592  2.1685  4.4916  0.5800
 6126TIP3    H239938   0.760   5.131   0.458  0.2535 -0.4000 -0.5504
 6127TIP3   OH239939   0.845   4.155   7.474 -0.3062  0.2186 -0.5612
 6127TIP3    H139940   0.925   4.108   7.447  0.6224  1.2522  0.2930
 6127TIP3    H239941   0.850   4.239   7.429 -1.1511  0.1280 -0.8413
 6128TIP3   OH239942   6.745   3.208   0.045  0.1594 -0.2083 -0.0465
 6128TIP3    H139943   6.770   3.266  -0.027 -0.4949 -0.9451 -0.9029
 6128TIP3    H239944   6.666   3.247   0.081 -0.5974 -0.8176 -0.9786
 6129TIP3   OH239945   3.204   5.681   7.761  0.1623  0.2114 -0.0160
 6129TIP3    H139946   3.138   5.746   7.786  0.4805  0.1340  1.1168
 6129TIP3    H239947   3.287   5.730   7.763  0.4259 -0.2451  1.0166
 6130TIP3   OH239948   3.087   1.260   8.199 -0.0428  0.1078  0.1678
 6130TIP3    H139949   3.098   1.165   8.191 -1.0261  0.0635 -0.9532
 6130TIP3    H239950   3.172   1.291   8.231  1.0066 -0.9409 -1.4463
 6131TIP3   OH239951   0.184   3.637   2.338  0.5374 -1.1823 -0.1960
 6131TIP3    H139952   0.104   3.663   2.383  0.6206 -2.5731  0.7942
 6131TIP3    H239953   0.155   3.611   2.251  0.4523  2.1263 -1.3021
 6132TIP3   OH239954   3.335   4.594   2.817 -0.0725 -1.1059 -0.2565
 6132TIP3    H139955   3.308   4.635   2.899 -0.5881 -0.2342 -0.8410
 6132TIP3    H239956   3.389   4.661   2.774  0.7580 -1.8108 -0.3310
 6133TIP3   OH239957   5.548   0.465   1.254  0.4032 -0.3966  0.1685
 6133TIP3    H139958   5.454   0.455   1.241  0.0655 -0.0224  2.0321
 6133TIP3    H239959   5.576   0.382   1.293  0.7880 -0.3609 -0.0260
 6134TIP3   OH239960   5.332   4.729   0.569  0.8081  0.2977  0.4903
 6134TIP3    H139961   5.271   4.678   0.622 -1.3700  1.3548 -0.8703
 6134TIP3    H239962   5.307   4.709   0.479  3.7877 -0.7061 -0.2248
 6135TIP3   OH239963   6.812   5.792   0.712 -0.0729 -0.4678  0.0338
 6135TIP3    H139964   6.740   5.809   0.772 -0.5135 -1.6445 -0.1367
 6135TIP3    H239965   6.773   5.801   0.625  0.2506 -0.0806 -0.0787
 6136TIP3   OH239966   1.612   6.199   8.631  0.8237  0.7334 -0.2553
 6136TIP3    H139967   1.574   6.286   8.619 -0.0783  0.3011 -0.6278
 6136TIP3    H239968   1.635   6.170   8.543 -2.4286 -0.9402 -0.7069
 6137TIP3   OH239969   2.772   3.294   0.753 -0.3642 -0.3217 -0.2132
 6137TIP3    H139970   2.833   3.288   0.827  0.0795  1.6573 -0.3738
 6137TIP3    H239971   2.757   3.388   0.742 -3.7309 -0.7135  0.0273
 6138TIP3   OH239972   2.215   2.195   1.782 -0.1275  0.6868 -0.0833
 6138TIP3    H139973   2.245   2.148   1.703 -1.1240 -0.2421  0.0655
 6138TIP3    H239974   2.293   2.241   1.813  1.1679 -1.5680  0.2433
 6139TIP3   OH239975   2.467   4.899   7.700 -0.4694 -0.0147 -1.0942
 6139TIP3    H139976   2.389   4.923   7.751 -1.1171 -2.2823 -0.8772
 6139TIP3    H239977   2.431   4.867   7.617  0.3074 -0.0829 -1.4070
 6140TIP3   OH239978   1.306   5.386   8.095  0.7694 -0.4059  0.4026
 6140TIP3    H139979   1.360   5.463   8.114  0.0737 -0.0012  0.7899
 6140TIP3    H239980   1.251   5.414   8.022 -0.1500 -0.1888  1.1496
 6141TIP3   OH239981   5.002   5.719   7.201  0.1287 -1.0389  0.8613
 6141TIP3    H139982   5.027   5.761   7.283 -0.7100 -0.1693  0.6987
 6141TIP3    H239983   4.979   5.630   7.224 -0.3722 -0.7189  1.6249
 6142TIP3   OH239984   3.179   5.560   1.002  0.4818  0.2727  0.0908
 6142TIP3    H139985   3.159   5.469   0.981 -0.2093  0.5394 -0.4509
 6142TIP3    H239986   3.259   5.555   1.054  1.1803 -0.5568 -1.0019
 6143TIP3   OH239987   3.974   3.708   8.135  0.3336 -0.1711  0.4312
 6143TIP3    H139988   4.043   3.733   8.073  0.8010 -1.4741  0.3837
 6143TIP3    H239989   4.000   3.750   8.217  0.8688 -0.1730  0.2681
 6144TIP3   OH239990   1.134   1.382   7.971  0.1015 -0.9629 -0.3562
 6144TIP3    H139991   1.076   1.431   7.913 -0.7953 -0.4609  0.9286
 6144TIP3    H239992   1.114   1.290   7.952 -0.7320 -0.7977 -0.3144
 6145TIP3   OH239993   4.213   1.407   7.642  0.2900  0.3724  0.0932
 6145TIP3    H139994   4.261   1.325   7.630  0.1947 -0.0312  2.1230
 6145TIP3    H239995   4.212   1.447   7.555 -1.7517 -2.8815 -1.5712
 6146TIP3   OH239996   4.328   6.488   8.451 -0.7237 -0.0651 -0.4273
 6146TIP3    H139997   4.233   6.489   8.436 -0.8506 -0.9218  0.2171
 6146TIP3    H239998   4.345   6.402   8.490  0.2522  0.2540 -0.1123
 6147TIP3   OH239999   3.831   4.605   8.148 -0.5969  0.1448 -0.2083
 6147TIP3    H140000   3.799   4.640   8.232  0.1097  0.7490 -0.1803
 6147TIP3    H240001   3.833   4.511   8.161  0.9130  0.3014  1.0016
 6148TIP3   OH240002   3.696   5.711   2.181  0.0578  0.3547 -0.5230
 6148TIP3    H140003   3.610   5.680   2.208  1.1718 -2.5018  0.1553
 6148TIP3    H240004   3.683   5.743   2.092 -1.3080 -2.5600 -1.4983
 6149TIP3   OH240005   4.141   3.495   0.267 -0.0614  0.3860 -0.4690
 6149TIP3    H140006   4.087   3.440   0.210 -0.4380  1.7143 -1.4476
 6149TIP3    H240007   4.231   3.477   0.240 -0.2412  1.0769 -1.5856
 6150TIP3   OH240008   0.123   4.142   8.302  0.1980  0.0721  0.3344
 6150TIP3    H140009   0.191   4.210   8.305 -1.9482  2.3732  0.6693
 6150TIP3    H240010   0.081   4.154   8.217 -0.2059 -0.8731  0.3901
 6151TIP3   OH240011   6.600   2.379   1.741 -0.1039  0.4481 -0.3226
 6151TIP3    H140012   6.621   2.317   1.671  0.5868  0.2079  0.0898
 6151TIP3    H240013   6.604   2.465   1.699 -1.2480  0.2212 -0.9428
 6152TIP3   OH240014   4.835   4.030   0.478 -0.1966  0.0949  0.2752
 6152TIP3    H140015   4.901   4.015   0.410 -0.6230  2.0679 -0.6409
 6152TIP3    H240016   4.781   3.951   0.476  0.7040 -0.5282 -0.6330
 6153TIP3   OH240017   1.128   5.682   7.156 -0.0355  0.6453 -0.5146
 6153TIP3    H140018   1.123   5.633   7.074  3.1369  1.5475 -1.3543
 6153TIP3    H240019   1.140   5.773   7.129 -2.2750  1.4949  1.0280
 6154TIP3   OH240020   3.390   3.613   0.746 -0.0864  0.9015 -0.3064
 6154TIP3    H140021   3.338   3.623   0.667 -0.4550  0.1626 -0.1667
 6154TIP3    H240022   3.376   3.522   0.773  2.7306  0.0251 -1.3187
 6155TIP3   OH240023   5.302   5.523   1.238  0.3996  0.2162  0.7112
 6155TIP3    H140024   5.373   5.472   1.278 -0.1744  0.2665  1.8301
 6155TIP3    H240025   5.230   5.515   1.299 -0.6014  0.1219 -0.4422
 6156TIP3   OH240026   5.263   3.500   3.078  0.3870 -0.2506 -0.3342
 6156TIP3    H140027   5.276   3.408   3.057 -1.1031 -0.2059 -1.6451
 6156TIP3    H240028   5.179   3.522   3.037 -0.0746  1.2692  1.3368
 6157TIP3   OH240029   1.923   0.832   0.136  0.4429 -0.2262 -0.1246
 6157TIP3    H140030   1.917   0.758   0.197  0.5425 -0.5369 -0.4922
 6157TIP3    H240031   1.944   0.792   0.052 -2.6418 -0.1429 -1.0661
 6158TIP3   OH240032   2.986   4.415   1.603 -0.6972  0.1783  0.4269
 6158TIP3    H140033   3.042   4.366   1.664 -0.3367  0.7270  0.5401
 6158TIP3    H240034   2.984   4.504   1.638  0.8308  0.9201 -1.2186
 6159TIP3   OH240035   2.403   3.313   7.861  0.2119  0.2841  0.1115
 6159TIP3    H140036   2.368   3.224   7.856  1.5051 -0.2429  0.0891
 6159TIP3    H240037   2.379   3.353   7.778 -1.3918  0.3751  0.5765
 6160TIP3   OH240038   4.455   3.724   0.563  0.0449  0.3392 -0.2615
 6160TIP3    H140039   4.385   3.768   0.516 -0.5658  0.1555  0.4408
 6160TIP3    H240040   4.411   3.686   0.640  0.7562 -0.5235 -0.2707
 6161TIP3   OH240041   6.661   1.949   0.688 -0.4616 -0.0634  0.0975
 6161TIP3    H140042   6.597   1.966   0.757  0.3573 -1.0042  1.1265
 6161TIP3    H240043   6.660   1.854   0.678  1.3437 -0.1854  0.7464
 6162TIP3   OH240044   0.394   5.188   1.826  0.4280 -0.4035  0.0770
 6162TIP3    H140045   0.347   5.118   1.781  1.3108 -0.9551 -0.0180
 6162TIP3    H240046   0.481   5.188   1.785  0.7092  0.1919  0.6565
 6163TIP3   OH240047   2.205   4.532   0.743 -0.2525 -0.6312  0.0548
 6163TIP3    H140048   2.149   4.570   0.812  0.9761  0.3121  0.5699
 6163TIP3    H240049   2.155   4.546   0.663 -0.5202  0.7726  0.4256
 6164TIP3   OH240050   4.174   2.929   7.945 -0.2923 -0.2403 -0.7162
 6164TIP3    H140051   4.261   2.893   7.925 -0.3739 -0.2802 -1.0024
 6164TIP3    H240052   4.114   2.855   7.934 -0.2960 -0.3487  0.0247
 6165TIP3   OH240053   0.096   2.402   1.521 -0.2289  0.0227 -0.0857
 6165TIP3    H140054   0.121   2.461   1.592  0.5962 -0.1159 -0.2549
 6165TIP3    H240055   0.077   2.319   1.564  0.9055 -0.2501 -0.0707
 6166TIP3   OH240056   3.091   0.700   7.971 -0.0091 -0.2191  1.0368
 6166TIP3    H140057   3.086   0.730   7.880  1.1508  0.2954  1.1283
 6166TIP3    H240058   3.028   0.756   8.017 -0.5407 -0.4231  0.5698
 6167TIP3   OH240059   2.122   5.831   1.129  0.0514 -0.8811 -0.7505
 6167TIP3    H140060   2.079   5.794   1.052 -0.8388 -1.3315 -0.0534
 6167TIP3    H240061   2.215   5.820   1.112 -0.0782  0.0604 -2.2707
 6168TIP3   OH240062   1.211   5.311   6.981 -0.3568  0.1688  0.3820
 6168TIP3    H140063   1.144   5.278   7.041 -0.3698  1.6452  1.2479
 6168TIP3    H240064   1.163   5.363   6.917 -0.2246 -0.4697 -0.2489
 6169TIP3   OH240065   6.281   0.382   8.441 -0.4087 -0.7766 -0.1652
 6169TIP3    H140066   6.242   0.351   8.523  0.1886  0.9401  0.8066
 6169TIP3    H240067   6.374   0.361   8.449 -0.0876  0.7433  0.2834
 6170TIP3   OH240068   2.111   1.011   7.018 -0.5784 -0.3859  0.0422
 6170TIP3    H140069   2.196   0.968   7.004  0.0426 -0.7014  3.7579
 6170TIP3    H240070   2.053   0.941   7.046 -0.9808  0.3561  1.1535
 6171TIP3   OH240071   3.129   4.296   1.805 -0.7634 -0.5931 -0.1760
 6171TIP3    H140072   3.073   4.245   1.864  0.6949 -1.7626  0.2524
 6171TIP3    H240073   3.198   4.330   1.861  0.3824 -1.3212 -1.1136
 6172TIP3   OH240074   6.715   1.757   1.712 -0.0733  0.3171 -0.1675
 6172TIP3    H140075   6.706   1.664   1.692  0.0922  0.3539 -0.4177
 6172TIP3    H240076   6.733   1.798   1.628 -1.9182  0.8266 -0.3493
 6173TIP3   OH240077   6.622   3.943   8.109  0.1448 -0.3076 -0.5605
 6173TIP3    H140078   6.688   3.939   8.179 -1.6983 -0.5662  1.2781
 6173TIP3    H240079   6.641   3.867   8.054  1.4842 -0.2703 -0.1866
 6174TIP3   OH240080   3.547   5.630   1.910 -0.0773  0.0050 -0.5070
 6174TIP3    H140081   3.604   5.555   1.923  0.6388  0.6920  0.4206
 6174TIP3    H240082   3.469   5.611   1.963 -0.3956 -0.5728 -1.1589
 6175TIP3   OH240083   3.141   3.977   8.114 -0.2791 -0.3613 -0.7560
 6175TIP3    H140084   3.106   3.974   8.025 -1.5995  1.2529 -0.3444
 6175TIP3    H240085   3.095   4.050   8.155 -0.8745 -2.0180  1.7411
 6176TIP3   OH240086   0.083   0.147   8.661  0.2994  0.3889 -0.1571
 6176TIP3    H140087   0.103   0.115   8.574  0.7061  0.0374  0.0622
 6176TIP3    H240088   0.104   0.074   8.719 -0.4180  0.4515  0.1952
 6177TIP3   OH240089   3.293   3.149   1.961  0.3638  0.1134 -0.2403
 6177TIP3    H140090   3.356   3.185   1.899 -0.6642  0.7443 -0.9474
 6177TIP3    H240091   3.207   3.165   1.921 -0.2685 -0.4839  0.8142
 6178TIP3   OH240092   0.465   1.250   7.687  0.1519  0.0820  0.3019
 6178TIP3    H140093   0.371   1.265   7.675 -0.1081 -1.7638 -0.2517
 6178TIP3    H240094   0.504   1.281   7.605 -0.0426  0.2351  0.2652
 6179TIP3   OH240095   4.740   3.041   0.286 -0.1147  0.1775  0.3492
 6179TIP3    H140096   4.743   2.946   0.301  1.7560  0.2935  0.9011
 6179TIP3    H240097   4.657   3.068   0.325 -1.0508 -1.3100 -0.4756
 6180TIP3   OH240098   3.352   0.182   1.987 -0.2582  0.6382  0.3789
 6180TIP3    H140099   3.313   0.225   1.911  0.2457  0.5804  0.0829
 6180TIP3    H240100   3.445   0.178   1.967 -0.4042 -1.7443 -0.2024
 6181TIP3   OH240101   6.824   2.935   8.555  0.3477 -0.5702 -0.2575
 6181TIP3    H140102   6.877   2.857   8.571 -0.5744 -1.3576 -0.9224
 6181TIP3    H240103   6.734   2.904   8.561 -0.0417  0.5696  0.0282
 6182TIP3   OH240104   5.271   5.648   7.225 -0.0202 -0.4034 -0.1446
 6182TIP3    H140105   5.184   5.689   7.228  0.5407  0.7992  0.5667
 6182TIP3    H240106   5.293   5.629   7.316 -0.5090 -2.9559 -0.4823
 6183TIP3   OH240107   0.713   6.651   0.457 -0.0234  0.0594 -0.2296
 6183TIP3    H140108   0.688   6.701   0.379  1.1296 -0.1309 -0.7462
 6183TIP3    H240109   0.802   6.621   0.438  0.0536 -0.4815  0.9265
 6184TIP3   OH240110   5.132   5.660   1.996 -0.3295 -0.0964  0.1426
 6184TIP3    H140111   5.198   5.730   1.996 -1.8149  1.3602 -0.6843
 6184TIP3    H240112   5.093   5.665   2.084  0.6725 -1.0217  0.6661
 6185TIP3   OH240113   5.002   5.931   1.872  1.1386 -0.1799 -0.0748
 6185TIP3    H140114   4.916   5.909   1.909  1.3316 -1.5491 -0.3724
 6185TIP3    H240115   5.061   5.928   1.947  1.0401  0.0928  0.0157
 6186TIP3   OH240116   6.597   0.295   7.950  0.1046  0.3516 -0.0086
 6186TIP3    H140117   6.554   0.212   7.972 -0.5228  1.2554  2.4415
 6186TIP3    H240118   6.678   0.294   8.002  0.8919  0.6033 -1.1954
 6187TIP3   OH240119   6.555   0.336   7.288  0.1841 -0.2909 -0.0801
 6187TIP3    H140120   6.600   0.385   7.219  0.5679 -0.7176 -0.1421
 6187TIP3    H240121   6.462   0.343   7.266  0.3122 -0.5561 -0.7370
 6188TIP3   OH240122   5.056   3.399   1.302 -0.7051 -0.3170  0.3184
 6188TIP3    H140123   5.066   3.479   1.354  1.6244 -0.6686  0.5059
 6188TIP3    H240124   5.012   3.428   1.222  0.3149  1.2075  0.2744
 6189TIP3   OH240125   0.387   0.083   8.192 -0.1279 -0.5620 -0.0465
 6189TIP3    H140126   0.328   0.030   8.139 -0.1283 -1.2858  0.6604
 6189TIP3    H240127   0.435   0.137   8.128  0.6935 -2.2154 -0.9067
 6190TIP3   OH240128   6.639   0.260   8.733 -0.1471  0.5861  0.4390
 6190TIP3    H140129   6.573   0.207   8.777  0.1458 -0.5830 -0.4802
 6190TIP3    H240130   6.701   0.196   8.696  1.4140  1.6378  1.1354
 6191TIP3   OH240131   3.545   1.950   0.961  0.1186 -0.5922  0.2246
 6191TIP3    H140132   3.540   1.996   0.877 -0.9974  0.1004  0.6500
 6191TIP3    H240133   3.610   1.881   0.947  1.2116  0.5857 -0.6752
 6192TIP3   OH240134   3.742   4.581   7.875 -0.1995  0.0415 -0.1945
 6192TIP3    H140135   3.767   4.592   7.967 -0.7961 -0.4755  0.0362
 6192TIP3    H240136   3.665   4.524   7.878  0.4211 -0.8658 -1.0868
 6193TIP3   OH240137   2.387   4.432   7.795  0.1250 -0.3203 -0.5062
 6193TIP3    H140138   2.470   4.423   7.843 -0.0731 -0.0397 -0.1014
 6193TIP3    H240139   2.387   4.360   7.733  0.2877 -0.8203  0.0659
 6194TIP3   OH240140   3.505   4.790   7.097  0.5603 -0.3866  0.1758
 6194TIP3    H140141   3.543   4.702   7.103 -0.4281 -0.7295  1.9373
 6194TIP3    H240142   3.411   4.775   7.089  0.3428  0.5203  0.9057
 6195TIP3   OH240143   0.665   1.518   2.957 -0.2921 -0.4445  0.1204
 6195TIP3    H140144   0.690   1.429   2.931  1.6196  0.1272 -0.1245
 6195TIP3    H240145   0.747   1.566   2.961 -1.2340  1.1913  0.8029
 6196TIP3   OH240146   3.040   2.864   0.671 -0.3146 -0.7417 -0.2706
 6196TIP3    H140147   2.973   2.827   0.729  0.0587 -0.9534  0.0242
 6196TIP3    H240148   3.040   2.805   0.595  0.4529 -1.5044  0.3056
 6197TIP3   OH240149   4.078   4.232   3.146  0.4173 -0.1784 -0.5483
 6197TIP3    H140150   4.090   4.166   3.078  0.0661 -0.2253 -0.5654
 6197TIP3    H240151   4.115   4.312   3.108  0.9184 -0.3813 -0.4949
 6198TIP3   OH240152   3.764   2.337   8.371 -0.1460 -0.5913  0.2939
 6198TIP3    H140153   3.753   2.288   8.452  1.4196 -0.7693  0.4172
 6198TIP3    H240154   3.854   2.322   8.345 -0.0563  1.0021 -0.4819
 6199TIP3   OH240155   3.107   2.759   8.644 -0.0329 -0.7755  0.2349
 6199TIP3    H140156   3.098   2.684   8.702  0.3756 -0.6826  0.4230
 6199TIP3    H240157   3.135   2.722   8.560  3.6101 -0.6244  1.1998
 6200TIP3   OH240158   5.270   3.882   0.188  0.0197 -0.1364  0.4144
 6200TIP3    H140159   5.206   3.841   0.129 -0.0284  1.0193 -0.3734
 6200TIP3    H240160   5.354   3.848   0.159 -0.1382 -0.7694  0.6955
 6201TIP3   OH240161   0.465   0.613   7.158 -0.1132 -0.2441 -0.0806
 6201TIP3    H140162   0.543   0.659   7.187  0.8343 -0.2404 -2.4158
 6201TIP3    H240163   0.418   0.677   7.104 -0.8949 -0.7457 -0.0108
 6202TIP3   OH240164   5.971   3.162   8.749  0.3695 -0.4792 -0.0982
 6202TIP3    H140165   5.941   3.244   8.709  0.0557 -0.8500 -0.6342
 6202TIP3    H240166   6.066   3.165   8.739  0.3603 -0.1905 -0.1311
 6203TIP3   OH240167   3.019   0.570   7.275  0.5236  0.0670  0.2885
 6203TIP3    H140168   2.979   0.509   7.214  0.7099  1.5894 -1.4348
 6203TIP3    H240169   2.947   0.626   7.305  0.6952  0.3123  0.2509
 6204TIP3   OH240170   1.004   4.440   8.360 -0.0168  0.2862  0.1028
 6204TIP3    H140171   1.054   4.358   8.360 -0.0167  0.2666  1.2673
 6204TIP3    H240172   1.063   4.504   8.318 -0.0329 -0.3024 -0.8449
 6205TIP3   OH240173   3.168   5.413   2.573  0.0421 -0.0054  0.2649
 6205TIP3    H140174   3.187   5.320   2.557 -1.5078 -0.3056  0.0617
 6205TIP3    H240175   3.075   5.417   2.591 -0.3541  1.7518 -1.7320
 6206TIP3   OH240176   0.465   2.151   2.153 -0.0563 -0.7328 -0.4768
 6206TIP3    H140177   0.424   2.067   2.171 -0.9888  0.0738  1.4026
 6206TIP3    H240178   0.438   2.208   2.225  3.5159  0.1680  0.3970
 6207TIP3   OH240179   3.961   1.520   0.619 -1.0514  0.5558  0.0094
 6207TIP3    H140180   4.032   1.478   0.667 -1.1162 -0.3736 -0.6761
 6207TIP3    H240181   3.893   1.534   0.684 -1.8328 -2.2813 -0.0664
 6208TIP3   OH240182   1.975   2.440   7.855  0.0508  0.1568  0.2677
 6208TIP3    H140183   2.010   2.380   7.920 -2.1944 -0.0620  1.3873
 6208TIP3    H240184   1.963   2.386   7.777 -2.7607 -1.2500  1.5155
 6209TIP3   OH240185   5.352   0.190   0.524  0.0175  0.4558 -0.1050
 6209TIP3    H140186   5.331   0.167   0.434  0.7574 -0.6166 -0.0136
 6209TIP3    H240187   5.377   0.283   0.520 -2.5070  1.2020 -0.5499
 6210TIP3   OH240188   2.669   5.095   8.469  0.3854  0.4106  0.2145
 6210TIP3    H140189   2.753   5.078   8.427  1.5656  0.5251  2.3525
 6210TIP3    H240190   2.664   5.190   8.476 -0.3992  0.4576 -0.7351
 6211TIP3   OH240191   0.293   0.496   7.372 -0.5316  0.0548  0.5229
 6211TIP3    H140192   0.216   0.543   7.405  0.4040  1.3987  0.8338
 6211TIP3    H240193   0.319   0.544   7.293 -0.8025 -1.2129 -0.3752
 6212TIP3   OH240194   2.171   2.534   1.608 -0.5913  0.0160 -0.2160
 6212TIP3    H140195   2.239   2.470   1.588 -2.1539 -2.1560  0.9674
 6212TIP3    H240196   2.194   2.566   1.695  0.5688  1.7191 -1.0747
 6213TIP3   OH240197   1.114   4.617   0.119  0.3745 -0.0216  0.1598
 6213TIP3    H140198   1.188   4.665   0.157 -0.1050  1.6580 -0.9254
 6213TIP3    H240199   1.106   4.539   0.174  0.4731  1.6628  2.7654
 6214TIP3   OH240200   4.933   6.365   1.275  0.2849 -0.3002  0.9437
 6214TIP3    H140201   4.922   6.342   1.367 -2.3023  0.8101  1.0108
 6214TIP3    H240202   4.871   6.307   1.229 -2.7291  2.8427  0.6201
 6215TIP3   OH240203   1.831   1.733   2.208  0.2747  0.5326 -0.1718
 6215TIP3    H140204   1.857   1.711   2.298  0.6327  0.5920 -0.2601
 6215TIP3    H240205   1.749   1.685   2.195 -0.1126  1.0207  0.3991
 6216TIP3   OH240206   3.455   5.721   0.102  0.0478  0.2006  0.2674
 6216TIP3    H140207   3.366   5.752   0.121 -0.0898 -0.1506  0.1985
 6216TIP3    H240208   3.494   5.709   0.189  1.3600  4.0193  0.4136
 6217TIP3   OH240209   4.739   0.912   1.594  0.1864  0.0627 -0.0513
 6217TIP3    H140210   4.668   0.909   1.530 -0.8359  1.0670  0.9919
 6217TIP3    H240211   4.696   0.902   1.679  1.3538  0.2071  0.5840
 6218TIP3   OH240212   4.538   5.984   7.702  0.5579 -0.0462  0.5833
 6218TIP3    H140213   4.598   6.058   7.694 -0.5272  0.9291  1.1554
 6218TIP3    H240214   4.455   6.015   7.665 -0.4162 -0.3442  2.3675
 6219TIP3   OH240215   0.232   4.245   7.880 -0.1084 -0.3967  0.4483
 6219TIP3    H140216   0.171   4.202   7.939 -0.3527 -1.0387 -0.2535
 6219TIP3    H240217   0.191   4.239   7.794  0.3853  0.2347  0.1575
 6220TIP3   OH240218   3.012   0.215   1.052  0.0447  0.1152  0.8744
 6220TIP3    H140219   3.000   0.279   1.122 -0.9006  2.3208 -1.1535
 6220TIP3    H240220   2.923   0.199   1.019  0.6511  1.3554 -1.5880
 6221TIP3   OH240221   4.140   2.259   2.893  0.5372  0.1087 -0.4298
 6221TIP3    H140222   4.066   2.289   2.945 -1.1185 -0.7340 -2.1567
 6221TIP3    H240223   4.214   2.262   2.952 -0.7869  1.3875  1.2667
 6222TIP3   OH240224   4.440   5.342   2.289  0.0623  0.3728 -0.1262
 6222TIP3    H140225   4.525   5.386   2.289 -0.6086  1.7259 -1.5023
 6222TIP3    H240226   4.449   5.274   2.222 -0.3293  1.3580 -1.2047
 6223TIP3   OH240227   1.442   6.241   0.790  0.3675  0.1163 -0.4394
 6223TIP3    H140228   1.462   6.243   0.883  0.1490  2.2127 -0.3723
 6223TIP3    H240229   1.527   6.238   0.747  0.4554 -2.7767 -0.2494
 6224TIP3   OH240230   3.932   2.961   0.516  0.3700 -0.0924 -0.4546
 6224TIP3    H140231   3.839   2.966   0.541  0.4436  0.2539 -0.2433
 6224TIP3    H240232   3.934   2.898   0.444 -0.4111  1.7258 -2.1724
 6225TIP3   OH240233   0.775   1.758   8.025  0.3190 -0.3393 -0.7318
 6225TIP3    H140234   0.710   1.751   7.955 -0.0202  1.3993 -0.6324
 6225TIP3    H240235   0.787   1.852   8.037  1.9712 -0.6311  0.0922
 6226TIP3   OH240236   6.375   0.108   0.892 -0.0753  0.0865  0.6019
 6226TIP3    H140237   6.403   0.092   0.983  2.2418 -3.2165 -0.4794
 6226TIP3    H240238   6.431   0.179   0.862  0.1075  0.2743  1.3662
 6227TIP3   OH240239   2.458   3.009   2.413  0.0179  0.2536  0.4517
 6227TIP3    H140240   2.460   3.063   2.492  1.0326  0.1386  0.5178
 6227TIP3    H240241   2.497   2.926   2.440  0.4475  0.2421 -0.1805
 6228TIP3   OH240242   0.155   6.160   0.168  0.5015  0.6265  0.1495
 6228TIP3    H140243   0.246   6.174   0.192  0.9634 -0.6285 -0.7479
 6228TIP3    H240244   0.133   6.073   0.203  0.2930  0.0525 -1.3090
 6229TIP3   OH240245   0.721   3.634   8.364 -0.9915  0.4685 -0.3809
 6229TIP3    H140246   0.715   3.655   8.457  0.1639  0.5512 -0.3148
 6229TIP3    H240247   0.654   3.688   8.323 -0.2262  1.8770  0.1757
 6230TIP3   OH240248   2.609   1.658   6.772  0.3101  0.7752 -0.1654
 6230TIP3    H140249   2.661   1.659   6.691  1.1728 -2.5012  0.2037
 6230TIP3    H240250   2.674   1.666   6.842  0.0764 -0.6546  0.2416
 6231TIP3   OH240251   1.094   6.471   0.872  0.0689 -0.2473  0.6823
 6231TIP3    H140252   1.050   6.555   0.855  1.3375  0.2477 -0.2669
 6231TIP3    H240253   1.177   6.495   0.913  0.5618 -1.0155  0.1665
 6232TIP3   OH240254   3.513   6.449   1.984  0.4699 -0.2063 -0.5805
 6232TIP3    H140255   3.563   6.401   2.051  2.2344  0.3945 -1.4185
 6232TIP3    H240256   3.472   6.521   2.032 -0.4396 -1.2528  0.2916
 6233TIP3   OH240257   6.171   0.051   0.669  0.2780 -0.6529 -0.1809
 6233TIP3    H140258   6.192   0.055   0.762  0.3501 -1.3774 -0.1568
 6233TIP3    H240259   6.145  -0.040   0.655 -0.8545 -0.2839 -0.6305
 6234TIP3   OH240260   5.187   4.818   6.795  0.6528  0.5331  0.9133
 6234TIP3    H140261   5.103   4.773   6.790  0.4077  0.9459  1.2439
 6234TIP3    H240262   5.250   4.757   6.756  0.2269  0.1602  0.8075
 6235TIP3   OH240263   1.445   6.603   7.864  0.1410  0.1436 -0.3186
 6235TIP3    H140264   1.499   6.669   7.821  1.9522 -1.2725 -0.3113
 6235TIP3    H240265   1.501   6.566   7.932 -1.0162 -1.0151  0.0403
 6236TIP3   OH240266   1.347   2.534   1.999  0.8949 -0.1482 -0.3037
 6236TIP3    H140267   1.388   2.470   2.057  0.4567  0.5335  0.8132
 6236TIP3    H240268   1.254   2.532   2.024  1.1814  2.4632  1.3988
 6237TIP3   OH240269   5.250   4.146   2.255  0.4086 -0.2577  0.0383
 6237TIP3    H140270   5.237   4.216   2.191 -0.7827 -0.3541  0.1549
 6237TIP3    H240271   5.166   4.101   2.260  1.0660 -1.5129  0.2068
 6238TIP3   OH240272   0.763   5.106   0.766 -0.5912  0.1504  0.1947
 6238TIP3    H140273   0.733   5.116   0.856 -1.3575 -1.2394  0.1201
 6238TIP3    H240274   0.848   5.063   0.773 -2.3479 -3.7508  0.2571
 6239TIP3   OH240275   5.316   1.164   1.586 -0.3606  0.3356  0.1819
 6239TIP3    H140276   5.265   1.241   1.613  0.1596  0.6795  0.1871
 6239TIP3    H240277   5.400   1.174   1.631  1.2123  1.8339 -2.7746
 6240TIP3   OH240278   0.190   4.960   2.292  0.2775  0.3016 -0.1396
 6240TIP3    H140279   0.211   4.888   2.233  1.6714  1.2359 -0.8431
 6240TIP3    H240280   0.180   4.919   2.378  0.0658 -0.8452 -0.7086
 6241TIP3   OH240281   3.243   0.902   1.319 -0.4007 -0.1384  0.1495
 6241TIP3    H140282   3.278   0.856   1.242  0.8203 -0.8228  1.0725
 6241TIP3    H240283   3.315   0.959   1.346 -1.0767  0.6169  0.3875
 6242TIP3   OH240284   0.406   2.380   1.464 -0.4666  0.0483 -0.2085
 6242TIP3    H140285   0.324   2.423   1.440  0.4570  1.1950 -1.4842
 6242TIP3    H240286   0.438   2.429   1.540 -1.1755 -0.7170  0.6067
 6243TIP3   OH240287   3.810   1.208   7.945 -0.1051  0.0521  0.1290
 6243TIP3    H140288   3.859   1.128   7.926  1.3661  0.8398  0.4225
 6243TIP3    H240289   3.736   1.179   7.998  0.9130 -1.0112  1.0406
 6244TIP3   OH240290   4.784   5.060   7.628 -0.3373 -0.3204  0.1869
 6244TIP3    H140291   4.839   5.090   7.701 -1.5016  0.3439  0.8222
 6244TIP3    H240292   4.695   5.078   7.657 -0.8888 -1.2593 -0.8819
 6245TIP3   OH240293   2.126   0.221   0.734  0.4921  0.1625  0.2333
 6245TIP3    H140294   2.167   0.171   0.804  1.0824  0.2280 -0.0574
 6245TIP3    H240295   2.036   0.237   0.765  1.4608  2.4540  2.1827
 6246TIP3   OH240296   2.736   6.253   0.383  0.5503  0.0800 -0.6905
 6246TIP3    H140297   2.658   6.287   0.338 -1.1782 -0.0707  1.9941
 6246TIP3    H240298   2.759   6.322   0.445  0.7296 -1.0968  0.5865
 6247TIP3   OH240299   1.636   4.693   1.434  0.2159  0.4319  0.2819
 6247TIP3    H140300   1.570   4.677   1.367 -0.3969 -1.9218  1.3376
 6247TIP3    H240301   1.647   4.788   1.436 -0.1222  0.6156 -2.7291
 6248TIP3   OH240302   0.016   0.041   1.227 -0.0371  0.3405  0.4887
 6248TIP3    H140303   0.001   0.076   1.140  1.3390  0.1456  0.1620
 6248TIP3    H240304  -0.069   0.050   1.271 -0.8525  0.1181 -0.9678
 6249TIP3   OH240305   3.043   2.093   0.190  0.2952  0.5091  0.5414
 6249TIP3    H140306   3.094   2.174   0.181 -0.3913  1.0911  1.7098
 6249TIP3    H240307   2.980   2.096   0.118 -0.1407  1.3419  0.9387
 6250TIP3   OH240308   2.915   0.375   7.118 -0.0903 -0.8620  0.2632
 6250TIP3    H140309   2.992   0.353   7.066 -0.4184 -0.1824 -0.5323
 6250TIP3    H240310   2.904   0.300   7.177 -0.1628 -2.0263 -1.1695
 6251TIP3   OH240311   5.941   5.757   0.854  0.4006 -0.5081 -0.2326
 6251TIP3    H140312   5.904   5.673   0.883  0.1033 -0.0979  0.6376
 6251TIP3    H240313   5.899   5.822   0.912 -1.0639  0.4988 -2.2950
 6252TIP3   OH240314   4.985   0.567   7.813 -0.2196  0.6778 -0.3786
 6252TIP3    H140315   4.965   0.491   7.758  0.9001  0.3278 -0.3286
 6252TIP3    H240316   5.080   0.566   7.822 -0.2760  1.4795  0.5091
 6253TIP3   OH240317   3.151   0.755   0.184 -0.5018 -0.0808  0.3417
 6253TIP3    H140318   3.106   0.676   0.215 -2.1049  1.1771  1.3974
 6253TIP3    H240319   3.182   0.798   0.263  1.0313  0.0046 -0.2710
 6254TIP3   OH240320   0.542   4.593   2.664 -0.2994  0.2692 -0.1800
 6254TIP3    H140321   0.487   4.632   2.732  1.1387  0.2501  1.0512
 6254TIP3    H240322   0.510   4.631   2.583 -2.1703  0.1879  0.4591
 6255TIP3   OH240323   4.908   6.086   6.503  0.3836  0.1757 -0.6329
 6255TIP3    H140324   4.841   6.149   6.476 -0.9880 -0.7561  0.4413
 6255TIP3    H240325   4.926   6.109   6.594  0.3107 -0.5897 -0.4181
 6256TIP3   OH240326   2.946   4.049   8.416  0.2463  0.0955 -0.0506
 6256TIP3    H140327   3.039   4.034   8.398  0.1037 -0.5945 -0.2766
 6256TIP3    H240328   2.924   4.127   8.366  0.8765  0.7029  0.6044
 6257TIP3   OH240329   3.168   1.749   0.915 -0.5158 -0.2640  0.5773
 6257TIP3    H140330   3.077   1.724   0.901 -1.3761  2.4369  0.8697
 6257TIP3    H240331   3.171   1.777   1.006 -0.0322  2.0194 -0.0946
 6258TIP3   OH240332   5.396   4.620   7.470 -0.1663 -0.2286  0.3034
 6258TIP3    H140333   5.447   4.608   7.551  1.3314  1.7729 -0.2659
 6258TIP3    H240334   5.425   4.549   7.413  1.0293  0.0784  0.4853
 6259TIP3   OH240335   3.307   1.242   0.877  0.2839 -0.4635  0.1193
 6259TIP3    H140336   3.402   1.237   0.875  0.3134 -1.1700 -3.9047
 6259TIP3    H240337   3.280   1.167   0.930  1.8490  0.3996  2.3077
 6260TIP3   OH240338   2.872   5.705   7.027 -0.1280  0.3625 -0.1341
 6260TIP3    H140339   2.794   5.752   6.999 -0.7238 -0.6849 -0.2631
 6260TIP3    H240340   2.850   5.612   7.018  0.8298  0.0352  0.6375
 6261TIP3   OH240341   5.356   4.548   2.457  0.6832 -0.4531  0.3271
 6261TIP3    H140342   5.291   4.484   2.486  0.5664 -1.4643 -1.9359
 6261TIP3    H240343   5.437   4.497   2.448  0.8057 -0.0998 -0.6536
 6262TIP3   OH240344   1.055   6.771   6.763  0.5118 -0.4366  0.3161
 6262TIP3    H140345   1.147   6.744   6.770  0.4953 -0.6323 -0.1676
 6262TIP3    H240346   1.049   6.851   6.815  0.2862 -2.0054  2.9274
 6263TIP3   OH240347   1.926   1.510   0.427  0.2678  0.2166 -0.3843
 6263TIP3    H140348   1.975   1.580   0.384  0.9394  0.4180  0.6875
 6263TIP3    H240349   1.992   1.458   0.472 -0.3803 -0.2325  0.0706
 6264TIP3   OH240350   3.676   1.542   0.660 -0.5751  0.1442  0.0960
 6264TIP3    H140351   3.651   1.635   0.662  1.8273  0.9013 -0.8243
 6264TIP3    H240352   3.637   1.509   0.579 -2.1110  0.0798  0.8155
 6265TIP3   OH240353   2.840   2.751   7.632  0.7649 -0.1341 -0.5379
 6265TIP3    H140354   2.745   2.762   7.625  0.6779  0.1052  0.7509
 6265TIP3    H240355   2.873   2.771   7.544 -0.1969  1.9738 -0.4983
 6266TIP3   OH240356   4.962   4.181   1.072  0.5891 -0.1206  0.4269
 6266TIP3    H140357   4.886   4.125   1.087  0.4475  0.0468  0.3329
 6266TIP3    H240358   4.949   4.256   1.129  0.7041 -0.1100  0.4397
 6267TIP3   OH240359   4.246   5.332   8.276 -0.3852  0.0195  0.5323
 6267TIP3    H140360   4.301   5.370   8.345  0.2529  0.0600  0.0122
 6267TIP3    H240361   4.282   5.245   8.263  2.5121  1.4946 -2.8719
 6268TIP3   OH240362   2.407   5.344   2.575  0.4304  0.5775  0.0588
 6268TIP3    H140363   2.454   5.427   2.587 -0.3240  1.1646 -0.8989
 6268TIP3    H240364   2.365   5.328   2.659 -1.7607  2.6947 -0.5208
 6269TIP3   OH240365   4.247   1.323   2.689  0.4614 -0.7124 -0.1368
 6269TIP3    H140366   4.243   1.313   2.784 -0.8905  1.4700  0.1203
 6269TIP3    H240367   4.332   1.288   2.664  1.7865  0.6110  2.1778
 6270TIP3   OH240368   4.302   3.852   1.090  0.2654 -0.0410  0.1495
 6270TIP3    H140369   4.317   3.943   1.116 -0.6348 -0.0652  0.8025
 6270TIP3    H240370   4.244   3.817   1.157 -2.3529 -0.0547 -1.9775
 6271TIP3   OH240371   0.730   6.787   1.620  0.4511  0.0052 -0.2911
 6271TIP3    H140372   0.806   6.779   1.677  0.5725 -1.3473 -0.6108
 6271TIP3    H240373   0.656   6.800   1.679  0.6173 -1.0790  0.1709
 6272TIP3   OH240374   5.028   0.939   1.347  0.2223 -0.9948  0.2164
 6272TIP3    H140375   4.989   0.958   1.432 -3.4663  1.5853 -1.7751
 6272TIP3    H240376   5.118   0.972   1.354 -0.3747  0.3553  2.7187
 6273TIP3   OH240377   3.127   1.111   0.496 -0.0637  0.2580  0.2613
 6273TIP3    H140378   3.059   1.162   0.540  1.4513  1.6380  1.1478
 6273TIP3    H240379   3.143   1.158   0.414  1.1445  1.1385  0.9565
 6274TIP3   OH240380   1.796   1.123   2.923  0.4058 -0.1457  0.4414
 6274TIP3    H140381   1.745   1.047   2.953 -2.6064  0.9439 -1.5373
 6274TIP3    H240382   1.838   1.093   2.842 -0.2095  0.0780  0.0371
 6275TIP3   OH240383   6.255   3.996   0.091  0.4431 -0.3102 -0.2258
 6275TIP3    H140384   6.274   4.014  -0.001  1.0472  0.0873 -0.0336
 6275TIP3    H240385   6.340   3.976   0.129  0.2387 -0.1843  0.3037
 6276TIP3   OH240386   2.646   3.736   2.380 -0.0333  0.2541 -0.2484
 6276TIP3    H140387   2.604   3.755   2.464  0.5596 -0.2025  0.1638
 6276TIP3    H240388   2.732   3.700   2.404  0.0311 -0.1491 -1.0454
 6277TIP3   OH240389   5.625   6.483   2.084 -0.5054  0.0109  0.1045
 6277TIP3    H140390   5.602   6.416   2.020  0.4794 -0.1818 -0.0607
 6277TIP3    H240391   5.657   6.433   2.160  0.5200  0.2859 -0.1337
 6278TIP3   OH240392   4.395   6.107   0.541  0.2322 -0.2385  0.3104
 6278TIP3    H140393   4.425   6.180   0.487 -1.6091 -0.0659 -0.5536
 6278TIP3    H240394   4.456   6.036   0.523 -0.1590 -0.0907 -1.8294
 6279TIP3   OH240395   5.938   0.665   1.419 -0.1804 -0.1973  0.4412
 6279TIP3    H140396   5.994   0.600   1.376 -1.4537 -1.1959  0.2032
 6279TIP3    H240397   5.916   0.625   1.504  0.3853  0.6941  1.0198
 6280TIP3   OH240398   1.141   3.188   1.302  0.5374 -0.8096 -0.3646
 6280TIP3    H140399   1.129   3.279   1.276  1.4536 -1.4070 -3.2013
 6280TIP3    H240400   1.227   3.187   1.344  0.2301 -0.2759  0.2936
 6281TIP3   OH240401   6.416   0.853   2.761 -0.1095  0.3801  0.7719
 6281TIP3    H140402   6.356   0.789   2.800  1.3843 -1.9463 -0.5493
 6281TIP3    H240403   6.476   0.875   2.831  0.8421 -1.6114  0.6504
 6282TIP3   OH240404   3.609   0.464   0.523 -0.2145  0.0867 -0.3861
 6282TIP3    H140405   3.682   0.403   0.509 -0.9110 -0.7722 -0.3765
 6282TIP3    H240406   3.608   0.519   0.445  0.3053 -0.0445 -0.4858
 6283TIP3   OH240407   1.331   4.100   0.034 -0.6226 -0.3853 -0.2787
 6283TIP3    H140408   1.250   4.111   0.084 -1.9401 -0.7325 -2.2275
 6283TIP3    H240409   1.319   4.154  -0.044  0.3649 -1.6279 -1.3318
 6284TIP3   OH240410   4.453   6.657   1.995  0.3079 -1.3662 -0.1133
 6284TIP3    H140411   4.531   6.656   2.050 -0.0073 -1.7335  0.3359
 6284TIP3    H240412   4.381   6.639   2.055 -0.4211  1.2883 -0.0948
 6285TIP3   OH240413   1.672   2.157   1.257 -0.3598  0.1207 -0.4877
 6285TIP3    H140414   1.734   2.085   1.253  1.0479  1.3015 -1.0875
 6285TIP3    H240415   1.598   2.128   1.203  0.6227 -0.4830 -1.5610
 6286TIP3   OH240416   3.476   5.501   7.827 -0.1509  0.3992  0.1692
 6286TIP3    H140417   3.512   5.557   7.759  0.9840 -0.8652 -0.3293
 6286TIP3    H240418   3.383   5.492   7.805  0.1989  0.0262 -1.2243
 6287TIP3   OH240419   2.974   4.493   0.657 -0.0129 -0.3661  0.0181
 6287TIP3    H140420   3.025   4.475   0.578 -1.0329  0.9018 -0.9770
 6287TIP3    H240421   2.885   4.465   0.634 -0.4020  0.4083  0.5493
 6288TIP3   OH240422   0.845   1.143   8.087 -0.2060  0.6706 -0.1746
 6288TIP3    H140423   0.756   1.149   8.121 -0.4305  1.3409 -0.8418
 6288TIP3    H240424   0.835   1.148   7.992  0.5451  0.8151 -0.2569
 6289TIP3   OH240425   0.197   4.792   0.270  0.1444  0.0145  0.6195
 6289TIP3    H140426   0.146   4.741   0.207  1.4129  0.8115 -1.1435
 6289TIP3    H240427   0.191   4.882   0.238 -0.4648  0.7109  2.5749
 6290TIP3   OH240428   6.589   1.396   7.615 -0.2804 -0.2195  0.2961
 6290TIP3    H140429   6.641   1.353   7.682 -0.9644 -0.7929  0.4695
 6290TIP3    H240430   6.498   1.376   7.637 -0.4995 -0.8534 -1.0785
 6291TIP3   OH240431   3.456   5.313   8.249  0.7155 -0.1063  0.0281
 6291TIP3    H140432   3.545   5.341   8.269 -0.3690  1.4577  3.3861
 6291TIP3    H240433   3.407   5.394   8.238 -0.5611 -0.9004 -0.3525
 6292TIP3   OH240434   1.514   6.773   0.493  0.5685 -0.1025  0.4529
 6292TIP3    H140435   1.454   6.843   0.519  1.5978  0.3663  1.6608
 6292TIP3    H240436   1.534   6.793   0.401  0.5434  0.9760  0.6648
 6293TIP3   OH240437   2.026   5.931   7.331 -0.1222  0.0525 -0.4436
 6293TIP3    H140438   2.120   5.936   7.345 -0.1182 -1.8292  0.4844
 6293TIP3    H240439   2.015   5.863   7.265 -0.8264  0.5123 -0.8128
 6294TIP3   OH240440   3.846   1.150   6.753  0.3804  0.2371 -0.5086
 6294TIP3    H140441   3.879   1.066   6.782  0.2867 -0.8005 -3.0932
 6294TIP3    H240442   3.751   1.141   6.755  0.1966  1.6743  2.7235
 6295TIP3   OH240443   5.445   5.509   8.011  0.0129  0.0075 -0.2134
 6295TIP3    H140444   5.373   5.448   8.029 -1.1949  1.4026 -0.0546
 6295TIP3    H240445   5.486   5.475   7.932 -0.2046 -1.3657  0.2365
 6296TIP3   OH240446   5.318   2.812   0.568 -0.5310 -0.0598 -0.9995
 6296TIP3    H140447   5.267   2.788   0.645  1.1613  0.2192  0.2880
 6296TIP3    H240448   5.359   2.730   0.540  1.0929  0.2812  0.1933
 6297TIP3   OH240449   3.838   0.994   1.060 -0.1751  0.0826 -0.2343
 6297TIP3    H140450   3.856   1.069   1.002 -1.6707 -0.0822 -0.9422
 6297TIP3    H240451   3.922   0.979   1.104  1.4740 -0.5681 -3.2608
 6298TIP3   OH240452   1.867   3.090   8.287  0.2460 -0.0552 -0.0603
 6298TIP3    H140453   1.772   3.084   8.279  0.2966 -0.6041 -0.3003
 6298TIP3    H240454   1.901   3.046   8.209  0.6986 -0.3781  0.3104
 6299TIP3   OH240455   5.109   3.769   7.682  0.4382  0.7052  0.4764
 6299TIP3    H140456   5.166   3.841   7.657 -0.6124  1.2709 -0.3610
 6299TIP3    H240457   5.080   3.731   7.599 -2.3439  2.0038  0.7275
 6300TIP3   OH240458   5.864   3.889   1.409 -0.0099  0.2556 -0.0865
 6300TIP3    H140459   5.853   3.984   1.404  1.0161  0.3732 -0.2904
 6300TIP3    H240460   5.808   3.862   1.481  0.2005  1.1016  0.4038
 6301TIP3   OH240461   1.759   3.526   0.346  0.1849  0.2697 -0.7146
 6301TIP3    H140462   1.827   3.593   0.332  0.0058  1.4519  3.1044
 6301TIP3    H240463   1.805   3.452   0.385 -0.3446  0.0937 -0.4158
 6302TIP3   OH240464   3.638   5.226   1.515  0.0492  0.3024  0.0706
 6302TIP3    H140465   3.732   5.207   1.522 -0.0607  0.3191  2.3789
 6302TIP3    H240466   3.600   5.187   1.594 -1.7888  0.9131 -0.4648
 6303TIP3   OH240467   3.462   1.874   8.022  0.1251 -0.1466  0.5693
 6303TIP3    H140468   3.475   1.782   8.045 -1.6962 -1.1041 -1.7961
 6303TIP3    H240469   3.520   1.888   7.947  0.8860  0.8768  1.3232
 6304TIP3   OH240470   3.415   6.656   2.160  0.4585  0.1575 -0.0207
 6304TIP3    H140471   3.345   6.709   2.122 -1.9921 -2.0123  1.1582
 6304TIP3    H240472   3.409   6.672   2.254  1.2358 -0.4615  0.1462
 6305TIP3   OH240473   4.253   2.171   8.375 -0.2633  0.2167  0.1023
 6305TIP3    H140474   4.337   2.213   8.358 -1.3077  3.1147  1.3318
 6305TIP3    H240475   4.253   2.092   8.321  3.4505 -0.2462  0.5569
 6306TIP3   OH240476   2.487   0.764   8.415  0.4713 -0.4047 -0.0378
 6306TIP3    H140477   2.478   0.737   8.323 -0.2551  0.0109 -0.1030
 6306TIP3    H240478   2.576   0.797   8.422  0.9713 -1.6568 -0.2604
 6307TIP3   OH240479   5.377   3.072   7.525 -0.3421 -0.3270  0.1087
 6307TIP3    H140480   5.317   3.129   7.476  0.9863  0.1336 -1.0813
 6307TIP3    H240481   5.352   3.083   7.616 -1.0774  1.0311 -0.2294
 6308TIP3   OH240482   5.458   6.806   0.027 -0.3038 -0.2277  0.3230
 6308TIP3    H140483   5.547   6.811  -0.006 -0.2152 -3.3682 -0.2803
 6308TIP3    H240484   5.459   6.730   0.087 -2.6120 -0.5800  0.0252
 6309TIP3   OH240485   0.439   1.957   7.291  0.0626  0.3360  0.5258
 6309TIP3    H140486   0.362   1.913   7.256 -1.0952  0.8967  2.2329
 6309TIP3    H240487   0.503   1.953   7.221 -0.5952 -2.4636 -0.0339
 6310TIP3   OH240488   4.628   6.457   8.628 -0.2040 -0.0805 -0.0833
 6310TIP3    H140489   4.706   6.405   8.644  0.0485  0.6872  1.4019
 6310TIP3    H240490   4.556   6.394   8.629  0.1411 -0.4874  1.2549
 6311TIP3   OH240491   5.989   0.144   6.796  0.8173 -0.3055 -0.4894
 6311TIP3    H140492   5.933   0.091   6.738  0.4519 -0.5949  0.1169
 6311TIP3    H240493   6.045   0.194   6.736 -1.1676  1.2102 -1.1977
 6312TIP3   OH240494   3.788   6.378   1.626  0.6956  0.5138 -0.8201
 6312TIP3    H140495   3.705   6.392   1.672  0.8127  2.1474 -1.0276
 6312TIP3    H240496   3.854   6.408   1.688  1.0902 -0.2446 -0.8732
 6313TIP3   OH240497   0.982   6.468   6.945 -0.0281 -0.0945 -0.8113
 6313TIP3    H140498   0.979   6.512   6.860 -0.6046  1.3228 -0.0887
 6313TIP3    H240499   0.998   6.376   6.924  0.4393  0.3229 -2.4140
 6314TIP3   OH240500   0.726   3.177   8.458  0.2786  0.0927  0.3239
 6314TIP3    H140501   0.808   3.226   8.454  0.0180  0.5546  0.5686
 6314TIP3    H240502   0.658   3.244   8.467 -0.1786 -0.2464 -0.4724
 6315TIP3   OH240503   6.666   6.813   8.548  0.8102  0.2371  0.3735
 6315TIP3    H140504   6.631   6.731   8.584  2.6338 -0.3311  0.9286
 6315TIP3    H240505   6.760   6.810   8.566  0.9214  2.5089  0.4700
 6316TIP3   OH240506   6.248   2.490   7.773 -0.6144  0.6278  0.2419
 6316TIP3    H140507   6.337   2.482   7.738  0.1856  0.8703  2.1450
 6316TIP3    H240508   6.240   2.582   7.797 -1.2713  0.5385  0.3770
 6317TIP3   OH240509   2.461   3.859   1.494 -0.1065  0.0664  0.7378
 6317TIP3    H140510   2.367   3.843   1.490 -0.2927  0.7221  1.8777
 6317TIP3    H240511   2.500   3.794   1.435 -1.2827 -0.0496  0.0739
 6318TIP3   OH240512   0.548   3.939   1.788  0.1814  0.4626 -0.5310
 6318TIP3    H140513   0.607   3.999   1.835 -0.3896  1.3762 -0.9369
 6318TIP3    H240514   0.461   3.965   1.818 -0.0265 -0.9727  0.1712
 6319TIP3   OH240515   6.365   4.170   2.340  0.0039 -0.6164 -0.1634
 6319TIP3    H140516   6.402   4.082   2.347  0.1154 -0.5114  0.6607
 6319TIP3    H240517   6.278   4.156   2.302 -0.2082 -1.1485  0.4923
 6320TIP3   OH240518   5.836   5.504   0.873 -0.2236 -0.4950  0.0406
 6320TIP3    H140519   5.831   5.411   0.895 -0.6081 -0.6471 -0.6715
 6320TIP3    H240520   5.746   5.536   0.883 -0.2083 -0.3361 -0.2954
 6321TIP3   OH240521   4.306   0.696   2.281  0.2037  0.3054 -0.2939
 6321TIP3    H140522   4.243   0.761   2.249  0.9701  0.9757 -0.4599
 6321TIP3    H240523   4.278   0.679   2.371  0.4470  1.4487  0.0131
 6322TIP3   OH240524   6.190   6.786   7.622 -0.3509  0.2607 -0.3244
 6322TIP3    H140525   6.246   6.708   7.622 -0.0355  0.4836 -1.2168
 6322TIP3    H240526   6.113   6.760   7.571  0.7258  1.1989 -2.5385
 6323TIP3   OH240527   2.761   1.255   0.804  0.1542 -0.7024 -0.8128
 6323TIP3    H140528   2.805   1.200   0.869 -0.7032 -1.1821 -0.6194
 6323TIP3    H240529   2.683   1.287   0.850  0.7484  0.8661 -0.8476
 6324TIP3   OH240530   5.372   1.925   1.880  0.2334 -0.3179  0.0699
 6324TIP3    H140531   5.361   1.895   1.971  1.5831 -0.7659  0.1117
 6324TIP3    H240532   5.334   1.855   1.827 -0.4766 -0.0980  0.2802
 6325TIP3   OH240533   4.335   2.222   7.615 -0.3357  0.1140 -0.0099
 6325TIP3    H140534   4.373   2.181   7.537 -0.8042  0.9333 -0.6846
 6325TIP3    H240535   4.340   2.154   7.682  1.1484 -0.2154 -0.4258
 6326TIP3   OH240536   3.013   4.494   2.507 -0.6124  0.5394 -0.6538
 6326TIP3    H140537   2.996   4.448   2.589 -0.8871  0.2519 -0.8676
 6326TIP3    H240538   3.108   4.511   2.508 -0.5081 -0.0287 -0.5698
 6327TIP3   OH240539   3.929   1.257   0.012  0.0284  0.1366  0.4038
 6327TIP3    H140540   3.916   1.289  -0.078 -0.8357 -2.9089 -0.6877
 6327TIP3    H240541   3.938   1.336   0.064 -0.1764  2.0634 -2.2579
 6328TIP3   OH240542   3.094   6.538   2.170 -0.3909  0.0148 -0.4412
 6328TIP3    H140543   3.027   6.502   2.111 -0.7290 -0.8802  0.4524
 6328TIP3    H240544   3.105   6.628   2.141 -1.3640 -0.0748 -1.1545
 6329TIP3   OH240545   3.049   4.342   7.433 -0.0545 -0.0151 -0.2096
 6329TIP3    H140546   2.996   4.391   7.495 -1.0107  1.1263 -1.8447
 6329TIP3    H240547   3.029   4.381   7.348 -0.7207 -3.0697 -1.6049
 6330TIP3   OH240548   0.086   2.389   2.663  0.3873 -0.2278 -0.1813
 6330TIP3    H140549   0.141   2.412   2.588 -0.1738  0.8541 -0.2867
 6330TIP3    H240550   0.084   2.293   2.663 -0.8025 -0.2941 -2.4926
 6331TIP3   OH240551   4.236   0.569   8.692  0.6217 -0.2111 -0.1322
 6331TIP3    H140552   4.189   0.502   8.741  0.9931 -1.8835 -1.9265
 6331TIP3    H240553   4.274   0.626   8.759 -1.5724 -0.4537  1.4049
 6332TIP3   OH240554   5.563   5.467   6.872  0.1027  0.1797  0.1438
 6332TIP3    H140555   5.543   5.502   6.785  1.3755  1.5320  0.3447
 6332TIP3    H240556   5.653   5.435   6.864  0.0792 -0.0653  0.8533
 6333TIP3   OH240557   3.638   4.900   2.143  0.3943 -0.5048  0.2786
 6333TIP3    H140558   3.659   4.820   2.096  1.2992 -0.1186  0.0194
 6333TIP3    H240559   3.704   4.906   2.212 -1.7523 -1.8762  2.6795
 6334TIP3   OH240560   4.027   6.138   0.580  0.1621  0.5103  0.6498
 6334TIP3    H140561   4.092   6.206   0.562  0.2922  0.7595  1.9463
 6334TIP3    H240562   4.064   6.089   0.653 -0.1950 -0.6126  0.1016
 6335TIP3   OH240563   0.727   5.058   8.707  0.3181  0.2672 -0.0351
 6335TIP3    H140564   0.808   5.014   8.733 -0.7479 -1.8700 -0.0397
 6335TIP3    H240565   0.741   5.150   8.729  3.0059  0.1137 -0.7316
 6336TIP3   OH240566   4.171   1.192   0.976  0.5326  0.2662 -0.0618
 6336TIP3    H140567   4.085   1.231   0.960  0.4068 -0.2863 -0.7568
 6336TIP3    H240568   4.159   1.099   0.957  1.9099  0.5445 -2.6579
 6337TIP3   OH240569   2.155   2.912   8.648  0.1355 -0.4314 -0.4087
 6337TIP3    H140570   2.250   2.905   8.638 -0.0655 -1.5864 -1.9988
 6337TIP3    H240571   2.121   2.894   8.560 -1.5763 -0.7554  0.2923
 6338TIP3   OH240572   6.449   2.179   1.345 -0.1947  0.0071  0.3195
 6338TIP3    H140573   6.395   2.257   1.340 -0.7454 -0.4286 -1.1005
 6338TIP3    H240574   6.413   2.120   1.279  3.1696  0.4318 -2.1697
 6339TIP3   OH240575   1.869   4.244   1.818  0.1983 -0.3481  0.1887
 6339TIP3    H140576   1.928   4.218   1.748  1.0803 -0.5506  0.9848
 6339TIP3    H240577   1.875   4.173   1.882 -1.3903 -0.6792  0.0197
 6340TIP3   OH240578   1.667   6.225   0.411 -0.4443  0.2182  0.7105
 6340TIP3    H140579   1.714   6.209   0.493  1.4502  1.2724 -0.0996
 6340TIP3    H240580   1.622   6.308   0.426 -1.6798 -0.5305  1.3045
 6341TIP3   OH240581   6.456   6.120   0.784 -0.2642  0.2444  0.7049
 6341TIP3    H140582   6.363   6.103   0.767 -0.0921  0.4019 -0.5303
 6341TIP3    H240583   6.459   6.212   0.812 -0.4488  0.3620  0.3508
 6342TIP3   OH240584   3.005   1.072   1.420 -0.0541  0.7903 -0.3399
 6342TIP3    H140585   3.089   1.033   1.397  0.7096  1.5211  1.0385
 6342TIP3    H240586   3.000   1.063   1.515 -2.5181 -1.0978 -0.5447
 6343TIP3   OH240587   1.119   0.645   7.035 -0.0631  0.2778 -0.5111
 6343TIP3    H140588   1.182   0.652   7.107  1.7581  1.7397 -2.1144
 6343TIP3    H240589   1.141   0.562   6.992  0.3525  0.4611 -0.6626
 6344TIP3   OH240590   0.514   1.594   0.494 -0.7093  0.3837 -0.0710
 6344TIP3    H140591   0.575   1.549   0.552  0.3848  0.1980 -1.3225
 6344TIP3    H240592   0.504   1.681   0.531  0.0793  0.3161  0.3061
 6345TIP3   OH240593   0.289   0.701   8.301  0.1447 -0.1387  0.4576
 6345TIP3    H140594   0.352   0.753   8.250  0.4151  0.4181  1.3360
 6345TIP3    H240595   0.244   0.766   8.355 -1.6860 -0.4244 -0.6394
 6346TIP3   OH240596   0.726   1.850   1.155 -0.3269  0.2262 -0.0560
 6346TIP3    H140597   0.746   1.833   1.063  0.8065  1.0413  0.0199
 6346TIP3    H240598   0.718   1.763   1.194  0.8197 -0.1402 -0.5975
 6347TIP3   OH240599   0.195   5.754   7.735 -0.7198  0.1985  0.3937
 6347TIP3    H140600   0.273   5.726   7.686 -0.0018  0.3037  1.4381
 6347TIP3    H240601   0.172   5.839   7.697  0.3247  0.6649  0.7564
 6348TIP3   OH240602   4.818   0.802   7.840  1.1482  0.1195  0.1840
 6348TIP3    H140603   4.861   0.718   7.857 -0.7152 -0.8206  0.5943
 6348TIP3    H240604   4.749   0.781   7.777  1.2547  1.5612 -0.4588
 6349TIP3   OH240605   0.525   3.742   8.241 -0.3881 -0.3255 -0.4824
 6349TIP3    H140606   0.492   3.831   8.239  0.5613  0.1127  1.1464
 6349TIP3    H240607   0.485   3.699   8.165 -1.2608  1.3243 -0.9962
 6350TIP3   OH240608   4.073   0.307   7.722  0.4351  0.0304 -0.4074
 6350TIP3    H140609   4.101   0.292   7.632  1.8342 -0.4894  0.0893
 6350TIP3    H240610   4.141   0.364   7.759 -0.1831  0.3276  0.2883
 6351TIP3   OH240611   5.658   0.854   7.743 -0.9606 -0.3979 -0.0220
 6351TIP3    H140612   5.584   0.863   7.802 -0.0149  0.3919  1.0991
 6351TIP3    H240613   5.619   0.845   7.656 -2.4353 -2.7973  0.7759
 6352TIP3   OH240614   5.892   6.207   1.630 -0.3672 -0.7699  0.1873
 6352TIP3    H140615   5.907   6.113   1.617  2.4274 -0.1387 -2.0774
 6352TIP3    H240616   5.950   6.230   1.702 -0.8351 -0.6862  0.5462
 6353TIP3   OH240617   4.491   4.102   0.995 -1.0584 -0.7243 -0.3374
 6353TIP3    H140618   4.495   4.040   0.922 -0.3387 -0.8017 -0.2386
 6353TIP3    H240619   4.489   4.188   0.953  1.2097 -0.6775 -0.4604
 6354TIP3   OH240620   4.580   3.400   8.475  0.1615 -0.2941 -0.6477
 6354TIP3    H140621   4.667   3.364   8.491  0.2083  0.3606  0.6868
 6354TIP3    H240622   4.520   3.327   8.491  0.4777 -1.1125 -2.8064
 6355TIP3   OH240623   5.768   3.389   8.387  0.4470 -0.6712  0.2078
 6355TIP3    H140624   5.833   3.418   8.323  0.2927 -0.4655  0.1445
 6355TIP3    H240625   5.684   3.400   8.342  0.2768  0.2429  0.7312
 6356TIP3   OH240626   0.225   4.480   8.606 -0.6877 -0.0181  0.4337
 6356TIP3    H140627   0.272   4.432   8.674  0.2235  0.9483  0.5039
 6356TIP3    H240628   0.200   4.563   8.647  0.4812  0.8794 -0.5833
 6357TIP3   OH240629   2.482   4.402   7.278  0.0366 -0.0590  0.0593
 6357TIP3    H140630   2.577   4.419   7.280  0.4322 -2.0020  0.7379
 6357TIP3    H240631   2.473   4.325   7.222 -1.1345  0.0231  0.1157
 6358TIP3   OH240632   2.014   0.678   8.712 -0.3353  0.2760 -0.4503
 6358TIP3    H140633   1.982   0.612   8.773  0.1038  0.0649 -0.4466
 6358TIP3    H240634   2.071   0.630   8.652 -0.5989  0.5175 -0.9030
 6359TIP3   OH240635   4.442   6.655   0.441 -0.3267  0.3076 -0.6498
 6359TIP3    H140636   4.367   6.643   0.498 -0.1315 -1.9760 -0.8002
 6359TIP3    H240637   4.517   6.627   0.494  0.2855  1.2985 -0.9514
 6360TIP3   OH240638   1.903   1.144   8.508 -0.6618  0.6016 -0.0629
 6360TIP3    H140639   1.869   1.205   8.573 -1.2257 -0.3365  0.5395
 6360TIP3    H240640   1.983   1.109   8.548 -1.1474 -0.1691  0.2515
 6361TIP3   OH240641   4.930   1.517   0.521  0.7124 -0.2737  0.5911
 6361TIP3    H140642   4.936   1.578   0.447  1.1966 -1.2062 -0.1542
 6361TIP3    H240643   4.966   1.566   0.595  0.5483  0.5518  0.1396
 6362TIP3   OH240644   4.938   4.319   1.990 -0.0891  0.7194 -0.0992
 6362TIP3    H140645   4.927   4.409   1.958  0.3113  0.6301 -0.4984
 6362TIP3    H240646   4.863   4.305   2.048 -0.3784  1.1692 -0.3562
 6363TIP3   OH240647   2.393   3.383   2.454 -0.8365  0.3207 -0.0149
 6363TIP3    H140648   2.353   3.320   2.513  0.9814 -1.0464 -0.1303
 6363TIP3    H240649   2.475   3.408   2.498  0.2426 -0.2367 -1.6096
 6364TIP3   OH240650   6.337   5.643   0.621  0.3613  0.1552  0.3593
 6364TIP3    H140651   6.406   5.592   0.663 -0.4178 -0.9805  0.3104
 6364TIP3    H240652   6.257   5.615   0.665 -0.1459  1.0132  0.0059
 6365TIP3   OH240653   3.005   1.263   7.492 -0.2080  0.2452 -0.2870
 6365TIP3    H140654   3.092   1.228   7.474  0.1766  1.0124 -0.0116
 6365TIP3    H240655   3.022   1.339   7.549 -1.1393 -0.2649  0.6989
 6366TIP3   OH240656   3.979   4.606   7.328 -0.1296 -0.3191 -0.0321
 6366TIP3    H140657   3.928   4.687   7.324  1.1075  0.5153  0.3570
 6366TIP3    H240658   3.933   4.552   7.392  0.6861  1.3583  2.1083
 6367TIP3   OH240659   2.995   4.628   8.102  0.6274  0.2536 -0.0478
 6367TIP3    H140660   2.926   4.663   8.158 -0.2800 -1.4185 -0.0676
 6367TIP3    H240661   3.072   4.623   8.158 -0.3602 -1.7723  1.2626
 6368TIP3   OH240662   1.454   5.109   1.807 -0.3189 -0.2813  0.4126
 6368TIP3    H140663   1.548   5.093   1.814  0.0293  1.4224 -0.1542
 6368TIP3    H240664   1.432   5.158   1.887 -0.6188 -0.1828  0.2720
 6369TIP3   OH240665   5.350   5.819   8.750 -0.2291  0.0034 -0.2874
 6369TIP3    H140666   5.375   5.881   8.681  2.4889  0.1762  0.7313
 6369TIP3    H240667   5.309   5.746   8.704 -0.5911  1.1319 -1.8226
 6370TIP3   OH240668   1.126   1.409   8.774 -0.1182  0.2071 -0.5720
 6370TIP3    H140669   1.095   1.458   8.698  0.5495  0.1670 -0.8707
 6370TIP3    H240670   1.094   1.319   8.759 -0.0571  0.2166 -0.7599
 6371TIP3   OH240671   4.334   4.346   0.946 -0.1733 -0.7709 -0.4582
 6371TIP3    H140672   4.331   4.423   1.002  0.2621  0.0840 -1.5743
 6371TIP3    H240673   4.246   4.339   0.908  0.0982 -0.1269 -1.2385
 6372TIP3   OH240674   6.079   6.253   7.099  0.3754  0.2620 -0.0335
 6372TIP3    H140675   6.107   6.206   7.020 -0.3283 -1.4213  0.6539
 6372TIP3    H240676   6.104   6.194   7.171 -2.5578 -0.1835  0.7580
 6373TIP3   OH240677   0.186   2.444   8.492 -0.4068 -0.2895 -0.6522
 6373TIP3    H140678   0.159   2.359   8.528 -1.0363 -0.6294 -1.8631
 6373TIP3    H240679   0.280   2.436   8.480 -0.1310 -0.0693  1.1130
 6374TIP3   OH240680   2.323   0.967   2.797 -0.3901 -0.5417 -0.0327
 6374TIP3    H140681   2.371   1.016   2.731  1.1683 -0.6263  0.9939
 6374TIP3    H240682   2.299   1.032   2.863 -2.2932 -0.3789 -0.8129
 6375TIP3   OH240683   5.248   5.985   7.262 -0.4557 -0.2053 -0.2977
 6375TIP3    H140684   5.312   5.958   7.196 -0.9997 -1.2118 -0.4336
 6375TIP3    H240685   5.226   6.075   7.239  2.0407  0.7333  0.6620
 6376TIP3   OH240686   5.686   0.119   0.942 -0.7876 -0.4974 -0.1324
 6376TIP3    H140687   5.699   0.104   0.849 -1.9978  1.0880 -0.5957
 6376TIP3    H240688   5.713   0.210   0.956  1.1913 -1.2702  1.4638
 6377TIP3   OH240689   3.849   6.022   2.528 -0.2641 -0.3345 -0.1243
 6377TIP3    H140690   3.827   6.102   2.577  2.0136  0.4190 -0.1823
 6377TIP3    H240691   3.892   5.966   2.592  0.2926 -0.4873 -0.6212
 6378TIP3   OH240692   4.893   1.036   7.730 -0.3155 -0.1672  0.0112
 6378TIP3    H140693   4.879   0.955   7.779 -1.8023 -1.5039 -2.4242
 6378TIP3    H240694   4.805   1.064   7.705  0.3667 -0.0927 -2.5918
 6379TIP3   OH240695   6.429   5.738   8.388  0.5500  0.5775 -0.1810
 6379TIP3    H140696   6.459   5.655   8.424 -0.4690  0.6970  1.0099
 6379TIP3    H240697   6.429   5.798   8.462  1.6227  1.7647 -1.0966
 6380TIP3   OH240698   3.563   5.290   7.201  0.3974 -0.6095  0.3427
 6380TIP3    H140699   3.552   5.379   7.169  1.2832 -0.4194  0.5657
 6380TIP3    H240700   3.473   5.258   7.213  0.0446  0.8799  2.0558
 6381TIP3   OH240701   5.512   2.222   1.562 -0.3003 -0.3919  0.2484
 6381TIP3    H140702   5.461   2.203   1.640 -0.8174 -0.2927 -0.0573
 6381TIP3    H240703   5.447   2.246   1.496 -0.0838 -2.5351 -0.8341
 6382TIP3   OH240704   6.044   2.157   1.237  0.2021  0.3438 -0.3563
 6382TIP3    H140705   5.990   2.202   1.170 -0.3766 -0.1259 -0.2136
 6382TIP3    H240706   6.041   2.065   1.212  0.5436  0.2521 -0.0599
 6383TIP3   OH240707   6.238   2.805   8.765  0.0038  0.0915  0.2882
 6383TIP3    H140708   6.285   2.828   8.845  0.3057 -2.7236  1.0449
 6383TIP3    H240709   6.163   2.754   8.796 -0.0485 -0.7896 -1.2012
 6384TIP3   OH240710   1.328   6.681   1.950 -0.6626  0.1686  0.2231
 6384TIP3    H140711   1.366   6.752   2.001 -1.2400 -0.1110  1.0701
 6384TIP3    H240712   1.282   6.627   2.015 -1.2057 -0.3351 -0.5622
 6385TIP3   OH240713   1.042   5.655   8.246 -0.0906  0.2156  0.9763
 6385TIP3    H140714   1.020   5.562   8.247 -0.3036  0.2559  0.5378
 6385TIP3    H240715   1.005   5.690   8.326  1.4069 -0.3867  1.9773
 6386TIP3   OH240716   2.576   0.430   1.311  0.2089 -0.1953  0.2735
 6386TIP3    H140717   2.583   0.524   1.295 -3.1688  0.0478 -0.4993
 6386TIP3    H240718   2.502   0.402   1.257  0.6950 -3.1925  0.9959
 6387TIP3   OH240719   3.657   1.780   2.557 -0.0203  0.2783 -0.0470
 6387TIP3    H140720   3.590   1.713   2.570 -0.6729  1.2873  2.4744
 6387TIP3    H240721   3.740   1.733   2.565 -0.4571 -0.1862  2.7916
 6388TIP3   OH240722   1.170   3.481   7.211 -0.0394 -0.3334  0.2010
 6388TIP3    H140723   1.247   3.490   7.155 -0.5108 -0.8022 -0.5337
 6388TIP3    H240724   1.197   3.420   7.279  0.4628  0.0608  0.3646
 6389TIP3   OH240725   4.222   0.615   1.892 -0.3982 -0.1675 -0.3374
 6389TIP3    H140726   4.220   0.576   1.980  1.1083  0.5573  0.0413
 6389TIP3    H240727   4.137   0.659   1.884 -0.7421 -0.6406  0.5591
 6390TIP3   OH240728   0.080   6.554   8.440 -0.0286 -0.1033 -0.4590
 6390TIP3    H140729   0.047   6.570   8.352  0.6985  0.0422 -0.7142
 6390TIP3    H240730   0.158   6.609   8.446  1.3820 -2.0130 -0.6210
 6391TIP3   OH240731   1.566   2.580   1.822 -0.2530 -0.5458  0.0206
 6391TIP3    H140732   1.536   2.531   1.746 -0.3593 -0.4842  0.0222
 6391TIP3    H240733   1.495   2.571   1.886  0.2877 -1.4828  0.5121
 6392TIP3   OH240734   1.343   0.360   2.152  0.0550 -0.0368  0.8443
 6392TIP3    H140735   1.342   0.403   2.067 -1.4668 -0.7032  0.4899
 6392TIP3    H240736   1.433   0.371   2.183  0.3580  1.1622 -0.3479
 6393TIP3   OH240737   6.541   1.523   8.018 -0.1717  0.1452  0.0375
 6393TIP3    H140738   6.561   1.506   8.110  0.4689  0.4152 -0.0467
 6393TIP3    H240739   6.532   1.436   7.979  0.1875  0.0217  0.2240
 6394TIP3   OH240740   6.286   2.184   1.978 -0.0528  0.4665  0.4863
 6394TIP3    H140741   6.348   2.136   1.924 -0.2539  0.7595 -0.0081
 6394TIP3    H240742   6.323   2.180   2.066  0.3922  0.1840  0.2906
 6395TIP3   OH240743   4.775   2.632   8.441  0.4597 -0.6074 -0.3529
 6395TIP3    H140744   4.832   2.660   8.512  0.2884 -0.9769 -0.0611
 6395TIP3    H240745   4.777   2.536   8.447 -0.6369 -0.6199  0.0317
 6396TIP3   OH240746   0.389   4.884   1.956  0.0567  0.2603  0.2573
 6396TIP3    H140747   0.441   4.805   1.941  0.6445  0.7420 -0.3087
 6396TIP3    H240748   0.447   4.956   1.930 -1.2739  0.7800 -1.4615
 6397TIP3   OH240749   3.836   2.913   0.936 -0.6372  0.0871 -0.5729
 6397TIP3    H140750   3.841   2.818   0.941 -1.3953  0.0875  0.3407
 6397TIP3    H240751   3.817   2.942   1.025  0.4800  1.1677 -0.6442
 6398TIP3   OH240752   2.220   4.861   0.235  0.1518 -0.2545  0.4599
 6398TIP3    H140753   2.147   4.876   0.295 -0.9371  2.4241 -1.3759
 6398TIP3    H240754   2.287   4.923   0.263 -0.7591  1.7679 -1.5758
 6399TIP3   OH240755   1.442   3.043   1.147  0.1140 -0.5568 -0.3107
 6399TIP3    H140756   1.359   3.069   1.108  1.8385  1.0692 -3.2888
 6399TIP3    H240757   1.427   2.954   1.179 -2.1792 -1.1466 -2.7078
 6400TIP3   OH240758   5.034   4.965   1.586  0.4758 -0.6560 -0.2016
 6400TIP3    H140759   5.011   4.948   1.495 -0.9158  0.0113 -0.0122
 6400TIP3    H240760   4.962   4.925   1.636  1.9211 -2.2556  0.6991
 6401TIP3   OH240761   0.140   0.727   7.995  0.3512  0.2650 -0.1020
 6401TIP3    H140762   0.229   0.697   7.979  0.2999 -1.6801  2.6258
 6401TIP3    H240763   0.150   0.819   8.020  1.3928  0.4576 -1.1303
 6402TIP3   OH240764   4.197   2.510   1.831  0.1923 -0.2027 -0.1436
 6402TIP3    H140765   4.132   2.443   1.811  0.6334 -0.8773  0.6424
 6402TIP3    H240766   4.277   2.462   1.852  1.3962  0.6128 -2.4188
 6403TIP3   OH240767   5.413   1.540   1.684  0.2634  0.0166 -0.5024
 6403TIP3    H140768   5.341   1.602   1.691  0.5716  0.5237 -1.4994
 6403TIP3    H240769   5.492   1.595   1.679  0.6691 -0.5075  0.0334
 6404TIP3   OH240770   6.188   0.287   6.655  0.4691 -0.1171  0.7601
 6404TIP3    H140771   6.147   0.328   6.578  0.3817 -1.6757 -0.0600
 6404TIP3    H240772   6.281   0.307   6.645  0.7700 -1.9889 -0.9215
 6405TIP3   OH240773   4.644   5.959   0.570  0.2688  0.1597 -0.4598
 6405TIP3    H140774   4.662   6.052   0.580 -0.5893  0.3751 -0.7877
 6405TIP3    H240775   4.626   5.928   0.659 -1.4034  0.7593 -0.5389
 6406TIP3   OH240776   0.560   3.416   1.974  0.0350 -0.8043 -0.3490
 6406TIP3    H140777   0.643   3.449   2.009 -0.4399  3.1013 -2.3506
 6406TIP3    H240778   0.504   3.406   2.051  1.4013 -0.4162  0.7450
 6407TIP3   OH240779   5.817   3.252   6.892  0.1645  0.0093  0.3751
 6407TIP3    H140780   5.788   3.167   6.924  1.7912 -0.1429  1.5648
 6407TIP3    H240781   5.775   3.316   6.950  0.6472 -0.1062  0.8562
 6408TIP3   OH240782   3.910   5.420   1.661 -0.2511  0.5310 -0.0269
 6408TIP3    H140783   3.923   5.509   1.695  1.1044  0.4434 -0.2605
 6408TIP3    H240784   3.999   5.385   1.650 -0.5466  0.5252 -3.6142
 6409TIP3   OH240785   6.232   6.525   0.904  0.2007 -0.1527  0.3281
 6409TIP3    H140786   6.323   6.526   0.875  0.7484 -2.0533  1.8101
 6409TIP3    H240787   6.185   6.478   0.835  0.7064 -0.8809  0.4754
 6410TIP3   OH240788   4.276   0.564   7.257 -0.4822  0.3470  0.2212
 6410TIP3    H140789   4.182   0.573   7.245 -0.7185 -2.6406 -1.2857
 6410TIP3    H240790   4.313   0.588   7.172 -0.1654 -0.8945 -0.0126
 6411TIP3   OH240791   4.124   3.080   1.632  0.0827  0.0290 -0.4639
 6411TIP3    H140792   4.147   3.121   1.549  0.7168  2.7042  0.9218
 6411TIP3    H240793   4.203   3.032   1.657 -0.5553 -1.9137 -1.9510
 6412TIP3   OH240794   1.791   5.863   0.243 -0.0494 -0.0074 -0.7269
 6412TIP3    H140795   1.696   5.878   0.245 -0.1411  0.4666 -3.6605
 6412TIP3    H240796   1.829   5.947   0.269 -0.3800 -0.2403  0.6024
 6413TIP3   OH240797   3.096   6.432   3.175 -0.3778 -0.3567 -1.1007
 6413TIP3    H140798   3.101   6.501   3.110  1.7022 -0.7430 -1.4340
 6413TIP3    H240799   3.013   6.447   3.220 -0.0342  2.3103 -1.1946
 6414TIP3   OH240800   5.500   2.917   1.005 -0.6499 -0.7771 -0.0988
 6414TIP3    H140801   5.479   3.009   0.988 -0.5932 -0.2963  2.0941
 6414TIP3    H240802   5.595   2.913   1.002 -0.6855 -0.9842 -1.1299
 6415TIP3   OH240803   4.454   0.936   2.611  0.6292  0.2394 -0.1690
 6415TIP3    H140804   4.450   1.031   2.614  0.8962  0.2370  0.2626
 6415TIP3    H240805   4.365   0.907   2.635  0.5049  0.3785 -0.4535
 6416TIP3   OH240806   3.061   0.419   8.252 -0.1871  0.8389  0.0507
 6416TIP3    H140807   3.051   0.480   8.326 -0.3966 -1.0204  1.6271
 6416TIP3    H240808   2.972   0.406   8.220 -0.3340  0.1786  0.7173
 6417TIP3   OH240809   5.179   2.801   2.126 -0.5003  0.3703  0.0219
 6417TIP3    H140810   5.232   2.721   2.130  1.0808  1.3751  0.2646
 6417TIP3    H240811   5.212   2.854   2.198 -0.9954  1.5383 -0.5873
 6418TIP3   OH240812   4.420   4.160   0.547 -0.1689  0.0627 -0.8298
 6418TIP3    H140813   4.332   4.155   0.585  0.8559 -0.5157  1.6329
 6418TIP3    H240814   4.408   4.130   0.457 -2.3544 -0.9444 -0.2821
 6419TIP3   OH240815   0.587   1.955   0.918  0.1526 -0.3951 -0.1365
 6419TIP3    H140816   0.594   2.032   0.973 -1.8038 -1.4577  1.7411
 6419TIP3    H240817   0.512   1.971   0.861 -0.1340 -0.8074  0.1162
 6420TIP3   OH240818   1.574   2.961   1.526 -0.2490  0.1001 -0.6155
 6420TIP3    H140819   1.633   2.915   1.587  0.5849  1.3598 -0.4452
 6420TIP3    H240820   1.531   2.890   1.478  0.6370 -0.8810 -0.0257
 6421TIP3   OH240821   6.290   6.535   7.539  0.1976  0.3107 -0.5183
 6421TIP3    H140822   6.250   6.539   7.453  0.1311  0.9576 -0.4644
 6421TIP3    H240823   6.384   6.533   7.522  0.3288  3.1360 -0.5994
 6422TIP3   OH240824   6.408   2.754   7.350 -0.0612  0.7580 -0.1454
 6422TIP3    H140825   6.447   2.667   7.363 -2.7880 -0.5265  0.2539
 6422TIP3    H240826   6.446   2.808   7.418  0.1162 -0.7368  0.9902
 6423TIP3   OH240827   3.443   4.056   1.468 -0.7946  0.2453  0.3235
 6423TIP3    H140828   3.458   3.963   1.480  2.4242  0.7321  0.8536
 6423TIP3    H240829   3.389   4.082   1.542 -1.0305 -1.0212  0.6151
 6424TIP3   OH240830   3.814   0.052   8.412  0.2266  0.0754 -0.1818
 6424TIP3    H140831   3.762   0.056   8.493  1.2304 -1.4541  0.5734
 6424TIP3    H240832   3.806  -0.038   8.383  1.1637  0.2276 -0.9327
 6425TIP3   OH240833   1.171   6.166   8.228  0.2369 -0.2742 -0.4545
 6425TIP3    H140834   1.180   6.071   8.239  1.2850 -0.2742 -1.1487
 6425TIP3    H240835   1.178   6.201   8.316  0.8275 -0.7805 -0.2937
 6426TIP3   OH240836   3.037   0.284   2.173 -0.2475 -0.0696 -0.0398
 6426TIP3    H140837   3.023   0.374   2.202  5.6401  1.5842 -1.0509
 6426TIP3    H240838   3.000   0.281   2.085  0.3289  1.7659 -0.3857
 6427TIP3   OH240839   5.134   0.256   7.257  0.3354  0.8673 -0.1882
 6427TIP3    H140840   5.112   0.249   7.164  2.0269  0.9452 -0.6187
 6427TIP3    H240841   5.220   0.298   7.258  0.3721  0.7866  1.4135
 6428TIP3   OH240842   0.420   3.228   8.635  1.0442  0.1143  0.3938
 6428TIP3    H140843   0.453   3.295   8.575 -2.0764  0.4560 -1.1495
 6428TIP3    H240844   0.337   3.201   8.598  0.3480 -1.8743  3.0502
 6429TIP3   OH240845   4.554   2.005   2.719  1.1533  0.3607  0.0239
 6429TIP3    H140846   4.650   2.000   2.725  1.1610 -0.3441 -0.5845
 6429TIP3    H240847   4.522   1.941   2.782  1.0605  1.2064  0.8519
 6430TIP3   OH240848   4.415   1.548   2.846  0.1219  0.2086  0.3241
 6430TIP3    H140849   4.330   1.580   2.817  1.3810  1.2616 -2.5593
 6430TIP3    H240850   4.401   1.455   2.865 -1.4099  0.0701 -1.3089
 6431TIP3   OH240851   2.288   2.485   2.496 -0.3243  0.2359 -0.0863
 6431TIP3    H140852   2.303   2.409   2.440  0.0011 -0.2191  0.5985
 6431TIP3    H240853   2.328   2.461   2.580  0.9387  1.6547 -0.2311
 6432TIP3   OH240854   5.823   2.822   7.869 -0.2178 -0.1093 -0.1694
 6432TIP3    H140855   5.842   2.854   7.781  0.0680  0.4577  0.0895
 6432TIP3    H240856   5.888   2.866   7.924 -2.1764  1.8047  0.7574
 6433TIP3   OH240857   0.119   6.455   1.756  0.0976  0.1831 -0.2473
 6433TIP3    H140858   0.102   6.545   1.783  0.1254 -0.2643  1.3656
 6433TIP3    H240859   0.050   6.404   1.797 -0.0778 -0.5139 -1.3699
 6434TIP3   OH240860   6.798   2.741   0.597  0.1172 -0.1353  0.4340
 6434TIP3    H140861   6.772   2.714   0.685  2.5653 -0.5064  1.1279
 6434TIP3    H240862   6.843   2.665   0.561 -0.9091 -0.0092 -1.2112
 6435TIP3   OH240863   6.528   1.520   2.133  0.2335 -0.2492 -0.1378
 6435TIP3    H140864   6.523   1.456   2.203  1.4128  0.1518  0.3342
 6435TIP3    H240865   6.568   1.597   2.173  0.3313  0.2180 -1.0935
 6436TIP3   OH240866   2.534   6.428   7.273 -0.6067  0.6096  0.6535
 6436TIP3    H140867   2.486   6.360   7.319 -1.2620  1.0091  0.5797
 6436TIP3    H240868   2.558   6.491   7.342 -2.2781  1.6081  0.3700
 6437TIP3   OH240869   0.050   4.415   8.209 -0.2645  0.3016 -0.3784
 6437TIP3    H140870  -0.041   4.386   8.214 -0.6808  1.5332 -0.5017
 6437TIP3    H240871   0.052   4.475   8.134  0.3637  1.2470  0.3615
 6438TIP3   OH240872   3.840   5.517   2.777  0.1637  0.5531 -0.3683
 6438TIP3    H140873   3.813   5.504   2.686 -0.6948  0.1660 -0.0701
 6438TIP3    H240874   3.777   5.466   2.828  0.5116  0.9358  0.4587
 6439TIP3   OH240875   4.616   1.657   7.099  0.0812  0.4667 -0.5262
 6439TIP3    H140876   4.525   1.678   7.119 -0.4386 -0.4075 -1.7925
 6439TIP3    H240877   4.610   1.588   7.032  1.6745 -0.1835 -0.0444
 6440TIP3   OH240878   4.180   0.104   0.117 -0.6960  0.3939 -0.7507
 6440TIP3    H140879   4.116   0.046   0.077  0.8362 -0.0193 -2.7710
 6440TIP3    H240880   4.263   0.056   0.111  0.1363  1.6520  0.1061
 6441TIP3   OH240881   6.581   5.559   8.553  0.3590  0.8169  0.1337
 6441TIP3    H140882   6.666   5.523   8.578 -0.2707 -1.6354 -0.9095
 6441TIP3    H240883   6.578   5.645   8.595  2.7432  0.3880  1.3753
 6442TIP3   OH240884   2.321   6.215   8.565 -0.5925 -0.0036 -0.5297
 6442TIP3    H140885   2.394   6.240   8.508 -1.8803  2.6886 -1.1794
 6442TIP3    H240886   2.271   6.152   8.514  0.2721 -0.4467 -0.8396
 6443TIP3   OH240887   2.315   4.612   1.023 -0.1199  0.3576  0.1810
 6443TIP3    H140888   2.249   4.676   0.995  0.9153  1.5027  0.2570
 6443TIP3    H240889   2.326   4.554   0.947 -2.0671 -0.6349  0.5853
 6444TIP3   OH240890   1.963   6.770   1.704 -0.0559  0.1726  0.4963
 6444TIP3    H140891   2.045   6.743   1.745 -1.0286 -0.6367  2.0070
 6444TIP3    H240892   1.914   6.813   1.774 -0.4936  1.6332 -0.6682
 6445TIP3   OH240893   0.125   4.125   8.576  0.2216 -0.0641 -0.0480
 6445TIP3    H140894   0.083   4.208   8.600  0.6322 -0.4728  2.2970
 6445TIP3    H240895   0.155   4.139   8.486  1.4008  2.8295  0.6870
 6446TIP3   OH240896   5.743   1.566   1.807  0.1791 -0.6113 -0.4065
 6446TIP3    H140897   5.742   1.657   1.838 -0.4166 -0.1704 -1.6330
 6446TIP3    H240898   5.722   1.573   1.714 -1.7701 -2.1616 -0.1475
 6447TIP3   OH240899   0.684   4.594   7.617 -0.6109 -0.2351 -0.4950
 6447TIP3    H140900   0.686   4.536   7.693  1.2529  1.7953  1.1172
 6447TIP3    H240901   0.768   4.639   7.618 -0.9610  0.6784 -3.1613
 6448TIP3   OH240902   4.803   3.852   2.039 -0.1864  0.3927  0.4501
 6448TIP3    H140903   4.714   3.839   2.070 -0.2351 -0.6711 -0.0890
 6448TIP3    H240904   4.803   3.818   1.950  0.9411 -0.3640  0.7147
 6449TIP3   OH240905   4.012   1.347   6.639  0.3133  0.1490  0.6119
 6449TIP3    H140906   4.072   1.284   6.600 -2.1786 -2.2207  0.3648
 6449TIP3    H240907   3.927   1.305   6.637 -0.8192  1.7609  4.3690
 6450TIP3   OH240908   0.184   5.041   1.229  0.2306 -0.1010 -0.2347
 6450TIP3    H140909   0.161   5.125   1.189  2.2634  0.6646  0.0903
 6450TIP3    H240910   0.101   4.994   1.235 -0.7793  1.4078 -1.5066
 6451TIP3   OH240911   1.687   2.559   2.732 -0.3961  0.0354 -0.0925
 6451TIP3    H140912   1.610   2.503   2.735  0.1233 -1.0658 -3.3965
 6451TIP3    H240913   1.651   2.648   2.729 -1.2955 -0.1369  2.3584
 6452TIP3   OH240914   6.609   2.950   7.173  0.4360  0.4267 -0.5215
 6452TIP3    H140915   6.537   2.902   7.130  1.1179 -0.7853 -0.3353
 6452TIP3    H240916   6.584   3.042   7.164 -0.5591  0.0877 -1.5181
 6453TIP3   OH240917   2.976   0.175   7.973 -0.0518 -0.3359 -0.2039
 6453TIP3    H140918   3.007   0.260   8.005 -0.2589  0.2810 -1.5602
 6453TIP3    H240919   2.881   0.185   7.967  0.0155 -0.2033 -1.5168
 6454TIP3   OH240920   4.389   1.959   8.565  0.3848 -0.3824 -0.1632
 6454TIP3    H140921   4.432   1.888   8.612  0.8398 -0.4620 -0.6907
 6454TIP3    H240922   4.460   2.003   8.518  0.1149  0.4494  0.1862
 6455TIP3   OH240923   1.943   4.222   0.331 -0.0574  0.2966 -0.0379
 6455TIP3    H140924   1.954   4.285   0.403  1.3172  0.5973 -0.4655
 6455TIP3    H240925   2.032   4.189   0.316 -0.7721 -1.9570  0.3321
 6456TIP3   OH240926   0.776   1.440   7.883  0.2906 -0.2626  0.4061
 6456TIP3    H140927   0.711   1.458   7.952 -2.2548  1.0591 -2.1285
 6456TIP3    H240928   0.846   1.503   7.900 -0.5804  0.4804  1.4153
 6457TIP3   OH240929   1.229   4.702   1.640 -0.1691 -0.2188  0.7087
 6457TIP3    H140930   1.145   4.677   1.602 -0.1887  1.9222 -0.7615
 6457TIP3    H240931   1.213   4.700   1.735 -1.1828 -2.0016  0.5557
 6458TIP3   OH240932   1.810   1.266   2.089  0.3165  0.5208  0.0939
 6458TIP3    H140933   1.722   1.265   2.052 -0.0850 -1.6050  0.9813
 6458TIP3    H240934   1.801   1.224   2.174  2.0425  1.0561  0.5764
 6459TIP3   OH240935   6.683   3.050   7.431  0.1174 -0.0479  0.3396
 6459TIP3    H140936   6.611   3.106   7.462  0.4395  1.0065 -0.7738
 6459TIP3    H240937   6.644   2.999   7.360  0.1720 -0.3074  0.4956
 6460TIP3   OH240938   5.492   4.201   2.914  0.1783  0.3252  0.2320
 6460TIP3    H140939   5.568   4.153   2.947  0.2941 -2.1548 -3.1214
 6460TIP3    H240940   5.523   4.240   2.832 -1.6443  0.9340 -0.2061
 6461TIP3   OH240941   0.527   1.846   0.613  0.2923  0.3110  0.5349
 6461TIP3    H140942   0.469   1.920   0.633  0.8045  0.7200  0.5194
 6461TIP3    H240943   0.615   1.882   0.621  0.5305  0.1223 -1.0698
 6462TIP3   OH240944   5.783   0.450   8.251 -0.4018 -0.2640 -0.2002
 6462TIP3    H140945   5.744   0.528   8.290 -0.0044 -0.5488  0.8122
 6462TIP3    H240946   5.780   0.466   8.157  0.1576  1.2122  0.0037
 6463TIP3   OH240947   6.503   6.481   1.766  0.1013  0.0130 -0.2623
 6463TIP3    H140948   6.515   6.545   1.695  0.7022 -0.5481 -0.6817
 6463TIP3    H240949   6.507   6.396   1.722 -0.1208 -0.3276  0.3707
 6464TIP3   OH240950   3.378   2.842   1.567 -0.5668 -0.0202  0.2688
 6464TIP3    H140951   3.445   2.858   1.501 -0.3284 -2.4585 -0.1675
 6464TIP3    H240952   3.424   2.847   1.651  0.0911 -1.1416 -0.0035
 6465TIP3   OH240953   6.282   3.270   7.672 -0.1197  0.5257 -0.2365
 6465TIP3    H140954   6.211   3.229   7.722  0.4463  0.7205  0.7621
 6465TIP3    H240955   6.238   3.319   7.604 -0.9861  1.0609  0.6780
 6466TIP3   OH240956   1.422   1.137   0.145 -0.3021  0.4130 -0.5756
 6466TIP3    H140957   1.340   1.176   0.174  0.5536  0.3632  2.1282
 6466TIP3    H240958   1.460   1.202   0.085 -0.3139  2.4398  1.5114
 6467TIP3   OH240959   0.059   2.097   3.357  0.5085 -0.7672 -0.2236
 6467TIP3    H140960   0.092   2.182   3.327  0.7327 -1.1065 -0.9385
 6467TIP3    H240961   0.042   2.110   3.450  0.9643 -0.0677 -0.2321
 6468TIP3   OH240962   2.121   4.581   8.371 -0.2770 -0.6247 -0.7140
 6468TIP3    H140963   2.162   4.611   8.452  1.5199 -0.1739 -1.7383
 6468TIP3    H240964   2.193   4.573   8.309 -1.7805  0.4693 -2.7046
 6469TIP3   OH240965   4.120   1.767   1.213  0.0658 -0.3433  0.3937
 6469TIP3    H140966   4.130   1.701   1.145 -0.2564 -0.8726  0.8542
 6469TIP3    H240967   4.052   1.826   1.181 -2.6973 -2.5621  1.7377
 6470TIP3   OH240968   1.751   5.425   1.036 -0.0961  1.0171  0.0201
 6470TIP3    H140969   1.693   5.359   1.075 -0.7479  1.2763 -0.5097
 6470TIP3    H240970   1.738   5.416   0.942  1.1496  0.6954 -0.1414
 6471TIP3   OH240971   5.850   5.732   1.757  0.5421 -0.9968  0.0301
 6471TIP3    H140972   5.802   5.751   1.838  0.4023  0.3868 -0.3474
 6471TIP3    H240973   5.794   5.671   1.709 -1.0288  0.7722 -0.5151
 6472TIP3   OH240974   4.683   0.231   2.382  0.9445  0.5478  0.0633
 6472TIP3    H140975   4.603   0.227   2.435  0.2559  1.1230 -0.8925
 6472TIP3    H240976   4.734   0.302   2.420  1.3144 -0.2529  1.0879
 6473TIP3   OH240977   0.138   1.950   1.975 -0.0531  0.1309  0.0712
 6473TIP3    H140978   0.186   2.031   1.957 -0.0585  0.1048 -0.0638
 6473TIP3    H240979   0.204   1.882   1.972 -0.1352  0.0638 -0.3661
 6474TIP3   OH240980   1.350   5.803   0.632 -0.7880 -0.3996  0.0554
 6474TIP3    H140981   1.415   5.858   0.588 -0.8763 -1.2506 -1.1910
 6474TIP3    H240982   1.369   5.715   0.602 -2.0037 -0.7737  0.3263
 6475TIP3   OH240983   0.617   3.436   2.845  0.3800  0.0429 -0.2086
 6475TIP3    H140984   0.663   3.517   2.864  1.1266 -0.7480  1.4676
 6475TIP3    H240985   0.528   3.451   2.877  0.4515  0.2892 -0.1254
 6476TIP3   OH240986   0.885   5.741   8.477  0.7623 -0.8565 -0.3326
 6476TIP3    H140987   0.801   5.708   8.446  0.8237 -1.5004  0.1513
 6476TIP3    H240988   0.884   5.724   8.572  0.8225  0.5062 -0.0760
 6477TIP3   OH240989   3.766   5.534   8.692  0.3616  0.1843  0.0342
 6477TIP3    H140990   3.784   5.560   8.601 -0.2863  0.9466  0.1137
 6477TIP3    H240991   3.852   5.511   8.727  1.3375  3.7800  0.4063
 6478TIP3   OH240992   0.603   0.282   1.707 -0.0108  0.0085  0.2918
 6478TIP3    H140993   0.671   0.259   1.771 -0.9164  0.8812  1.6210
 6478TIP3    H240994   0.554   0.201   1.694  0.2879 -0.2180  0.5512
 6479TIP3   OH240995   0.296   5.189   0.109 -0.2500  0.1432  0.1157
 6479TIP3    H140996   0.359   5.136   0.059 -0.8081 -0.4253  0.0022
 6479TIP3    H240997   0.288   5.144   0.193  0.9441  1.2843  0.8779
 6480TIP3   OH240998   5.764   2.072   0.748  0.2502 -0.5010 -0.2290
 6480TIP3    H140999   5.718   2.070   0.664 -0.4624 -1.8599  0.1740
 6480TIP3    H241000   5.780   1.980   0.769  0.5038 -0.1776  1.0838
 6481TIP3   OH241001   4.484   3.005   1.361  0.3674 -0.2317  0.2441
 6481TIP3    H141002   4.487   3.098   1.339 -0.1681 -0.0864  0.7737
 6481TIP3    H241003   4.538   2.963   1.293  0.0369  0.3816 -0.4118
 6482TIP3   OH241004   5.853   6.785   1.157  0.1429  0.3832 -0.1506
 6482TIP3    H141005   5.894   6.702   1.182  1.9000  1.4231  0.5443
 6482TIP3    H241006   5.869   6.792   1.063 -3.3165 -1.7832 -1.1097
 6483TIP3   OH241007   3.267   6.248   7.808 -0.1389 -0.5033 -0.0850
 6483TIP3    H141008   3.311   6.300   7.740 -1.4640  0.8390  0.0390
 6483TIP3    H241009   3.174   6.256   7.788 -0.4722 -1.2396  1.0904
 6484TIP3   OH241010   6.758   1.254   6.729 -0.1367 -0.3993  0.3405
 6484TIP3    H141011   6.714   1.263   6.644  2.4065  1.2327 -0.9503
 6484TIP3    H241012   6.710   1.314   6.787  0.2132  1.2667 -0.9842
 6485TIP3   OH241013   6.221   6.520   2.486  0.1501  0.0751  0.6517
 6485TIP3    H141014   6.302   6.488   2.524  1.5594  1.5567 -0.9291
 6485TIP3    H241015   6.157   6.450   2.501  1.6359 -1.0075  2.1694
 6486TIP3   OH241016   6.601   2.437   0.036  0.0535 -0.0132  0.3003
 6486TIP3    H141017   6.651   2.453  -0.044 -0.5034 -3.7640 -0.9830
 6486TIP3    H241018   6.669   2.428   0.104  1.0713 -2.6400 -0.9512
 6487TIP3   OH241019   2.235   0.494   8.586  0.0022 -0.2407  0.1700
 6487TIP3    H141020   2.284   0.472   8.507 -1.7578 -1.8186 -0.5536
 6487TIP3    H241021   2.202   0.410   8.618 -0.2554  0.5031  1.9757
 6488TIP3   OH241022   6.125   5.692   7.605  0.2324 -0.2943 -0.0636
 6488TIP3    H141023   6.090   5.682   7.693 -2.1996 -0.5543 -0.9717
 6488TIP3    H241024   6.137   5.787   7.595 -0.8978 -0.1168  0.0882
 6489TIP3   OH241025   3.523   4.978   1.112 -0.0050  0.2727  0.4337
 6489TIP3    H141026   3.605   5.022   1.137  1.2686 -0.8518 -1.4813
 6489TIP3    H241027   3.487   4.947   1.195  1.2082  1.2793  1.3889
 6490TIP3   OH241028   2.586   0.546   1.696 -0.1585  0.7119 -0.0034
 6490TIP3    H141029   2.548   0.465   1.661 -2.0270  1.8360 -0.7285
 6490TIP3    H241030   2.594   0.531   1.790 -1.1209 -0.0929 -0.0359
 6491TIP3   OH241031   3.703   0.513   7.319  0.4745 -0.3112  0.1224
 6491TIP3    H141032   3.658   0.576   7.376  0.6909 -0.7147  0.7574
 6491TIP3    H241033   3.645   0.503   7.244 -0.7247 -1.1425  1.1229
 6492TIP3   OH241034   5.305   4.032   0.965 -0.2483 -0.2198  0.8264
 6492TIP3    H141035   5.317   3.958   0.905  0.7488  1.2821 -0.9527
 6492TIP3    H241036   5.377   4.024   1.027  1.2068  0.4038 -0.6961
 6493TIP3   OH241037   4.159   5.131   6.754 -0.1479  0.5154  0.3431
 6493TIP3    H141038   4.077   5.165   6.791 -0.5657  0.4300 -0.4730
 6493TIP3    H241039   4.197   5.077   6.823 -2.5704 -2.4160 -0.4271
 6494TIP3   OH241040   4.539   0.459   7.879  0.2271  0.1136  0.1243
 6494TIP3    H141041   4.507   0.533   7.931 -0.1574 -0.0319  0.0962
 6494TIP3    H241042   4.479   0.387   7.899  0.6720 -0.2304  0.2450
 6495TIP3   OH241043   3.117   0.811   7.702 -0.5690 -0.2388 -0.1533
 6495TIP3    H141044   3.026   0.795   7.677 -0.5922 -0.8346  0.2939
 6495TIP3    H241045   3.168   0.784   7.627 -0.6806 -1.2977  0.1371
 6496TIP3   OH241046   5.598   2.733   1.803  0.1414 -0.7651  0.4854
 6496TIP3    H141047   5.689   2.762   1.795 -0.3054  0.4939 -0.1923
 6496TIP3    H241048   5.564   2.735   1.714 -1.1427  0.7992  0.9654
 6497TIP3   OH241049   6.043   5.742   6.906  0.2859  0.0074 -0.1846
 6497TIP3    H141050   6.085   5.773   6.826  1.3626 -0.5883  0.1308
 6497TIP3    H241051   5.960   5.789   6.909  0.6652  0.7747 -1.1355
 6498TIP3   OH241052   0.326   5.643   2.509 -0.0887 -0.2812  0.1860
 6498TIP3    H141053   0.344   5.714   2.571  0.1989 -0.3258  0.1521
 6498TIP3    H241054   0.230   5.639   2.506 -0.1229 -1.2788  1.7880
 6499TIP3   OH241055   3.542   0.153   0.956 -0.4835  0.0812  0.0397
 6499TIP3    H141056   3.504   0.219   0.898 -1.2450  0.0830  0.5192
 6499TIP3    H241057   3.476   0.140   1.024 -0.6118 -1.5988 -0.3513
 6500TIP3   OH241058   2.012   5.677   0.345 -0.2116 -0.2519  0.5905
 6500TIP3    H141059   2.074   5.749   0.339  0.1814 -0.5571  0.9615
 6500TIP3    H241060   1.941   5.702   0.286  0.6506 -0.2949 -0.5064
 6501TIP3   OH241061   1.774   3.694   7.633  0.0990  0.6075 -0.4314
 6501TIP3    H141062   1.832   3.658   7.701  0.2157 -1.0010 -1.3212
 6501TIP3    H241063   1.691   3.708   7.677  0.2061 -0.3096  0.1038
 6502TIP3   OH241064   0.009   5.337   1.851  0.8422 -0.2694  0.1494
 6502TIP3    H141065  -0.079   5.371   1.864  0.9137 -0.2043  0.4755
 6502TIP3    H241066   0.026   5.283   1.929  1.8759  1.3958  1.1499
 6503TIP3   OH241067   4.344   5.589   0.722  0.3717  0.3829 -0.1357
 6503TIP3    H141068   4.288   5.665   0.740  3.0113  2.2812  0.8014
 6503TIP3    H241069   4.421   5.626   0.678  1.3365 -1.9379 -0.5621
 6504TIP3   OH241070   6.675   2.087   2.367 -0.1995 -0.1991  0.0850
 6504TIP3    H141071   6.676   2.098   2.272 -1.1889 -1.5698 -0.1075
 6504TIP3    H241072   6.657   1.994   2.380 -1.0080  0.1499  1.6309
 6505TIP3   OH241073   0.104   2.817   7.735  0.4358  0.2690 -0.3288
 6505TIP3    H141074   0.095   2.784   7.825 -1.0993  1.6832  0.0882
 6505TIP3    H241075   0.192   2.791   7.709  0.4196 -1.3997  1.0648
 6506TIP3   OH241076   1.576   3.767   1.605  0.0962 -0.1924  0.8592
 6506TIP3    H141077   1.548   3.838   1.547 -0.5467  0.0523  1.4518
 6506TIP3    H241078   1.670   3.781   1.616  0.2919 -0.4566 -0.3966
 6507TIP3   OH241079   5.046   4.497   8.634  0.5708  0.5361 -0.0577
 6507TIP3    H141080   5.139   4.475   8.629  0.5887 -0.4361  2.7147
 6507TIP3    H241081   5.000   4.416   8.610  0.4779  0.5362  0.1156
 6508TIP3   OH241082   4.485   5.941   2.550  0.1806 -0.2537  0.2132
 6508TIP3    H141083   4.493   5.939   2.645  1.5741  0.9887  0.1646
 6508TIP3    H241084   4.569   5.977   2.520 -0.8546  0.9450 -1.3801
 6509TIP3   OH241085   5.095   2.966   0.467  0.8817  0.2184  0.4820
 6509TIP3    H141086   5.065   2.965   0.559  0.4971 -1.1192  0.3695
 6509TIP3    H241087   5.187   2.940   0.472  0.4430 -1.4673  0.3937
 6510TIP3   OH241088   4.919   6.114   0.938  0.2207  0.1939  0.1645
 6510TIP3    H141089   4.973   6.191   0.920  1.2465 -0.5515 -0.0402
 6510TIP3    H241090   4.940   6.053   0.868  0.1156 -0.6291  0.8355
 6511TIP3   OH241091   1.713   6.201   1.624 -0.4613  0.2434  0.3372
 6511TIP3    H141092   1.666   6.119   1.609 -0.1239 -0.1812  1.5218
 6511TIP3    H241093   1.796   6.190   1.578 -0.6061  0.1215  0.1017
 6512TIP3   OH241094   4.054   1.988   1.648  0.2831 -0.4282 -0.5668
 6512TIP3    H141095   4.000   1.976   1.570  0.1894  0.7309 -0.6994
 6512TIP3    H241096   4.132   2.033   1.616  0.1208  0.3010  0.0399
 6513TIP3   OH241097   0.492   5.179   8.215 -0.3355 -0.0901 -0.2111
 6513TIP3    H141098   0.548   5.133   8.278  0.2746 -0.8699 -1.2916
 6513TIP3    H241099   0.448   5.246   8.267 -0.3836 -1.1608  1.1820
 6514TIP3   OH241100   3.485   3.259   1.818  0.1515 -0.1220 -0.3397
 6514TIP3    H141101   3.507   3.352   1.822  2.2358 -0.6039  1.3079
 6514TIP3    H241102   3.570   3.214   1.822 -0.8802 -2.0961  0.7118
 6515TIP3   OH241103   5.486   4.055   1.464 -0.4416  0.2086  0.5358
 6515TIP3    H141104   5.537   3.988   1.510  0.9810  2.0294  1.7155
 6515TIP3    H241105   5.396   4.042   1.495 -0.0182 -0.4995  1.5209
 6516TIP3   OH241106   6.534   0.317   1.460 -0.3453 -0.5048 -0.0401
 6516TIP3    H141107   6.497   0.365   1.535 -0.8430 -1.2332  0.1856
 6516TIP3    H241108   6.600   0.377   1.424 -0.8389  0.2904  0.3360
 6517TIP3   OH241109   0.948   6.613   2.313 -0.3923  0.1147  0.3094
 6517TIP3    H141110   1.003   6.685   2.343 -0.9682  0.2862  0.9773
 6517TIP3    H241111   0.998   6.534   2.333  1.3242  0.3133 -2.5449
 6518TIP3   OH241112   4.177   3.033   1.200 -0.4001 -0.2020  0.4035
 6518TIP3    H141113   4.202   3.093   1.270  1.3054 -0.7740  0.3500
 6518TIP3    H241114   4.114   3.081   1.147  0.2336  1.1959  0.8811
 6519TIP3   OH241115   1.046   2.296   7.919  1.1904  0.2026 -0.5140
 6519TIP3    H141116   1.070   2.237   7.990  0.5801  0.5609  0.0041
 6519TIP3    H241117   1.103   2.372   7.929  0.9914  0.3259 -0.2977
 6520TIP3   OH241118   4.510   4.357   1.929  0.3357  0.4607  0.1482
 6520TIP3    H141119   4.574   4.324   1.866 -1.4410 -0.6464 -1.1553
 6520TIP3    H241120   4.540   4.445   1.950  2.6505 -0.2667  0.1273
 6521TIP3   OH241121   2.241   0.231   0.499  0.0346 -0.0988 -0.5686
 6521TIP3    H141122   2.202   0.235   0.587  0.8706  0.3031 -0.1974
 6521TIP3    H241123   2.252   0.137   0.482  1.3636 -0.1632  0.4652
 6522TIP3   OH241124   0.696   2.307   2.073  0.1892  0.2242  0.4504
 6522TIP3    H141125   0.712   2.257   1.993 -0.7383  0.7342 -0.0715
 6522TIP3    H241126   0.632   2.254   2.121  2.5826 -1.3502  2.0903
 6523TIP3   OH241127   4.483   5.757   2.102  0.4052 -0.1384 -0.0845
 6523TIP3    H141128   4.573   5.782   2.079  0.0151  0.7269 -0.7481
 6523TIP3    H241129   4.488   5.730   2.193  1.3182  0.0224 -0.0757
 6524TIP3   OH241130   3.914   1.254   0.935 -0.2304  0.1920  0.8578
 6524TIP3    H141131   3.869   1.239   0.852  3.0295  0.1823 -1.0907
 6524TIP3    H241132   3.885   1.341   0.963 -2.9983 -0.6774  0.9174
 6525TIP3   OH241133   0.187   4.928   8.625 -0.3459 -1.0449  0.1390
 6525TIP3    H141134   0.155   4.863   8.687 -1.2767 -1.1420 -0.4243
 6525TIP3    H241135   0.253   4.881   8.573 -0.7792 -1.4492 -0.0503
 6526TIP3   OH241136   2.624   1.708   0.870  0.5149  0.0020  0.3982
 6526TIP3    H141137   2.543   1.703   0.819  0.4984 -0.3106  0.4558
 6526TIP3    H241138   2.670   1.784   0.834  0.0784  0.3353  0.5410
 6527TIP3   OH241139   4.187   0.381   1.368  0.4321  0.2892  0.0373
 6527TIP3    H141140   4.132   0.309   1.340 -1.0495  1.2301  0.3834
 6527TIP3    H241141   4.271   0.341   1.388  0.6782 -0.8556 -2.8100
 6528TIP3   OH241142   3.058   2.526   8.765  0.2742 -0.0829 -0.3674
 6528TIP3    H141143   3.141   2.488   8.794  0.1338  1.1641  1.8612
 6528TIP3    H241144   2.992   2.486   8.821 -0.5922 -0.6079 -1.7108
 6529TIP3   OH241145   2.571   5.543   0.819  0.1793  0.0198 -0.0669
 6529TIP3    H141146   2.640   5.477   0.825 -0.3664 -0.6175 -0.6735
 6529TIP3    H241147   2.505   5.515   0.883 -0.9035 -1.0787 -1.5947
 6530TIP3   OH241148   4.020   2.939   2.616 -0.7903 -0.0422 -0.1039
 6530TIP3    H141149   4.000   2.980   2.700 -1.9050  0.8074 -0.7459
 6530TIP3    H241150   4.046   3.011   2.559  3.2648 -0.9529  0.3191
 6531TIP3   OH241151   0.656   1.266   1.461 -0.1592 -0.5145  0.2872
 6531TIP3    H141152   0.589   1.315   1.414  0.8746 -1.1497 -1.9505
 6531TIP3    H241153   0.709   1.333   1.504 -1.0145  0.0942  0.4213
 6532TIP3   OH241154   6.688   0.262   7.527  0.0674  0.0598 -0.2715
 6532TIP3    H141155   6.639   0.267   7.444  1.7405 -0.9978 -1.3939
 6532TIP3    H241156   6.623   0.235   7.591 -0.9503 -0.7594 -1.5842
 6533TIP3   OH241157   3.271   2.868   2.881 -0.3942 -0.0245  0.2208
 6533TIP3    H141158   3.316   2.793   2.842 -0.0004 -0.1039  0.8010
 6533TIP3    H241159   3.205   2.893   2.817 -2.1643 -2.3607  0.9827
 6534TIP3   OH241160   1.956   1.001   7.480 -0.1019 -0.0615 -0.0491
 6534TIP3    H141161   1.998   0.994   7.567  0.7609  1.4082 -0.3080
 6534TIP3    H241162   1.870   0.962   7.492 -0.2681  0.7239  1.6755
 6535TIP3   OH241163   6.743   3.672   8.478 -0.0399  0.6109  0.1057
 6535TIP3    H141164   6.816   3.729   8.456 -1.0844  2.5711  1.3701
 6535TIP3    H241165   6.681   3.683   8.406  0.5482 -0.4255 -0.5721
 6536TIP3   OH241166   4.768   5.747   6.620  0.1409  0.0546  0.7477
 6536TIP3    H141167   4.791   5.752   6.527  2.4996 -0.5410  1.2391
 6536TIP3    H241168   4.765   5.839   6.648 -1.3621  0.2808 -0.0493
 6537TIP3   OH241169   6.571   1.158   0.273  0.4484  0.4399  0.0709
 6537TIP3    H141170   6.552   1.157   0.180 -0.4154 -0.8134  0.2333
 6537TIP3    H241171   6.507   1.097   0.311  0.6704  1.0583  1.4966
 6538TIP3   OH241172   0.596   5.523   2.601 -0.0569 -0.2694  0.1185
 6538TIP3    H141173   0.651   5.445   2.609 -0.0501 -0.2572  0.1986
 6538TIP3    H241174   0.633   5.585   2.665 -0.1664 -0.2634  0.1765
 6539TIP3   OH241175   6.295   3.861   7.912 -0.1312 -0.2188  0.7057
 6539TIP3    H141176   6.306   3.771   7.940  1.6164 -0.1433  0.3671
 6539TIP3    H241177   6.276   3.856   7.818  0.0276 -0.2323  0.6745
 6540TIP3   OH241178   5.822   1.815   8.397 -0.2338  0.1693 -0.0056
 6540TIP3    H141179   5.813   1.896   8.446 -4.5522  0.2996 -0.5725
 6540TIP3    H241180   5.895   1.769   8.439 -0.4066  2.4386  3.1445
 6541TIP3   OH241181   3.594   1.168   1.545 -0.8274 -0.1685 -0.0835
 6541TIP3    H141182   3.639   1.185   1.628 -0.9714  0.2532 -0.0890
 6541TIP3    H241183   3.600   1.251   1.498  0.0960 -0.6735 -0.8997
 6542TIP3   OH241184   2.392   1.627   8.067  0.8435  0.0294 -0.0342
 6542TIP3    H141185   2.444   1.601   7.991  1.9081 -1.3013  1.0838
 6542TIP3    H241186   2.373   1.544   8.113  0.7749  0.8348  1.4683
 6543TIP3   OH241187   1.107   0.594   7.483 -0.1758 -0.3947  0.1807
 6543TIP3    H141188   1.076   0.508   7.453  0.7816 -0.7735  0.2700
 6543TIP3    H241189   1.039   0.623   7.544 -0.3612 -1.2266  0.3906
 6544TIP3   OH241190   0.328   5.114   0.380  0.0496 -0.8844 -0.1787
 6544TIP3    H141191   0.303   5.109   0.472 -0.0060 -0.7690 -0.1875
 6544TIP3    H241192   0.404   5.056   0.373  1.8816  1.2773  0.5446
 6545TIP3   OH241193   4.627   1.861   1.066  0.3230 -0.2273  0.1289
 6545TIP3    H141194   4.532   1.872   1.067  0.2194  0.2898 -3.3620
 6545TIP3    H241195   4.646   1.810   1.144 -2.3241  2.6722  2.9591
 6546TIP3   OH241196   1.501   3.058   2.351 -0.1564  0.0064  0.9132
 6546TIP3    H141197   1.448   3.028   2.277 -0.8537  2.1973  0.4222
 6546TIP3    H241198   1.543   2.979   2.385 -2.9908 -1.7233  0.7509
 6547TIP3   OH241199   2.680   0.493   8.525  0.1195 -0.1259  0.0995
 6547TIP3    H141200   2.636   0.513   8.607  1.0641  1.2526  0.2982
 6547TIP3    H241201   2.609   0.477   8.463 -0.7217  2.6463  0.2450
 6548TIP3   OH241202   0.464   2.003   2.479  0.7744 -0.0307 -0.1521
 6548TIP3    H141203   0.525   1.991   2.552 -0.5555 -0.3116  0.9595
 6548TIP3    H241204   0.383   2.034   2.520 -0.2786 -1.0123 -1.3961
 6549TIP3   OH241205   5.518   1.019   8.225  0.3857  0.2470  0.0421
 6549TIP3    H141206   5.529   0.946   8.164 -2.3257 -0.5713  0.3927
 6549TIP3    H241207   5.446   0.992   8.282  0.9331  2.1913  1.7786
 6550TIP3   OH241208   0.087   6.378   0.369  0.0644 -0.1471  0.4113
 6550TIP3    H141209   0.175   6.397   0.402  0.9475  2.1526 -2.8259
 6550TIP3    H241210   0.039   6.460   0.378 -1.0448 -0.7195 -0.0032
 6551TIP3   OH241211   5.903   2.555   7.652 -0.6443 -0.3446  0.0298
 6551TIP3    H141212   5.944   2.612   7.717  0.5313 -2.7874  1.5751
 6551TIP3    H241213   5.975   2.523   7.599 -1.4508  0.5606 -1.6784
 6552TIP3   OH241214   4.970   6.089   6.793  0.3248 -0.0054 -0.0533
 6552TIP3    H141215   4.999   6.157   6.854 -0.6344 -0.6500  1.1647
 6552TIP3    H241216   5.042   6.080   6.731  0.3139  2.4035 -0.5069
 6553TIP3   OH241217   0.774   4.417   7.832 -0.5161 -0.4959  0.6458
 6553TIP3    H141218   0.705   4.364   7.792 -0.0308  0.4323 -1.5621
 6553TIP3    H241219   0.767   4.399   7.926 -2.5180 -1.8576  0.2909
 6554TIP3   OH241220   4.524   0.924   0.993  0.1430  0.1216  0.6840
 6554TIP3    H141221   4.487   1.012   0.987  0.6849  0.4429  1.8084
 6554TIP3    H241222   4.601   0.934   1.049  0.0593 -1.1199  1.0504
 6555TIP3   OH241223   1.398   1.490   2.502 -0.0967 -0.2373  0.3188
 6555TIP3    H141224   1.302   1.491   2.505 -0.2150 -0.9035 -1.7265
 6555TIP3    H241225   1.425   1.493   2.594 -2.1022 -2.1121  1.0459
 6556TIP3   OH241226   2.539   5.836   1.345 -0.0029  0.4897  0.2131
 6556TIP3    H141227   2.541   5.817   1.439  1.1333  0.4980  0.2042
 6556TIP3    H241228   2.543   5.750   1.303 -0.7706  0.4727  0.1652
 6557TIP3   OH241229   2.762   3.850   7.890  0.0850  0.2260  0.2555
 6557TIP3    H141230   2.729   3.805   7.967  0.5603  1.0625  0.9748
 6557TIP3    H241231   2.726   3.939   7.897  0.3825  0.3987 -0.3231
 6558TIP3   OH241232   3.499   3.518   8.011  0.5421  0.2450 -0.2251
 6558TIP3    H141233   3.464   3.548   7.927  0.7174 -1.9184 -1.1213
 6558TIP3    H241234   3.422   3.499   8.065  0.4286  1.2575 -0.0094
 6559TIP3   OH241235   3.578   0.104   0.600 -0.2781 -0.2915 -0.0089
 6559TIP3    H141236   3.517   0.173   0.624  0.5940  0.5385 -0.1277
 6559TIP3    H241237   3.587   0.110   0.505 -0.7083 -1.0199 -0.1092
 6560TIP3   OH241238   0.767   2.948   2.052  0.0894  0.2095 -0.1612
 6560TIP3    H141239   0.777   3.013   2.121 -0.9225  1.6566 -1.3214
 6560TIP3    H241240   0.780   2.996   1.971 -0.1877 -1.1423 -1.0487
 6561TIP3   OH241241   4.387   3.640   2.689  0.3254  0.3827  1.0558
 6561TIP3    H141242   4.409   3.551   2.717 -0.1056 -0.0476  0.0735
 6561TIP3    H241243   4.293   3.648   2.705 -0.0399 -0.0553 -0.6593
 6562TIP3   OH241244   5.958   0.198   2.059  0.1263  0.3013 -0.2794
 6562TIP3    H141245   5.957   0.147   2.141  2.3630 -0.6628 -0.7748
 6562TIP3    H241246   5.866   0.207   2.036 -0.6236  0.9679  2.5323
 6563TIP3   OH241247   0.184   5.973   2.339 -0.1674  0.3367  0.1799
 6563TIP3    H141248   0.220   5.926   2.264  3.0669  1.1238  1.0794
 6563TIP3    H241249   0.179   6.064   2.310 -1.0165  0.3246  0.2565
 6564TIP3   OH241250   2.691   4.973   1.970  0.0450 -0.1604  0.3749
 6564TIP3    H141251   2.709   4.883   1.997 -0.9602 -0.7031 -0.6571
 6564TIP3    H241252   2.595   4.981   1.976  0.2340  1.4553  2.2265
 6565TIP3   OH241253   4.131   1.129   2.519  0.4413  0.4051 -0.1143
 6565TIP3    H141254   4.161   1.160   2.434  1.0305 -1.3684 -0.5985
 6565TIP3    H241255   4.166   1.192   2.582  0.6725  1.2957 -1.1143
 6566TIP3   OH241256   0.510   1.275   0.704  0.1254 -0.1465 -0.0530
 6566TIP3    H141257   0.447   1.276   0.776  0.7444  0.0645  0.5010
 6566TIP3    H241258   0.550   1.362   0.707  0.5106 -0.3129 -0.3283
 6567TIP3   OH241259   3.821   0.890   8.100  0.3974  0.0694  0.1211
 6567TIP3    H141260   3.862   0.810   8.134  1.2678  0.1409 -0.7106
 6567TIP3    H241261   3.894   0.950   8.085 -0.0856  0.4748 -0.6923
 6568TIP3   OH241262   1.895   5.677   7.692 -0.1657  0.0902 -0.3597
 6568TIP3    H141263   1.921   5.768   7.685  1.3085 -0.3245 -0.7314
 6568TIP3    H241264   1.882   5.648   7.602 -0.3865 -0.1346 -0.2601
 6569TIP3   OH241265   6.687   6.020   1.886  1.0323 -0.2269  0.2670
 6569TIP3    H141266   6.603   6.055   1.855 -0.8644 -3.9262  0.6817
 6569TIP3    H241267   6.721   6.088   1.944 -2.8424  0.6060  1.8665
 6570TIP3   OH241268   6.289   4.787   8.254  0.8596  0.0466 -0.2064
 6570TIP3    H141269   6.334   4.801   8.338  0.9011  0.8420 -0.3479
 6570TIP3    H241270   6.268   4.876   8.224  0.1397 -0.2694 -0.6567
 6571TIP3   OH241271   2.227   1.621   1.378 -0.1468  0.7055 -0.8101
 6571TIP3    H141272   2.245   1.578   1.462 -0.3754  0.4446 -0.8939
 6571TIP3    H241273   2.307   1.607   1.327 -0.4000 -0.0470 -1.0122
 6572TIP3   OH241274   5.209   2.905   2.837 -0.1816 -0.6158 -0.4805
 6572TIP3    H141275   5.243   2.953   2.760 -0.8614 -0.3168 -0.6060
 6572TIP3    H241276   5.114   2.910   2.827 -0.2872 -3.0055 -1.1102
 6573TIP3   OH241277   5.053   0.715   8.091  0.2735  0.1489  0.0556
 6573TIP3    H141278   5.061   0.635   8.038 -0.0811  0.7029 -0.8615
 6573TIP3    H241279   5.043   0.684   8.181 -2.7052 -0.9730 -0.5480
 6574TIP3   OH241280   2.107   3.749   8.002  0.3433 -0.3009  0.4835
 6574TIP3    H141281   2.115   3.801   8.082  0.7033 -0.6896  0.7006
 6574TIP3    H241282   2.172   3.680   8.011 -0.1008 -0.7688  0.1739
 6575TIP3   OH241283   6.456   3.843   8.637  0.1183 -0.0515  0.1164
 6575TIP3    H141284   6.443   3.768   8.695  0.2226 -1.0908 -1.1603
 6575TIP3    H241285   6.519   3.898   8.683  1.3283 -1.5742  0.3721
 6576TIP3   OH241286   4.167   2.727   7.640 -0.4193 -0.4889 -0.0097
 6576TIP3    H141287   4.209   2.643   7.621  3.0658  1.1974 -0.5136
 6576TIP3    H241288   4.239   2.790   7.638 -2.5070  2.2191  2.6169
 6577TIP3   OH241289   2.229   4.502   1.728  0.2087  0.3986 -0.0996
 6577TIP3    H141290   2.216   4.526   1.819 -0.5052  2.0772 -0.6118
 6577TIP3    H241291   2.158   4.545   1.681 -0.1717 -1.4405 -1.3315
 6578TIP3   OH241292   6.670   5.450   7.409 -0.1100 -0.3080 -0.3508
 6578TIP3    H141293   6.661   5.443   7.314 -2.1486  0.8870 -0.2987
 6578TIP3    H241294   6.758   5.486   7.423  0.4356 -1.0330 -1.7195
 6579TIP3   OH241295   5.547   6.425   8.478  0.0603 -0.0055  0.3663
 6579TIP3    H141296   5.479   6.492   8.474  0.1653  0.0467 -1.3762
 6579TIP3    H241297   5.517   6.365   8.546 -0.4543  1.3422  1.3834
 6580TIP3   OH241298   2.611   3.789   7.655  0.2283  0.2134 -0.1351
 6580TIP3    H141299   2.544   3.856   7.643 -0.9779 -0.8095  0.7110
 6580TIP3    H241300   2.627   3.789   7.750  1.0054  0.0393 -0.2613
 6581TIP3   OH241301   2.751   1.998   8.434 -0.1545  0.1518  0.3462
 6581TIP3    H141302   2.706   2.075   8.469  0.0464  0.4114  0.0476
 6581TIP3    H241303   2.829   2.034   8.391 -0.4001 -0.1532 -0.3620
 6582TIP3   OH241304   5.576   1.838   8.566  0.1485 -0.5249 -0.4402
 6582TIP3    H141305   5.602   1.746   8.575 -0.3389 -0.5485  1.1760
 6582TIP3    H241306   5.653   1.887   8.593 -0.1747 -0.5176  0.5135
 6583TIP3   OH241307   3.857   0.245   1.817 -0.4634 -0.2461  0.3541
 6583TIP3    H141308   3.843   0.318   1.758  0.4491 -0.3128  0.0399
 6583TIP3    H241309   3.897   0.176   1.763  0.5808 -0.2331  1.0585
 6584TIP3   OH241310   6.145   6.624   0.542 -0.5932 -0.3968 -0.0839
 6584TIP3    H141311   6.207   6.611   0.470 -0.8645 -0.3461 -0.3225
 6584TIP3    H241312   6.141   6.539   0.585  0.0159 -0.2751  0.2277
 6585TIP3   OH241313   3.360   4.672   1.829  0.2041  0.1287 -0.5302
 6585TIP3    H141314   3.342   4.681   1.735 -2.1790 -0.4311 -0.1845
 6585TIP3    H241315   3.326   4.752   1.867  0.0979 -0.1625 -0.0111
 6586TIP3   OH241316   0.265   1.542   1.125 -0.3113  0.3183  0.3034
 6586TIP3    H141317   0.311   1.620   1.156  1.0201 -0.3227 -0.0134
 6586TIP3    H241318   0.246   1.561   1.033  2.0225 -0.5931 -0.4223
 6587TIP3   OH241319   6.441   5.267   1.611  0.1163 -0.7503  0.1109
 6587TIP3    H141320   6.458   5.203   1.542 -0.3080 -1.1297  0.3529
 6587TIP3    H241321   6.348   5.288   1.603 -0.0058 -1.0235  0.7528
 6588TIP3   OH241322   4.243   5.723   8.382  0.2106 -0.0156 -0.0241
 6588TIP3    H141323   4.273   5.796   8.329 -0.5213 -0.6729 -1.4224
 6588TIP3    H241324   4.247   5.754   8.472 -1.3414  2.2308 -0.6500
 6589TIP3   OH241325   3.468   2.652   1.229 -0.5830  0.1412 -0.2364
 6589TIP3    H141326   3.379   2.663   1.194 -1.2316  2.7465  1.9012
 6589TIP3    H241327   3.519   2.719   1.184 -0.7914  1.6142  1.5892
 6590TIP3   OH241328   1.479   0.174   2.746 -0.2439 -0.3081  0.0046
 6590TIP3    H141329   1.459   0.081   2.732  1.1434 -0.4951 -0.8819
 6590TIP3    H241330   1.562   0.174   2.794 -0.4238  0.4799  0.3266
 6591TIP3   OH241331   0.653   6.115   7.400 -0.6224  0.3006  0.6375
 6591TIP3    H141332   0.580   6.138   7.341 -0.7822  2.0963  1.4703
 6591TIP3    H241333   0.683   6.199   7.434  0.8092 -0.5511  1.5495
 6592TIP3   OH241334   0.433   2.693   1.593  0.3315  0.2107 -0.5773
 6592TIP3    H141335   0.370   2.714   1.525  0.7307 -0.6469 -1.2272
 6592TIP3    H241336   0.379   2.674   1.670 -0.0965  1.9612 -0.3950
 6593TIP3   OH241337   3.013   6.326   1.820 -0.2106  0.3818 -0.3272
 6593TIP3    H141338   2.918   6.322   1.809 -0.2404 -1.8278  0.3274
 6593TIP3    H241339   3.042   6.393   1.757 -2.4392  3.4301  1.6073
 6594TIP3   OH241340   0.739   6.620   7.795 -0.0004  0.5074 -0.5156
 6594TIP3    H141341   0.775   6.641   7.709 -0.6799 -0.1131 -0.9622
 6594TIP3    H241342   0.660   6.568   7.776 -0.0190  0.1540  0.4816
 6595TIP3   OH241343   5.674   0.537   8.621 -0.2207  0.1326  0.3994
 6595TIP3    H141344   5.657   0.600   8.691  1.9649  0.0799  1.0706
 6595TIP3    H241345   5.702   0.457   8.667 -0.3139 -0.4358 -0.4992
 6596TIP3   OH241346   5.465   4.646   8.216  0.1492 -0.1628  0.1180
 6596TIP3    H141347   5.458   4.597   8.135  0.2353 -0.9919  0.6071
 6596TIP3    H241348   5.558   4.643   8.238  0.0886 -0.1462  0.3769
 6597TIP3   OH241349   4.478   2.402   0.353  0.0946 -0.1574  0.0379
 6597TIP3    H141350   4.416   2.462   0.395  0.8559 -0.1112  1.1373
 6597TIP3    H241351   4.425   2.325   0.331 -1.0730  1.1677 -2.1128
 6598TIP3   OH241352   1.082   4.014   1.815  0.3654  0.1095  0.5273
 6598TIP3    H141353   1.068   4.097   1.860 -0.0089 -0.4330  1.4512
 6598TIP3    H241354   1.075   4.035   1.722  4.0237  1.8076  0.4859
 6599TIP3   OH241355   2.235   2.371   0.380 -0.2226 -0.3633 -0.5647
 6599TIP3    H141356   2.319   2.377   0.425 -0.7662  1.1948  0.3383
 6599TIP3    H241357   2.245   2.427   0.303 -0.4485 -0.0792 -0.3919
 6600TIP3   OH241358   2.880   1.964   1.944  0.0146  0.4423  0.3204
 6600TIP3    H141359   2.947   2.031   1.953  0.8794 -0.2024 -0.9378
 6600TIP3    H241360   2.802   2.011   1.915  0.6117  0.9371 -0.5414
 6601TIP3   OH241361   5.195   6.699   2.683  0.1769 -0.1683 -0.3645
 6601TIP3    H141362   5.158   6.684   2.596  0.1588 -0.4433 -0.3072
 6601TIP3    H241363   5.124   6.682   2.744  0.8498 -2.4700 -0.1360
 6602TIP3   OH241364   2.510   1.310   1.374  0.4552 -0.2384 -0.2250
 6602TIP3    H141365   2.581   1.250   1.397  0.6405  0.0236 -0.1011
 6602TIP3    H241366   2.432   1.254   1.368  0.4511 -0.3598  0.7834
 6603TIP3   OH241367   4.737   3.743   0.539  0.0477  0.2243  0.6344
 6603TIP3    H141368   4.748   3.715   0.448  2.1783  0.8077  0.6803
 6603TIP3    H241369   4.647   3.718   0.560  0.1656 -1.8345 -0.9650
 6604TIP3   OH241370   4.631   1.198   6.886  0.5457  0.3227 -0.3230
 6604TIP3    H141371   4.642   1.293   6.885 -1.2086  0.6516  2.0701
 6604TIP3    H241372   4.677   1.170   6.965  1.7244 -0.9728 -1.4251
 6605TIP3   OH241373   0.427   3.528   1.647  0.0016 -0.0514  0.1093
 6605TIP3    H141374   0.391   3.563   1.729 -0.4555  0.4561 -0.2988
 6605TIP3    H241375   0.351   3.489   1.603  0.2012 -0.1169 -0.1772
 6606TIP3   OH241376   0.913   4.415   2.487 -0.1464  0.2525  0.1096
 6606TIP3    H141377   0.908   4.472   2.564 -0.5853  0.2160  0.1071
 6606TIP3    H241378   0.832   4.432   2.439  1.0307  1.8380 -1.4555
 6607TIP3   OH241379   0.759   5.783   8.201  0.3583 -0.1668 -0.5975
 6607TIP3    H141380   0.664   5.774   8.194  0.1025  1.6507  0.0492
 6607TIP3    H241381   0.794   5.724   8.134 -1.2369 -0.1558 -1.4749
 6608TIP3   OH241382   4.094   4.897   0.696 -0.0391 -0.0499  0.4386
 6608TIP3    H141383   4.075   4.941   0.778 -1.8674 -0.0389  0.0549
 6608TIP3    H241384   4.122   4.967   0.637 -1.3861  0.3826  0.2854
 6609TIP3   OH241385   3.314   1.913   0.212  0.2302  0.2445  0.3726
 6609TIP3    H141386   3.387   1.955   0.166  0.2227  1.1074  1.1210
 6609TIP3    H241387   3.236   1.948   0.170  0.2187 -1.7513 -1.3755
 6610TIP3   OH241388   3.795   2.051   0.423 -0.9993 -0.5405 -0.4494
 6610TIP3    H141389   3.880   2.031   0.382 -1.5403 -1.9712 -0.9631
 6610TIP3    H241390   3.758   2.120   0.369 -0.2945 -0.1164 -0.4031
 6611TIP3   OH241391   0.761   3.150   8.082 -0.3474  0.1558  0.0527
 6611TIP3    H141392   0.789   3.239   8.100  0.6817  0.0243 -0.7807
 6611TIP3    H241393   0.677   3.159   8.036 -1.6354  0.5701  2.3489
 6612TIP3   OH241394   3.725   4.467   1.751 -0.2197  0.7323  0.2106
 6612TIP3    H141395   3.728   4.473   1.655 -1.1137  0.3538  0.1592
 6612TIP3    H241396   3.817   4.457   1.777  0.2099  2.4494 -0.4927
 6613TIP3   OH241397   3.825   3.179   0.822  0.2780 -0.2357  0.2291
 6613TIP3    H141398   3.844   3.085   0.830  1.7163  0.0923  1.0858
 6613TIP3    H241399   3.822   3.195   0.728  1.5122 -0.8795  0.0540
 6614TIP3   OH241400   5.306   5.463   6.397  0.2063  0.2763 -0.0632
 6614TIP3    H141401   5.373   5.484   6.461  0.4853 -1.4305  0.2649
 6614TIP3    H241402   5.239   5.530   6.409  0.2229 -0.0250  2.0754
 6615TIP3   OH241403   1.492   6.533   8.239  0.3005 -0.1579 -0.5338
 6615TIP3    H141404   1.405   6.546   8.277  1.1122  0.2070  1.3174
 6615TIP3    H241405   1.519   6.446   8.268  0.7793 -0.0452 -0.6236
 6616TIP3   OH241406   4.992   4.716   7.321  0.4649  0.1554  0.7616
 6616TIP3    H141407   4.957   4.628   7.330  1.5629 -0.2263  1.4818
 6616TIP3    H241408   4.970   4.742   7.231  1.2024 -1.3425  0.1112
 6617TIP3   OH241409   3.638   4.918   8.508  0.2919 -0.2129 -0.2388
 6617TIP3    H141410   3.621   4.952   8.420  1.8642  1.0700 -0.0922
 6617TIP3    H241411   3.576   4.965   8.564 -1.1835 -1.5195 -0.6882
 6618TIP3   OH241412   0.875   1.008   2.131 -0.1230  0.1260 -0.1486
 6618TIP3    H141413   0.922   1.074   2.080 -1.0973 -1.0359 -2.7339
 6618TIP3    H241414   0.784   1.038   2.133 -0.0004  0.4825  1.5611
 6619TIP3   OH241415   6.691   4.461   3.050  0.1725 -0.2859  0.2871
 6619TIP3    H141416   6.625   4.420   2.993  1.4556 -0.6061 -1.0320
 6619TIP3    H241417   6.647   4.538   3.086 -0.3569  0.6270 -2.1077
 6620TIP3   OH241418   2.482   3.247   2.247  0.4111 -0.6754  0.3775
 6620TIP3    H141419   2.427   3.290   2.312  2.2433 -0.5145  1.9384
 6620TIP3    H241420   2.482   3.154   2.273  0.2579 -0.8123 -0.0948
 6621TIP3   OH241421   3.000   2.789   1.044  0.1017 -0.4448 -0.3865
 6621TIP3    H141422   2.933   2.749   0.988  0.3006  2.7200 -3.2602
 6621TIP3    H241423   2.951   2.833   1.113 -0.4664 -1.2829 -0.2435
 6622TIP3   OH241424   2.999   4.626   1.261  0.6243 -0.2159  0.0597
 6622TIP3    H141425   3.014   4.567   1.187 -0.6278 -0.4620 -0.0256
 6622TIP3    H241426   2.907   4.611   1.285  1.0773 -0.3569  1.8564
 6623TIP3   OH241427   4.129   5.532   2.432 -0.1237 -0.5325  0.5574
 6623TIP3    H141428   4.039   5.544   2.402  0.3869 -1.3548 -1.4263
 6623TIP3    H241429   4.152   5.616   2.472 -0.7669  0.7846 -1.6958
 6624TIP3   OH241430   1.985   3.453   8.547  0.3117  0.0574  0.5443
 6624TIP3    H141431   2.004   3.371   8.502  2.5138 -0.7164  2.6567
 6624TIP3    H241432   2.069   3.498   8.553 -0.4687  1.4988  1.2814
 6625TIP3   OH241433   2.538   1.072   0.060  0.3511 -0.0489  0.2975
 6625TIP3    H141434   2.563   1.026  -0.019 -1.2533  1.2009 -1.0096
 6625TIP3    H241435   2.449   1.041   0.079  0.7314 -0.3851  1.6750
 6626TIP3   OH241436   2.228   4.977   8.476 -0.0317  0.5364 -0.4150
 6626TIP3    H141437   2.322   4.991   8.469 -0.1200  1.8826  0.8454
 6626TIP3    H241438   2.190   5.031   8.406  0.1459 -0.8595 -1.6537
 6627TIP3   OH241439   2.556   3.618   0.964  0.5771 -0.2743 -0.0936
 6627TIP3    H141440   2.507   3.542   0.932  0.7255 -0.9931  1.3099
 6627TIP3    H241441   2.641   3.582   0.989  0.5858  0.3205  0.7599
 6628TIP3   OH241442   5.975   0.950   1.380 -0.0286 -0.3385  0.6612
 6628TIP3    H141443   5.975   0.855   1.382 -0.7573 -0.3490  0.4633
 6628TIP3    H241444   6.035   0.976   1.450  0.4304 -0.9431  0.4955
 6629TIP3   OH241445   1.421   3.404   1.102 -0.0555 -0.3120 -0.1223
 6629TIP3    H141446   1.340   3.444   1.137  0.3317 -0.6914  1.2857
 6629TIP3    H241447   1.392   3.326   1.057 -0.4707 -0.6186  0.6525
 6630TIP3   OH241448   1.473   5.979   0.443  0.6401  1.0682  0.1356
 6630TIP3    H141449   1.498   5.935   0.362 -0.0899  0.6958  0.1046
 6630TIP3    H241450   1.549   6.031   0.467  2.0200 -1.1333  0.8284
 6631TIP3   OH241451   5.683   0.139   1.986 -0.8915 -0.3199  0.0615
 6631TIP3    H141452   5.656   0.112   1.899  2.1086  2.1199 -1.8222
 6631TIP3    H241453   5.619   0.206   2.011 -0.7442  0.2911 -1.1283
 6632TIP3   OH241454   5.097   2.781   7.921  0.5358  0.1904  0.7548
 6632TIP3    H141455   5.077   2.872   7.943 -0.4100  0.0071  0.7002
 6632TIP3    H241456   5.087   2.734   8.004  0.2183  0.0139  0.6185
 6633TIP3   OH241457   0.989   1.617   7.900 -0.4105  0.5343  0.0108
 6633TIP3    H141458   1.059   1.639   7.962 -0.8284  1.6226  0.1176
 6633TIP3    H241459   0.919   1.678   7.921 -0.7318  0.6086 -1.2430
 6634TIP3   OH241460   1.102   1.294   0.959 -0.4507 -0.0781  0.1108
 6634TIP3    H141461   1.105   1.346   1.039  1.9560  0.6382 -0.3544
 6634TIP3    H241462   1.127   1.206   0.988  1.0002  0.3084  0.0997
 6635TIP3   OH241463   2.804   2.377   0.915 -0.1947  0.6140 -0.2830
 6635TIP3    H141464   2.719   2.333   0.926 -0.7356  0.9963 -2.5215
 6635TIP3    H241465   2.781   2.469   0.904  0.4927  0.6874 -1.1414
 6636TIP3   OH241466   2.772   6.480   0.555 -0.0767  0.2875  0.2040
 6636TIP3    H141467   2.763   6.553   0.494 -0.8024 -1.0218 -1.3092
 6636TIP3    H241468   2.867   6.469   0.564  0.1284 -0.9435 -2.5645
 6637TIP3   OH241469   5.091   2.899   0.003  0.2740  0.1893  0.1930
 6637TIP3    H141470   5.154   2.914  -0.067 -0.4775 -0.1542 -0.5674
 6637TIP3    H241471   5.045   2.982   0.012 -1.0031 -0.3454 -1.1212
 6638TIP3   OH241472   2.916   1.308   0.557 -0.2819  0.2240 -0.8548
 6638TIP3    H141473   2.823   1.296   0.576 -0.0207 -1.0400 -0.2821
 6638TIP3    H241474   2.960   1.297   0.641  0.5520 -1.2804 -1.4489
 6639TIP3   OH241475   5.652   2.005   2.219 -0.0063  0.4894 -0.7445
 6639TIP3    H141476   5.571   2.024   2.171  0.1988  0.3990 -1.1314
 6639TIP3    H241477   5.719   1.998   2.151 -0.1306 -2.0561 -0.7183
 6640TIP3   OH241478   3.514   3.135   7.095  0.2497 -0.6532 -0.4066
 6640TIP3    H141479   3.465   3.216   7.101  0.7787 -0.2550 -1.2622
 6640TIP3    H241480   3.452   3.073   7.055  0.6057  0.0148 -2.0679
 6641TIP3   OH241481   3.216   1.068   7.539 -0.0568 -0.3388  0.0334
 6641TIP3    H141482   3.297   1.018   7.525 -0.7862 -1.6585  0.4550
 6641TIP3    H241483   3.146   1.006   7.522 -0.9983  0.7209 -0.0368
 6642TIP3   OH241484   6.762   2.506   3.096  0.0808  0.1385  0.0472
 6642TIP3    H141485   6.707   2.584   3.103  1.3844  1.0231  0.8501
 6642TIP3    H241486   6.829   2.517   3.163  0.3527 -1.6500  0.1245
 6643TIP3   OH241487   2.283   4.253   1.856 -0.8414 -0.0547  0.0424
 6643TIP3    H141488   2.255   4.336   1.817 -0.9223  0.1849  0.6036
 6643TIP3    H241489   2.284   4.192   1.783 -3.2686 -0.1917  0.0290
 6644TIP3   OH241490   1.327   0.416   7.388 -0.3448 -0.2655 -0.5981
 6644TIP3    H141491   1.321   0.359   7.312 -0.5634 -1.2482  0.1401
 6644TIP3    H241492   1.421   0.429   7.401 -0.2344 -1.4080 -0.1020
 6645TIP3   OH241493   2.306   1.673   1.915 -0.2430 -0.1098 -0.0180
 6645TIP3    H141494   2.371   1.696   1.982  0.5138 -1.6145 -0.1936
 6645TIP3    H241495   2.263   1.756   1.895  1.0615  0.7896  0.6972
 6646TIP3   OH241496   0.126   3.780   1.625 -0.1891  0.0064 -0.5033
 6646TIP3    H141497   0.210   3.758   1.584 -0.5368  1.4871 -2.1472
 6646TIP3    H241498   0.076   3.822   1.555 -1.7964  0.3637  0.8095
 6647TIP3   OH241499   6.473   6.174   7.580  0.0226 -0.2018  0.2791
 6647TIP3    H141500   6.386   6.213   7.586  0.6063  2.3409 -3.7217
 6647TIP3    H241501   6.459   6.092   7.533 -0.2975 -0.1187  0.2263
 6648TIP3   OH241502   0.550   1.268   2.063 -0.4397 -0.2375 -0.3179
 6648TIP3    H141503   0.484   1.263   1.994 -1.1927 -2.7169  0.4565
 6648TIP3    H241504   0.541   1.357   2.098 -3.2069 -0.3669 -0.4478
 6649TIP3   OH241505   1.874   6.754   7.884  0.3565  0.1747 -0.4639
 6649TIP3    H141506   1.929   6.812   7.832 -0.5307 -0.1752 -1.8519
 6649TIP3    H241507   1.844   6.688   7.821  1.4542 -1.8963  1.0772
 6650TIP3   OH241508   6.406   2.463   1.485  0.4852  0.4255 -0.1073
 6650TIP3    H141509   6.497   2.454   1.457  0.3453  1.0325 -0.7883
 6650TIP3    H241510   6.355   2.450   1.405  0.0354  1.3903  0.0122
 6651TIP3   OH241511   6.198   5.041   2.197  0.0949  0.5860  0.2894
 6651TIP3    H141512   6.256   5.023   2.270 -1.1211 -1.4978  0.8363
 6651TIP3    H241513   6.140   4.965   2.193 -1.0846  1.4949 -1.6791
 6652TIP3   OH241514   6.361   2.069   0.593 -0.0094  0.1258  0.5147
 6652TIP3    H141515   6.300   2.095   0.525 -0.7565 -1.7414  0.4317
 6652TIP3    H241516   6.448   2.082   0.554 -0.3828 -2.9899 -1.7283
 6653TIP3   OH241517   5.266   3.342   0.943  0.1848 -0.0820  0.1239
 6653TIP3    H141518   5.171   3.330   0.937  0.2808 -1.5104  0.9551
 6653TIP3    H241519   5.277   3.428   0.982 -0.7530  0.2747 -0.3514
 6654TIP3   OH241520   0.558   5.951   1.561  0.5765  0.4508  0.4299
 6654TIP3    H141521   0.539   6.038   1.595 -0.7332  0.5298 -0.4397
 6654TIP3    H241522   0.579   5.965   1.469  0.2561 -0.1604  0.2543
 6655TIP3   OH241523   2.605   0.062   1.915  0.1882  0.2562 -0.0578
 6655TIP3    H141524   2.580   0.067   1.823  2.5490 -1.1895 -0.8776
 6655TIP3    H241525   2.558   0.134   1.957  0.1696  1.8955 -2.6675
 6656TIP3   OH241526   1.165   5.523   7.896  0.1376 -0.0426  0.8014
 6656TIP3    H141527   1.111   5.545   7.820  1.3317 -1.1847 -0.4483
 6656TIP3    H241528   1.234   5.590   7.896  0.2187 -0.1269  0.8037
 6657TIP3   OH241529   0.071   0.703   0.557  0.3849  0.0645  0.3177
 6657TIP3    H141530   0.072   0.638   0.487 -0.5047 -0.5846  0.8944
 6657TIP3    H241531   0.145   0.680   0.613 -0.3451 -0.9003  0.9082
 6658TIP3   OH241532   2.798   6.514   7.731  0.1165 -0.2512  0.1437
 6658TIP3    H141533   2.822   6.559   7.650 -2.2909  2.3934  0.7721
 6658TIP3    H241534   2.862   6.546   7.796  0.2421 -0.0777 -0.0647
 6659TIP3   OH241535   0.810   4.126   8.169  0.4859 -0.1790  0.2855
 6659TIP3    H141536   0.801   4.041   8.126  0.4097 -0.1947  0.3309
 6659TIP3    H241537   0.849   4.183   8.103 -1.5804  0.3700 -0.5343
 6660TIP3   OH241538   0.027   3.606   7.642 -0.1144  0.9911  0.4760
 6660TIP3    H141539   0.088   3.640   7.577 -1.8457  4.0557  0.2529
 6660TIP3    H241540  -0.027   3.544   7.594  2.2077 -1.1904  0.5010
 6661TIP3   OH241541   3.328   6.627   1.401  0.1470 -0.4306  0.0358
 6661TIP3    H141542   3.387   6.556   1.374  0.1080  0.2329 -1.9556
 6661TIP3    H241543   3.246   6.608   1.356 -0.4022 -0.0265  0.8558
 6662TIP3   OH241544   3.953   5.314   6.849 -0.3249  0.4098  0.1131
 6662TIP3    H141545   3.906   5.278   6.925  1.5269 -0.3808  0.9546
 6662TIP3    H241546   3.972   5.404   6.873  2.4716 -0.5225  1.8024
 6663TIP3   OH241547   6.510   5.213   8.242  0.2274 -0.1320 -0.3467
 6663TIP3    H141548   6.584   5.261   8.279  0.4265  1.5868 -2.7194
 6663TIP3    H241549   6.532   5.121   8.254  1.0107  0.3038  2.1710
 6664TIP3   OH241550   0.803   1.320   2.837  0.2371  0.2005 -0.1312
 6664TIP3    H141551   0.756   1.251   2.789 -0.7229 -0.8303  2.1760
 6664TIP3    H241552   0.845   1.372   2.768 -0.3976 -1.6697 -2.0379
 6665TIP3   OH241553   1.433   5.566   2.250 -0.0425  0.0825  0.5560
 6665TIP3    H141554   1.514   5.523   2.223  1.1838  2.2401  0.5806
 6665TIP3    H241555   1.452   5.600   2.338 -0.8861  0.8305  0.4643
 6666TIP3   OH241556   6.249   4.604   1.181 -1.0359 -0.1159  0.0297
 6666TIP3    H141557   6.262   4.524   1.131  0.6545  0.2738 -0.2320
 6666TIP3    H241558   6.218   4.574   1.267  1.1634 -1.2346  0.5056
 6667TIP3   OH241559   6.683   4.731   0.424 -0.2253  0.4828  0.7778
 6667TIP3    H141560   6.670   4.790   0.351  3.5033  0.3556 -0.2203
 6667TIP3    H241561   6.595   4.710   0.455 -1.8006  3.9781 -0.8266
 6668TIP3   OH241562   0.274   5.905   8.188  0.1835  0.3065  0.1768
 6668TIP3    H141563   0.339   5.859   8.134  0.3075  0.2740  0.3529
 6668TIP3    H241564   0.191   5.892   8.142  0.4728  1.3031 -0.6464
 6669TIP3   OH241565   3.996   1.413   2.241  0.4011  0.1962  0.0756
 6669TIP3    H141566   3.910   1.441   2.274 -0.0987 -1.1441 -0.0004
 6669TIP3    H241567   3.977   1.372   2.157  1.1768  0.1940 -0.1051
 6670TIP3   OH241568   4.903   1.916   7.807 -0.0070 -0.3685 -0.1128
 6670TIP3    H141569   4.928   2.000   7.846  1.1286 -0.5215 -0.4640
 6670TIP3    H241570   4.946   1.916   7.721 -1.0929 -0.7475 -0.6733
 6671TIP3   OH241571   6.349   4.694   0.581 -0.5767  0.2890 -0.3688
 6671TIP3    H141572   6.420   4.724   0.637  0.7639  0.5419 -2.1220
 6671TIP3    H241573   6.367   4.601   0.566 -1.5328 -0.0528  0.4364
 6672TIP3   OH241574   0.889   2.801   0.265 -0.2145  0.4243 -0.3961
 6672TIP3    H141575   0.820   2.747   0.227 -0.0738 -1.5500  1.9324
 6672TIP3    H241576   0.846   2.847   0.338  0.2222  1.7445 -0.9259
 6673TIP3   OH241577   1.535   2.832   7.260  0.1298 -0.0649  0.5533
 6673TIP3    H141578   1.445   2.850   7.230  0.6509  0.8504 -0.5170
 6673TIP3    H241579   1.535   2.738   7.278 -0.6530 -0.3648 -0.8513
 6674TIP3   OH241580   0.413   2.072   0.707 -0.2460  0.5196 -0.5762
 6674TIP3    H141581   0.448   2.157   0.680  0.3540  0.6262  0.4595
 6674TIP3    H241582   0.349   2.093   0.775 -0.2485  0.1545 -0.4659
 6675TIP3   OH241583   5.209   4.228   2.850  0.0076 -0.7113  0.0679
 6675TIP3    H141584   5.299   4.225   2.882 -0.2239 -1.6954  0.6873
 6675TIP3    H241585   5.212   4.285   2.774  0.3789  2.7935  2.4669
 6676TIP3   OH241586   1.555   5.279   2.284 -0.0526  0.3685 -0.2082
 6676TIP3    H141587   1.645   5.244   2.282  0.0155  0.4868  0.6304
 6676TIP3    H241588   1.513   5.233   2.357 -0.8930 -0.1911 -1.0169
 6677TIP3   OH241589   5.310   1.500   7.110  0.0074  0.1076  0.3882
 6677TIP3    H141590   5.256   1.531   7.038 -0.3166 -1.6025 -0.1561
 6677TIP3    H241591   5.400   1.504   7.076 -0.0298  0.4655  0.3321
 6678TIP3   OH241592   0.895   1.990   1.677  0.5428  0.9134 -0.4441
 6678TIP3    H141593   0.944   1.909   1.680 -0.3395  0.3192 -1.2011
 6678TIP3    H241594   0.957   2.058   1.702  1.0396 -0.0880  1.1799
 6679TIP3   OH241595   2.663   6.353   0.765 -0.6236  0.3224 -0.4406
 6679TIP3    H141596   2.627   6.266   0.750  2.2169 -1.0248  0.0042
 6679TIP3    H241597   2.687   6.384   0.678  0.2299 -0.2220 -0.4038
 6680TIP3   OH241598   4.606   6.403   8.327 -0.2969  0.4143  0.2592
 6680TIP3    H141599   4.644   6.403   8.415  1.9896  1.6851 -0.6258
 6680TIP3    H241600   4.580   6.494   8.312  2.9355  1.1816 -1.6736
 6681TIP3   OH241601   1.521   1.894   8.018 -0.1099 -0.3907  0.8512
 6681TIP3    H141602   1.454   1.908   8.085  0.6935  2.5933  1.1360
 6681TIP3    H241603   1.549   1.803   8.032 -2.0409 -0.8053  2.5942
 6682TIP3   OH241604   4.736   5.866   2.015 -0.4828 -0.1535  0.2626
 6682TIP3    H141605   4.754   5.860   2.109 -1.2337  0.5845  0.4651
 6682TIP3    H241606   4.717   5.958   2.000 -1.1569 -0.4017 -0.4618
 6683TIP3   OH241607   3.628   6.280   7.796  0.2707 -0.2467 -0.2232
 6683TIP3    H141608   3.704   6.290   7.740  0.4039  0.1181  0.0207
 6683TIP3    H241609   3.600   6.370   7.816 -1.1790 -0.3480 -1.5910
 6684TIP3   OH241610   5.787   0.369   0.986 -0.4492  0.3134  0.3284
 6684TIP3    H141611   5.819   0.379   1.076  0.6466  0.8339 -0.0896
 6684TIP3    H241612   5.758   0.457   0.961 -0.3333  0.2689  0.0295
 6685TIP3   OH241613   5.528   6.555   7.146 -0.0070 -0.6349  0.1693
 6685TIP3    H141614   5.547   6.493   7.216 -1.4524  1.9188  3.0673
 6685TIP3    H241615   5.596   6.622   7.153 -0.3740 -0.1451 -0.6583
 6686TIP3   OH241616   6.404   6.486   6.969 -0.2846  0.0841 -0.3198
 6686TIP3    H141617   6.451   6.409   7.000 -0.4322  1.1024  2.8758
 6686TIP3    H241618   6.360   6.520   7.047  0.2551  3.7136 -1.3775
 6687TIP3   OH241619   2.564   6.780   7.756  0.0836  0.3427  1.1047
 6687TIP3    H141620   2.479   6.799   7.717  0.8231 -1.3696 -1.5647
 6687TIP3    H241621   2.547   6.705   7.813 -0.1565 -0.2288  0.2992
 6688TIP3   OH241622   6.577   1.586   6.710  0.7451  0.1949 -0.3176
 6688TIP3    H141623   6.579   1.518   6.777 -0.7405  0.7837  0.3611
 6688TIP3    H241624   6.634   1.655   6.746 -1.6671  1.4255  1.4589
 6689TIP3   OH241625   3.176   3.509   1.158  0.1079 -0.1508 -0.5874
 6689TIP3    H141626   3.200   3.583   1.214  1.4004 -1.3552  0.5128
 6689TIP3    H241627   3.100   3.470   1.203 -1.6477  1.3989 -2.0379
 6690TIP3   OH241628   3.503   3.807   8.358 -0.3292 -0.1185  0.5211
 6690TIP3    H141629   3.483   3.805   8.264  0.3935 -0.8221  0.3729
 6690TIP3    H241630   3.469   3.725   8.392 -1.6804  0.6600  1.1295
 6691TIP3   OH241631   4.861   5.631   1.760  0.1981 -0.5176 -0.7470
 6691TIP3    H141632   4.858   5.680   1.842  0.7594 -0.6443 -0.6478
 6691TIP3    H241633   4.939   5.576   1.767  0.9723  0.3925 -1.8834
 6692TIP3   OH241634   3.977   0.682   8.177 -0.2614  0.4757 -0.3573
 6692TIP3    H141635   4.021   0.660   8.095 -2.3803 -0.3937 -1.3546
 6692TIP3    H241636   4.042   0.664   8.245  1.8295  1.9779 -1.8458
 6693TIP3   OH241637   6.111   5.761   1.145 -0.4458  0.7747 -0.0529
 6693TIP3    H141638   6.137   5.818   1.073 -0.3578 -1.0295 -1.5133
 6693TIP3    H241639   6.150   5.801   1.223  1.2528  1.6191 -1.2857
 6694TIP3   OH241640   0.937   3.545   0.552  0.5052  0.4859 -0.3437
 6694TIP3    H141641   0.992   3.551   0.631  0.4062 -0.9361 -0.1524
 6694TIP3    H241642   0.894   3.460   0.558  0.4807  0.3543 -1.9379
 6695TIP3   OH241643   0.365   0.264   0.096 -0.1567 -0.0027  0.9584
 6695TIP3    H141644   0.278   0.303   0.097 -0.4394 -0.5403 -0.5174
 6695TIP3    H241645   0.350   0.172   0.078  0.7633  0.2079 -1.3106
 6696TIP3   OH241646   0.005   1.745   1.324  0.4496 -0.2966 -0.1343
 6696TIP3    H141647   0.064   1.755   1.399  1.4433 -0.2502 -0.8896
 6696TIP3    H241648   0.022   1.656   1.292 -0.1736 -0.4158 -0.1330
 6697TIP3   OH241649   1.500   5.917   1.867 -0.0117 -0.2165 -0.1219
 6697TIP3    H141650   1.579   5.865   1.881 -0.9684 -1.5693  0.5336
 6697TIP3    H241651   1.429   5.857   1.891 -1.2681  0.6877 -1.4993
 6698TIP3   OH241652   4.762   4.403   7.115 -0.0485  0.2961  0.1043
 6698TIP3    H141653   4.847   4.391   7.073  0.9472  0.8622  1.8709
 6698TIP3    H241654   4.727   4.482   7.074  0.3243  0.1480 -0.5314
 6699TIP3   OH241655   2.645   3.053   0.794 -0.5656 -0.2148 -0.9585
 6699TIP3    H141656   2.679   3.140   0.775 -0.2441 -0.2137 -0.4074
 6699TIP3    H241657   2.666   3.039   0.886 -0.7142 -0.8291 -1.0144
 6700TIP3   OH241658   3.005   6.569   7.476  0.4080  0.5092 -0.2987
 6700TIP3    H141659   3.057   6.649   7.475  2.2908 -0.6261 -2.1793
 6700TIP3    H241660   2.958   6.571   7.393 -0.2192  0.0659  0.0384
 6701TIP3   OH241661   3.876   3.989   2.645 -0.9311 -0.9228 -0.6441
 6701TIP3    H141662   3.910   3.958   2.729 -1.3547  0.4475  0.0574
 6701TIP3    H241663   3.942   4.051   2.614 -1.1646 -0.8121 -0.9245
 6702TIP3   OH241664   1.920   4.833   1.243  0.5646  0.0564  0.4616
 6702TIP3    H141665   1.963   4.909   1.284  1.1208 -0.4162  0.7621
 6702TIP3    H241666   1.830   4.862   1.230  0.7372  0.7324  0.6819
 6703TIP3   OH241667   3.607   0.084   7.173  0.3835  0.4018  0.6012
 6703TIP3    H141668   3.640   0.139   7.244 -0.7876 -0.0608  1.5530
 6703TIP3    H241669   3.512   0.085   7.185  0.2834 -1.2342  0.2111
 6704TIP3   OH241670   1.920   5.180   0.297 -0.6956 -0.0173 -0.7479
 6704TIP3    H141671   2.009   5.182   0.260 -0.4965  1.0247 -0.2296
 6704TIP3    H241672   1.926   5.231   0.377 -1.7530  0.0079 -0.6750
 6705TIP3   OH241673   5.301   6.560   1.653 -0.1331 -0.1142  0.0712
 6705TIP3    H141674   5.241   6.592   1.721  0.3279  0.2207  0.3235
 6705TIP3    H241675   5.334   6.639   1.611  1.2816 -0.2211  0.9296
 6706TIP3   OH241676   5.746   6.313   1.013  0.5252 -0.0458 -0.5303
 6706TIP3    H141677   5.722   6.251   1.082  2.8738 -0.0512  0.3611
 6706TIP3    H241678   5.703   6.395   1.039 -1.2773 -0.8548 -0.8572
 6707TIP3   OH241679   0.533   1.979   7.545 -0.3070  0.3159 -0.0569
 6707TIP3    H141680   0.480   1.967   7.466  0.7907 -1.2127 -0.6204
 6707TIP3    H241681   0.617   2.009   7.512 -0.1099  0.4988  0.6068
 6708TIP3   OH241682   5.180   5.852   0.172 -0.0031  0.0995  0.2197
 6708TIP3    H141683   5.224   5.828   0.091  0.2525 -2.4070  1.0120
 6708TIP3    H241684   5.245   5.902   0.221  0.0217  1.1657 -0.8641
 6709TIP3   OH241685   4.178   1.591   1.460  0.2224 -0.8279  0.1744
 6709TIP3    H141686   4.098   1.540   1.448  0.4189 -1.1030  0.0074
 6709TIP3    H241687   4.215   1.598   1.371 -0.0544  0.0255  0.1160
 6710TIP3   OH241688   1.450   5.735   7.216 -0.1156 -0.7123  0.3675
 6710TIP3    H141689   1.425   5.823   7.187 -0.0535 -0.8432 -0.0883
 6710TIP3    H241690   1.377   5.706   7.270 -0.6040 -0.7806 -0.3169
 6711TIP3   OH241691   1.868   3.357   8.205  0.0228  0.5586 -0.3298
 6711TIP3    H141692   1.844   3.297   8.275  0.0436  2.0931  1.0450
 6711TIP3    H241693   1.820   3.437   8.224  0.1767  1.0852 -1.9820
 6712TIP3   OH241694   3.437   5.443   2.581 -0.2540 -0.0668 -0.2284
 6712TIP3    H141695   3.466   5.532   2.557  0.9668 -0.4280 -0.1783
 6712TIP3    H241696   3.342   5.451   2.591 -0.5785  0.6232 -2.9842
 6713TIP3   OH241697   0.372   0.239   1.376  0.3540  0.3826 -0.9875
 6713TIP3    H141698   0.352   0.173   1.310 -0.1039 -1.2437  0.7047
 6713TIP3    H241699   0.466   0.232   1.390  0.5830  1.2443 -1.9403
 6714TIP3   OH241700   1.941   5.531   2.151  0.8386  0.0857 -0.1496
 6714TIP3    H141701   1.919   5.564   2.064 -0.1981 -0.2071 -0.0138
 6714TIP3    H241702   2.011   5.467   2.135 -0.9302 -1.7427 -1.0984
 6715TIP3   OH241703   6.507   3.561   7.655 -0.0612  0.3539  0.6954
 6715TIP3    H141704   6.499   3.651   7.624 -2.5533  0.0372  0.1734
 6715TIP3    H241705   6.471   3.507   7.584 -1.5568 -0.7454  2.1910
 6716TIP3   OH241706   4.153   6.697   2.633  0.6702  0.1841 -0.1068
 6716TIP3    H141707   4.138   6.789   2.655 -0.0031  0.3467 -1.1701
 6716TIP3    H241708   4.244   6.694   2.604  0.7311  0.4877  0.0467
 6717TIP3   OH241709   6.115   3.789   3.359  0.3889  0.5617 -0.2674
 6717TIP3    H141710   6.160   3.833   3.287 -0.0083  2.1355  0.4008
 6717TIP3    H241711   6.165   3.814   3.437  0.5131 -0.7091  0.0809
 6718TIP3   OH241712   1.750   4.950   2.169  0.0786 -0.0949  0.1140
 6718TIP3    H141713   1.837   4.950   2.208 -0.2315 -0.9757  0.8438
 6718TIP3    H241714   1.695   4.997   2.231 -0.1157 -0.1603 -0.0060
 6719TIP3   OH241715   3.942   5.732   3.085  0.0049  0.1438 -0.5549
 6719TIP3    H141716   3.860   5.684   3.076  0.2734 -0.1698 -1.3961
 6719TIP3    H241717   3.939   5.798   3.016  1.0313 -0.7126 -1.4316
 6720TIP3   OH241718   0.346   2.140   7.867 -0.4519  0.3491 -0.5125
 6720TIP3    H141719   0.266   2.164   7.914 -0.3113  0.8183 -0.5054
 6720TIP3    H241720   0.333   2.049   7.843 -1.2442  0.5822 -1.0105
 6721TIP3   OH241721   1.557   6.440   7.653  0.2734 -0.6519  0.8497
 6721TIP3    H141722   1.493   6.465   7.719  1.1740 -0.0029  1.4991
 6721TIP3    H241723   1.611   6.373   7.695  0.2311 -0.9679  0.4164
 6722TIP3   OH241724   1.081   3.419   7.664  0.7679 -0.1439  0.3826
 6722TIP3    H141725   1.139   3.404   7.589  0.9065 -0.4249  0.5442
 6722TIP3    H241726   1.123   3.490   7.712  1.3431 -0.7927  0.8612
 6723TIP3   OH241727   3.955   5.738   1.767  0.0694 -0.2299  0.4015
 6723TIP3    H141728   3.978   5.831   1.779  0.2817 -0.0043 -1.3905
 6723TIP3    H241729   3.861   5.739   1.749 -0.0677 -0.4408  1.1140
 6724TIP3   OH241730   2.612   6.798   0.253  0.2196  0.4947  0.4133
 6724TIP3    H141731   2.667   6.766   0.325 -1.8045  0.9697  2.2691
 6724TIP3    H241732   2.603   6.892   0.269  0.1824  0.7113 -0.8049
 6725TIP3   OH241733   4.847   4.870   0.988 -0.3260  0.2828  0.0518
 6725TIP3    H141734   4.887   4.806   1.046  0.8215  0.6461 -0.3058
 6725TIP3    H241735   4.765   4.894   1.031 -0.2455 -0.6091  0.7249
 6726TIP3   OH241736   5.728   4.352   0.804  0.1617 -0.5423 -0.2178
 6726TIP3    H141737   5.765   4.439   0.792  1.5374 -0.9821  0.5995
 6726TIP3    H241738   5.676   4.359   0.884 -1.8390  0.1483 -1.5170
 6727TIP3   OH241739   6.696   4.723   0.841  0.1799  0.3050 -0.3315
 6727TIP3    H141740   6.619   4.725   0.897  0.5153 -1.0432  0.2226
 6727TIP3    H241741   6.665   4.750   0.755 -0.0897  3.7597  0.7269
 6728TIP3   OH241742   1.685   4.167   0.671  0.4008 -0.0414 -0.0405
 6728TIP3    H141743   1.647   4.100   0.615  0.0916 -0.9767  1.2452
 6728TIP3    H241744   1.762   4.197   0.623  0.4532 -1.1908 -0.7211
 6729TIP3   OH241745   2.654   0.366   0.732  0.4145  0.0345  0.2703
 6729TIP3    H141746   2.732   0.364   0.676  0.3749  1.4780  0.1261
 6729TIP3    H241747   2.581   0.380   0.671  0.1529 -0.2703  0.5080
 6730TIP3   OH241748   1.981   2.291   1.651 -0.1665 -0.0883 -0.0449
 6730TIP3    H141749   1.926   2.213   1.645  0.4110 -0.4354 -0.9604
 6730TIP3    H241750   2.060   2.261   1.697  0.3560 -0.2222 -1.0151
 6731TIP3   OH241751   0.902   2.423   0.300  0.8157  0.1050 -0.0785
 6731TIP3    H141752   0.879   2.335   0.329  0.4743 -0.4726 -1.9356
 6731TIP3    H241753   0.819   2.470   0.297  0.6828 -0.1657 -1.0671
 6732TIP3   OH241754   4.380   2.943   8.331 -0.6003  0.2177  0.9529
 6732TIP3    H141755   4.432   2.888   8.272  0.2690 -0.8128  2.6279
 6732TIP3    H241756   4.381   3.030   8.290  1.8611  0.0612  0.5710
 6733TIP3   OH241757   5.176   2.681   1.354 -0.2114 -0.1560 -0.2522
 6733TIP3    H141758   5.181   2.763   1.304  0.6452 -0.8075 -1.2932
 6733TIP3    H241759   5.229   2.619   1.303 -0.1481 -1.1336  0.9593
 6734TIP3   OH241760   6.136   2.404   1.008 -0.2634  0.4765 -0.0202
 6734TIP3    H141761   6.075   2.332   0.994 -0.0959  0.4033 -0.3958
 6734TIP3    H241762   6.116   2.467   0.938 -0.5989  0.9319  0.4709
 6735TIP3   OH241763   1.051   5.998   7.644 -0.0491  0.0723  0.3231
 6735TIP3    H141764   1.145   5.981   7.651  0.0403  1.1238  2.3504
 6735TIP3    H241765   1.045   6.091   7.623 -0.6450  0.0194  0.2462
 6736TIP3   OH241766   2.924   1.967   1.017 -0.2702  0.4826  0.0768
 6736TIP3    H141767   2.911   1.886   1.067 -0.1826  0.9734  0.9088
 6736TIP3    H241768   2.868   1.956   0.940  1.4007 -1.3074 -0.9746
 6737TIP3   OH241769   3.516   4.974   7.600 -0.0103  0.1847 -0.5584
 6737TIP3    H141770   3.484   5.063   7.616 -1.0457 -0.0828 -1.1136
 6737TIP3    H241771   3.481   4.951   7.514  0.1925 -0.7985 -0.3822
 6738TIP3   OH241772   6.196   5.868   0.886 -0.1666  0.2478  0.0371
 6738TIP3    H141773   6.125   5.812   0.854  1.0707 -0.2194 -2.0783
 6738TIP3    H241774   6.270   5.808   0.895  0.0037  0.7114  2.2799
 6739TIP3   OH241775   5.250   4.335   1.116  0.1119 -0.0555  0.0598
 6739TIP3    H141776   5.173   4.391   1.110 -0.6313 -1.1088 -0.2890
 6739TIP3    H241777   5.278   4.342   1.207  1.7375  3.0926 -0.5061
 6740TIP3   OH241778   3.282   0.970   1.623 -0.0886  0.0480 -0.1395
 6740TIP3    H141779   3.298   1.064   1.613 -0.0645  0.2015  1.2062
 6740TIP3    H241780   3.310   0.950   1.712  1.5380 -1.6074 -0.9627
 6741TIP3   OH241781   0.156   3.174   7.820  0.3783 -0.2533  0.0104
 6741TIP3    H141782   0.214   3.124   7.877 -0.1837 -1.0642 -0.1193
 6741TIP3    H241783   0.163   3.264   7.851 -1.0708 -0.8759  2.3747
 6742TIP3   OH241784   2.379   2.390   1.540  0.0202  0.1777 -0.1034
 6742TIP3    H141785   2.424   2.316   1.582  0.7280 -0.0461 -1.2210
 6742TIP3    H241786   2.355   2.357   1.454 -1.0117  0.7782 -0.0553
 6743TIP3   OH241787   4.814   2.353   1.667  0.2314  0.3718 -0.0173
 6743TIP3    H141788   4.909   2.354   1.659  0.5129 -0.7706  2.2535
 6743TIP3    H241789   4.790   2.260   1.659 -0.5184  0.4746  0.8350
 6744TIP3   OH241790   2.896   0.751   8.204  0.1153  0.6483 -0.0643
 6744TIP3    H141791   2.831   0.724   8.268 -0.8258 -1.4552 -1.7668
 6744TIP3    H241792   2.849   0.754   8.121  2.1637 -1.3058 -1.4310
 6745TIP3   OH241793   3.013   6.539   0.237  0.0414  0.0502  0.1022
 6745TIP3    H141794   3.100   6.544   0.199  0.1991 -0.0931  0.4395
 6745TIP3    H241795   2.953   6.552   0.163  0.3524  1.1202  0.0172
 6746TIP3   OH241796   4.182   0.794   7.454  0.0428 -0.2302 -0.5928
 6746TIP3    H141797   4.198   0.746   7.373  0.3310 -2.3477  0.6582
 6746TIP3    H241798   4.269   0.822   7.483  0.2099 -1.3885  0.0812
 6747TIP3   OH241799   4.630   4.635   7.905 -0.0208 -0.6978 -0.3824
 6747TIP3    H141800   4.556   4.690   7.927 -0.1023 -1.2384  0.7355
 6747TIP3    H241801   4.680   4.686   7.840  0.2167  0.9265  1.0216
 6748TIP3   OH241802   2.238   3.580   0.536 -0.0021 -0.0008 -0.2612
 6748TIP3    H141803   2.181   3.569   0.460  0.0005 -2.4416  0.0086
 6748TIP3    H241804   2.182   3.561   0.611 -0.1616  2.9232  0.5127
 6749TIP3   OH241805   0.018   3.598   1.347  0.2239  0.1774  0.3392
 6749TIP3    H141806   0.086   3.542   1.310  1.0144  1.7992 -0.8260
 6749TIP3    H241807  -0.025   3.545   1.413  2.2287 -1.1091  0.6755
 6750TIP3   OH241808   0.256   3.247   0.544  0.1260  0.0632  0.1874
 6750TIP3    H141809   0.282   3.229   0.453  2.7965 -3.0979  1.4085
 6750TIP3    H241810   0.214   3.167   0.574  0.4252  0.5779  2.1258
 6751TIP3   OH241811   1.138   3.091   0.579  0.1523 -0.3479 -0.1951
 6751TIP3    H141812   1.094   3.123   0.501 -1.1441 -1.1948  0.1474
 6751TIP3    H241813   1.135   2.995   0.570  0.6864 -0.4404  0.5182
 6752TIP3   OH241814   1.639   4.311   1.708 -0.0445 -0.3013 -0.0451
 6752TIP3    H141815   1.729   4.292   1.731 -0.0064 -0.2398 -0.1447
 6752TIP3    H241816   1.588   4.285   1.785  0.2203  1.1638  0.6722
 6753TIP3   OH241817   3.736   2.746   1.808 -0.0081  0.0294  0.3850
 6753TIP3    H141818   3.691   2.737   1.891 -0.3332 -0.6087  0.1443
 6753TIP3    H241819   3.689   2.688   1.748  1.0783 -0.6005  0.1080
 6754TIP3   OH241820   5.132   3.585   1.875 -0.9184  0.1008  0.7541
 6754TIP3    H141821   5.099   3.651   1.814  0.7620  0.7433  0.4768
 6754TIP3    H241822   5.165   3.636   1.950 -2.3636 -0.6377  1.9512
 6755TIP3   OH241823   0.197   2.058   3.126  0.5716  0.1941  0.5250
 6755TIP3    H141824   0.210   1.968   3.097 -0.9930 -0.4023  1.5424
 6755TIP3    H241825   0.158   2.050   3.213  0.7574  1.8742  0.8087
 6756TIP3   OH241826   2.922   6.203   8.504 -0.0679  0.1561  0.3449
 6756TIP3    H141827   2.928   6.257   8.583 -1.7485  0.3250  0.4035
 6756TIP3    H241828   2.830   6.177   8.500  1.0330 -5.0598  1.8342
 6757TIP3   OH241829   6.076   2.586   8.617 -0.6076  0.3267 -0.4439
 6757TIP3    H141830   6.094   2.510   8.562 -1.5484 -0.4759  0.3254
 6757TIP3    H241831   6.012   2.637   8.566  0.2702  0.8000 -1.1055
 6758TIP3   OH241832   5.919   3.892   2.499 -0.3687 -0.3852 -0.4444
 6758TIP3    H141833   5.882   3.901   2.587 -1.0469 -0.0071 -0.7576
 6758TIP3    H241834   5.876   3.814   2.463  0.9991 -1.4270  0.0717
 6759TIP3   OH241835   2.242   6.662   2.093 -0.0246 -0.2899  0.0933
 6759TIP3    H141836   2.230   6.738   2.149  0.3874 -0.1069 -0.0589
 6759TIP3    H241837   2.221   6.693   2.005  0.4862 -0.2527 -0.0200
 6760TIP3   OH241838   0.490   3.684   2.210  0.4466  0.3947  0.5572
 6760TIP3    H141839   0.583   3.708   2.211  1.0449 -1.7161  0.6859
 6760TIP3    H241840   0.449   3.750   2.155  2.0625  1.2568  0.3205
 6761TIP3   OH241841   4.558   1.809   0.405  0.5902 -0.2804 -0.0576
 6761TIP3    H141842   4.610   1.788   0.482 -1.4353 -0.4975  1.3303
 6761TIP3    H241843   4.581   1.899   0.384  0.7951 -0.0321  1.1520
 6762TIP3   OH241844   4.504   0.596   1.882  0.5866 -0.0127 -0.2426
 6762TIP3    H141845   4.513   0.547   1.964  0.4424 -2.2693 -1.4700
 6762TIP3    H241846   4.411   0.616   1.876  0.7380  0.9888  0.5577
 6763TIP3   OH241847   5.033   2.167   2.013 -0.1959  0.2688  0.1272
 6763TIP3    H141848   4.939   2.168   2.027 -0.0071  0.4443  1.5230
 6763TIP3    H241849   5.046   2.102   1.944 -1.4487  1.3246 -1.1576
 6764TIP3   OH241850   6.222   6.462   2.836  0.7445 -0.5314 -0.2351
 6764TIP3    H141851   6.132   6.439   2.814  1.0515 -0.2017 -1.9242
 6764TIP3    H241852   6.215   6.510   2.919 -0.9018  1.4808 -1.4598
 6765TIP3   OH241853   6.164   3.706   8.765  0.2862  0.0607  0.0709
 6765TIP3    H141854   6.210   3.654   8.831  0.6791 -0.3211 -0.4846
 6765TIP3    H241855   6.186   3.797   8.785  0.0610 -0.0259  0.7133
 6766TIP3   OH241856   6.287   2.832   1.359  0.1393 -0.2770 -0.3281
 6766TIP3    H141857   6.296   2.872   1.273  1.8472 -0.4731 -0.2746
 6766TIP3    H241858   6.250   2.745   1.341  1.8421 -0.8872 -1.0352
 6767TIP3   OH241859   4.515   2.304   2.326 -0.7366 -0.0769  0.0212
 6767TIP3    H141860   4.527   2.297   2.420  0.8485  1.2331 -0.0389
 6767TIP3    H241861   4.569   2.234   2.289 -0.2103  0.3046  0.0549
 6768TIP3   OH241862   0.235   2.580   1.344  0.4231 -0.0900 -0.2431
 6768TIP3    H141863   0.171   2.519   1.380  0.2829  0.0257 -0.2940
 6768TIP3    H241864   0.183   2.655   1.314  0.4476 -0.5244 -1.4345
 6769TIP3   OH241865   3.833   4.476   7.525  0.0249  0.3691 -0.3258
 6769TIP3    H141866   3.838   4.403   7.587  1.1686  2.4998  2.3267
 6769TIP3    H241867   3.740   4.480   7.500 -0.9455  0.4392  2.7788
 6770TIP3   OH241868   5.919   2.477   0.731  0.2775 -0.1482  0.1704
 6770TIP3    H141869   5.927   2.428   0.649  1.6324  0.6594 -0.2165
 6770TIP3    H241870   5.835   2.449   0.767  0.7841 -2.4305 -0.2264
 6771TIP3   OH241871   2.044   2.874   8.382 -0.4792 -0.4844 -0.5173
 6771TIP3    H141872   2.104   2.882   8.308  0.4940 -3.4351 -0.1840
 6771TIP3    H241873   1.964   2.919   8.353  0.8743  1.0209 -2.1203
 6772TIP3   OH241874   5.314   1.568   2.177 -0.4956 -0.6052 -0.1852
 6772TIP3    H141875   5.406   1.586   2.161 -0.1024 -1.1025  1.3020
 6772TIP3    H241876   5.278   1.650   2.210 -0.5220 -0.4701 -0.5575
 6773TIP3   OH241877   3.889   4.455   8.457  0.1580  0.3242  0.3039
 6773TIP3    H141878   3.889   4.398   8.380 -1.6213  1.5700 -0.6785
 6773TIP3    H241879   3.872   4.395   8.530 -1.4073 -0.4898 -0.6641
 6774TIP3   OH241880   6.553   3.026   8.727 -1.1009 -0.8540  0.4372
 6774TIP3    H141881   6.619   3.088   8.697 -2.0351 -0.5839 -1.1365
 6774TIP3    H241882   6.566   3.022   8.822 -0.6867  1.3342  0.5191
 6775TIP3   OH241883   5.415   1.771   7.603 -0.4025 -1.0135 -0.4435
 6775TIP3    H141884   5.371   1.694   7.567 -0.4679 -0.6619 -1.1270
 6775TIP3    H241885   5.482   1.793   7.538  0.4863 -1.2709  0.3699
 6776TIP3   OH241886   6.368   6.725   6.493  0.1643  0.2311 -0.5073
 6776TIP3    H141887   6.291   6.699   6.442  0.9514 -1.3293 -0.9703
 6776TIP3    H241888   6.432   6.656   6.475  0.6528 -0.1281  2.2421
 6777TIP3   OH241889   6.374   5.011   7.654  0.4748  0.2880  0.0883
 6777TIP3    H141890   6.278   5.014   7.658  0.4578  0.4388 -0.4659
 6777TIP3    H241891   6.395   5.028   7.563  1.0001 -0.5145  0.0517
 6778TIP3   OH241892   4.420   0.583   7.499  0.3762 -0.0397 -0.4414
 6778TIP3    H141893   4.512   0.558   7.487  0.9920  1.4098  0.8910
 6778TIP3    H241894   4.382   0.577   7.411  1.6215 -1.1115 -0.9320
 6779TIP3   OH241895   1.221   2.843   7.692 -0.0188 -0.2701 -0.5259
 6779TIP3    H141896   1.201   2.928   7.654 -1.1659  0.6079  1.8419
 6779TIP3    H241897   1.168   2.781   7.642 -1.4535  0.8184 -0.4012
 6780TIP3   OH241898   5.384   3.008   0.121  0.4300  0.2035  0.0710
 6780TIP3    H141899   5.345   2.923   0.140  0.3817  0.2232  0.0624
 6780TIP3    H241900   5.400   3.047   0.207  1.7861 -0.4089  0.1013
 6781TIP3   OH241901   0.028   5.790   7.366 -0.4008  0.2992 -0.7628
 6781TIP3    H141902   0.048   5.706   7.408 -0.5291  0.3424 -0.6160
 6781TIP3    H241903   0.093   5.850   7.400 -1.6066  0.7806  0.7910
 6782TIP3   OH241904   4.922   5.376   0.109  0.1109  0.1608 -0.1009
 6782TIP3    H141905   4.991   5.426   0.153 -0.7792 -0.4431  2.1327
 6782TIP3    H241906   4.891   5.433   0.039  0.4690  1.9469  1.1317
 6783TIP3   OH241907   2.480   3.337   8.502  0.0612  0.3554 -0.8148
 6783TIP3    H141908   2.478   3.431   8.483 -1.4453 -0.1753 -3.9507
 6783TIP3    H241909   2.403   3.302   8.456  0.1704 -2.3402  0.8620
 6784TIP3   OH241910   0.977   2.491   1.401 -0.6775  0.5599 -0.3045
 6784TIP3    H141911   0.899   2.464   1.450 -0.1822 -0.7561 -0.1973
 6784TIP3    H241912   1.011   2.410   1.363  0.2850  1.2090 -0.8749
 6785TIP3   OH241913   4.785   5.655   0.055  0.5161 -0.0712 -0.0015
 6785TIP3    H141914   4.712   5.629  -0.002  0.1335  1.4239 -0.2539
 6785TIP3    H241915   4.788   5.588   0.123 -1.1104 -0.1824  0.0148
 6786TIP3   OH241916   2.005   0.303   7.860  0.0605 -0.6914 -0.6029
 6786TIP3    H141917   1.915   0.312   7.829  0.0470 -0.8476 -0.6085
 6786TIP3    H241918   2.029   0.213   7.839 -0.8515 -1.6956  2.1948
 6787TIP3   OH241919   1.050   0.522   8.074  0.3111 -0.3203 -0.2695
 6787TIP3    H141920   1.120   0.535   8.139  0.1891  0.2111 -0.2365
 6787TIP3    H241921   1.094   0.530   7.990  0.1263  1.1042 -0.2600
 6788TIP3   OH241922   0.610   0.220   2.335 -0.3923 -0.1419  0.1903
 6788TIP3    H141923   0.646   0.205   2.422 -1.0469 -0.6557  0.3804
 6788TIP3    H241924   0.530   0.167   2.333  0.0961 -0.8737 -1.0402
 6789TIP3   OH241925   1.944   3.762   8.536  0.2849 -0.0041  0.9038
 6789TIP3    H141926   1.874   3.720   8.585  2.5445 -2.5482  2.2275
 6789TIP3    H241927   2.025   3.730   8.577  2.2674  1.2335 -1.7279
 6790TIP3   OH241928   6.181   0.435   7.809  0.2364  0.1784 -0.4401
 6790TIP3    H141929   6.206   0.362   7.752 -0.8397 -0.0512 -0.6465
 6790TIP3    H241930   6.120   0.396   7.872 -1.0601  1.0380 -1.1053
 6791TIP3   OH241931   4.215   6.593   1.639 -0.4222 -0.2347  0.3616
 6791TIP3    H141932   4.178   6.614   1.724  1.8138 -2.5816  2.0661
 6791TIP3    H241933   4.197   6.500   1.627 -0.7567  0.0566 -1.8019
 6792TIP3   OH241934   2.379   5.612   0.446 -0.1135  0.2216 -0.2634
 6792TIP3    H141935   2.312   5.579   0.506  0.0879 -1.6671 -1.0182
 6792TIP3    H241936   2.332   5.625   0.363  0.3729 -0.8486 -0.7193
 6793TIP3   OH241937   5.768   5.843   2.560  0.2085 -0.0956 -0.2397
 6793TIP3    H141938   5.755   5.757   2.599 -0.5452 -0.1132 -0.5163
 6793TIP3    H241939   5.833   5.829   2.491  1.6932 -0.0333  1.0871
 6794TIP3   OH241940   0.178   4.827   7.518 -0.0610  0.0415  0.7745
 6794TIP3    H141941   0.146   4.878   7.443 -0.3897 -1.5870 -0.2673
 6794TIP3    H241942   0.101   4.817   7.575 -0.1556  0.1995  0.6749
 6795TIP3   OH241943   2.673   2.309   1.772  0.4959  0.2578 -0.3994
 6795TIP3    H141944   2.760   2.341   1.796 -0.2690  2.0244  0.2115
 6795TIP3    H241945   2.681   2.283   1.680  2.6124 -3.3205  0.5864
 6796TIP3   OH241946   4.963   2.453   1.887 -0.2156 -0.0927 -0.3745
 6796TIP3    H141947   4.987   2.375   1.936  0.6321 -0.5655 -1.4999
 6796TIP3    H241948   4.874   2.436   1.856 -1.2808  0.7357  1.9673
 6797TIP3   OH241949   2.831   3.755   2.028 -0.1985  0.2652  0.2821
 6797TIP3    H141950   2.746   3.733   2.066  0.0487 -0.9102  0.1671
 6797TIP3    H241951   2.872   3.811   2.094 -0.4602 -0.3706  1.0001
 6798TIP3   OH241952   5.618   2.677   2.769 -0.1143  0.3610  0.0347
 6798TIP3    H141953   5.570   2.721   2.838  0.8916  2.0769 -0.3201
 6798TIP3    H241954   5.702   2.723   2.763 -0.7704  1.4522 -3.4162
 6799TIP3   OH241955   0.034   0.485   7.497 -0.4044 -0.2166  0.1193
 6799TIP3    H141956   0.056   0.522   7.582 -3.5570  0.9510  0.5872
 6799TIP3    H241957  -0.016   0.405   7.518 -0.9454 -0.0840 -0.6141
 6800TIP3   OH241958   5.704   5.760   1.988 -0.1110 -0.0877 -0.2303
 6800TIP3    H141959   5.612   5.787   1.991 -0.2937 -0.6970 -0.2000
 6800TIP3    H241960   5.715   5.704   2.065 -0.0829 -1.1375 -0.9858
 6801TIP3   OH241961   2.602   0.295   0.997  0.0528  0.0255  0.1543
 6801TIP3    H141962   2.577   0.387   0.997  0.7753  0.2274  0.6743
 6801TIP3    H241963   2.627   0.277   0.906 -0.2561  0.2991  0.0175
 6802TIP3   OH241964   4.361   3.905   0.296 -0.0871  0.1537  0.0260
 6802TIP3    H141965   4.404   3.823   0.270 -1.4543  0.4448 -3.6683
 6802TIP3    H241966   4.428   3.972   0.284  0.2795 -0.0998  0.5853
 6803TIP3   OH241967   5.134   6.621   0.436  0.6138  0.8022 -0.0450
 6803TIP3    H141968   5.052   6.670   0.433 -0.2585 -0.6599 -1.6849
 6803TIP3    H241969   5.183   6.650   0.359  0.1296 -0.7419 -0.9816
 6804TIP3   OH241970   6.154   3.305   7.954 -0.3341 -0.7186 -0.0834
 6804TIP3    H141971   6.186   3.227   7.999 -1.5444 -1.9273 -1.2299
 6804TIP3    H241972   6.059   3.297   7.958 -0.5132  1.2964  0.7297
 6805TIP3   OH241973   3.702   3.350   2.524 -0.5686 -0.1820 -0.0396
 6805TIP3    H141974   3.771   3.283   2.520  0.4717  0.6527  2.2150
 6805TIP3    H241975   3.622   3.303   2.501  0.4158 -1.7223 -0.4738
 6806TIP3   OH241976   2.347   6.701   8.553  0.1587 -0.4391  0.6233
 6806TIP3    H141977   2.264   6.747   8.540  0.9578  0.5200 -1.4214
 6806TIP3    H241978   2.321   6.611   8.574 -1.3930 -0.0848  0.3508
 6807TIP3   OH241979   3.256   2.660   8.334 -0.5670 -0.0765  0.4699
 6807TIP3    H141980   3.278   2.752   8.321 -0.8018 -0.2841 -1.9081
 6807TIP3    H241981   3.169   2.650   8.294 -0.1436 -1.4921 -0.1612
 6808TIP3   OH241982   3.946   1.286   2.022 -0.4236  0.7929 -0.0287
 6808TIP3    H141983   3.873   1.244   1.976  1.3831 -0.1776 -2.1803
 6808TIP3    H241984   3.996   1.329   1.953  2.9694 -1.5323  0.7448
 6809TIP3   OH241985   1.070   1.928   0.557  0.0698  0.1397  0.0341
 6809TIP3    H141986   1.089   1.992   0.626  0.5709  1.1208 -0.9753
 6809TIP3    H241987   1.152   1.919   0.509 -0.7088  0.8525 -1.5204
 6810TIP3   OH241988   4.940   5.409   2.489 -0.4655 -0.0386  0.3620
 6810TIP3    H141989   4.985   5.348   2.548  0.7555 -0.3737 -0.8482
 6810TIP3    H241990   4.960   5.376   2.401  0.0360  1.9755 -0.3317
 6811TIP3   OH241991   0.390   5.069   1.394  0.3567  0.1844 -0.2966
 6811TIP3    H141992   0.417   5.154   1.359  0.0620  1.0139  1.3706
 6811TIP3    H241993   0.312   5.046   1.344  0.1619  1.1439 -0.4556
 6812TIP3   OH241994   4.933   2.752   0.302  0.3497 -0.1611  0.3746
 6812TIP3    H141995   4.994   2.820   0.333  0.8988 -0.2123 -0.5533
 6812TIP3    H241996   4.953   2.676   0.356  2.5889 -0.8238 -1.2264
 6813TIP3   OH241997   6.570   3.439   1.180  0.1894  0.0725  0.3728
 6813TIP3    H141998   6.622   3.374   1.133 -0.1635 -2.2022  2.8893
 6813TIP3    H241999   6.629   3.472   1.248 -0.2847  0.9202  0.3888
 6814TIP3   OH242000   0.360   1.620   2.867  0.5302  0.7019 -0.3565
 6814TIP3    H142001   0.291   1.627   2.933 -0.8630  2.7102 -1.8979
 6814TIP3    H242002   0.369   1.526   2.852  0.3695  0.2221  2.0898
 6815TIP3   OH242003   3.214   3.972   8.430 -0.2190 -0.0525 -0.3245
 6815TIP3    H142004   3.232   3.887   8.470  2.0564 -0.0082 -1.1187
 6815TIP3    H242005   3.240   3.962   8.338 -1.1820  1.1113 -0.7487
 6816TIP3   OH242006   6.108   1.415   8.768  1.3601 -0.4122  0.1768
 6816TIP3    H142007   6.023   1.373   8.774  1.2599 -0.3282 -0.5200
 6816TIP3    H242008   6.107   1.482   8.837  1.2926 -1.1356  0.8897
 6817TIP3   OH242009   6.448   0.509   7.536  0.3968  1.0127  0.4383
 6817TIP3    H142010   6.521   0.571   7.531  0.5313  1.0288  2.0527
 6817TIP3    H242011   6.469   0.442   7.470  0.3793  2.5039 -1.1443
 6818TIP3   OH242012   3.985   3.757   7.329 -0.3785 -0.1668  0.0936
 6818TIP3    H142013   4.016   3.692   7.266  0.9506  0.6564 -0.1468
 6818TIP3    H242014   3.937   3.821   7.276  1.2032  0.8174 -0.2223
 6819TIP3   OH242015   3.044   5.112   8.757 -0.7865  0.0165  0.0136
 6819TIP3    H142016   3.067   5.196   8.797  1.1384  1.2676 -3.3358
 6819TIP3    H242017   3.066   5.047   8.825  1.1347  2.0002  1.4390
 6820TIP3   OH242018   5.121   0.271   0.937  0.3192 -0.3363 -0.7804
 6820TIP3    H142019   5.199   0.250   0.988 -1.0263  0.0839  1.6065
 6820TIP3    H242020   5.080   0.343   0.984 -1.4911 -0.4923 -1.9961
 6821TIP3   OH242021   0.978   4.347   0.498  0.2978 -0.0603  0.0119
 6821TIP3    H142022   0.982   4.428   0.549 -1.2729  0.3667 -0.4876
 6821TIP3    H242023   1.010   4.372   0.411 -0.8987  0.2511 -0.3646
 6822TIP3   OH242024   0.473   3.681   2.508  0.1916 -0.2494 -0.2543
 6822TIP3    H142025   0.554   3.678   2.559  0.5168 -1.9979 -0.8040
 6822TIP3    H242026   0.424   3.754   2.545  1.5062  0.0962  0.8807
 6823TIP3   OH242027   1.367   6.743   7.593 -0.2179 -0.2300  0.2473
 6823TIP3    H142028   1.419   6.814   7.630 -0.6597  0.0954  0.2562
 6823TIP3    H242029   1.285   6.745   7.642 -0.1460 -0.9010  0.4057
 6824TIP3   OH242030   2.303   5.248   2.793 -0.8569  0.1510 -0.2299
 6824TIP3    H142031   2.231   5.287   2.841 -0.0782  0.6098  0.6069
 6824TIP3    H242032   2.359   5.210   2.861 -0.3775 -0.3021 -0.8678
 6825TIP3   OH242033   1.200   2.083   1.962  0.1542 -0.3054  0.3012
 6825TIP3    H142034   1.213   1.992   1.990  0.2897 -0.2524  0.4104
 6825TIP3    H242035   1.138   2.119   2.026 -1.0530 -0.7393 -0.5777
 6826TIP3   OH242036   3.970   3.169   2.861  0.6846  0.0185  0.1154
 6826TIP3    H142037   4.016   3.197   2.940  1.0834 -0.7339  0.1601
 6826TIP3    H242038   4.006   3.224   2.791  0.0891  0.9187  0.5049
 6827TIP3   OH242039   6.747   6.199   7.644  0.0660  0.0566 -0.0413
 6827TIP3    H142040   6.772   6.286   7.674 -0.4362  0.7178 -1.4237
 6827TIP3    H242041   6.653   6.205   7.630  0.2648 -0.1516 -1.7426
 6828TIP3   OH242042   5.812   4.853   7.466  0.1512 -0.2200 -0.0084
 6828TIP3    H142043   5.719   4.834   7.450 -0.2837  0.1036  1.8834
 6828TIP3    H242044   5.839   4.788   7.531  0.4680  1.3318  1.4979
 6829TIP3   OH242045   3.307   5.678   1.573 -0.1483 -0.2586  0.0156
 6829TIP3    H142046   3.212   5.693   1.565 -0.1477  0.2985  0.8805
 6829TIP3    H242047   3.315   5.598   1.624 -0.1597  0.3331  0.9558
 6830TIP3   OH242048   0.546   0.540   1.687  0.3517  0.0319  0.0066
 6830TIP3    H142049   0.547   0.446   1.669 -1.2094  0.1053 -0.6532
 6830TIP3    H242050   0.594   0.579   1.613  1.3412 -0.2457  0.4811
 6831TIP3   OH242051   6.215   4.021   1.599  0.3128 -0.2268  0.5641
 6831TIP3    H142052   6.162   3.946   1.572 -0.1142 -0.8621  2.9930
 6831TIP3    H242053   6.222   4.014   1.694  1.2087  2.2073  0.7638
 6832TIP3   OH242054   4.205   5.360   1.735 -0.2029 -0.3894  0.2362
 6832TIP3    H142055   4.216   5.400   1.821  0.9234  0.3310 -0.2193
 6832TIP3    H242056   4.212   5.266   1.751  1.3960 -0.2054  0.7540
 6833TIP3   OH242057   4.423   2.728   7.857 -0.1964  0.5502  0.2903
 6833TIP3    H142058   4.430   2.757   7.766  0.0060  0.8127  0.3876
 6833TIP3    H242059   4.382   2.642   7.852  1.0169 -0.0151 -0.1393
 6834TIP3   OH242060   2.286   6.201   0.774 -0.3640  0.3809  0.3159
 6834TIP3    H142061   2.264   6.117   0.813  0.1859  0.0650 -0.0507
 6834TIP3    H242062   2.225   6.263   0.815 -1.3385 -0.3267 -0.0468
 6835TIP3   OH242063   6.088   0.985   1.608  0.6893 -0.3381  0.1838
 6835TIP3    H142064   6.008   1.027   1.639  0.8915 -0.0262  0.2831
 6835TIP3    H242065   6.103   0.913   1.670  0.7909 -0.0528  0.4915
 6836TIP3   OH242066   5.014   3.317   0.792  0.2231  0.3754  0.4526
 6836TIP3    H142067   5.059   3.274   0.719 -0.1210  0.6805  0.0615
 6836TIP3    H242068   4.966   3.247   0.835  1.2780 -0.0181  1.0448
 6837TIP3   OH242069   5.925   2.580   2.250 -0.1277  0.2062 -0.1779
 6837TIP3    H142070   5.993   2.512   2.245 -0.5466 -0.1972 -0.4753
 6837TIP3    H242071   5.908   2.604   2.159 -0.5798  0.1077 -0.1192
 6838TIP3   OH242072   0.313   2.792   7.028  0.1368 -0.2425  0.2064
 6838TIP3    H142073   0.283   2.706   7.057  3.5473 -1.6127  0.1206
 6838TIP3    H242074   0.233   2.845   7.022 -1.9675 -3.0744  1.2398
 6839TIP3   OH242075   5.806   6.254   0.485 -0.1640 -0.0311 -0.0838
 6839TIP3    H142076   5.765   6.171   0.509  0.9143 -0.7442 -0.5795
 6839TIP3    H242077   5.776   6.317   0.551 -0.1575 -1.0642  0.9282
 6840TIP3   OH242078   4.266   4.544   7.121  0.2299 -0.1022 -0.0847
 6840TIP3    H142079   4.325   4.620   7.120 -0.4101  0.4961  2.0285
 6840TIP3    H242080   4.178   4.582   7.125 -0.2853 -0.9888 -1.8192
 6841TIP3   OH242081   0.501   2.953   7.887 -0.2619  0.0525 -0.2021
 6841TIP3    H142082   0.463   2.954   7.975 -0.5537  0.2100 -0.3267
 6841TIP3    H242083   0.545   2.868   7.880 -1.6039 -0.6556 -0.4709
 6842TIP3   OH242084   5.853   4.601   0.798 -0.0723  0.1595 -0.6760
 6842TIP3    H142085   5.943   4.634   0.800 -0.0109 -0.0127 -0.1719
 6842TIP3    H242086   5.801   4.673   0.765 -0.0308  0.9974  0.9835
 6843TIP3   OH242087   1.238   3.153   8.448 -0.4406  0.3457  0.1683
 6843TIP3    H142088   1.176   3.082   8.463  0.5535 -0.5934 -0.0507
 6843TIP3    H242089   1.298   3.119   8.382 -0.5250  1.7713 -0.6800
 6844TIP3   OH242090   4.682   1.398   1.510 -0.3222  0.2850 -1.1759
 6844TIP3    H142091   4.678   1.490   1.486 -0.0617  0.5823 -0.1246
 6844TIP3    H242092   4.773   1.373   1.497  0.2006  0.8897  0.9812
 6845TIP3   OH242093   3.970   5.089   8.167  0.0755  0.1543  0.1342
 6845TIP3    H142094   3.938   5.083   8.257  0.1930  1.1087  0.2518
 6845TIP3    H242095   3.970   5.183   8.148  2.5568  0.1981  0.0431
 6846TIP3   OH242096   6.749   6.126   2.959  0.2656 -0.5497  0.1394
 6846TIP3    H142097   6.808   6.095   2.891 -0.5867  0.2419 -0.9972
 6846TIP3    H242098   6.752   6.222   2.952 -3.8201 -0.3541 -2.4841
 6847TIP3   OH242099   6.558   5.904   6.879 -0.9290 -0.3266 -0.2614
 6847TIP3    H142100   6.525   5.832   6.933 -0.1015  0.0112  0.7116
 6847TIP3    H242101   6.616   5.954   6.936  1.3584 -0.9258 -1.8938
 6848TIP3   OH242102   2.362   0.755   8.155  0.2232  0.5208 -0.5940
 6848TIP3    H142103   2.293   0.737   8.219  1.8987 -1.2807  0.8255
 6848TIP3    H242104   2.376   0.672   8.110  0.5765  1.2087 -1.8088
 6849TIP3   OH242105   3.925   6.146   8.234  0.3139  0.9278 -0.0020
 6849TIP3    H142106   3.849   6.090   8.245 -0.2364  1.7927  0.7175
 6849TIP3    H242107   3.945   6.142   8.140 -0.9642  1.1406 -0.2944
 6850TIP3   OH242108   4.479   4.158   1.288 -0.0767  0.5122 -0.2391
 6850TIP3    H142109   4.405   4.150   1.227  0.1568  0.9863 -0.5893
 6850TIP3    H242110   4.555   4.131   1.237 -0.1913 -1.5772  0.5915
 6851TIP3   OH242111   2.223   0.339   7.289 -0.0699  0.8118 -0.3137
 6851TIP3    H142112   2.142   0.312   7.332 -0.3568 -2.2191 -2.3866
 6851TIP3    H242113   2.292   0.289   7.334  0.3353  1.6055 -0.0472
 6852TIP3   OH242114   5.764   6.584   1.713  0.2971 -0.0006 -0.2031
 6852TIP3    H142115   5.704   6.632   1.655 -2.1754 -1.0677  1.3045
 6852TIP3    H242116   5.795   6.650   1.775  0.5075  0.5058 -0.8272
 6853TIP3   OH242117   3.230   0.764   7.410 -0.1031  0.0117 -0.2649
 6853TIP3    H142118   3.178   0.742   7.333 -0.4298  0.5440 -0.1998
 6853TIP3    H242119   3.303   0.816   7.376  1.7542 -2.6558 -0.6920
 6854TIP3   OH242120   1.110   4.168   1.069 -0.4302 -0.3780 -0.0125
 6854TIP3    H142121   1.133   4.137   0.982  1.1606 -1.6417  0.7924
 6854TIP3    H242122   1.151   4.255   1.075  0.7180 -0.8999 -0.0386
 6855TIP3   OH242123   0.890   1.066   0.161  0.3247 -0.0887 -0.2049
 6855TIP3    H142124   0.810   1.078   0.212 -0.4664  0.9905 -1.6436
 6855TIP3    H242125   0.871   0.991   0.104  0.3319  0.2028 -0.5869
 6856TIP3   OH242126   5.180   5.622   8.147  0.2404  0.9287  0.1583
 6856TIP3    H142127   5.111   5.616   8.082 -0.6576 -1.6823  1.2050
 6856TIP3    H242128   5.260   5.639   8.097 -0.8068  1.6551 -1.3086
 6857TIP3   OH242129   4.662   2.087   8.586 -0.3301 -0.5040 -0.2617
 6857TIP3    H142130   4.681   1.997   8.560  1.0966 -0.0182 -0.9796
 6857TIP3    H242131   4.746   2.132   8.582 -1.1944  1.1375 -0.9864
 6858TIP3   OH242132   6.470   0.787   1.751 -0.2921  0.5462  0.0453
 6858TIP3    H142133   6.496   0.740   1.830  1.2451  0.8604 -0.2458
 6858TIP3    H242134   6.385   0.749   1.727  0.0692 -0.7993  0.8165
 6859TIP3   OH242135   1.600   0.015   8.080 -0.1015 -0.0679  0.1614
 6859TIP3    H142136   1.637  -0.073   8.085 -0.7883 -0.4467 -1.0591
 6859TIP3    H242137   1.505   0.002   8.086 -0.1927  0.6216  0.3106
 6860TIP3   OH242138   3.235   4.760   7.063 -0.8120 -0.1508  0.2142
 6860TIP3    H142139   3.236   4.727   6.973  1.9110  2.1783 -0.7632
 6860TIP3    H242140   3.186   4.842   7.057  0.7565  0.8415  0.4441
 6861TIP3   OH242141   4.886   6.209   7.063  0.0557 -0.4825 -0.2019
 6861TIP3    H142142   4.851   6.278   7.006  1.9340 -0.2387 -1.1456
 6861TIP3    H242143   4.888   6.131   7.008 -1.0644 -1.0583  0.5388
 6862TIP3   OH242144   2.876   1.066   7.894  0.2106 -0.1835  0.5676
 6862TIP3    H142145   2.808   0.998   7.897  0.2169 -0.2347 -0.2743
 6862TIP3    H242146   2.828   1.147   7.877  0.0083  0.3343  3.2532
 6863TIP3   OH242147   0.799   2.029   8.041  0.1492 -0.0605  0.2252
 6863TIP3    H142148   0.880   2.068   8.076 -0.9692  2.9242 -0.1867
 6863TIP3    H242149   0.729   2.082   8.078 -1.4328 -0.5980 -1.7913
 6864TIP3   OH242150   4.192   6.308   1.227 -0.2891 -0.1078 -0.3144
 6864TIP3    H142151   4.218   6.398   1.206 -1.5421  0.8263  1.7170
 6864TIP3    H242152   4.190   6.306   1.323  0.0331 -2.4283 -0.3000
 6865TIP3   OH242153   1.542   2.758   2.181 -0.1487  0.0833  0.0293
 6865TIP3    H142154   1.596   2.824   2.226 -1.0989  1.0040 -0.1193
 6865TIP3    H242155   1.475   2.735   2.246  0.0634 -0.5971  0.0083
 6866TIP3   OH242156   1.899   0.885   1.495  0.3952 -0.1204 -0.8777
 6866TIP3    H142157   1.991   0.857   1.491  0.8416  1.1338  0.0943
 6866TIP3    H242158   1.884   0.931   1.412  0.8419  0.2344 -0.7649
 6867TIP3   OH242159   1.900   2.201   7.325 -0.2706 -0.3853  0.0281
 6867TIP3    H142160   1.842   2.201   7.248 -0.4620  1.4117  0.1158
 6867TIP3    H242161   1.857   2.143   7.388 -1.2248 -0.2297 -0.4594
 6868TIP3   OH242162   3.359   3.632   2.575  0.1897 -0.3204 -0.3132
 6868TIP3    H142163   3.391   3.719   2.550 -0.6830  0.3872  0.9545
 6868TIP3    H242164   3.268   3.630   2.546 -1.0111  0.6911  2.9382
 6869TIP3   OH242165   2.073   5.454   1.413 -0.1349  0.6864  0.8128
 6869TIP3    H142166   2.002   5.394   1.434  0.4083 -0.9563 -1.5871
 6869TIP3    H242167   2.047   5.493   1.330  0.3908  2.4076  1.4202
 6870TIP3   OH242168   2.890   4.384   7.986  0.2150 -0.0925  0.3965
 6870TIP3    H142169   2.926   4.401   8.073  0.7791 -2.0799  0.5932
 6870TIP3    H242170   2.934   4.305   7.956 -3.3257 -2.2876  0.3283
 6871TIP3   OH242171   3.032   3.152   1.802  0.0338  0.4199  0.1252
 6871TIP3    H142172   3.066   3.219   1.742 -0.3526  0.4947 -0.0177
 6871TIP3    H242173   2.960   3.196   1.847 -0.0024  0.2047  0.2758
 6872TIP3   OH242174   2.565   3.630   0.000 -0.3731  0.4588  0.1905
 6872TIP3    H142175   2.512   3.667  -0.070  2.0114  2.4176 -0.7033
 6872TIP3    H242176   2.521   3.659   0.081 -1.9722 -0.0459 -0.4581
 6873TIP3   OH242177   4.117   4.947   1.516  0.2026  0.0100  0.0867
 6873TIP3    H142178   4.122   4.879   1.583  1.5911  0.1882  0.1982
 6873TIP3    H242179   4.197   4.936   1.464 -0.6289  0.1692 -1.2668
 6874TIP3   OH242180   0.450   4.700   0.376  0.2040  0.4767 -0.4097
 6874TIP3    H142181   0.363   4.737   0.363  0.3294  0.5895 -0.9389
 6874TIP3    H242182   0.510   4.769   0.348  0.4341 -0.6467 -2.9679
 6875TIP3   OH242183   5.837   6.379   8.171 -0.2172 -0.2554 -0.2638
 6875TIP3    H142184   5.750   6.414   8.186  0.2178  0.7223  0.0682
 6875TIP3    H242185   5.865   6.346   8.257  0.6157  1.5201  0.2012
 6876TIP3   OH242186   2.693   3.044   7.913  0.2177 -0.6815 -0.1054
 6876TIP3    H142187   2.622   2.989   7.878  0.4050 -0.1954 -1.3280
 6876TIP3    H242188   2.737   2.990   7.978 -0.8162 -1.2589  0.1334
 6877TIP3   OH242189   3.278   6.693   1.808  0.2246  0.3734 -0.0578
 6877TIP3    H142190   3.242   6.722   1.891  2.7760  0.4858  1.0794
 6877TIP3    H242191   3.225   6.616   1.785  0.9480 -1.1245  2.9088
 6878TIP3   OH242192   3.599   0.447   8.657 -0.1298 -1.2261 -0.1047
 6878TIP3    H142193   3.606   0.356   8.630 -1.1123 -1.3827  0.1128
 6878TIP3    H242194   3.556   0.443   8.743 -1.1665 -0.5106 -0.5779
 6879TIP3   OH242195   0.647   4.967   1.874 -0.7952 -0.5049  0.1558
 6879TIP3    H142196   0.665   5.057   1.846  0.8166 -0.7015  0.4416
 6879TIP3    H242197   0.638   4.917   1.793 -1.4836 -0.1358 -0.0005
 6880TIP3   OH242198   2.583   6.633   2.067 -0.5042 -0.3304 -0.3651
 6880TIP3    H142199   2.568   6.713   2.017 -1.2366 -1.3917 -1.9059
 6880TIP3    H242200   2.608   6.664   2.154 -0.8213  1.5649 -0.9027
 6881TIP3   OH242201   4.478   5.444   1.604 -0.2052  0.1035  0.9052
 6881TIP3    H142202   4.464   5.383   1.531  0.7204  0.1282  0.7001
 6881TIP3    H242203   4.398   5.436   1.656 -0.6878 -0.2610  0.1433
 6882TIP3   OH242204   4.254   6.429   0.860 -0.1635 -0.5288 -0.4216
 6882TIP3    H142205   4.206   6.366   0.806 -0.1206 -1.9638  1.1064
 6882TIP3    H242206   4.207   6.430   0.943  1.4697 -0.7299  0.5552
 6883TIP3   OH242207   1.826   5.234   2.276 -0.2829  0.2199 -0.2513
 6883TIP3    H142208   1.889   5.200   2.340  0.5009  1.1183 -0.5249
 6883TIP3    H242209   1.860   5.207   2.191 -1.0209 -0.4818 -0.3390
 6884TIP3   OH242210   0.686   4.522   2.363  0.6778 -0.6430 -0.2259
 6884TIP3    H142211   0.698   4.512   2.269 -0.9341 -2.3917 -0.2905
 6884TIP3    H242212   0.699   4.616   2.379  0.3568 -0.2139 -2.2601
 6885TIP3   OH242213   0.710   2.354   0.842 -0.4044 -0.1547  0.1631
 6885TIP3    H142214   0.655   2.432   0.840 -0.7594 -0.4085 -0.2053
 6885TIP3    H242215   0.790   2.380   0.797 -0.8530 -0.2415 -0.7055
 6886TIP3   OH242216   1.360   5.576   7.474  0.3419  0.0078  0.3417
 6886TIP3    H142217   1.400   5.524   7.544 -0.2718 -0.8578  0.0561
 6886TIP3    H242218   1.283   5.526   7.447 -0.7318  1.4418  0.6009
 6887TIP3   OH242219   3.303   3.192   0.936 -0.1130 -0.0200 -0.0448
 6887TIP3    H142220   3.355   3.120   0.901  1.6323  0.2814  1.7752
 6887TIP3    H242221   3.349   3.219   1.016 -3.6240 -0.4679  2.3521
 6888TIP3   OH242222   1.238   0.300   7.631  1.0512 -0.3430 -0.7357
 6888TIP3    H142223   1.277   0.339   7.553 -0.7633  1.0503 -1.0143
 6888TIP3    H242224   1.161   0.253   7.599  1.0598 -0.9298  0.0702
 6889TIP3   OH242225   2.823   6.077   0.127 -0.1820  0.3205 -0.1645
 6889TIP3    H142226   2.766   6.146   0.093 -1.2412 -0.0802  0.7586
 6889TIP3    H242227   2.883   6.122   0.187 -1.5273  0.3268  1.2236
 6890TIP3   OH242228   2.755   1.902   1.530 -0.0216  0.0911 -0.2311
 6890TIP3    H142229   2.803   1.966   1.582 -1.2516  0.9678 -0.1090
 6890TIP3    H242230   2.663   1.925   1.545 -0.5375 -2.1386  0.3557
 6891TIP3   OH242231   5.369   2.349   1.366  0.3795 -0.2793 -0.4041
 6891TIP3    H142232   5.293   2.293   1.349 -1.1216  0.9001  1.9275
 6891TIP3    H242233   5.396   2.381   1.280 -1.4428 -1.1325 -1.3365
 6892TIP3   OH242234   0.295   5.019   1.641 -0.7533 -0.4231  0.6340
 6892TIP3    H142235   0.365   5.047   1.582 -0.3657  1.5547  1.9336
 6892TIP3    H242236   0.215   5.024   1.587 -0.0975 -1.3482 -0.4643
 6893TIP3   OH242237   2.390   5.866   2.599 -0.6479  0.5073 -0.3586
 6893TIP3    H142238   2.310   5.822   2.628 -0.6358  0.5719 -0.2243
 6893TIP3    H242239   2.418   5.917   2.675 -0.7815  0.9148 -0.5731
 6894TIP3   OH242240   1.597   4.833   1.149 -0.2412  0.2654 -0.2749
 6894TIP3    H142241   1.604   4.896   1.077  0.9748  0.4723 -0.0058
 6894TIP3    H242242   1.512   4.792   1.137 -1.0989  2.0004 -0.4201
 6895TIP3   OH242243   4.888   6.591   0.131  0.6205  0.0338 -0.1512
 6895TIP3    H142244   4.963   6.639   0.097  1.8923 -1.8381 -0.1654
 6895TIP3    H242245   4.902   6.589   0.226 -0.6942  1.6836  0.1020
 6896TIP3   OH242246   4.457   6.281   7.265  0.2058 -0.1705 -0.4325
 6896TIP3    H142247   4.470   6.235   7.182 -1.5778 -0.3453 -0.6488
 6896TIP3    H242248   4.504   6.364   7.255 -0.0286 -0.1723 -1.6428
 6897TIP3   OH242249   5.285   1.805   1.127 -0.2758 -0.1340  0.0937
 6897TIP3    H142250   5.278   1.835   1.218 -0.1162  1.4522 -0.3879
 6897TIP3    H242251   5.277   1.710   1.133 -0.9876 -0.0163  1.6944
 6898TIP3   OH242252   1.091   2.188   1.739  0.2579 -0.0882 -0.3433
 6898TIP3    H142253   1.074   2.278   1.768  2.1503  0.4616 -0.8003
 6898TIP3    H242254   1.137   2.147   1.812  0.2092 -0.4017 -0.4866
 6899TIP3   OH242255   4.926   5.078   0.809  0.3275 -0.2786 -0.3297
 6899TIP3    H142256   4.943   5.153   0.865  1.2954 -2.0021  1.8045
 6899TIP3    H242257   4.861   5.027   0.856 -2.4615  0.4502 -3.0163
 6900TIP3   OH242258   6.825   5.293   0.665  0.2801  0.5700  0.3780
 6900TIP3    H142259   6.837   5.199   0.652 -1.2508  0.4275 -0.2304
 6900TIP3    H242260   6.825   5.331   0.577 -1.9250  0.7129  0.3638
 6901TIP3   OH242261   6.537   1.751   7.901  0.3386 -0.6959  0.3472
 6901TIP3    H142262   6.452   1.749   7.857  0.3516 -2.0709  0.3387
 6901TIP3    H242263   6.541   1.670   7.951  1.2411 -0.1867  1.1574
 6902TIP3   OH242264   0.549   4.944   0.345 -0.4011  0.1825 -0.2881
 6902TIP3    H142265   0.530   4.911   0.433  0.0472  0.9617  0.1193
 6902TIP3    H242266   0.621   5.006   0.358  1.4765 -1.5922 -1.5669
 6903TIP3   OH242267   4.918   4.411   2.358  0.5708 -0.3585  0.5754
 6903TIP3    H142268   4.824   4.429   2.352  0.6453 -0.3579 -3.4480
 6903TIP3    H242269   4.926   4.317   2.343  1.2150  0.0135 -1.9343
 6904TIP3   OH242270   4.521   0.250   0.294  0.0287  0.4086  0.0145
 6904TIP3    H142271   4.498   0.195   0.220  0.0015 -2.4907  2.0291
 6904TIP3    H242272   4.443   0.252   0.349  1.1544 -0.7152  1.7686
 6905TIP3   OH242273   1.025   1.348   0.652 -0.0971 -0.3414  0.0779
 6905TIP3    H142274   1.053   1.325   0.741  0.2045  1.1050  0.3826
 6905TIP3    H242275   1.090   1.307   0.595  0.6188  0.0111  0.6121
 6906TIP3   OH242276   1.019   6.491   1.229 -0.0478  0.1010 -0.0394
 6906TIP3    H142277   1.103   6.480   1.184 -0.2790 -2.5606 -0.0239
 6906TIP3    H242278   0.954   6.491   1.158 -0.2039 -0.8833  0.0909
 6907TIP3   OH242279   5.649   3.129   0.444  0.5619  0.1366  0.4222
 6907TIP3    H142280   5.703   3.207   0.434  1.3926 -0.0514  2.8532
 6907TIP3    H242281   5.712   3.057   0.447 -0.0127 -0.3484  0.8755
 6908TIP3   OH242282   5.033   1.596   7.315  0.1916 -0.1412  0.3292
 6908TIP3    H142283   4.972   1.670   7.316  0.3847  0.0209  1.0141
 6908TIP3    H242284   5.022   1.557   7.229 -3.3094 -2.1471  1.4717
 6909TIP3   OH242285   5.920   3.709   7.530  0.1025  0.2494  0.7715
 6909TIP3    H142286   5.880   3.646   7.470  1.4764 -0.0327  0.1248
 6909TIP3    H242287   5.945   3.657   7.606  2.4503 -0.3249 -0.3050
 6910TIP3   OH242288   3.131   4.573   7.875  0.1634  0.1771 -0.1040
 6910TIP3    H142289   3.076   4.591   7.952  1.3092  1.0347  0.5473
 6910TIP3    H242290   3.211   4.624   7.891  0.3106  0.5950 -2.0131
 6911TIP3   OH242291   2.099   1.539   2.789  0.2831  0.4113 -0.1228
 6911TIP3    H142292   2.008   1.554   2.815  0.2328 -0.1161  0.0170
 6911TIP3    H242293   2.120   1.613   2.733  0.0398  0.9836  0.5281
 6912TIP3   OH242294   1.108   5.887   1.891  0.0247  0.2019 -0.1041
 6912TIP3    H142295   1.176   5.825   1.918  1.5689  0.5345 -2.7937
 6912TIP3    H242296   1.026   5.849   1.922  1.3204 -0.6419  2.5459
 6913TIP3   OH242297   1.648   4.906   7.932 -0.2127  0.2025 -0.6993
 6913TIP3    H142298   1.576   4.865   7.981  0.6803 -2.0912 -1.1942
 6913TIP3    H242299   1.669   4.843   7.864  2.1860  0.8723 -0.6574
 6914TIP3   OH242300   2.465   3.671   2.988  0.4274 -0.8627 -0.6244
 6914TIP3    H142301   2.429   3.746   2.941 -0.1132 -0.6295  0.1525
 6914TIP3    H242302   2.449   3.597   2.929  1.8392 -0.2570 -1.8260
 6915TIP3   OH242303   3.363   0.337   0.832  0.2231 -0.5722 -0.4158
 6915TIP3    H142304   3.279   0.381   0.823 -0.3363 -1.7579 -1.1934
 6915TIP3    H242305   3.428   0.408   0.826 -0.7235  0.7973  3.1693
 6916TIP3   OH242306   5.455   4.458   0.025  0.0037 -0.5059  0.3253
 6916TIP3    H142307   5.438   4.550   0.006 -0.0493 -0.6685 -0.4391
 6916TIP3    H242308   5.452   4.415  -0.060 -1.3787 -1.4424  0.8090
 6917TIP3   OH242309   0.070   0.324   1.097 -0.1378 -0.1791 -0.4752
 6917TIP3    H142310   0.112   0.258   1.041 -1.2323 -1.4735  0.1784
 6917TIP3    H242311   0.125   0.402   1.086  0.9009 -1.0229 -1.6791
 6918TIP3   OH242312   5.984   1.326   7.000  0.0208  0.7273 -0.1116
 6918TIP3    H142313   6.055   1.390   6.987 -0.0992  0.9047  0.1017
 6918TIP3    H242314   5.904   1.374   6.981  0.0758 -0.2239 -3.2272
 6919TIP3   OH242315   5.227   2.597   0.360 -0.0362 -0.7427  0.7407
 6919TIP3    H142316   5.162   2.552   0.307 -0.0010 -0.8370  0.7774
 6919TIP3    H242317   5.261   2.666   0.303  2.2012 -2.7180 -0.4673
 6920TIP3   OH242318   0.847   1.418   1.286 -0.0522  0.6915  0.6592
 6920TIP3    H142319   0.838   1.434   1.380  0.0989 -0.8536  0.9635
 6920TIP3    H242320   0.899   1.338   1.281 -0.4915  0.4781 -0.7339
 6921TIP3   OH242321   0.096   4.620   8.043  0.3687 -0.2937 -0.0526
 6921TIP3    H142322   0.138   4.640   7.959 -1.7215 -1.0164 -1.3335
 6921TIP3    H242323   0.104   4.702   8.093  2.5648 -0.1740 -0.4970
 6922TIP3   OH242324   2.980   3.218   0.941 -0.2209  0.8194 -0.2949
 6922TIP3    H142325   3.050   3.266   0.896 -0.1933  1.6197  0.5775
 6922TIP3    H242326   3.016   3.199   1.027 -0.1746 -0.9424 -0.6730
 6923TIP3   OH242327   1.402   6.281   1.536 -0.0521  0.3716 -0.1160
 6923TIP3    H142328   1.345   6.208   1.561 -1.3123  0.6451 -1.9561
 6923TIP3    H242329   1.473   6.280   1.600 -1.7348 -0.4611  1.8262
 6924TIP3   OH242330   4.823   5.141   7.370 -0.1477  0.7219  0.5422
 6924TIP3    H142331   4.791   5.101   7.451 -0.7804  1.1270  0.4999
 6924TIP3    H242332   4.918   5.150   7.383 -0.1030 -0.0883  0.8472
 6925TIP3   OH242333   5.630   4.926   0.402 -0.2715  0.0504  0.1770
 6925TIP3    H142334   5.723   4.931   0.421 -0.0988  2.7848 -0.8980
 6925TIP3    H242335   5.588   4.981   0.468 -0.9736 -0.1452 -0.0890
 6926TIP3   OH242336   3.656   3.166   2.840  0.0426 -0.2446  0.0805
 6926TIP3    H142337   3.741   3.197   2.870 -1.0734  0.4221  2.8150
 6926TIP3    H242338   3.658   3.071   2.854  0.3593 -0.2431  0.0470
 6927TIP3   OH242339   1.158   4.623   1.946 -0.2657 -0.5616  0.5004
 6927TIP3    H142340   1.085   4.569   1.977 -0.5251 -0.3250  0.3106
 6927TIP3    H242341   1.121   4.711   1.939 -0.3876 -0.7115 -1.0366
 6928TIP3   OH242342   1.030   4.060   1.332  0.1318 -0.1718  0.4013
 6928TIP3    H142343   1.030   3.966   1.315 -1.2895 -0.0926 -0.1918
 6928TIP3    H242344   1.039   4.100   1.245  0.0603  0.2410  0.5832
 6929TIP3   OH242345   0.910   6.775   1.864  0.2096 -0.1660 -0.3624
 6929TIP3    H142346   0.917   6.727   1.947  0.5252 -1.8590 -1.3394
 6929TIP3    H242347   0.992   6.756   1.818  0.2267  1.1145 -0.9092
 6930TIP3   OH242348   0.061   3.438   2.573 -0.1650  0.2636  1.0016
 6930TIP3    H142349   0.030   3.526   2.551 -0.9261 -1.0044 -4.6245
 6930TIP3    H242350   0.155   3.441   2.560 -0.4264 -0.0548 -1.7376
 6931TIP3   OH242351   2.882   1.761   1.177  0.7411 -0.2331 -0.6549
 6931TIP3    H142352   2.889   1.748   1.272 -0.5431  1.6472 -0.2544
 6931TIP3    H242353   2.833   1.685   1.146  0.5528 -0.5036  0.2903
 6932TIP3   OH242354   2.019   1.144   1.971  0.3703  0.0537 -0.2521
 6932TIP3    H142355   1.981   1.149   1.884  0.9436 -1.4036 -0.6053
 6932TIP3    H242356   1.954   1.186   2.028 -0.8874 -0.6679 -1.1038
 6933TIP3   OH242357   3.937   3.480   0.999  0.6991  0.1418  0.6796
 6933TIP3    H142358   3.945   3.489   0.904 -0.3410  0.0356  0.5642
 6933TIP3    H242359   3.905   3.565   1.028 -1.0875 -0.4544  0.6330
 6934TIP3   OH242360   5.900   5.474   1.948  0.1231 -0.6399  0.5816
 6934TIP3    H142361   5.976   5.439   1.901 -0.4124 -1.1756  0.0994
 6934TIP3    H242362   5.839   5.500   1.879  0.2958  0.8015  0.9412
 6935TIP3   OH242363   1.283   2.816   1.971  0.2922 -0.0555 -0.0758
 6935TIP3    H142364   1.316   2.736   2.012 -0.9757  0.1167  1.3839
 6935TIP3    H242365   1.221   2.786   1.904  0.0934 -0.3061  0.2185
 6936TIP3   OH242366   2.598   0.700   1.967  0.1312  0.2785 -0.0054
 6936TIP3    H142367   2.555   0.783   1.948  0.1885  0.8673  2.1804
 6936TIP3    H242368   2.551   0.666   2.043  1.9864 -0.2168  0.9708
 6937TIP3   OH242369   4.874   2.252   8.695 -0.1739  0.4331 -0.9068
 6937TIP3    H142370   4.907   2.342   8.686 -2.1716  1.1451 -1.4818
 6937TIP3    H242371   4.906   2.224   8.781 -1.6039  2.6530  0.4440
 6938TIP3   OH242372   3.941   6.515   8.727  0.2852  0.0131 -0.3291
 6938TIP3    H142373   3.895   6.438   8.760  1.5247  0.1245  1.8719
 6938TIP3    H242374   3.873   6.583   8.724 -0.1072 -0.2542  1.2541
 6939TIP3   OH242375   1.276   4.416   1.008 -0.1469  0.7907 -0.8246
 6939TIP3    H142376   1.317   4.503   1.011 -0.3434  0.8683 -0.2789
 6939TIP3    H242377   1.341   4.357   1.045 -1.3166  1.2452  2.2450
 6940TIP3   OH242378   2.594   3.505   2.586  0.3220  0.1695  0.1508
 6940TIP3    H142379   2.556   3.590   2.609  2.3504  0.7258  1.7901
 6940TIP3    H242380   2.679   3.526   2.546 -0.2828 -1.0545 -1.9499
 6941TIP3   OH242381   1.023   3.939   0.630 -0.8736  0.0311  0.4786
 6941TIP3    H142382   1.014   3.846   0.649 -1.7902 -0.1117 -0.5630
 6941TIP3    H242383   1.036   3.943   0.535 -0.0088  0.9218  0.6188
 6942TIP3   OH242384   3.673   2.405   7.974  0.0281 -0.0351  0.2656
 6942TIP3    H142385   3.715   2.483   8.011  0.6116 -0.4350  0.4617
 6942TIP3    H242386   3.693   2.410   7.881  0.0384  0.0668  0.2723
 6943TIP3   OH242387   6.753   2.142   0.360 -0.0348  0.0257  0.5295
 6943TIP3    H142388   6.829   2.097   0.397  1.3975  0.8229 -1.2860
 6943TIP3    H242389   6.710   2.182   0.436  1.0915 -0.8122  1.6540
 6944TIP3   OH242390   5.324   6.219   8.580  0.5632 -0.0207  0.3053
 6944TIP3    H142391   5.416   6.220   8.608  1.7522  1.1178 -3.1541
 6944TIP3    H242392   5.316   6.139   8.527  0.1493  0.8834 -1.0394
 6945TIP3   OH242393   2.823   6.291   7.065 -0.0907 -0.3504  0.0319
 6945TIP3    H142394   2.807   6.197   7.065  1.2491 -0.6033  0.8742
 6945TIP3    H242395   2.911   6.301   7.103 -0.0766  1.2142 -0.3324
 6946TIP3   OH242396   5.635   4.316   1.582  0.8173 -0.2698 -0.1041
 6946TIP3    H142397   5.668   4.252   1.645  0.2398  0.8746  1.4231
 6946TIP3    H242398   5.540   4.309   1.589  0.6879 -1.2695 -2.1033
 6947TIP3   OH242399   4.505   5.822   6.825  0.5467 -0.2739 -0.1193
 6947TIP3    H142400   4.470   5.854   6.908  0.2897 -1.3904  0.2134
 6947TIP3    H242401   4.592   5.861   6.819  0.5206 -0.0965  0.6203
 6948TIP3   OH242402   6.098   2.471   8.173 -0.1252  0.1087  0.2360
 6948TIP3    H142403   6.045   2.395   8.198  0.0921 -0.1132  0.0351
 6948TIP3    H242404   6.148   2.441   8.097  0.1410  0.3769  0.3028
 6949TIP3   OH242405   3.855   4.116   8.381 -0.1426  0.2076 -0.0514
 6949TIP3    H142406   3.824   4.032   8.348  0.2386  0.1086 -0.1648
 6949TIP3    H242407   3.783   4.149   8.435  0.6399 -1.3434  2.0612
 6950TIP3   OH242408   3.276   4.925   1.857  0.4782 -0.0068  0.1770
 6950TIP3    H142409   3.184   4.939   1.879  0.3408  0.7044 -0.7754
 6950TIP3    H242410   3.286   4.965   1.770  1.5663 -0.5140  0.0550
 6951TIP3   OH242411   1.504   2.130   2.116  0.2704 -0.7321  0.2182
 6951TIP3    H142412   1.538   2.218   2.102 -1.3135 -0.1012  0.1475
 6951TIP3    H242413   1.468   2.132   2.205 -1.9224 -0.5348 -0.6272
 6952TIP3   OH242414   5.265   2.250   2.839  0.3290 -0.5607 -0.1835
 6952TIP3    H142415   5.315   2.330   2.820 -0.6763  1.2593  3.8654
 6952TIP3    H242416   5.174   2.277   2.835 -0.1582 -2.1968 -1.0784
 6953TIP3   OH242417   5.679   0.843   2.721 -0.0161  0.3075  0.1481
 6953TIP3    H142418   5.760   0.865   2.675  0.3860  1.2182  1.2562
 6953TIP3    H242419   5.689   0.750   2.743 -0.7420 -0.5010 -2.5938
 6954TIP3   OH242420   0.702   2.182   2.339  0.0130  0.3700  0.5883
 6954TIP3    H142421   0.621   2.232   2.334 -1.0468 -1.0037  2.7496
 6954TIP3    H242422   0.731   2.191   2.430  1.0141 -1.0794  0.4519
 6955TIP3   OH242423   3.932   2.282   1.235  0.6420 -0.2248  0.5094
 6955TIP3    H142424   4.023   2.268   1.261  0.8606  0.1043 -0.0642
 6955TIP3    H242425   3.933   2.276   1.140  0.0658 -0.1944  0.4961
 6956TIP3   OH242426   0.031   1.430   2.014 -0.3293  0.0763  0.1380
 6956TIP3    H142427   0.058   1.517   1.986 -0.9640  0.6514  1.2201
 6956TIP3    H242428  -0.049   1.412   1.965  0.4945 -0.4616 -1.0391
 6957TIP3   OH242429   6.445   4.118   1.462 -0.1359  0.5269 -0.2333
 6957TIP3    H142430   6.462   4.066   1.384 -1.9838  0.5273 -0.6946
 6957TIP3    H242431   6.355   4.095   1.487 -0.2526  1.9402  0.7730
 6958TIP3   OH242432   0.229   3.803   1.300  0.7102  0.5744 -0.2998
 6958TIP3    H142433   0.280   3.821   1.379  2.1319 -2.2758 -0.4203
 6958TIP3    H242434   0.180   3.723   1.321 -0.3564  0.8269 -1.6692
 6959TIP3   OH242435   4.253   1.854   7.557  0.1912  0.0272  0.2585
 6959TIP3    H142436   4.279   1.920   7.621  1.8257 -0.2020 -0.1250
 6959TIP3    H242437   4.335   1.826   7.517 -0.5383 -1.7338 -0.0907
 6960TIP3   OH242438   0.509   5.524   7.253  0.1141 -0.3330 -0.3180
 6960TIP3    H142439   0.568   5.450   7.242 -0.1480 -0.4287 -1.1744
 6960TIP3    H242440   0.423   5.485   7.263 -0.0889 -0.1454 -1.2267
 6961TIP3   OH242441   6.450   3.046   7.967 -0.7849  0.3944  0.0831
 6961TIP3    H142442   6.497   3.129   7.978 -0.8127  0.1420  2.4907
 6961TIP3    H242443   6.517   2.979   7.976 -1.0023  0.1084 -0.4087
 6962TIP3   OH242444   1.044   3.965   2.975  1.0360 -0.1267 -0.2146
 6962TIP3    H142445   0.974   3.948   2.912  0.5052 -1.2089  0.6309
 6962TIP3    H242446   1.119   3.914   2.943 -0.0194 -2.8504  1.3664
 6963TIP3   OH242447   1.443   4.435   0.521  0.2909 -0.7145  0.1077
 6963TIP3    H142448   1.461   4.470   0.434 -1.6242 -1.4523 -0.6355
 6963TIP3    H242449   1.500   4.359   0.528  0.1330 -0.9223 -0.7050
 6964TIP3   OH242450   5.786   4.096   0.965 -0.2276 -0.1547 -0.1742
 6964TIP3    H142451   5.752   4.006   0.973  0.8855 -0.5201  0.7431
 6964TIP3    H242452   5.718   4.151   1.004 -0.6001 -0.6780 -0.0716
 6965TIP3   OH242453   0.114   1.653   1.858 -0.2570 -0.2078  0.5010
 6965TIP3    H142454   0.060   1.724   1.823  0.9802  0.0461 -1.0037
 6965TIP3    H242455   0.189   1.698   1.898  0.7573 -0.6035 -0.8453
 6966TIP3   OH242456   0.200   6.646   1.292 -0.3671  0.6505 -0.7311
 6966TIP3    H142457   0.274   6.652   1.353 -1.0695  0.5955  0.1503
 6966TIP3    H242458   0.172   6.736   1.280 -0.0627  0.6877 -1.2025
 6967TIP3   OH242459   0.061   5.052   1.546 -0.0001 -0.7870 -0.2173
 6967TIP3    H142460  -0.009   4.996   1.512 -1.3216  1.3456 -1.2469
 6967TIP3    H242461   0.018   5.135   1.564  1.8199 -0.1532  1.5516
 6968TIP3   OH242462   5.612   1.656   1.128 -0.5562 -0.6732 -0.2191
 6968TIP3    H142463   5.549   1.679   1.197  0.0633 -0.0022  0.1417
 6968TIP3    H242464   5.697   1.661   1.171 -0.1363  0.0656 -1.1109
 6969TIP3   OH242465   0.794   5.353   1.409  0.2663 -0.6219 -0.0265
 6969TIP3    H142466   0.729   5.383   1.345 -0.0551 -1.5716 -0.1669
 6969TIP3    H242467   0.833   5.433   1.444 -1.2993 -0.0165  0.3903
 6970TIP3   OH242468   3.417   2.210   0.497 -0.2404 -0.2861 -0.6430
 6970TIP3    H142469   3.415   2.284   0.436  1.1434 -0.2452 -0.6718
 6970TIP3    H242470   3.385   2.247   0.580  0.8536  0.4885 -0.5374
 6971TIP3   OH242471   4.949   3.416   1.046  0.0924  0.4541 -0.5442
 6971TIP3    H142472   4.939   3.332   1.090  1.7747  0.3840 -0.2360
 6971TIP3    H242473   4.938   3.396   0.953 -1.4024  0.2472 -0.3500
 6972TIP3   OH242474   2.304   6.753   2.927 -0.2086  0.0648  0.0313
 6972TIP3    H142475   2.219   6.715   2.906 -0.2024  0.1767 -0.1897
 6972TIP3    H242476   2.367   6.692   2.889 -0.2049  1.4767 -2.3927
 6973TIP3   OH242477   6.345   2.848   7.091  0.2463  0.5241 -0.1977
 6973TIP3    H142478   6.357   2.798   7.172 -0.2238  1.6198  0.5800
 6973TIP3    H242479   6.317   2.934   7.121 -0.1538  0.8813 -1.5568
 6974TIP3   OH242480   2.553   5.297   7.743  0.0494 -0.6556 -0.1672
 6974TIP3    H142481   2.591   5.211   7.726  0.0167 -0.8613  0.7490
 6974TIP3    H242482   2.460   5.286   7.725  0.1201 -0.6844 -0.5134
 6975TIP3   OH242483   5.533   6.680   1.917  0.2626 -0.6010 -0.2780
 6975TIP3    H142484   5.590   6.612   1.951  0.5485 -0.2419 -0.0412
 6975TIP3    H242485   5.449   6.665   1.961  0.9850  0.6821  1.6366
 6976TIP3   OH242486   1.419   1.303   8.425 -0.2879 -0.8875 -0.2686
 6976TIP3    H142487   1.437   1.333   8.336 -1.5355 -0.9963 -0.5761
 6976TIP3    H242488   1.352   1.235   8.414 -1.2764 -0.1399  0.8215
 6977TIP3   OH242489   1.644   1.286   0.871 -0.2062 -0.0927 -0.3178
 6977TIP3    H142490   1.553   1.309   0.854 -0.2572 -2.0491 -3.5305
 6977TIP3    H242491   1.680   1.264   0.785  3.7870  1.9514  0.5556
 6978TIP3   OH242492   6.193   4.434   0.873 -0.2387  0.3525 -0.7395
 6978TIP3    H142493   6.113   4.390   0.845  0.8895 -0.7920 -2.3327
 6978TIP3    H242494   6.174   4.527   0.860 -1.7153  0.1876  0.0780
 6979TIP3   OH242495   2.821   0.016   0.712  0.0182 -0.2194  0.4533
 6979TIP3    H142496   2.806   0.007   0.806 -1.2691  2.5174  0.6086
 6979TIP3    H242497   2.901   0.068   0.705  2.3295 -3.5686 -0.1541
 6980TIP3   OH242498   4.005   0.834   0.034 -0.2990 -0.0277 -0.2234
 6980TIP3    H142499   4.028   0.793  -0.050  2.6424 -0.7832  0.8438
 6980TIP3    H242500   4.023   0.927   0.021  0.3163 -0.1649 -0.3739
 6981TIP3   OH242501   0.909   1.451   0.251  0.0477  0.4788 -0.0949
 6981TIP3    H142502   0.865   1.399   0.184  1.1706 -0.5735 -0.0569
 6981TIP3    H242503   0.995   1.470   0.213  1.7156 -2.3059  1.9639
 6982TIP3   OH242504   2.929   0.859   1.034 -0.5896  0.2620 -0.0086
 6982TIP3    H142505   2.883   0.942   1.048  0.4544  0.7015  1.0126
 6982TIP3    H242506   2.952   0.860   0.941 -3.3346 -0.3813 -0.7834
 6983TIP3   OH242507   5.066   2.189   7.151 -0.0335 -0.2614  0.3720
 6983TIP3    H142508   5.015   2.121   7.107  0.9839 -0.7845 -0.0207
 6983TIP3    H242509   5.071   2.260   7.087  1.7718 -1.1702 -0.5633
 6984TIP3   OH242510   1.626   4.190   2.121 -0.1288 -0.1660 -0.3164
 6984TIP3    H142511   1.627   4.206   2.215  0.2461  0.5043 -0.4244
 6984TIP3    H242512   1.716   4.166   2.099  0.2842  1.6392 -0.7965
 6985TIP3   OH242513   4.487   5.971   8.697  0.4139 -0.2326 -0.0238
 6985TIP3    H142514   4.449   6.021   8.769  1.1909 -1.6008  1.4083
 6985TIP3    H242515   4.413   5.950   8.640  0.0400  2.3991 -0.6663
 6986TIP3   OH242516   5.871   1.126   7.498 -0.5653  0.4932  0.2193
 6986TIP3    H142517   5.857   1.100   7.407  1.4277  1.1676 -0.3294
 6986TIP3    H242518   5.915   1.051   7.538 -2.4880 -0.2732  0.9920
 6987TIP3   OH242519   4.309   5.404   8.541 -0.2279  0.5252 -0.0773
 6987TIP3    H142520   4.320   5.491   8.580  0.3654 -0.4547  2.0906
 6987TIP3    H242521   4.396   5.365   8.544 -0.4540 -0.1139 -1.1709
 6988TIP3   OH242522   3.025   6.606   0.828 -0.2098 -0.4084 -0.2963
 6988TIP3    H142523   3.120   6.606   0.823 -0.1431  1.9233 -0.0293
 6988TIP3    H242524   2.996   6.658   0.753 -1.0991  1.1290  1.0290
 6989TIP3   OH242525   0.154   5.470   2.209 -0.0015 -0.5336  0.6071
 6989TIP3    H142526   0.060   5.466   2.224  0.3890 -1.2090  3.3039
 6989TIP3    H242527   0.182   5.378   2.206  0.3729 -0.4210 -2.2052
 6990TIP3   OH242528   2.818   5.421   7.020 -0.6122 -0.3170  0.2876
 6990TIP3    H142529   2.763   5.355   6.978 -0.6381  0.1738 -0.4615
 6990TIP3    H242530   2.895   5.427   6.964 -0.9933  0.9016 -0.1442
 6991TIP3   OH242531   2.665   3.623   0.397 -0.5205  0.7260  0.3038
 6991TIP3    H142532   2.581   3.668   0.408 -1.6223 -1.4201  1.3277
 6991TIP3    H242533   2.674   3.570   0.476  1.4386  0.3278 -0.1430
 6992TIP3   OH242534   2.245   5.582   2.858  0.2746  0.2784 -0.0172
 6992TIP3    H142535   2.198   5.498   2.859  1.1958 -0.3388 -2.3972
 6992TIP3    H242536   2.226   5.618   2.772  1.1463  1.8037  0.4041
 6993TIP3   OH242537   3.059   3.635   7.145  0.0975 -0.2029  0.4994
 6993TIP3    H142538   3.141   3.635   7.194 -0.1207 -1.6330  0.9121
 6993TIP3    H242539   3.009   3.563   7.183 -2.0104  1.5924  1.3157
 6994TIP3   OH242540   6.226   5.242   2.026  0.0352 -0.0857 -0.4506
 6994TIP3    H142541   6.292   5.301   2.062 -0.6866  0.4546  0.0177
 6994TIP3    H242542   6.220   5.171   2.090  1.0911 -0.8131 -1.1436
 6995TIP3   OH242543   3.390   3.770   1.347 -0.3297 -0.1344 -0.1990
 6995TIP3    H142544   3.318   3.802   1.293 -0.8402 -1.5967 -0.4267
 6995TIP3    H242545   3.348   3.745   1.430 -0.5539 -3.2103 -1.1444
 6996TIP3   OH242546   0.230   2.785   1.011  0.0401 -0.3912 -0.1195
 6996TIP3    H142547   0.266   2.872   0.999  0.3679 -0.3897  0.8442
 6996TIP3    H242548   0.137   2.795   0.991 -0.3261  0.6283  1.8944
 6997TIP3   OH242549   3.285   2.880   0.398 -0.2191  0.3989  0.3791
 6997TIP3    H142550   3.241   2.962   0.375  0.6759  1.1594  1.2800
 6997TIP3    H242551   3.217   2.826   0.438 -1.1847  0.0670 -1.5834
 6998TIP3   OH242552   4.116   5.789   0.760  0.8331  0.0911 -0.6471
 6998TIP3    H142553   4.132   5.882   0.772  3.6813 -0.2555 -1.0053
 6998TIP3    H242554   4.029   5.784   0.722  0.2466  2.5206  0.2209
 6999TIP3   OH242555   0.979   6.134   8.679  0.5131 -0.1088 -0.0507
 6999TIP3    H142556   1.058   6.175   8.713  0.4827 -0.4647  0.4495
 6999TIP3    H242557   0.946   6.081   8.751 -1.3840  1.6828  0.5076
 7000TIP3   OH242558   0.472   0.848   8.186 -0.2352  0.0315  0.0370
 7000TIP3    H142559   0.562   0.851   8.155 -0.6972  2.0823 -1.2876
 7000TIP3    H242560   0.469   0.909   8.259 -0.5839  0.0461  0.0148
 7001TIP3   OH242561   0.270   1.290   8.348  0.7556 -0.5758  0.7798
 7001TIP3    H142562   0.231   1.271   8.434 -0.5679 -1.8156 -0.0409
 7001TIP3    H242563   0.324   1.214   8.329  0.8819 -0.3994  0.4206
 7002TIP3   OH242564   6.727   0.361   0.536 -0.1700 -0.3192  0.0005
 7002TIP3    H142565   6.821   0.346   0.545  0.1790  1.1596 -0.7521
 7002TIP3    H242566   6.709   0.346   0.443 -0.1711  1.6587 -0.3671
 7003TIP3   OH242567   1.594   3.539   0.554 -0.8676  0.1891 -0.3209
 7003TIP3    H142568   1.555   3.452   0.556 -2.0330  0.6847  2.0205
 7003TIP3    H242569   1.654   3.537   0.479 -0.3495 -2.8019  0.0604
 7004TIP3   OH242570   5.870   5.996   1.016  0.1381  0.1640  0.0841
 7004TIP3    H142571   5.948   5.994   1.072 -0.1557  0.1387  0.5015
 7004TIP3    H242572   5.798   6.011   1.077 -0.1653  0.3565 -0.3205
 7005TIP3   OH242573   6.273   3.626   0.677 -0.6631  0.5447  0.0964
 7005TIP3    H142574   6.292   3.614   0.770 -1.4850 -2.8694 -0.0442
 7005TIP3    H242575   6.351   3.594   0.632 -1.1356  0.0259 -0.3733
 7006TIP3   OH242576   0.931   3.896   8.760  0.1443  0.4450  0.3977
 7006TIP3    H142577   0.967   3.954   8.828  1.4290  1.4047 -1.0247
 7006TIP3    H242578   0.949   3.808   8.792 -1.5494  0.7731  2.4620
 7007TIP3   OH242579   0.145   5.894   0.196 -0.4196 -0.6747 -0.1339
 7007TIP3    H142580   0.196   5.869   0.273 -0.4711 -1.3790 -0.3256
 7007TIP3    H242581   0.073   5.832   0.193  1.2758 -2.7452 -2.5203
 7008TIP3   OH242582   4.581   4.996   0.391  0.3512  0.1517 -0.2994
 7008TIP3    H142583   4.608   4.914   0.349  2.2793 -0.1038  1.2656
 7008TIP3    H242584   4.585   4.978   0.484 -1.1104  1.4942  0.0662
 7009TIP3   OH242585   0.686   4.922   2.536  0.5056  0.3416 -0.1594
 7009TIP3    H142586   0.739   4.887   2.465 -1.6381 -0.5168 -1.4330
 7009TIP3    H242587   0.715   4.875   2.614  1.4609 -0.2206 -0.8410
 7010TIP3   OH242588   1.316   5.182   2.667 -0.2095 -0.4882 -0.4995
 7010TIP3    H142589   1.342   5.125   2.594  0.9700  3.2654 -3.3130
 7010TIP3    H242590   1.382   5.250   2.669 -1.6736  1.0063  2.4407
 7011TIP3   OH242591   0.671   5.216   1.765 -0.1175 -0.4816  0.2962
 7011TIP3    H142592   0.676   5.312   1.763  1.1049 -0.5380 -0.6187
 7011TIP3    H242593   0.682   5.189   1.674  2.0466 -1.5568  0.8046
 7012TIP3   OH242594   1.468   3.758   8.087  0.3850  0.4131  1.2430
 7012TIP3    H142595   1.478   3.848   8.056  1.8557 -0.3085 -0.5529
 7012TIP3    H242596   1.373   3.746   8.095 -0.0904  1.0314 -2.0291
 7013TIP3   OH242597   5.981   3.035   7.943 -0.0091  0.5427 -0.5326
 7013TIP3    H142598   5.897   3.075   7.920 -0.4085  0.3651  0.5535
 7013TIP3    H242599   6.004   3.075   8.027  0.8772  0.4171 -0.7095
 7014TIP3   OH242600   1.329   0.414   2.671  0.3460 -0.0742  0.2889
 7014TIP3    H142601   1.341   0.485   2.735  0.9675 -0.5950  0.7649
 7014TIP3    H242602   1.364   0.337   2.715 -2.0335 -1.1049  0.5329
 7015TIP3   OH242603   0.353   1.779   2.005  0.2898 -0.7284  0.1856
 7015TIP3    H142604   0.431   1.813   1.961 -0.8988 -0.6002 -1.9622
 7015TIP3    H242605   0.380   1.766   2.096  2.8278 -0.8154 -0.5176
 7016TIP3   OH242606   5.088   5.475   1.410 -0.0927  0.1149  0.1503
 7016TIP3    H142607   5.083   5.516   1.496  0.6703 -0.2069  0.3517
 7016TIP3    H242608   5.011   5.418   1.406  0.5245 -0.8191  1.1277
 7017TIP3   OH242609   0.128   4.033   0.088  0.1654  0.7171  0.2537
 7017TIP3    H142610   0.211   4.043   0.133  0.9528 -2.0390 -0.3924
 7017TIP3    H242611   0.142   4.074   0.002  0.6918  0.6981  0.3298
 7018TIP3   OH242612   2.524   5.101   0.879  0.3455  0.1592 -0.5011
 7018TIP3    H142613   2.559   5.185   0.910 -0.3221  0.6366 -1.0300
 7018TIP3    H242614   2.602   5.047   0.865  0.7661  0.5923  0.0958
 7019TIP3   OH242615   6.162   5.307   1.521 -0.3388 -0.3692 -0.1046
 7019TIP3    H142616   6.198   5.316   1.432  0.3512 -3.7876 -0.2863
 7019TIP3    H242617   6.092   5.373   1.525 -0.5008 -0.1951 -3.2230
 7020TIP3   OH242618   1.710   4.512   7.499 -0.1376 -0.0019  0.0282
 7020TIP3    H142619   1.634   4.569   7.515  0.5042  0.9778 -0.3018
 7020TIP3    H242620   1.692   4.470   7.416  0.1577  1.0811 -0.6056
 7021TIP3   OH242621   6.171   2.255   7.884 -0.2814 -0.6086  0.0606
 7021TIP3    H142622   6.211   2.339   7.861 -1.2054 -0.2250 -0.1706
 7021TIP3    H242623   6.087   2.255   7.839 -1.1840 -0.7958  1.6797
 7022TIP3   OH242624   1.329   5.557   8.422 -0.5466 -0.4896  0.6159
 7022TIP3    H142625   1.376   5.639   8.404 -0.9141 -0.6954 -1.4899
 7022TIP3    H242626   1.397   5.494   8.441 -0.2379  0.1743  1.8623
 7023TIP3   OH242627   2.629   1.940   0.496  0.3584 -0.3275  0.1664
 7023TIP3    H142628   2.554   1.920   0.440 -0.0962 -0.7109  0.9044
 7023TIP3    H242629   2.686   1.863   0.487  0.6847 -0.0243 -0.4155
 7024TIP3   OH242630   5.296   2.053   2.645  0.3377  0.4886 -0.1201
 7024TIP3    H142631   5.253   2.112   2.707  0.9952  0.9063 -0.0521
 7024TIP3    H242632   5.226   1.994   2.616 -0.3191  1.2368 -0.1171
 7025TIP3   OH242633   5.486   4.412   7.075  0.0780  0.0022 -0.7792
 7025TIP3    H142634   5.437   4.494   7.085  0.0096 -0.0575 -0.6348
 7025TIP3    H242635   5.424   4.352   7.035 -0.0508 -0.1528 -0.3558
 7026TIP3   OH242636   0.714   0.583   0.169  0.0257 -0.0555 -0.4087
 7026TIP3    H142637   0.800   0.571   0.130  0.7780  0.6590  0.9377
 7026TIP3    H242638   0.729   0.569   0.263 -1.5170 -0.8313 -0.2479
 7027TIP3   OH242639   5.673   5.990   0.493  0.4111  0.2409  0.1314
 7027TIP3    H142640   5.705   5.932   0.424  0.8199  3.3100 -2.5306
 7027TIP3    H242641   5.580   6.001   0.473  0.4271  0.7749  0.3353
 7028TIP3   OH242642   3.003   3.324   8.718 -0.0417 -0.6559 -0.2617
 7028TIP3    H142643   2.954   3.395   8.676 -0.3470 -1.4548 -1.3003
 7028TIP3    H242644   3.061   3.369   8.780 -0.3083  0.4939 -0.8051
 7029TIP3   OH242645   0.810   0.881   7.722 -0.4106 -0.0119 -0.9624
 7029TIP3    H142646   0.889   0.903   7.672  0.6335  2.4840  1.5332
 7029TIP3    H242647   0.767   0.966   7.736 -1.3479 -0.7875  1.2007
 7030TIP3   OH242648   4.763   2.474   7.755 -0.0287  0.3104 -0.4679
 7030TIP3    H142649   4.769   2.556   7.706 -1.6258  1.2891  0.8722
 7030TIP3    H242650   4.703   2.419   7.705 -1.9655  1.4536  0.5052
 7031TIP3   OH242651   5.986   2.355   0.006 -0.0013  0.1819  0.3666
 7031TIP3    H142652   5.940   2.409  -0.058 -0.1265  0.9703  1.0996
 7031TIP3    H242653   6.038   2.294  -0.047  0.1188  0.9955 -0.4899
 7032TIP3   OH242654   1.700   0.716   2.222 -0.9663  0.2767  0.4106
 7032TIP3    H142655   1.752   0.757   2.291 -0.8812 -1.3996  1.3873
 7032TIP3    H242656   1.745   0.741   2.141  2.2274 -2.0734  1.2428
 7033TIP3   OH242657   4.525   1.311   2.352 -0.0720  0.0938  0.5313
 7033TIP3    H142658   4.531   1.268   2.267 -2.4050 -0.6954  0.6806
 7033TIP3    H242659   4.525   1.405   2.332  0.8105 -0.0510 -0.1829
 7034TIP3   OH242660   6.459   0.024   7.363 -0.2548  0.7081 -0.0377
 7034TIP3    H142661   6.490   0.009   7.274 -1.6839 -0.5766 -0.3516
 7034TIP3    H242662   6.368   0.052   7.353 -1.3297 -2.1046  1.0701
 7035TIP3   OH242663   3.997   4.773   8.327 -0.9107  0.3185  0.0822
 7035TIP3    H142664   4.060   4.843   8.345 -0.0691 -0.4449  0.1641
 7035TIP3    H242665   3.969   4.789   8.237 -0.7203  0.7630  0.1013
 7036TIP3   OH242666   1.395   0.759   8.597  0.2307  0.3336  0.0894
 7036TIP3    H142667   1.300   0.754   8.594  0.2147 -1.0988  1.4534
 7036TIP3    H242668   1.414   0.848   8.627 -0.6482  0.7917 -0.6716
 7037TIP3   OH242669   1.981   1.047   8.258 -0.2448  0.6258 -0.7814
 7037TIP3    H142670   1.925   1.073   8.332 -0.4834 -0.0024 -0.7418
 7037TIP3    H242671   1.989   1.127   8.206  1.8185  1.7527  1.1022
 7038TIP3   OH242672   1.824   3.724   0.811 -0.0306  0.4661 -0.3946
 7038TIP3    H142673   1.827   3.653   0.747  1.1564  1.7089 -1.7935
 7038TIP3    H242674   1.916   3.743   0.830 -0.2279  2.7512 -1.3992
 7039TIP3   OH242675   2.313   0.924   1.461 -0.2511 -0.6483 -0.2470
 7039TIP3    H142676   2.393   0.899   1.508 -0.2608  0.3293  0.3119
 7039TIP3    H242677   2.342   0.991   1.399 -0.3946 -1.3064 -1.0344
 7040TIP3   OH242678   5.387   2.928   1.560 -0.1769 -0.1293  0.2574
 7040TIP3    H142679   5.443   3.004   1.579  1.9728 -1.1183 -1.5933
 7040TIP3    H242680   5.308   2.966   1.521 -0.5523  1.2783  2.2274
 7041TIP3   OH242681   0.729   3.880   1.580 -0.5213  0.0137 -0.1604
 7041TIP3    H142682   0.787   3.957   1.579  0.5984 -0.7894 -1.0853
 7041TIP3    H242683   0.647   3.912   1.616  0.1034  1.5090  0.0257
 7042TIP3   OH242684   5.896   3.619   0.245  0.6823  0.0725 -0.1680
 7042TIP3    H142685   5.952   3.596   0.319 -0.8689 -0.6679  0.8258
 7042TIP3    H242686   5.872   3.535   0.207 -0.5177  0.3166  0.0221
 7043TIP3   OH242687   3.957   4.663   2.286  0.4917  0.2535  0.0619
 7043TIP3    H142688   4.036   4.619   2.315  1.2299  1.1342 -0.5648
 7043TIP3    H242689   3.925   4.709   2.364 -0.4867 -1.6059  0.8219
 7044TIP3   OH242690   5.728   3.162   7.662  0.3892  0.2535  0.1277
 7044TIP3    H142691   5.692   3.226   7.600  1.8790  0.9285 -0.0876
 7044TIP3    H242692   5.692   3.078   7.633 -0.3459  0.7849 -0.5571
 7045TIP3   OH242693   2.184   3.536   0.819  0.6764  0.2150 -0.4308
 7045TIP3    H142694   2.148   3.624   0.834  0.7982  0.4484 -1.4380
 7045TIP3    H242695   2.278   3.550   0.815  0.6033  0.3341 -2.3526
 7046TIP3   OH242696   1.837   1.626   2.850 -0.0285 -0.5851  0.8729
 7046TIP3    H142697   1.854   1.682   2.926  0.5358 -0.1965  0.4605
 7046TIP3    H242698   1.759   1.664   2.810  0.8831  0.4944  0.0575
 7047TIP3   OH242699   0.446   3.797   0.846  0.0202  0.1453  0.3542
 7047TIP3    H142700   0.532   3.836   0.834 -0.0550  0.3863  0.5960
 7047TIP3    H242701   0.463   3.712   0.887  0.1533  0.1097  0.2263
 7048TIP3   OH242702   5.563   0.395   2.509  0.1463  0.4166  0.6934
 7048TIP3    H142703   5.577   0.488   2.492  0.2067  0.2831 -0.0017
 7048TIP3    H242704   5.647   0.353   2.490  0.3086  0.2896  1.6190
 7049TIP3   OH242705   4.387   3.543   7.779 -0.8560 -0.6719 -0.1552
 7049TIP3    H142706   4.429   3.604   7.718 -1.2898 -1.0440 -0.8379
 7049TIP3    H242707   4.452   3.475   7.794 -0.3612 -0.0529  0.6229
 7050TIP3   OH242708   6.778   0.972   0.650 -0.2152  0.2199 -0.5992
 7050TIP3    H142709   6.799   0.880   0.636 -1.7715 -0.2086 -0.2123
 7050TIP3    H242710   6.807   0.990   0.740 -2.4684 -0.7082  0.3890
 7051TIP3   OH242711   3.661   4.351   0.749  0.7220  0.1344  0.5509
 7051TIP3    H142712   3.696   4.264   0.767  4.5885  0.5066 -3.5888
 7051TIP3    H242713   3.646   4.353   0.655 -1.8398  3.1992  0.8292
 7052TIP3   OH242714   6.293   2.213   8.602  0.5584  0.7501 -0.1006
 7052TIP3    H142715   6.214   2.159   8.612  0.4026  1.1312  0.8412
 7052TIP3    H242716   6.280   2.259   8.519 -0.3165  0.9674  0.1402
 7053TIP3   OH242717   2.200   4.593   8.651 -0.2706  0.2520 -0.4408
 7053TIP3    H142718   2.289   4.622   8.670 -0.8756  0.5022  2.5382
 7053TIP3    H242719   2.144   4.662   8.686 -1.6474 -1.6204  1.3116
 7054LIG     O142720   1.731   0.232   1.162  0.2061  0.0104  0.3305
 7054LIG     O242721   1.576   0.420   1.256  0.1885 -0.5098  0.3001
 7054LIG     O342722   1.593   0.275   0.903  0.1233 -0.0071  0.7685
 7054LIG     O442723   1.521   0.614   1.364  0.5845 -0.3187  0.3503
 7054LIG     O542724   1.639   0.566   1.038 -0.2087  0.4460  0.7276
 7054LIG     O642725   1.551   0.856   1.028  0.4280 -0.1059 -0.1684
 7054LIG     O742726   1.557   0.975   1.301 -0.3103  0.4982  0.5441
 7054LIG     O842727   1.553   0.852   1.614 -0.1092  0.0888  0.7137
 7054LIG     O942728   1.348   0.812   1.519  0.5874 -0.4548  0.4682
 7054LIG      N42729   1.599  -0.168   1.405  0.4721 -0.0060  0.0079
 7054LIG     C142730   1.672   0.096   1.333  0.0587  0.2982  1.1415
 7054LIG     C242731   1.594   0.078   1.470 -0.3873 -0.1498 -0.2038
 7054LIG     C342732   1.731   0.238   1.306 -0.1181  0.5391  0.2406
 7054LIG     C442733   1.513  -0.050   1.443 -0.0765  0.7475 -0.3943
 7054LIG     C542734   1.774  -0.021   1.313  0.3940  0.0316  0.8366
 7054LIG     C642735   1.574   0.079   1.220 -0.2918 -0.8190  0.3024
 7054LIG     C742736   1.401  -0.035   1.335  0.3234  0.3452  1.2022
 7054LIG     C842737   1.688  -0.150   1.287  0.2191  0.2943 -0.2847
 7054LIG     C942738   1.639   0.347   1.361 -0.8518 -0.7127  0.5586
 7054LIG    C1042739   1.454   0.022   1.205  0.3716 -0.3263 -0.5137
 7054LIG    C1142740   1.499   0.189   1.510 -0.2907 -0.7235 -0.0213
 7054LIG    C1242741   1.615   0.169   1.119  0.1108  0.1171 -0.3363
 7054LIG    C1342742   1.522   0.311   1.453 -0.0095 -1.0975 -0.4404
 7054LIG    C1442743   1.657  -0.232   1.526 -0.7211 -0.0183  0.4574
 7054LIG    C1542744   1.376   0.045   1.091 -0.4126 -0.5013  0.0186
 7054LIG    C1642745   1.537   0.203   1.008  0.6206  0.7796  0.1858
 7054LIG    C1742746   1.418   0.136   0.986  0.0856 -0.1681 -0.6707
 7054LIG    C1842747   1.603   0.564   1.263  0.3353 -0.1404 -0.5084
 7054LIG    C1942748   1.568   0.631   1.139 -0.1240 -0.4375  0.8643
 7054LIG    C2042749   1.597   0.783   1.150  0.3848 -0.0792 -0.0921
 7054LIG    C2142750   1.517   0.838   1.270  0.0415  0.7702  0.2911
 7054LIG    C2242751   1.548   0.754   1.393  0.0445 -0.4001 -0.3610
 7054LIG    C2342752   1.471   0.807   1.513 -0.0243 -0.0424  0.1369
 7054LIG     H142753   1.659   0.042   1.553 -0.7714 -1.7521 -0.5527
 7054LIG     H242754   1.834   0.255   1.345 -0.9763 -0.4941  3.2038
 7054LIG     H342755   1.471  -0.080   1.541  0.8161 -1.0644 -0.5243
 7054LIG     H442756   1.829  -0.032   1.409  1.3394 -0.3567  0.2543
 7054LIG     H542757   1.834   0.010   1.226 -0.5668  0.2635  0.2445
 7054LIG     H642758   1.320   0.030   1.373  0.8466  0.5153  2.0576
 7054LIG     H742759   1.357  -0.134   1.310  1.2489  0.4210 -0.9251
 7054LIG     H842760   1.634  -0.158   1.190  0.8352  2.1092 -0.8093
 7054LIG     H942761   1.758  -0.236   1.284  0.9368  0.8860 -0.8887
 7054LIG    H1042762   1.703   0.417   1.420 -0.1894 -0.1316 -0.8109
 7054LIG    H1142763   1.411   0.163   1.571 -0.4472 -0.1861 -0.0122
 7054LIG    H1242764   1.449   0.391   1.475  2.0234  0.2463  1.8737
 7054LIG    H1342765   1.746  -0.296   1.505  0.5952  2.0881 -0.7193
 7054LIG    H1442766   1.583  -0.290   1.586  0.1579 -1.7957 -0.1066
 7054LIG    H1542767   1.694  -0.153   1.595 -0.8486 -0.0883  0.6093
 7054LIG    H1642768   1.279  -0.002   1.080 -0.4714  0.1357 -2.8504
 7054LIG    H1742769   1.354   0.145   0.900 -0.3899 -0.3792 -0.3414
 7054LIG    H1842770   1.710   0.587   1.284  1.0962 -1.2991 -2.8501
 7054LIG    H1942771   1.461   0.613   1.116  0.5363 -0.4207 -2.8635
 7054LIG    H2042772   1.702   0.812   1.169  0.5674  0.5668 -1.8404
 7054LIG    H2142773   1.535   0.260   0.828 -0.7355 -1.2621  1.6438
 7054LIG    H2242774   1.411   0.833   1.238 -0.0208 -0.0726  0.5924
 7054LIG    H2342775   1.656   0.759   1.419  0.1105 -0.8223 -0.5401
 7054LIG    H2442776   1.603   0.478   1.025  1.6229 -0.3738  0.9318
 7054LIG    H2542777   1.623   0.915   1.003  1.1584 -0.7512  0.3446
 7054LIG    H2642778   1.546   1.019   1.217 -0.1322 -1.9681 -0.8574
 7054LIG    H2742779   1.497   0.903   1.673  0.4538  1.7175 -0.0927
   6.82840   6.82840   8.77444
