Title
42779
    1SAPS     N    1   5.328   4.534   7.834 -0.0112 -0.4013  0.0874
    1SAPS   HN1    2   5.430   4.523   7.855  0.2917  1.1755 -0.4490
    1SAPS   HN2    3   5.298   4.460   7.767 -0.5412 -0.1607  0.0567
    1SAPS   HN3    4   5.318   4.624   7.782  0.0658 -1.8560 -2.6377
    1SAPS   C12    5   5.259   4.536   7.959  0.6624  0.0022 -0.7812
    1SAPS  H12A    6   5.154   4.549   7.934  0.8707  0.9723 -1.1753
    1SAPS   C13    7   5.280   4.418   8.056  0.3157  0.5566 -0.4683
    1SAPS  O13A    8   5.336   4.315   8.006 -0.5310 -0.1335 -1.0452
    1SAPS  O13B    9   5.220   4.410   8.167 -0.0566  0.0604  0.4125
    1SAPS   C11   10   5.303   4.655   8.044 -0.1359  0.5637 -0.4494
    1SAPS  H11A   11   5.410   4.646   8.071 -0.6913  0.6108  1.9395
    1SAPS  H11B   12   5.244   4.649   8.137 -1.4681  0.1786 -1.2888
    1SAPS     P   13   5.275   4.909   8.047  0.0544  0.4649  0.2055
    1SAPS   O13   14   5.146   4.907   8.121 -0.2559 -0.2750  0.7400
    1SAPS   O14   15   5.397   4.926   8.121  0.2462  0.1832 -0.1492
    1SAPS   O12   16   5.279   4.772   7.973 -0.0366 -0.2051 -0.2933
    1SAPS   O11   17   5.258   5.023   7.934 -0.1747 -0.0508 -0.0207
    1SAPS    C1   18   5.288   4.987   7.795  0.4116 -0.3894  0.3535
    1SAPS    HA   19   5.395   5.012   7.781  0.0353  0.6965 -0.7878
    1SAPS    HB   20   5.264   4.882   7.767  0.3684 -0.8667  2.0850
    1SAPS    C2   21   5.220   5.085   7.692 -0.3700 -0.1199  0.2412
    1SAPS    HS   22   5.253   5.185   7.728 -0.1720  0.4291 -1.3799
    1SAPS   O21   23   5.072   5.072   7.709  0.1082  0.1068  0.1872
    1SAPS   C21   24   4.996   5.126   7.612  0.3113 -0.4261 -0.8718
    1SAPS   O22   25   5.028   5.223   7.552 -0.1767 -0.6484  0.5256
    1SAPS   C22   26   4.854   5.058   7.621 -0.7000  0.3089 -0.3857
    1SAPS   H2R   27   4.841   5.031   7.728 -1.5256  0.0050 -0.5573
    1SAPS   H2S   28   4.768   5.120   7.588 -3.8030 -3.4971 -0.1938
    1SAPS    C3   29   5.273   5.068   7.545 -0.4144 -0.8137 -0.1938
    1SAPS    HX   30   5.384   5.077   7.544 -0.4923  0.3936 -0.0686
    1SAPS    HY   31   5.239   5.154   7.482  0.3149  0.2155  0.7892
    1SAPS   O31   32   5.229   4.940   7.493  0.3023  0.1302 -0.4224
    1SAPS   C31   33   5.310   4.897   7.394 -0.1262 -0.2893  0.7412
    1SAPS   O32   34   5.415   4.953   7.358  0.3703 -0.4678 -0.1677
    1SAPS   C32   35   5.256   4.767   7.333 -0.0827 -0.4568 -0.2617
    1SAPS   H2X   36   5.146   4.775   7.317 -0.5152 -0.9705  2.1108
    1SAPS   H2Y   37   5.274   4.682   7.402 -0.7590 -3.0715 -3.0943
    1SAPS   C23   38   4.863   4.926   7.544 -0.0927  0.4260  0.5589
    1SAPS   H3R   39   4.771   4.868   7.563 -0.0190 -0.5684 -1.8519
    1SAPS   H3S   40   4.949   4.863   7.576  0.2678  0.1643 -0.8672
    1SAPS   C24   41   4.867   4.941   7.391  0.1448 -0.3940 -0.6768
    1SAPS   H4R   42   4.958   4.998   7.361  0.1320 -1.0301 -2.0247
    1SAPS   H4S   43   4.784   5.012   7.368  0.2936 -0.1839 -0.5701
    1SAPS   C25   44   4.853   4.818   7.305  0.3918  0.0662 -0.2001
    1SAPS   H5R   45   4.796   4.737   7.352  0.1948 -0.5901 -1.5178
    1SAPS   C26   46   4.913   4.801   7.188 -0.4154  0.5504  0.1009
    1SAPS   H6R   47   4.871   4.715   7.135  0.6257 -0.2000  0.4648
    1SAPS   C27   48   5.001   4.885   7.108 -0.3456 -0.3429 -0.1540
    1SAPS   H7R   49   5.052   4.817   7.037  1.0778  0.6585 -0.1563
    1SAPS   H7S   50   5.082   4.928   7.172  0.1892  1.5379 -1.9734
    1SAPS   C28   51   4.937   4.994   7.031 -0.3763 -0.4794 -0.4366
    1SAPS   H8R   52   4.832   5.014   7.058  0.1477  2.0689 -0.0286
    1SAPS   C29   53   5.001   5.075   6.941  0.2698 -0.1046 -0.4510
    1SAPS   H9R   54   4.938   5.146   6.886 -0.5600  0.7913  1.5620
    1SAPS  C210   55   5.147   5.069   6.905 -0.8753  0.0140 -0.4178
    1SAPS  H10R   56   5.186   4.967   6.927  0.8332  0.6982 -0.1314
    1SAPS  H10S   57   5.199   5.130   6.982  0.3537 -2.2965  0.7016
    1SAPS  C211   58   5.193   5.120   6.767  0.3603 -0.7710 -0.0412
    1SAPS  H11R   59   5.209   5.229   6.757  1.0146 -0.9384 -0.9705
    1SAPS  C212   60   5.221   5.047   6.658 -0.0759 -0.1338 -0.0579
    1SAPS  H12R   61   5.241   5.099   6.563 -3.1827  0.6760 -0.3784
    1SAPS  C213   62   5.212   4.894   6.661 -0.2727 -0.2225  0.0434
    1SAPS  H13R   63   5.226   4.860   6.766 -2.6268  3.1131  1.6221
    1SAPS  H13S   64   5.300   4.860   6.603 -0.8471  0.6793 -1.4026
    1SAPS  C214   65   5.087   4.831   6.616  0.6843 -0.0271 -0.9390
    1SAPS  H14R   66   4.997   4.884   6.650  1.0630  0.3087 -0.4426
    1SAPS  C215   67   5.058   4.728   6.538 -0.4692  0.3371  0.9633
    1SAPS  H15R   68   4.952   4.714   6.511 -0.3484  0.0333  0.6326
    1SAPS  C216   69   5.161   4.638   6.469 -0.0275 -0.4001  0.4889
    1SAPS  H16R   70   5.121   4.535   6.476  1.4460 -1.0178  0.1993
    1SAPS  H16S   71   5.257   4.655   6.522  0.3303  1.3373 -0.6308
    1SAPS  C217   72   5.170   4.668   6.324  0.4350  0.3602  0.1568
    1SAPS  H17R   73   5.240   4.591   6.283  2.5399  1.4169  1.6036
    1SAPS  H17S   74   5.221   4.765   6.307  2.9545 -1.1387 -1.5604
    1SAPS  C218   75   5.035   4.656   6.251  0.0998 -0.0794 -0.1702
    1SAPS  H18R   76   4.962   4.738   6.266  0.2769  0.0380  0.0602
    1SAPS  H18S   77   4.979   4.569   6.292 -0.9181  1.3124  1.5465
    1SAPS  C219   78   5.068   4.645   6.105 -0.1652  0.4387  0.6291
    1SAPS  H19R   79   4.973   4.671   6.054 -0.5929  0.9345  1.6474
    1SAPS  H19S   80   5.101   4.541   6.083 -0.8364  0.1693  0.8945
    1SAPS  C220   81   5.177   4.728   6.044 -0.4263 -0.0235  0.1199
    1SAPS  H20R   82   5.279   4.697   6.077 -0.4454 -0.2933 -0.0754
    1SAPS  H20S   83   5.169   4.838   6.057 -1.2867 -0.2065  1.2246
    1SAPS  H20T   84   5.172   4.707   5.935  3.3792  2.0895 -0.6464
    1SAPS   C33   85   5.334   4.731   7.205 -0.6090 -0.0250 -0.3112
    1SAPS   H3X   86   5.443   4.722   7.222 -0.3807  2.4962 -0.1507
    1SAPS   H3Y   87   5.323   4.822   7.143 -1.8004  1.2067  1.6052
    1SAPS   C34   88   5.286   4.609   7.128  0.4893 -0.0255 -0.0786
    1SAPS   H4X   89   5.184   4.635   7.092  0.2647 -0.4557  0.2409
    1SAPS   H4Y   90   5.271   4.520   7.193  1.8598 -0.2279 -0.0105
    1SAPS   C35   91   5.359   4.589   6.994 -0.2211  0.1295 -0.1052
    1SAPS   H5X   92   5.463   4.568   7.029 -0.7985 -1.6323  0.7048
    1SAPS   H5Y   93   5.349   4.689   6.947 -1.7070  0.0595  0.0082
    1SAPS   C36   94   5.295   4.467   6.918  0.0714 -0.3705  0.0071
    1SAPS   H6X   95   5.193   4.511   6.908  0.9585  1.5746 -0.9363
    1SAPS   H6Y   96   5.289   4.377   6.983  1.4442 -0.7229 -0.3333
    1SAPS   C37   97   5.369   4.435   6.787 -0.1095  0.6860 -0.2827
    1SAPS   H7X   98   5.471   4.408   6.823 -0.5996 -2.1995 -0.7880
    1SAPS   H7Y   99   5.364   4.528   6.728  0.3057  1.0891  0.3006
    1SAPS   C38  100   5.320   4.306   6.720  0.4824 -0.4813 -0.2149
    1SAPS   H8X  101   5.209   4.305   6.715  0.5092  0.7258 -1.5981
    1SAPS   H8Y  102   5.351   4.229   6.794 -0.9258  0.9593  1.9926
    1SAPS   C39  103   5.372   4.272   6.587 -0.1471 -0.6267  0.4311
    1SAPS   H9X  104   5.320   4.183   6.546 -0.2698 -0.4300  0.1508
    1SAPS   H9Y  105   5.481   4.254   6.587 -0.0977 -0.3930  1.7647
    1SAPS  C310  106   5.361   4.383   6.482  0.8679  0.5082 -0.4999
    1SAPS  H10X  107   5.398   4.478   6.526  1.5928  1.4364 -2.9105
    1SAPS  H10Y  108   5.257   4.387   6.442  0.6626 -3.4329 -0.7026
    1SAPS  C311  109   5.458   4.353   6.365  0.2196  0.2563  0.1482
    1SAPS  H11X  110   5.436   4.252   6.324  2.3695 -0.7590  1.3671
    1SAPS  H11Y  111   5.560   4.365   6.407  0.3750  0.9376 -0.3849
    1SAPS  C312  112   5.448   4.449   6.248 -0.0823 -0.6705  0.0313
    1SAPS  H12X  113   5.447   4.555   6.283 -1.0462 -0.3349 -0.9526
    1SAPS  H12Y  114   5.350   4.434   6.196 -0.6607 -0.8325  1.1326
    1SAPS  C313  115   5.556   4.432   6.141  0.1489 -0.3677  0.1101
    1SAPS  H13X  116   5.563   4.324   6.112  0.4226 -0.5825  0.9512
    1SAPS  H13Y  117   5.657   4.441   6.187  0.9869 -4.1089 -0.6530
    1SAPS  C314  118   5.547   4.547   6.044 -0.3594 -0.7065 -0.3517
    1SAPS  H14X  119   5.578   4.641   6.094  0.0368  0.9020 -3.3737
    1SAPS  H14Y  120   5.439   4.554   6.017 -0.5074 -0.0645  0.3957
    1SAPS  C315  121   5.616   4.514   5.915  0.0897 -0.1347  0.4408
    1SAPS  H15X  122   5.582   4.417   5.873  0.5297 -0.9139  1.8059
    1SAPS  H15Y  123   5.721   4.487   5.940 -0.1596 -1.5782  0.0102
    1SAPS  C316  124   5.605   4.636   5.822 -0.1557 -0.3474 -0.0203
    1SAPS  H16X  125   5.666   4.619   5.731  0.5829  2.0202 -0.0421
    1SAPS  H16Y  126   5.644   4.726   5.873 -0.3271 -0.3312  0.0837
    1SAPS  C317  127   5.457   4.656   5.773 -0.2159  0.5309 -0.2236
    1SAPS  H17X  128   5.391   4.676   5.859 -2.9535  0.4038 -2.1797
    1SAPS  H17Y  129   5.421   4.560   5.730 -1.5858  0.6614  0.5907
    1SAPS  C318  130   5.434   4.761   5.662  0.1546 -0.3196  0.2329
    1SAPS  H18X  131   5.484   4.860   5.675 -0.5023 -0.1287  1.3940
    1SAPS  H18Y  132   5.325   4.776   5.651  0.4422  0.8918 -1.3374
    1SAPS  H18Z  133   5.479   4.702   5.579  0.0770  0.0462 -0.0734
    2SAPS     N  134   5.079   1.374   7.868  0.2736 -0.3557  0.1280
    2SAPS   HN1  135   4.987   1.335   7.842 -0.0762  0.3381  0.2901
    2SAPS   HN2  136   5.067   1.475   7.844  1.2516 -0.0123  1.0102
    2SAPS   HN3  137   5.157   1.333   7.813  2.4562  2.1433  1.1187
    2SAPS   C12  138   5.096   1.350   8.007 -0.0310  1.1786  0.0245
    2SAPS  H12A  139   5.202   1.362   8.026 -0.0849  2.3977 -0.3550
    2SAPS   C13  140   5.021   1.436   8.109 -0.3011  0.3771 -0.4862
    2SAPS  O13A  141   4.945   1.522   8.058 -0.8467  0.0619 -0.2227
    2SAPS  O13B  142   5.025   1.414   8.232 -0.4451  0.2254  0.2593
    2SAPS   C11  143   5.067   1.194   8.041  0.0150  0.5567 -0.2753
    2SAPS  H11A  144   4.957   1.195   8.028 -0.1243  3.3645  0.4416
    2SAPS  H11B  145   5.103   1.188   8.146  0.6235 -0.6002 -0.5375
    2SAPS     P  146   5.104   0.951   7.943  0.0832 -0.3847  0.2914
    2SAPS   O13  147   5.208   0.883   8.017  0.3539  0.2652 -0.3184
    2SAPS   O14  148   4.965   0.914   7.984  0.3979 -0.0960 -0.7552
    2SAPS   O12  149   5.131   1.108   7.946 -0.0774 -0.4075  0.5282
    2SAPS   O11  150   5.119   0.904   7.788  0.4815  0.1827 -0.0564
    2SAPS    C1  151   5.244   0.916   7.715  0.0484 -0.9731 -0.1259
    2SAPS    HA  152   5.322   0.957   7.783  0.2087  1.7929 -1.8133
    2SAPS    HB  153   5.283   0.819   7.679 -0.6646 -1.9251  1.5238
    2SAPS    C2  154   5.214   1.018   7.605  0.0860 -0.4638  0.0911
    2SAPS    HS  155   5.149   1.095   7.652  0.4769  1.3789 -2.2191
    2SAPS   O21  156   5.149   0.962   7.494 -0.3116  0.4532  0.1237
    2SAPS   C21  157   5.016   0.961   7.486 -0.4422  0.1097  0.4584
    2SAPS   O22  158   4.936   1.013   7.562  0.0156  0.5097 -0.1204
    2SAPS   C22  159   4.969   0.874   7.363 -0.5355 -0.0859  0.1124
    2SAPS   H2R  160   5.028   0.909   7.276 -0.2053 -0.7793  0.0500
    2SAPS   H2S  161   4.980   0.771   7.404 -0.4393  0.1047  0.5779
    2SAPS    C3  162   5.337   1.103   7.566  0.0087  0.3427 -0.0433
    2SAPS    HX  163   5.401   1.121   7.655  0.5638 -1.3676 -0.0612
    2SAPS    HY  164   5.312   1.206   7.536 -3.3979 -0.0069  1.1473
    2SAPS   O31  165   5.405   1.050   7.452 -0.0575  0.0747  0.1092
    2SAPS   C31  166   5.509   0.979   7.472 -0.2292 -0.7984 -0.1116
    2SAPS   O32  167   5.542   0.924   7.578  0.2141  0.3052  0.2047
    2SAPS   C32  168   5.585   0.956   7.336 -0.7393 -0.1877  0.2092
    2SAPS   H2X  169   5.664   0.881   7.354  0.8767  2.2250  4.9369
    2SAPS   H2Y  170   5.626   1.056   7.312 -2.5515  0.5814  0.1401
    2SAPS   C23  171   4.818   0.878   7.333 -0.6768  0.6491  0.1207
    2SAPS   H3R  172   4.794   0.977   7.290  0.6543  1.0546  0.2774
    2SAPS   H3S  173   4.767   0.846   7.426  2.7912  0.4525  2.1345
    2SAPS   C24  174   4.777   0.781   7.214  0.2067 -0.0850  0.0696
    2SAPS   H4R  175   4.796   0.674   7.237 -0.2570 -0.1971 -0.0635
    2SAPS   H4S  176   4.826   0.816   7.120 -1.6979  0.4734 -0.7519
    2SAPS   C25  177   4.625   0.802   7.191 -0.3418  0.3060  0.4142
    2SAPS   H5R  178   4.574   0.807   7.289  3.4357  2.5961  2.4585
    2SAPS   C26  179   4.560   0.822   7.079 -0.0341 -0.2734  0.2213
    2SAPS   H6R  180   4.451   0.840   7.082 -0.3028 -0.7091 -3.2593
    2SAPS   C27  181   4.615   0.833   6.935 -0.4865  0.2897 -1.0649
    2SAPS   H7R  182   4.724   0.811   6.930 -0.8146 -2.5326  1.2682
    2SAPS   H7S  183   4.609   0.938   6.901  1.0341  0.7814  0.0776
    2SAPS   C28  184   4.562   0.756   6.818 -0.3992 -0.5284 -0.4673
    2SAPS   H8R  185   4.496   0.673   6.848 -1.3008  0.8997  1.8125
    2SAPS   C29  186   4.602   0.779   6.692  0.3177  0.7518  0.9932
    2SAPS   H9R  187   4.571   0.702   6.620  0.2997 -0.3159  2.1277
    2SAPS  C210  188   4.699   0.880   6.627 -0.1582  0.4790 -0.7811
    2SAPS  H10R  189   4.792   0.829   6.593  1.8266  2.2626  1.5964
    2SAPS  H10S  190   4.735   0.959   6.697  1.3953 -0.8108 -0.0614
    2SAPS  C211  191   4.623   0.957   6.514 -0.0520  0.0083 -0.4234
    2SAPS  H11R  192   4.528   0.996   6.554  0.1368 -0.7288  0.8059
    2SAPS  C212  193   4.676   0.987   6.389  0.0309 -0.6113 -0.0834
    2SAPS  H12R  194   4.616   1.058   6.330 -1.4371 -1.0705  0.8073
    2SAPS  C213  195   4.815   0.959   6.340  1.3968 -0.6153 -0.4368
    2SAPS  H13R  196   4.892   0.965   6.420  0.3563  0.9997  0.5138
    2SAPS  H13S  197   4.847   1.038   6.268  0.4610 -0.3606 -0.5895
    2SAPS  C214  198   4.835   0.816   6.291  0.1024 -0.0114 -0.4240
    2SAPS  H14R  199   4.885   0.747   6.361 -1.9279  0.4995  1.6701
    2SAPS  C215  200   4.805   0.771   6.170 -0.4338 -0.2909  0.1997
    2SAPS  H15R  201   4.849   0.673   6.147  1.1826 -0.0709  2.0949
    2SAPS  C216  202   4.737   0.843   6.053  0.2041 -0.5045 -0.0653
    2SAPS  H16R  203   4.709   0.948   6.073  0.6103 -0.4574  0.2727
    2SAPS  H16S  204   4.649   0.785   6.016  0.4342 -0.4918 -0.6392
    2SAPS  C217  205   4.833   0.852   5.930  0.2423  0.0358 -0.0927
    2SAPS  H17R  206   4.763   0.861   5.845 -0.7794  0.4479  0.7609
    2SAPS  H17S  207   4.889   0.756   5.931  0.8227  0.3199  2.3200
    2SAPS  C218  208   4.932   0.963   5.938 -0.5361 -0.3490  0.0822
    2SAPS  H18R  209   4.988   0.955   6.034 -0.2840  1.3402  0.1061
    2SAPS  H18S  210   4.888   1.064   5.950  0.8218  0.0508  2.4924
    2SAPS  C219  211   5.033   0.952   5.821 -0.1453  0.0000 -0.2958
    2SAPS  H19R  212   5.052   0.845   5.796  1.3741 -0.2908  1.8253
    2SAPS  H19S  213   5.130   0.995   5.855  0.5213 -0.5698 -1.3872
    2SAPS  C220  214   4.997   1.013   5.687 -0.2484 -0.2217 -0.0423
    2SAPS  H20R  215   4.999   1.123   5.695  0.7551 -0.2629  0.4836
    2SAPS  H20S  216   4.894   0.982   5.659 -0.7624  0.1985  1.3092
    2SAPS  H20T  217   5.057   0.978   5.601 -0.4083  0.8853 -0.6226
    2SAPS   C33  218   5.496   0.906   7.220 -1.2779  0.4602 -0.1664
    2SAPS   H3X  219   5.405   0.970   7.216 -1.9875 -0.4812  0.4158
    2SAPS   H3Y  220   5.465   0.799   7.221 -1.5002  0.5256  0.4779
    2SAPS   C34  221   5.575   0.937   7.087  0.3431  0.6539 -0.6431
    2SAPS   H4X  222   5.672   0.885   7.075  0.2099  0.6577 -1.8351
    2SAPS   H4Y  223   5.592   1.047   7.087  1.8977  0.4519  0.6683
    2SAPS   C35  224   5.493   0.895   6.962 -0.1684 -0.3681  0.5481
    2SAPS   H5X  225   5.389   0.929   6.981 -1.8080 -4.0222 -0.9381
    2SAPS   H5Y  226   5.497   0.784   6.969 -0.0732 -0.3003  1.6601
    2SAPS   C36  227   5.561   0.953   6.831  0.4109 -0.1302  0.0657
    2SAPS   H6X  228   5.664   0.912   6.830  0.2994 -0.3997 -0.2764
    2SAPS   H6Y  229   5.556   1.063   6.818 -2.3810 -0.2162 -0.2995
    2SAPS   C37  230   5.489   0.907   6.700  0.0278  0.2142 -0.1689
    2SAPS   H7X  231   5.383   0.940   6.709 -0.6366 -2.2847  3.7482
    2SAPS   H7Y  232   5.496   0.796   6.691 -0.4105  0.2330 -0.9277
    2SAPS   C38  233   5.553   0.966   6.571 -0.0178 -0.1148 -0.5380
    2SAPS   H8X  234   5.662   0.947   6.581  0.0797  0.5625 -0.2356
    2SAPS   H8Y  235   5.545   1.077   6.572 -2.0947 -0.2231  0.0998
    2SAPS   C39  236   5.506   0.912   6.435 -0.0496 -0.3197 -0.9942
    2SAPS   H9X  237   5.412   0.965   6.413 -0.1698  0.2557  0.7273
    2SAPS   H9Y  238   5.469   0.807   6.443 -0.0682 -0.1788  3.9958
    2SAPS  C310  239   5.601   0.940   6.322 -0.0837  0.2238  0.3077
    2SAPS  H10X  240   5.683   0.866   6.331  1.1371  1.4928 -0.0435
    2SAPS  H10Y  241   5.654   1.038   6.324  2.1107 -0.9096  0.8251
    2SAPS  C311  242   5.530   0.913   6.185  0.4964 -0.4515 -0.3128
    2SAPS  H11X  243   5.438   0.976   6.179  0.7485  0.0260  0.6228
    2SAPS  H11Y  244   5.491   0.809   6.195 -0.5837  0.0306  0.7036
    2SAPS  C312  245   5.613   0.942   6.062  0.4006 -0.4746 -0.2012
    2SAPS  H12X  246   5.631   1.051   6.058  0.4584 -0.4920 -0.4686
    2SAPS  H12Y  247   5.553   0.917   5.971 -0.0380 -1.1237  0.2550
    2SAPS  C313  248   5.733   0.859   6.052  0.1068  0.2525 -0.3451
    2SAPS  H13X  249   5.704   0.757   6.084 -1.0757 -0.2285 -2.7049
    2SAPS  H13Y  250   5.809   0.905   6.120 -0.2804  0.3521  0.0219
    2SAPS  C314  251   5.791   0.836   5.905  0.6813 -0.5248  0.3778
    2SAPS  H14X  252   5.714   0.798   5.834 -0.2355  0.2184  0.9385
    2SAPS  H14Y  253   5.883   0.775   5.899  1.7798  1.1242 -0.5667
    2SAPS  C315  254   5.828   0.975   5.847 -0.4053  1.0327 -0.2189
    2SAPS  H15X  255   5.914   1.005   5.911  0.2756  0.2784 -0.7568
    2SAPS  H15Y  256   5.747   1.050   5.856 -0.7966  1.2308 -3.7555
    2SAPS  C316  257   5.889   0.978   5.701 -0.4491 -0.3506 -0.1838
    2SAPS  H16X  258   5.817   0.933   5.629 -1.3901 -0.6528  0.9194
    2SAPS  H16Y  259   5.988   0.928   5.697 -0.8572 -1.4897  2.1797
    2SAPS  C317  260   5.921   1.122   5.657 -1.0681 -0.3520 -0.2841
    2SAPS  H17X  261   5.955   1.175   5.749 -1.6930  0.9599 -0.7801
    2SAPS  H17Y  262   5.828   1.171   5.620 -2.3789 -2.3566  0.1883
    2SAPS  C318  263   6.025   1.135   5.543 -0.6449 -0.0417 -0.0227
    2SAPS  H18X  264   6.116   1.077   5.571 -1.2562 -1.9110 -1.6514
    2SAPS  H18Y  265   6.054   1.241   5.531  0.0660 -0.3037 -0.7488
    2SAPS  H18Z  266   5.990   1.091   5.447 -0.9694 -0.4447  0.2810
    3SAPS     N  267   4.058   6.556   8.213  0.1858 -0.9244 -0.1284
    3SAPS   HN1  268   4.059   6.550   8.317  3.1003  0.1233 -0.0050
    3SAPS   HN2  269   3.987   6.503   8.157  1.3060 -0.1065 -2.4583
    3SAPS   HN3  270   4.146   6.504   8.193 -0.2844 -2.8420  2.3036
    3SAPS   C12  271   4.054   6.699   8.167 -0.3584  0.3390  0.0143
    3SAPS  H12A  272   4.049   6.703   8.059  0.6308 -2.2301 -0.1770
    3SAPS   C13  273   3.924   6.772   8.219 -0.3739 -0.3340 -0.0783
    3SAPS  O13A  274   3.831   6.696   8.258  0.0937 -0.2299 -0.0651
    3SAPS  O13B  275   3.905   6.890   8.187 -0.2212 -0.1654  0.4507
    3SAPS   C11  276   4.183   6.771   8.225  0.6518 -0.1853 -0.8816
    3SAPS  H11A  277   4.187   6.755   8.335 -1.2881 -1.7668 -0.9804
    3SAPS  H11B  278   4.168   6.877   8.196  0.0063  0.0797  0.3640
    3SAPS     P  279   4.383   6.780   8.050 -0.2013  0.2469  0.4238
    3SAPS   O13  280   4.451   6.906   8.094 -0.2679 -0.4761 -0.7160
    3SAPS   O14  281   4.464   6.677   7.986  0.5601  0.1271  0.3285
    3SAPS   O12  282   4.307   6.714   8.177 -0.4150  0.1614  0.2913
    3SAPS   O11  283   4.256   6.810   7.962  0.3021 -0.2971  0.6362
    3SAPS    C1  284   4.239   6.743   7.837 -0.2824 -0.3012  0.2283
    3SAPS    HA  285   4.293   6.647   7.829 -0.2576 -0.7674  4.2648
    3SAPS    HB  286   4.132   6.732   7.807 -0.3795  2.0406 -0.5050
    3SAPS    C2  287   4.315   6.821   7.723 -0.3613  0.9547 -0.4089
    3SAPS    HS  288   4.420   6.843   7.750  0.2144  0.8691 -2.4216
    3SAPS   O21  289   4.252   6.950   7.701  0.0265  0.4646 -0.3416
    3SAPS   C21  290   4.326   7.058   7.680  0.0005 -0.3778  0.3732
    3SAPS   O22  291   4.439   7.081   7.717 -0.5645 -0.4572 -0.3357
    3SAPS   C22  292   4.233   7.167   7.619  0.9113  0.2169 -0.3000
    3SAPS   H2R  293   4.132   7.151   7.662  0.4198 -1.3030 -1.8529
    3SAPS   H2S  294   4.285   7.259   7.652  0.2563  0.4018  0.2239
    3SAPS    C3  295   4.319   6.738   7.589 -0.0657 -0.1234 -0.0877
    3SAPS    HX  296   4.217   6.723   7.547  0.7629  0.1237 -2.3196
    3SAPS    HY  297   4.355   6.635   7.611  1.9954  0.6228  0.2704
    3SAPS   O31  298   4.407   6.793   7.493  0.4541  0.0940 -0.7392
    3SAPS   C31  299   4.535   6.773   7.517 -0.6417  0.0949  0.0104
    3SAPS   O32  300   4.584   6.711   7.610 -0.3150  0.0786 -0.7178
    3SAPS   C32  301   4.622   6.845   7.410  0.4866 -0.0915 -0.2333
    3SAPS   H2X  302   4.729   6.844   7.441  0.3638 -3.8374  0.4638
    3SAPS   H2Y  303   4.580   6.948   7.403  0.7329  0.0781  0.5863
    3SAPS   C23  304   4.234   7.157   7.465 -0.1387  0.6496  0.5642
    3SAPS   H3R  305   4.161   7.237   7.441 -1.6553 -0.5270  1.0841
    3SAPS   H3S  306   4.200   7.057   7.429 -0.2835  1.3595 -1.3899
    3SAPS   C24  307   4.372   7.187   7.401  0.7169 -0.5883 -0.1458
    3SAPS   H4R  308   4.445   7.117   7.446  0.3867 -0.1239  1.1443
    3SAPS   H4S  309   4.402   7.291   7.427  1.0787 -0.6076 -0.4661
    3SAPS   C25  310   4.386   7.166   7.259 -0.0726  0.0486  0.3936
    3SAPS   H5R  311   4.404   7.062   7.229 -3.0322 -0.7146  0.9391
    3SAPS   C26  312   4.385   7.256   7.159 -0.0632 -0.0628  0.2514
    3SAPS   H6R  313   4.397   7.216   7.057  1.9507  0.0144  0.4178
    3SAPS   C27  314   4.360   7.400   7.182 -0.5442 -0.5805 -0.4800
    3SAPS   H7R  315   4.402   7.458   7.098  1.4817 -0.3960  0.6035
    3SAPS   H7S  316   4.419   7.441   7.267  0.0671 -3.0759  0.3815
    3SAPS   C28  317   4.218   7.427   7.206 -0.0841  0.3015  0.4506
    3SAPS   H8R  318   4.191   7.398   7.308  1.3187 -0.9719  0.5052
    3SAPS   C29  319   4.126   7.463   7.111 -0.0333  0.6349 -0.1747
    3SAPS   H9R  320   4.023   7.474   7.146 -0.5226  2.3211 -1.9191
    3SAPS  C210  321   4.147   7.475   6.962  0.7761  0.1671  0.2164
    3SAPS  H10R  322   4.237   7.422   6.925 -0.2543 -0.5801 -1.2980
    3SAPS  H10S  323   4.159   7.580   6.927  0.1035 -0.1094 -0.8855
    3SAPS  C211  324   4.025   7.411   6.900 -0.0987 -0.0217 -0.8864
    3SAPS  H11R  325   3.976   7.335   6.962 -2.1688  2.9695  1.4138
    3SAPS  C212  326   3.985   7.434   6.772  0.6874  0.3689 -0.1434
    3SAPS  H12R  327   3.903   7.375   6.729  1.5532 -1.1609  0.2471
    3SAPS  C213  328   4.051   7.530   6.672 -0.0029  0.8403 -0.3844
    3SAPS  H13R  329   4.118   7.604   6.720  0.9071 -0.4675  0.4467
    3SAPS  H13S  330   3.980   7.600   6.622 -0.7151  0.4868  0.1073
    3SAPS  C214  331   4.124   7.450   6.567 -0.6016 -0.1988  0.2202
    3SAPS  H14R  332   4.114   7.341   6.556  1.4301 -0.2116 -2.6793
    3SAPS  C215  333   4.210   7.504   6.482  0.5845  0.0781  0.2425
    3SAPS  H15R  334   4.263   7.426   6.425  1.6716  1.6277 -0.9448
    3SAPS  C216  335   4.255   7.642   6.471 -0.5200 -0.7685 -0.1015
    3SAPS  H16R  336   4.353   7.656   6.521 -0.6618 -0.9265  0.2198
    3SAPS  H16S  337   4.186   7.703   6.533  1.6777  0.9989  0.7301
    3SAPS  C217  338   4.260   7.698   6.326 -0.3225 -0.3449  0.1590
    3SAPS  H17R  339   4.275   7.808   6.322  0.2583 -0.4544 -1.2813
    3SAPS  H17S  340   4.165   7.686   6.268  0.6571 -1.3467 -1.3285
    3SAPS  C218  341   4.372   7.639   6.240 -0.3133  0.0855  0.6104
    3SAPS  H18R  342   4.365   7.528   6.247 -0.0865 -0.0067 -0.4956
    3SAPS  H18S  343   4.472   7.662   6.282  0.6292 -1.6583 -0.5383
    3SAPS  C219  344   4.364   7.686   6.088  0.0386 -0.5174  0.5921
    3SAPS  H19R  345   4.437   7.621   6.035 -3.5328 -3.6724 -0.9973
    3SAPS  H19S  346   4.267   7.670   6.035  0.4069  0.4198 -0.3997
    3SAPS  C220  347   4.412   7.833   6.071 -0.5520 -0.1823  0.0541
    3SAPS  H20R  348   4.437   7.870   5.969  2.7393  0.9237  1.1061
    3SAPS  H20S  349   4.503   7.858   6.131  0.0305  1.4448 -1.4071
    3SAPS  H20T  350   4.330   7.896   6.112  0.1380  0.4950  0.4211
    3SAPS   C33  351   4.604   6.785   7.266  0.5841 -0.6881 -0.0534
    3SAPS   H3X  352   4.498   6.765   7.243  0.6684 -3.3784  1.4619
    3SAPS   H3Y  353   4.650   6.684   7.269  1.4994 -0.3449 -1.4265
    3SAPS   C34  354   4.669   6.865   7.145  0.7295 -0.0538 -0.5527
    3SAPS   H4X  355   4.768   6.905   7.176 -0.1238  1.0831  0.8347
    3SAPS   H4Y  356   4.617   6.960   7.122  2.1130  1.2825  1.5230
    3SAPS   C35  357   4.648   6.779   7.026 -0.1173 -0.9369 -0.1792
    3SAPS   H5X  358   4.704   6.686   7.051  0.2393 -0.2447  1.7948
    3SAPS   H5Y  359   4.540   6.757   7.015 -1.7597  3.9856  2.8648
    3SAPS   C36  360   4.710   6.850   6.908  0.6204  1.0991  0.0875
    3SAPS   H6X  361   4.815   6.875   6.933  0.2129  2.1060  0.9220
    3SAPS   H6Y  362   4.663   6.950   6.891 -2.6071 -0.1072  1.0700
    3SAPS   C37  363   4.706   6.754   6.789  0.6308 -0.2470 -0.2496
    3SAPS   H7X  364   4.602   6.720   6.767  0.6952 -0.0112 -0.9497
    3SAPS   H7Y  365   4.771   6.670   6.821 -0.0918 -1.2205 -1.2480
    3SAPS   C38  366   4.755   6.813   6.662 -0.1553  0.0402  0.0238
    3SAPS   H8X  367   4.866   6.809   6.668  0.1158  4.0837  0.6165
    3SAPS   H8Y  368   4.722   6.917   6.639  0.1452 -0.1079 -1.1740
    3SAPS   C39  369   4.706   6.732   6.540 -0.1950 -0.3516 -0.6806
    3SAPS   H9X  370   4.598   6.707   6.542 -0.1211 -0.7565 -1.4044
    3SAPS   H9Y  371   4.760   6.635   6.532 -0.8533 -0.9283  1.1883
    3SAPS  C310  372   4.737   6.807   6.414  0.5593 -0.1425  0.6486
    3SAPS  H10X  373   4.843   6.838   6.430  0.6707  0.2501 -0.7804
    3SAPS  H10Y  374   4.663   6.889   6.406  2.0370  1.1804  0.1064
    3SAPS  C311  375   4.734   6.715   6.290 -0.1392  0.3161 -0.2291
    3SAPS  H11X  376   4.800   6.627   6.307 -2.8041 -1.9194 -0.6330
    3SAPS  H11Y  377   4.762   6.783   6.207 -3.0373 -0.5009 -2.0278
    3SAPS  C312  378   4.598   6.658   6.261  0.0950 -0.5308 -0.5294
    3SAPS  H12X  379   4.527   6.743   6.254 -0.1565 -0.8575 -2.2836
    3SAPS  H12Y  380   4.567   6.590   6.344  0.1242  0.5210  0.3757
    3SAPS  C313  381   4.591   6.585   6.130 -0.1952  0.4052 -0.2619
    3SAPS  H13X  382   4.670   6.508   6.130 -0.9825 -0.4172  0.4427
    3SAPS  H13Y  383   4.609   6.649   6.041  2.5560 -0.3004 -0.2838
    3SAPS  C314  384   4.454   6.514   6.107 -0.3230  0.3655 -0.6568
    3SAPS  H14X  385   4.376   6.592   6.115 -0.3468  0.3612 -0.8527
    3SAPS  H14Y  386   4.438   6.446   6.194  1.7374 -0.5228 -0.9173
    3SAPS  C315  387   4.438   6.421   5.978 -0.1657  0.0396  0.0257
    3SAPS  H15X  388   4.536   6.373   5.958 -0.8814 -0.9443 -1.2742
    3SAPS  H15Y  389   4.428   6.501   5.902  0.7180 -2.2349 -2.6481
    3SAPS  C316  390   4.311   6.344   5.975 -0.6558  0.4484  0.0031
    3SAPS  H16X  391   4.227   6.417   5.980  0.7297  2.4545 -3.0195
    3SAPS  H16Y  392   4.296   6.282   6.066  1.6867  1.9817  1.5286
    3SAPS  C317  393   4.287   6.264   5.846  0.6076  0.3909 -0.0546
    3SAPS  H17X  394   4.379   6.207   5.824 -0.3182 -1.1667 -0.0281
    3SAPS  H17Y  395   4.280   6.340   5.766  0.7276  1.0070  0.5077
    3SAPS  C318  396   4.171   6.165   5.851  0.4890  0.4127 -0.0742
    3SAPS  H18X  397   4.158   6.110   5.947 -0.4441 -1.4027 -1.1776
    3SAPS  H18Y  398   4.193   6.086   5.775 -0.5520  0.1728 -0.1451
    3SAPS  H18Z  399   4.071   6.202   5.820 -0.3605 -1.5750  0.1345
    4SAPS     N  400   3.842   5.015   8.302  0.5736  0.0379 -0.0039
    4SAPS   HN1  401   3.814   4.922   8.267  2.5023 -0.1011 -1.3521
    4SAPS   HN2  402   3.896   4.998   8.389  0.1989 -0.3064  0.1591
    4SAPS   HN3  403   3.762   5.076   8.329 -0.2175 -0.5070 -1.0327
    4SAPS   C12  404   3.917   5.093   8.201 -1.1382  0.2569 -0.0676
    4SAPS  H12A  405   3.848   5.137   8.130  1.7651  3.1304 -1.3721
    4SAPS   C13  406   3.978   5.224   8.250  0.1352 -0.1909  0.4926
    4SAPS  O13A  407   3.964   5.252   8.373 -0.3575  0.0005 -0.5077
    4SAPS  O13B  408   4.064   5.286   8.177  0.3788  0.2493 -0.2059
    4SAPS   C11  409   4.026   5.001   8.127 -0.2611 -0.0315 -0.2659
    4SAPS  H11A  410   4.101   4.978   8.206  0.1497 -1.6444 -1.0944
    4SAPS  H11B  411   4.075   5.059   8.046  2.0076 -2.7037 -0.9446
    4SAPS     P  412   4.008   4.805   7.953 -0.0574 -0.0946 -0.4188
    4SAPS   O13  413   4.142   4.753   7.981  0.1498  0.6048 -0.6571
    4SAPS   O14  414   3.894   4.711   7.923 -0.0504 -0.1638 -0.3344
    4SAPS   O12  415   3.959   4.886   8.078  0.1972 -0.8713 -1.0469
    4SAPS   O11  416   4.016   4.915   7.840 -0.0714 -0.4054 -0.2879
    4SAPS    C1  417   3.909   5.004   7.811  0.1868 -0.1579  0.0532
    4SAPS    HA  418   3.833   5.003   7.892  0.5390 -2.0884  0.4138
    4SAPS    HB  419   3.953   5.106   7.816  1.3033 -0.6401  0.2141
    4SAPS    C2  420   3.843   4.969   7.673  0.2569 -0.6568  0.4704
    4SAPS    HS  421   3.795   4.868   7.679  1.7209 -1.4168 -0.1805
    4SAPS   O21  422   3.942   4.985   7.570 -0.4306  0.0545 -0.4041
    4SAPS   C21  423   3.990   4.876   7.522 -0.5021  0.2806  0.1979
    4SAPS   O22  424   3.947   4.760   7.539 -0.1452  0.4802  0.8271
    4SAPS   C22  425   4.101   4.919   7.418  0.0128  0.8884 -0.4273
    4SAPS   H2R  426   4.083   5.026   7.396  4.0003  2.0703  1.1525
    4SAPS   H2S  427   4.193   4.920   7.480  0.4915 -1.2133 -1.0037
    4SAPS    C3  428   3.742   5.084   7.647  0.9186 -1.2134 -0.4175
    4SAPS    HX  429   3.799   5.179   7.646  2.0126 -1.8313  0.7945
    4SAPS    HY  430   3.663   5.103   7.723 -1.0387  2.2598 -3.0369
    4SAPS   O31  431   3.662   5.066   7.534  0.0300 -0.3645 -0.4114
    4SAPS   C31  432   3.601   5.174   7.486 -0.7059  0.8940 -0.3765
    4SAPS   O32  433   3.592   5.281   7.546 -0.5120  0.3756  0.0050
    4SAPS   C32  434   3.543   5.138   7.353  0.0457 -0.2460  0.1819
    4SAPS   H2X  435   3.435   5.121   7.374  0.5015 -0.6045  2.4695
    4SAPS   H2Y  436   3.592   5.045   7.316 -0.5055 -0.2011 -0.6929
    4SAPS   C23  437   4.126   4.816   7.305 -0.7609 -1.3276  0.3527
    4SAPS   H3R  438   4.131   4.722   7.364 -0.7130 -0.9278  1.0055
    4SAPS   H3S  439   4.222   4.840   7.256 -1.8168 -1.8607 -2.1158
    4SAPS   C24  440   4.015   4.806   7.206 -0.1890 -0.0517  0.6070
    4SAPS   H4R  441   3.919   4.790   7.258 -0.7755 -0.3631 -0.5373
    4SAPS   H4S  442   4.030   4.716   7.142  0.5813  1.0954 -0.9014
    4SAPS   C25  443   4.018   4.937   7.123  0.1278  0.4995 -0.0817
    4SAPS   H5R  444   4.117   4.979   7.102 -1.0461  3.3584 -0.2653
    4SAPS   C26  445   3.914   4.989   7.053 -0.3062  0.2267 -0.2713
    4SAPS   H6R  446   3.928   5.081   6.995 -1.7261  1.0791  0.6969
    4SAPS   C27  447   3.776   4.931   7.045 -0.5267 -0.1014 -0.2445
    4SAPS   H7R  448   3.701   5.004   7.008  1.9032  1.2803 -2.8353
    4SAPS   H7S  449   3.755   4.914   7.152  3.3936  0.6479  0.8055
    4SAPS   C28  450   3.770   4.800   6.965 -0.4287 -0.0702 -0.0890
    4SAPS   H8R  451   3.834   4.717   6.997 -1.2880 -0.8856 -0.4602
    4SAPS   C29  452   3.699   4.787   6.853  1.3153 -0.0163 -0.6399
    4SAPS   H9R  453   3.698   4.695   6.794 -1.9029  0.6826 -1.8706
    4SAPS  C210  454   3.602   4.898   6.799  0.0326  0.5055  0.0663
    4SAPS  H10R  455   3.658   4.993   6.790 -0.5691  1.0883  2.0272
    4SAPS  H10S  456   3.515   4.914   6.867 -1.4488 -1.7687 -1.1443
    4SAPS  C211  457   3.544   4.859   6.662  0.0068  0.1999  0.2960
    4SAPS  H11R  458   3.582   4.773   6.605 -3.1504 -1.1076 -0.0643
    4SAPS  C212  459   3.434   4.916   6.612 -0.1383  0.2687  0.2742
    4SAPS  H12R  460   3.402   4.871   6.517  0.4604 -2.3706  1.2254
    4SAPS  C213  461   3.342   5.023   6.665 -0.2131  0.0530 -1.0146
    4SAPS  H13R  462   3.369   5.046   6.771 -1.9606  1.8052 -0.8795
    4SAPS  H13S  463   3.242   4.976   6.676 -0.6622  0.4383 -3.0361
    4SAPS  C214  464   3.311   5.139   6.574 -0.0654 -0.5933 -0.5901
    4SAPS  H14R  465   3.208   5.177   6.583  0.1559 -0.4641  2.4679
    4SAPS  C215  466   3.403   5.203   6.505 -1.0873 -0.3311  0.2102
    4SAPS  H15R  467   3.370   5.294   6.452  1.8772 -0.1278 -1.4730
    4SAPS  C216  468   3.546   5.169   6.479  0.1102  1.0568 -1.3422
    4SAPS  H16R  469   3.547   5.075   6.420  0.8576 -0.0375  0.3371
    4SAPS  H16S  470   3.608   5.139   6.566  0.8542 -0.2636 -2.2943
    4SAPS  C217  471   3.613   5.294   6.417 -0.8466  0.0546 -0.0469
    4SAPS  H17R  472   3.573   5.326   6.319  2.6717  2.2152 -0.9449
    4SAPS  H17S  473   3.713   5.257   6.387 -1.2323 -0.1274 -1.1391
    4SAPS  C218  474   3.626   5.419   6.510 -0.2674  0.9320  0.0758
    4SAPS  H18R  475   3.524   5.457   6.531 -0.2162  1.3674 -0.4499
    4SAPS  H18S  476   3.683   5.492   6.450  1.2538  0.5078  0.9496
    4SAPS  C219  477   3.701   5.395   6.643 -0.3097 -0.3510 -0.9580
    4SAPS  H19R  478   3.761   5.486   6.661 -2.3090  1.1605 -1.5385
    4SAPS  H19S  479   3.782   5.319   6.638  0.9444  0.8060  0.7351
    4SAPS  C220  480   3.611   5.355   6.766  0.7895  0.4759  0.2457
    4SAPS  H20R  481   3.563   5.258   6.741  1.8412  0.9936 -4.8937
    4SAPS  H20S  482   3.521   5.420   6.778  0.9178  0.4696  1.4066
    4SAPS  H20T  483   3.661   5.348   6.865  0.5763  0.4015  0.3501
    4SAPS   C33  484   3.571   5.242   7.244  0.0430  0.5523 -0.0546
    4SAPS   H3X  485   3.680   5.259   7.228  0.1826 -1.6623 -1.9789
    4SAPS   H3Y  486   3.539   5.347   7.261 -0.1971  0.3176  0.9953
    4SAPS   C34  487   3.494   5.199   7.115 -0.3457 -0.6008 -0.3213
    4SAPS   H4X  488   3.525   5.093   7.103 -0.2234 -0.8654  1.9176
    4SAPS   H4Y  489   3.516   5.266   7.030 -0.1054  0.3347  0.4631
    4SAPS   C35  490   3.344   5.211   7.135 -0.0997 -0.3927  0.6783
    4SAPS   H5X  491   3.337   5.309   7.188  1.6968  1.8785 -2.8185
    4SAPS   H5Y  492   3.308   5.123   7.191 -1.6183  0.0119  0.3763
    4SAPS   C36  493   3.263   5.220   7.006 -0.2528 -0.1035  0.7067
    4SAPS   H6X  494   3.253   5.115   6.972  1.1751  0.0693 -0.3263
    4SAPS   H6Y  495   3.315   5.284   6.932  0.2639  1.8383  2.6322
    4SAPS   C37  496   3.116   5.267   7.023  0.0984  0.4195  0.4267
    4SAPS   H7X  497   3.122   5.376   7.045  1.9329  0.1627  1.3626
    4SAPS   H7Y  498   3.074   5.210   7.108 -2.2116 -0.2310 -1.0454
    4SAPS   C38  499   3.028   5.241   6.900 -0.2462 -0.4907  0.1363
    4SAPS   H8X  500   2.924   5.251   6.937  0.8624  4.0238  2.9280
    4SAPS   H8Y  501   3.050   5.137   6.866 -1.9833 -1.6371  2.2824
    4SAPS   C39  502   3.051   5.329   6.777  0.7749  0.3769 -0.6508
    4SAPS   H9X  503   3.146   5.297   6.729  1.0905  2.0687 -1.2374
    4SAPS   H9Y  504   3.065   5.436   6.805 -0.7845  0.7666 -1.2326
    4SAPS  C310  505   2.936   5.322   6.673 -0.4230  0.1280 -0.0435
    4SAPS  H10X  506   2.834   5.336   6.713 -0.0888  2.1017  0.1975
    4SAPS  H10Y  507   2.933   5.216   6.639 -0.7348  0.0559  0.2095
    4SAPS  C311  508   2.950   5.429   6.562  0.2312 -0.5768 -0.2267
    4SAPS  H11X  509   3.038   5.409   6.498  0.6898  0.9472 -0.1070
    4SAPS  H11Y  510   2.967   5.527   6.611  0.9733 -1.1921  0.7705
    4SAPS  C312  511   2.822   5.430   6.471 -0.7327 -0.1124  0.6313
    4SAPS  H12X  512   2.742   5.467   6.539 -1.1086 -0.2856  0.2839
    4SAPS  H12Y  513   2.790   5.327   6.447  2.7387 -0.8049 -1.6504
    4SAPS  C313  514   2.844   5.524   6.351  0.7073 -0.8330  0.2355
    4SAPS  H13X  515   2.913   5.602   6.391  0.8287 -0.0809 -1.3744
    4SAPS  H13Y  516   2.749   5.580   6.334  0.4901 -0.4836  2.3106
    4SAPS  C314  517   2.889   5.452   6.221 -0.4790 -0.1739  0.4799
    4SAPS  H14X  518   2.858   5.515   6.134  0.3985 -0.9881 -0.4496
    4SAPS  H14Y  519   2.825   5.361   6.207 -1.7987  0.9045 -0.9248
    4SAPS  C315  520   3.029   5.407   6.204 -0.0742 -0.0468 -0.4777
    4SAPS  H15X  521   3.053   5.332   6.282 -0.6346  0.5464  0.2853
    4SAPS  H15Y  522   3.107   5.484   6.217  0.6162 -0.1822 -3.1462
    4SAPS  C316  523   3.050   5.346   6.059 -0.1598  0.1110 -0.9274
    4SAPS  H16X  524   3.018   5.427   5.991 -4.0252  1.2182  1.8499
    4SAPS  H16Y  525   2.980   5.262   6.044  0.2768 -1.0727  2.7624
    4SAPS  C317  526   3.191   5.311   6.024  0.1337 -0.9388  0.2327
    4SAPS  H17X  527   3.248   5.406   6.014  0.8603 -1.3996 -0.1289
    4SAPS  H17Y  528   3.187   5.265   5.923  0.3024  3.1637 -1.8503
    4SAPS  C318  529   3.250   5.199   6.118 -0.3837  0.5339  0.6740
    4SAPS  H18X  530   3.171   5.139   6.167 -1.7757  0.2069 -1.8154
    4SAPS  H18Y  531   3.320   5.251   6.187 -0.5484  3.0796 -0.9546
    4SAPS  H18Z  532   3.312   5.129   6.057 -1.9652  0.8830 -1.4198
    5SAPS     N  533   0.344   6.482   8.172  0.4153  0.4009 -0.1540
    5SAPS   HN1  534   0.272   6.544   8.130 -0.9050 -0.8358  0.1933
    5SAPS   HN2  535   0.344   6.472   8.275 -1.0091  1.5231 -0.0084
    5SAPS   HN3  536   0.435   6.518   8.138  0.7738 -0.1774  0.1891
    5SAPS   C12  537   0.334   6.341   8.115  0.0621 -0.7772 -0.8461
    5SAPS  H12A  538   0.428   6.293   8.139  1.4703  1.7782 -0.7674
    5SAPS   C13  539   0.220   6.254   8.176  0.1244 -0.3813 -0.0453
    5SAPS  O13A  540   0.130   6.314   8.242  0.2154 -0.6525  0.2794
    5SAPS  O13B  541   0.213   6.134   8.146 -0.3228 -0.2826  0.9532
    5SAPS   C11  542   0.304   6.350   7.963  0.3629 -0.4304  1.2492
    5SAPS  H11A  543   0.199   6.385   7.952 -0.1326 -1.5719  2.1424
    5SAPS  H11B  544   0.314   6.251   7.914  0.4581 -0.3793  1.1654
    5SAPS     P  545   0.536   6.411   7.841  0.1341 -0.3725 -0.1515
    5SAPS   O13  546   0.594   6.527   7.778 -0.3846 -0.0900 -0.1241
    5SAPS   O14  547   0.612   6.355   7.959  0.0857 -0.3432  0.3653
    5SAPS   O12  548   0.394   6.447   7.892  0.3274  0.5340  0.1086
    5SAPS   O11  549   0.529   6.291   7.741  0.2356  0.0799  0.0723
    5SAPS    C1  550   0.479   6.307   7.612 -0.7550 -0.6335  0.3133
    5SAPS    HA  551   0.496   6.410   7.576  1.9180 -0.7791  0.9240
    5SAPS    HB  552   0.540   6.242   7.546 -0.1799  0.6263 -0.4203
    5SAPS    C2  553   0.330   6.253   7.601  0.0133 -0.2739  0.2076
    5SAPS    HS  554   0.265   6.331   7.646 -2.5839 -1.0593 -1.9454
    5SAPS   O21  555   0.310   6.127   7.668 -0.0258  0.2234  0.7641
    5SAPS   C21  556   0.180   6.100   7.699 -0.4906 -0.0750  0.2599
    5SAPS   O22  557   0.086   6.170   7.668  0.4999  0.3107  0.0455
    5SAPS   C22  558   0.170   5.969   7.773  0.7579 -0.0117 -0.1549
    5SAPS   H2R  559   0.265   5.922   7.806  1.0681 -0.1585 -1.2341
    5SAPS   H2S  560   0.109   5.981   7.866  0.4588  0.2451 -0.3812
    5SAPS    C3  561   0.287   6.252   7.448  0.2586 -0.1324  0.0862
    5SAPS    HX  562   0.183   6.216   7.436  0.6184 -1.3497  0.3731
    5SAPS    HY  563   0.358   6.179   7.403 -1.4549 -2.0004  0.2677
    5SAPS   O31  564   0.298   6.390   7.399  0.3601  0.5111  0.0710
    5SAPS   C31  565   0.297   6.387   7.265  0.7582  0.1646  0.1855
    5SAPS   O32  566   0.296   6.288   7.195  0.2548  0.0285 -0.2792
    5SAPS   C32  567   0.279   6.535   7.227  0.1282  1.3574 -0.1714
    5SAPS   H2X  568   0.381   6.577   7.238  1.1862 -0.4994 -2.1096
    5SAPS   H2Y  569   0.221   6.580   7.311 -0.3503 -2.7945  2.0201
    5SAPS   C23  570   0.097   5.854   7.694  0.2977  0.2894 -0.3162
    5SAPS   H3R  571   0.012   5.899   7.640  1.4352  0.4841 -2.0039
    5SAPS   H3S  572   0.062   5.774   7.764  0.2345 -1.4215 -2.2148
    5SAPS   C24  573   0.185   5.795   7.580 -1.0124 -0.3762  0.2050
    5SAPS   H4R  574   0.205   5.881   7.512 -0.5604  1.3183  2.3549
    5SAPS   H4S  575   0.120   5.736   7.512 -1.3156  0.8453 -0.6168
    5SAPS   C25  576   0.312   5.728   7.617 -0.0970 -0.4168 -0.3297
    5SAPS   H5R  577   0.309   5.669   7.710 -2.4331  0.5173  0.2720
    5SAPS   C26  578   0.427   5.733   7.546  0.3847 -0.0466 -0.3576
    5SAPS   H6R  579   0.506   5.669   7.589 -0.4671 -2.5429 -2.2392
    5SAPS   C27  580   0.451   5.815   7.419 -0.1840 -0.2713  0.6375
    5SAPS   H7R  581   0.356   5.862   7.384 -1.9024 -2.9927  1.3661
    5SAPS   H7S  582   0.474   5.740   7.341 -2.2439  0.5119 -0.8045
    5SAPS   C28  583   0.564   5.911   7.444  0.3995 -0.2133  0.3251
    5SAPS   H8R  584   0.615   5.904   7.542 -0.5691 -1.8895  0.7518
    5SAPS   C29  585   0.622   5.995   7.361 -0.1420  0.5233 -0.4784
    5SAPS   H9R  586   0.709   6.053   7.395  0.3526  1.3268 -2.8588
    5SAPS  C210  587   0.585   6.015   7.214 -0.4163  0.2619  0.1701
    5SAPS  H10R  588   0.563   6.122   7.195  0.5797  0.0303 -3.0559
    5SAPS  H10S  589   0.492   5.960   7.187 -0.3823 -0.5397  1.6089
    5SAPS  C211  590   0.702   5.967   7.126 -0.7334 -0.0932  0.4551
    5SAPS  H11R  591   0.748   5.872   7.155 -0.8140 -0.3710 -0.3125
    5SAPS  C212  592   0.746   6.015   7.009  0.5273 -0.0180  0.5481
    5SAPS  H12R  593   0.822   5.964   6.947 -1.4382 -0.1029 -1.9599
    5SAPS  C213  594   0.693   6.141   6.941  0.2898  0.6901  0.3542
    5SAPS  H13R  595   0.782   6.204   6.918  0.4240  0.1622 -0.5856
    5SAPS  H13S  596   0.617   6.199   6.998 -2.0564 -1.1638 -0.6941
    5SAPS  C214  597   0.617   6.107   6.814  0.2565  0.1222 -0.1585
    5SAPS  H14R  598   0.508   6.106   6.831  0.2775  3.0281  0.8038
    5SAPS  C215  599   0.665   6.076   6.691  1.2982 -1.5380  0.3167
    5SAPS  H15R  600   0.590   6.052   6.614  0.3784 -0.2212  0.7710
    5SAPS  C216  601   0.813   6.090   6.658 -0.6566  0.1224  0.3265
    5SAPS  H16R  602   0.886   6.062   6.737 -1.3760 -0.4765  0.7947
    5SAPS  H16S  603   0.825   6.194   6.622 -0.1140 -0.8358 -2.5370
    5SAPS  C217  604   0.852   6.007   6.537 -0.4587  0.0306  0.2380
    5SAPS  H17R  605   0.816   5.905   6.563  1.0565 -0.3230  1.0511
    5SAPS  H17S  606   0.963   6.006   6.529 -0.5619 -0.3276 -1.8990
    5SAPS  C218  607   0.795   6.065   6.395  0.0402  0.9324 -0.4159
    5SAPS  H18R  608   0.822   6.173   6.399  2.8641  0.2964 -0.5265
    5SAPS  H18S  609   0.686   6.058   6.415  0.2098  1.9599  1.0859
    5SAPS  C219  610   0.850   5.991   6.265 -0.8751 -0.7740 -0.1026
    5SAPS  H19R  611   0.960   5.982   6.278 -0.5396  1.2450 -1.1550
    5SAPS  H19S  612   0.824   6.057   6.180 -2.0135 -1.2177 -0.1082
    5SAPS  C220  613   0.781   5.859   6.252  0.3028  0.9683 -0.2493
    5SAPS  H20R  614   0.831   5.794   6.177 -1.5102 -0.2507 -0.4662
    5SAPS  H20S  615   0.672   5.865   6.230  0.5981  2.9864 -1.3713
    5SAPS  H20T  616   0.788   5.801   6.347 -1.8415  0.9870 -0.0280
    5SAPS   C33  617   0.217   6.558   7.090  0.0145 -0.9810 -0.9823
    5SAPS   H3X  618   0.171   6.658   7.071  2.5989  0.5445  0.2241
    5SAPS   H3Y  619   0.123   6.500   7.079  0.1364 -1.4816  0.4314
    5SAPS   C34  620   0.313   6.533   6.975  0.2264 -0.2999  0.3043
    5SAPS   H4X  621   0.365   6.435   6.980 -1.0581 -1.1575 -1.8009
    5SAPS   H4Y  622   0.394   6.608   6.984  1.4702 -1.3491 -1.4983
    5SAPS   C35  623   0.233   6.543   6.844 -0.0217 -0.1382 -0.4090
    5SAPS   H5X  624   0.177   6.637   6.857  0.9135  0.2626  0.9521
    5SAPS   H5Y  625   0.160   6.461   6.831  0.7891 -0.8048 -0.9328
    5SAPS   C36  626   0.314   6.549   6.715  0.7429 -0.0187  0.2265
    5SAPS   H6X  627   0.348   6.452   6.673  2.1108  0.0598  1.1038
    5SAPS   H6Y  628   0.397   6.622   6.726  0.4981  0.7303 -2.2638
    5SAPS   C37  629   0.239   6.623   6.604  0.7298  0.0744 -0.8532
    5SAPS   H7X  630   0.211   6.720   6.650  0.2000 -1.1810  1.6332
    5SAPS   H7Y  631   0.145   6.566   6.590  0.0914  0.4539  1.4653
    5SAPS   C38  632   0.335   6.658   6.485 -0.3351  0.0089 -0.4693
    5SAPS   H8X  633   0.379   6.560   6.455  0.1853  0.2019 -0.3392
    5SAPS   H8Y  634   0.412   6.720   6.534 -1.1148 -0.5848  1.6046
    5SAPS   C39  635   0.270   6.733   6.365 -0.1240  0.3406  0.1253
    5SAPS   H9X  636   0.231   6.828   6.407  0.8664  0.3264  1.1298
    5SAPS   H9Y  637   0.197   6.665   6.318 -1.3953  1.0660  0.9925
    5SAPS  C310  638   0.382   6.767   6.265  0.4864  0.6409 -0.3651
    5SAPS  H10X  639   0.446   6.680   6.239  0.8682  0.4416  1.0945
    5SAPS  H10Y  640   0.447   6.847   6.307 -0.9719  1.6593  0.0280
    5SAPS  C311  641   0.327   6.811   6.130  0.0090  0.2076 -0.8075
    5SAPS  H11X  642   0.412   6.847   6.067  0.7167 -0.7764 -0.4365
    5SAPS  H11Y  643   0.271   6.907   6.136  1.4422  1.1100 -1.2741
    5SAPS  C312  644   0.266   6.706   6.039  1.0603 -0.7157 -0.1257
    5SAPS  H12X  645   0.235   6.768   5.952 -2.9019  0.8836  2.1734
    5SAPS  H12Y  646   0.175   6.662   6.086  0.7886  0.7204  0.7614
    5SAPS  C313  647   0.356   6.584   6.008  0.5146 -0.8779 -0.6190
    5SAPS  H13X  648   0.369   6.535   6.107 -1.2345 -2.6605 -1.2094
    5SAPS  H13Y  649   0.457   6.611   5.969  0.3302  1.5892  0.3812
    5SAPS  C314  650   0.284   6.474   5.928 -0.5576 -0.0622 -0.4422
    5SAPS  H14X  651   0.212   6.520   5.856  0.9183  1.7494 -0.8269
    5SAPS  H14Y  652   0.228   6.406   5.996 -2.2457 -0.8182 -2.4606
    5SAPS  C315  653   0.382   6.393   5.840  0.4033  0.3500 -0.0870
    5SAPS  H15X  654   0.416   6.436   5.743  1.3424  0.4767  0.2818
    5SAPS  H15Y  655   0.324   6.301   5.817  1.1615  0.0718 -0.9475
    5SAPS  C316  656   0.504   6.339   5.919 -0.5658  0.1544 -0.0640
    5SAPS  H16X  657   0.455   6.301   6.012 -2.3980  2.0049 -0.1912
    5SAPS  H16Y  658   0.569   6.426   5.939 -2.2350  1.5289 -0.3378
    5SAPS  C317  659   0.584   6.227   5.846 -0.4205 -0.0551  0.0227
    5SAPS  H17X  660   0.619   6.256   5.744  1.4305 -1.1538  0.2970
    5SAPS  H17Y  661   0.515   6.142   5.826  0.1571 -0.1524 -1.7991
    5SAPS  C318  662   0.695   6.200   5.934 -0.5624  0.5183  0.0769
    5SAPS  H18X  663   0.752   6.293   5.955  1.5985 -0.9073  0.8348
    5SAPS  H18Y  664   0.754   6.114   5.897 -1.5755 -2.1449  3.9740
    5SAPS  H18Z  665   0.663   6.158   6.032 -1.0111  1.1504  0.2073
    6SAPS     N  666   2.271   6.320   8.276 -0.3604  0.3235 -0.4412
    6SAPS   HN1  667   2.298   6.379   8.356 -1.8647 -0.5554  0.7777
    6SAPS   HN2  668   2.199   6.372   8.222  1.2280  1.3979 -1.6130
    6SAPS   HN3  669   2.229   6.235   8.320  0.7748  0.6529  1.3370
    6SAPS   C12  670   2.395   6.291   8.188 -0.0810  0.1656 -0.2191
    6SAPS  H12A  671   2.447   6.379   8.153  1.4064 -0.8341 -0.6134
    6SAPS   C13  672   2.502   6.205   8.273  0.4012  0.2445  0.0965
    6SAPS  O13A  673   2.466   6.152   8.383 -0.0009  0.1308 -0.3992
    6SAPS  O13B  674   2.599   6.170   8.206 -0.2305  0.2964  0.2810
    6SAPS   C11  675   2.361   6.199   8.061  0.1878  0.5179 -0.0702
    6SAPS  H11A  676   2.334   6.097   8.098  0.8106  0.0744 -0.8008
    6SAPS  H11B  677   2.452   6.175   8.001  0.9736  1.1918  0.8289
    6SAPS     P  678   2.285   6.363   7.870 -0.0539  0.5933 -0.5208
    6SAPS   O13  679   2.160   6.423   7.834  0.0095  0.9622 -0.0511
    6SAPS   O14  680   2.378   6.457   7.935 -0.0898 -0.3149 -0.8426
    6SAPS   O12  681   2.257   6.246   7.972  0.0035  0.1632 -0.0695
    6SAPS   O11  682   2.359   6.302   7.748 -0.3252  0.4057  0.5497
    6SAPS    C1  683   2.286   6.194   7.686 -0.0750  0.9600 -0.4975
    6SAPS    HA  684   2.280   6.107   7.754  2.1577  3.3377  3.1127
    6SAPS    HB  685   2.187   6.214   7.640 -1.4496 -2.1347  0.8195
    6SAPS    C2  686   2.359   6.133   7.565  0.9706  0.6205 -0.9429
    6SAPS    HS  687   2.464   6.113   7.596  0.2726  1.1126  2.1119
    6SAPS   O21  688   2.351   6.223   7.454  0.6249 -0.3328 -0.7480
    6SAPS   C21  689   2.449   6.193   7.362  0.1256  1.1633  0.3147
    6SAPS   O22  690   2.536   6.109   7.382  0.0282  0.2274  0.0921
    6SAPS   C22  691   2.433   6.280   7.234 -0.4188 -1.0419  0.4707
    6SAPS   H2R  692   2.324   6.294   7.222 -0.1746  0.4851 -0.2369
    6SAPS   H2S  693   2.490   6.375   7.245  0.5359 -1.2275 -2.1763
    6SAPS    C3  694   2.285   5.999   7.524 -0.2756 -0.1092  0.8264
    6SAPS    HX  695   2.302   5.940   7.617  0.0315 -0.2552  0.6779
    6SAPS    HY  696   2.334   5.952   7.436 -1.3889  0.3764 -0.0664
    6SAPS   O31  697   2.147   6.030   7.502  0.1569  0.9983  0.1451
    6SAPS   C31  698   2.112   6.054   7.373 -0.0432 -0.0005 -0.1967
    6SAPS   O32  699   2.186   6.036   7.278 -0.4379  0.1548 -0.2425
    6SAPS   C32  700   1.969   6.082   7.371 -0.8156  0.7476  0.7309
    6SAPS   H2X  701   1.951   6.189   7.398  1.0752  1.6086 -1.1229
    6SAPS   H2Y  702   1.912   6.014   7.438 -0.1310 -2.0348 -1.3223
    6SAPS   C23  703   2.473   6.196   7.107  0.7879 -0.6673 -0.6761
    6SAPS   H3R  704   2.410   6.107   7.085 -0.0908  0.0004 -0.8917
    6SAPS   H3S  705   2.578   6.164   7.121  1.8639  3.0113  1.0469
    6SAPS   C24  706   2.473   6.295   6.983 -0.5768 -0.6916  0.4957
    6SAPS   H4R  707   2.545   6.374   7.013  1.3252 -1.4353 -1.7860
    6SAPS   H4S  708   2.374   6.345   6.974 -0.9269 -1.6107 -1.0274
    6SAPS   C25  709   2.510   6.236   6.850  0.4385 -0.7686  0.4722
    6SAPS   H5R  710   2.503   6.126   6.853  0.6379 -0.7528  2.3627
    6SAPS   C26  711   2.572   6.301   6.747 -0.4063 -0.3532  0.2344
    6SAPS   H6R  712   2.624   6.249   6.665  1.2460  1.8525 -0.2008
    6SAPS   C27  713   2.590   6.453   6.733  1.0387  0.1300 -0.1495
    6SAPS   H7R  714   2.674   6.472   6.663  1.2398  0.4066  0.1625
    6SAPS   H7S  715   2.620   6.503   6.828  1.9278  1.6916 -1.2058
    6SAPS   C28  716   2.466   6.529   6.690  0.8090  0.2351  0.6694
    6SAPS   H8R  717   2.386   6.532   6.766  0.4288 -0.0842  0.2839
    6SAPS   C29  718   2.442   6.586   6.566 -0.0061 -0.2248  0.5480
    6SAPS   H9R  719   2.358   6.657   6.554  0.1764 -0.1309 -0.2261
    6SAPS  C210  720   2.545   6.596   6.453  0.5516 -0.2257  0.6750
    6SAPS  H10R  721   2.640   6.632   6.497  0.5160  2.9805 -1.5069
    6SAPS  H10S  722   2.505   6.663   6.373  1.7255 -1.3124 -0.8805
    6SAPS  C211  723   2.571   6.463   6.383  0.3191 -0.5422 -0.7165
    6SAPS  H11R  724   2.516   6.377   6.425  0.8575 -0.2582  0.5882
    6SAPS  C212  725   2.645   6.454   6.277 -0.4761  0.0397 -0.4605
    6SAPS  H12R  726   2.647   6.362   6.217 -2.1258 -1.0369  1.0321
    6SAPS  C213  727   2.704   6.577   6.212  0.1587 -0.6874  0.8415
    6SAPS  H13R  728   2.782   6.540   6.141 -1.3517 -1.2146 -0.6044
    6SAPS  H13S  729   2.756   6.632   6.293  0.3042 -1.1027  1.0328
    6SAPS  C214  730   2.618   6.665   6.126 -0.7470  0.2733 -0.1213
    6SAPS  H14R  731   2.511   6.641   6.113 -1.1270  1.8621 -0.1130
    6SAPS  C215  732   2.673   6.778   6.076  0.7254 -0.0702 -0.0493
    6SAPS  H15R  733   2.610   6.851   6.022 -0.5504 -0.4621  0.8715
    6SAPS  C216  734   2.818   6.815   6.079 -0.5343  0.1495 -0.7890
    6SAPS  H16R  735   2.887   6.729   6.065 -1.1523 -0.5900  0.5506
    6SAPS  H16S  736   2.842   6.852   6.182  0.0060 -1.2135 -0.4079
    6SAPS  C217  737   2.855   6.927   5.973  0.1297 -0.1765 -1.0335
    6SAPS  H17R  738   2.799   6.899   5.881  0.1346 -1.1656 -0.7510
    6SAPS  H17S  739   2.964   6.924   5.951  0.6965 -0.6003  1.5014
    6SAPS  C218  740   2.817   7.069   6.014 -0.5117 -0.6580  0.5044
    6SAPS  H18R  741   2.852   7.088   6.117 -1.9323 -3.5823  1.6454
    6SAPS  H18S  742   2.708   7.094   6.010 -0.0182  1.7261 -3.2356
    6SAPS  C219  743   2.877   7.170   5.919  0.1387 -0.2106 -0.3611
    6SAPS  H19R  744   2.987   7.179   5.922  0.1727 -0.2672 -1.1126
    6SAPS  H19S  745   2.844   7.274   5.941  0.8190  0.0018 -0.3386
    6SAPS  C220  746   2.838   7.156   5.779  0.6597  0.0375 -0.8090
    6SAPS  H20R  747   2.732   7.124   5.771  1.1840 -1.4949 -2.0683
    6SAPS  H20S  748   2.904   7.081   5.731 -0.7549 -2.0538  0.3240
    6SAPS  H20T  749   2.854   7.254   5.729 -3.0740  1.8063  1.0583
    6SAPS   C33  750   1.915   6.064   7.224 -0.2468  0.4865  0.7424
    6SAPS   H3X  751   1.805   6.077   7.229 -0.3642 -0.3305  0.4093
    6SAPS   H3Y  752   1.936   5.964   7.182  0.1656  1.4755 -1.5672
    6SAPS   C34  753   1.972   6.171   7.127  0.6200 -0.6156  0.1511
    6SAPS   H4X  754   2.082   6.175   7.142  0.6495 -1.9673  0.4725
    6SAPS   H4Y  755   1.935   6.270   7.161 -1.4009 -1.3548  0.2429
    6SAPS   C35  756   1.935   6.145   6.987 -0.4109 -0.1725  0.5270
    6SAPS   H5X  757   1.827   6.173   6.982 -1.5332 -4.0664 -0.4018
    6SAPS   H5Y  758   1.930   6.038   6.958 -0.2798  0.6463 -2.9509
    6SAPS   C36  759   2.009   6.227   6.884 -0.4146 -0.2661 -0.5842
    6SAPS   H6X  760   2.118   6.206   6.886  0.0062  1.3192  3.6277
    6SAPS   H6Y  761   2.004   6.331   6.921 -0.6995 -0.3006 -0.5272
    6SAPS   C37  762   1.951   6.226   6.750  0.1618 -0.1450  0.0781
    6SAPS   H7X  763   1.852   6.277   6.748  0.1114 -0.0397  2.6490
    6SAPS   H7Y  764   1.935   6.120   6.723  3.1880 -0.1855 -2.0451
    6SAPS   C38  765   2.046   6.301   6.666 -0.2932  0.0313 -0.5341
    6SAPS   H8X  766   2.151   6.268   6.676 -0.0520  0.0218 -2.6104
    6SAPS   H8Y  767   2.048   6.405   6.705  0.7045 -0.9073  2.1566
    6SAPS   C39  768   1.998   6.316   6.527 -0.1168 -0.4230  0.6301
    6SAPS   H9X  769   1.904   6.373   6.544  0.4926  0.2504  1.8723
    6SAPS   H9Y  770   1.994   6.220   6.470  0.1127 -0.2659  0.3526
    6SAPS  C310  771   2.089   6.408   6.435 -0.4530 -0.2535  0.3773
    6SAPS  H10X  772   2.155   6.337   6.381  0.5010  0.5599  0.4394
    6SAPS  H10Y  773   2.153   6.468   6.503  1.5634 -3.3469  1.4630
    6SAPS  C311  774   2.005   6.501   6.344 -0.3131  0.4952 -0.2260
    6SAPS  H11X  775   1.946   6.565   6.413 -0.0355  1.3514 -0.7577
    6SAPS  H11Y  776   1.947   6.430   6.281  2.8959 -1.2921 -1.3963
    6SAPS  C312  777   2.092   6.603   6.264  0.0198  0.1119  0.0402
    6SAPS  H12X  778   2.151   6.666   6.334 -1.1354 -0.8869  2.0128
    6SAPS  H12Y  779   2.029   6.666   6.197  0.1201 -0.6969 -0.8373
    6SAPS  C313  780   2.197   6.540   6.174  0.4363  0.0933 -0.1733
    6SAPS  H13X  781   2.261   6.477   6.241  0.2015 -0.6269 -0.6135
    6SAPS  H13Y  782   2.262   6.622   6.138 -0.9077  1.1336 -0.2917
    6SAPS  C314  783   2.152   6.442   6.063  0.9685 -0.9986 -0.1701
    6SAPS  H14X  784   2.082   6.498   5.997  2.0234  0.1722 -0.3289
    6SAPS  H14Y  785   2.101   6.355   6.108  1.2290 -0.9525  0.2199
    6SAPS  C315  786   2.273   6.398   5.982 -0.1417  0.2237  0.0711
    6SAPS  H15X  787   2.318   6.310   6.033  2.8430  1.4649 -0.2416
    6SAPS  H15Y  788   2.344   6.483   5.981 -0.9267  0.9105  0.6998
    6SAPS  C316  789   2.237   6.349   5.842 -0.4438  0.0923 -0.4402
    6SAPS  H16X  790   2.328   6.319   5.786  0.7388 -1.3719  2.1190
    6SAPS  H16Y  791   2.197   6.440   5.792  0.3515  1.9360  2.0797
    6SAPS  C317  792   2.143   6.227   5.834  0.0618 -0.1449  0.2633
    6SAPS  H17X  793   2.052   6.238   5.896 -1.5631  1.8405 -2.2854
    6SAPS  H17Y  794   2.203   6.143   5.876 -3.0482 -2.3108  0.7280
    6SAPS  C318  795   2.097   6.194   5.690 -0.1969  0.4157  0.1558
    6SAPS  H18X  796   2.006   6.132   5.704  0.5389 -0.6332  0.3982
    6SAPS  H18Y  797   2.181   6.153   5.631 -0.5299  0.9150 -0.6872
    6SAPS  H18Z  798   2.059   6.284   5.637 -2.2598 -0.6866 -0.3201
    7SAPS     N  799   5.044   3.118   7.884  0.0294  0.6575  1.0253
    7SAPS   HN1  800   4.973   3.103   7.810  0.3002  2.7724  0.2759
    7SAPS   HN2  801   5.003   3.197   7.939 -3.3064  0.2250 -0.5848
    7SAPS   HN3  802   5.134   3.148   7.841  1.7552 -2.0714  2.4541
    7SAPS   C12  803   5.075   2.996   7.965 -0.2679 -0.0546 -0.9589
    7SAPS  H12A  804   5.146   3.032   8.038 -1.3247  2.1141 -0.9351
    7SAPS   C13  805   4.963   2.933   8.054  0.1553  0.1611 -0.1314
    7SAPS  O13A  806   4.858   2.999   8.064  0.5288  0.2851 -0.2456
    7SAPS  O13B  807   4.990   2.837   8.135  0.1069 -0.4367 -0.2524
    7SAPS   C11  808   5.127   2.878   7.870  0.1850  0.5000 -0.6894
    7SAPS  H11A  809   5.046   2.841   7.804 -1.3399  0.1364  1.3144
    7SAPS  H11B  810   5.152   2.796   7.941  1.9075 -0.1469 -1.9761
    7SAPS     P  811   5.394   2.878   7.845 -0.2701  0.0779  0.7305
    7SAPS   O13  812   5.435   2.955   7.967 -0.4579  0.1673  0.0051
    7SAPS   O14  813   5.400   2.731   7.855 -0.1658 -0.6549  0.2613
    7SAPS   O12  814   5.245   2.918   7.804 -0.9835 -0.0859 -0.0767
    7SAPS   O11  815   5.476   2.903   7.711 -0.0181 -0.2185 -0.2062
    7SAPS    C1  816   5.405   2.951   7.596  0.3930 -0.0500 -0.2001
    7SAPS    HA  817   5.350   3.043   7.624 -1.8102 -0.6252 -2.3470
    7SAPS    HB  818   5.485   2.988   7.527  0.7483  1.6511  1.0573
    7SAPS    C2  819   5.311   2.853   7.510  0.3788 -0.6960  1.0999
    7SAPS    HS  820   5.219   2.834   7.569 -1.1805  0.9377 -0.6855
    7SAPS   O21  821   5.384   2.732   7.472  0.3849 -0.3691 -0.1899
    7SAPS   C21  822   5.316   2.614   7.477  0.2400  0.1551 -0.3505
    7SAPS   O22  823   5.202   2.600   7.517 -0.5905 -0.2940  0.2057
    7SAPS   C22  824   5.397   2.494   7.421 -0.0965  0.5941  0.2713
    7SAPS   H2R  825   5.481   2.520   7.353  0.1161 -1.1934 -0.1988
    7SAPS   H2S  826   5.441   2.442   7.509  0.7948  2.9225  1.2783
    7SAPS    C3  827   5.257   2.927   7.385  0.5299  0.2621  0.4834
    7SAPS    HX  828   5.349   2.942   7.324 -1.2827  0.8018 -2.2999
    7SAPS    HY  829   5.216   3.025   7.417 -0.5081  0.2547 -0.7801
    7SAPS   O31  830   5.177   2.842   7.296 -0.0022 -0.0448  0.7086
    7SAPS   C31  831   5.052   2.839   7.327 -0.2241 -0.0374  0.1957
    7SAPS   O32  832   4.996   2.917   7.405  0.3365 -0.3315  0.1866
    7SAPS   C32  833   4.983   2.724   7.246  0.1473 -0.6799 -0.2995
    7SAPS   H2X  834   4.876   2.753   7.241 -0.0018 -1.2180 -0.3383
    7SAPS   H2Y  835   4.991   2.631   7.307 -0.2235  0.0890  0.9441
    7SAPS   C23  836   5.317   2.388   7.342 -0.2162 -0.3840  0.6616
    7SAPS   H3R  837   5.212   2.396   7.376  0.1694 -1.0906  2.1459
    7SAPS   H3S  838   5.335   2.286   7.383 -0.2033  0.1248  1.9649
    7SAPS   C24  839   5.317   2.401   7.188  0.0239 -0.2051 -0.1522
    7SAPS   H4R  840   5.248   2.328   7.141  1.7911 -0.9607 -1.6895
    7SAPS   H4S  841   5.415   2.357   7.161 -0.1976 -0.0346 -1.2918
    7SAPS   C25  842   5.307   2.534   7.120 -0.2704 -0.5541 -0.4296
    7SAPS   H5R  843   5.286   2.616   7.191  0.4038 -1.0379  0.3509
    7SAPS   C26  844   5.342   2.554   6.988 -0.7052 -0.0351  1.1547
    7SAPS   H6R  845   5.346   2.656   6.948 -1.4623 -0.4334  0.0183
    7SAPS   C27  846   5.361   2.444   6.887 -0.3641  0.5358 -0.5257
    7SAPS   H7R  847   5.309   2.471   6.793  0.5820  0.8873 -0.9646
    7SAPS   H7S  848   5.310   2.353   6.924 -1.5658  1.6581  0.6783
    7SAPS   C28  849   5.507   2.423   6.849 -0.2909 -0.1934 -0.8583
    7SAPS   H8R  850   5.575   2.423   6.935  1.3137 -0.9585 -2.0883
    7SAPS   C29  851   5.545   2.368   6.728 -0.1356 -0.3922 -0.5204
    7SAPS   H9R  852   5.653   2.358   6.711  0.0876  2.8690 -1.7268
    7SAPS  C210  853   5.461   2.339   6.604 -0.0590  0.2312 -0.2866
    7SAPS  H10R  854   5.368   2.284   6.632  0.7010 -1.3069 -0.6753
    7SAPS  H10S  855   5.511   2.273   6.529  2.7831  0.6764  1.0929
    7SAPS  C211  856   5.431   2.467   6.537 -0.5535  0.1949  0.3805
    7SAPS  H11R  857   5.391   2.549   6.599 -1.2051  0.7248 -0.7001
    7SAPS  C212  858   5.466   2.506   6.411 -0.3094 -0.4665 -0.8279
    7SAPS  H12R  859   5.441   2.613   6.399 -2.5191 -0.4648  2.4082
    7SAPS  C213  860   5.528   2.426   6.301 -0.2306  0.5619 -0.1502
    7SAPS  H13R  861   5.577   2.335   6.342 -1.4526  0.6517  1.6176
    7SAPS  H13S  862   5.614   2.487   6.265  0.4900 -0.0115  0.5479
    7SAPS  C214  863   5.443   2.370   6.192  0.4540  0.4596 -0.4426
    7SAPS  H14R  864   5.362   2.302   6.223  2.9498 -2.5729 -0.1861
    7SAPS  C215  865   5.452   2.398   6.062  0.0376  0.0624  0.0820
    7SAPS  H15R  866   5.364   2.375   6.000 -0.3950  0.7445  0.4417
    7SAPS  C216  867   5.544   2.487   5.990 -0.0149 -0.1730 -0.2687
    7SAPS  H16R  868   5.613   2.424   5.931  0.0072  0.3873 -0.8536
    7SAPS  H16S  869   5.607   2.550   6.058  0.0313  1.1682 -1.5034
    7SAPS  C217  870   5.466   2.565   5.884  0.1828  0.1204 -1.0542
    7SAPS  H17R  871   5.544   2.636   5.849  0.8625  0.0399  0.2346
    7SAPS  H17S  872   5.371   2.619   5.901  0.1356  0.1409 -1.3689
    7SAPS  C218  873   5.449   2.477   5.758 -0.4713 -0.3889  0.2632
    7SAPS  H18R  874   5.371   2.399   5.773 -1.7633  1.1526  2.0584
    7SAPS  H18S  875   5.541   2.419   5.737 -1.1210 -1.7448  1.0211
    7SAPS  C219  876   5.421   2.544   5.625 -0.3732  0.4103 -0.6253
    7SAPS  H19R  877   5.390   2.463   5.555 -3.0125  0.3451  0.4833
    7SAPS  H19S  878   5.514   2.601   5.604 -0.6057 -0.0283 -3.1729
    7SAPS  C220  879   5.302   2.637   5.639 -0.8207  0.0624 -0.0635
    7SAPS  H20R  880   5.273   2.668   5.536 -1.5407  0.5786  0.2828
    7SAPS  H20S  881   5.335   2.729   5.693  3.9078 -0.7189 -1.1687
    7SAPS  H20T  882   5.214   2.587   5.683 -0.8568  0.0178 -0.1867
    7SAPS   C33  883   5.037   2.711   7.102 -0.9840 -0.5641 -0.0400
    7SAPS   H3X  884   5.025   2.605   7.070 -0.9339 -0.4306 -0.5084
    7SAPS   H3Y  885   5.144   2.741   7.097 -0.7674 -0.9560  1.6019
    7SAPS   C34  886   4.956   2.796   6.998 -0.2324  0.3122  0.3792
    7SAPS   H4X  887   4.995   2.899   7.009 -1.2319  0.5488  2.0937
    7SAPS   H4Y  888   4.846   2.790   7.014 -0.0760 -0.1022  1.3873
    7SAPS   C35  889   4.995   2.739   6.859  0.3227  0.1528 -0.2280
    7SAPS   H5X  890   4.947   2.639   6.851  1.0830 -0.3217  0.8344
    7SAPS   H5Y  891   5.106   2.732   6.851  0.2530  0.9525 -3.1442
    7SAPS   C36  892   4.957   2.835   6.745 -0.2358 -0.4049  0.5562
    7SAPS   H6X  893   5.007   2.934   6.748 -0.5161 -0.2722  0.8685
    7SAPS   H6Y  894   4.848   2.855   6.748  0.0747  1.6284 -0.1388
    7SAPS   C37  895   5.005   2.783   6.608 -0.3376  0.9334 -0.7325
    7SAPS   H7X  896   4.929   2.706   6.581 -1.0974  0.6489  1.8781
    7SAPS   H7Y  897   5.107   2.742   6.624  0.0115  2.6104  2.0578
    7SAPS   C38  898   4.994   2.895   6.508 -0.5385  0.1505 -1.2098
    7SAPS   H8X  899   5.065   2.971   6.545 -1.1074  0.3536 -0.5054
    7SAPS   H8Y  900   4.899   2.952   6.511 -0.1762  0.7433  1.3266
    7SAPS   C39  901   5.026   2.847   6.372  0.1652 -0.4976 -0.5715
    7SAPS   H9X  902   4.967   2.756   6.347  1.9060 -1.5769 -0.9361
    7SAPS   H9Y  903   5.135   2.829   6.380  0.4235  0.2962 -1.9469
    7SAPS  C310  904   5.024   2.957   6.271 -0.0716 -0.6016  0.4180
    7SAPS  H10X  905   5.082   3.046   6.302  1.3230 -0.8075 -1.4772
    7SAPS  H10Y  906   4.918   2.991   6.262  0.5786  1.1882 -1.2160
    7SAPS  C311  907   5.078   2.913   6.133 -0.4948  0.6866 -0.1903
    7SAPS  H11X  908   5.019   2.821   6.111 -1.0598  1.0659 -0.2851
    7SAPS  H11Y  909   5.184   2.881   6.146 -1.2799 -0.9112  3.7783
    7SAPS  C312  910   5.053   3.021   6.028  0.4306 -0.4002 -0.8519
    7SAPS  H12X  911   5.134   3.096   6.038  0.4848 -0.3178 -1.7876
    7SAPS  H12Y  912   4.948   3.055   6.040  0.9832  1.5764 -1.3000
    7SAPS  C313  913   5.056   2.965   5.878  0.8074  0.9710  0.7947
    7SAPS  H13X  914   4.980   2.885   5.872  0.5324  1.2846  0.0198
    7SAPS  H13Y  915   5.148   2.911   5.847 -0.4720  0.5137 -2.5699
    7SAPS  C314  916   5.023   3.069   5.774  0.1456  0.0645 -0.5193
    7SAPS  H14X  917   5.092   3.155   5.790  0.5828 -0.2351 -0.7509
    7SAPS  H14Y  918   4.923   3.115   5.784  0.9749  1.6360  1.2332
    7SAPS  C315  919   5.037   3.020   5.624 -0.0176 -0.4678  0.0751
    7SAPS  H15X  920   4.981   2.926   5.607 -0.6782  0.0358 -0.6208
    7SAPS  H15Y  921   5.141   2.993   5.596  0.1944  1.6842 -1.4534
    7SAPS  C316  922   4.978   3.116   5.523  0.1250  0.0177 -0.1128
    7SAPS  H16X  923   4.869   3.133   5.541  0.5693  0.4276  2.6750
    7SAPS  H16Y  924   5.011   3.068   5.428  0.6918  1.5423 -0.7229
    7SAPS  C317  925   5.036   3.261   5.529 -0.9017 -0.1686 -0.2468
    7SAPS  H17X  926   5.144   3.258   5.505 -0.5934  1.5001  0.7969
    7SAPS  H17Y  927   5.017   3.301   5.631  0.5568 -0.6770  0.2486
    7SAPS  C318  928   4.975   3.343   5.421 -0.6262  0.6142 -0.1637
    7SAPS  H18X  929   4.995   3.311   5.316  0.5905 -0.2338  0.2971
    7SAPS  H18Y  930   5.024   3.442   5.422  0.6969 -0.0166 -0.1881
    7SAPS  H18Z  931   4.867   3.365   5.436 -0.8736  1.1563 -2.3109
    8SAPS     N  932   4.294   0.247   8.152 -0.1133  0.2356 -0.1271
    8SAPS   HN1  933   4.286   0.217   8.251  0.9353  0.1054 -0.0652
    8SAPS   HN2  934   4.202   0.262   8.107 -1.0170  0.4848  1.7569
    8SAPS   HN3  935   4.356   0.183   8.097 -1.1710  0.2748 -1.4077
    8SAPS   C12  936   4.363   0.383   8.128  0.2601 -0.1864  0.1525
    8SAPS  H12A  937   4.304   0.453   8.186  0.2011 -0.8087  0.8473
    8SAPS   C13  938   4.512   0.396   8.177  0.7634  0.3678  0.4991
    8SAPS  O13A  939   4.538   0.335   8.280 -0.1435 -0.0375 -0.3748
    8SAPS  O13B  940   4.581   0.499   8.147  0.5218 -0.0071 -0.6920
    8SAPS   C11  941   4.342   0.411   7.980  0.2667 -0.1010  1.0840
    8SAPS  H11A  942   4.391   0.328   7.924  0.0948 -0.3069  1.2392
    8SAPS  H11B  943   4.401   0.498   7.942 -0.9089  0.9662  1.6530
    8SAPS     P  944   4.142   0.581   7.964  0.1777  0.3746  0.2587
    8SAPS   O13  945   4.002   0.573   7.930  0.0219 -0.1143 -0.9026
    8SAPS   O14  946   4.172   0.633   8.099 -0.2337 -0.0608  0.1028
    8SAPS   O12  947   4.200   0.429   7.942 -0.7323 -0.5089 -0.6790
    8SAPS   O11  948   4.216   0.654   7.851  0.0224  0.3205  0.9129
    8SAPS    C1  949   4.285   0.774   7.872 -0.6880 -0.4568  0.0784
    8SAPS    HA  950   4.229   0.870   7.880  1.8450  1.1410  0.0027
    8SAPS    HB  951   4.351   0.765   7.960 -2.1079 -0.2259  1.1935
    8SAPS    C2  952   4.382   0.792   7.739  0.7037 -0.8010 -0.0975
    8SAPS    HS  953   4.447   0.877   7.767 -0.5772  0.2736 -0.2939
    8SAPS   O21  954   4.298   0.811   7.621  0.6887 -0.2208  0.1231
    8SAPS   C21  955   4.362   0.889   7.542  0.7782 -0.1483 -0.7505
    8SAPS   O22  956   4.465   0.946   7.564 -0.4275 -0.4570  0.0917
    8SAPS   C22  957   4.292   0.892   7.399  0.4819  0.1486 -0.3603
    8SAPS   H2R  958   4.309   0.793   7.351 -0.3999 -0.2997  0.2216
    8SAPS   H2S  959   4.183   0.893   7.419  0.4408  2.0873 -0.5134
    8SAPS    C3  960   4.472   0.668   7.725  0.9148 -0.3439  0.0462
    8SAPS    HX  961   4.411   0.575   7.725 -0.4659  0.5114  2.1849
    8SAPS    HY  962   4.533   0.665   7.818  0.7155  2.8089  0.3857
    8SAPS   O31  963   4.562   0.667   7.610  0.3796  0.4636 -0.6285
    8SAPS   C31  964   4.632   0.555   7.615 -0.4532  0.4060 -0.3294
    8SAPS   O32  965   4.609   0.465   7.694  0.9212 -0.7937  0.3451
    8SAPS   C32  966   4.737   0.544   7.504  0.2018 -0.2152  0.2494
    8SAPS   H2X  967   4.830   0.599   7.531  1.1239 -0.1018 -2.7558
    8SAPS   H2Y  968   4.693   0.598   7.418  0.1017 -2.2497 -1.0636
    8SAPS   C23  969   4.336   1.016   7.320 -0.1535  0.1169 -0.0182
    8SAPS   H3R  970   4.447   1.019   7.310 -0.0710  0.2178  0.8417
    8SAPS   H3S  971   4.322   1.108   7.380 -0.7005 -2.2291  3.8101
    8SAPS   C24  972   4.258   1.021   7.191 -0.3652 -0.2418  0.9105
    8SAPS   H4R  973   4.150   1.038   7.211 -0.7640 -0.2803 -1.0126
    8SAPS   H4S  974   4.260   0.918   7.149  0.6406 -0.2440  0.9281
    8SAPS   C25  975   4.317   1.118   7.091  0.3522  0.2364  0.0020
    8SAPS   H5R  976   4.335   1.214   7.142 -0.4344  1.4629 -1.9010
    8SAPS   C26  977   4.341   1.091   6.963  1.1164 -0.3063 -0.1951
    8SAPS   H6R  978   4.370   1.180   6.905 -0.5732 -1.0905 -2.4047
    8SAPS   C27  979   4.276   0.986   6.881 -0.0512 -0.4021 -0.0999
    8SAPS   H7R  980   4.279   0.893   6.942 -2.8518  0.6771  1.9390
    8SAPS   H7S  981   4.340   0.967   6.792 -1.1136  2.4445 -1.5813
    8SAPS   C28  982   4.137   1.023   6.841  0.4804  0.1356 -0.3300
    8SAPS   H8R  983   4.065   0.961   6.897  0.5862 -0.6308 -1.0304
    8SAPS   C29  984   4.092   1.110   6.742  0.4491 -0.1076 -0.0333
    8SAPS   H9R  985   3.983   1.117   6.729  0.4705  0.0349 -0.1359
    8SAPS  C210  986   4.182   1.189   6.652  0.1219 -0.4439 -0.1624
    8SAPS  H10R  987   4.284   1.159   6.683 -0.0540 -0.5295  0.3368
    8SAPS  H10S  988   4.176   1.297   6.677 -2.1039 -1.3566  4.0592
    8SAPS  C211  989   4.136   1.163   6.514 -0.6063  0.7078  0.6492
    8SAPS  H11R  990   4.038   1.119   6.492 -0.2053  1.3769 -3.1261
    8SAPS  C212  991   4.209   1.191   6.403  0.2585  0.7116  0.3283
    8SAPS  H12R  992   4.160   1.164   6.308 -2.3270  0.3090  1.6862
    8SAPS  C213  993   4.349   1.253   6.400 -0.4657 -0.8248  0.1826
    8SAPS  H13R  994   4.399   1.191   6.324  0.0839 -0.6856  0.4205
    8SAPS  H13S  995   4.409   1.249   6.494  1.9768 -0.8147 -1.3098
    8SAPS  C214  996   4.355   1.394   6.351  0.5721 -0.5946  0.4366
    8SAPS  H14R  997   4.343   1.474   6.426  2.6812  0.7803 -0.5959
    8SAPS  C215  998   4.372   1.440   6.224  0.6812 -0.6214 -1.4373
    8SAPS  H15R  999   4.343   1.545   6.207  2.1313  0.2181  0.8156
    8SAPS  C216 1000   4.397   1.366   6.098  0.0964 -0.0376  0.4102
    8SAPS  H16R 1001   4.297   1.348   6.053  1.2310  0.9021 -2.7768
    8SAPS  H16S 1002   4.453   1.278   6.136 -1.0234 -0.4210  1.2133
    8SAPS  C217 1003   4.487   1.448   5.999  0.0176 -0.8920  0.2129
    8SAPS  H17R 1004   4.564   1.505   6.055 -1.2316 -1.6627  2.8565
    8SAPS  H17S 1005   4.425   1.517   5.937  0.3614 -0.9367 -0.1872
    8SAPS  C218 1006   4.558   1.357   5.900 -0.3923 -0.1169  0.1801
    8SAPS  H18R 1007   4.496   1.275   5.858 -0.1475 -0.0604 -0.3098
    8SAPS  H18S 1008   4.637   1.312   5.964 -0.5204 -1.1647 -0.3709
    8SAPS  C219 1009   4.635   1.421   5.777 -0.5813 -0.1032  0.0715
    8SAPS  H19R 1010   4.681   1.519   5.798  0.5271 -0.4180 -0.8008
    8SAPS  H19S 1011   4.574   1.448   5.688  0.2989 -2.9414 -1.5530
    8SAPS  C220 1012   4.744   1.320   5.725  0.1896 -0.0921 -1.0378
    8SAPS  H20R 1013   4.816   1.298   5.806 -1.1998 -1.7763 -0.1952
    8SAPS  H20S 1014   4.794   1.373   5.641  1.7598 -0.5377 -0.4162
    8SAPS  H20T 1015   4.695   1.225   5.695  2.9948 -1.3117 -2.0547
    8SAPS   C33 1016   4.771   0.398   7.471  0.2380 -0.0828 -0.3267
    8SAPS   H3X 1017   4.679   0.337   7.456 -1.4298  2.3874 -0.6937
    8SAPS   H3Y 1018   4.836   0.351   7.548  0.6237 -0.8427 -1.1005
    8SAPS   C34 1019   4.846   0.393   7.334  0.2129 -0.3528  0.4012
    8SAPS   H4X 1020   4.922   0.312   7.333  1.0055  0.3938 -0.2513
    8SAPS   H4Y 1021   4.907   0.485   7.330 -0.8133  0.3447 -3.1178
    8SAPS   C35 1022   4.739   0.377   7.222  0.6657  0.1470 -0.1787
    8SAPS   H5X 1023   4.650   0.434   7.256  0.4626  0.4356 -1.1667
    8SAPS   H5Y 1024   4.703   0.272   7.222  1.4588 -0.1407 -1.3142
    8SAPS   C36 1025   4.797   0.425   7.087  0.4976 -0.4763 -0.2648
    8SAPS   H6X 1026   4.889   0.362   7.085  0.6211 -0.3368  0.6155
    8SAPS   H6Y 1027   4.830   0.531   7.094 -2.8151  0.5808  1.4467
    8SAPS   C37 1028   4.698   0.410   6.974  0.5469 -0.4604 -0.0187
    8SAPS   H7X 1029   4.604   0.464   7.000  1.4189  0.3940  1.5559
    8SAPS   H7Y 1030   4.669   0.304   6.961 -2.2265  0.3433 -0.9637
    8SAPS   C38 1031   4.755   0.462   6.847 -0.9551  0.7937 -0.2419
    8SAPS   H8X 1032   4.854   0.414   6.840 -0.7968  1.0290  0.3758
    8SAPS   H8Y 1033   4.788   0.568   6.851  4.1842 -0.5728  1.1995
    8SAPS   C39 1034   4.687   0.428   6.710  0.4282 -0.2396 -0.0296
    8SAPS   H9X 1035   4.598   0.494   6.705  1.5516  1.2956 -0.2763
    8SAPS   H9Y 1036   4.662   0.320   6.700  3.3636 -0.9400 -1.0949
    8SAPS  C310 1037   4.780   0.468   6.600  0.4463 -0.5984  0.3540
    8SAPS  H10X 1038   4.870   0.403   6.589  2.5478  2.3794 -1.6771
    8SAPS  H10Y 1039   4.816   0.569   6.628 -1.2131 -0.6117  2.8744
    8SAPS  C311 1040   4.702   0.466   6.463 -0.9118  0.3322  0.4415
    8SAPS  H11X 1041   4.737   0.558   6.411 -1.2840  0.4487  0.3931
    8SAPS  H11Y 1042   4.596   0.485   6.490 -1.4889  0.6115 -1.8659
    8SAPS  C312 1043   4.704   0.329   6.388  0.3481 -0.1120 -0.6600
    8SAPS  H12X 1044   4.684   0.251   6.464 -2.0242  0.9566 -0.0945
    8SAPS  H12Y 1045   4.803   0.304   6.345  0.3030  0.7574 -1.2949
    8SAPS  C313 1046   4.598   0.322   6.281  0.4341 -0.3230  0.6306
    8SAPS  H13X 1047   4.502   0.354   6.326 -0.3660 -1.2184 -0.3857
    8SAPS  H13Y 1048   4.592   0.214   6.254  1.4714 -0.8351  2.2922
    8SAPS  C314 1049   4.618   0.413   6.160  0.2422 -0.9428 -0.1383
    8SAPS  H14X 1050   4.626   0.521   6.184  2.7251 -0.7027 -1.7744
    8SAPS  H14Y 1051   4.524   0.404   6.102 -1.7301 -0.0709  2.6821
    8SAPS  C315 1052   4.743   0.371   6.080  0.3065 -0.0206 -0.2482
    8SAPS  H15X 1053   4.773   0.266   6.100  1.8500  0.2843 -0.8491
    8SAPS  H15Y 1054   4.833   0.424   6.116  0.1177 -0.5004  0.9901
    8SAPS  C316 1055   4.719   0.370   5.929 -0.6315 -0.3553  0.5642
    8SAPS  H16X 1056   4.703   0.471   5.885 -2.4502 -0.8022  0.1326
    8SAPS  H16Y 1057   4.641   0.299   5.894  0.6948 -1.6796  0.1420
    8SAPS  C317 1058   4.851   0.323   5.855  0.2403  0.8711  0.8316
    8SAPS  H17X 1059   4.926   0.323   5.936  0.2749  1.8437  0.8067
    8SAPS  H17Y 1060   4.882   0.391   5.773  1.6509  0.6993  1.2057
    8SAPS  C318 1061   4.829   0.182   5.782 -0.1184  0.2442  0.2753
    8SAPS  H18X 1062   4.765   0.195   5.692 -0.4217 -0.4548  0.3828
    8SAPS  H18Y 1063   4.785   0.098   5.839  2.9335 -1.7738 -0.0968
    8SAPS  H18Z 1064   4.932   0.148   5.755 -0.5210 -3.3250  2.5281
    9SAPS     N 1065   0.851   0.629   8.033  0.0814 -0.4923 -0.5358
    9SAPS   HN1 1066   0.833   0.619   7.931 -1.5331 -1.5812 -0.1812
    9SAPS   HN2 1067   0.840   0.731   8.048 -3.1594 -0.9244  0.9010
    9SAPS   HN3 1068   0.945   0.586   8.046 -0.7601 -2.1462  0.4122
    9SAPS   C12 1069   0.744   0.561   8.106 -0.0977  0.2099 -0.5880
    9SAPS  H12A 1070   0.767   0.565   8.212  1.4582 -0.3622 -0.8753
    9SAPS   C13 1071   0.601   0.638   8.083 -0.2407 -0.0027 -0.1851
    9SAPS  O13A 1072   0.600   0.755   8.042 -0.3574 -0.6018 -0.3396
    9SAPS  O13B 1073   0.518   0.592   8.168 -0.4230 -0.5604  0.2119
    9SAPS   C11 1074   0.728   0.416   8.049 -0.2225 -0.3619 -0.1963
    9SAPS  H11A 1075   0.694   0.413   7.943 -0.5794 -0.5284 -0.0768
    9SAPS  H11B 1076   0.642   0.368   8.101  0.5204  0.5671  2.0101
    9SAPS     P 1077   0.855   0.187   8.027  0.0632 -0.1128 -0.2402
    9SAPS   O13 1078   0.920   0.110   8.137  0.5025 -0.0506 -0.0860
    9SAPS   O14 1079   0.714   0.150   7.996 -0.1430  0.3175  0.2623
    9SAPS   O12 1080   0.857   0.345   8.069 -0.0630  0.0858 -0.2329
    9SAPS   O11 1081   0.945   0.178   7.891 -0.3202  0.6101  0.1435
    9SAPS    C1 1082   0.954   0.302   7.822 -0.0844 -0.0201  0.1479
    9SAPS    HA 1083   0.855   0.353   7.823 -0.3945 -0.5427  2.4813
    9SAPS    HB 1084   1.035   0.363   7.865  0.8374 -1.3536  0.3630
    9SAPS    C2 1085   0.996   0.279   7.671  0.4088 -0.3876 -0.2894
    9SAPS    HS 1086   1.012   0.382   7.633  1.3796 -0.3591  0.1570
    9SAPS   O21 1087   0.905   0.210   7.586  0.3330 -0.1466 -0.7014
    9SAPS   C21 1088   0.787   0.274   7.574  0.5621  0.0686 -0.3034
    9SAPS   O22 1089   0.769   0.398   7.587  0.5534 -0.1085 -0.2510
    9SAPS   C22 1090   0.686   0.180   7.505 -0.3118  0.0204 -0.6688
    9SAPS   H2R 1091   0.675   0.089   7.569 -1.2970  0.3279 -0.3825
    9SAPS   H2S 1092   0.591   0.237   7.516 -0.6420 -0.5549 -0.4623
    9SAPS    C3 1093   1.143   0.210   7.651  0.6576 -0.0370 -0.0616
    9SAPS    HX 1094   1.150   0.106   7.692  0.5101  0.1335  0.4091
    9SAPS    HY 1095   1.210   0.273   7.713  1.1870 -0.8316  0.1987
    9SAPS   O31 1096   1.183   0.223   7.510 -0.6479  0.1442  0.5066
    9SAPS   C31 1097   1.178   0.110   7.439  0.2783  0.2876 -0.0144
    9SAPS   O32 1098   1.133  -0.000   7.469  0.3932 -0.3656 -0.5696
    9SAPS   C32 1099   1.240   0.145   7.306  0.7754  0.2208 -0.1753
    9SAPS   H2X 1100   1.335   0.195   7.332  1.6826 -1.6632  0.3524
    9SAPS   H2Y 1101   1.175   0.211   7.246 -0.0946 -0.1924  0.2906
    9SAPS   C23 1102   0.729   0.145   7.361 -0.3498  0.0767  0.2544
    9SAPS   H3R 1103   0.640   0.092   7.320 -1.7472 -0.2092  3.3419
    9SAPS   H3S 1104   0.819   0.081   7.358 -0.9665 -0.8573  0.9187
    9SAPS   C24 1105   0.734   0.269   7.263  0.1452  0.0884  0.3085
    9SAPS   H4R 1106   0.816   0.337   7.295  0.4999  0.2899 -0.9662
    9SAPS   H4S 1107   0.636   0.320   7.270  0.2490  0.1346  1.7872
    9SAPS   C25 1108   0.765   0.219   7.122  0.7945  0.0456  0.1848
    9SAPS   H5R 1109   0.862   0.169   7.121 -0.3616 -2.3635  1.1466
    9SAPS   C26 1110   0.703   0.245   7.003 -0.1684 -0.3284  0.5224
    9SAPS   H6R 1111   0.739   0.180   6.922  1.9791  0.2679  0.9383
    9SAPS   C27 1112   0.567   0.308   6.990  0.4384  0.0464 -0.2021
    9SAPS   H7R 1113   0.585   0.417   6.974  0.7607  0.3029  1.6669
    9SAPS   H7S 1114   0.495   0.287   7.072  0.2964 -1.2940 -0.6449
    9SAPS   C28 1115   0.498   0.252   6.866 -0.0152 -0.2544  0.0433
    9SAPS   H8R 1116   0.527   0.309   6.777  0.0198 -0.3942 -0.0361
    9SAPS   C29 1117   0.416   0.146   6.848 -0.6956 -0.0333  0.1748
    9SAPS   H9R 1118   0.382   0.129   6.745 -1.5331 -3.1544  0.8532
    9SAPS  C210 1119   0.368   0.051   6.953  0.0136  0.4860 -0.3314
    9SAPS  H10R 1120   0.441   0.027   7.033 -0.3439  0.4807 -0.0055
    9SAPS  H10S 1121   0.340  -0.048   6.910 -2.2376  1.1119 -0.4323
    9SAPS  C211 1122   0.246   0.094   7.028 -1.0002 -0.2648 -0.7035
    9SAPS  H11R 1123   0.277   0.118   7.131 -1.2382 -0.0358 -0.6867
    9SAPS  C212 1124   0.116   0.091   6.995  0.1241  0.4534 -0.1847
    9SAPS  H12R 1125   0.040   0.121   7.069  0.4396  0.4214  0.1551
    9SAPS  C213 1126   0.065   0.045   6.863  0.3628 -0.4561  0.4365
    9SAPS  H13R 1127   0.015  -0.054   6.870 -1.3073  0.3967  1.1213
    9SAPS  H13S 1128   0.146   0.025   6.790  0.2891  1.7368 -0.3287
    9SAPS  C214 1129  -0.045   0.128   6.793 -0.6513  0.6829 -0.2393
    9SAPS  H14R 1130  -0.150   0.098   6.806 -0.6260  1.0670  1.0006
    9SAPS  C215 1131  -0.024   0.239   6.721 -0.3221  0.9635  0.7655
    9SAPS  H15R 1132  -0.106   0.292   6.670 -0.1076 -0.0496 -0.7129
    9SAPS  C216 1133   0.102   0.301   6.696 -0.8537  0.3057  0.5443
    9SAPS  H16R 1134   0.191   0.241   6.727 -0.9503  1.0235  2.2820
    9SAPS  H16S 1135   0.098   0.388   6.764 -1.3815  1.3329 -0.7479
    9SAPS  C217 1136   0.120   0.357   6.551 -0.0779 -0.6374 -0.1671
    9SAPS  H17R 1137   0.213   0.417   6.548 -1.5330  1.6817 -2.3965
    9SAPS  H17S 1138   0.041   0.434   6.540  0.1565  0.1137  2.6099
    9SAPS  C218 1139   0.125   0.263   6.429 -0.7763  0.3520  0.2048
    9SAPS  H18R 1140   0.040   0.191   6.430  0.3714 -1.0815 -0.4333
    9SAPS  H18S 1141   0.213   0.198   6.451 -0.9741 -0.6712 -1.8098
    9SAPS  C219 1142   0.132   0.312   6.284 -0.3081 -0.1857 -0.4044
    9SAPS  H19R 1143   0.038   0.333   6.230 -0.3777  0.0971 -0.1776
    9SAPS  H19S 1144   0.177   0.223   6.234 -1.8189 -0.7278 -0.8490
    9SAPS  C220 1145   0.235   0.431   6.264 -0.0479  0.3927  0.9500
    9SAPS  H20R 1146   0.243   0.459   6.157 -3.1752 -1.1556  0.1904
    9SAPS  H20S 1147   0.339   0.415   6.298 -0.3071 -1.7901  0.8589
    9SAPS  H20T 1148   0.206   0.523   6.319 -1.3462  1.2921 -1.0957
    9SAPS   C33 1149   1.274   0.017   7.226  0.3514  0.0203 -0.8919
    9SAPS   H3X 1150   1.194  -0.009   7.153  0.1504 -1.7404 -0.1049
    9SAPS   H3Y 1151   1.298  -0.070   7.291 -1.3037  1.3546  1.6650
    9SAPS   C34 1152   1.401   0.039   7.138  0.5534 -0.1753  0.1497
    9SAPS   H4X 1153   1.484   0.050   7.211 -0.1959  1.2486  0.8216
    9SAPS   H4Y 1154   1.374   0.131   7.083  0.7097 -0.4660 -0.4249
    9SAPS   C35 1155   1.423  -0.074   7.036 -0.4368  0.1358 -0.2436
    9SAPS   H5X 1156   1.418  -0.166   7.099 -1.0791  0.5161  0.2744
    9SAPS   H5Y 1157   1.527  -0.052   7.002 -1.1159  2.4334 -0.9531
    9SAPS   C36 1158   1.332  -0.077   6.925  0.1891 -0.5890  0.6328
    9SAPS   H6X 1159   1.238  -0.023   6.950  1.5056  3.3574 -2.1318
    9SAPS   H6Y 1160   1.317  -0.184   6.898  3.0402 -0.9100  0.0585
    9SAPS   C37 1161   1.402  -0.011   6.802 -0.0843  0.0460 -0.3526
    9SAPS   H7X 1162   1.491  -0.070   6.773  0.2080  0.0198  0.5564
    9SAPS   H7Y 1163   1.440   0.089   6.831 -2.3308  1.1665 -1.0158
    9SAPS   C38 1164   1.304   0.008   6.680  0.8064 -0.2650 -0.6363
    9SAPS   H8X 1165   1.214   0.068   6.705  0.5509 -1.5711  1.9220
    9SAPS   H8Y 1166   1.266  -0.090   6.644 -1.3192  0.7373 -1.3147
    9SAPS   C39 1167   1.379   0.065   6.559 -0.0558  0.4013 -0.4482
    9SAPS   H9X 1168   1.477   0.017   6.537 -0.1082  0.2359 -0.3180
    9SAPS   H9Y 1169   1.398   0.174   6.572 -0.4758  0.5230 -0.8628
    9SAPS  C310 1170   1.298   0.059   6.434  0.5162  0.1733  1.0898
    9SAPS  H10X 1171   1.263  -0.045   6.418  0.1546  0.1208  2.1541
    9SAPS  H10Y 1172   1.371   0.088   6.355  0.6181 -0.1035  1.0835
    9SAPS  C311 1173   1.173   0.154   6.424 -0.4730  0.4175  0.0836
    9SAPS  H11X 1174   1.204   0.261   6.433 -0.7795  0.5761 -0.6951
    9SAPS  H11Y 1175   1.102   0.130   6.505  0.9255  1.4696  1.6946
    9SAPS  C312 1176   1.109   0.141   6.283  0.0632  0.6443 -0.0797
    9SAPS  H12X 1177   1.019   0.204   6.276 -0.7273 -0.5560 -1.1154
    9SAPS  H12Y 1178   1.070   0.039   6.263 -0.0683  0.8754 -1.0349
    9SAPS  C313 1179   1.187   0.177   6.160 -0.5643  0.0249 -0.5815
    9SAPS  H13X 1180   1.275   0.110   6.148  0.2801  1.0571 -0.2962
    9SAPS  H13Y 1181   1.222   0.282   6.165  2.6103 -0.9956  1.0652
    9SAPS  C314 1182   1.105   0.174   6.028 -0.4034 -0.6522  0.2667
    9SAPS  H14X 1183   1.005   0.222   6.037  0.2796  0.5598  1.9388
    9SAPS  H14Y 1184   1.070   0.070   6.011 -0.8408 -0.5539  0.5627
    9SAPS  C315 1185   1.190   0.229   5.919  0.4150  0.1422  0.2977
    9SAPS  H15X 1186   1.289   0.177   5.919 -0.2905 -1.2626 -0.1486
    9SAPS  H15Y 1187   1.214   0.337   5.921 -0.3329  0.3084  0.5772
    9SAPS  C316 1188   1.126   0.197   5.777  0.2348  0.2138 -0.1325
    9SAPS  H16X 1189   1.018   0.216   5.795  0.2402 -1.1485  1.6504
    9SAPS  H16Y 1190   1.137   0.087   5.761 -0.8488  0.2832 -1.5706
    9SAPS  C317 1191   1.194   0.271   5.662  0.4366  0.1864  0.9749
    9SAPS  H17X 1192   1.139   0.242   5.570 -0.7392  1.6858  1.1663
    9SAPS  H17Y 1193   1.297   0.232   5.647  0.9795  1.8352  0.1797
    9SAPS  C318 1194   1.198   0.420   5.651  0.2600  0.3194 -0.8777
    9SAPS  H18X 1195   1.210   0.468   5.751 -0.2723  0.4968 -0.8974
    9SAPS  H18Y 1196   1.096   0.452   5.621 -0.8795 -0.9443  1.3908
    9SAPS  H18Z 1197   1.266   0.465   5.575  1.7008 -0.1624  0.0774
   10SAPS     N 1198   2.720   1.044   7.902 -0.3600 -0.2139 -0.4128
   10SAPS   HN1 1199   2.670   1.112   7.841 -0.3658 -0.4052 -0.6214
   10SAPS   HN2 1200   2.751   1.094   7.988 -1.5897  0.2219 -0.1957
   10SAPS   HN3 1201   2.796   1.007   7.841  0.3893  0.2720  0.1997
   10SAPS   C12 1202   2.627   0.935   7.951  0.1878 -0.5211  0.4503
   10SAPS  H12A 1203   2.679   0.865   8.015 -0.3851 -0.7948  0.6209
   10SAPS   C13 1204   2.510   0.987   8.032  0.3122 -0.6533 -0.3366
   10SAPS  O13A 1205   2.493   1.112   8.037  0.0080 -0.1246  0.4298
   10SAPS  O13B 1206   2.447   0.908   8.102  0.6348 -0.2416  0.3929
   10SAPS   C11 1207   2.581   0.843   7.831  0.5249 -0.0795 -0.1179
   10SAPS  H11A 1208   2.521   0.911   7.767 -1.6389 -1.1108  0.7508
   10SAPS  H11B 1209   2.514   0.762   7.864 -1.0151  0.8648 -0.8193
   10SAPS     P 1210   2.752   0.825   7.634  0.2170  0.0551  0.2109
   10SAPS   O13 1211   2.813   0.958   7.657 -0.2229 -0.5074  0.0229
   10SAPS   O14 1212   2.844   0.719   7.594 -0.2588 -0.6894  0.2562
   10SAPS   O12 1213   2.693   0.781   7.771  0.0688 -0.0558  0.4826
   10SAPS   O11 1214   2.631   0.831   7.536  0.3612 -0.2663 -0.0828
   10SAPS    C1 1215   2.555   0.732   7.471  0.0264 -0.4619  0.5914
   10SAPS    HA 1216   2.617   0.664   7.408 -0.3983 -2.0621  1.8163
   10SAPS    HB 1217   2.499   0.663   7.539 -0.8755  0.0919  0.4215
   10SAPS    C2 1218   2.443   0.798   7.383 -1.2743 -0.0098 -0.2160
   10SAPS    HS 1219   2.397   0.719   7.321  0.4804 -1.2479 -0.0285
   10SAPS   O21 1220   2.495   0.906   7.312  0.2671 -0.1555 -0.3371
   10SAPS   C21 1221   2.586   0.864   7.222 -0.0616  0.2442 -0.6924
   10SAPS   O22 1222   2.599   0.753   7.176 -0.4481 -0.2129  0.0478
   10SAPS   C22 1223   2.663   0.994   7.186 -0.0779  0.1548 -0.0452
   10SAPS   H2R 1224   2.601   1.085   7.191  1.4970  1.2400  0.8181
   10SAPS   H2S 1225   2.738   1.007   7.267 -0.8484  1.3007  0.5133
   10SAPS    C3 1226   2.341   0.861   7.480 -0.0302  0.1957 -0.0131
   10SAPS    HX 1227   2.379   0.956   7.524  0.3745 -1.1712  2.8472
   10SAPS    HY 1228   2.322   0.789   7.563 -1.8153 -0.8428 -1.2615
   10SAPS   O31 1229   2.216   0.880   7.414  0.3734 -0.0869  0.2403
   10SAPS   C31 1230   2.188   1.002   7.364  0.1391 -0.5385 -0.1873
   10SAPS   O32 1231   2.263   1.096   7.353 -0.1247 -0.6188 -0.0132
   10SAPS   C32 1232   2.045   0.983   7.302 -0.7857  0.0352  0.4289
   10SAPS   H2X 1233   2.001   0.882   7.316  0.8523 -0.6758  0.6811
   10SAPS   H2Y 1234   2.077   0.985   7.195  2.1553 -1.3573  1.1841
   10SAPS   C23 1235   2.730   0.996   7.057 -0.3938  0.4927  0.3291
   10SAPS   H3R 1236   2.666   1.034   6.974 -0.6566 -0.7117 -0.0370
   10SAPS   H3S 1237   2.763   0.900   7.012 -1.3902  1.0834 -1.7818
   10SAPS   C24 1238   2.856   1.085   7.066 -0.5750 -0.4722  0.4067
   10SAPS   H4R 1239   2.908   1.069   6.969  1.5117 -2.1285  1.6867
   10SAPS   H4S 1240   2.940   1.052   7.131  0.8077  0.2961 -0.9333
   10SAPS   C25 1241   2.824   1.234   7.074 -0.2423 -0.1026  0.6119
   10SAPS   H5R 1242   2.788   1.265   7.174 -1.9325 -0.8342  0.2596
   10SAPS   C26 1243   2.809   1.314   6.970  0.0731 -0.5898 -0.2182
   10SAPS   H6R 1244   2.775   1.416   6.995 -0.1740 -0.3337 -1.5126
   10SAPS   C27 1245   2.833   1.281   6.825  0.2610 -0.0291 -0.1818
   10SAPS   H7R 1246   2.749   1.306   6.757 -0.8929 -0.7364  0.9278
   10SAPS   H7S 1247   2.842   1.172   6.804  1.3986  0.6029 -3.4016
   10SAPS   C28 1248   2.955   1.344   6.777  0.2098 -0.2830  0.0159
   10SAPS   H8R 1249   3.027   1.380   6.852  1.2975 -0.0629 -1.1113
   10SAPS   C29 1250   2.990   1.373   6.655 -0.2547 -0.3088 -0.0403
   10SAPS   H9R 1251   3.084   1.423   6.626  0.2508 -1.4743 -0.4980
   10SAPS  C210 1252   2.912   1.337   6.534  0.8852  0.8893  0.3750
   10SAPS  H10R 1253   2.810   1.376   6.555  0.1291 -0.6165 -0.3021
   10SAPS  H10S 1254   2.915   1.226   6.534 -1.8636  0.7237  1.8914
   10SAPS  C211 1255   2.960   1.379   6.397  0.0110  0.1495 -0.1949
   10SAPS  H11R 1256   3.057   1.431   6.398 -0.2337  0.6113  0.7526
   10SAPS  C212 1257   2.889   1.380   6.286 -0.3495 -0.0239  0.4570
   10SAPS  H12R 1258   2.929   1.428   6.196 -2.1651 -0.6182 -0.7149
   10SAPS  C213 1259   2.750   1.325   6.270 -1.0676 -0.3804  0.2512
   10SAPS  H13R 1260   2.685   1.394   6.211 -1.6204 -2.2854 -1.4709
   10SAPS  H13S 1261   2.698   1.310   6.367 -0.7186 -1.1043  0.3304
   10SAPS  C214 1262   2.754   1.196   6.198 -0.4265 -0.6235  0.3257
   10SAPS  H14R 1263   2.751   1.115   6.271  2.0861  2.1191  3.8000
   10SAPS  C215 1264   2.771   1.177   6.068 -0.0808 -0.6412  0.2763
   10SAPS  H15R 1265   2.758   1.073   6.034 -0.0877 -0.7335  0.5579
   10SAPS  C216 1266   2.783   1.280   5.955  0.7177  0.1368  0.1256
   10SAPS  H16R 1267   2.861   1.244   5.885  1.1023  1.9268 -0.4057
   10SAPS  H16S 1268   2.814   1.382   5.986 -1.5869  0.9700 -0.1068
   10SAPS  C217 1269   2.657   1.299   5.867  0.0882 -0.1057  0.1734
   10SAPS  H17R 1270   2.623   1.194   5.853  1.3903 -0.3763 -1.1382
   10SAPS  H17S 1271   2.677   1.334   5.764  0.3928 -0.5473  0.0771
   10SAPS  C218 1272   2.546   1.388   5.926  0.3984 -0.1375  0.1506
   10SAPS  H18R 1273   2.504   1.342   6.017 -0.4469 -2.3637 -1.2654
   10SAPS  H18S 1274   2.460   1.401   5.855  2.6841  2.6953 -2.3721
   10SAPS  C219 1275   2.579   1.537   5.945 -0.3329 -0.4110  0.8094
   10SAPS  H19R 1276   2.608   1.580   5.847  0.1486  0.7232  1.4280
   10SAPS  H19S 1277   2.667   1.549   6.012 -0.4524  1.9748  0.6256
   10SAPS  C220 1278   2.462   1.613   6.005  0.0733 -0.0588 -0.3424
   10SAPS  H20R 1279   2.475   1.722   6.023 -0.5843  0.1030 -0.7827
   10SAPS  H20S 1280   2.433   1.563   6.099  1.4210 -2.9434 -1.3247
   10SAPS  H20T 1281   2.376   1.593   5.938  0.0583  1.8537 -0.9601
   10SAPS   C33 1282   1.951   1.093   7.340 -1.0403  0.7092 -0.4456
   10SAPS   H3X 1283   2.012   1.185   7.349  0.8328 -0.4573 -0.7243
   10SAPS   H3Y 1284   1.915   1.070   7.442  0.6898 -0.3808 -0.0331
   10SAPS   C34 1285   1.827   1.126   7.256 -0.3382 -0.1274  0.0297
   10SAPS   H4X 1286   1.767   1.212   7.294  0.1811  0.4161 -0.3575
   10SAPS   H4Y 1287   1.755   1.043   7.275  0.6133 -1.1784 -0.8392
   10SAPS   C35 1288   1.846   1.147   7.099 -0.4220  0.8899 -0.5382
   10SAPS   H5X 1289   1.750   1.129   7.047  0.3327  0.5775 -1.8577
   10SAPS   H5Y 1290   1.918   1.079   7.050 -1.8627  0.3481 -2.0118
   10SAPS   C36 1291   1.886   1.291   7.061  0.0648  0.6636 -0.0975
   10SAPS   H6X 1292   1.992   1.315   7.083  0.2975  0.5488 -1.0307
   10SAPS   H6Y 1293   1.818   1.357   7.118  0.8391 -0.1183  1.8331
   10SAPS   C37 1294   1.863   1.317   6.913  0.6069 -0.6759 -1.4121
   10SAPS   H7X 1295   1.886   1.426   6.909  1.3650 -0.7875 -0.4192
   10SAPS   H7Y 1296   1.757   1.303   6.886  0.7438  1.3790 -3.3337
   10SAPS   C38 1297   1.947   1.232   6.819 -0.6555 -0.3019  0.5847
   10SAPS   H8X 1298   1.920   1.124   6.829  2.1465 -1.0745  0.7561
   10SAPS   H8Y 1299   2.056   1.235   6.839 -0.9534  3.7257  2.4371
   10SAPS   C39 1300   1.931   1.274   6.669 -0.1747  0.0944  0.3259
   10SAPS   H9X 1301   2.028   1.305   6.625  0.4353 -3.3152 -1.1053
   10SAPS   H9Y 1302   1.850   1.350   6.669  0.1224  0.4410  1.4906
   10SAPS  C310 1303   1.898   1.155   6.579  0.3220 -0.9191 -0.3152
   10SAPS  H10X 1304   1.849   1.184   6.483 -1.7108 -1.5339  0.4800
   10SAPS  H10Y 1305   1.828   1.085   6.629  0.3151  1.0122  2.5555
   10SAPS  C311 1306   2.024   1.069   6.557 -0.0060 -0.3083  1.0207
   10SAPS  H11X 1307   2.078   1.061   6.653  0.8257 -0.8474  0.5291
   10SAPS  H11Y 1308   2.090   1.125   6.487 -1.2152 -0.2066 -0.0876
   10SAPS  C312 1309   2.005   0.922   6.504 -1.1791  0.2412 -0.8358
   10SAPS  H12X 1310   1.973   0.915   6.398 -0.0472  0.4902 -1.2128
   10SAPS  H12Y 1311   1.926   0.868   6.561  1.1731  0.1412  2.6508
   10SAPS  C313 1312   2.144   0.840   6.518 -0.0075  0.4373 -0.0817
   10SAPS  H13X 1313   2.183   0.866   6.619 -3.1143 -0.7561  1.5446
   10SAPS  H13Y 1314   2.210   0.878   6.437 -1.4134 -1.3333 -2.1795
   10SAPS  C314 1315   2.120   0.689   6.507  0.0799  0.3410  0.5832
   10SAPS  H14X 1316   2.041   0.663   6.580  0.0502  0.7876  0.7095
   10SAPS  H14Y 1317   2.209   0.626   6.531 -1.9221 -3.0722 -0.3684
   10SAPS  C315 1318   2.070   0.634   6.369 -1.0096  0.8213  0.3090
   10SAPS  H15X 1319   1.986   0.689   6.322 -0.9784 -0.0310 -0.7734
   10SAPS  H15Y 1320   2.027   0.533   6.363  1.1035 -0.0989 -4.7142
   10SAPS  C316 1321   2.178   0.639   6.266  0.8112 -0.2628 -0.2596
   10SAPS  H16X 1322   2.260   0.567   6.286  0.6298 -0.4480 -0.1787
   10SAPS  H16Y 1323   2.214   0.744   6.259  0.8798 -0.2866 -0.2595
   10SAPS  C317 1324   2.119   0.607   6.127  0.2878 -0.1935  0.5372
   10SAPS  H17X 1325   2.205   0.614   6.057  0.1341 -2.1728  0.0940
   10SAPS  H17Y 1326   2.050   0.691   6.100  0.9799  0.1888 -0.0734
   10SAPS  C318 1327   2.058   0.466   6.116 -0.6268 -0.0543  1.1193
   10SAPS  H18X 1328   1.977   0.449   6.190 -1.3885  2.7839  1.0647
   10SAPS  H18Y 1329   2.142   0.395   6.132  1.0743  1.2823 -1.1836
   10SAPS  H18Z 1330   2.020   0.440   6.015  0.1291 -0.9928  1.0611
   11SAPS     N 1331   3.248   5.573   3.294 -0.1982 -0.1597 -0.1625
   11SAPS   HN1 1332   3.270   5.472   3.308  0.5413 -0.3457 -2.2263
   11SAPS   HN2 1333   3.159   5.590   3.345 -1.2012 -0.3579 -1.7811
   11SAPS   HN3 1334   3.224   5.585   3.194 -1.0011 -0.9381 -0.0685
   11SAPS   C12 1335   3.360   5.663   3.348 -0.7745  0.2987 -0.1129
   11SAPS  H12A 1336   3.341   5.665   3.455  1.6927  0.9930  0.3736
   11SAPS   C13 1337   3.500   5.604   3.344 -0.1843  0.1514 -0.2871
   11SAPS  O13A 1338   3.513   5.489   3.289  0.5919  0.2988 -0.2542
   11SAPS  O13B 1339   3.604   5.665   3.376 -0.3496 -0.0122  0.2696
   11SAPS   C11 1340   3.355   5.805   3.288  0.6914  0.2601 -0.0933
   11SAPS  H11A 1341   3.374   5.802   3.179  0.8776 -3.2223 -0.0672
   11SAPS  H11B 1342   3.441   5.866   3.323  2.1422 -2.1520  0.7855
   11SAPS     P 1343   3.186   6.003   3.248 -0.5937  0.3628 -0.0400
   11SAPS   O13 1344   3.311   6.076   3.221 -0.1497  0.1324  0.0697
   11SAPS   O14 1345   3.104   5.979   3.131 -0.0691  0.1487  0.2432
   11SAPS   O12 1346   3.226   5.865   3.324 -0.3083 -0.5712 -0.0264
   11SAPS   O11 1347   3.103   6.073   3.356 -0.9488  0.0389 -0.2721
   11SAPS    C1 1348   3.007   6.009   3.447  0.0191 -0.3130  0.1208
   11SAPS    HA 1349   2.912   6.066   3.445  0.0539 -0.1839  1.2286
   11SAPS    HB 1350   2.977   5.905   3.423  0.1083 -0.3354  0.1080
   11SAPS    C2 1351   3.067   6.008   3.593  0.2620  0.4952  0.0886
   11SAPS    HS 1352   2.984   6.016   3.666  0.1372 -1.6423  0.2266
   11SAPS   O21 1353   3.177   6.102   3.619 -0.2484 -0.3363 -0.1393
   11SAPS   C21 1354   3.131   6.226   3.609 -0.2604  0.2434 -0.3716
   11SAPS   O22 1355   3.017   6.254   3.596  0.8128  0.0651  0.1510
   11SAPS   C22 1356   3.250   6.316   3.642 -0.8915  0.0362  0.3064
   11SAPS   H2R 1357   3.316   6.266   3.716 -0.5671  1.0534  0.7132
   11SAPS   H2S 1358   3.311   6.317   3.549 -0.3630  1.0759  0.6596
   11SAPS    C3 1359   3.130   5.870   3.629 -0.0583 -0.4278 -0.6811
   11SAPS    HX 1360   3.215   5.863   3.558  0.4751  0.9914 -0.2216
   11SAPS    HY 1361   3.059   5.786   3.611 -1.7200  0.5068  1.1053
   11SAPS   O31 1362   3.189   5.868   3.767 -0.2503 -0.0430  0.1759
   11SAPS   C31 1363   3.300   5.789   3.772  0.1251  0.1102  0.5108
   11SAPS   O32 1364   3.349   5.723   3.680 -0.0145  0.0530 -0.7070
   11SAPS   C32 1365   3.356   5.800   3.910 -0.4625 -0.6036 -0.4035
   11SAPS   H2X 1366   3.464   5.811   3.884 -0.1264 -0.3688  1.0062
   11SAPS   H2Y 1367   3.342   5.705   3.966 -1.3323 -0.8863 -1.0850
   11SAPS   C23 1368   3.208   6.461   3.681 -0.2935 -0.0921 -0.3239
   11SAPS   H3R 1369   3.136   6.503   3.607  0.9631  0.2418 -1.3956
   11SAPS   H3S 1370   3.297   6.527   3.671  0.0648 -0.3580  0.9859
   11SAPS   C24 1371   3.160   6.473   3.824  0.3904 -0.3838  0.3188
   11SAPS   H4R 1372   3.160   6.582   3.841 -3.7105  0.4970 -3.5989
   11SAPS   H4S 1373   3.242   6.428   3.885 -1.4305 -2.5444  1.3395
   11SAPS   C25 1374   3.019   6.419   3.852 -0.5682  0.3417 -0.0513
   11SAPS   H5R 1375   2.946   6.484   3.801 -2.0531  0.4324  2.0577
   11SAPS   C26 1376   2.982   6.324   3.936 -0.3376  0.2275  0.3039
   11SAPS   H6R 1377   2.873   6.311   3.944 -0.3078 -0.5864 -0.4688
   11SAPS   C27 1378   3.061   6.235   4.023  0.2815  1.0047 -0.2075
   11SAPS   H7R 1379   3.126   6.173   3.958 -0.5681  1.3663 -1.4558
   11SAPS   H7S 1380   2.982   6.171   4.067  0.9568 -0.3908 -0.9741
   11SAPS   C28 1381   3.124   6.300   4.141  0.0144  0.0621 -0.5491
   11SAPS   H8R 1382   3.234   6.294   4.137  0.0567  0.2374  0.3558
   11SAPS   C29 1383   3.065   6.352   4.249 -0.0959  0.6505  0.6343
   11SAPS   H9R 1384   3.136   6.392   4.323  0.2734  1.4528 -0.1359
   11SAPS  C210 1385   2.921   6.351   4.273  0.5917 -0.1294 -0.5101
   11SAPS  H10R 1386   2.882   6.247   4.281 -0.0382  0.0742 -0.9209
   11SAPS  H10S 1387   2.872   6.383   4.179 -1.2833 -0.8048  0.2025
   11SAPS  C211 1388   2.873   6.436   4.389 -0.3769  0.1391  0.4518
   11SAPS  H11R 1389   2.829   6.534   4.366  0.3571  0.9879  2.3859
   11SAPS  C212 1390   2.863   6.413   4.521  0.0848 -0.3480  0.0149
   11SAPS  H12R 1391   2.804   6.487   4.577  0.3285  0.1954 -0.4394
   11SAPS  C213 1392   2.903   6.289   4.598 -0.6167  0.8520  0.0373
   11SAPS  H13R 1393   2.953   6.228   4.519 -2.8377  1.5950 -2.0646
   11SAPS  H13S 1394   2.818   6.231   4.640 -0.6206  0.6069 -0.3031
   11SAPS  C214 1395   3.001   6.317   4.713 -0.6675  0.3350  0.4961
   11SAPS  H14R 1396   3.105   6.290   4.691 -0.5071  0.3522  1.2101
   11SAPS  C215 1397   2.971   6.363   4.835 -0.4217  0.1292  0.6498
   11SAPS  H15R 1398   3.063   6.372   4.895 -0.6290 -1.3213  1.2164
   11SAPS  C216 1399   2.843   6.410   4.883 -0.5668  0.6690  0.6427
   11SAPS  H16R 1400   2.756   6.360   4.834 -0.9077 -0.1912  2.0731
   11SAPS  H16S 1401   2.833   6.519   4.866 -3.8302  0.0782 -2.5895
   11SAPS  C217 1402   2.831   6.372   5.034 -0.2693 -0.5806 -0.3854
   11SAPS  H17R 1403   2.743   6.426   5.074 -0.2026 -1.4266  0.9602
   11SAPS  H17S 1404   2.922   6.409   5.086  0.4939 -0.4404 -1.7580
   11SAPS  C218 1405   2.825   6.220   5.054 -0.4987  0.4150  0.7073
   11SAPS  H18R 1406   2.922   6.184   5.016 -0.8273 -0.6995  0.8830
   11SAPS  H18S 1407   2.742   6.178   4.993 -0.4532  0.4046  0.6527
   11SAPS  C219 1408   2.800   6.180   5.200 -0.2318 -0.5740  0.1360
   11SAPS  H19R 1409   2.793   6.069   5.199 -1.9640 -0.5384  1.9191
   11SAPS  H19S 1410   2.715   6.225   5.255 -0.2374 -2.4655  1.8005
   11SAPS  C220 1411   2.929   6.210   5.290  0.0089 -0.1037  0.3275
   11SAPS  H20R 1412   2.925   6.314   5.328 -1.4832  0.0956 -0.3337
   11SAPS  H20S 1413   3.021   6.190   5.230  1.1804 -0.4844  2.1751
   11SAPS  H20T 1414   2.920   6.142   5.377 -4.2650 -1.6692 -1.1053
   11SAPS   C33 1415   3.309   5.918   3.998 -0.6229 -0.4278  0.2550
   11SAPS   H3X 1416   3.198   5.913   4.002 -0.6876  0.3287 -0.2949
   11SAPS   H3Y 1417   3.335   6.019   3.959  3.1606 -0.7454  1.5589
   11SAPS   C34 1418   3.372   5.907   4.131 -0.1858 -0.0694 -0.2857
   11SAPS   H4X 1419   3.481   5.929   4.131 -0.2425  0.4469  2.0187
   11SAPS   H4Y 1420   3.362   5.801   4.160  2.0918  0.0999  1.3405
   11SAPS   C35 1421   3.305   5.990   4.245  0.2804  0.4690  0.0572
   11SAPS   H5X 1422   3.201   5.955   4.267  0.0828  2.1086  1.9198
   11SAPS   H5Y 1423   3.288   6.095   4.212 -1.2895  0.7915  1.7038
   11SAPS   C36 1424   3.375   6.010   4.377 -1.1427  0.2492 -0.3636
   11SAPS   H6X 1425   3.458   6.081   4.361  0.1574 -1.6891 -3.1642
   11SAPS   H6Y 1426   3.429   5.914   4.395 -1.9424  0.2716  2.5821
   11SAPS   C37 1427   3.277   6.043   4.491  0.5850  0.2282  0.7027
   11SAPS   H7X 1428   3.179   5.992   4.482 -0.9963  3.3099 -1.4145
   11SAPS   H7Y 1429   3.254   6.149   4.470 -1.0738 -0.2784 -0.2513
   11SAPS   C38 1430   3.348   6.020   4.624 -0.4738  1.1047 -0.7811
   11SAPS   H8X 1431   3.375   5.913   4.632 -2.6505  0.4616 -1.1912
   11SAPS   H8Y 1432   3.268   6.023   4.701 -1.5490 -1.3795 -1.7031
   11SAPS   C39 1433   3.476   6.103   4.654  0.9373  0.0758 -0.0970
   11SAPS   H9X 1434   3.469   6.210   4.625  0.9296  0.4566  1.2419
   11SAPS   H9Y 1435   3.567   6.061   4.606  3.1393  1.9797  2.0808
   11SAPS  C310 1436   3.503   6.091   4.805  0.1968 -0.1823 -0.0038
   11SAPS  H10X 1437   3.608   6.121   4.828 -0.6002  2.6811  0.2473
   11SAPS  H10Y 1438   3.482   5.986   4.838 -2.1697  0.9054  2.3261
   11SAPS  C311 1439   3.424   6.193   4.880  0.3638  1.0614  0.1280
   11SAPS  H11X 1440   3.318   6.159   4.873  0.9850 -0.9076 -0.4529
   11SAPS  H11Y 1441   3.435   6.294   4.835 -0.0688  1.0438 -0.0300
   11SAPS  C312 1442   3.470   6.195   5.029  0.2257  0.9001 -0.8320
   11SAPS  H12X 1443   3.579   6.213   5.035  0.6519 -1.1226 -1.5959
   11SAPS  H12Y 1444   3.456   6.096   5.078  2.4672  0.2641 -1.3414
   11SAPS  C313 1445   3.412   6.302   5.113  0.3738  0.0573  0.6269
   11SAPS  H13X 1446   3.312   6.324   5.072  1.2988  0.6555 -1.4195
   11SAPS  H13Y 1447   3.464   6.400   5.104 -4.1573  2.6450 -0.4657
   11SAPS  C314 1448   3.395   6.271   5.259 -0.3732 -0.1430 -0.8335
   11SAPS  H14X 1449   3.492   6.245   5.306 -1.2188 -0.2059  0.9494
   11SAPS  H14Y 1450   3.333   6.180   5.273 -2.0392  1.0821  0.2391
   11SAPS  C315 1451   3.327   6.382   5.343 -0.4510  0.6535  0.1513
   11SAPS  H15X 1452   3.221   6.365   5.317 -0.6805 -0.2837  1.6196
   11SAPS  H15Y 1453   3.362   6.483   5.311  1.4331  0.2989  0.9264
   11SAPS  C316 1454   3.352   6.347   5.495  0.5613 -0.4204 -0.1480
   11SAPS  H16X 1455   3.462   6.339   5.504  0.5216 -1.1134 -0.2259
   11SAPS  H16Y 1456   3.309   6.246   5.510  2.8856 -1.2158  1.8855
   11SAPS  C317 1457   3.298   6.446   5.597 -0.2059  0.7806 -0.2647
   11SAPS  H17X 1458   3.343   6.543   5.566 -0.5315  0.5510 -1.5104
   11SAPS  H17Y 1459   3.342   6.415   5.694 -1.5584 -0.7149 -0.0765
   11SAPS  C318 1460   3.148   6.458   5.602 -0.4112  0.3885 -0.1435
   11SAPS  H18X 1461   3.113   6.532   5.676 -1.9368 -0.9010  0.4765
   11SAPS  H18Y 1462   3.108   6.363   5.643 -2.0845  1.1358  0.0407
   11SAPS  H18Z 1463   3.100   6.472   5.503 -0.9645 -0.0483  0.0606
   12SAPS     N 1464   3.467   4.156   3.619  0.3354  0.4061 -0.2307
   12SAPS   HN1 1465   3.558   4.178   3.574  1.1344 -0.2439  1.0046
   12SAPS   HN2 1466   3.471   4.197   3.714 -0.6942 -1.5050  0.7004
   12SAPS   HN3 1467   3.447   4.054   3.626  1.0054  0.2119 -0.9956
   12SAPS   C12 1468   3.357   4.221   3.541 -0.3226  0.1222 -0.4370
   12SAPS  H12A 1469   3.368   4.327   3.562 -1.8141  0.1521  0.2647
   12SAPS   C13 1470   3.383   4.208   3.392 -0.7468 -0.2294  0.5660
   12SAPS  O13A 1471   3.468   4.124   3.346 -0.0076  0.6964 -0.1480
   12SAPS  O13B 1472   3.324   4.293   3.317  0.7801  0.1701 -0.1337
   12SAPS   C11 1473   3.218   4.168   3.575 -0.6411  0.2748  0.5610
   12SAPS  H11A 1474   3.216   4.057   3.568 -2.0994  0.2986  0.2852
   12SAPS  H11B 1475   3.139   4.209   3.508  0.1628  0.3407 -0.3734
   12SAPS     P 1476   3.090   4.321   3.735  0.4408 -0.5383  0.6181
   12SAPS   O13 1477   3.152   4.455   3.703  0.4500 -0.2300 -0.2874
   12SAPS   O14 1478   2.961   4.292   3.665 -0.6589 -0.3981  0.0645
   12SAPS   O12 1479   3.189   4.204   3.713 -0.4055 -0.0348 -0.4254
   12SAPS   O11 1480   3.065   4.297   3.895 -0.2665  0.2017  0.4968
   12SAPS    C1 1481   3.186   4.321   3.973  0.0924  0.1602 -0.2078
   12SAPS    HA 1482   3.248   4.230   3.958  0.9275  0.6517  0.2004
   12SAPS    HB 1483   3.252   4.406   3.946  1.0971  0.3184  2.4089
   12SAPS    C2 1484   3.162   4.347   4.128 -0.1559 -0.4345  0.5956
   12SAPS    HS 1485   3.257   4.340   4.186  0.7245 -1.0406 -0.8569
   12SAPS   O21 1486   3.068   4.261   4.192  0.0058 -0.3140  0.0599
   12SAPS   C21 1487   3.116   4.155   4.254  0.0328  0.0482  0.2367
   12SAPS   O22 1488   3.231   4.125   4.236 -0.2929  0.4071 -0.0262
   12SAPS   C22 1489   3.026   4.073   4.351 -0.0025 -0.2606  0.7825
   12SAPS   H2R 1490   3.076   3.977   4.325  1.3131  0.5492  0.2110
   12SAPS   H2S 1491   3.051   4.100   4.456  0.2568 -2.7135  1.4170
   12SAPS    C3 1492   3.107   4.493   4.143  0.3899 -0.2610  0.0754
   12SAPS    HX 1493   3.028   4.506   4.067  1.3303 -0.2166 -0.9173
   12SAPS    HY 1494   3.188   4.560   4.107  0.3449  0.0133  0.4726
   12SAPS   O31 1495   3.085   4.524   4.275  0.1692 -0.3476  0.0410
   12SAPS   C31 1496   2.960   4.507   4.319  0.1151 -0.0715 -0.6794
   12SAPS   O32 1497   2.862   4.477   4.254  0.1853 -0.0110  0.0298
   12SAPS   C32 1498   2.952   4.545   4.474 -0.5905 -0.5283  0.2957
   12SAPS   H2X 1499   2.917   4.451   4.521 -0.6279 -1.7003 -1.9345
   12SAPS   H2Y 1500   2.876   4.626   4.484  1.7859  1.7440  0.8117
   12SAPS   C23 1501   2.876   4.086   4.320 -0.1771 -0.9567  0.1610
   12SAPS   H3R 1502   2.849   4.086   4.212 -1.8937  0.3078  0.5462
   12SAPS   H3S 1503   2.839   4.184   4.357 -4.1096 -2.8570  1.9207
   12SAPS   C24 1504   2.794   3.972   4.387  0.7099  0.1002 -0.1074
   12SAPS   H4R 1505   2.786   3.983   4.497  3.7137 -1.1975  0.3554
   12SAPS   H4S 1506   2.839   3.871   4.372  1.5160  0.4195  0.1026
   12SAPS   C25 1507   2.659   3.968   4.317 -0.6067  0.1077  0.7519
   12SAPS   H5R 1508   2.639   4.045   4.240  0.0820 -0.0837  0.3760
   12SAPS   C26 1509   2.565   3.874   4.336  0.1153 -0.1423 -0.2293
   12SAPS   H6R 1510   2.473   3.876   4.275 -0.1829  0.6249  0.2423
   12SAPS   C27 1511   2.573   3.758   4.430 -0.0650  0.7551 -0.6549
   12SAPS   H7R 1512   2.487   3.776   4.497  0.4659  0.7526  0.0358
   12SAPS   H7S 1513   2.667   3.760   4.490 -0.0805 -0.0350 -0.5978
   12SAPS   C28 1514   2.557   3.626   4.356  0.3578 -0.0260  0.1657
   12SAPS   H8R 1515   2.524   3.632   4.251 -1.7859  0.7942  0.8357
   12SAPS   C29 1516   2.570   3.508   4.420 -0.0171 -0.7530  0.8592
   12SAPS   H9R 1517   2.538   3.422   4.360  1.5471  0.8232 -2.4668
   12SAPS  C210 1518   2.595   3.474   4.568 -0.0585  0.2805 -0.8209
   12SAPS  H10R 1519   2.561   3.369   4.580 -0.9762  0.4789 -1.5281
   12SAPS  H10S 1520   2.544   3.553   4.626  1.5084 -0.5163  1.7802
   12SAPS  C211 1521   2.741   3.485   4.614  0.3673  0.3785  0.2995
   12SAPS  H11R 1522   2.814   3.515   4.538 -0.9941  3.1048 -0.0641
   12SAPS  C212 1523   2.783   3.479   4.737 -0.3669 -0.2521  0.0793
   12SAPS  H12R 1524   2.888   3.500   4.764 -0.0691 -1.3268 -0.2026
   12SAPS  C213 1525   2.693   3.453   4.862 -0.8039  0.0518  0.6803
   12SAPS  H13R 1526   2.681   3.344   4.877 -0.6064 -0.3615 -1.6832
   12SAPS  H13S 1527   2.593   3.495   4.838 -0.4014  0.8210  0.3081
   12SAPS  C214 1528   2.747   3.530   4.984  0.2575  0.3753  0.1657
   12SAPS  H14R 1529   2.749   3.461   5.070  0.5670  0.5044  0.2613
   12SAPS  C215 1530   2.796   3.654   4.997  0.7218 -0.5085  0.5036
   12SAPS  H15R 1531   2.828   3.684   5.097 -0.2312 -1.0093  0.9785
   12SAPS  C216 1532   2.802   3.762   4.894 -0.6417  0.0646  0.1433
   12SAPS  H16R 1533   2.755   3.855   4.931  1.9042  1.2323  0.6561
   12SAPS  H16S 1534   2.744   3.730   4.805  2.5086  0.3862 -2.1831
   12SAPS  C217 1535   2.946   3.776   4.838  0.1563 -0.4861  0.3129
   12SAPS  H17R 1536   2.999   3.683   4.811  2.1431  0.0582  2.1459
   12SAPS  H17S 1537   3.002   3.809   4.928  1.1063 -4.9187  1.5678
   12SAPS  C218 1538   2.956   3.880   4.730  0.2171  0.2717 -0.2323
   12SAPS  H18R 1539   2.894   3.971   4.745  1.7949  1.2949  0.2977
   12SAPS  H18S 1540   2.922   3.826   4.639  1.7408 -0.9852 -0.1025
   12SAPS  C219 1541   3.104   3.912   4.688  0.0588 -0.0769  0.2259
   12SAPS  H19R 1542   3.090   3.958   4.588  2.0076 -0.7667 -0.4022
   12SAPS  H19S 1543   3.158   3.817   4.671  2.4261  0.5627  3.2681
   12SAPS  C220 1544   3.174   3.990   4.794 -0.3018  0.0844  0.0411
   12SAPS  H20R 1545   3.126   4.088   4.815  1.1313  1.0842 -1.1302
   12SAPS  H20S 1546   3.279   4.006   4.763 -0.6415 -0.2611 -1.3754
   12SAPS  H20T 1547   3.188   3.924   4.882  2.6526  0.6033  0.0563
   12SAPS   C33 1548   3.087   4.584   4.546  0.8693  0.2948  0.0150
   12SAPS   H3X 1549   3.146   4.657   4.487  0.2798 -0.4227 -1.5191
   12SAPS   H3Y 1550   3.138   4.487   4.558 -2.5651 -1.5642  1.0931
   12SAPS   C34 1551   3.071   4.627   4.689  0.3730 -0.2710 -0.2402
   12SAPS   H4X 1552   2.998   4.709   4.708 -0.2000 -1.0267  0.9658
   12SAPS   H4Y 1553   3.166   4.655   4.739 -0.0369  1.0896 -0.1814
   12SAPS   C35 1554   3.027   4.509   4.785 -0.2595  0.1707 -0.6039
   12SAPS   H5X 1555   3.095   4.421   4.776 -0.9199 -0.4299  0.0707
   12SAPS   H5Y 1556   2.928   4.473   4.748  0.1361  0.0147 -1.5501
   12SAPS   C36 1557   3.030   4.573   4.928  0.3085 -0.5863  0.0636
   12SAPS   H6X 1558   2.938   4.635   4.931  0.5304 -0.2571  0.0846
   12SAPS   H6Y 1559   3.125   4.631   4.937 -0.8535  1.3068  0.6425
   12SAPS   C37 1560   3.020   4.467   5.046 -0.9117  0.3347 -0.6120
   12SAPS   H7X 1561   2.923   4.414   5.057 -1.3677  1.3795  0.7082
   12SAPS   H7Y 1562   3.033   4.526   5.139  0.0358 -2.0989  0.8758
   12SAPS   C38 1563   3.128   4.357   5.037  0.7173  0.0514 -0.2721
   12SAPS   H8X 1564   3.225   4.409   5.029  0.2919  0.5968 -2.4343
   12SAPS   H8Y 1565   3.108   4.295   4.947  1.3889 -0.9371  0.2416
   12SAPS   C39 1566   3.131   4.254   5.150 -0.8525 -0.1848 -0.1027
   12SAPS   H9X 1567   3.208   4.177   5.124 -0.5139  0.7825 -2.1276
   12SAPS   H9Y 1568   3.032   4.207   5.164 -1.5756  1.3434  0.0718
   12SAPS  C310 1569   3.179   4.310   5.288 -0.3610  0.3897 -0.3188
   12SAPS  H10X 1570   3.095   4.357   5.342  0.8186  0.7308  1.2830
   12SAPS  H10Y 1571   3.261   4.383   5.267 -0.4558  0.4909 -0.3396
   12SAPS  C311 1572   3.235   4.219   5.405  0.5009 -0.0464  0.2042
   12SAPS  H11X 1573   3.236   4.278   5.499 -1.7289  0.5477 -0.0942
   12SAPS  H11Y 1574   3.338   4.200   5.367  0.7401  1.1317  0.2143
   12SAPS  C312 1575   3.149   4.096   5.424 -0.2022  0.1224  0.2739
   12SAPS  H12X 1576   3.144   4.047   5.324 -0.7409 -1.2553  0.9552
   12SAPS  H12Y 1577   3.045   4.132   5.439  0.1702  0.6989  1.6226
   12SAPS  C313 1578   3.181   4.002   5.538  0.2748  0.2858  0.1573
   12SAPS  H13X 1579   3.142   4.047   5.632 -0.4766 -0.7894  0.3762
   12SAPS  H13Y 1580   3.288   3.989   5.563  0.0659  1.6304  2.0017
   12SAPS  C314 1581   3.115   3.861   5.526 -0.4958  0.5192  0.4151
   12SAPS  H14X 1582   3.027   3.857   5.458  1.3878  2.4132 -2.3609
   12SAPS  H14Y 1583   3.097   3.819   5.627 -0.4403 -2.2196 -0.6329
   12SAPS  C315 1584   3.217   3.764   5.455 -0.2309  0.6098  0.7789
   12SAPS  H15X 1585   3.303   3.755   5.525  0.5526  2.1209  0.0551
   12SAPS  H15Y 1586   3.239   3.814   5.358 -2.6983 -1.2664 -0.8909
   12SAPS  C316 1587   3.156   3.641   5.402  0.1057 -0.1672  0.0183
   12SAPS  H16X 1588   3.086   3.667   5.320  0.3643 -0.9195 -0.4529
   12SAPS  H16Y 1589   3.108   3.586   5.486  0.9468  0.1644  0.7266
   12SAPS  C317 1590   3.249   3.537   5.334 -0.6035  0.4814 -0.0898
   12SAPS  H17X 1591   3.292   3.466   5.409  1.8569  2.6467  0.7156
   12SAPS  H17Y 1592   3.332   3.594   5.288 -0.7691  0.0146 -0.9679
   12SAPS  C318 1593   3.181   3.449   5.232 -0.5406  0.0946  0.1378
   12SAPS  H18X 1594   3.246   3.360   5.216 -1.4801 -0.4452 -0.8475
   12SAPS  H18Y 1595   3.146   3.497   5.138 -6.3217 -0.0303  1.8716
   12SAPS  H18Z 1596   3.087   3.421   5.282  0.0354 -0.4103  0.9612
   13SAPS     N 1597   3.208   2.727   3.230  0.0362  0.7082  0.0129
   13SAPS   HN1 1598   3.238   2.826   3.239 -0.1164  0.7358  0.2166
   13SAPS   HN2 1599   3.298   2.677   3.219  0.8981  2.5916 -2.3122
   13SAPS   HN3 1600   3.160   2.712   3.138 -0.9867 -0.4728  0.7037
   13SAPS   C12 1601   3.112   2.693   3.336 -0.0714 -0.3401  0.1766
   13SAPS  H12A 1602   3.032   2.765   3.324  0.2886 -0.0964 -0.8368
   13SAPS   C13 1603   3.050   2.555   3.325 -0.3249 -0.3774 -0.1486
   13SAPS  O13A 1604   3.077   2.471   3.238  0.2028 -0.0110 -0.0612
   13SAPS  O13B 1605   2.968   2.519   3.419 -0.3293  0.3843  0.4934
   13SAPS   C11 1606   3.183   2.706   3.473 -0.2706 -0.4932 -0.4200
   13SAPS  H11A 1607   3.106   2.708   3.552 -1.8243 -0.5386 -1.8721
   13SAPS  H11B 1608   3.227   2.806   3.492 -1.6407  0.2664 -1.1157
   13SAPS     P 1609   3.265   2.487   3.594  0.0796 -0.2294  0.6397
   13SAPS   O13 1610   3.137   2.489   3.666 -0.1543  0.5955 -0.7214
   13SAPS   O14 1611   3.306   2.363   3.524 -0.4192  0.0350  0.0766
   13SAPS   O12 1612   3.276   2.607   3.492 -0.1182 -0.7425 -0.4531
   13SAPS   O11 1613   3.374   2.519   3.696 -0.1474  0.0097  0.1059
   13SAPS    C1 1614   3.377   2.637   3.777 -0.0821  0.5512  0.0883
   13SAPS    HA 1615   3.479   2.679   3.765 -0.5235  1.4758 -0.5301
   13SAPS    HB 1616   3.298   2.710   3.750 -1.0636 -0.6990 -0.5097
   13SAPS    C2 1617   3.349   2.592   3.925  0.6541  0.3768 -0.4802
   13SAPS    HS 1618   3.261   2.524   3.918  0.1078  1.1667 -1.7103
   13SAPS   O21 1619   3.315   2.710   4.001  0.1664  0.2288 -0.3074
   13SAPS   C21 1620   3.249   2.674   4.115  0.4569 -0.0836 -0.4732
   13SAPS   O22 1621   3.183   2.572   4.131  0.1623  0.5306  0.1640
   13SAPS   C22 1622   3.252   2.791   4.220 -0.3310  0.6614  0.1218
   13SAPS   H2R 1623   3.320   2.868   4.178  0.9578 -0.1851  0.6061
   13SAPS   H2S 1624   3.158   2.848   4.207  0.5138  1.4650 -3.3006
   13SAPS    C3 1625   3.470   2.515   3.988  0.6277  1.1694 -0.8265
   13SAPS    HX 1626   3.556   2.576   3.954  2.9993 -1.7097 -0.4896
   13SAPS    HY 1627   3.493   2.427   3.924 -2.5235 -0.0238 -0.4817
   13SAPS   O31 1628   3.465   2.491   4.138 -0.4643  0.0202  0.2175
   13SAPS   C31 1629   3.391   2.381   4.173  0.1176  0.7230 -0.2582
   13SAPS   O32 1630   3.338   2.303   4.098  0.2603  0.4257  0.4798
   13SAPS   C32 1631   3.391   2.370   4.322 -0.9931 -0.5390 -0.6044
   13SAPS   H2X 1632   3.301   2.310   4.349  0.4025 -2.5565 -0.1874
   13SAPS   H2Y 1633   3.361   2.473   4.352 -1.3587 -0.4298 -1.3112
   13SAPS   C23 1634   3.261   2.742   4.358  0.4260 -0.6383 -0.8291
   13SAPS   H3R 1635   3.359   2.693   4.379 -0.1403 -2.5029 -2.3059
   13SAPS   H3S 1636   3.184   2.664   4.376 -0.2818  0.5882  2.1539
   13SAPS   C24 1637   3.241   2.864   4.456 -0.0542  0.3566  0.0535
   13SAPS   H4R 1638   3.146   2.917   4.436  0.0572  0.3995 -0.3700
   13SAPS   H4S 1639   3.321   2.942   4.450  0.8760 -0.2384  2.8351
   13SAPS   C25 1640   3.240   2.803   4.597  0.6759  0.1502  0.4025
   13SAPS   H5R 1641   3.334   2.752   4.619  0.5565 -1.2086 -1.9446
   13SAPS   C26 1642   3.136   2.793   4.686 -0.4521 -0.4246 -0.0905
   13SAPS   H6R 1643   3.155   2.750   4.786  1.1049  2.1198  0.7989
   13SAPS   C27 1644   3.000   2.855   4.661 -0.4576  0.8326  0.9552
   13SAPS   H7R 1645   3.012   2.945   4.596 -1.6621 -1.5702 -2.9524
   13SAPS   H7S 1646   2.956   2.890   4.757 -1.2137 -0.3650  1.0626
   13SAPS   C28 1647   2.895   2.763   4.599 -0.0295  0.1036  0.0899
   13SAPS   H8R 1648   2.915   2.747   4.492  1.8838  1.3751  0.2134
   13SAPS   C29 1649   2.795   2.699   4.657 -0.4960  0.4026  0.4690
   13SAPS   H9R 1650   2.737   2.627   4.597 -2.1528  1.8581  0.2300
   13SAPS  C210 1651   2.743   2.707   4.796  0.1841  0.2051 -0.0587
   13SAPS  H10R 1652   2.762   2.813   4.822  2.0918  0.4880 -2.2953
   13SAPS  H10S 1653   2.800   2.637   4.861 -1.4406 -2.1582 -1.0491
   13SAPS  C211 1654   2.592   2.676   4.813  0.1758 -0.0817  0.1470
   13SAPS  H11R 1655   2.544   2.661   4.715  2.1088 -0.8409 -0.7423
   13SAPS  C212 1656   2.533   2.639   4.929  0.2351 -0.3686  0.1663
   13SAPS  H12R 1657   2.428   2.607   4.935  0.0283  0.3200  0.3194
   13SAPS  C213 1658   2.607   2.637   5.059  0.4081 -1.1489  0.4019
   13SAPS  H13R 1659   2.691   2.709   5.068  2.8860 -4.0110  1.5135
   13SAPS  H13S 1660   2.667   2.545   5.073  0.6351 -1.0903 -0.1654
   13SAPS  C214 1661   2.515   2.663   5.178  0.9497 -0.1901 -1.0213
   13SAPS  H14R 1662   2.411   2.683   5.148  0.2047  0.3289  1.6168
   13SAPS  C215 1663   2.550   2.663   5.312  0.2066  0.3974  0.7434
   13SAPS  H15R 1664   2.471   2.684   5.384 -0.3048 -1.7097  0.8537
   13SAPS  C216 1665   2.688   2.631   5.367  0.4200 -0.0352 -0.3857
   13SAPS  H16R 1666   2.743   2.727   5.376  0.8973 -0.5137  3.5054
   13SAPS  H16S 1667   2.745   2.553   5.313 -0.4474 -0.2493 -1.0190
   13SAPS  C217 1668   2.676   2.571   5.503  0.2490 -0.5777 -1.3044
   13SAPS  H17R 1669   2.775   2.534   5.535  0.8885  0.5361 -1.9090
   13SAPS  H17S 1670   2.614   2.479   5.503  0.4817 -0.7811  0.8099
   13SAPS  C218 1671   2.632   2.668   5.617 -0.5848  0.6596  0.5357
   13SAPS  H18R 1672   2.615   2.606   5.707  1.1564 -0.5121  0.1151
   13SAPS  H18S 1673   2.538   2.727   5.606 -1.1438 -0.2905  0.1547
   13SAPS  C219 1674   2.742   2.766   5.672  0.0773 -0.2360  0.7499
   13SAPS  H19R 1675   2.705   2.868   5.650 -1.9485 -0.9487  0.6253
   13SAPS  H19S 1676   2.839   2.745   5.622 -1.3439 -0.4904 -2.0964
   13SAPS  C220 1677   2.756   2.737   5.825  0.0799  0.6973 -0.0899
   13SAPS  H20R 1678   2.796   2.637   5.851 -1.4463  0.2803  0.8089
   13SAPS  H20S 1679   2.651   2.751   5.859 -0.4014 -1.9853 -0.3019
   13SAPS  H20T 1680   2.811   2.815   5.882 -0.5127 -0.1718  1.7685
   13SAPS   C33 1681   3.515   2.300   4.387 -0.6214 -0.1936  0.0342
   13SAPS   H3X 1682   3.610   2.355   4.370  0.0931 -0.7442  1.9739
   13SAPS   H3Y 1683   3.524   2.201   4.339 -1.6466 -0.1510 -0.2738
   13SAPS   C34 1684   3.486   2.272   4.531 -0.1476  0.1797 -0.6776
   13SAPS   H4X 1685   3.392   2.217   4.554  0.5044 -0.6806  0.0278
   13SAPS   H4Y 1686   3.485   2.368   4.586  0.1694 -0.3069  0.2041
   13SAPS   C35 1687   3.594   2.189   4.610  0.1431  0.4256  0.3962
   13SAPS   H5X 1688   3.693   2.237   4.626  0.4626  0.3336 -1.2002
   13SAPS   H5Y 1689   3.620   2.100   4.550  1.3792  1.0831 -0.0576
   13SAPS   C36 1690   3.534   2.162   4.754 -0.0944 -0.7763 -0.3144
   13SAPS   H6X 1691   3.437   2.107   4.749  0.4159 -1.6670 -0.7184
   13SAPS   H6Y 1692   3.513   2.257   4.807 -0.0978 -1.5457  1.1268
   13SAPS   C37 1693   3.604   2.068   4.851  0.3323  0.1209 -0.0887
   13SAPS   H7X 1694   3.711   2.097   4.855 -0.0576  1.5344  0.3700
   13SAPS   H7Y 1695   3.597   1.966   4.806  0.1373  0.5656 -1.0782
   13SAPS   C38 1696   3.556   2.079   4.996  1.0320 -0.4307  0.0446
   13SAPS   H8X 1697   3.463   2.021   4.983  0.4045  0.7060 -0.6943
   13SAPS   H8Y 1698   3.526   2.182   5.026  1.3157 -0.0218 -1.0421
   13SAPS   C39 1699   3.663   2.017   5.089  0.7786 -0.0061  0.3031
   13SAPS   H9X 1700   3.746   2.090   5.100  0.2866  0.7895 -1.1149
   13SAPS   H9Y 1701   3.718   1.935   5.038 -0.3464  0.2655 -1.4163
   13SAPS  C310 1702   3.619   1.982   5.228  0.3086  0.1203 -0.3799
   13SAPS  H10X 1703   3.526   1.921   5.220  0.5298 -0.3579  0.5012
   13SAPS  H10Y 1704   3.578   2.076   5.271  0.1777  0.9436 -2.2151
   13SAPS  C311 1705   3.714   1.906   5.314 -0.0865  0.5415 -0.3318
   13SAPS  H11X 1706   3.811   1.959   5.320 -0.7506  1.9305 -1.2106
   13SAPS  H11Y 1707   3.715   1.804   5.272 -1.9349  1.0228 -1.6732
   13SAPS  C312 1708   3.681   1.896   5.464 -0.1682 -0.8574  0.4927
   13SAPS  H12X 1709   3.583   1.842   5.466 -0.0535 -1.0726  0.4038
   13SAPS  H12Y 1710   3.679   1.999   5.504  2.2147 -1.2791  1.8435
   13SAPS  C313 1711   3.780   1.808   5.545  0.8294  0.0793 -0.0859
   13SAPS  H13X 1712   3.881   1.847   5.521  1.7324 -2.2929 -0.3528
   13SAPS  H13Y 1713   3.776   1.702   5.513  2.1075 -0.0530  0.1305
   13SAPS  C314 1714   3.764   1.820   5.699 -0.4921  0.2335 -0.3850
   13SAPS  H14X 1715   3.779   1.927   5.722 -1.1286  0.1869  0.2929
   13SAPS  H14Y 1716   3.847   1.760   5.743  0.3268  1.4556 -0.2122
   13SAPS  C315 1717   3.623   1.771   5.746  0.1943 -0.2424  0.2118
   13SAPS  H15X 1718   3.622   1.662   5.723  1.9523 -0.3336  0.3725
   13SAPS  H15Y 1719   3.549   1.816   5.677  1.4116  3.2233  0.9559
   13SAPS  C316 1720   3.573   1.812   5.886 -0.1339 -0.0480 -0.4730
   13SAPS  H16X 1721   3.464   1.792   5.887 -0.1921  0.1396  1.4091
   13SAPS  H16Y 1722   3.589   1.920   5.905  3.1685 -0.5574  0.2943
   13SAPS  C317 1723   3.637   1.737   5.997 -0.2599  0.7807  0.3566
   13SAPS  H17X 1724   3.744   1.761   5.983  0.3081 -1.9049 -0.5707
   13SAPS  H17Y 1725   3.627   1.627   5.985 -1.8177  0.7363  1.6679
   13SAPS  C318 1726   3.599   1.762   6.146  0.2897  0.6860 -0.8100
   13SAPS  H18X 1727   3.616   1.868   6.174 -0.5974  0.2291  1.6291
   13SAPS  H18Y 1728   3.672   1.698   6.201 -0.2622  1.3401  0.7208
   13SAPS  H18Z 1729   3.492   1.742   6.163  0.1547  0.8753 -1.4063
   14SAPS     N 1730   1.319   3.590   3.648  0.4254  0.5619  0.5586
   14SAPS   HN1 1731   1.398   3.657   3.637  0.9113  0.0652  0.9994
   14SAPS   HN2 1732   1.231   3.628   3.608 -0.1270 -1.1689  0.0383
   14SAPS   HN3 1733   1.299   3.572   3.748 -2.7693 -1.3447 -0.2630
   14SAPS   C12 1734   1.338   3.454   3.588 -0.5301 -0.3651  0.5316
   14SAPS  H12A 1735   1.252   3.400   3.626 -1.4019  1.2919  1.0524
   14SAPS   C13 1736   1.341   3.441   3.433  0.0486 -0.0260 -0.2474
   14SAPS  O13A 1737   1.310   3.540   3.366 -0.3423  0.3487  0.0370
   14SAPS  O13B 1738   1.360   3.328   3.379  0.5698 -0.8775 -0.4843
   14SAPS   C11 1739   1.472   3.391   3.643  0.5492  0.4195 -0.2274
   14SAPS  H11A 1740   1.558   3.451   3.607 -0.4853  2.9646  1.2765
   14SAPS  H11B 1741   1.482   3.288   3.602 -1.0261  0.0464  0.2633
   14SAPS     P 1742   1.596   3.324   3.847 -0.3019  0.1708 -0.2458
   14SAPS   O13 1743   1.584   3.178   3.833 -0.4922  0.0527  0.3208
   14SAPS   O14 1744   1.718   3.385   3.791 -0.2747 -0.5281 -0.0859
   14SAPS   O12 1745   1.463   3.385   3.788 -0.8098  0.5727  0.5943
   14SAPS   O11 1746   1.580   3.355   4.006 -0.8455  0.6668 -0.0580
   14SAPS    C1 1747   1.594   3.482   4.062  0.3267 -0.3585  0.0064
   14SAPS    HA 1748   1.597   3.571   3.996 -0.7395  0.4756  1.0446
   14SAPS    HB 1749   1.508   3.505   4.127  0.4727  0.7958 -0.1841
   14SAPS    C2 1750   1.720   3.483   4.156  0.3954 -0.2891 -0.3146
   14SAPS    HS 1751   1.730   3.590   4.184 -0.2878 -0.4378  0.5489
   14SAPS   O21 1752   1.836   3.440   4.077  0.6159  0.2136  0.1390
   14SAPS   C21 1753   1.884   3.529   4.000  0.1953 -0.3369  0.1290
   14SAPS   O22 1754   1.851   3.646   3.996 -0.4044  0.0056 -0.2112
   14SAPS   C22 1755   2.013   3.464   3.944 -0.1529  0.2214  0.2284
   14SAPS   H2R 1756   1.977   3.377   3.886  0.8199 -0.8316  1.1485
   14SAPS   H2S 1757   2.038   3.540   3.867 -2.3135  1.0441  0.2745
   14SAPS    C3 1758   1.690   3.391   4.277 -0.1188  0.0288  0.1327
   14SAPS    HX 1759   1.673   3.290   4.234 -1.5459  0.1251  0.3891
   14SAPS    HY 1760   1.594   3.415   4.328 -0.0124 -0.0467  0.3707
   14SAPS   O31 1761   1.794   3.376   4.380  0.6616  0.0243 -0.4821
   14SAPS   C31 1762   1.882   3.271   4.369 -0.4344  0.1295  0.2391
   14SAPS   O32 1763   1.872   3.178   4.291  0.1388 -0.4289 -0.0736
   14SAPS   C32 1764   1.995   3.284   4.474 -0.7556 -0.0763  0.2442
   14SAPS   H2X 1765   2.071   3.339   4.415  0.4629 -2.2118 -0.3083
   14SAPS   H2Y 1766   2.039   3.186   4.505  1.9544  0.9389 -0.0787
   14SAPS   C23 1767   2.136   3.434   4.031 -0.0164  0.2868 -0.3511
   14SAPS   H3R 1768   2.210   3.377   3.971 -1.0364 -3.0469  1.3321
   14SAPS   H3S 1769   2.113   3.360   4.110 -0.5494  0.7596 -0.0553
   14SAPS   C24 1770   2.198   3.553   4.107 -0.5228  0.1285  0.2494
   14SAPS   H4R 1771   2.295   3.514   4.146 -1.1267 -0.1237  1.5498
   14SAPS   H4S 1772   2.140   3.586   4.196  1.0072  1.2206  0.8850
   14SAPS   C25 1773   2.223   3.685   4.036 -0.1636 -0.2814 -0.2181
   14SAPS   H5R 1774   2.294   3.667   3.955 -1.0217  0.8309 -1.2506
   14SAPS   C26 1775   2.167   3.805   4.067  0.9785  0.0304  0.3674
   14SAPS   H6R 1776   2.204   3.894   4.015  1.6005 -0.8114 -0.6906
   14SAPS   C27 1777   2.059   3.829   4.174 -0.6397  0.1433  1.3505
   14SAPS   H7R 1778   2.007   3.736   4.206  0.4463 -0.9167  0.1990
   14SAPS   H7S 1779   1.975   3.882   4.125 -1.2401 -1.3608  0.6768
   14SAPS   C28 1780   2.123   3.894   4.288 -0.7973  0.2235  0.4857
   14SAPS   H8R 1781   2.172   3.982   4.245 -0.6953  0.1064  0.3651
   14SAPS   C29 1782   2.142   3.838   4.411  0.1793 -1.0764  0.1602
   14SAPS   H9R 1783   2.198   3.903   4.481 -2.1458 -0.9618  2.0609
   14SAPS  C210 1784   2.102   3.705   4.459 -0.5099  0.1464 -0.0924
   14SAPS  H10R 1785   2.053   3.656   4.373 -0.3491  0.7254 -0.5193
   14SAPS  H10S 1786   2.022   3.709   4.536  0.9052  2.9451  1.3704
   14SAPS  C211 1787   2.208   3.602   4.500 -0.4489  0.3935 -0.2662
   14SAPS  H11R 1788   2.246   3.545   4.414  0.8446  0.6069  0.1311
   14SAPS  C212 1789   2.247   3.574   4.630  0.8147 -0.0457  0.4803
   14SAPS  H12R 1790   2.314   3.490   4.651 -1.1803 -2.4485 -2.0848
   14SAPS  C213 1791   2.207   3.668   4.751  0.3298  0.2710  0.4022
   14SAPS  H13R 1792   2.194   3.608   4.844 -2.3823  0.5091  0.2745
   14SAPS  H13S 1793   2.111   3.723   4.736  0.6035  1.3753  2.3834
   14SAPS  C214 1794   2.305   3.780   4.773  0.3054  0.3796  0.7358
   14SAPS  H14R 1795   2.310   3.857   4.694 -0.6406 -0.7856 -0.5042
   14SAPS  C215 1796   2.371   3.813   4.888 -0.4112  0.8620  0.3024
   14SAPS  H15R 1797   2.440   3.900   4.886  0.2251  0.3548 -0.6984
   14SAPS  C216 1798   2.389   3.725   5.009 -1.1088 -0.0146 -0.3978
   14SAPS  H16R 1799   2.459   3.642   4.985 -1.6664 -0.9343  0.9840
   14SAPS  H16S 1800   2.286   3.684   5.023 -0.5035 -1.0536  1.3694
   14SAPS  C217 1801   2.432   3.789   5.135 -0.5127 -0.2650 -0.3500
   14SAPS  H17R 1802   2.387   3.889   5.155 -0.1490  0.2168 -1.8137
   14SAPS  H17S 1803   2.543   3.799   5.131 -0.4801 -0.2566  0.4264
   14SAPS  C218 1804   2.406   3.710   5.266 -0.8299  0.0061  0.1790
   14SAPS  H18R 1805   2.302   3.696   5.300 -0.0904 -2.7846  1.5602
   14SAPS  H18S 1806   2.444   3.772   5.350  0.2589  0.8647 -0.8972
   14SAPS  C219 1807   2.482   3.577   5.264 -0.6480 -0.3066  0.3042
   14SAPS  H19R 1808   2.585   3.613   5.248 -0.5768 -1.5829 -2.9327
   14SAPS  H19S 1809   2.459   3.516   5.174 -0.5045  0.6882 -0.4191
   14SAPS  C220 1810   2.470   3.488   5.391  0.1581 -0.4564 -0.0599
   14SAPS  H20R 1811   2.363   3.459   5.389 -0.1075  0.4895 -0.4994
   14SAPS  H20S 1812   2.497   3.549   5.480  2.6219 -1.6485  0.1013
   14SAPS  H20T 1813   2.535   3.398   5.380  1.0715  0.2835 -0.9509
   14SAPS   C33 1814   1.956   3.363   4.593  0.4820 -0.0246 -0.2523
   14SAPS   H3X 1815   1.900   3.455   4.566  1.3422  0.3438 -0.8150
   14SAPS   H3Y 1816   2.049   3.395   4.644 -1.1116  2.1297  1.4814
   14SAPS   C34 1817   1.857   3.290   4.694 -0.9956  0.7545  0.4744
   14SAPS   H4X 1818   1.790   3.220   4.639  2.1745 -1.1967 -1.2368
   14SAPS   H4Y 1819   1.808   3.375   4.746  1.2636  0.9320  2.4662
   14SAPS   C35 1820   1.936   3.211   4.799 -0.2060  0.1711 -0.0788
   14SAPS   H5X 1821   1.986   3.135   4.734 -0.6177  0.3561 -0.6185
   14SAPS   H5Y 1822   1.861   3.165   4.866 -1.3614 -0.6240 -1.8402
   14SAPS   C36 1823   2.023   3.295   4.891  0.1939 -0.2196  0.0849
   14SAPS   H6X 1824   1.971   3.375   4.948  2.7831  1.7590 -0.1240
   14SAPS   H6Y 1825   2.100   3.357   4.839  0.6603  1.0213  2.1631
   14SAPS   C37 1826   2.101   3.204   4.986  0.5598  0.2051 -0.1352
   14SAPS   H7X 1827   2.186   3.265   5.023  1.4545 -0.4531 -1.0560
   14SAPS   H7Y 1828   2.140   3.116   4.933  0.9199 -0.7103  1.5765
   14SAPS   C38 1829   2.014   3.139   5.099 -0.0593 -0.7994  0.1730
   14SAPS   H8X 1830   2.076   3.063   5.153  0.1114 -1.6459 -1.1549
   14SAPS   H8Y 1831   1.920   3.097   5.058 -0.3125  0.8386 -0.9772
   14SAPS   C39 1832   1.975   3.228   5.221  0.1485 -0.4810  0.1971
   14SAPS   H9X 1833   1.890   3.289   5.183  1.2506  0.9928 -0.0214
   14SAPS   H9Y 1834   2.059   3.297   5.244 -0.0156  0.4965 -1.8627
   14SAPS  C310 1835   1.941   3.137   5.340 -0.6397 -0.1399  0.3606
   14SAPS  H10X 1836   1.906   3.042   5.293  0.1723 -1.2381  1.8914
   14SAPS  H10Y 1837   1.859   3.186   5.397 -2.2526 -3.2021  0.8966
   14SAPS  C311 1838   2.058   3.127   5.438  0.5538  0.4728  0.1731
   14SAPS  H11X 1839   2.137   3.070   5.385 -1.0624 -0.0816 -1.7201
   14SAPS  H11Y 1840   2.032   3.066   5.527  2.3951 -0.4904  0.0997
   14SAPS  C312 1841   2.108   3.262   5.504  0.1020  0.2539  0.4762
   14SAPS  H12X 1842   2.022   3.284   5.571 -0.2240 -0.2166  0.2278
   14SAPS  H12Y 1843   2.120   3.344   5.430 -1.7295  0.2212  0.0888
   14SAPS  C313 1844   2.231   3.242   5.597  0.4134 -0.4480 -0.3630
   14SAPS  H13X 1845   2.318   3.219   5.531  1.1997 -1.7790  1.0780
   14SAPS  H13Y 1846   2.221   3.159   5.669  0.7858 -0.2444 -0.0732
   14SAPS  C314 1847   2.277   3.373   5.670 -0.1747 -0.5699  0.0334
   14SAPS  H14X 1848   2.285   3.461   5.603 -0.2759 -0.7733 -0.2485
   14SAPS  H14Y 1849   2.381   3.355   5.705  0.1505 -2.9646 -1.9238
   14SAPS  C315 1850   2.181   3.411   5.783  0.7676 -0.4174 -0.1347
   14SAPS  H15X 1851   2.194   3.330   5.857  0.0816 -0.8653 -0.5022
   14SAPS  H15Y 1852   2.073   3.414   5.757  0.1787  2.4478  2.0499
   14SAPS  C316 1853   2.212   3.554   5.842 -0.2370  0.0819  0.5294
   14SAPS  H16X 1854   2.154   3.560   5.937  1.1328 -1.0977  1.4815
   14SAPS  H16Y 1855   2.178   3.634   5.772 -1.3080  0.4924  1.4880
   14SAPS  C317 1856   2.355   3.583   5.888  0.1125 -0.0323 -0.0886
   14SAPS  H17X 1857   2.410   3.600   5.793  0.3035  0.9641  0.1959
   14SAPS  H17Y 1858   2.406   3.497   5.937  1.7683 -1.2290 -3.6211
   14SAPS  C318 1859   2.366   3.711   5.982 -0.4236  0.8662 -0.7893
   14SAPS  H18X 1860   2.298   3.787   5.936 -3.4844 -1.2930 -0.1171
   14SAPS  H18Y 1861   2.473   3.740   5.978  0.0288 -0.8463 -1.6422
   14SAPS  H18Z 1862   2.323   3.684   6.081 -1.5911  1.1593 -1.1953
   15SAPS     N 1863   4.239   4.262   3.509  0.3630 -0.1387 -1.1265
   15SAPS   HN1 1864   4.328   4.295   3.551  0.0430  1.5351 -1.6590
   15SAPS   HN2 1865   4.185   4.349   3.489 -0.0846  0.4766  2.2172
   15SAPS   HN3 1866   4.192   4.207   3.584  2.1838  1.5086  1.3873
   15SAPS   C12 1867   4.255   4.176   3.390 -1.0832 -0.0214  0.2654
   15SAPS  H12A 1868   4.157   4.156   3.349 -0.4178 -1.2839 -0.7934
   15SAPS   C13 1869   4.340   4.245   3.283 -0.3585  0.1914 -0.2104
   15SAPS  O13A 1870   4.377   4.364   3.301 -0.1554  0.0723 -0.0008
   15SAPS  O13B 1871   4.385   4.176   3.188 -0.2140  0.0008  0.8331
   15SAPS   C11 1872   4.319   4.042   3.429  0.6376  0.6633  0.1196
   15SAPS  H11A 1873   4.422   4.070   3.461  0.3502  0.2658  1.4172
   15SAPS  H11B 1874   4.311   3.976   3.340 -2.8206  1.7595 -0.5224
   15SAPS     P 1875   4.163   3.854   3.517 -0.2803 -0.2265 -0.2611
   15SAPS   O13 1876   4.032   3.888   3.457  0.8041 -0.7662  0.4626
   15SAPS   O14 1877   4.244   3.735   3.471  0.5440 -0.5563 -0.2071
   15SAPS   O12 1878   4.254   3.988   3.542 -0.5404  0.3202  0.5431
   15SAPS   O11 1879   4.135   3.827   3.668 -0.1828 -0.6164  0.3346
   15SAPS    C1 1880   4.081   3.917   3.768  0.3669 -1.0864  0.2788
   15SAPS    HA 1881   4.097   3.877   3.871  0.1072 -1.0561  0.3340
   15SAPS    HB 1882   4.141   4.009   3.785  1.4184 -1.9259  1.2618
   15SAPS    C2 1883   3.933   3.954   3.743  0.1048 -0.5507 -0.3496
   15SAPS    HS 1884   3.920   3.989   3.638  2.9741  1.7969 -0.0504
   15SAPS   O21 1885   3.896   4.072   3.810 -0.5232 -0.2075 -0.0434
   15SAPS   C21 1886   3.949   4.191   3.777 -0.3010 -0.1298 -0.4540
   15SAPS   O22 1887   4.029   4.210   3.687  0.6533 -0.2092  0.5777
   15SAPS   C22 1888   3.877   4.303   3.853 -0.2594  0.0471  0.3157
   15SAPS   H2R 1889   3.871   4.390   3.784 -1.1570  2.3999  3.1258
   15SAPS   H2S 1890   3.778   4.269   3.889 -0.0427 -1.4479 -0.4640
   15SAPS    C3 1891   3.842   3.833   3.778 -0.7359 -0.2945  0.5182
   15SAPS    HX 1892   3.889   3.754   3.716 -0.3047  0.8022 -0.5836
   15SAPS    HY 1893   3.734   3.849   3.759 -0.4937 -0.0299 -0.6756
   15SAPS   O31 1894   3.867   3.782   3.914 -0.3221  0.3215 -0.0703
   15SAPS   C31 1895   3.789   3.851   4.007 -0.7250  0.5975  0.0008
   15SAPS   O32 1896   3.712   3.935   3.975 -0.1668  0.0639  0.3404
   15SAPS   C32 1897   3.811   3.793   4.147  0.0770 -0.0190  0.0774
   15SAPS   H2X 1898   3.916   3.780   4.180  0.4807 -0.3983 -1.2741
   15SAPS   H2Y 1899   3.761   3.693   4.147 -0.2388  0.0416 -2.8765
   15SAPS   C23 1900   3.957   4.359   3.975 -0.5644 -0.2932 -0.0136
   15SAPS   H3R 1901   3.901   4.445   4.018  0.8789  0.9499 -0.5129
   15SAPS   H3S 1902   4.059   4.392   3.944 -0.8773  1.1413  0.4388
   15SAPS   C24 1903   3.963   4.261   4.086  0.6906 -0.5630 -0.4970
   15SAPS   H4R 1904   4.003   4.170   4.036  0.5193 -0.5195 -0.7141
   15SAPS   H4S 1905   3.860   4.237   4.118  0.5867 -0.7276 -0.9512
   15SAPS   C25 1906   4.047   4.316   4.193  0.0278 -0.4207  0.8029
   15SAPS   H5R 1907   4.156   4.321   4.179 -0.1332  0.9113 -0.1887
   15SAPS   C26 1908   4.007   4.376   4.300  0.2108 -0.4509 -0.5655
   15SAPS   H6R 1909   4.084   4.438   4.349  0.7645 -2.8043  1.8072
   15SAPS   C27 1910   3.869   4.383   4.357 -0.0593 -0.5871 -0.0917
   15SAPS   H7R 1911   3.804   4.309   4.305 -0.2516 -0.0681 -0.6099
   15SAPS   H7S 1912   3.829   4.481   4.323  1.5901 -0.0426 -0.5812
   15SAPS   C28 1913   3.836   4.372   4.501  0.5269 -0.3597  0.0752
   15SAPS   H8R 1914   3.919   4.337   4.564  0.9734  1.1065  0.3196
   15SAPS   C29 1915   3.711   4.385   4.559 -0.2412 -0.3033 -0.0089
   15SAPS   H9R 1916   3.697   4.387   4.668 -0.6399 -0.2964 -0.0585
   15SAPS  C210 1917   3.592   4.422   4.480 -0.4231  0.4909 -0.5924
   15SAPS  H10R 1918   3.623   4.492   4.400 -1.6528  0.2880 -1.2675
   15SAPS  H10S 1919   3.515   4.485   4.529  0.5273  1.1438  0.0920
   15SAPS  C211 1920   3.536   4.309   4.399 -0.3295 -0.1012  0.1162
   15SAPS  H11R 1921   3.555   4.313   4.291  0.7281 -3.0112  0.0997
   15SAPS  C212 1922   3.458   4.203   4.431 -0.1197 -0.6575  0.3938
   15SAPS  H12R 1923   3.442   4.132   4.348  2.8572  0.4931 -1.3397
   15SAPS  C213 1924   3.412   4.163   4.574 -0.2937  0.1255 -0.0130
   15SAPS  H13R 1925   3.499   4.123   4.630  0.2573 -0.3059 -1.1488
   15SAPS  H13S 1926   3.359   4.065   4.565  0.9473 -0.7237  1.4982
   15SAPS  C214 1927   3.339   4.263   4.663 -0.5149  0.6976  0.5166
   15SAPS  H14R 1928   3.257   4.318   4.615 -1.3310 -0.7393  0.1778
   15SAPS  C215 1929   3.372   4.306   4.787 -0.1765 -0.3986  0.1709
   15SAPS  H15R 1930   3.303   4.374   4.840 -2.0197 -1.6515 -0.4987
   15SAPS  C216 1931   3.486   4.267   4.884 -0.2443  0.1936  0.5489
   15SAPS  H16R 1932   3.497   4.354   4.952 -0.0832  0.8427 -0.2878
   15SAPS  H16S 1933   3.581   4.255   4.827 -1.0869  0.5584 -0.9678
   15SAPS  C217 1934   3.473   4.141   4.969 -0.2799  0.4954  0.0659
   15SAPS  H17R 1935   3.504   4.052   4.911  0.9645 -0.5820  2.2542
   15SAPS  H17S 1936   3.368   4.120   5.000  0.1061 -0.7326  0.5983
   15SAPS  C218 1937   3.547   4.159   5.096  1.0138 -0.0386 -0.0812
   15SAPS  H18R 1938   3.520   4.063   5.146 -1.6426 -0.6554 -2.4691
   15SAPS  H18S 1939   3.510   4.242   5.160 -1.0815  0.7621 -2.1961
   15SAPS  C219 1940   3.698   4.169   5.072 -0.1385  0.1974  0.6970
   15SAPS  H19R 1941   3.717   4.270   5.031  2.2874 -0.5912 -0.2575
   15SAPS  H19S 1942   3.732   4.097   4.995  0.1465  1.6769 -0.6182
   15SAPS  C220 1943   3.780   4.142   5.200  0.2030  0.2391 -0.1205
   15SAPS  H20R 1944   3.761   4.046   5.252  1.7923  0.4263  0.8883
   15SAPS  H20S 1945   3.770   4.223   5.276  2.5818 -0.4726  1.0536
   15SAPS  H20T 1946   3.886   4.138   5.166  0.5992  1.4987  0.8727
   15SAPS   C33 1947   3.733   3.885   4.240 -0.3384 -0.8845  0.2876
   15SAPS   H3X 1948   3.623   3.872   4.225 -0.2363 -0.3399 -1.1562
   15SAPS   H3Y 1949   3.749   3.992   4.213 -1.0708 -0.7012  0.5403
   15SAPS   C34 1950   3.746   3.836   4.383 -0.0726  0.6118  0.0694
   15SAPS   H4X 1951   3.723   3.727   4.374 -0.8114  0.8372 -0.9642
   15SAPS   H4Y 1952   3.673   3.884   4.450 -0.3679  1.1420 -0.6176
   15SAPS   C35 1953   3.881   3.855   4.445  1.1099 -0.4228 -0.3679
   15SAPS   H5X 1954   3.965   3.831   4.376  0.6266 -0.3332 -0.9942
   15SAPS   H5Y 1955   3.886   3.802   4.543  1.9785  0.4913  0.1074
   15SAPS   C36 1956   3.899   4.003   4.498  0.3601 -0.3843  0.1078
   15SAPS   H6X 1957   3.807   4.024   4.556  0.5691  0.1692  0.2441
   15SAPS   H6Y 1958   3.908   4.075   4.413 -1.8400  0.3641  0.4322
   15SAPS   C37 1959   4.014   4.029   4.596  0.3003  0.2372 -0.3804
   15SAPS   H7X 1960   4.053   4.132   4.599 -0.7229  0.6306  0.3304
   15SAPS   H7Y 1961   4.100   3.969   4.561  0.2836  0.7030 -1.2192
   15SAPS   C38 1962   3.982   4.001   4.743 -0.7495 -0.8148 -0.4458
   15SAPS   H8X 1963   3.951   3.894   4.748  0.4044 -1.1027  1.6839
   15SAPS   H8Y 1964   3.893   4.062   4.770  0.7275  1.5485 -0.6724
   15SAPS   C39 1965   4.098   4.039   4.831  0.4153 -0.0117  0.1530
   15SAPS   H9X 1966   4.101   4.150   4.824 -1.9602  0.0668 -0.3273
   15SAPS   H9Y 1967   4.192   3.987   4.803 -0.2974 -2.2683  1.6626
   15SAPS  C310 1968   4.054   4.018   4.978 -0.3059  0.5986  0.7925
   15SAPS  H10X 1969   4.038   3.909   4.989 -0.0571  0.7714  3.2561
   15SAPS  H10Y 1970   3.954   4.063   4.993 -1.2911 -1.6729  1.3672
   15SAPS  C311 1971   4.163   4.052   5.077  0.4409 -0.7651  0.0096
   15SAPS  H11X 1972   4.168   4.163   5.067 -1.2631 -0.4869  1.5989
   15SAPS  H11Y 1973   4.258   4.000   5.056  0.8630 -0.7943  1.8667
   15SAPS  C312 1974   4.137   4.021   5.228  1.1947  0.1188  0.0928
   15SAPS  H12X 1975   4.190   3.925   5.242 -0.5252 -1.1429 -1.4482
   15SAPS  H12Y 1976   4.028   4.004   5.242  1.0921  1.2645  0.9057
   15SAPS  C313 1977   4.192   4.135   5.314  0.6202 -0.0023  0.9135
   15SAPS  H13X 1978   4.139   4.224   5.275 -0.4020 -0.8675  0.2896
   15SAPS  H13Y 1979   4.300   4.149   5.295 -0.0323  1.5067 -2.2412
   15SAPS  C314 1980   4.177   4.131   5.467 -0.2433 -0.2715  0.7772
   15SAPS  H14X 1981   4.251   4.199   5.514  1.0301  0.6454 -2.3271
   15SAPS  H14Y 1982   4.199   4.029   5.507  2.7588  0.0239  0.0972
   15SAPS  C315 1983   4.042   4.170   5.524  0.6004  0.3476  0.0224
   15SAPS  H15X 1984   3.984   4.240   5.460  1.1968 -0.1710 -1.1079
   15SAPS  H15Y 1985   4.059   4.202   5.629  3.2134  0.8720 -0.5095
   15SAPS  C316 1986   3.934   4.052   5.533 -1.0887 -0.5116  0.3062
   15SAPS  H16X 1987   3.966   3.967   5.597  0.4759 -0.2020 -0.0127
   15SAPS  H16Y 1988   3.934   4.009   5.430  0.7833 -0.9343  0.4429
   15SAPS  C317 1989   3.804   4.109   5.576  0.5399 -0.4399 -0.4031
   15SAPS  H17X 1990   3.776   4.198   5.516 -1.0719 -1.8795 -1.8876
   15SAPS  H17Y 1991   3.812   4.150   5.679 -0.4333  1.2336 -0.9634
   15SAPS  C318 1992   3.687   4.002   5.574 -0.2716 -0.9236 -0.3532
   15SAPS  H18X 1993   3.590   4.050   5.602  0.3961 -0.1946  0.7828
   15SAPS  H18Y 1994   3.707   3.925   5.651 -1.2517 -1.4993 -0.6434
   15SAPS  H18Z 1995   3.686   3.965   5.469 -1.6160 -0.9387 -0.3525
   16SAPS     N 1996   4.646   4.306   3.276 -0.4806 -0.0151 -0.3515
   16SAPS   HN1 1997   4.670   4.236   3.349 -0.5379  1.9130  1.6140
   16SAPS   HN2 1998   4.700   4.394   3.290  1.5633 -1.0309 -1.3074
   16SAPS   HN3 1999   4.544   4.326   3.279 -0.7717 -1.4784  0.9123
   16SAPS   C12 2000   4.686   4.260   3.140 -0.1673  0.2280  0.3881
   16SAPS  H12A 2001   4.616   4.181   3.117 -0.8098  0.6002  0.9980
   16SAPS   C13 2002   4.668   4.372   3.030 -1.3334 -0.5106  0.3548
   16SAPS  O13A 2003   4.628   4.485   3.071  0.6415  0.2194  0.5703
   16SAPS  O13B 2004   4.654   4.331   2.911 -0.2181 -0.1232 -0.9391
   16SAPS   C11 2005   4.832   4.213   3.154 -0.9823 -0.1026  0.2107
   16SAPS  H11A 2006   4.890   4.289   3.209  0.5377  0.5317 -2.1277
   16SAPS  H11B 2007   4.878   4.198   3.054  1.2376 -4.9415  1.6354
   16SAPS     P 2008   4.891   4.069   3.366  0.8734  0.1111  0.2389
   16SAPS   O13 2009   4.863   3.925   3.406  0.6508  0.2229 -0.1880
   16SAPS   O14 2010   5.029   4.127   3.361  0.5454  0.0538 -0.2089
   16SAPS   O12 2011   4.831   4.091   3.221  0.3510 -0.7379 -0.3770
   16SAPS   O11 2012   4.803   4.172   3.449  0.3232  0.5752 -0.6948
   16SAPS    C1 2013   4.858   4.249   3.556 -0.5043 -0.4135 -0.2505
   16SAPS    HA 2014   4.953   4.298   3.528 -0.5358 -0.2487 -0.0719
   16SAPS    HB 2015   4.792   4.338   3.565  0.1497 -0.0844  1.6482
   16SAPS    C2 2016   4.843   4.173   3.699  0.6071  0.2990  0.2191
   16SAPS    HS 2017   4.933   4.108   3.698  0.0936 -0.4867 -2.6269
   16SAPS   O21 2018   4.719   4.105   3.691  0.2913  0.1790  0.0363
   16SAPS   C21 2019   4.719   3.994   3.774 -0.1017  0.2683 -0.4351
   16SAPS   O22 2020   4.809   3.957   3.841 -0.3509  0.9847  0.3716
   16SAPS   C22 2021   4.583   3.925   3.770 -0.2635  0.0579 -0.7470
   16SAPS   H2R 2022   4.557   3.914   3.663 -1.1237  0.6329 -0.6075
   16SAPS   H2S 2023   4.587   3.827   3.822 -1.5107  0.6467  0.5334
   16SAPS    C3 2024   4.853   4.283   3.815  0.2169 -0.2840  0.8579
   16SAPS    HX 2025   4.766   4.350   3.800  0.3058 -0.7461 -2.5396
   16SAPS    HY 2026   4.934   4.357   3.798  0.0173 -0.0925  0.7401
   16SAPS   O31 2027   4.842   4.223   3.951  0.0080 -0.0633  0.1445
   16SAPS   C31 2028   4.960   4.178   3.992  0.6022  0.1461  0.0852
   16SAPS   O32 2029   5.067   4.186   3.934  0.2561  0.3434 -0.0108
   16SAPS   C32 2030   4.940   4.110   4.120 -0.1132  0.1504 -0.6239
   16SAPS   H2X 2031   5.034   4.096   4.177  0.0971  3.7907  0.1768
   16SAPS   H2Y 2032   4.890   4.013   4.098 -2.2918  1.0276  0.1658
   16SAPS   C23 2033   4.487   4.014   3.853  0.2705  0.0981 -0.3067
   16SAPS   H3R 2034   4.400   4.024   3.786  0.1773  2.6131  0.0787
   16SAPS   H3S 2035   4.515   4.121   3.864 -1.4225  0.6711 -1.2321
   16SAPS   C24 2036   4.462   3.943   3.983  0.0650  0.1778  0.6162
   16SAPS   H4R 2037   4.544   3.945   4.058  0.4923 -0.5522  0.1840
   16SAPS   H4S 2038   4.447   3.834   3.962 -0.8601  0.3201  0.4779
   16SAPS   C25 2039   4.337   3.998   4.050  0.1864  0.0984  0.3378
   16SAPS   H5R 2040   4.256   3.997   3.975  1.1977  1.0891 -0.8143
   16SAPS   C26 2041   4.331   4.050   4.173  0.4626  0.5823  0.5469
   16SAPS   H6R 2042   4.232   4.090   4.199  0.1103 -1.2954  2.3306
   16SAPS   C27 2043   4.437   4.060   4.280 -0.1952 -0.5624  0.6891
   16SAPS   H7R 2044   4.476   4.163   4.267 -0.7551 -0.5673 -1.3419
   16SAPS   H7S 2045   4.520   3.987   4.267 -0.4320 -0.6421 -0.4566
   16SAPS   C28 2046   4.388   4.029   4.420  0.3022  0.3886 -0.0639
   16SAPS   H8R 2047   4.371   3.922   4.441  2.1309  0.4038  1.8058
   16SAPS   C29 2048   4.356   4.111   4.518  0.8453 -0.1680 -0.2019
   16SAPS   H9R 2049   4.341   4.066   4.617 -2.0321 -0.6859 -0.8044
   16SAPS  C210 2050   4.377   4.255   4.499  0.0199  0.9355  0.3576
   16SAPS  H10R 2051   4.336   4.288   4.402  1.9148  2.4369 -0.0078
   16SAPS  H10S 2052   4.479   4.297   4.487 -0.0712  1.1776  0.4200
   16SAPS  C211 2053   4.306   4.324   4.609  0.0586  0.3819  0.3392
   16SAPS  H11R 2054   4.198   4.303   4.612 -0.2240  1.3380 -1.8208
   16SAPS  C212 2055   4.360   4.415   4.698 -0.5389  0.5038  0.3291
   16SAPS  H12R 2056   4.293   4.455   4.776 -1.0337  0.4332 -0.0551
   16SAPS  C213 2057   4.507   4.452   4.701  0.6471 -0.3594  0.0722
   16SAPS  H13R 2058   4.528   4.547   4.647 -0.1614  0.0801  0.5125
   16SAPS  H13S 2059   4.570   4.375   4.649  1.4979  1.9181 -2.5131
   16SAPS  C214 2060   4.557   4.455   4.839 -0.5700  0.0482  0.0093
   16SAPS  H14R 2061   4.579   4.356   4.881 -0.9979 -1.1809 -2.5299
   16SAPS  C215 2062   4.570   4.567   4.917 -0.2823  0.3613  0.7298
   16SAPS  H15R 2063   4.599   4.568   5.023 -0.6196 -0.2017  0.8316
   16SAPS  C216 2064   4.531   4.704   4.867 -0.0580 -0.2132  0.2326
   16SAPS  H16R 2065   4.434   4.735   4.911 -0.7117 -0.9221 -0.6678
   16SAPS  H16S 2066   4.507   4.721   4.760  1.8620 -0.9238 -0.3585
   16SAPS  C217 2067   4.632   4.813   4.897  1.0423 -0.3224  0.4699
   16SAPS  H17R 2068   4.725   4.793   4.839 -0.5819 -0.1990 -2.3930
   16SAPS  H17S 2069   4.662   4.823   5.004 -1.1051  1.8467  0.9580
   16SAPS  C218 2070   4.591   4.955   4.851  0.3708 -0.5375 -0.2755
   16SAPS  H18R 2071   4.508   4.999   4.909  2.3830  2.0280  0.8733
   16SAPS  H18S 2072   4.564   4.948   4.743 -1.8814 -2.4769  0.3289
   16SAPS  C219 2073   4.698   5.057   4.873  0.7346  0.0275  0.2379
   16SAPS  H19R 2074   4.797   5.021   4.836  0.9415  0.5340  0.2913
   16SAPS  H19S 2075   4.708   5.068   4.983  0.8028 -1.6133  0.4265
   16SAPS  C220 2076   4.675   5.204   4.817 -0.2561 -0.0287 -0.2103
   16SAPS  H20R 2077   4.719   5.195   4.715 -0.4281 -0.0191 -0.2861
   16SAPS  H20S 2078   4.747   5.276   4.860 -2.6824  1.5225  1.5094
   16SAPS  H20T 2079   4.569   5.236   4.806 -0.4537 -0.4852  0.3036
   16SAPS   C33 2080   4.831   4.176   4.212 -0.3829  0.4388 -0.7256
   16SAPS   H3X 2081   4.730   4.132   4.198 -1.2131  2.0682 -0.0866
   16SAPS   H3Y 2082   4.816   4.281   4.180 -2.4081  0.4366  0.0883
   16SAPS   C34 2083   4.887   4.170   4.357 -0.5294 -0.4719 -0.1916
   16SAPS   H4X 2084   4.981   4.229   4.359 -0.4953 -0.4622 -1.5065
   16SAPS   H4Y 2085   4.916   4.066   4.386  0.4993 -0.6045 -1.6004
   16SAPS   C35 2086   4.799   4.248   4.458  0.1799 -0.1451  0.0295
   16SAPS   H5X 2087   4.696   4.207   4.458  0.0028  0.2108  2.3082
   16SAPS   H5Y 2088   4.792   4.353   4.424 -0.8539  0.2577  1.4311
   16SAPS   C36 2089   4.850   4.262   4.608 -0.5023 -0.5825  0.3830
   16SAPS   H6X 2090   4.876   4.168   4.662  0.8491 -0.0809  0.6549
   16SAPS   H6Y 2091   4.769   4.309   4.668 -0.4552  0.0650 -0.0508
   16SAPS   C37 2092   4.978   4.350   4.618  0.2786 -0.1329  0.2364
   16SAPS   H7X 2093   4.948   4.448   4.574  2.8497  0.0260 -1.3832
   16SAPS   H7Y 2094   5.065   4.316   4.558  1.3363 -1.3681  2.3562
   16SAPS   C38 2095   5.027   4.370   4.759 -0.3219 -0.7070 -0.9508
   16SAPS   H8X 2096   5.119   4.432   4.748 -0.4030 -0.2938  0.4584
   16SAPS   H8Y 2097   5.059   4.273   4.804  0.0728  0.3891  1.2423
   16SAPS   C39 2098   4.944   4.445   4.853  0.4231 -0.4180  0.1835
   16SAPS   H9X 2099   4.847   4.393   4.870  1.7481 -2.8492  0.7037
   16SAPS   H9Y 2100   4.919   4.541   4.801 -2.0006 -0.6865  0.7392
   16SAPS  C310 2101   5.004   4.483   4.992 -0.0374  0.3877  0.1210
   16SAPS  H10X 2102   5.090   4.552   4.977  0.0994  0.2000  0.0433
   16SAPS  H10Y 2103   5.038   4.396   5.052  2.3606  0.6125 -0.7694
   16SAPS  C311 2104   4.902   4.546   5.086  0.2509 -0.8233 -0.2415
   16SAPS  H11X 2105   4.818   4.475   5.105  0.0221 -0.0592  1.8862
   16SAPS  H11Y 2106   4.858   4.630   5.029  1.0622 -0.3733 -0.2185
   16SAPS  C312 2107   4.949   4.603   5.210 -0.3404  0.6069  0.6202
   16SAPS  H12X 2108   4.995   4.699   5.179  1.3054 -0.3551 -0.0283
   16SAPS  H12Y 2109   5.023   4.534   5.257 -2.2038 -0.8548  1.5329
   16SAPS  C313 2110   4.844   4.626   5.326  0.3342  0.2711  0.0169
   16SAPS  H13X 2111   4.748   4.589   5.283  0.3447 -0.4888  0.6272
   16SAPS  H13Y 2112   4.824   4.735   5.328  1.0059  0.3902  0.5385
   16SAPS  C314 2113   4.887   4.571   5.460 -0.5662  0.1451 -0.3888
   16SAPS  H14X 2114   4.880   4.460   5.456 -1.3589  0.1777  0.0461
   16SAPS  H14Y 2115   4.813   4.590   5.540 -0.7058  0.8761 -0.6862
   16SAPS  C315 2116   5.026   4.611   5.515  0.3376 -0.1652  0.5004
   16SAPS  H15X 2117   4.995   4.695   5.581  2.0888  1.1929 -0.3300
   16SAPS  H15Y 2118   5.086   4.648   5.429 -0.5346  1.1593  0.4202
   16SAPS  C316 2119   5.100   4.513   5.601 -0.1828 -0.2605 -0.1223
   16SAPS  H16X 2120   5.198   4.560   5.621 -0.5161  1.1037 -1.5028
   16SAPS  H16Y 2121   5.118   4.420   5.543 -3.7362  0.0557 -2.0123
   16SAPS  C317 2122   5.036   4.468   5.735  0.8753  0.9794 -0.3684
   16SAPS  H17X 2123   4.933   4.429   5.724  1.0415  0.5294 -0.3516
   16SAPS  H17Y 2124   5.025   4.563   5.792 -0.1623  0.9839 -0.5565
   16SAPS  C318 2125   5.127   4.376   5.815 -0.4029  0.3134 -0.4412
   16SAPS  H18X 2126   5.090   4.347   5.916 -1.3232  0.8212 -0.6217
   16SAPS  H18Y 2127   5.225   4.428   5.820  0.0392 -0.5784  0.6813
   16SAPS  H18Z 2128   5.143   4.281   5.760  0.1411 -1.0212  1.8981
   17SAPS     N 2129   1.887   5.259   3.439  0.8040  0.5363 -0.1712
   17SAPS   HN1 2130   1.922   5.258   3.537  2.1833  2.2535 -0.5894
   17SAPS   HN2 2131   1.854   5.167   3.402  2.4220 -0.4993  0.8114
   17SAPS   HN3 2132   1.972   5.298   3.393  0.5069  1.3952  0.0053
   17SAPS   C12 2133   1.775   5.362   3.420  0.9529 -0.0477  0.8923
   17SAPS  H12A 2134   1.797   5.427   3.337 -1.2566  3.1203  2.5787
   17SAPS   C13 2135   1.632   5.302   3.394 -0.3754  0.6453  0.0959
   17SAPS  O13A 2136   1.636   5.184   3.346  0.9513 -0.1026  0.0192
   17SAPS  O13B 2137   1.537   5.384   3.377 -0.0488  0.6834 -0.2244
   17SAPS   C11 2138   1.781   5.454   3.541 -0.3728 -0.0466  0.1869
   17SAPS  H11A 2139   1.698   5.529   3.535 -1.2127 -1.0321 -1.2864
   17SAPS  H11B 2140   1.877   5.510   3.540 -0.9387  1.0398  2.0099
   17SAPS     P 2141   1.768   5.449   3.805  0.0079 -0.4115 -0.4193
   17SAPS   O13 2142   1.896   5.420   3.875 -0.4140 -0.5410 -0.4848
   17SAPS   O14 2143   1.722   5.590   3.801  0.0273  0.4655  0.4504
   17SAPS   O12 2144   1.773   5.380   3.660 -0.6777  0.0104 -0.4668
   17SAPS   O11 2145   1.659   5.373   3.880 -0.0274 -0.5688 -0.1883
   17SAPS    C1 2146   1.593   5.258   3.827 -0.2453 -0.4200 -0.3880
   17SAPS    HA 2147   1.523   5.290   3.747 -0.6391 -1.3680 -0.4392
   17SAPS    HB 2148   1.668   5.184   3.793  2.4007  0.3434  3.2294
   17SAPS    C2 2149   1.502   5.199   3.933  0.1432  0.3560 -0.5902
   17SAPS    HS 2150   1.429   5.271   3.976 -0.4770 -0.0434 -0.9611
   17SAPS   O21 2151   1.587   5.143   4.036 -0.3218 -0.1106  0.2028
   17SAPS   C21 2152   1.596   5.204   4.152  0.2842 -0.6307 -0.3199
   17SAPS   O22 2153   1.536   5.309   4.180  0.4784  0.6456 -0.5814
   17SAPS   C22 2154   1.676   5.118   4.244 -0.4921 -1.3476 -0.1100
   17SAPS   H2R 2155   1.652   5.011   4.225  0.3235 -1.5521 -0.0196
   17SAPS   H2S 2156   1.779   5.113   4.203 -0.2417 -2.5338  0.6291
   17SAPS    C3 2157   1.409   5.085   3.875  0.2427 -0.1165  0.5964
   17SAPS    HX 2158   1.482   5.002   3.873  0.5030  0.1291 -0.7432
   17SAPS    HY 2159   1.382   5.110   3.770 -0.8309 -0.6612  0.7283
   17SAPS   O31 2160   1.290   5.060   3.952 -0.2586 -0.9874  0.1560
   17SAPS   C31 2161   1.297   4.996   4.069 -0.1101 -0.0650 -0.1767
   17SAPS   O32 2162   1.406   4.965   4.116  0.5336  0.1393 -0.1037
   17SAPS   C32 2163   1.159   4.967   4.124 -0.2981  0.2732  0.5933
   17SAPS   H2X 2164   1.152   4.861   4.091 -4.7949  0.4556  0.3400
   17SAPS   H2Y 2165   1.083   5.030   4.073  0.0241  1.6539  1.7370
   17SAPS   C23 2166   1.679   5.156   4.392  0.2613  0.4666 -0.2052
   17SAPS   H3R 2167   1.731   5.250   4.421 -1.1022  0.3696  2.8756
   17SAPS   H3S 2168   1.748   5.079   4.433  2.3628  0.3955 -3.4666
   17SAPS   C24 2169   1.537   5.148   4.465  0.8424  0.0491 -0.4586
   17SAPS   H4R 2170   1.473   5.224   4.416 -0.0524  0.1472  0.8228
   17SAPS   H4S 2171   1.558   5.172   4.571  2.7532 -0.2700 -0.7310
   17SAPS   C25 2172   1.472   5.009   4.451  0.2952 -0.3400 -0.5525
   17SAPS   H5R 2173   1.457   4.967   4.351  0.8671 -0.4635 -0.5907
   17SAPS   C26 2174   1.432   4.934   4.556 -1.1812  0.2774  0.3473
   17SAPS   H6R 2175   1.390   4.835   4.533 -0.3929  0.1929 -0.7638
   17SAPS   C27 2176   1.441   4.967   4.699 -0.0060 -0.0063  0.1037
   17SAPS   H7R 2177   1.510   5.050   4.721 -0.4090  0.9438 -1.9208
   17SAPS   H7S 2178   1.478   4.879   4.756  2.4759  1.1147  0.3230
   17SAPS   C28 2179   1.305   5.003   4.754 -0.1757 -0.1454  0.0332
   17SAPS   H8R 2180   1.287   5.111   4.750 -1.5518 -0.3832 -0.4754
   17SAPS   C29 2181   1.207   4.924   4.795  0.0018  0.2451  0.0426
   17SAPS   H9R 2182   1.112   4.971   4.824 -1.0362  1.5784 -4.6725
   17SAPS  C210 2183   1.205   4.774   4.796 -0.4725 -0.4040 -0.1569
   17SAPS  H10R 2184   1.263   4.733   4.710  1.0581  1.1531  0.0600
   17SAPS  H10S 2185   1.099   4.746   4.781 -1.1080  1.7153  0.0655
   17SAPS  C211 2186   1.248   4.726   4.937 -0.8232  0.7368 -0.6480
   17SAPS  H11R 2187   1.299   4.793   5.007 -0.5388 -0.8976  0.7706
   17SAPS  C212 2188   1.224   4.607   4.986  0.6725 -0.4114  0.6358
   17SAPS  H12R 2189   1.267   4.575   5.082  0.8031 -1.3696  0.2699
   17SAPS  C213 2190   1.159   4.499   4.907 -0.0385 -0.1083  0.1592
   17SAPS  H13R 2191   1.207   4.402   4.928 -1.9993 -0.9227  1.1584
   17SAPS  H13S 2192   1.181   4.514   4.799 -1.6289  0.7282 -0.0857
   17SAPS  C214 2193   1.006   4.485   4.933 -0.3711  1.2709  0.5711
   17SAPS  H14R 2194   0.983   4.473   5.040 -2.7620 -1.5816 -0.1456
   17SAPS  C215 2195   0.905   4.498   4.843 -1.4239  0.9180  0.1058
   17SAPS  H15R 2196   0.802   4.468   4.867 -0.6881 -2.5007 -0.4739
   17SAPS  C216 2197   0.920   4.533   4.697 -0.1957  0.1668  0.5140
   17SAPS  H16R 2198   1.012   4.591   4.676  0.6521 -0.8305  1.3431
   17SAPS  H16S 2199   0.837   4.594   4.654  0.4216 -0.1429 -1.1698
   17SAPS  C217 2200   0.935   4.411   4.607 -0.0202 -0.1541 -0.0167
   17SAPS  H17R 2201   0.834   4.368   4.592 -0.0507  0.6024 -2.2906
   17SAPS  H17S 2202   1.011   4.342   4.651 -0.9155  0.7097  3.1248
   17SAPS  C218 2203   0.977   4.453   4.464 -0.5385  0.2735 -0.7460
   17SAPS  H18R 2204   1.064   4.522   4.472 -1.1988  1.3178 -2.0447
   17SAPS  H18S 2205   0.902   4.521   4.420  0.0639  0.1051 -2.0951
   17SAPS  C219 2206   1.025   4.333   4.375  0.6298  0.5130 -1.0390
   17SAPS  H19R 2207   0.952   4.253   4.399  1.3913 -0.0376 -0.5154
   17SAPS  H19S 2208   1.124   4.296   4.408  0.9532  2.0479 -0.1656
   17SAPS  C220 2209   1.033   4.361   4.224 -0.4094 -0.5079 -0.0355
   17SAPS  H20R 2210   1.125   4.416   4.196 -1.7967  1.5014 -0.8726
   17SAPS  H20S 2211   0.954   4.424   4.178  0.2941 -0.2306 -0.8996
   17SAPS  H20T 2212   1.031   4.259   4.180 -2.1416 -1.3633  1.8862
   17SAPS   C33 2213   1.143   4.980   4.273 -0.0610 -0.1059 -0.7821
   17SAPS   H3X 2214   1.204   5.067   4.305 -2.4324  1.9860 -1.5845
   17SAPS   H3Y 2215   1.184   4.888   4.321  2.3120  0.8941 -0.7632
   17SAPS   C34 2216   1.003   5.013   4.330  0.3986  0.5366  0.0384
   17SAPS   H4X 2217   0.949   4.917   4.321 -0.1983  0.8770 -0.0684
   17SAPS   H4Y 2218   0.951   5.091   4.270 -1.4883  1.8863  3.1657
   17SAPS   C35 2219   1.001   5.046   4.477  0.5089  0.0939  0.1652
   17SAPS   H5X 2220   1.067   5.131   4.503  1.1668 -0.3879  0.0884
   17SAPS   H5Y 2221   1.033   4.956   4.533  0.9864  0.1585  0.0004
   17SAPS   C36 2222   0.854   5.082   4.523 -0.1327  0.0944  0.4952
   17SAPS   H6X 2223   0.808   5.126   4.432  0.1639 -0.8053 -0.1092
   17SAPS   H6Y 2224   0.849   5.159   4.602  0.9853  0.2341  0.4409
   17SAPS   C37 2225   0.763   4.967   4.570 -0.4887  0.1095 -0.8451
   17SAPS   H7X 2226   0.788   4.879   4.507  0.1989  1.0473 -1.9048
   17SAPS   H7Y 2227   0.658   4.998   4.554 -0.4681  2.6051  2.7406
   17SAPS   C38 2228   0.785   4.934   4.719  0.4381  0.5696  0.2800
   17SAPS   H8X 2229   0.894   4.914   4.730  0.3408 -0.8178 -0.9547
   17SAPS   H8Y 2230   0.727   4.845   4.753  1.9757 -0.3194  0.6999
   17SAPS   C39 2231   0.735   5.044   4.815 -0.6722  0.5903  0.2071
   17SAPS   H9X 2232   0.652   5.102   4.770  1.0213  1.6778 -1.7397
   17SAPS   H9Y 2233   0.824   5.110   4.830  0.3800 -0.3909 -1.3683
   17SAPS  C310 2234   0.690   4.993   4.952 -0.6810  0.1345  0.1028
   17SAPS  H10X 2235   0.758   4.915   4.991 -3.0211 -1.1165  2.0156
   17SAPS  H10Y 2236   0.595   4.937   4.936  0.5017 -2.0679  0.5086
   17SAPS  C311 2237   0.665   5.107   5.055 -0.5909  0.5095 -0.3555
   17SAPS  H11X 2238   0.587   5.178   5.020 -0.1517  2.7952  2.8447
   17SAPS  H11Y 2239   0.764   5.158   5.064 -0.7855  0.7607  0.5131
   17SAPS  C312 2240   0.600   5.068   5.190  0.2785 -0.2513 -0.1610
   17SAPS  H12X 2241   0.493   5.045   5.177 -0.0303  0.9003  0.2374
   17SAPS  H12Y 2242   0.577   5.161   5.245 -0.6979 -0.0896 -0.8296
   17SAPS  C313 2243   0.696   4.971   5.266  0.5100  0.3298 -0.0105
   17SAPS  H13X 2244   0.799   5.003   5.242  1.6437 -1.9176  1.4769
   17SAPS  H13Y 2245   0.695   4.876   5.208 -1.6645  0.8847 -1.0085
   17SAPS  C314 2246   0.668   4.960   5.415 -0.3721  0.2212 -0.0405
   17SAPS  H14X 2247   0.723   4.868   5.445 -1.9940 -1.6833 -2.4947
   17SAPS  H14Y 2248   0.566   4.927   5.442 -0.1629 -2.3540 -2.0341
   17SAPS  C315 2249   0.723   5.075   5.503 -0.2006  0.8472 -0.1272
   17SAPS  H15X 2250   0.644   5.152   5.493  0.1941  1.4023  0.8858
   17SAPS  H15Y 2251   0.816   5.115   5.456  0.1534  1.9348  1.4226
   17SAPS  C316 2252   0.751   5.046   5.651  0.0002 -0.5003  0.2010
   17SAPS  H16X 2253   0.659   5.010   5.703 -0.6528 -0.5702 -0.9719
   17SAPS  H16Y 2254   0.763   5.147   5.698 -3.5274  0.9911 -1.6624
   17SAPS  C317 2255   0.866   4.949   5.676  0.0737 -0.6504 -0.3738
   17SAPS  H17X 2256   0.960   4.985   5.629 -0.2581 -0.1838 -0.6932
   17SAPS  H17Y 2257   0.840   4.853   5.626  0.2914  0.4688 -2.8035
   17SAPS  C318 2258   0.885   4.925   5.827  0.4792 -1.4613 -0.4879
   17SAPS  H18X 2259   0.940   4.833   5.854 -0.1150 -1.2686  1.5556
   17SAPS  H18Y 2260   0.782   4.901   5.861 -0.1034  1.0877 -0.2231
   17SAPS  H18Z 2261   0.922   5.012   5.886 -0.5053 -1.1787 -0.2550
   18SAPS     N 2262   3.515   2.373   3.321 -0.6453  0.0442  0.2766
   18SAPS   HN1 2263   3.531   2.284   3.373 -0.5894  0.4209  0.9173
   18SAPS   HN2 2264   3.581   2.443   3.360  0.2460 -0.2948 -0.5634
   18SAPS   HN3 2265   3.419   2.398   3.352  0.5195  0.6481  3.7880
   18SAPS   C12 2266   3.540   2.362   3.175 -0.0022  0.2485  0.6834
   18SAPS  H12A 2267   3.505   2.265   3.142  0.3174  1.0834 -2.5331
   18SAPS   C13 2268   3.476   2.477   3.090 -0.2693 -0.7476 -0.4051
   18SAPS  O13A 2269   3.449   2.588   3.140 -0.6374 -0.1367  0.3936
   18SAPS  O13B 2270   3.476   2.467   2.961 -0.2084 -0.3182 -0.2337
   18SAPS   C11 2271   3.687   2.352   3.141 -0.3981  0.2707 -0.1169
   18SAPS  H11A 2272   3.746   2.436   3.186 -0.0441  0.6852 -1.2979
   18SAPS  H11B 2273   3.707   2.367   3.032  0.6424 -0.3138 -0.0195
   18SAPS     P 2274   3.887   2.198   3.152 -0.3520 -0.3060  0.1338
   18SAPS   O13 2275   3.907   2.056   3.114  0.1663 -0.5393 -0.3266
   18SAPS   O14 2276   3.940   2.292   3.052 -0.1115 -0.3823  0.4874
   18SAPS   O12 2277   3.733   2.224   3.184  0.1738  0.2774 -0.4064
   18SAPS   O11 2278   3.966   2.229   3.293  0.0384  0.1660  0.2780
   18SAPS    C1 2279   3.888   2.253   3.412  0.5733  0.5976  0.5635
   18SAPS    HA 2280   3.883   2.360   3.440  0.4017  0.7671 -0.0886
   18SAPS    HB 2281   3.783   2.218   3.401  1.0472 -0.4129 -1.1221
   18SAPS    C2 2282   3.942   2.170   3.532  0.2280  0.3463 -0.2194
   18SAPS    HS 2283   3.866   2.173   3.613  0.3732  0.2759 -0.0809
   18SAPS   O21 2284   4.068   2.232   3.560 -0.0904  0.0687 -0.0841
   18SAPS   C21 2285   4.104   2.227   3.692 -0.1902  0.0444 -0.0588
   18SAPS   O22 2286   4.048   2.157   3.777 -0.0250 -0.7613 -0.2015
   18SAPS   C22 2287   4.215   2.335   3.716  0.1668  0.2678 -0.5049
   18SAPS   H2R 2288   4.277   2.324   3.624 -0.0314  0.4577 -0.6621
   18SAPS   H2S 2289   4.155   2.426   3.695  0.9691  0.5065 -1.8601
   18SAPS    C3 2290   3.962   2.023   3.491 -0.2857  0.0271  0.1188
   18SAPS    HX 2291   4.041   2.025   3.413  0.2109 -0.1993  0.5976
   18SAPS    HY 2292   3.867   1.993   3.442 -1.7819  3.1937  0.8564
   18SAPS   O31 2293   4.000   1.946   3.604 -0.1884 -0.1899 -0.1600
   18SAPS   C31 2294   3.907   1.919   3.692  0.4432 -0.5691  0.7159
   18SAPS   O32 2295   3.784   1.941   3.678 -0.5847  0.1098 -0.3341
   18SAPS   C32 2296   3.968   1.873   3.821 -0.1146  0.0390  0.0832
   18SAPS   H2X 2297   4.007   1.959   3.879 -1.1506  0.3868  0.2921
   18SAPS   H2Y 2298   4.052   1.814   3.779 -0.3427  1.6023 -2.8672
   18SAPS   C23 2299   4.301   2.315   3.842 -0.1947  0.2634  0.6447
   18SAPS   H3R 2300   4.341   2.211   3.842 -1.0341 -0.1131 -1.2661
   18SAPS   H3S 2301   4.248   2.320   3.940 -1.0082  1.7274  0.1597
   18SAPS   C24 2302   4.429   2.405   3.850 -0.1498 -0.1335  0.8327
   18SAPS   H4R 2303   4.490   2.381   3.760 -0.7105  1.5929 -0.0571
   18SAPS   H4S 2304   4.488   2.376   3.940  2.7849 -2.2507 -1.5645
   18SAPS   C25 2305   4.393   2.553   3.850 -0.3317  0.3106  0.2073
   18SAPS   H5R 2306   4.353   2.587   3.754  1.7534  0.6207 -0.5955
   18SAPS   C26 2307   4.399   2.641   3.950 -0.5372  0.2810  0.4005
   18SAPS   H6R 2308   4.377   2.744   3.920  1.5610  0.7121  0.1684
   18SAPS   C27 2309   4.460   2.612   4.090  0.0467  0.0374  0.3786
   18SAPS   H7R 2310   4.550   2.676   4.096 -1.6240  2.3981  2.2268
   18SAPS   H7S 2311   4.517   2.518   4.104  3.1702  1.7831  0.3134
   18SAPS   C28 2312   4.370   2.663   4.202 -0.2811 -0.3514 -0.1132
   18SAPS   H8R 2313   4.264   2.666   4.173 -0.4218 -0.5977  0.3586
   18SAPS   C29 2314   4.404   2.673   4.332  0.0103  0.2056  0.8620
   18SAPS   H9R 2315   4.329   2.711   4.402 -0.2239  1.2027  0.0859
   18SAPS  C210 2316   4.537   2.636   4.401  0.0546  0.4490  0.4118
   18SAPS  H10R 2317   4.601   2.618   4.312 -2.6541  0.3358 -1.6435
   18SAPS  H10S 2318   4.535   2.540   4.457  2.0008 -1.0969 -1.9485
   18SAPS  C211 2319   4.592   2.749   4.487 -0.7700  0.4368 -0.6645
   18SAPS  H11R 2320   4.626   2.841   4.438 -1.3463  1.5902  1.0099
   18SAPS  C212 2321   4.610   2.737   4.620  0.4084 -0.7763  0.2278
   18SAPS  H12R 2322   4.650   2.825   4.672 -2.1818  1.6119 -1.5188
   18SAPS  C213 2323   4.573   2.615   4.707  0.0343 -0.2579  0.1013
   18SAPS  H13R 2324   4.657   2.592   4.776  0.8818  0.7078 -0.5585
   18SAPS  H13S 2325   4.568   2.522   4.647 -1.1964 -0.3694  0.3499
   18SAPS  C214 2326   4.449   2.625   4.788 -0.3465  0.0186 -0.9560
   18SAPS  H14R 2327   4.359   2.586   4.737  0.0158 -1.9553 -0.1844
   18SAPS  C215 2328   4.437   2.682   4.909 -0.2196  0.7411  0.3083
   18SAPS  H15R 2329   4.336   2.684   4.953  0.1492  1.1872  1.1732
   18SAPS  C216 2330   4.545   2.762   4.984 -0.3741  0.5317  0.3238
   18SAPS  H16R 2331   4.644   2.768   4.933 -0.5359  0.4066 -0.0049
   18SAPS  H16S 2332   4.572   2.714   5.080 -0.2115  1.3205  0.6843
   18SAPS  C217 2333   4.504   2.903   5.018  0.0242 -0.2936 -0.7632
   18SAPS  H17R 2334   4.424   2.893   5.094  0.0182 -0.4256 -0.7866
   18SAPS  H17S 2335   4.453   2.962   4.939 -2.0770 -1.2572 -0.1995
   18SAPS  C218 2336   4.617   2.975   5.083 -0.0911 -0.6316 -0.1588
   18SAPS  H18R 2337   4.699   3.002   5.014  0.6717 -0.1160  0.9111
   18SAPS  H18S 2338   4.656   2.907   5.162 -1.9720  1.5755  2.9531
   18SAPS  C219 2339   4.581   3.110   5.159 -0.4526  0.7463 -0.2686
   18SAPS  H19R 2340   4.481   3.093   5.205 -0.3040 -1.2265 -0.5855
   18SAPS  H19S 2341   4.568   3.182   5.075 -0.7247  0.7126 -0.2565
   18SAPS  C220 2342   4.688   3.159   5.255  0.4756  0.1449 -0.5621
   18SAPS  H20R 2343   4.697   3.082   5.335 -0.6141 -0.0871 -0.6486
   18SAPS  H20S 2344   4.655   3.256   5.298  0.1109  0.2163 -1.0028
   18SAPS  H20T 2345   4.789   3.160   5.208  1.2137 -1.2998  0.8731
   18SAPS   C33 2346   3.872   1.808   3.925  0.3736 -0.4159  1.2140
   18SAPS   H3X 2347   3.822   1.726   3.868 -0.1569  2.0028 -2.0620
   18SAPS   H3Y 2348   3.794   1.875   3.968 -0.3102 -0.1216 -0.4176
   18SAPS   C34 2349   3.942   1.740   4.042  0.5921 -0.0127 -0.6643
   18SAPS   H4X 2350   4.020   1.813   4.073  0.9821 -0.4265 -0.6701
   18SAPS   H4Y 2351   4.003   1.654   4.008  1.6294  0.8284 -0.9837
   18SAPS   C35 2352   3.860   1.697   4.164 -0.5208 -0.0037  0.3795
   18SAPS   H5X 2353   3.812   1.597   4.159 -4.3826  1.6304  0.9281
   18SAPS   H5Y 2354   3.774   1.768   4.163 -0.0297  0.6165 -1.2644
   18SAPS   C36 2355   3.924   1.710   4.301 -0.1976  0.2751 -0.0344
   18SAPS   H6X 2356   3.974   1.808   4.312 -1.2823  1.0898 -1.8815
   18SAPS   H6Y 2357   4.007   1.636   4.310  1.9492  2.5160 -0.2878
   18SAPS   C37 2358   3.810   1.710   4.404  0.0487  0.2463 -0.0085
   18SAPS   H7X 2359   3.735   1.629   4.398 -0.6822  0.9394 -0.3463
   18SAPS   H7Y 2360   3.751   1.803   4.393 -0.8133 -0.1696  0.9239
   18SAPS   C38 2361   3.865   1.703   4.554  0.6330 -0.6933  0.5193
   18SAPS   H8X 2362   3.784   1.740   4.621  0.7613  0.7886 -0.0935
   18SAPS   H8Y 2363   3.948   1.777   4.561 -1.7692  2.1344  1.3705
   18SAPS   C39 2364   3.904   1.563   4.594  0.6182  0.3784  0.0813
   18SAPS   H9X 2365   3.977   1.513   4.527 -0.3271  0.3783 -0.9840
   18SAPS   H9Y 2366   3.806   1.510   4.589  0.4952  0.4846  1.1303
   18SAPS  C310 2367   3.948   1.541   4.736 -0.6540  0.5628  0.7811
   18SAPS  H10X 2368   4.055   1.573   4.734 -0.8179  1.2256  1.7273
   18SAPS  H10Y 2369   3.954   1.432   4.756  0.7491  0.7999  1.8550
   18SAPS  C311 2370   3.866   1.603   4.856  0.2517 -0.3729 -0.2671
   18SAPS  H11X 2371   3.764   1.564   4.874 -0.2036  1.0595  0.4140
   18SAPS  H11Y 2372   3.855   1.711   4.832  1.4635  0.3185  2.0494
   18SAPS  C312 2373   3.947   1.595   4.993 -0.0624  0.8383 -0.2247
   18SAPS  H12X 2374   4.041   1.655   4.996  1.4231 -1.2823 -1.0142
   18SAPS  H12Y 2375   3.983   1.490   5.001 -0.0782  0.9333  1.3841
   18SAPS  C313 2376   3.852   1.632   5.105 -0.7309 -0.1500 -0.1584
   18SAPS  H13X 2377   3.792   1.540   5.124 -1.0550  0.1807  0.4440
   18SAPS  H13Y 2378   3.791   1.723   5.088 -0.5670 -0.1204 -0.5915
   18SAPS  C314 2379   3.933   1.659   5.237  0.0244 -0.8732 -0.9815
   18SAPS  H14X 2380   3.865   1.662   5.324 -0.4547 -0.9198 -1.3543
   18SAPS  H14Y 2381   3.972   1.763   5.233 -0.0513 -0.7626  0.6196
   18SAPS  C315 2382   4.046   1.558   5.268 -0.6585  1.1264  0.3945
   18SAPS  H15X 2383   4.129   1.551   5.195 -0.0117  0.0161  1.2001
   18SAPS  H15Y 2384   4.004   1.456   5.280  1.0819  0.2892 -0.2781
   18SAPS  C316 2385   4.103   1.610   5.397 -0.2798  0.6597 -0.5174
   18SAPS  H16X 2386   4.033   1.598   5.483  1.7425 -0.1700  1.0993
   18SAPS  H16Y 2387   4.138   1.715   5.397  1.4936  0.1800  2.3630
   18SAPS  C317 2388   4.225   1.522   5.455  0.1581 -0.1218 -0.0895
   18SAPS  H17X 2389   4.324   1.552   5.414  0.8131  0.7951  2.0352
   18SAPS  H17Y 2390   4.199   1.417   5.427 -0.6352 -0.0749  0.4508
   18SAPS  C318 2391   4.237   1.532   5.610 -0.4906 -1.3424 -0.8331
   18SAPS  H18X 2392   4.254   1.635   5.645 -0.9791 -0.7098 -2.3614
   18SAPS  H18Y 2393   4.326   1.472   5.639  0.0400 -0.8971 -1.5277
   18SAPS  H18Z 2394   4.147   1.494   5.663 -1.4767  1.5253 -0.2749
   19SAPS     N 2395   3.879   0.201   3.205  0.6153  0.1084 -0.2996
   19SAPS   HN1 2396   3.892   0.113   3.258  1.8650  0.5813  0.2219
   19SAPS   HN2 2397   3.897   0.177   3.105  1.9984 -0.5254  0.0765
   19SAPS   HN3 2398   3.940   0.278   3.240  0.1216  0.8666 -1.0421
   19SAPS   C12 2399   3.733   0.245   3.202  0.2886 -0.6366  0.5977
   19SAPS  H12A 2400   3.710   0.290   3.298  0.2398 -1.1263  0.8170
   19SAPS   C13 2401   3.704   0.353   3.089  0.0427 -0.3150 -0.9730
   19SAPS  O13A 2402   3.794   0.404   3.017  0.3902  0.4753  0.5090
   19SAPS  O13B 2403   3.600   0.424   3.110 -0.7291  0.0926 -0.4851
   19SAPS   C11 2404   3.653   0.116   3.172  0.5399  0.3087 -0.3101
   19SAPS  H11A 2405   3.698   0.072   3.080 -1.0514 -0.1115 -0.9248
   19SAPS  H11B 2406   3.546   0.145   3.160 -0.8244 -3.6388  0.5109
   19SAPS     P 2407   3.599  -0.116   3.244  0.3734  0.4786  0.2870
   19SAPS   O13 2408   3.472  -0.104   3.171  0.0610 -0.4266  0.3394
   19SAPS   O14 2409   3.706  -0.198   3.178 -0.4016  0.1673  0.5002
   19SAPS   O12 2410   3.655   0.024   3.275  0.0356  0.3946  0.2794
   19SAPS   O11 2411   3.566  -0.169   3.386 -0.1542 -0.1920 -0.1759
   19SAPS    C1 2412   3.478  -0.101   3.472 -0.1658  0.2693 -0.5970
   19SAPS    HA 2413   3.455   0.000   3.433  0.7293  0.4959 -0.5508
   19SAPS    HB 2414   3.382  -0.156   3.480 -0.0998  0.2956  0.6750
   19SAPS    C2 2415   3.529  -0.099   3.623 -0.4763 -0.4572 -0.0053
   19SAPS    HS 2416   3.630  -0.053   3.625 -1.2183  1.2113  0.8680
   19SAPS   O21 2417   3.528  -0.228   3.684 -0.3280 -0.5088  0.0248
   19SAPS   C21 2418   3.628  -0.270   3.752  0.2088 -0.4405 -0.0660
   19SAPS   O22 2419   3.729  -0.212   3.777 -0.1051 -0.1591  0.5541
   19SAPS   C22 2420   3.602  -0.408   3.803  0.0920  0.0815 -0.3340
   19SAPS   H2R 2421   3.543  -0.463   3.726 -1.7709 -0.3508  1.2986
   19SAPS   H2S 2422   3.700  -0.458   3.820  0.5896  1.6649  1.7268
   19SAPS    C3 2423   3.451   0.008   3.711  0.0070  0.1903 -0.4685
   19SAPS    HX 2424   3.357  -0.044   3.739  1.6918 -1.1249  3.2677
   19SAPS    HY 2425   3.437   0.104   3.656  0.5280  1.3552  1.3361
   19SAPS   O31 2426   3.523   0.033   3.829  0.0124  0.0731  0.1941
   19SAPS   C31 2427   3.455   0.042   3.951 -0.4244  0.7021 -0.0227
   19SAPS   O32 2428   3.339   0.009   3.969  0.3433 -0.3296 -0.4145
   19SAPS   C32 2429   3.548   0.104   4.051 -1.1179 -0.4192 -0.4466
   19SAPS   H2X 2430   3.530   0.214   4.051  0.5315 -0.1228  0.0109
   19SAPS   H2Y 2431   3.655   0.093   4.022 -0.3818 -1.8964  2.4546
   19SAPS   C23 2432   3.503  -0.405   3.927 -0.6201  0.1489 -0.5148
   19SAPS   H3R 2433   3.464  -0.508   3.938 -0.1885 -0.2421 -2.2665
   19SAPS   H3S 2434   3.427  -0.330   3.899 -1.6567 -0.5217  0.4387
   19SAPS   C24 2435   3.567  -0.346   4.062  0.1767 -0.2673  0.1829
   19SAPS   H4R 2436   3.641  -0.268   4.036  1.1528 -2.2726 -3.8375
   19SAPS   H4S 2437   3.626  -0.426   4.111 -1.1099 -0.8249  0.8676
   19SAPS   C25 2438   3.458  -0.301   4.153  0.1388 -0.1505 -0.1903
   19SAPS   H5R 2439   3.362  -0.284   4.101  0.1165 -0.6691 -0.3228
   19SAPS   C26 2440   3.469  -0.279   4.288 -0.5186 -0.4551 -0.8127
   19SAPS   H6R 2441   3.376  -0.249   4.338 -0.6307  0.5619 -1.5933
   19SAPS   C27 2442   3.606  -0.297   4.362  0.1600  0.7225 -0.2557
   19SAPS   H7R 2443   3.637  -0.205   4.418  0.8713  1.6053 -2.0174
   19SAPS   H7S 2444   3.685  -0.319   4.287 -0.6018  0.0021 -0.8540
   19SAPS   C28 2445   3.590  -0.418   4.453  0.4586  0.0936 -0.2371
   19SAPS   H8R 2446   3.547  -0.507   4.403  1.8065 -1.5445  1.3701
   19SAPS   C29 2447   3.614  -0.416   4.584 -0.0093 -0.0191  0.9903
   19SAPS   H9R 2448   3.591  -0.506   4.643  1.2110 -0.9737  0.0654
   19SAPS  C210 2449   3.643  -0.299   4.671  0.4591 -0.0343 -1.0590
   19SAPS  H10R 2450   3.625  -0.199   4.626  1.2635  0.7138  0.2527
   19SAPS  H10S 2451   3.750  -0.290   4.699  0.0557  0.2090  0.4767
   19SAPS  C211 2452   3.556  -0.296   4.799 -0.7546 -0.1689  1.0358
   19SAPS  H11R 2453   3.454  -0.259   4.784 -1.0839 -0.8604  1.5150
   19SAPS  C212 2454   3.592  -0.330   4.925 -0.8925  0.0847  1.6437
   19SAPS  H12R 2455   3.512  -0.315   4.999 -3.5330 -1.6995 -0.6971
   19SAPS  C213 2456   3.724  -0.371   4.977 -0.0336  0.2907 -0.0778
   19SAPS  H13R 2457   3.796  -0.404   4.899  1.1603  1.3598  0.5213
   19SAPS  H13S 2458   3.704  -0.466   5.031  0.7961  1.0338  1.6488
   19SAPS  C214 2459   3.783  -0.265   5.070  0.2640  0.1017  0.7940
   19SAPS  H14R 2460   3.814  -0.174   5.015  0.7281 -1.0653 -0.9716
   19SAPS  C215 2461   3.774  -0.263   5.204  0.5726 -0.4769  0.0630
   19SAPS  H15R 2462   3.818  -0.175   5.254 -0.7765  0.2663 -0.0053
   19SAPS  C216 2463   3.710  -0.353   5.299  0.3097  0.2768 -0.0298
   19SAPS  H16R 2464   3.795  -0.389   5.361  0.2735 -2.5592 -1.4691
   19SAPS  H16S 2465   3.664  -0.446   5.257  2.4951  0.4911 -3.2266
   19SAPS  C217 2466   3.604  -0.282   5.388 -0.5597 -0.1362 -1.0859
   19SAPS  H17R 2467   3.570  -0.341   5.476  0.9641 -0.8972 -0.9738
   19SAPS  H17S 2468   3.519  -0.258   5.320 -0.5430  0.7952 -0.7833
   19SAPS  C218 2469   3.650  -0.141   5.443 -0.6398 -0.0118  0.2251
   19SAPS  H18R 2470   3.631  -0.080   5.352 -2.2765 -0.0372  0.5254
   19SAPS  H18S 2471   3.759  -0.137   5.462  0.0749  2.5794 -3.3311
   19SAPS  C219 2472   3.563  -0.087   5.545  0.4554 -0.1908  0.2231
   19SAPS  H19R 2473   3.457  -0.116   5.524 -0.4653 -0.1459  3.9562
   19SAPS  H19S 2474   3.573   0.023   5.547  1.2830 -0.2675  0.3754
   19SAPS  C220 2475   3.597  -0.132   5.685  0.3188  0.6539  0.0794
   19SAPS  H20R 2476   3.559  -0.236   5.689  0.1460  0.6036 -1.9551
   19SAPS  H20S 2477   3.559  -0.073   5.771  0.4199 -0.1497  0.6850
   19SAPS  H20T 2478   3.707  -0.145   5.693  0.1727 -0.5431  0.3108
   19SAPS   C33 2479   3.535   0.055   4.195  0.2302 -0.2166  0.1679
   19SAPS   H3X 2480   3.587  -0.043   4.192 -1.7885 -1.3057 -1.1366
   19SAPS   H3Y 2481   3.427   0.038   4.215 -0.0830  1.2696 -0.1096
   19SAPS   C34 2482   3.598   0.152   4.300 -0.3391 -0.2678 -0.0578
   19SAPS   H4X 2483   3.548   0.251   4.291 -1.9961 -0.9964  0.6115
   19SAPS   H4Y 2484   3.702   0.169   4.264 -0.6153  1.6138 -0.0813
   19SAPS   C35 2485   3.596   0.105   4.453  0.0398 -0.3087 -0.1054
   19SAPS   H5X 2486   3.663   0.017   4.448 -1.6016 -2.0287  3.9113
   19SAPS   H5Y 2487   3.493   0.067   4.471 -0.0304 -1.4258 -2.5326
   19SAPS   C36 2488   3.643   0.208   4.555  0.4875  0.2123 -0.0897
   19SAPS   H6X 2489   3.562   0.284   4.546  1.1588  1.1145  1.1859
   19SAPS   H6Y 2490   3.742   0.243   4.518  0.9697 -0.5889  0.4015
   19SAPS   C37 2491   3.661   0.144   4.696  0.5046  0.2865  0.0540
   19SAPS   H7X 2492   3.729   0.058   4.677  0.8605 -0.2370  3.1924
   19SAPS   H7Y 2493   3.568   0.101   4.739  0.9672  1.0713  1.9684
   19SAPS   C38 2494   3.718   0.227   4.811 -0.0551 -0.0320  0.2945
   19SAPS   H8X 2495   3.712   0.159   4.899 -1.7560 -0.2597  0.0347
   19SAPS   H8Y 2496   3.667   0.325   4.825  1.3112  0.4485  2.5852
   19SAPS   C39 2497   3.858   0.271   4.790 -0.1642 -0.2340 -0.3462
   19SAPS   H9X 2498   3.864   0.337   4.701  0.2593 -1.7831 -1.5167
   19SAPS   H9Y 2499   3.916   0.182   4.757 -0.4642 -0.7283  0.4238
   19SAPS  C310 2500   3.928   0.332   4.913 -0.1310  0.2619 -0.0096
   19SAPS  H10X 2501   4.034   0.353   4.890 -0.3980  1.7790  0.0208
   19SAPS  H10Y 2502   3.922   0.258   4.996  1.8110  2.6795  2.4693
   19SAPS  C311 2503   3.860   0.460   4.963  0.3082 -0.0904 -0.1847
   19SAPS  H11X 2504   3.754   0.442   4.990  0.7421 -0.5256  1.3480
   19SAPS  H11Y 2505   3.849   0.537   4.883 -1.3645 -0.7130 -0.5907
   19SAPS  C312 2506   3.926   0.519   5.093 -0.8399 -0.5123  0.3109
   19SAPS  H12X 2507   4.029   0.549   5.066 -2.2095  2.2764 -2.3908
   19SAPS  H12Y 2508   3.916   0.430   5.159 -2.3161 -1.8729 -1.6243
   19SAPS  C313 2509   3.842   0.633   5.143  0.0848 -0.8195  0.5343
   19SAPS  H13X 2510   3.802   0.698   5.062  2.2022  0.4207  0.3866
   19SAPS  H13Y 2511   3.905   0.694   5.212  1.4171 -1.3441 -0.1877
   19SAPS  C314 2512   3.722   0.585   5.220 -0.0726 -0.0382  0.7902
   19SAPS  H14X 2513   3.757   0.523   5.304 -1.1821 -1.6789  0.0933
   19SAPS  H14Y 2514   3.662   0.528   5.145  1.2386 -0.2854 -0.1074
   19SAPS  C315 2515   3.631   0.699   5.273 -0.5115 -0.3008 -0.6761
   19SAPS  H15X 2516   3.613   0.790   5.210 -1.3334  0.8902  1.1778
   19SAPS  H15Y 2517   3.694   0.733   5.358  0.3548 -1.5565 -0.7965
   19SAPS  C316 2518   3.504   0.649   5.326  0.1540  0.0868 -0.5204
   19SAPS  H16X 2519   3.527   0.567   5.398  1.4103  1.4330  0.6550
   19SAPS  H16Y 2520   3.450   0.609   5.237 -0.7299  2.3842 -1.0796
   19SAPS  C317 2521   3.434   0.758   5.406  0.0374  0.5469  0.2769
   19SAPS  H17X 2522   3.394   0.831   5.334 -1.4751 -0.7684 -0.2647
   19SAPS  H17Y 2523   3.501   0.802   5.483 -1.4282  0.1184  1.8661
   19SAPS  C318 2524   3.313   0.706   5.482 -0.6118  0.0670 -0.1035
   19SAPS  H18X 2525   3.276   0.794   5.538 -0.3730  1.1126 -1.5398
   19SAPS  H18Y 2526   3.341   0.622   5.550 -0.9327 -2.5160 -2.9414
   19SAPS  H18Z 2527   3.230   0.678   5.415 -0.5406 -1.1184  0.2776
   20SAPS     N 2528   4.469   6.642   3.354  0.2659 -0.0252  0.2006
   20SAPS   HN1 2529   4.513   6.728   3.317 -0.4691 -0.9101 -3.0402
   20SAPS   HN2 2530   4.377   6.671   3.390  0.4590 -1.2716  1.7955
   20SAPS   HN3 2531   4.514   6.608   3.442 -2.3515  0.0888  1.6868
   20SAPS   C12 2532   4.461   6.531   3.249 -0.1363 -0.3033 -0.6081
   20SAPS  H12A 2533   4.441   6.437   3.297 -2.3830  0.6830  0.5737
   20SAPS   C13 2534   4.344   6.560   3.141 -0.2661  0.4536  0.0487
   20SAPS  O13A 2535   4.280   6.664   3.145  0.4466 -0.3658 -0.5445
   20SAPS  O13B 2536   4.326   6.477   3.055  0.4275  0.1364 -0.7298
   20SAPS   C11 2537   4.589   6.540   3.168  0.2216 -0.8989 -0.5325
   20SAPS  H11A 2538   4.597   6.636   3.111  2.7346 -0.8364 -0.1985
   20SAPS  H11B 2539   4.586   6.462   3.089  1.7401 -0.2147 -1.3121
   20SAPS     P 2540   4.849   6.521   3.198  0.2665 -0.1436  0.0561
   20SAPS   O13 2541   4.890   6.383   3.232  0.2952 -0.3158  0.3462
   20SAPS   O14 2542   4.864   6.561   3.055 -0.0111 -0.0802  0.4334
   20SAPS   O12 2543   4.706   6.545   3.246  0.3729  0.0873  0.2609
   20SAPS   O11 2544   4.940   6.613   3.281  0.3244  0.2892 -0.0771
   20SAPS    C1 2545   4.895   6.740   3.329  0.0430 -0.5696  0.3194
   20SAPS    HA 2546   4.985   6.804   3.327  1.9605 -3.0088  1.9756
   20SAPS    HB 2547   4.804   6.783   3.282  0.5938  1.6950  1.2180
   20SAPS    C2 2548   4.883   6.736   3.477  0.2498  0.0409 -0.3009
   20SAPS    HS 2549   4.794   6.674   3.499 -1.2911  1.3285 -2.5090
   20SAPS   O21 2550   4.864   6.873   3.527  0.4953 -0.2299  0.3672
   20SAPS   C21 2551   4.732   6.896   3.535  1.0755 -0.3897  0.0945
   20SAPS   O22 2552   4.644   6.831   3.489 -0.2111 -0.3840 -0.2322
   20SAPS   C22 2553   4.710   7.034   3.610  0.1318  0.8046  0.8143
   20SAPS   H2R 2554   4.808   7.054   3.660  1.4613  1.8290 -1.9515
   20SAPS   H2S 2555   4.697   7.108   3.527 -0.5063  0.7748  0.8835
   20SAPS    C3 2556   5.003   6.673   3.548  0.1240 -0.5590 -0.5086
   20SAPS    HX 2557   5.087   6.739   3.519 -1.6283  1.8606 -0.3371
   20SAPS    HY 2558   5.013   6.574   3.499  0.1580 -0.3404 -0.9508
   20SAPS   O31 2559   4.983   6.671   3.689  0.2654  0.3787 -0.0769
   20SAPS   C31 2560   4.915   6.564   3.733 -0.1678 -0.5544  0.0587
   20SAPS   O32 2561   4.854   6.486   3.660  0.1833  0.4901  0.1376
   20SAPS   C32 2562   4.925   6.552   3.881  0.8015  0.1481 -0.6367
   20SAPS   H2X 2563   4.926   6.656   3.919  0.1820  0.2511 -0.8902
   20SAPS   H2Y 2564   5.023   6.509   3.911 -0.4408 -0.9906  2.2294
   20SAPS   C23 2565   4.581   7.034   3.695 -0.1992 -0.7546  0.6029
   20SAPS   H3R 2566   4.490   7.040   3.631  0.6385 -0.0931 -0.5632
   20SAPS   H3S 2567   4.580   7.130   3.751  0.7759 -1.4113  1.8055
   20SAPS   C24 2568   4.580   6.918   3.794 -0.6543  0.2110 -1.3187
   20SAPS   H4R 2569   4.642   6.946   3.882  0.7275 -1.0461 -1.8467
   20SAPS   H4S 2570   4.627   6.825   3.753  1.0686  0.5033 -0.1143
   20SAPS   C25 2571   4.447   6.894   3.853 -0.2918 -0.2385  0.1404
   20SAPS   H5R 2572   4.374   6.895   3.770 -1.9056 -2.7302  1.4199
   20SAPS   C26 2573   4.394   6.879   3.979 -0.9950  0.1854 -0.4950
   20SAPS   H6R 2574   4.285   6.873   3.981 -1.1945  2.7910  1.6397
   20SAPS   C27 2575   4.467   6.868   4.117 -0.2462  0.5125  0.6591
   20SAPS   H7R 2576   4.409   6.907   4.203  1.5912 -0.4687  2.4242
   20SAPS   H7S 2577   4.551   6.940   4.115  1.4332 -1.3464  0.9972
   20SAPS   C28 2578   4.524   6.729   4.136  0.3079 -0.1653 -0.1776
   20SAPS   H8R 2579   4.544   6.664   4.050  3.1268  0.2425  0.0720
   20SAPS   C29 2580   4.553   6.683   4.264 -0.1992 -0.2360  0.4634
   20SAPS   H9R 2581   4.604   6.586   4.270  2.5436  1.0352 -0.5852
   20SAPS  C210 2582   4.546   6.767   4.393 -0.5866 -0.2286  0.1110
   20SAPS  H10R 2583   4.563   6.875   4.371  0.6426  0.5172  3.8930
   20SAPS  H10S 2584   4.625   6.740   4.466 -1.3423 -3.0674  0.0003
   20SAPS  C211 2585   4.414   6.756   4.456  0.4038 -0.5901 -0.2232
   20SAPS  H11R 2586   4.327   6.780   4.394  1.6270 -2.2736 -2.7990
   20SAPS  C212 2587   4.400   6.734   4.591 -0.2100  0.1727  0.1529
   20SAPS  H12R 2588   4.301   6.715   4.636 -1.0156  2.5461 -0.4395
   20SAPS  C213 2589   4.511   6.732   4.703  0.2430 -0.5554  0.4272
   20SAPS  H13R 2590   4.460   6.747   4.801  0.1494 -1.1983  0.4825
   20SAPS  H13S 2591   4.591   6.805   4.679 -0.7950  1.0142  1.4840
   20SAPS  C214 2592   4.570   6.592   4.711 -0.0525 -0.7203 -0.3342
   20SAPS  H14R 2593   4.589   6.548   4.612  1.0682  0.8922 -0.8818
   20SAPS  C215 2594   4.616   6.535   4.829 -1.1183 -0.4012  0.6275
   20SAPS  H15R 2595   4.666   6.437   4.823  1.7542  0.9950 -0.0101
   20SAPS  C216 2596   4.596   6.593   4.969 -0.0277  0.4046  0.2346
   20SAPS  H16R 2597   4.490   6.615   4.997  0.5087  2.3079  0.9235
   20SAPS  H16S 2598   4.654   6.688   4.978  0.2611  0.1396  1.2997
   20SAPS  C217 2599   4.638   6.509   5.087  0.3503 -0.0865 -0.4996
   20SAPS  H17R 2600   4.742   6.475   5.073  0.2877 -0.4912 -0.0180
   20SAPS  H17S 2601   4.581   6.417   5.115  1.3259  0.0979  2.3528
   20SAPS  C218 2602   4.642   6.593   5.224  0.1492 -0.2363  0.5321
   20SAPS  H18R 2603   4.709   6.680   5.211  1.0967 -1.2445 -2.0284
   20SAPS  H18S 2604   4.669   6.531   5.313 -0.3581 -0.5910  0.4421
   20SAPS  C219 2605   4.500   6.635   5.260 -0.4576  0.0491 -0.2308
   20SAPS  H19R 2606   4.444   6.540   5.274 -0.2807 -0.1580 -0.8697
   20SAPS  H19S 2607   4.458   6.703   5.183  0.3510  1.9729  0.9394
   20SAPS  C220 2608   4.491   6.708   5.388  0.0046 -0.4371 -0.6278
   20SAPS  H20R 2609   4.383   6.731   5.401 -0.3033 -0.6033 -2.5096
   20SAPS  H20S 2610   4.555   6.797   5.368  0.4642 -0.6648 -0.1989
   20SAPS  H20T 2611   4.517   6.659   5.484  0.5089  0.3155 -0.3662
   20SAPS   C33 2612   4.816   6.458   3.936 -0.6765  0.0772  0.2486
   20SAPS   H3X 2613   4.801   6.377   3.861  0.3518 -1.5686  1.7398
   20SAPS   H3Y 2614   4.716   6.501   3.957 -1.9468 -2.2177 -0.7423
   20SAPS   C34 2615   4.861   6.379   4.061  0.0677 -0.3715 -0.6365
   20SAPS   H4X 2616   4.948   6.320   4.025  0.3611  0.1446 -0.7711
   20SAPS   H4Y 2617   4.777   6.314   4.096  0.0198  0.0804  0.1156
   20SAPS   C35 2618   4.894   6.473   4.183  0.0855  0.1547  0.2747
   20SAPS   H5X 2619   4.805   6.526   4.223  0.4418 -0.0111  1.3228
   20SAPS   H5Y 2620   4.984   6.537   4.170 -0.8731  1.0351 -3.2417
   20SAPS   C36 2621   4.921   6.376   4.298  0.0540  0.2685 -0.0289
   20SAPS   H6X 2622   5.014   6.322   4.271 -1.0650 -2.5466  1.2935
   20SAPS   H6Y 2623   4.845   6.295   4.307  2.7071 -2.6136 -1.5489
   20SAPS   C37 2624   4.938   6.459   4.426  0.6850  0.3729 -0.1599
   20SAPS   H7X 2625   4.848   6.523   4.437  0.8245  0.3728  1.1457
   20SAPS   H7Y 2626   5.025   6.529   4.426 -0.6269  2.0662  0.0587
   20SAPS   C38 2627   4.941   6.369   4.551  0.2429 -1.1153  0.4617
   20SAPS   H8X 2628   4.992   6.276   4.519 -1.5599 -1.5480 -1.3562
   20SAPS   H8Y 2629   4.845   6.343   4.600 -0.0235  1.0982  1.2443
   20SAPS   C39 2630   5.015   6.447   4.667  0.2490  0.7034  0.3197
   20SAPS   H9X 2631   4.961   6.542   4.686 -0.1323  0.4423  0.5549
   20SAPS   H9Y 2632   5.118   6.470   4.631  0.4068  0.5891  0.6877
   20SAPS  C310 2633   5.021   6.353   4.793 -0.2997 -0.5343  0.0198
   20SAPS  H10X 2634   5.067   6.253   4.776 -2.8589 -1.9518  0.8117
   20SAPS  H10Y 2635   4.917   6.329   4.827 -1.2058  0.4625 -1.8943
   20SAPS  C311 2636   5.072   6.432   4.919 -0.0302  0.1030 -0.4582
   20SAPS  H11X 2637   5.009   6.520   4.943  0.9140  0.8894 -0.8081
   20SAPS  H11Y 2638   5.176   6.447   4.883  0.1473 -0.7907 -0.3609
   20SAPS  C312 2639   5.090   6.354   5.048 -0.1845 -0.3897 -0.2387
   20SAPS  H12X 2640   5.165   6.273   5.043 -0.4137 -0.6747  0.7768
   20SAPS  H12Y 2641   4.990   6.313   5.073 -0.9088  0.8595 -0.9887
   20SAPS  C313 2642   5.129   6.439   5.172  0.6299  0.2773  0.8429
   20SAPS  H13X 2643   5.205   6.511   5.133 -0.2805 -0.0179 -1.6725
   20SAPS  H13Y 2644   5.186   6.374   5.241  2.6692  0.5898 -0.4483
   20SAPS  C314 2645   5.004   6.509   5.223  0.4406  0.1716  1.0381
   20SAPS  H14X 2646   4.917   6.441   5.230 -0.7249  1.4497 -0.4317
   20SAPS  H14Y 2647   4.971   6.585   5.149  0.3836 -2.3872 -1.7290
   20SAPS  C315 2648   5.032   6.581   5.357 -0.3492 -0.5845 -0.7553
   20SAPS  H15X 2649   5.054   6.511   5.440  1.0721 -0.3859 -0.9504
   20SAPS  H15Y 2650   4.941   6.637   5.390 -0.9168 -1.8939 -0.0184
   20SAPS  C316 2651   5.161   6.659   5.348 -0.4960 -0.1559 -0.4574
   20SAPS  H16X 2652   5.151   6.715   5.252  0.0561 -1.6065 -1.3927
   20SAPS  H16Y 2653   5.248   6.591   5.340 -0.9488 -0.6781 -0.9767
   20SAPS  C317 2654   5.183   6.751   5.470 -0.1993  0.7211  0.3403
   20SAPS  H17X 2655   5.284   6.795   5.463  0.5464 -0.9814 -0.3821
   20SAPS  H17Y 2656   5.175   6.686   5.560  1.8243 -2.3860 -1.5410
   20SAPS  C318 2657   5.075   6.856   5.467 -0.7368  0.2957  0.3345
   20SAPS  H18X 2658   4.978   6.811   5.496 -1.7184  0.6068 -2.2055
   20SAPS  H18Y 2659   5.063   6.892   5.363  2.7769 -0.7258 -0.5747
   20SAPS  H18Z 2660   5.098   6.939   5.537  0.8286 -0.5618  0.9077
   21CHL1    C3 2661   2.919   5.715   7.179 -0.6891  0.6754 -0.6532
   21CHL1    H3 2662   3.022   5.715   7.138 -0.2529  0.2790  0.4104
   21CHL1    O3 2663   2.933   5.661   7.310  0.4030 -0.2361  0.8521
   21CHL1   H3' 2664   2.955   5.570   7.286 -0.3561  0.4299 -3.1594
   21CHL1    C4 2665   2.866   5.850   7.177  1.3096 -0.0006 -0.3177
   21CHL1   H4A 2666   2.766   5.858   7.224  1.5257  2.7798 -0.1637
   21CHL1   H4B 2667   2.932   5.910   7.245  1.7084 -0.4229 -0.3261
   21CHL1    C5 2668   2.862   5.910   7.041  0.1280  0.0712  0.4902
   21CHL1    C6 2669   2.925   6.035   7.011  0.3066 -0.2007  0.0724
   21CHL1    H6 2670   2.975   6.096   7.087  2.1216  0.7909 -1.8301
   21CHL1    C7 2671   2.932   6.094   6.869  0.6483  0.1561  0.7319
   21CHL1   H7A 2672   2.910   6.203   6.856 -0.8104 -0.2242 -0.2293
   21CHL1   H7B 2673   3.029   6.074   6.819 -0.5317 -4.0849 -0.2421
   21CHL1    C8 2674   2.833   6.020   6.772 -0.9594  0.3854  0.5755
   21CHL1    H8 2675   2.728   6.055   6.786 -0.7836  1.7187 -1.1150
   21CHL1   C14 2676   2.878   6.057   6.627 -0.2003  0.2410  0.5476
   21CHL1   H14 2677   2.979   6.014   6.606 -1.1537 -0.9701 -1.9747
   21CHL1   C15 2678   2.905   6.204   6.599 -0.9393 -0.2576 -0.3943
   21CHL1  H15A 2679   2.836   6.271   6.654  0.6260  0.9675  0.1640
   21CHL1  H15B 2680   3.009   6.237   6.619 -1.7168  1.4185  1.1933
   21CHL1   C16 2681   2.880   6.208   6.444 -0.1781 -0.6932 -0.0905
   21CHL1  H16A 2682   2.792   6.272   6.420 -0.3744 -1.1371 -0.5615
   21CHL1  H16B 2683   2.964   6.256   6.390 -0.8284 -0.1996 -0.6987
   21CHL1   C17 2684   2.863   6.057   6.397 -0.0269 -0.2192 -0.5508
   21CHL1   H17 2685   2.967   6.017   6.399 -0.4519 -1.2918  0.4771
   21CHL1   C13 2686   2.794   5.989   6.519  0.0258 -0.2277 -0.0885
   21CHL1   C18 2687   2.644   6.031   6.512 -0.1006  0.2950  0.0352
   21CHL1  H18A 2688   2.605   5.967   6.430 -0.2931 -0.0365  0.3830
   21CHL1  H18B 2689   2.586   6.012   6.605 -1.4633 -2.6925 -1.2939
   21CHL1  H18C 2690   2.636   6.139   6.485  1.9232  0.3733 -0.3952
   21CHL1   C12 2691   2.809   5.837   6.537 -0.1893 -0.1881 -0.2489
   21CHL1  H12A 2692   2.754   5.766   6.470  1.6517 -1.4210 -0.5312
   21CHL1  H12B 2693   2.916   5.810   6.531  0.3748  2.1391 -1.9039
   21CHL1   C11 2694   2.759   5.795   6.675 -0.1046  0.4090 -0.2285
   21CHL1  H11A 2695   2.650   5.816   6.680 -0.2107 -0.3451  0.9254
   21CHL1  H11B 2696   2.772   5.685   6.679  0.3929  0.4866  2.8788
   21CHL1    C9 2697   2.834   5.864   6.787  0.7910 -0.4344  0.4199
   21CHL1    H9 2698   2.932   5.815   6.772 -0.6193 -3.1362 -0.5224
   21CHL1   C10 2699   2.799   5.819   6.936  0.6741 -0.1336  0.0198
   21CHL1   C19 2700   2.643   5.835   6.944 -0.5466 -0.5822 -0.4695
   21CHL1  H19A 2701   2.614   5.940   6.924  0.0379 -0.3594 -0.1754
   21CHL1  H19B 2702   2.599   5.761   6.874  0.9034 -0.2807 -1.7626
   21CHL1  H19C 2703   2.613   5.813   7.049 -0.6737 -1.5128 -0.6918
   21CHL1    C1 2704   2.840   5.669   6.959 -0.6086 -0.4826 -0.0913
   21CHL1   H1A 2705   2.790   5.607   6.882 -0.9682  1.6642 -1.6592
   21CHL1   H1B 2706   2.948   5.669   6.934 -1.0864  0.6250 -2.3547
   21CHL1    C2 2707   2.835   5.613   7.097  0.4265 -0.3418 -0.3302
   21CHL1   H2A 2708   2.880   5.513   7.109  1.7704  0.4003  1.1483
   21CHL1   H2B 2709   2.731   5.605   7.136  0.8885  0.3622  1.0853
   21CHL1   C20 2710   2.806   6.039   6.257  0.1154  0.0044 -0.3300
   21CHL1   H20 2711   2.704   6.083   6.254 -0.9499 -2.3062 -3.3456
   21CHL1   C21 2712   2.798   5.879   6.216  0.0506 -1.0012  0.1886
   21CHL1  H21A 2713   2.708   5.839   6.268  0.7945 -1.1928  1.3735
   21CHL1  H21B 2714   2.885   5.822   6.255 -1.2087 -4.4918 -1.6517
   21CHL1  H21C 2715   2.777   5.871   6.107 -0.9411  0.3616  0.2442
   21CHL1   C22 2716   2.878   6.114   6.140  0.6427  0.2305 -0.1914
   21CHL1  H22A 2717   2.905   6.216   6.173  1.4701 -0.0054 -0.1307
   21CHL1  H22B 2718   2.969   6.054   6.117  0.5725 -0.1613  0.5136
   21CHL1   C23 2719   2.791   6.128   6.014 -0.9436  0.3546 -1.0685
   21CHL1  H23A 2720   2.818   6.044   5.947 -0.0154  1.3135 -1.9430
   21CHL1  H23B 2721   2.682   6.116   6.031 -0.7288  0.5117  0.5531
   21CHL1   C24 2722   2.796   6.268   5.942 -0.4204  0.6939  0.6043
   21CHL1  H24A 2723   2.764   6.348   6.012  1.3177  2.0841 -0.1267
   21CHL1  H24B 2724   2.898   6.289   5.904 -0.1875  0.5644  1.1544
   21CHL1   C25 2725   2.691   6.286   5.829  0.0110 -0.5286 -0.0655
   21CHL1   H25 2726   2.598   6.236   5.862  1.7501 -1.5263  3.8480
   21CHL1   C26 2727   2.658   6.439   5.808  0.5865  0.1596 -0.3755
   21CHL1  H26A 2728   2.579   6.454   5.731 -0.0853 -1.1288  0.0333
   21CHL1  H26B 2729   2.617   6.481   5.903  1.0841  1.3563 -0.6715
   21CHL1  H26C 2730   2.746   6.503   5.783  0.9392  0.3414  1.1977
   21CHL1   C27 2731   2.748   6.224   5.706 -0.4230  0.0422  0.7836
   21CHL1  H27A 2732   2.683   6.249   5.620 -0.5962  0.8630  1.1392
   21CHL1  H27B 2733   2.854   6.258   5.696 -0.1529 -0.7159  0.9876
   21CHL1  H27C 2734   2.754   6.115   5.725  1.9597  0.2018  1.2691
   22CHL1    C3 2735   5.161   5.529   7.415  0.3989 -0.0546  0.2524
   22CHL1    H3 2736   5.228   5.617   7.416  0.2342  0.1009  2.5652
   22CHL1    O3 2737   5.150   5.482   7.544  0.3988  0.1397 -0.0298
   22CHL1   H3' 2738   5.089   5.408   7.536 -0.0418  0.6879 -2.7846
   22CHL1    C4 2739   5.023   5.571   7.359  0.2584  0.4317 -0.8800
   22CHL1   H4A 2740   4.951   5.493   7.392  0.5297  1.0437  1.2784
   22CHL1   H4B 2741   4.997   5.655   7.426  1.2198 -1.4037  1.9894
   22CHL1    C5 2742   5.019   5.613   7.215 -0.0845  0.0070 -0.1205
   22CHL1    C6 2743   4.967   5.732   7.175  0.2977  0.3557 -0.3641
   22CHL1    H6 2744   4.920   5.805   7.243 -0.6236  0.6983 -1.3483
   22CHL1    C7 2745   4.955   5.775   7.027  0.1674 -0.8154  0.3417
   22CHL1   H7A 2746   4.847   5.797   7.015 -0.4864 -2.6135  2.1980
   22CHL1   H7B 2747   5.014   5.865   7.002 -1.7933  0.6733  0.7930
   22CHL1    C8 2748   4.991   5.650   6.931 -0.2170 -0.2074  0.3390
   22CHL1    H8 2749   4.910   5.574   6.934 -0.3763 -0.2430 -2.2541
   22CHL1   C14 2750   5.026   5.701   6.794 -0.2994 -0.7395 -0.6752
   22CHL1   H14 2751   5.102   5.782   6.804 -2.1859  1.4242 -2.5389
   22CHL1   C15 2752   4.907   5.778   6.727  0.0600 -0.3195  0.3054
   22CHL1  H15A 2753   4.814   5.718   6.737 -2.0385  2.6318 -0.1288
   22CHL1  H15B 2754   4.889   5.879   6.769  1.3804  0.2577 -0.4765
   22CHL1   C16 2755   4.950   5.785   6.581  0.2454 -0.0548 -0.4694
   22CHL1  H16A 2756   4.871   5.757   6.508 -2.4551  0.1625  2.1819
   22CHL1  H16B 2757   4.969   5.894   6.567 -0.0991  0.0229 -0.3428
   22CHL1   C17 2758   5.085   5.697   6.572 -0.0488 -0.2207 -0.8138
   22CHL1   H17 2759   5.166   5.771   6.587  0.9943 -1.6813  1.2922
   22CHL1   C13 2760   5.071   5.602   6.692 -0.3015 -0.5321 -0.2730
   22CHL1   C18 2761   4.962   5.497   6.657 -1.2267 -0.2372  0.0298
   22CHL1  H18A 2762   4.998   5.415   6.591 -0.3853 -0.4176  0.6880
   22CHL1  H18B 2763   4.927   5.432   6.740  0.7320 -0.5893  0.6383
   22CHL1  H18C 2764   4.881   5.537   6.593  0.2741 -1.0363 -2.5185
   22CHL1   C12 2765   5.196   5.535   6.738 -0.4581  0.2420 -0.5519
   22CHL1  H12A 2766   5.227   5.451   6.673  1.8635 -0.3001  1.1251
   22CHL1  H12B 2767   5.290   5.593   6.747  0.9638 -1.9434 -0.5960
   22CHL1   C11 2768   5.170   5.475   6.879 -0.9716 -0.6235 -0.0832
   22CHL1  H11A 2769   5.092   5.396   6.871 -1.0625 -0.4776 -0.6366
   22CHL1  H11B 2770   5.263   5.422   6.909 -1.2579  0.2021  2.5481
   22CHL1    C9 2771   5.114   5.573   6.983  0.1254  0.2665  0.9124
   22CHL1    H9 2772   5.196   5.648   6.987 -0.0706  0.7280 -1.7780
   22CHL1   C10 2773   5.092   5.510   7.122 -0.3873 -0.1298  0.2617
   22CHL1   C19 2774   4.994   5.388   7.108 -0.0702 -0.1900  0.5579
   22CHL1  H19A 2775   4.906   5.408   7.044  0.6409 -1.1690 -0.7667
   22CHL1  H19B 2776   5.043   5.296   7.070  1.0416  1.2657 -1.7328
   22CHL1  H19C 2777   4.956   5.366   7.210  0.5191  0.3420  0.9073
   22CHL1    C1 2778   5.224   5.455   7.180  0.3329  0.6310 -0.7695
   22CHL1   H1A 2779   5.263   5.363   7.132 -0.4352 -0.0605 -0.0847
   22CHL1   H1B 2780   5.300   5.536   7.183 -0.7893  1.7031  1.9534
   22CHL1    C2 2781   5.209   5.408   7.327  0.6763  0.1957  0.3444
   22CHL1   H2A 2782   5.315   5.387   7.353  0.6202  0.9826  1.2839
   22CHL1   H2B 2783   5.145   5.319   7.344  2.5741 -1.5362 -1.1248
   22CHL1   C20 2784   5.118   5.636   6.437 -0.8434 -0.1577 -0.0034
   22CHL1   H20 2785   5.046   5.553   6.420  0.2005 -1.0563 -0.1237
   22CHL1   C21 2786   5.271   5.583   6.431 -0.0611  0.0151  0.2812
   22CHL1  H21A 2787   5.346   5.661   6.454 -1.7247  1.5721  0.6423
   22CHL1  H21B 2788   5.297   5.526   6.339  0.3796 -1.5485  1.3448
   22CHL1  H21C 2789   5.286   5.499   6.503 -0.7942 -1.7241 -1.4864
   22CHL1   C22 2790   5.095   5.726   6.321 -0.5696 -0.3911  0.2466
   22CHL1  H22A 2791   4.991   5.765   6.328 -0.9538 -1.2084 -0.6489
   22CHL1  H22B 2792   5.155   5.817   6.343  0.6716 -1.1217 -0.0195
   22CHL1   C23 2793   5.131   5.667   6.183 -0.4188  0.1964 -0.1981
   22CHL1  H23A 2794   5.236   5.631   6.175 -0.5367  0.0342 -1.2242
   22CHL1  H23B 2795   5.064   5.580   6.168  1.5930 -1.5746  0.7430
   22CHL1   C24 2796   5.102   5.776   6.081  0.1263 -0.2784 -0.3865
   22CHL1  H24A 2797   5.018   5.841   6.111  0.9993  0.4912  0.4265
   22CHL1  H24B 2798   5.184   5.849   6.067  0.0212  0.1133  0.9405
   22CHL1   C25 2799   5.058   5.715   5.945 -0.3900 -0.0202  0.3835
   22CHL1   H25 2800   4.969   5.650   5.963 -1.2125  0.2454 -2.3447
   22CHL1   C26 2801   5.024   5.820   5.843  0.6739 -0.1596  0.0765
   22CHL1  H26A 2802   5.103   5.879   5.793 -2.2467  2.7582 -1.4735
   22CHL1  H26B 2803   4.962   5.773   5.764  0.3045 -2.3286  1.5578
   22CHL1  H26C 2804   4.954   5.891   5.893 -0.5215 -0.2352 -1.3991
   22CHL1   C27 2805   5.162   5.612   5.883  0.1293 -0.0749 -0.0307
   22CHL1  H27A 2806   5.191   5.523   5.943  0.0756  0.9632  1.5901
   22CHL1  H27B 2807   5.107   5.571   5.796 -0.8051 -0.6937  0.8155
   22CHL1  H27C 2808   5.255   5.664   5.852 -1.1092  1.6289 -1.0522
   23CHL1    C3 2809   0.742   5.354   7.532  0.3772 -0.1837 -0.1341
   23CHL1    H3 2810   0.835   5.414   7.538  0.6901 -0.7639  1.0953
   23CHL1    O3 2811   0.695   5.336   7.663 -0.2167 -0.3319  0.1990
   23CHL1   H3' 2812   0.612   5.293   7.645  0.4977 -0.7793 -2.3094
   23CHL1    C4 2813   0.644   5.442   7.456  0.3342  0.0872  0.4630
   23CHL1   H4A 2814   0.538   5.408   7.460 -0.2829  1.7926 -0.3728
   23CHL1   H4B 2815   0.642   5.539   7.510 -1.9850  0.2208  0.2404
   23CHL1    C5 2816   0.682   5.453   7.313 -0.1553 -0.0370 -0.0956
   23CHL1    C6 2817   0.699   5.575   7.259  0.2222 -0.1121 -0.1560
   23CHL1    H6 2818   0.680   5.664   7.321  0.9364  0.4979 -0.7926
   23CHL1    C7 2819   0.726   5.597   7.113 -0.6239 -0.4919 -1.0246
   23CHL1   H7A 2820   0.647   5.669   7.081 -2.0054 -0.3844  2.2806
   23CHL1   H7B 2821   0.829   5.636   7.109 -0.8389  0.1063 -0.7306
   23CHL1    C8 2822   0.713   5.469   7.030  0.1035 -0.6171 -0.2277
   23CHL1    H8 2823   0.603   5.455   7.030  0.1292 -1.7420 -3.3754
   23CHL1   C14 2824   0.771   5.489   6.892  0.4256 -0.3693  0.7622
   23CHL1   H14 2825   0.881   5.500   6.891  0.1610  4.0186 -1.4811
   23CHL1   C15 2826   0.737   5.611   6.794  1.2157  0.2702 -0.4077
   23CHL1  H15A 2827   0.627   5.625   6.789  1.0577 -1.0383 -0.7885
   23CHL1  H15B 2828   0.782   5.709   6.821  0.2998  0.1139  1.8897
   23CHL1   C16 2829   0.775   5.557   6.651  0.8065 -0.5327 -0.3946
   23CHL1  H16A 2830   0.687   5.559   6.583  0.8568  4.0647 -0.5760
   23CHL1  H16B 2831   0.853   5.613   6.597 -0.0312  4.6028  2.9958
   23CHL1   C17 2832   0.826   5.411   6.674  0.6012 -0.0917 -0.2948
   23CHL1   H17 2833   0.933   5.420   6.701  0.7923 -0.1280 -1.0164
   23CHL1   C13 2834   0.748   5.367   6.802  0.0630  0.0230  1.3578
   23CHL1   C18 2835   0.598   5.339   6.772  0.4609  0.3225 -0.1033
   23CHL1  H18A 2836   0.543   5.311   6.864  1.5175  0.9425  0.7522
   23CHL1  H18B 2837   0.549   5.423   6.718  0.7578 -0.2102 -1.2140
   23CHL1  H18C 2838   0.600   5.247   6.710 -1.4075  0.8940 -1.0630
   23CHL1   C12 2839   0.822   5.242   6.863  0.4913 -0.5980 -0.0238
   23CHL1  H12A 2840   0.804   5.157   6.793 -1.7689  0.1524 -0.4299
   23CHL1  H12B 2841   0.930   5.266   6.867  0.1991  0.8861 -0.3748
   23CHL1   C11 2842   0.778   5.222   7.008  0.0587  0.3439  0.1206
   23CHL1  H11A 2843   0.681   5.169   6.998  0.6770 -0.4914 -1.8050
   23CHL1  H11B 2844   0.842   5.151   7.065  0.2307  1.5205  1.4533
   23CHL1    C9 2845   0.777   5.351   7.096 -0.6435  0.0822  0.2202
   23CHL1    H9 2846   0.881   5.374   7.129 -1.4097  0.5648  2.4611
   23CHL1   C10 2847   0.712   5.322   7.236  0.0863  0.4290 -0.0265
   23CHL1   C19 2848   0.579   5.245   7.215  0.0998  0.0397 -0.0919
   23CHL1  H19A 2849   0.593   5.146   7.167  0.7611  1.9759 -4.3860
   23CHL1  H19B 2850   0.529   5.239   7.313  1.7188  0.1687  0.7837
   23CHL1  H19C 2851   0.504   5.298   7.152 -0.2812  0.5277  0.7570
   23CHL1    C1 2852   0.810   5.240   7.317 -0.3811  0.0366 -0.0306
   23CHL1   H1A 2853   0.832   5.138   7.278 -1.9845 -1.1974  2.1173
   23CHL1   H1B 2854   0.903   5.301   7.312 -0.3820 -0.0338 -1.5983
   23CHL1    C2 2855   0.769   5.219   7.464  1.0004 -0.0112  0.6675
   23CHL1   H2A 2856   0.844   5.158   7.517  0.7150 -0.1564  0.9082
   23CHL1   H2B 2857   0.670   5.168   7.464  1.0453 -0.0981  0.7350
   23CHL1   C20 2858   0.825   5.327   6.547 -0.5248  0.2326 -0.2688
   23CHL1   H20 2859   0.807   5.227   6.590  2.3402  0.3416  1.4198
   23CHL1   C21 2860   0.967   5.337   6.479 -0.3219 -0.1529  0.0258
   23CHL1  H21A 2861   0.994   5.444   6.469  3.0314 -1.0273 -1.8309
   23CHL1  H21B 2862   0.971   5.296   6.375  1.1524  1.7516 -0.7399
   23CHL1  H21C 2863   1.041   5.280   6.539 -0.7588  0.4368  1.1559
   23CHL1   C22 2864   0.702   5.344   6.443 -0.3486  0.1310  0.0329
   23CHL1  H22A 2865   0.607   5.363   6.498 -1.3529 -0.7525 -1.3209
   23CHL1  H22B 2866   0.708   5.436   6.381  2.6659  1.6465  2.3255
   23CHL1   C23 2867   0.685   5.224   6.352 -0.0183  0.2456  0.1768
   23CHL1  H23A 2868   0.779   5.200   6.299 -0.5458 -1.3701 -0.0854
   23CHL1  H23B 2869   0.677   5.139   6.423  1.2670  0.5523  0.7185
   23CHL1   C24 2870   0.563   5.223   6.252  0.1328  1.3715 -0.5979
   23CHL1  H24A 2871   0.472   5.260   6.304  1.4730  1.6790  1.6703
   23CHL1  H24B 2872   0.587   5.291   6.168 -3.5360  1.7631 -1.4856
   23CHL1   C25 2873   0.522   5.085   6.187  0.1139 -0.0143 -0.1971
   23CHL1   H25 2874   0.442   5.109   6.114 -0.2839 -0.8140 -0.0316
   23CHL1   C26 2875   0.637   5.035   6.107  0.7922  0.1720  0.2115
   23CHL1  H26A 2876   0.728   5.027   6.171  0.8014 -0.2294  0.1515
   23CHL1  H26B 2877   0.620   4.933   6.067  2.4909  0.5188 -1.5444
   23CHL1  H26C 2878   0.672   5.100   6.024 -0.3827  2.4687  1.4066
   23CHL1   C27 2879   0.466   4.977   6.281 -0.3253 -0.4472 -0.3993
   23CHL1  H27A 2880   0.372   5.009   6.332  0.2512 -1.1828  1.1770
   23CHL1  H27B 2881   0.428   4.885   6.232 -0.8239 -1.4777  1.7627
   23CHL1  H27C 2882   0.536   4.964   6.366 -2.7218  1.6997  2.1351
   24CHL1    C3 2883   3.407   6.605   7.395 -0.9818  0.5651 -0.0574
   24CHL1    H3 2884   3.368   6.503   7.371  0.3900  0.3728 -1.7156
   24CHL1    O3 2885   3.397   6.617   7.535 -0.1584  0.3156 -0.7980
   24CHL1   H3' 2886   3.407   6.524   7.555 -0.8417  0.3075 -0.4557
   24CHL1    C4 2887   3.550   6.603   7.360 -0.7105 -0.4843  1.0083
   24CHL1   H4A 2888   3.590   6.697   7.405 -1.1717  0.3158 -0.1771
   24CHL1   H4B 2889   3.610   6.519   7.400  1.5658  1.2118  1.3696
   24CHL1    C5 2890   3.570   6.617   7.207 -0.1827 -0.0831  0.3803
   24CHL1    C6 2891   3.656   6.539   7.143  0.3871  0.6598  0.2780
   24CHL1    H6 2892   3.715   6.462   7.195 -2.3849 -1.9192 -0.1184
   24CHL1    C7 2893   3.694   6.553   6.991  0.3372  0.5324 -0.0778
   24CHL1   H7A 2894   3.805   6.549   6.985  0.3595 -0.2510  0.5854
   24CHL1   H7B 2895   3.655   6.471   6.927  1.7644  0.9015 -1.4821
   24CHL1    C8 2896   3.646   6.683   6.934  0.5878  0.2896  0.2516
   24CHL1    H8 2897   3.721   6.758   6.967  0.5696  0.1311  0.6688
   24CHL1   C14 2898   3.656   6.669   6.784  0.3310 -0.3250  0.4480
   24CHL1   H14 2899   3.580   6.594   6.754 -0.5827  1.1410 -1.0532
   24CHL1   C15 2900   3.792   6.628   6.730 -1.4614  0.6915  0.4521
   24CHL1  H15A 2901   3.882   6.673   6.777 -0.6439 -1.9287  1.5829
   24CHL1  H15B 2902   3.813   6.519   6.730  1.5742  1.1959 -0.3776
   24CHL1   C16 2903   3.785   6.664   6.577  0.2167 -0.7446  0.3799
   24CHL1  H16A 2904   3.870   6.729   6.550 -0.1122 -0.5028 -0.1056
   24CHL1  H16B 2905   3.779   6.582   6.502  0.5643  0.4741 -1.0172
   24CHL1   C17 2906   3.651   6.747   6.567 -0.1945 -0.3409  0.9087
   24CHL1   H17 2907   3.569   6.681   6.533  0.4618 -1.8590  2.1645
   24CHL1   C13 2908   3.607   6.793   6.709  0.5432  0.1134 -0.2887
   24CHL1   C18 2909   3.700   6.914   6.743  0.3556 -0.4440 -0.8724
   24CHL1  H18A 2910   3.663   7.008   6.697  0.6876  0.7919  1.2805
   24CHL1  H18B 2911   3.697   6.946   6.849  2.1140  0.7433 -1.1435
   24CHL1  H18C 2912   3.804   6.880   6.720 -0.0085 -2.0887 -0.2685
   24CHL1   C12 2913   3.460   6.811   6.742  0.2772 -0.3509 -0.0723
   24CHL1  H12A 2914   3.420   6.890   6.676 -1.1419 -1.6579 -0.8480
   24CHL1  H12B 2915   3.396   6.724   6.715 -1.0106 -0.0401  1.7526
   24CHL1   C11 2916   3.436   6.831   6.892  0.7106  0.0900 -0.5403
   24CHL1  H11A 2917   3.480   6.924   6.933 -0.6900  0.2364  0.7069
   24CHL1  H11B 2918   3.330   6.846   6.920  0.7745  0.7909 -0.6590
   24CHL1    C9 2919   3.498   6.713   6.980  0.3637  0.1912 -0.0671
   24CHL1    H9 2920   3.444   6.622   6.946  1.3622 -0.8889  1.1156
   24CHL1   C10 2921   3.491   6.731   7.136  1.0756  0.2535  0.2827
   24CHL1   C19 2922   3.546   6.868   7.171 -0.0126  0.5166 -0.0928
   24CHL1  H19A 2923   3.544   6.880   7.282 -1.1914 -2.5749  0.3349
   24CHL1  H19B 2924   3.653   6.878   7.141 -0.5708  0.1625 -2.3501
   24CHL1  H19C 2925   3.491   6.953   7.126 -1.0946  0.0081  0.2482
   24CHL1    C1 2926   3.341   6.709   7.175  0.3044 -0.6892  0.4501
   24CHL1   H1A 2927   3.280   6.788   7.125 -0.4902 -1.4758  0.1612
   24CHL1   H1B 2928   3.290   6.619   7.134  0.9832 -0.7078 -0.3792
   24CHL1    C2 2929   3.328   6.718   7.328  0.1762  0.3667  0.1699
   24CHL1   H2A 2930   3.221   6.704   7.353 -0.8845  1.5527 -3.2074
   24CHL1   H2B 2931   3.357   6.817   7.370  0.8035 -0.8682  2.8742
   24CHL1   C20 2932   3.668   6.854   6.451  0.2918 -0.3646 -0.3201
   24CHL1   H20 2933   3.744   6.934   6.467  1.2284 -0.3116 -4.0060
   24CHL1   C21 2934   3.535   6.934   6.439 -0.6395 -0.2220  0.0040
   24CHL1  H21A 2935   3.451   6.861   6.438  0.0868 -1.0707 -0.8910
   24CHL1  H21B 2936   3.542   6.997   6.348  1.0447 -0.1771  0.1287
   24CHL1  H21C 2937   3.516   7.007   6.521  2.3297  1.7313 -0.8916
   24CHL1   C22 2938   3.713   6.788   6.320 -0.3347  0.6165 -0.2728
   24CHL1  H22A 2939   3.801   6.725   6.345 -0.4956  0.6544  0.4013
   24CHL1  H22B 2940   3.627   6.724   6.292  0.6306 -2.2975  2.7080
   24CHL1   C23 2941   3.752   6.874   6.198 -0.1742  0.0973  0.1024
   24CHL1  H23A 2942   3.669   6.896   6.128  1.3887  4.8543 -0.6317
   24CHL1  H23B 2943   3.796   6.968   6.239 -0.0725 -0.0078  0.2336
   24CHL1   C24 2944   3.867   6.814   6.119 -0.7476 -0.2323 -0.4299
   24CHL1  H24A 2945   3.919   6.886   6.052  0.7539  0.4620  1.3935
   24CHL1  H24B 2946   3.941   6.772   6.190 -3.0915 -0.0005  2.3370
   24CHL1   C25 2947   3.818   6.701   6.025 -0.0119  0.1487  0.3631
   24CHL1   H25 2948   3.730   6.736   5.968  0.5265  0.8239 -0.0734
   24CHL1   C26 2949   3.931   6.674   5.926  0.4121 -0.0037  0.5965
   24CHL1  H26A 2950   3.907   6.589   5.860  0.4421  0.8667 -0.5735
   24CHL1  H26B 2951   3.942   6.765   5.862  1.9104 -0.3689  0.3029
   24CHL1  H26C 2952   4.031   6.651   5.967  0.5736  0.2744  0.3691
   24CHL1   C27 2953   3.780   6.570   6.096 -0.4484 -0.7292 -1.0103
   24CHL1  H27A 2954   3.868   6.532   6.152 -1.8009 -0.9429  1.0947
   24CHL1  H27B 2955   3.690   6.578   6.162 -0.0711 -0.4116 -0.5224
   24CHL1  H27C 2956   3.752   6.488   6.027  1.2470 -1.3192 -1.0392
   25CHL1    C3 2957   4.901   1.634   7.003 -0.7261 -0.4902 -0.0745
   25CHL1    H3 2958   4.844   1.575   6.929  0.2491 -0.6614 -0.7050
   25CHL1    O3 2959   4.857   1.613   7.136  0.2112  0.5648 -0.2199
   25CHL1   H3' 2960   4.888   1.680   7.198 -1.8561  1.2449  0.1588
   25CHL1    C4 2961   5.054   1.614   7.001 -1.0930 -0.4643  0.2856
   25CHL1   H4A 2962   5.098   1.675   7.082  1.0390  0.1052 -1.2151
   25CHL1   H4B 2963   5.071   1.507   7.024  1.8288  0.1987  1.6129
   25CHL1    C5 2964   5.118   1.651   6.863  0.6932 -0.0067  0.2189
   25CHL1    C6 2965   5.191   1.562   6.796 -0.5530 -0.4778  0.3540
   25CHL1    H6 2966   5.218   1.477   6.860 -0.0687  0.8186  1.9488
   25CHL1    C7 2967   5.253   1.578   6.662  0.1303 -0.6202 -0.5800
   25CHL1   H7A 2968   5.361   1.552   6.668  0.9343  2.5044  0.5229
   25CHL1   H7B 2969   5.193   1.505   6.605 -1.3848 -1.7434  2.2544
   25CHL1    C8 2970   5.239   1.718   6.609  1.0812 -0.5855  0.0067
   25CHL1    H8 2971   5.314   1.786   6.656 -1.0210  0.3450  2.1739
   25CHL1   C14 2972   5.259   1.727   6.460  0.4317  0.2866 -0.6447
   25CHL1   H14 2973   5.173   1.672   6.419  0.4541 -0.2508  0.0197
   25CHL1   C15 2974   5.382   1.665   6.399 -0.6016 -0.2325  0.5992
   25CHL1  H15A 2975   5.477   1.706   6.440 -1.4407  1.4011  0.9903
   25CHL1  H15B 2976   5.396   1.555   6.399  1.7826 -0.0426 -1.7208
   25CHL1   C16 2977   5.387   1.721   6.250 -0.8610 -0.0368 -0.0544
   25CHL1  H16A 2978   5.480   1.779   6.230 -0.3858 -0.6237  0.4265
   25CHL1  H16B 2979   5.391   1.643   6.172  0.1467 -1.1389  1.0516
   25CHL1   C17 2980   5.273   1.832   6.235 -0.2852  0.1230  0.2815
   25CHL1   H17 2981   5.175   1.793   6.202 -0.5197  1.2239 -0.3991
   25CHL1   C13 2982   5.240   1.868   6.388 -0.5858 -0.4924 -0.0402
   25CHL1   C18 2983   5.348   1.965   6.439 -0.6789  0.4736 -0.7299
   25CHL1  H18A 2984   5.339   1.979   6.548 -2.1418  0.1199 -0.7819
   25CHL1  H18B 2985   5.445   1.936   6.394 -0.8273  0.4897 -1.0726
   25CHL1  H18C 2986   5.330   2.069   6.402  1.2459  0.6877 -1.1985
   25CHL1   C12 2987   5.096   1.924   6.417  0.9803  0.2722 -0.3103
   25CHL1  H12A 2988   5.083   2.029   6.383  0.1120  1.0325  2.1515
   25CHL1  H12B 2989   5.021   1.860   6.367  0.4229 -0.2257  1.1141
   25CHL1   C11 2990   5.060   1.918   6.568  0.1554  0.8138 -0.4134
   25CHL1  H11A 2991   5.119   2.003   6.609 -0.5514  0.2911  1.8313
   25CHL1  H11B 2992   4.952   1.934   6.589 -0.5537 -1.4442 -2.0126
   25CHL1    C9 2993   5.102   1.785   6.645  0.2450 -0.5838 -0.1207
   25CHL1    H9 2994   5.026   1.715   6.606  1.2093 -1.6817 -0.0928
   25CHL1   C10 2995   5.072   1.784   6.798 -0.3071 -0.3031 -0.5700
   25CHL1   C19 2996   5.160   1.889   6.869 -0.4201  0.0207 -0.2992
   25CHL1  H19A 2997   5.120   1.902   6.972 -2.6610  0.9792 -1.2314
   25CHL1  H19B 2998   5.264   1.853   6.886 -1.6318 -3.0919  1.6197
   25CHL1  H19C 2999   5.168   1.989   6.823  0.5632  0.6006  1.0727
   25CHL1    C1 3000   4.921   1.817   6.823  0.2354 -0.1269 -0.1718
   25CHL1   H1A 3001   4.898   1.924   6.806  3.0851  0.5228 -0.4345
   25CHL1   H1B 3002   4.858   1.752   6.758 -0.8391  0.5370  0.1725
   25CHL1    C2 3003   4.862   1.781   6.963  0.8140  0.0657  0.1333
   25CHL1   H2A 3004   4.753   1.779   6.946  1.0082  0.5395 -1.2249
   25CHL1   H2B 3005   4.874   1.854   7.046 -0.2517  2.9000 -2.0723
   25CHL1   C20 3006   5.313   1.955   6.141 -0.0700 -0.1375  0.7295
   25CHL1   H20 3007   5.387   2.015   6.198  0.6345 -1.1539  0.9260
   25CHL1   C21 3008   5.185   2.035   6.100 -0.5209  0.0374 -0.7783
   25CHL1  H21A 3009   5.121   1.955   6.059 -0.8205  1.3914 -3.0883
   25CHL1  H21B 3010   5.209   2.119   6.031 -0.2780  0.3321 -0.3415
   25CHL1  H21C 3011   5.147   2.084   6.192  3.2993 -0.2042  1.1339
   25CHL1   C22 3012   5.379   1.905   6.001  0.0986  0.1538 -0.4622
   25CHL1  H22A 3013   5.430   1.807   6.008 -2.1145 -1.0352 -0.2842
   25CHL1  H22B 3014   5.292   1.877   5.938  1.5878  1.5484 -3.3303
   25CHL1   C23 3015   5.454   2.008   5.916 -0.4357 -0.2230 -0.7578
   25CHL1  H23A 3016   5.394   2.102   5.914  0.0535  0.2912  2.8223
   25CHL1  H23B 3017   5.550   2.032   5.966 -0.1085 -0.9932 -1.0058
   25CHL1   C24 3018   5.465   1.955   5.778  0.1608  0.4148  0.0665
   25CHL1  H24A 3019   5.541   1.874   5.784 -1.1865 -0.9594 -0.7908
   25CHL1  H24B 3020   5.380   1.899   5.735  0.6440 -0.3119  0.0441
   25CHL1   C25 3021   5.500   2.067   5.680 -0.4486  0.3722  1.2120
   25CHL1   H25 3022   5.420   2.143   5.669  0.4094  1.0362 -0.8918
   25CHL1   C26 3023   5.634   2.139   5.720 -0.3275 -0.0546  0.6389
   25CHL1  H26A 3024   5.719   2.068   5.730  0.6979  0.9337 -0.6970
   25CHL1  H26B 3025   5.661   2.213   5.642  0.2637 -0.8357  0.0856
   25CHL1  H26C 3026   5.628   2.190   5.818  0.9248 -0.7059  1.0852
   25CHL1   C27 3027   5.512   2.010   5.535 -0.1819  0.1163  0.3242
   25CHL1  H27A 3028   5.596   1.938   5.536 -0.9252 -0.7593  1.2732
   25CHL1  H27B 3029   5.422   1.957   5.497  1.3837 -1.5174 -1.3314
   25CHL1  H27C 3030   5.541   2.084   5.457 -0.8208 -0.5232 -0.5467
   26CHL1    C3 3031   4.402   6.329   7.483 -0.3716 -0.2025  0.6652
   26CHL1    H3 3032   4.513   6.337   7.492 -0.3979 -1.2622  2.4630
   26CHL1    O3 3033   4.365   6.363   7.610  0.6656  0.0602 -0.4131
   26CHL1   H3' 3034   4.283   6.408   7.590  0.0430 -0.0810  1.5912
   26CHL1    C4 3035   4.341   6.422   7.373  0.0935  0.3137 -0.3573
   26CHL1   H4A 3036   4.231   6.415   7.387  0.4542 -0.3944  2.8454
   26CHL1   H4B 3037   4.367   6.526   7.399  0.8162 -0.3838  1.9565
   26CHL1    C5 3038   4.394   6.382   7.238 -0.7087  0.0284  0.0116
   26CHL1    C6 3039   4.474   6.472   7.170  0.3206 -0.3779 -0.3082
   26CHL1    H6 3040   4.492   6.566   7.223  0.4618 -1.0953  0.9500
   26CHL1    C7 3041   4.526   6.446   7.032  0.7546  0.7563  0.0107
   26CHL1   H7A 3042   4.506   6.534   6.967  0.0644  0.7856  0.2547
   26CHL1   H7B 3043   4.634   6.423   7.028  0.8147  0.6619  1.4509
   26CHL1    C8 3044   4.450   6.322   6.966 -0.6853  0.8725 -0.4556
   26CHL1    H8 3045   4.351   6.364   6.939 -1.9020 -1.7722 -0.4687
   26CHL1   C14 3046   4.511   6.280   6.836  0.0524  0.3393  0.2780
   26CHL1   H14 3047   4.618   6.251   6.849 -0.4123 -3.2717 -2.5424
   26CHL1   C15 3048   4.516   6.399   6.740 -0.6904  0.0976  0.0110
   26CHL1  H15A 3049   4.426   6.462   6.728 -0.5516  0.7782  2.1144
   26CHL1  H15B 3050   4.598   6.462   6.780  0.2652 -1.4457  0.5539
   26CHL1   C16 3051   4.549   6.328   6.605  0.0111 -0.8805 -0.6435
   26CHL1  H16A 3052   4.475   6.355   6.526  0.3005 -0.2667 -0.7075
   26CHL1  H16B 3053   4.648   6.354   6.563 -0.7368  1.4843 -1.1429
   26CHL1   C17 3054   4.533   6.177   6.631  0.5090  0.3427 -0.6830
   26CHL1   H17 3055   4.633   6.131   6.648 -1.1046 -3.4135 -0.2719
   26CHL1   C13 3056   4.446   6.167   6.759 -0.5273 -0.1606  0.1406
   26CHL1   C18 3057   4.298   6.203   6.720 -0.6295  0.0739  0.8544
   26CHL1  H18A 3058   4.247   6.267   6.795  0.4682  0.6635  1.1172
   26CHL1  H18B 3059   4.295   6.254   6.622  1.9225 -0.0970  0.6340
   26CHL1  H18C 3060   4.240   6.109   6.701 -1.5326  0.8934 -0.5852
   26CHL1   C12 3061   4.452   6.040   6.848  0.1433  0.3965  0.5535
   26CHL1  H12A 3062   4.394   5.965   6.790 -0.2804  3.3266 -3.2315
   26CHL1  H12B 3063   4.557   6.007   6.863  1.4694  4.4915  1.5995
   26CHL1   C11 3064   4.386   6.079   6.986  0.0868  0.7620 -0.8844
   26CHL1  H11A 3065   4.278   6.097   6.967 -0.5064 -2.0498 -0.5425
   26CHL1  H11B 3066   4.376   5.991   7.053 -1.3269  1.5026 -0.0826
   26CHL1    C9 3067   4.442   6.204   7.058  0.3685 -0.2704 -0.1981
   26CHL1    H9 3068   4.546   6.168   7.075 -0.2352 -2.5620 -0.9300
   26CHL1   C10 3069   4.368   6.237   7.194  0.1813  0.5480  0.3874
   26CHL1   C19 3070   4.216   6.218   7.177 -0.4839  0.4585  0.7655
   26CHL1  H19A 3071   4.163   6.224   7.274  1.4496  0.2134  1.8678
   26CHL1  H19B 3072   4.188   6.302   7.110  1.4474  0.6206  0.1063
   26CHL1  H19C 3073   4.189   6.120   7.131  1.6775  0.0404  0.2975
   26CHL1    C1 3074   4.422   6.143   7.304  0.1467 -0.2895 -0.1730
   26CHL1   H1A 3075   4.387   6.039   7.290 -2.5980  0.3314  1.2734
   26CHL1   H1B 3076   4.533   6.136   7.310  0.1657 -3.4202 -2.1011
   26CHL1    C2 3077   4.366   6.186   7.443 -0.1000  0.4411  0.5629
   26CHL1   H2A 3078   4.418   6.117   7.514  1.0130 -1.9811 -2.3554
   26CHL1   H2B 3079   4.256   6.180   7.448 -0.0890 -1.0941 -0.5597
   26CHL1   C20 3080   4.478   6.099   6.504 -0.0693  0.0834  0.6075
   26CHL1   H20 3081   4.386   6.150   6.468  0.7409  2.0964  1.2371
   26CHL1   C21 3082   4.454   5.951   6.538 -0.1836 -0.3538  0.0085
   26CHL1  H21A 3083   4.364   5.940   6.602  0.4592  1.7761  1.4037
   26CHL1  H21B 3084   4.542   5.904   6.589 -0.0052 -1.7421 -1.5029
   26CHL1  H21C 3085   4.424   5.889   6.451 -0.5993  1.3685 -1.1047
   26CHL1   C22 3086   4.575   6.124   6.383 -0.0978 -0.1826  0.4795
   26CHL1  H22A 3087   4.586   6.233   6.370 -0.9309 -0.0915  0.4728
   26CHL1  H22B 3088   4.676   6.089   6.414 -0.8721 -2.3880  0.7086
   26CHL1   C23 3089   4.542   6.065   6.243 -0.1481 -0.3883  0.0931
   26CHL1  H23A 3090   4.562   5.956   6.244  2.5025 -0.0142 -1.3625
   26CHL1  H23B 3091   4.441   6.093   6.205 -2.0261 -2.1441  3.3172
   26CHL1   C24 3092   4.658   6.120   6.142 -0.0202  0.2782  0.2099
   26CHL1  H24A 3093   4.644   6.230   6.153 -0.5164  0.1323  1.1286
   26CHL1  H24B 3094   4.753   6.080   6.182 -0.5828 -1.0092  0.3236
   26CHL1   C25 3095   4.642   6.075   5.996 -0.1493  0.4883 -0.2801
   26CHL1   H25 3096   4.539   6.096   5.959 -0.3938  1.4115  0.8559
   26CHL1   C26 3097   4.755   6.144   5.915  0.0564 -0.4825 -0.3900
   26CHL1  H26A 3098   4.766   6.110   5.810 -0.2391 -0.7020 -0.3527
   26CHL1  H26B 3099   4.746   6.254   5.915  0.2197 -0.4627 -1.3412
   26CHL1  H26C 3100   4.851   6.127   5.969 -0.6540  0.7026  1.3451
   26CHL1   C27 3101   4.645   5.923   5.990  0.6800 -0.4619  0.2117
   26CHL1  H27A 3102   4.661   5.891   5.885  1.1558  2.1057 -0.5594
   26CHL1  H27B 3103   4.724   5.884   6.058  1.2207 -0.6314 -0.5008
   26CHL1  H27C 3104   4.547   5.881   6.022  0.5798 -1.3716 -1.1909
   27CHL1    C3 3105   3.420   5.663   7.313  0.2636 -0.3729 -0.2283
   27CHL1    H3 3106   3.493   5.582   7.295  2.0590  1.0910  0.0647
   27CHL1    O3 3107   3.401   5.683   7.451  0.5331  0.2325 -0.6602
   27CHL1   H3' 3108   3.306   5.687   7.465  0.6513  1.5685 -0.1341
   27CHL1    C4 3109   3.468   5.792   7.251 -0.2598 -0.1901 -0.9695
   27CHL1   H4A 3110   3.390   5.869   7.267 -1.1199 -0.9500 -1.4158
   27CHL1   H4B 3111   3.557   5.825   7.309 -1.0609  0.2965  0.0028
   27CHL1    C5 3112   3.484   5.774   7.099 -0.4556 -0.5678 -0.0341
   27CHL1    C6 3113   3.602   5.794   7.042 -0.2107  0.1247  0.2414
   27CHL1    H6 3114   3.692   5.824   7.096 -0.5099  0.0891  0.7597
   27CHL1    C7 3115   3.628   5.770   6.893 -0.4603  0.0529  0.4212
   27CHL1   H7A 3116   3.703   5.849   6.869  0.8862 -1.0475  0.9250
   27CHL1   H7B 3117   3.685   5.677   6.876  1.0722  0.5664  2.4179
   27CHL1    C8 3118   3.498   5.780   6.816 -0.1501  0.0667 -0.5393
   27CHL1    H8 3119   3.474   5.888   6.822  2.4248  0.6797 -0.3112
   27CHL1   C14 3120   3.515   5.742   6.670  0.2560 -0.6012  0.0743
   27CHL1   H14 3121   3.550   5.636   6.672 -1.3226 -1.1864 -1.2452
   27CHL1   C15 3122   3.617   5.828   6.600 -0.2650 -0.3525  0.1603
   27CHL1  H15A 3123   3.606   5.937   6.619 -1.1352 -0.3520 -0.2987
   27CHL1  H15B 3124   3.722   5.802   6.622 -1.1984 -3.6410  1.2293
   27CHL1   C16 3125   3.587   5.815   6.452 -0.0021  0.5813 -0.5145
   27CHL1  H16A 3126   3.575   5.917   6.409 -0.8876  0.0033 -1.6763
   27CHL1  H16B 3127   3.659   5.758   6.390 -1.0043 -2.6725  1.1037
   27CHL1   C17 3128   3.451   5.743   6.442 -0.6249  0.4188 -0.3494
   27CHL1   H17 3129   3.453   5.632   6.435 -3.4925  0.1041  1.7046
   27CHL1   C13 3130   3.392   5.759   6.593 -0.1242  0.9006  1.1918
   27CHL1   C18 3131   3.331   5.898   6.609 -0.0883 -0.7834 -0.8793
   27CHL1  H18A 3132   3.234   5.912   6.556 -1.5573 -1.1549  1.5465
   27CHL1  H18B 3133   3.313   5.931   6.714  1.9923  2.7428 -1.4845
   27CHL1  H18C 3134   3.393   5.983   6.575 -1.8836  0.1800 -1.8688
   27CHL1   C12 3135   3.299   5.649   6.638  0.1433 -1.4214  0.0197
   27CHL1  H12A 3136   3.211   5.673   6.575  0.1568 -0.4395  0.3598
   27CHL1  H12B 3137   3.333   5.546   6.612 -2.3956 -2.2716 -0.1720
   27CHL1   C11 3138   3.259   5.679   6.786  0.2948  0.1918  0.0490
   27CHL1  H11A 3139   3.192   5.768   6.787  1.5270  1.1495  1.2656
   27CHL1  H11B 3140   3.212   5.587   6.826  0.6330 -0.6129 -1.3545
   27CHL1    C9 3141   3.387   5.693   6.875  0.2072 -0.1086 -0.8120
   27CHL1    H9 3142   3.436   5.593   6.872  2.0125  0.7423 -1.9579
   27CHL1   C10 3143   3.352   5.731   7.027  0.4088  0.3163  0.5984
   27CHL1   C19 3144   3.266   5.853   7.024  0.5410 -0.1316  0.3579
   27CHL1  H19A 3145   3.243   5.897   7.123  1.6608 -0.6930  0.8841
   27CHL1  H19B 3146   3.309   5.932   6.958 -0.0433  1.0249  1.3085
   27CHL1  H19C 3147   3.165   5.839   6.979  1.9925  0.5481 -3.5324
   27CHL1    C1 3148   3.294   5.605   7.099 -0.2985  0.2961 -0.4473
   27CHL1   H1A 3149   3.193   5.570   7.066  0.0032 -0.4112 -0.6364
   27CHL1   H1B 3150   3.357   5.519   7.068  0.5196  0.1514  1.4866
   27CHL1    C2 3151   3.283   5.622   7.252 -0.1622 -0.1446  0.2388
   27CHL1   H2A 3152   3.246   5.530   7.302 -0.2402 -0.5590 -0.5503
   27CHL1   H2B 3153   3.212   5.705   7.270  1.6591  1.4261  0.4935
   27CHL1   C20 3154   3.361   5.797   6.323 -0.1710 -0.5566 -0.9482
   27CHL1   H20 3155   3.338   5.903   6.348  0.4362 -0.7815  0.6340
   27CHL1   C21 3156   3.224   5.720   6.307 -0.4830 -0.2556  0.7383
   27CHL1  H21A 3157   3.175   5.752   6.213  0.4816 -1.7966 -0.3370
   27CHL1  H21B 3158   3.163   5.756   6.393  0.8370  0.6769  1.3078
   27CHL1  H21C 3159   3.227   5.610   6.319 -2.1577 -0.6607 -1.7889
   27CHL1   C22 3160   3.435   5.788   6.190 -0.3143 -0.8208 -0.3240
   27CHL1  H22A 3161   3.360   5.815   6.112 -1.5159 -0.1307  1.0378
   27CHL1  H22B 3162   3.512   5.869   6.189 -1.2092  0.0479 -1.0085
   27CHL1   C23 3163   3.494   5.652   6.168 -0.3268  0.4405  0.0448
   27CHL1  H23A 3164   3.574   5.626   6.240 -0.1217  0.2350 -0.2577
   27CHL1  H23B 3165   3.414   5.575   6.168  2.3735 -2.5751 -1.0468
   27CHL1   C24 3166   3.563   5.641   6.029 -0.8852 -0.5573 -0.5402
   27CHL1  H24A 3167   3.504   5.682   5.944 -0.1519  1.4636 -0.1328
   27CHL1  H24B 3168   3.650   5.709   6.035 -1.7823  0.6709 -0.9605
   27CHL1   C25 3169   3.625   5.510   5.985  0.3817  0.5729 -0.1339
   27CHL1   H25 3170   3.548   5.432   6.004  0.9518 -0.4038 -1.6573
   27CHL1   C26 3171   3.676   5.515   5.839 -0.2774  0.1199 -1.1160
   27CHL1  H26A 3172   3.597   5.556   5.772 -0.6352  3.0369  0.9091
   27CHL1  H26B 3173   3.762   5.583   5.820  0.8769 -1.6313 -2.4327
   27CHL1  H26C 3174   3.705   5.411   5.811 -1.3053 -0.6332  0.4559
   27CHL1   C27 3175   3.745   5.481   6.063 -1.0372 -0.3308 -0.1478
   27CHL1  H27A 3176   3.807   5.397   6.024 -0.7886  0.6404 -1.9988
   27CHL1  H27B 3177   3.729   5.472   6.172  2.5953  0.9252  0.6386
   27CHL1  H27C 3178   3.804   5.575   6.060  0.2775 -1.1369 -2.4251
   28CHL1    C3 3179   6.171   3.568   7.495 -0.6142 -1.1997 -0.5094
   28CHL1    H3 3180   6.218   3.475   7.458  1.5479 -0.0355 -0.7943
   28CHL1    O3 3181   6.146   3.564   7.637 -0.8225  0.1084 -0.2188
   28CHL1   H3' 3182   6.168   3.654   7.664  3.0645 -0.2148 -1.6190
   28CHL1    C4 3183   6.279   3.680   7.464 -0.4659  0.2525  0.2849
   28CHL1   H4A 3184   6.235   3.773   7.507 -1.1114  0.8680 -1.6160
   28CHL1   H4B 3185   6.374   3.655   7.516 -1.2971 -2.4314  0.6278
   28CHL1    C5 3186   6.294   3.706   7.315  0.3281 -0.8181  0.7347
   28CHL1    C6 3187   6.419   3.727   7.259  0.4600  0.6045  0.0161
   28CHL1    H6 3188   6.505   3.719   7.328 -0.1192 -1.0455  0.5868
   28CHL1    C7 3189   6.436   3.749   7.112 -0.1759  0.0451  0.7781
   28CHL1   H7A 3190   6.516   3.824   7.091 -0.3020  0.4066  1.5562
   28CHL1   H7B 3191   6.467   3.659   7.055 -2.4713  0.6228 -1.5969
   28CHL1    C8 3192   6.303   3.799   7.042  0.0626 -0.4697 -0.1613
   28CHL1    H8 3193   6.288   3.907   7.064  2.5739  0.2102 -1.3356
   28CHL1   C14 3194   6.311   3.786   6.887 -0.2981 -0.4733  0.0578
   28CHL1   H14 3195   6.313   3.676   6.873  1.0480 -0.2218 -2.2123
   28CHL1   C15 3196   6.440   3.839   6.821 -0.5393  0.0545  0.1134
   28CHL1  H15A 3197   6.455   3.945   6.851  1.2209  0.0248 -0.5666
   28CHL1  H15B 3198   6.529   3.786   6.861  1.4920  3.2352  0.2018
   28CHL1   C16 3199   6.414   3.824   6.679  0.0381  0.6701 -0.1492
   28CHL1  H16A 3200   6.456   3.910   6.622  1.8058 -0.6357 -0.9048
   28CHL1  H16B 3201   6.455   3.733   6.630  1.0282  0.3066  1.3000
   28CHL1   C17 3202   6.258   3.811   6.673 -0.4898 -0.1110  0.4752
   28CHL1   H17 3203   6.250   3.703   6.647 -0.5899  0.4470 -2.0993
   28CHL1   C13 3204   6.192   3.828   6.808 -0.1649 -0.6441 -0.6840
   28CHL1   C18 3205   6.165   3.983   6.829  0.6736  0.4533  0.0314
   28CHL1  H18A 3206   6.151   4.005   6.937 -2.1722  0.6384 -0.3015
   28CHL1  H18B 3207   6.247   4.047   6.790 -1.3437  1.8831 -2.1659
   28CHL1  H18C 3208   6.071   4.018   6.779 -0.5750 -0.2899  1.7673
   28CHL1   C12 3209   6.071   3.736   6.848 -0.2879  1.2379  0.2524
   28CHL1  H12A 3210   5.981   3.773   6.796  0.8500  3.4081 -0.3075
   28CHL1  H12B 3211   6.081   3.636   6.802 -1.4579  0.9834  0.5222
   28CHL1   C11 3212   6.054   3.746   7.002 -0.4771  0.1098 -0.4615
   28CHL1  H11A 3213   6.023   3.852   7.009 -0.1272  0.2504 -0.9534
   28CHL1  H11B 3214   5.969   3.678   7.024 -0.4732 -0.7923 -2.9429
   28CHL1    C9 3215   6.185   3.704   7.083  0.8302  0.3262  0.0444
   28CHL1    H9 3216   6.215   3.602   7.051  1.7059  1.2068 -2.1826
   28CHL1   C10 3217   6.160   3.708   7.235 -0.7532 -0.1187  0.4147
   28CHL1   C19 3218   6.085   3.845   7.271 -0.3160 -0.3338  0.0888
   28CHL1  H19A 3219   6.094   3.867   7.380  1.3839 -2.2390  0.4002
   28CHL1  H19B 3220   6.146   3.926   7.225 -0.8221 -0.2331 -0.4103
   28CHL1  H19C 3221   5.980   3.843   7.237 -0.1337 -0.5163 -0.4770
   28CHL1    C1 3222   6.065   3.595   7.278  0.1657  0.3500 -0.7693
   28CHL1   H1A 3223   5.966   3.620   7.235 -1.0810 -0.6197  1.3860
   28CHL1   H1B 3224   6.107   3.499   7.241  0.3325  0.1903 -0.1748
   28CHL1    C2 3225   6.042   3.586   7.428  0.5769 -0.0479 -0.9750
   28CHL1   H2A 3226   5.974   3.501   7.452  3.6679 -2.1097  1.2751
   28CHL1   H2B 3227   6.002   3.681   7.468  3.1192  0.3782  0.8497
   28CHL1   C20 3228   6.191   3.877   6.550 -0.4163  0.0486 -0.7753
   28CHL1   H20 3229   6.178   3.986   6.569  3.3846  0.2152  2.2000
   28CHL1   C21 3230   6.056   3.811   6.531 -0.0028  0.8408 -0.7989
   28CHL1  H21A 3231   6.016   3.850   6.435 -1.7910  1.2022  0.0569
   28CHL1  H21B 3232   5.981   3.835   6.609 -0.1198 -0.1155 -0.6127
   28CHL1  H21C 3233   6.061   3.700   6.535 -1.3382  0.8067  0.6596
   28CHL1   C22 3234   6.269   3.857   6.414 -0.4444  0.7164 -0.6910
   28CHL1  H22A 3235   6.220   3.928   6.344 -0.9992  1.0099 -0.0079
   28CHL1  H22B 3236   6.377   3.884   6.421 -0.8663  2.0331  2.0241
   28CHL1   C23 3237   6.262   3.712   6.360  0.3783 -0.8764 -0.1042
   28CHL1  H23A 3238   6.298   3.634   6.430  1.0514 -0.3009  0.2099
   28CHL1  H23B 3239   6.159   3.682   6.330  0.5899 -0.5703 -1.1904
   28CHL1   C24 3240   6.353   3.693   6.238 -0.2407  0.0883  0.5263
   28CHL1  H24A 3241   6.459   3.709   6.269  0.1394  0.2553 -0.7692
   28CHL1  H24B 3242   6.351   3.586   6.210  2.3971  0.8946 -3.7491
   28CHL1   C25 3243   6.326   3.783   6.119  0.0153 -0.2621  0.0663
   28CHL1   H25 3244   6.333   3.889   6.152  1.3479 -0.4368  0.4041
   28CHL1   C26 3245   6.433   3.770   6.010 -0.1265 -0.2785 -1.4201
   28CHL1  H26A 3246   6.431   3.674   5.955  1.5229 -0.9747 -0.3645
   28CHL1  H26B 3247   6.420   3.854   5.939  3.0468  1.1713 -0.5072
   28CHL1  H26C 3248   6.537   3.782   6.048 -0.8603  2.4712 -0.0162
   28CHL1   C27 3249   6.196   3.752   6.041  0.1340  1.0968 -0.4172
   28CHL1  H27A 3250   6.206   3.817   5.951 -2.2932  0.6445 -1.1088
   28CHL1  H27B 3251   6.196   3.645   6.009  0.4404  1.1292 -0.5295
   28CHL1  H27C 3252   6.097   3.778   6.084 -1.1773 -1.0721 -1.8873
   29CHL1    C3 3253   1.475   3.973   7.364  0.6784 -0.5272  0.1704
   29CHL1    H3 3254   1.560   3.995   7.297 -0.9587  1.8442 -1.2821
   29CHL1    O3 3255   1.495   4.034   7.489  0.5612  0.2739  0.6691
   29CHL1   H3' 3256   1.411   4.028   7.534 -1.1481  1.4330 -2.1070
   29CHL1    C4 3257   1.357   4.040   7.299  0.3784 -0.4191  0.0951
   29CHL1   H4A 3258   1.268   4.052   7.363  0.3313  0.4848 -0.1226
   29CHL1   H4B 3259   1.380   4.146   7.274 -0.2559 -0.1117  0.7823
   29CHL1    C5 3260   1.311   3.967   7.169 -0.2743  0.1871  0.1508
   29CHL1    C6 3261   1.320   4.036   7.053  0.1410 -0.1323 -0.0407
   29CHL1    H6 3262   1.349   4.142   7.049 -1.2280  0.2271 -2.4587
   29CHL1    C7 3263   1.283   3.972   6.922 -0.2357 -0.3498  1.0706
   29CHL1   H7A 3264   1.232   4.043   6.853  1.3824  2.6298  2.7133
   29CHL1   H7B 3265   1.377   3.940   6.872 -0.5306 -2.2492  1.6521
   29CHL1    C8 3266   1.194   3.842   6.943 -0.4690  0.5327  0.0441
   29CHL1    H8 3267   1.095   3.873   6.983  0.2677  0.4170  2.0398
   29CHL1   C14 3268   1.176   3.766   6.811 -0.5997  0.0407 -0.2253
   29CHL1   H14 3269   1.280   3.738   6.786 -0.5650 -1.2802  1.3417
   29CHL1   C15 3270   1.115   3.842   6.694 -0.0789  0.1119  0.6536
   29CHL1  H15A 3271   1.014   3.881   6.721  0.0466  1.6712 -1.0123
   29CHL1  H15B 3272   1.179   3.922   6.652  1.4947 -0.8820  1.0544
   29CHL1   C16 3273   1.073   3.725   6.596 -0.4353  0.1640  0.2210
   29CHL1  H16A 3274   0.967   3.738   6.565  0.2650  0.4360 -2.2949
   29CHL1  H16B 3275   1.131   3.734   6.502 -0.2230  0.3070  0.3654
   29CHL1   C17 3276   1.110   3.592   6.667  0.2196  0.2155 -0.2663
   29CHL1   H17 3277   1.219   3.582   6.653  0.1574  0.1729 -0.7324
   29CHL1   C13 3278   1.109   3.629   6.819  0.9312 -0.4214  0.1915
   29CHL1   C18 3279   0.956   3.652   6.866 -0.3135 -0.0260  0.3505
   29CHL1  H18A 3280   0.913   3.552   6.889 -1.4312 -0.2581 -2.3421
   29CHL1  H18B 3281   0.944   3.716   6.956  0.3345  1.7752 -0.7903
   29CHL1  H18C 3282   0.895   3.689   6.781 -1.4842 -1.1814  0.6554
   29CHL1   C12 3283   1.190   3.537   6.907 -0.5736 -0.5286  0.1115
   29CHL1  H12A 3284   1.125   3.449   6.926 -0.8071 -0.2867  0.4483
   29CHL1  H12B 3285   1.278   3.497   6.852 -0.1507  1.6219 -0.8426
   29CHL1   C11 3286   1.214   3.601   7.045  0.5974 -0.4430  0.2341
   29CHL1  H11A 3287   1.124   3.596   7.110 -0.1122 -0.9016 -0.7554
   29CHL1  H11B 3288   1.291   3.541   7.098 -0.7978  0.9204  4.1858
   29CHL1    C9 3289   1.262   3.755   7.044  0.3818  0.6821 -0.4153
   29CHL1    H9 3290   1.368   3.754   7.013  1.4433 -0.3376  2.7832
   29CHL1   C10 3291   1.273   3.816   7.186  0.1605  0.2372 -0.8215
   29CHL1   C19 3292   1.147   3.794   7.272  0.3371  0.0570 -0.3383
   29CHL1  H19A 3293   1.056   3.847   7.236 -0.6151 -0.4625  1.1937
   29CHL1  H19B 3294   1.119   3.691   7.304 -3.5775  0.7147 -1.1623
   29CHL1  H19C 3295   1.171   3.835   7.373  1.6972 -2.6449  0.5292
   29CHL1    C1 3296   1.397   3.749   7.252 -0.4986 -0.0445  0.4552
   29CHL1   H1A 3297   1.368   3.644   7.277 -2.2838  0.8111  2.3002
   29CHL1   H1B 3298   1.484   3.744   7.182 -1.2215  2.4422 -0.7146
   29CHL1    C2 3299   1.452   3.817   7.379  0.1585 -0.0991 -0.4661
   29CHL1   H2A 3300   1.549   3.766   7.399  0.3853 -0.2985 -1.9837
   29CHL1   H2B 3301   1.378   3.788   7.457  0.2772 -0.2550 -0.4118
   29CHL1   C20 3302   1.013   3.469   6.616 -0.5081  0.4063  0.2333
   29CHL1   H20 3303   0.911   3.499   6.649 -0.7008 -0.1870  0.1892
   29CHL1   C21 3304   1.059   3.333   6.666  0.3875 -0.3327 -0.1391
   29CHL1  H21A 3305   1.166   3.324   6.636  1.3001 -2.8439  3.2447
   29CHL1  H21B 3306   0.999   3.256   6.613 -2.7022  1.5041  0.4616
   29CHL1  H21C 3307   1.058   3.325   6.776  0.5409 -1.2310 -0.1912
   29CHL1   C22 3308   1.026   3.468   6.460 -0.2381 -0.5411 -0.1495
   29CHL1  H22A 3309   1.003   3.569   6.421 -1.1357  0.7929  3.4801
   29CHL1  H22B 3310   1.133   3.448   6.438  0.0442  0.8761 -0.1121
   29CHL1   C23 3311   0.950   3.360   6.379 -0.3217 -0.7915 -0.0474
   29CHL1  H23A 3312   0.991   3.259   6.399  0.4142 -0.8253 -1.5655
   29CHL1  H23B 3313   0.843   3.359   6.407 -0.0952  0.3435  0.9396
   29CHL1   C24 3314   0.962   3.375   6.227 -1.1661  0.4893 -0.3031
   29CHL1  H24A 3315   0.910   3.466   6.189 -0.1063  1.9322  1.5229
   29CHL1  H24B 3316   1.071   3.383   6.206 -0.9673  3.2989  1.2537
   29CHL1   C25 3317   0.906   3.251   6.158 -0.2088 -0.1836  0.4036
   29CHL1   H25 3318   0.959   3.159   6.191 -0.0403 -0.4885 -0.6558
   29CHL1   C26 3319   0.756   3.235   6.183  0.4193  0.1557 -0.1356
   29CHL1  H26A 3320   0.714   3.146   6.132 -1.3320 -0.3302  1.9993
   29CHL1  H26B 3321   0.732   3.230   6.291 -0.0732  2.0843 -0.1103
   29CHL1  H26C 3322   0.693   3.319   6.146  1.3976  1.3873  0.9192
   29CHL1   C27 3323   0.933   3.265   6.016  0.2375  0.4508 -0.1338
   29CHL1  H27A 3324   0.881   3.182   5.963  1.4666 -1.8205  2.0109
   29CHL1  H27B 3325   0.894   3.360   5.975  0.3047  0.1990 -0.8095
   29CHL1  H27C 3326   1.043   3.256   6.003  0.1238 -2.3745  0.2244
   30CHL1    C3 3327   3.958   6.744   7.290  0.0368 -0.5943  0.5595
   30CHL1    H3 3328   3.867   6.710   7.237  0.7449 -0.4524 -0.8020
   30CHL1    O3 3329   3.966   6.740   7.431  0.4428 -0.1964 -0.3930
   30CHL1   H3' 3330   3.904   6.670   7.454 -1.5210  1.3994 -0.5693
   30CHL1    C4 3331   4.087   6.681   7.239 -0.0010  1.3024 -0.4148
   30CHL1   H4A 3332   4.177   6.724   7.289  0.0817  0.8443 -0.1672
   30CHL1   H4B 3333   4.079   6.574   7.266  0.5141  0.3486 -3.5772
   30CHL1    C5 3334   4.111   6.700   7.093 -0.5972  0.0846  1.1478
   30CHL1    C6 3335   4.116   6.588   7.009  0.0117 -0.3904 -0.2153
   30CHL1    H6 3336   4.098   6.490   7.055  0.7105 -0.5678 -0.3088
   30CHL1    C7 3337   4.141   6.603   6.860  0.1480  0.0923 -0.0343
   30CHL1   H7A 3338   4.218   6.529   6.828 -0.3791 -0.9712  1.0764
   30CHL1   H7B 3339   4.047   6.567   6.812  1.1627 -1.3719 -1.0391
   30CHL1    C8 3340   4.184   6.747   6.822  0.0949  0.3859 -0.0815
   30CHL1    H8 3341   4.290   6.762   6.850  0.2238  0.6510 -0.7043
   30CHL1   C14 3342   4.169   6.762   6.674  0.1657 -0.6358  0.1852
   30CHL1   H14 3343   4.060   6.768   6.656  0.1169 -0.7381  0.4411
   30CHL1   C15 3344   4.217   6.656   6.585 -0.9485 -0.6694 -0.2082
   30CHL1  H15A 3345   4.324   6.643   6.610 -0.3664  1.1239 -1.5041
   30CHL1  H15B 3346   4.166   6.558   6.598 -2.1588 -0.0864 -0.3906
   30CHL1   C16 3347   4.210   6.717   6.444  0.0274  0.8464  0.1329
   30CHL1  H16A 3348   4.308   6.695   6.397  1.5725  0.6183  3.2061
   30CHL1  H16B 3349   4.128   6.672   6.384 -0.6443 -1.3759  2.4881
   30CHL1   C17 3350   4.190   6.870   6.463 -0.5364 -0.1071  0.6378
   30CHL1   H17 3351   4.081   6.882   6.445 -0.5596 -0.2836  0.6585
   30CHL1   C13 3352   4.214   6.892   6.614  0.2547 -0.4072 -0.0549
   30CHL1   C18 3353   4.370   6.915   6.643  0.5112 -0.2723  0.3252
   30CHL1  H18A 3354   4.383   6.930   6.752  1.4508  0.6693  0.0960
   30CHL1  H18B 3355   4.430   6.828   6.608  2.1986  0.0741  2.1771
   30CHL1  H18C 3356   4.404   7.005   6.588 -2.7936  0.0751 -1.4130
   30CHL1   C12 3357   4.125   7.000   6.683 -0.5100  0.2082  0.0279
   30CHL1  H12A 3358   4.166   7.100   6.658  1.7693 -1.0964 -1.9538
   30CHL1  H12B 3359   4.023   6.977   6.646  0.3119 -3.1362 -0.4406
   30CHL1   C11 3360   4.127   6.991   6.838  1.3022  0.0206 -1.0555
   30CHL1  H11A 3361   4.227   7.025   6.873  1.8433 -1.1436 -1.4159
   30CHL1  H11B 3362   4.063   7.068   6.886  2.1401 -0.3732  0.7871
   30CHL1    C9 3363   4.102   6.854   6.897  0.2088  0.8095  0.4041
   30CHL1    H9 3364   3.995   6.832   6.875  0.9260 -0.5250 -2.1881
   30CHL1   C10 3365   4.105   6.842   7.052 -0.5556 -0.1815 -0.0228
   30CHL1   C19 3366   4.241   6.900   7.101  0.8426 -0.1844  0.5623
   30CHL1  H19A 3367   4.257   6.882   7.209  1.4527 -1.8043  0.2210
   30CHL1  H19B 3368   4.323   6.857   7.040  2.6483  1.0653  2.0212
   30CHL1  H19C 3369   4.247   7.010   7.083 -0.2900  0.0288  1.3991
   30CHL1    C1 3370   3.986   6.911   7.105  1.0536 -0.3984 -0.5242
   30CHL1   H1A 3371   3.997   7.021   7.094 -0.6807 -0.1234  0.1308
   30CHL1   H1B 3372   3.894   6.878   7.051  1.0099 -1.3961  0.1230
   30CHL1    C2 3373   3.957   6.895   7.253  0.0192 -0.1369  0.4567
   30CHL1   H2A 3374   3.855   6.935   7.276 -0.3523 -0.6218 -0.3053
   30CHL1   H2B 3375   4.036   6.945   7.313 -0.9762  1.9784  0.1070
   30CHL1   C20 3376   4.265   6.959   6.361 -0.2169 -0.3458 -0.0642
   30CHL1   H20 3377   4.373   6.944   6.380  0.1273 -0.2455 -1.8047
   30CHL1   C21 3378   4.224   7.105   6.380  0.8806 -0.0311  0.5530
   30CHL1  H21A 3379   4.277   7.136   6.473  0.8489 -0.3500  0.6809
   30CHL1  H21B 3380   4.113   7.113   6.389  0.5047 -2.2865 -1.1206
   30CHL1  H21C 3381   4.258   7.167   6.295 -2.9177  1.1739 -0.2925
   30CHL1   C22 3382   4.247   6.905   6.212  0.7112  0.3049  0.4786
   30CHL1  H22A 3383   4.281   6.799   6.209 -0.9772 -0.2914  1.2502
   30CHL1  H22B 3384   4.139   6.913   6.188  0.2846  0.8355  2.4365
   30CHL1   C23 3385   4.336   6.964   6.103 -0.0835  0.7288  0.3996
   30CHL1  H23A 3386   4.323   7.074   6.115  1.0900  0.9915 -0.5756
   30CHL1  H23B 3387   4.444   6.940   6.110  0.0173 -0.5171 -3.3685
   30CHL1   C24 3388   4.288   6.910   5.972  0.5393  0.2172 -0.0924
   30CHL1  H24A 3389   4.292   6.799   5.967 -1.3689  0.1049  0.1211
   30CHL1  H24B 3390   4.182   6.944   5.970 -0.3486 -2.2321  1.4346
   30CHL1   C25 3391   4.370   6.966   5.848 -0.2275  0.0219 -0.1226
   30CHL1   H25 3392   4.392   7.069   5.884 -2.7774  0.5705  0.0127
   30CHL1   C26 3393   4.498   6.888   5.823 -0.3614 -0.7026  0.0125
   30CHL1  H26A 3394   4.545   6.949   5.743 -0.2371  0.5167  0.9937
   30CHL1  H26B 3395   4.562   6.887   5.914 -0.2667 -1.5522 -0.0490
   30CHL1  H26C 3396   4.473   6.785   5.788  2.7024 -0.6271 -2.8621
   30CHL1   C27 3397   4.286   6.975   5.717  0.2999  0.2932  0.1781
   30CHL1  H27A 3398   4.191   7.032   5.728 -0.7921 -1.3158 -0.5705
   30CHL1  H27B 3399   4.339   7.060   5.669 -0.4100  0.7335  0.1500
   30CHL1  H27C 3400   4.285   6.882   5.657  1.9193  0.3019  0.1004
   31CHL1    C3 3401   1.857   6.721   7.466 -0.7132 -0.1660  0.2621
   31CHL1    H3 3402   1.775   6.653   7.433 -1.1812 -0.3385  1.7068
   31CHL1    O3 3403   1.887   6.695   7.599 -0.5708  0.3120  0.0020
   31CHL1   H3' 3404   1.942   6.617   7.586 -0.2231  0.8287 -1.8885
   31CHL1    C4 3405   1.981   6.689   7.371 -0.1084  0.0561 -0.4865
   31CHL1   H4A 3406   2.062   6.751   7.413  0.1536 -0.6554  0.0840
   31CHL1   H4B 3407   2.003   6.581   7.388 -0.2106  0.3194  1.6566
   31CHL1    C5 3408   1.969   6.722   7.227  0.1995  0.2971 -0.0800
   31CHL1    C6 3409   1.997   6.631   7.131 -1.2683  0.9517 -0.1680
   31CHL1    H6 3410   2.021   6.529   7.165  0.1325  1.4086  0.2938
   31CHL1    C7 3411   1.971   6.660   6.984  0.3918  0.1671  0.0957
   31CHL1   H7A 3412   2.055   6.616   6.927  0.7861 -2.1314  2.2384
   31CHL1   H7B 3413   1.878   6.609   6.952 -0.3018  1.2268  0.3673
   31CHL1    C8 3414   1.945   6.810   6.954 -0.4625 -0.0574  0.0811
   31CHL1    H8 3415   2.044   6.860   6.960 -1.7186  2.7108 -0.6010
   31CHL1   C14 3416   1.895   6.830   6.815 -0.2533  0.3070 -0.0697
   31CHL1   H14 3417   1.799   6.774   6.825  0.6443 -1.0753  1.2840
   31CHL1   C15 3418   1.966   6.752   6.702  0.2010 -0.2959 -0.6079
   31CHL1  H15A 3419   2.076   6.756   6.693  0.2350 -2.8407 -2.3268
   31CHL1  H15B 3420   1.937   6.645   6.701  2.5890 -1.0044 -1.9312
   31CHL1   C16 3421   1.918   6.821   6.572  0.2370 -0.3186 -0.2636
   31CHL1  H16A 3422   2.000   6.868   6.514  1.5092 -1.2608  0.7169
   31CHL1  H16B 3423   1.867   6.752   6.502 -0.2707  1.4269 -1.6928
   31CHL1   C17 3424   1.821   6.938   6.620  0.5427 -0.1653  0.2230
   31CHL1   H17 3425   1.721   6.893   6.639 -0.3461  1.5194 -0.1900
   31CHL1   C13 3426   1.873   6.975   6.763 -0.2636  0.2169  0.1504
   31CHL1   C18 3427   2.000   7.058   6.754 -0.4872 -0.4238  0.7200
   31CHL1  H18A 3428   2.058   7.021   6.666 -1.1265  2.4928 -1.0471
   31CHL1  H18B 3429   1.976   7.163   6.728  2.7721  0.7175  1.7446
   31CHL1  H18C 3430   2.060   7.064   6.848  0.5971 -1.3736  0.1237
   31CHL1   C12 3431   1.771   7.037   6.866  0.2479 -0.1740 -0.2486
   31CHL1  H12A 3432   1.747   7.143   6.843 -0.7641 -0.8596 -2.7041
   31CHL1  H12B 3433   1.680   6.977   6.846 -0.1693 -0.0213  1.1349
   31CHL1   C11 3434   1.804   7.018   7.016 -0.2689  0.5744  0.3642
   31CHL1  H11A 3435   1.889   7.089   7.030  2.3688 -2.3845  0.4110
   31CHL1  H11B 3436   1.718   7.052   7.077 -1.2834  1.6983 -1.6016
   31CHL1    C9 3437   1.854   6.876   7.055 -0.1150  0.4948 -0.5259
   31CHL1    H9 3438   1.768   6.806   7.051  0.4544 -0.2212 -0.5935
   31CHL1   C10 3439   1.907   6.861   7.200  0.3444  0.1179  0.7771
   31CHL1   C19 3440   2.011   6.972   7.233  0.0466  0.1209 -0.4795
   31CHL1  H19A 3441   1.978   7.078   7.240 -0.2325  0.1575 -2.0130
   31CHL1  H19B 3442   2.049   6.958   7.336 -0.9149  1.9152  0.1549
   31CHL1  H19C 3443   2.098   6.961   7.165  1.6665 -1.2167  1.6840
   31CHL1    C1 3444   1.785   6.894   7.294  0.0607  0.1605 -0.5997
   31CHL1   H1A 3445   1.753   6.999   7.275 -1.4551  0.0851  1.2176
   31CHL1   H1B 3446   1.697   6.834   7.262  0.1045 -0.2436  0.0182
   31CHL1    C2 3447   1.813   6.864   7.443  0.0692  0.1314 -0.3468
   31CHL1   H2A 3448   1.729   6.888   7.512  1.5192 -0.1817  1.6112
   31CHL1   H2B 3449   1.895   6.926   7.484  0.4907 -2.3222  2.9794
   31CHL1   C20 3450   1.788   7.050   6.515  0.4170 -0.3439  0.5224
   31CHL1   H20 3451   1.885   7.097   6.488  1.3753 -3.1031 -1.3094
   31CHL1   C21 3452   1.694   7.156   6.574 -0.5107 -0.4946 -0.1866
   31CHL1  H21A 3453   1.660   7.229   6.498 -1.3224 -2.7467 -2.1283
   31CHL1  H21B 3454   1.738   7.213   6.658 -2.0652 -1.4253  1.3125
   31CHL1  H21C 3455   1.600   7.109   6.611 -0.4058 -1.8685 -1.5495
   31CHL1   C22 3456   1.732   6.993   6.380  0.3458 -0.3039  0.0259
   31CHL1  H22A 3457   1.794   6.905   6.354  1.5166  0.2388  0.8728
   31CHL1  H22B 3458   1.622   6.978   6.380  0.3408 -0.2673  0.3356
   31CHL1   C23 3459   1.744   7.097   6.268  0.3447  0.1113  0.1298
   31CHL1  H23A 3460   1.739   7.201   6.308  1.4110  0.5660 -0.8449
   31CHL1  H23B 3461   1.841   7.098   6.214  1.2077  0.0954  1.6238
   31CHL1   C24 3462   1.643   7.065   6.154 -0.2357 -0.2702  0.0457
   31CHL1  H24A 3463   1.540   7.082   6.191  0.1022 -1.5680  1.6953
   31CHL1  H24B 3464   1.660   7.139   6.072  4.2132 -2.7966 -1.7105
   31CHL1   C25 3465   1.672   6.928   6.091  0.1977 -0.1361 -0.2436
   31CHL1   H25 3466   1.635   6.860   6.170 -0.3031  0.2448 -0.1450
   31CHL1   C26 3467   1.585   6.926   5.958  0.0258 -0.4401  0.3916
   31CHL1  H26A 3468   1.485   6.885   5.985 -0.4672  1.0827  0.9796
   31CHL1  H26B 3469   1.570   7.033   5.932  0.5650 -0.0396  1.6296
   31CHL1  H26C 3470   1.642   6.868   5.883 -0.6941 -0.0994 -0.4412
   31CHL1   C27 3471   1.809   6.898   6.048 -0.6180 -0.1595  0.3310
   31CHL1  H27A 3472   1.870   6.892   6.140 -0.5562 -1.1694  0.2389
   31CHL1  H27B 3473   1.803   6.790   6.022 -0.2044 -0.6309  2.0737
   31CHL1  H27C 3474   1.848   6.965   5.968 -1.7240 -1.3824 -1.3166
   32CHL1    C3 3475   4.556   4.520   7.169 -0.3795 -0.1808 -0.1742
   32CHL1    H3 3476   4.564   4.411   7.148 -1.3872  0.0289 -1.8147
   32CHL1    O3 3477   4.632   4.544   7.286  0.4349  0.1725  0.0671
   32CHL1   H3' 3478   4.581   4.605   7.340  0.7448  0.1947  0.3451
   32CHL1    C4 3479   4.619   4.602   7.052 -0.2937 -0.4029  0.2367
   32CHL1   H4A 3480   4.639   4.708   7.078 -2.2417  0.2388 -0.6945
   32CHL1   H4B 3481   4.716   4.549   7.047  0.0359  0.0080  1.7450
   32CHL1    C5 3482   4.519   4.617   6.937  0.0594 -0.2708 -0.5025
   32CHL1    C6 3483   4.566   4.584   6.820  0.7193  0.0107  0.0294
   32CHL1    H6 3484   4.671   4.555   6.805  0.7191  0.6301 -1.3350
   32CHL1    C7 3485   4.485   4.598   6.692  0.7345 -0.3381 -0.1534
   32CHL1   H7A 3486   4.549   4.645   6.615  0.2123 -0.2440 -0.5297
   32CHL1   H7B 3487   4.447   4.498   6.661 -2.2527  0.6512  0.0616
   32CHL1    C8 3488   4.363   4.689   6.708 -0.5619 -0.2505 -0.0586
   32CHL1    H8 3489   4.400   4.792   6.727  3.2510 -1.6325  1.0581
   32CHL1   C14 3490   4.273   4.689   6.587  0.4109 -0.0991  0.6793
   32CHL1   H14 3491   4.240   4.583   6.576  2.0218 -0.5691 -0.0036
   32CHL1   C15 3492   4.339   4.713   6.442 -0.0442  0.0015 -0.9114
   32CHL1  H15A 3493   4.418   4.791   6.434  1.0867 -0.9614  0.4402
   32CHL1  H15B 3494   4.370   4.614   6.403 -0.2645 -1.0688  1.4950
   32CHL1   C16 3495   4.215   4.767   6.362 -0.7876 -0.8471  0.8378
   32CHL1  H16A 3496   4.231   4.868   6.318  1.3856 -1.7264 -0.5770
   32CHL1  H16B 3497   4.205   4.697   6.276  0.4792  0.3659 -0.3473
   32CHL1   C17 3498   4.091   4.769   6.454  0.2639 -0.4860 -1.1035
   32CHL1   H17 3499   4.035   4.673   6.453 -0.2132 -0.3660  2.0504
   32CHL1   C13 3500   4.151   4.776   6.597 -0.3053 -0.6389  0.5309
   32CHL1   C18 3501   4.193   4.924   6.617 -0.2979  0.7757 -0.3180
   32CHL1  H18A 3502   4.120   4.984   6.676  2.0880  2.8051  0.7587
   32CHL1  H18B 3503   4.287   4.939   6.674 -0.5778  1.1529  0.0535
   32CHL1  H18C 3504   4.215   4.977   6.522  0.5442 -1.0539 -1.1777
   32CHL1   C12 3505   4.068   4.730   6.719 -0.0541  0.1529  0.5953
   32CHL1  H12A 3506   3.980   4.798   6.728  1.1072  1.4961  2.2038
   32CHL1  H12B 3507   4.031   4.625   6.714 -0.8981  0.4965 -2.2541
   32CHL1   C11 3508   4.151   4.740   6.849 -0.0662  0.3444 -0.4808
   32CHL1  H11A 3509   4.174   4.847   6.871  1.6244  0.0768 -0.8187
   32CHL1  H11B 3510   4.085   4.708   6.933  1.3511  3.1625  1.8875
   32CHL1    C9 3511   4.289   4.658   6.834  0.6460  0.0941 -0.6111
   32CHL1    H9 3512   4.265   4.553   6.810  2.0373 -0.1835 -0.8561
   32CHL1   C10 3513   4.375   4.663   6.958 -1.0082 -0.2955 -1.1783
   32CHL1   C19 3514   4.384   4.808   7.017 -0.2618 -0.0942 -0.2790
   32CHL1  H19A 3515   4.423   4.873   6.936 -0.0116  0.1350  0.0224
   32CHL1  H19B 3516   4.296   4.851   7.068  1.0743 -1.2619  3.2891
   32CHL1  H19C 3517   4.455   4.811   7.102 -1.3360  0.0029  0.6355
   32CHL1    C1 3518   4.328   4.557   7.054 -0.0637  0.8714  0.4947
   32CHL1   H1A 3519   4.221   4.578   7.077 -0.1239  0.1691  0.8977
   32CHL1   H1B 3520   4.334   4.457   7.005  2.4632  1.4097 -0.4353
   32CHL1    C2 3521   4.409   4.555   7.186 -0.2647  0.4731 -0.2118
   32CHL1   H2A 3522   4.368   4.477   7.254 -2.2308  1.7912  0.1876
   32CHL1   H2B 3523   4.404   4.650   7.243  0.3703 -0.1155  0.8741
   32CHL1   C20 3524   3.988   4.877   6.402 -0.2802 -0.0948  0.4342
   32CHL1   H20 3525   4.022   4.983   6.404 -0.1355 -0.1485  1.4386
   32CHL1   C21 3526   3.851   4.877   6.481 -1.2217 -0.8017  1.0371
   32CHL1  H21A 3527   3.810   4.779   6.451  2.2605 -1.3784 -2.7290
   32CHL1  H21B 3528   3.781   4.952   6.437  0.9696  0.7765  0.0398
   32CHL1  H21C 3529   3.850   4.893   6.590 -0.1414 -0.3533  0.9944
   32CHL1   C22 3530   3.961   4.835   6.253  0.0212  0.3169  0.2291
   32CHL1  H22A 3531   4.053   4.848   6.194  0.8548 -0.0473  1.4114
   32CHL1  H22B 3532   3.931   4.728   6.241  0.6598  0.0172  1.2073
   32CHL1   C23 3533   3.850   4.921   6.188  0.6290 -0.1935 -0.3215
   32CHL1  H23A 3534   3.745   4.893   6.210  0.8159 -1.3667 -0.8343
   32CHL1  H23B 3535   3.873   5.023   6.226 -0.3673 -0.8251  2.1911
   32CHL1   C24 3536   3.860   4.918   6.038 -0.5016  0.0450  0.2440
   32CHL1  H24A 3537   3.946   4.981   6.007  0.7192 -1.3078  0.7935
   32CHL1  H24B 3538   3.887   4.819   5.996  0.8658  0.7358 -0.6049
   32CHL1   C25 3539   3.736   4.968   5.965  0.2842  0.0446 -0.7067
   32CHL1   H25 3540   3.653   4.901   5.997  0.6137 -0.6176 -1.1886
   32CHL1   C26 3541   3.703   5.115   5.985  0.4710  0.5161 -0.3825
   32CHL1  H26A 3542   3.700   5.134   6.094  2.2637  1.9988 -0.5384
   32CHL1  H26B 3543   3.791   5.169   5.942  0.8182 -0.1915 -0.5790
   32CHL1  H26C 3544   3.614   5.154   5.932 -0.4413 -2.1340 -0.9516
   32CHL1   C27 3545   3.756   4.951   5.812  0.6124  0.2127  0.0574
   32CHL1  H27A 3546   3.861   4.980   5.792  0.9397 -1.3094 -0.6031
   32CHL1  H27B 3547   3.724   4.847   5.791  0.1927  0.0262  1.4796
   32CHL1  H27C 3548   3.688   5.020   5.758  1.6210 -0.2804 -1.9386
   33CHL1    C3 3549   2.064   5.500   7.230 -0.6031  0.1282  0.4269
   33CHL1    H3 3550   2.164   5.463   7.199 -1.0425  0.1437 -1.0501
   33CHL1    O3 3551   2.043   5.460   7.365 -0.0748 -0.3004 -0.3894
   33CHL1   H3' 3552   2.028   5.544   7.410 -0.6958  0.4587 -1.9443
   33CHL1    C4 3553   2.074   5.650   7.219 -1.0979  0.4201 -0.2202
   33CHL1   H4A 3554   1.988   5.703   7.264 -1.1830 -0.9972  1.3835
   33CHL1   H4B 3555   2.168   5.675   7.273 -0.5619 -1.5570 -0.1507
   33CHL1    C5 3556   2.101   5.700   7.080  0.1231 -1.1803 -0.5159
   33CHL1    C6 3557   2.203   5.788   7.047  0.0140 -0.0229 -0.6097
   33CHL1    H6 3558   2.281   5.823   7.117  1.0900  0.6426 -2.0910
   33CHL1    C7 3559   2.223   5.846   6.909 -0.3144  0.7251  0.1603
   33CHL1   H7A 3560   2.243   5.955   6.916 -1.7408  1.0488 -0.4830
   33CHL1   H7B 3561   2.313   5.799   6.863 -0.2135  0.2795  0.8104
   33CHL1    C8 3562   2.117   5.820   6.801 -0.4289 -0.5328  0.6492
   33CHL1    H8 3563   2.032   5.890   6.815  0.7747  1.0921  0.2831
   33CHL1   C14 3564   2.182   5.820   6.659 -0.1262  0.2913 -0.4303
   33CHL1   H14 3565   2.260   5.740   6.661  0.1328  0.3630  4.3322
   33CHL1   C15 3566   2.247   5.952   6.616  0.2915  0.3197  0.2159
   33CHL1  H15A 3567   2.176   6.035   6.635 -0.6123 -0.2350 -0.6148
   33CHL1  H15B 3568   2.334   5.987   6.676  0.8234  0.6681 -0.7342
   33CHL1   C16 3569   2.268   5.933   6.470 -0.0149 -1.0179 -0.1112
   33CHL1  H16A 3570   2.238   6.028   6.420 -0.2578 -1.2093 -0.3351
   33CHL1  H16B 3571   2.375   5.909   6.452 -0.0314  0.3435 -2.5411
   33CHL1   C17 3572   2.182   5.816   6.418  0.3798 -0.2261  0.2924
   33CHL1   H17 3573   2.262   5.740   6.410  0.2291 -0.4056  0.4905
   33CHL1   C13 3574   2.089   5.780   6.538 -0.7364  0.0244 -0.4939
   33CHL1   C18 3575   1.963   5.879   6.541  0.3066 -0.0312  0.0210
   33CHL1  H18A 3576   1.997   5.982   6.520 -0.5282 -0.4413 -4.2414
   33CHL1  H18B 3577   1.897   5.845   6.459 -1.9609  0.8098  1.4069
   33CHL1  H18C 3578   1.915   5.868   6.641  1.5442  0.9151  0.7457
   33CHL1   C12 3579   2.054   5.630   6.564  0.5921  0.2397 -0.2107
   33CHL1  H12A 3580   1.987   5.587   6.486  0.6794 -3.3067  1.4500
   33CHL1  H12B 3581   2.142   5.562   6.561  0.3291 -0.0985 -2.6847
   33CHL1   C11 3582   1.979   5.610   6.703 -0.6127 -0.1128 -0.7508
   33CHL1  H11A 3583   1.875   5.647   6.698 -0.3760  0.8095  0.5994
   33CHL1  H11B 3584   1.992   5.501   6.719  1.6263 -0.2294 -2.8369
   33CHL1    C9 3585   2.059   5.673   6.824 -0.5526  0.6688 -0.5042
   33CHL1    H9 3586   2.146   5.604   6.831 -1.5841 -0.5134  1.5541
   33CHL1   C10 3587   2.004   5.650   6.964  0.0240  0.8930  0.1081
   33CHL1   C19 3588   1.870   5.723   6.981  1.2415  0.4053  0.3378
   33CHL1  H19A 3589   1.816   5.713   7.077  1.5796  0.2125  0.5120
   33CHL1  H19B 3590   1.881   5.832   6.963 -1.8250  0.6582 -0.5272
   33CHL1  H19C 3591   1.794   5.697   6.905 -0.0794  3.1021  0.6225
   33CHL1    C1 3592   1.971   5.500   6.992 -0.2662  0.3030  0.0041
   33CHL1   H1A 3593   1.880   5.479   6.932 -0.2422 -0.1436  0.1209
   33CHL1   H1B 3594   2.053   5.437   6.951  1.7458  0.6211  3.2042
   33CHL1    C2 3595   1.954   5.452   7.141  0.3126  0.2041 -0.1564
   33CHL1   H2A 3596   1.941   5.342   7.136 -2.2142  0.4358  0.0167
   33CHL1   H2B 3597   1.864   5.495   7.191  0.6266 -0.3666  0.9424
   33CHL1   C20 3598   2.118   5.849   6.284 -0.0346  0.0021  0.7459
   33CHL1   H20 3599   2.038   5.924   6.306  1.3661  1.3651  1.3612
   33CHL1   C21 3600   2.046   5.727   6.221  0.2876  0.7039  0.3310
   33CHL1  H21A 3601   2.107   5.634   6.223 -0.1925  0.3632 -0.6490
   33CHL1  H21B 3602   2.033   5.730   6.111 -0.3450 -0.9912  0.3368
   33CHL1  H21C 3603   1.944   5.720   6.264  0.9115 -0.4391  1.7138
   33CHL1   C22 3604   2.216   5.910   6.180 -0.3071  0.4358  0.1327
   33CHL1  H22A 3605   2.159   5.927   6.086  0.5195 -3.5875 -1.2990
   33CHL1  H22B 3606   2.249   6.012   6.207 -0.2051  0.7017 -0.9633
   33CHL1   C23 3607   2.344   5.830   6.143  0.9740 -0.1529  0.7026
   33CHL1  H23A 3608   2.413   5.836   6.230  4.2138  1.8503 -1.7734
   33CHL1  H23B 3609   2.310   5.726   6.123 -1.5354  0.6348  0.6289
   33CHL1   C24 3610   2.419   5.899   6.026 -0.3941  0.0919  0.1723
   33CHL1  H24A 3611   2.413   6.004   6.062 -1.7590  0.0828  0.0245
   33CHL1  H24B 3612   2.515   5.843   6.027 -1.2101 -1.3657  0.5540
   33CHL1   C25 3613   2.370   5.893   5.882  0.3454  0.0395 -0.2760
   33CHL1   H25 3614   2.263   5.919   5.869  0.4527  0.3698 -0.5079
   33CHL1   C26 3615   2.452   5.997   5.801 -0.1739 -0.0319 -1.3091
   33CHL1  H26A 3616   2.559   5.971   5.817 -1.0320 -1.9111  2.9161
   33CHL1  H26B 3617   2.431   5.983   5.693  1.2285  0.2970 -1.6446
   33CHL1  H26C 3618   2.438   6.097   5.847  0.8218 -1.4981  2.5803
   33CHL1   C27 3619   2.391   5.749   5.829  0.3500  0.1704 -0.8900
   33CHL1  H27A 3620   2.352   5.745   5.726 -1.8705  0.4853 -0.1033
   33CHL1  H27B 3621   2.495   5.709   5.830 -0.6362 -2.5930  0.5457
   33CHL1  H27C 3622   2.343   5.673   5.894  1.4192 -0.6669 -1.0521
   34CHL1    C3 3623   2.489   6.775   7.204 -0.3294  0.1325  0.1914
   34CHL1    H3 3624   2.521   6.675   7.170 -0.4337 -0.5036  1.8673
   34CHL1    O3 3625   2.478   6.780   7.352 -0.1834  0.0339  0.3558
   34CHL1   H3' 3626   2.568   6.771   7.384 -0.1628 -1.3373 -0.0055
   34CHL1    C4 3627   2.582   6.883   7.147 -0.0919 -0.4156  0.6187
   34CHL1   H4A 3628   2.556   6.973   7.207  1.0655  0.4652 -0.1640
   34CHL1   H4B 3629   2.681   6.859   7.191  0.6561  0.1206 -0.6845
   34CHL1    C5 3630   2.595   6.912   7.003 -0.4037  0.3258 -0.8929
   34CHL1    C6 3631   2.707   6.905   6.934  0.5381  0.6644  0.5826
   34CHL1    H6 3632   2.798   6.881   6.991 -0.3334  1.8048  2.5594
   34CHL1    C7 3633   2.717   6.936   6.790 -0.2664  0.7614  0.6743
   34CHL1   H7A 3634   2.798   7.008   6.767 -1.0118  1.4597  0.2101
   34CHL1   H7B 3635   2.719   6.839   6.735  0.9364  0.7727  0.6782
   34CHL1    C8 3636   2.582   6.997   6.740 -1.1136  0.3288 -0.0212
   34CHL1    H8 3637   2.584   7.103   6.773 -0.2477 -0.1594  1.6264
   34CHL1   C14 3638   2.578   7.000   6.594  0.0326 -0.3169  0.6987
   34CHL1   H14 3639   2.579   6.893   6.565  2.7654 -0.3000  0.4448
   34CHL1   C15 3640   2.699   7.059   6.530 -0.3273  0.1068 -0.1054
   34CHL1  H15A 3641   2.727   7.159   6.569 -0.4504  0.4149 -0.7900
   34CHL1  H15B 3642   2.785   6.990   6.514  0.3376  1.0607 -0.7465
   34CHL1   C16 3643   2.645   7.090   6.389  0.0875  0.5413  0.4749
   34CHL1  H16A 3644   2.659   7.200   6.379 -0.4193  1.1756  4.8620
   34CHL1  H16B 3645   2.695   7.036   6.306  0.5018 -0.2904  1.2520
   34CHL1   C17 3646   2.496   7.045   6.384  0.2294 -0.9510 -0.1913
   34CHL1   H17 3647   2.496   6.938   6.355  0.2196 -1.0546  0.1841
   34CHL1   C13 3648   2.453   7.062   6.529 -0.2716  0.3593  0.0545
   34CHL1   C18 3649   2.429   7.211   6.559 -0.8324  0.9030  0.9379
   34CHL1  H18A 3650   2.493   7.283   6.504 -1.2194  1.7455  1.5672
   34CHL1  H18B 3651   2.325   7.241   6.532 -0.8792 -0.7789 -0.9438
   34CHL1  H18C 3652   2.435   7.222   6.669  1.4683 -0.0620  0.9634
   34CHL1   C12 3653   2.341   6.967   6.568  0.5012 -0.4289  0.0908
   34CHL1  H12A 3654   2.247   7.012   6.530  0.5370 -0.6776 -0.3032
   34CHL1  H12B 3655   2.354   6.864   6.527  1.3520  0.2453 -1.4353
   34CHL1   C11 3656   2.323   6.973   6.725  0.0465 -0.1357  0.1657
   34CHL1  H11A 3657   2.295   7.078   6.750  1.4878 -0.4154  3.6295
   34CHL1  H11B 3658   2.245   6.903   6.764 -2.4019  1.7341 -1.0817
   34CHL1    C9 3659   2.455   6.927   6.797  0.6975  0.2091  0.2438
   34CHL1    H9 3660   2.471   6.821   6.768 -0.1463  0.2523 -0.4209
   34CHL1   C10 3661   2.455   6.939   6.947 -0.6323 -0.6682 -0.0718
   34CHL1   C19 3662   2.406   7.086   6.983 -0.3698  0.0034 -0.1024
   34CHL1  H19A 3663   2.461   7.165   6.928  0.4982  0.2002  1.0191
   34CHL1  H19B 3664   2.298   7.084   6.956 -0.3332 -0.8197 -0.2191
   34CHL1  H19C 3665   2.403   7.101   7.093  0.7041  2.0236 -0.3039
   34CHL1    C1 3666   2.357   6.824   6.994 -1.0985 -0.0709 -0.4017
   34CHL1   H1A 3667   2.251   6.841   6.963 -1.5284  3.1219  2.1994
   34CHL1   H1B 3668   2.393   6.726   6.956  2.9380  0.6774  1.0361
   34CHL1    C2 3669   2.353   6.806   7.143  0.8669 -0.1501  0.3528
   34CHL1   H2A 3670   2.285   6.721   7.164 -0.0670 -0.2232 -2.5968
   34CHL1   H2B 3671   2.310   6.897   7.190  1.7430  0.1975  0.5099
   34CHL1   C20 3672   2.408   7.113   6.281 -0.5285 -0.2478 -0.1646
   34CHL1   H20 3673   2.366   7.206   6.323 -0.5921 -0.9900  1.5128
   34CHL1   C21 3674   2.298   7.016   6.244  0.2247  0.3276 -0.2078
   34CHL1  H21A 3675   2.346   6.921   6.212  0.6634  0.5064 -0.0831
   34CHL1  H21B 3676   2.233   7.054   6.162 -1.6076 -2.0024  0.0646
   34CHL1  H21C 3677   2.235   7.005   6.334 -0.2653 -2.3091 -0.8019
   34CHL1   C22 3678   2.489   7.152   6.152 -0.0401 -0.1115 -0.2988
   34CHL1  H22A 3679   2.564   7.231   6.177 -0.2374 -0.4028  1.3565
   34CHL1  H22B 3680   2.536   7.060   6.112 -0.6362  0.6751 -3.0473
   34CHL1   C23 3681   2.402   7.219   6.038 -0.9748  0.2492 -0.4441
   34CHL1  H23A 3682   2.321   7.149   6.006  0.5496 -0.6623 -2.5313
   34CHL1  H23B 3683   2.358   7.311   6.084  0.4069  0.8906 -0.3570
   34CHL1   C24 3684   2.471   7.262   5.908 -0.0289 -0.3205  0.3302
   34CHL1  H24A 3685   2.572   7.290   5.945 -0.9455  1.3682  1.7617
   34CHL1  H24B 3686   2.495   7.199   5.820  2.2791  2.2262 -1.0335
   34CHL1   C25 3687   2.398   7.383   5.851 -0.0881  0.1354 -0.0859
   34CHL1   H25 3688   2.365   7.456   5.928 -2.7847  1.0316 -1.9301
   34CHL1   C26 3689   2.492   7.458   5.749 -0.0558  0.0089  0.5900
   34CHL1  H26A 3690   2.588   7.492   5.793  0.6523 -1.2510  0.0816
   34CHL1  H26B 3691   2.525   7.387   5.670 -1.4306  2.6801 -2.6557
   34CHL1  H26C 3692   2.434   7.540   5.702  0.9541  0.3304 -0.1250
   34CHL1   C27 3693   2.279   7.337   5.772  0.0291  0.5531 -0.3011
   34CHL1  H27A 3694   2.190   7.313   5.835  1.1937  0.3679  1.3171
   34CHL1  H27B 3695   2.256   7.412   5.693 -1.6202 -0.0808 -0.4612
   34CHL1  H27C 3696   2.308   7.246   5.716 -0.3761  0.3650 -0.2143
   35CHL1    C3 3697   5.172   6.825   7.360 -0.8006  0.1515 -0.4262
   35CHL1    H3 3698   5.126   6.725   7.342 -1.7439  0.6059 -0.6261
   35CHL1    O3 3699   5.198   6.841   7.491 -0.2134 -0.1759 -0.1871
   35CHL1   H3' 3700   5.108   6.862   7.518  0.0725  0.3435  0.3892
   35CHL1    C4 3701   5.311   6.848   7.288  0.8310 -0.0902 -0.7221
   35CHL1   H4A 3702   5.338   6.950   7.324 -1.4220  0.8638 -1.5406
   35CHL1   H4B 3703   5.383   6.773   7.328  0.2675 -0.7389 -0.9018
   35CHL1    C5 3704   5.303   6.844   7.131 -0.0149 -0.2425 -0.1336
   35CHL1    C6 3705   5.376   6.761   7.054 -0.2135 -0.5735 -0.7378
   35CHL1    H6 3706   5.445   6.685   7.092 -0.2512 -0.4982 -0.5150
   35CHL1    C7 3707   5.358   6.752   6.907  0.4043 -1.1321  0.4078
   35CHL1   H7A 3708   5.452   6.725   6.854  1.6884  1.4687  1.1527
   35CHL1   H7B 3709   5.281   6.681   6.870 -1.7370  1.0246  0.4583
   35CHL1    C8 3710   5.303   6.886   6.850  0.4793  0.0492  0.0957
   35CHL1    H8 3711   5.383   6.962   6.866 -0.6291  1.2784 -0.0413
   35CHL1   C14 3712   5.283   6.873   6.700  0.2305 -0.2999  0.5023
   35CHL1   H14 3713   5.198   6.800   6.701 -3.5904  3.7406  0.5572
   35CHL1   C15 3714   5.387   6.794   6.611 -0.0533 -0.5104 -0.3186
   35CHL1  H15A 3715   5.490   6.823   6.641 -0.4375 -0.4045  0.9526
   35CHL1  H15B 3716   5.370   6.685   6.620 -1.4193 -0.4916 -2.0620
   35CHL1   C16 3717   5.352   6.844   6.466  0.4980  0.0585 -0.7014
   35CHL1  H16A 3718   5.436   6.903   6.423 -0.6988  1.4660 -1.1723
   35CHL1  H16B 3719   5.323   6.765   6.393 -2.3708  0.6746 -0.3501
   35CHL1   C17 3720   5.227   6.934   6.487 -0.6339 -0.0558  0.4292
   35CHL1   H17 3721   5.135   6.872   6.483  0.1870 -1.3020  0.4580
   35CHL1   C13 3722   5.234   6.998   6.625  0.0329  0.2188 -1.2327
   35CHL1   C18 3723   5.329   7.118   6.636 -0.3113  0.3293  0.0634
   35CHL1  H18A 3724   5.307   7.210   6.578 -1.3850 -0.1286 -0.2749
   35CHL1  H18B 3725   5.356   7.155   6.738  2.0197  2.5675 -1.2586
   35CHL1  H18C 3726   5.423   7.087   6.585 -1.3961 -1.3228 -1.0316
   35CHL1   C12 3727   5.097   7.038   6.693 -0.6653 -0.3742 -1.3352
   35CHL1  H12A 3728   5.057   7.139   6.669 -2.2430 -0.5754  0.2057
   35CHL1  H12B 3729   5.021   6.964   6.660  0.2958 -2.8356  1.5094
   35CHL1   C11 3730   5.108   7.044   6.853 -0.2583 -0.0709  0.4974
   35CHL1  H11A 3731   5.149   7.146   6.866 -1.9769  0.7299 -0.0448
   35CHL1  H11B 3732   5.008   7.053   6.901 -0.0112  0.4612  0.9260
   35CHL1    C9 3733   5.179   6.928   6.922 -0.4555 -0.2013 -0.4896
   35CHL1    H9 3734   5.105   6.846   6.910  0.8911 -1.4249 -0.6823
   35CHL1   C10 3735   5.196   6.941   7.077  0.3225 -0.6027  0.2472
   35CHL1   C19 3736   5.249   7.085   7.101  0.4810  0.1342  0.0768
   35CHL1  H19A 3737   5.347   7.105   7.053 -0.4407  2.3750 -1.0440
   35CHL1  H19B 3738   5.174   7.161   7.069  1.0321  0.2437 -0.9988
   35CHL1  H19C 3739   5.270   7.109   7.208  0.3839  2.4231 -0.3654
   35CHL1    C1 3740   5.062   6.920   7.150  0.2032 -0.1262  0.7469
   35CHL1   H1A 3741   4.993   6.998   7.113 -0.1111 -2.0482 -3.2075
   35CHL1   H1B 3742   5.037   6.817   7.118  0.9202 -0.0787  0.0134
   35CHL1    C2 3743   5.072   6.929   7.304  0.4276  0.4623 -0.1959
   35CHL1   H2A 3744   4.976   6.913   7.357 -0.0712  1.8617 -0.6089
   35CHL1   H2B 3745   5.104   7.029   7.341 -0.3064  0.5406  0.2487
   35CHL1   C20 3746   5.202   7.027   6.361 -0.5645  0.4662  0.3182
   35CHL1   H20 3747   5.296   7.085   6.356  0.0688 -0.6399 -1.1189
   35CHL1   C21 3748   5.078   7.122   6.380  0.3297  0.2379  0.1393
   35CHL1  H21A 3749   5.044   7.169   6.286  0.8129 -0.4335 -0.3824
   35CHL1  H21B 3750   5.090   7.189   6.468 -1.4552  0.4273  0.2829
   35CHL1  H21C 3751   4.985   7.068   6.409 -1.3693  3.1946  0.5917
   35CHL1   C22 3752   5.191   6.945   6.227  0.3105  0.4505  0.8542
   35CHL1  H22A 3753   5.291   6.900   6.207  0.2784  1.3085 -1.4856
   35CHL1  H22B 3754   5.116   6.864   6.240  0.4372 -0.1644 -1.6749
   35CHL1   C23 3755   5.150   7.025   6.102  0.0219  0.5757 -0.3687
   35CHL1  H23A 3756   5.039   7.027   6.107 -0.1791 -3.6676  0.4480
   35CHL1  H23B 3757   5.203   7.123   6.100  0.8550  0.1263 -0.6555
   35CHL1   C24 3758   5.187   6.959   5.968  1.0087  0.5122  0.6295
   35CHL1  H24A 3759   5.200   6.849   5.982 -0.2338  0.0756 -1.2204
   35CHL1  H24B 3760   5.107   6.964   5.891  0.5795 -0.2167  1.0148
   35CHL1   C25 3761   5.304   7.020   5.897  0.6344 -0.0186 -0.6214
   35CHL1   H25 3762   5.277   7.126   5.879  2.6422  0.4377 -1.1110
   35CHL1   C26 3763   5.432   7.009   5.980 -0.3475 -0.1067  0.1858
   35CHL1  H26A 3764   5.460   6.911   6.025 -0.1218 -0.0568  0.1540
   35CHL1  H26B 3765   5.513   7.046   5.914  0.3799  1.2685  1.7734
   35CHL1  H26C 3766   5.430   7.082   6.064 -1.4755 -0.2533  0.3072
   35CHL1   C27 3767   5.330   6.956   5.760  0.7664  0.3980 -0.1992
   35CHL1  H27A 3768   5.424   7.001   5.722 -0.1400  0.5296 -2.3897
   35CHL1  H27B 3769   5.345   6.846   5.765 -0.8319  0.1721  0.2370
   35CHL1  H27C 3770   5.248   6.981   5.689  1.8270 -0.2572 -1.7074
   36CHL1    C3 3771   1.279   4.950   7.411 -0.5350  0.1069  0.1420
   36CHL1    H3 3772   1.344   5.040   7.413  1.6027 -1.2866 -1.6787
   36CHL1    O3 3773   1.202   4.941   7.531 -0.1958  0.0426 -0.2536
   36CHL1   H3' 3774   1.169   4.851   7.521 -0.9708  0.3831 -0.9320
   36CHL1    C4 3775   1.174   4.982   7.308  0.2640  0.1164  0.6535
   36CHL1   H4A 3776   1.094   4.906   7.305 -1.0452  1.3755  2.1531
   36CHL1   H4B 3777   1.122   5.075   7.340 -0.5407 -0.9540  2.5765
   36CHL1    C5 3778   1.221   4.993   7.167  0.5833  0.0321  0.2293
   36CHL1    C6 3779   1.210   5.108   7.099  0.5622  0.0015  0.7621
   36CHL1    H6 3780   1.147   5.189   7.140 -0.3725  0.3054 -1.1593
   36CHL1    C7 3781   1.246   5.113   6.950  0.4537  0.0597  0.7481
   36CHL1   H7A 3782   1.174   5.170   6.886 -0.0357  0.3340  1.5313
   36CHL1   H7B 3783   1.337   5.176   6.945  0.6746 -0.3144 -0.0065
   36CHL1    C8 3784   1.286   4.979   6.889  0.4033 -1.0254 -0.5948
   36CHL1    H8 3785   1.200   4.914   6.862  1.6126 -3.4883  1.1195
   36CHL1   C14 3786   1.363   5.007   6.762  0.1431 -0.0036 -0.8613
   36CHL1   H14 3787   1.448   5.071   6.795 -0.2814 -1.0193  2.6066
   36CHL1   C15 3788   1.296   5.089   6.655 -0.1615 -0.0858  0.4084
   36CHL1  H15A 3789   1.186   5.070   6.653  0.2523 -2.9541 -0.0924
   36CHL1  H15B 3790   1.300   5.195   6.688 -2.9114 -0.2891  1.6927
   36CHL1   C16 3791   1.370   5.048   6.522 -0.1550  0.2864  0.4121
   36CHL1  H16A 3792   1.303   5.002   6.446 -0.6672  0.7153  0.5951
   36CHL1  H16B 3793   1.415   5.139   6.476 -1.4426 -0.2141 -2.0372
   36CHL1   C17 3794   1.484   4.950   6.566  1.1065 -0.0456 -0.4701
   36CHL1   H17 3795   1.571   5.007   6.605  0.8013  1.6722 -2.1501
   36CHL1   C13 3796   1.419   4.883   6.690 -0.5440 -0.1791  0.3698
   36CHL1   C18 3797   1.307   4.792   6.639  0.3765  0.2250  0.7674
   36CHL1  H18A 3798   1.234   4.749   6.711 -0.4224 -1.9016 -1.1773
   36CHL1  H18B 3799   1.233   4.850   6.579 -0.0716 -0.0886  1.0085
   36CHL1  H18C 3800   1.347   4.699   6.592 -0.4187 -2.0254  4.1831
   36CHL1   C12 3801   1.510   4.811   6.791 -0.0153  0.4056 -0.1627
   36CHL1  H12A 3802   1.533   4.712   6.748 -2.9577 -1.9900  3.1718
   36CHL1  H12B 3803   1.600   4.875   6.809 -1.2549  1.8250  1.3894
   36CHL1   C11 3804   1.443   4.779   6.925 -0.5303 -0.2292 -0.7900
   36CHL1  H11A 3805   1.367   4.702   6.900  1.3368 -1.8916 -1.5489
   36CHL1  H11B 3806   1.503   4.733   7.006  0.5759  1.6083 -0.5189
   36CHL1    C9 3807   1.375   4.908   6.988 -0.1009  0.0111  0.1376
   36CHL1    H9 3808   1.459   4.974   7.019 -0.2131 -0.1945  0.9014
   36CHL1   C10 3809   1.299   4.869   7.115  0.0902 -0.2631 -0.6611
   36CHL1   C19 3810   1.197   4.756   7.088  0.5201  0.7581 -0.7352
   36CHL1  H19A 3811   1.133   4.762   6.998 -1.3168  0.5438  0.5065
   36CHL1  H19B 3812   1.252   4.660   7.081  0.8984  0.8510  0.6945
   36CHL1  H19C 3813   1.123   4.737   7.169  1.5622 -0.7260 -0.0829
   36CHL1    C1 3814   1.395   4.820   7.227 -0.5288 -0.1156  0.2265
   36CHL1   H1A 3815   1.444   4.723   7.206 -1.6014 -1.0180  1.7723
   36CHL1   H1B 3816   1.470   4.903   7.229 -1.1543  0.4764 -0.3161
   36CHL1    C2 3817   1.343   4.816   7.372 -1.2200  0.3938  0.0874
   36CHL1   H2A 3818   1.431   4.800   7.438 -1.1202  0.8171  0.0612
   36CHL1   H2B 3819   1.277   4.727   7.379 -2.3512  1.1404 -0.7761
   36CHL1   C20 3820   1.547   4.861   6.451 -0.3756 -0.8182 -0.1782
   36CHL1   H20 3821   1.463   4.792   6.432 -1.9718  0.7252  0.9109
   36CHL1   C21 3822   1.682   4.793   6.491 -0.8848 -0.5319 -0.6826
   36CHL1  H21A 3823   1.717   4.730   6.406 -0.5375  1.1073 -1.8236
   36CHL1  H21B 3824   1.666   4.727   6.579 -0.9664  0.2804 -0.0782
   36CHL1  H21C 3825   1.772   4.851   6.520 -1.4386  0.3794 -0.7528
   36CHL1   C22 3826   1.561   4.955   6.322 -0.0915  0.2964  0.4411
   36CHL1  H22A 3827   1.468   5.013   6.305  1.7580  3.1716 -0.5076
   36CHL1  H22B 3828   1.647   5.023   6.338  1.1533 -1.4652  1.5645
   36CHL1   C23 3829   1.580   4.881   6.191  0.4337  0.0234 -0.0403
   36CHL1  H23A 3830   1.669   4.814   6.191 -0.1430 -0.7643 -1.0373
   36CHL1  H23B 3831   1.493   4.815   6.171  0.7782 -0.1320 -1.0967
   36CHL1   C24 3832   1.582   4.968   6.063  0.0785  0.9321 -0.2770
   36CHL1  H24A 3833   1.584   4.900   5.975  0.3132  0.4718  0.0752
   36CHL1  H24B 3834   1.489   5.029   6.058  0.4551  1.4183 -1.6541
   36CHL1   C25 3835   1.694   5.062   6.052 -0.4047  0.7302 -0.3491
   36CHL1   H25 3836   1.682   5.118   6.146  1.4973 -1.2671  1.1789
   36CHL1   C26 3837   1.835   4.980   6.055 -0.2613  0.6229  0.4600
   36CHL1  H26A 3838   1.839   4.903   5.975 -1.2547  2.2364 -1.2189
   36CHL1  H26B 3839   1.917   5.048   6.024 -1.4254  0.8843 -2.3457
   36CHL1  H26C 3840   1.848   4.932   6.155 -1.9993 -1.3291 -0.1837
   36CHL1   C27 3841   1.691   5.153   5.931  0.4430 -0.3462 -0.1837
   36CHL1  H27A 3842   1.792   5.199   5.926  0.1658  0.2676 -0.2147
   36CHL1  H27B 3843   1.681   5.083   5.845  0.8639 -0.2413 -0.3197
   36CHL1  H27C 3844   1.607   5.223   5.948  1.7640  0.7147  2.5519
   37CHL1    C3 3845   4.261   2.926   7.174 -0.6791  0.3115 -0.2088
   37CHL1    H3 3846   4.361   2.967   7.148 -0.1095 -0.9470 -0.0617
   37CHL1    O3 3847   4.255   2.898   7.309  0.9647  0.5471  0.3650
   37CHL1   H3' 3848   4.161   2.880   7.315  0.4938  2.5758 -0.0893
   37CHL1    C4 3849   4.148   3.014   7.126  0.0923  0.0107 -0.7870
   37CHL1   H4A 3850   4.056   2.959   7.155  1.2541 -0.1093  3.4431
   37CHL1   H4B 3851   4.158   3.109   7.184 -0.9984 -0.8039  0.7993
   37CHL1    C5 3852   4.171   3.030   6.977  0.1066  0.3217 -0.1547
   37CHL1    C6 3853   4.194   3.151   6.929 -0.0752  1.0996 -0.3224
   37CHL1    H6 3854   4.192   3.240   6.993  0.2985  0.4107  0.6763
   37CHL1    C7 3855   4.214   3.178   6.786 -0.0696 -0.3217  0.3757
   37CHL1   H7A 3856   4.197   3.283   6.752 -2.9728 -1.0609 -0.7118
   37CHL1   H7B 3857   4.324   3.181   6.770 -0.3371  3.3704 -1.8642
   37CHL1    C8 3858   4.165   3.062   6.691  0.1963  0.4957 -0.7726
   37CHL1    H8 3859   4.054   3.066   6.686 -0.1715  0.0339  3.7068
   37CHL1   C14 3860   4.227   3.083   6.553 -0.2466  0.4006 -0.5279
   37CHL1   H14 3861   4.336   3.075   6.572 -0.4850 -1.6664  0.1939
   37CHL1   C15 3862   4.193   3.220   6.496  0.5900  0.0306  0.5823
   37CHL1  H15A 3863   4.089   3.255   6.511  0.5054  1.9935 -3.3083
   37CHL1  H15B 3864   4.265   3.298   6.529 -1.9224  3.9502 -2.2432
   37CHL1   C16 3865   4.223   3.203   6.342 -0.2425  0.5875 -0.2790
   37CHL1  H16A 3866   4.140   3.232   6.275  0.3589  0.1286 -1.2353
   37CHL1  H16B 3867   4.314   3.261   6.317  0.7566 -0.6763  0.2820
   37CHL1   C17 3868   4.254   3.050   6.320 -0.3374 -1.2663  0.0858
   37CHL1   H17 3869   4.365   3.045   6.324 -0.2326 -0.0147 -0.6276
   37CHL1   C13 3870   4.193   2.987   6.440  1.1868  0.0485 -0.3726
   37CHL1   C18 3871   4.044   2.986   6.421  0.3162  0.8004 -0.2969
   37CHL1  H18A 3872   3.990   2.976   6.518  1.5283 -1.4215  0.2119
   37CHL1  H18B 3873   4.005   3.076   6.369 -1.3051  0.8957  0.9743
   37CHL1  H18C 3874   4.011   2.903   6.354 -0.8757  0.5836  0.5232
   37CHL1   C12 3875   4.239   2.847   6.491 -0.0166  0.2712 -0.1104
   37CHL1  H12A 3876   4.210   2.774   6.413  2.0113  1.5153 -2.1589
   37CHL1  H12B 3877   4.350   2.843   6.495  0.1685  2.0107 -1.9060
   37CHL1   C11 3878   4.172   2.814   6.638 -0.5575  0.3131  0.7293
   37CHL1  H11A 3879   4.064   2.797   6.618  0.5606 -2.7400 -4.3599
   37CHL1  H11B 3880   4.209   2.713   6.667 -1.5890  0.1834  1.6597
   37CHL1    C9 3881   4.210   2.923   6.745 -0.1822 -0.0361  0.5136
   37CHL1    H9 3882   4.321   2.927   6.747 -0.2261  1.5318  1.5412
   37CHL1   C10 3883   4.158   2.897   6.898  0.3887  0.0783  1.1418
   37CHL1   C19 3884   4.014   2.852   6.907 -0.2372 -0.0595 -0.2959
   37CHL1  H19A 3885   3.993   2.820   7.011  1.9532  0.3676  0.3304
   37CHL1  H19B 3886   3.934   2.925   6.882 -0.6228  0.1860  1.5286
   37CHL1  H19C 3887   4.003   2.758   6.848 -0.0257  0.2418 -0.8286
   37CHL1    C1 3888   4.260   2.790   6.954 -0.3363 -0.6752 -1.3901
   37CHL1   H1A 3889   4.235   2.688   6.918 -1.3245 -0.6388 -0.8662
   37CHL1   H1B 3890   4.361   2.816   6.918  0.2060 -0.1219  0.4042
   37CHL1    C2 3891   4.260   2.789   7.112 -0.1734  0.2676  0.2189
   37CHL1   H2A 3892   4.339   2.730   7.162 -0.8510  0.3249  1.3907
   37CHL1   H2B 3893   4.174   2.734   7.157 -0.1055  0.9796  1.2666
   37CHL1   C20 3894   4.213   3.009   6.174 -0.6698  0.2403 -0.3421
   37CHL1   H20 3895   4.103   3.027   6.173 -0.4554  1.7525  0.5454
   37CHL1   C21 3896   4.243   2.861   6.158 -0.2221  0.1170 -0.0457
   37CHL1  H21A 3897   4.163   2.788   6.185 -0.2045 -0.0041 -0.3153
   37CHL1  H21B 3898   4.339   2.829   6.205 -1.5423 -2.9125  0.8859
   37CHL1  H21C 3899   4.263   2.831   6.053  1.0966  0.6014  0.0477
   37CHL1   C22 3900   4.277   3.097   6.069  0.2649 -0.4935 -0.6856
   37CHL1  H22A 3901   4.263   3.205   6.089 -0.6061 -0.9855  1.6360
   37CHL1  H22B 3902   4.385   3.072   6.080  0.5701  1.1920  0.5574
   37CHL1   C23 3903   4.224   3.072   5.928 -0.6164 -0.0551  0.9455
   37CHL1  H23A 3904   4.242   2.967   5.896  0.0213  0.0419  0.9670
   37CHL1  H23B 3905   4.120   3.110   5.940 -1.0742 -0.2611 -1.7671
   37CHL1   C24 3906   4.281   3.172   5.826  0.2625  0.1138  0.1396
   37CHL1  H24A 3907   4.283   3.275   5.868 -0.2112 -0.2117  1.0040
   37CHL1  H24B 3908   4.385   3.157   5.790 -0.2737 -0.3058 -1.3182
   37CHL1   C25 3909   4.188   3.190   5.700 -0.7277 -0.8636 -0.1062
   37CHL1   H25 3910   4.095   3.235   5.740  0.8329  3.0694 -0.5128
   37CHL1   C26 3911   4.258   3.276   5.592 -0.6051  0.7066  0.0939
   37CHL1  H26A 3912   4.282   3.376   5.635 -0.0754  0.5977  0.0583
   37CHL1  H26B 3913   4.347   3.230   5.544 -2.2905 -1.0392 -1.5346
   37CHL1  H26C 3914   4.190   3.288   5.504 -0.6951 -1.1321 -0.1148
   37CHL1   C27 3915   4.147   3.057   5.641 -0.1387  0.5439  0.2020
   37CHL1  H27A 3916   4.085   3.086   5.553  1.1694 -0.5358 -1.1368
   37CHL1  H27B 3917   4.239   3.010   5.601 -0.9530 -0.6242 -0.3870
   37CHL1  H27C 3918   4.088   2.993   5.710 -0.1202  1.3795  1.0053
   38CHL1    C3 3919   4.419   3.964   7.115 -0.4632  0.2092 -0.7174
   38CHL1    H3 3920   4.440   3.861   7.080 -2.2053  0.1699 -1.7782
   38CHL1    O3 3921   4.456   3.962   7.251  0.1093  0.2730 -0.1060
   38CHL1   H3' 3922   4.374   3.941   7.298  0.8457 -0.9577  0.6731
   38CHL1    C4 3923   4.501   4.081   7.051  0.3392 -0.1448 -0.1339
   38CHL1   H4A 3924   4.482   4.176   7.106  2.9108 -0.0767  0.8029
   38CHL1   H4B 3925   4.610   4.057   7.060  0.2309 -1.1135 -1.2201
   38CHL1    C5 3926   4.466   4.087   6.905  0.2857 -0.5836  0.8125
   38CHL1    C6 3927   4.563   4.085   6.812 -0.5361  0.3964  0.9048
   38CHL1    H6 3928   4.667   4.079   6.847  1.0942  0.4298 -3.3467
   38CHL1    C7 3929   4.538   4.087   6.665 -0.0817  0.0429 -0.1988
   38CHL1   H7A 3930   4.603   4.166   6.623 -0.4508  1.2970  1.4535
   38CHL1   H7B 3931   4.572   3.986   6.636 -0.5183  0.4323 -2.2336
   38CHL1    C8 3932   4.392   4.120   6.636  0.6697 -0.1662  0.3887
   38CHL1    H8 3933   4.374   4.228   6.652 -0.7786 -0.3841  0.3721
   38CHL1   C14 3934   4.353   4.094   6.483  0.5596 -0.3527  0.0420
   38CHL1   H14 3935   4.366   3.984   6.474 -0.5050 -0.4124 -1.1221
   38CHL1   C15 3936   4.447   4.170   6.376 -0.1878  0.3737  0.7192
   38CHL1  H15A 3937   4.450   4.273   6.416  2.5235  0.9803 -0.8311
   38CHL1  H15B 3938   4.548   4.126   6.363 -1.5469 -2.6932 -0.3771
   38CHL1   C16 3939   4.365   4.165   6.247  0.7008  0.2713  0.0027
   38CHL1  H16A 3940   4.353   4.273   6.222 -2.4482  0.2050  0.7912
   38CHL1  H16B 3941   4.415   4.120   6.158  0.5276 -1.3885  0.7200
   38CHL1   C17 3942   4.231   4.100   6.294 -0.8479  0.0904  0.4534
   38CHL1   H17 3943   4.253   3.991   6.285  0.3953  0.4621 -1.4097
   38CHL1   C13 3944   4.220   4.130   6.442 -0.2604 -0.3935 -0.5044
   38CHL1   C18 3945   4.189   4.288   6.454  0.1045 -0.0513  0.2290
   38CHL1  H18A 3946   4.201   4.322   6.559  0.6109  0.4787  0.0057
   38CHL1  H18B 3947   4.250   4.354   6.389 -1.1489  2.6481  1.6118
   38CHL1  H18C 3948   4.083   4.313   6.434  0.0204  0.0625  0.7890
   38CHL1   C12 3949   4.118   4.044   6.525 -0.6322  0.6856  0.4423
   38CHL1  H12A 3950   4.013   4.072   6.503 -1.1413  0.0151  1.9648
   38CHL1  H12B 3951   4.124   3.938   6.493 -1.0029  0.6622  0.4428
   38CHL1   C11 3952   4.138   4.059   6.675  0.5092 -0.3788 -0.1105
   38CHL1  H11A 3953   4.105   4.162   6.700  0.5551 -0.9302  2.4886
   38CHL1  H11B 3954   4.068   4.001   6.739 -1.3833  2.2328  0.3596
   38CHL1    C9 3955   4.288   4.044   6.727  0.0060  0.1072 -0.0388
   38CHL1    H9 3956   4.307   3.936   6.709 -0.8940  0.2817 -2.2408
   38CHL1   C10 3957   4.310   4.079   6.877 -0.9130  0.8122  0.1629
   38CHL1   C19 3958   4.246   4.218   6.906 -0.7560 -0.1418  0.4561
   38CHL1  H19A 3959   4.138   4.215   6.881 -0.2915 -2.8224 -1.7568
   38CHL1  H19B 3960   4.264   4.246   7.011  0.9318 -0.1241  0.1912
   38CHL1  H19C 3961   4.300   4.296   6.848 -0.8758  0.5127  1.2207
   38CHL1    C1 3962   4.231   3.973   6.957 -0.4305  0.5840 -0.0579
   38CHL1   H1A 3963   4.123   3.999   6.957 -0.5986 -0.0894 -0.4738
   38CHL1   H1B 3964   4.242   3.877   6.901 -1.3770 -0.4512  1.4547
   38CHL1    C2 3965   4.267   3.978   7.106  0.0178  0.5949  0.0627
   38CHL1   H2A 3966   4.222   3.893   7.162  1.4593  0.8391  1.6852
   38CHL1   H2B 3967   4.222   4.067   7.155 -1.8559 -1.1397  1.6955
   38CHL1   C20 3968   4.101   4.131   6.215  0.0943  0.9283 -0.5218
   38CHL1   H20 3969   4.032   4.182   6.285  0.7813 -0.6821  1.4510
   38CHL1   C21 3970   4.032   3.991   6.177 -0.4377 -0.6311  0.5265
   38CHL1  H21A 3971   4.096   3.926   6.114 -0.8776 -0.7378  0.1777
   38CHL1  H21B 3972   3.942   4.007   6.113 -1.2496 -2.7240  1.0710
   38CHL1  H21C 3973   4.005   3.924   6.261  1.5991 -0.0678  1.6840
   38CHL1   C22 3974   4.107   4.212   6.086 -0.6742 -0.9123 -0.2504
   38CHL1  H22A 3975   4.203   4.178   6.041 -0.3380  0.0558 -0.2848
   38CHL1  H22B 3976   4.026   4.201   6.011 -1.4518 -0.8574  0.5613
   38CHL1   C23 3977   4.114   4.361   6.119 -0.2904 -0.4377 -0.0774
   38CHL1  H23A 3978   4.014   4.389   6.157 -1.2089 -0.3889 -2.3565
   38CHL1  H23B 3979   4.192   4.370   6.197 -2.2432  2.9734  1.6843
   38CHL1   C24 3980   4.156   4.455   6.007  0.0357 -1.1919  0.1627
   38CHL1  H24A 3981   4.091   4.439   5.918 -0.8382 -0.3707  0.6301
   38CHL1  H24B 3982   4.143   4.560   6.043 -1.7057 -1.1335 -0.5088
   38CHL1   C25 3983   4.308   4.442   5.973 -0.6401 -0.3672  0.1247
   38CHL1   H25 3984   4.332   4.334   5.957  0.7637  0.0818 -1.0474
   38CHL1   C26 3985   4.334   4.491   5.832  0.0587  0.1223 -1.0150
   38CHL1  H26A 3986   4.315   4.599   5.846 -0.4832 -0.3793  3.9173
   38CHL1  H26B 3987   4.440   4.477   5.800 -0.3594 -1.4519 -1.8317
   38CHL1  H26C 3988   4.263   4.444   5.760  1.7396 -1.5211 -1.7147
   38CHL1   C27 3989   4.411   4.500   6.065 -0.6915  0.4085  0.2487
   38CHL1  H27A 3990   4.415   4.611   6.073 -1.4868  0.3758  1.4166
   38CHL1  H27B 3991   4.421   4.458   6.168  0.0658 -0.6300 -0.2367
   38CHL1  H27C 3992   4.502   4.461   6.015 -1.1348  1.3686 -1.3532
   39CHL1    C3 3993   5.703   5.170   7.310  0.6370  0.4413 -0.1276
   39CHL1    H3 3994   5.797   5.223   7.336  2.8764 -3.0778 -0.3141
   39CHL1    O3 3995   5.651   5.094   7.420  0.5957 -0.2163  0.2367
   39CHL1   H3' 3996   5.578   5.043   7.384 -0.2914  0.6892  0.6792
   39CHL1    C4 3997   5.599   5.269   7.264  1.0167  0.0138 -0.1729
   39CHL1   H4A 3998   5.500   5.219   7.257 -0.0900  1.9978  0.4031
   39CHL1   H4B 3999   5.584   5.338   7.350 -3.1884  0.0836 -0.7557
   39CHL1    C5 4000   5.623   5.334   7.133 -0.2401  0.7960  0.0457
   39CHL1    C6 4001   5.615   5.464   7.116 -0.4862 -0.7794  0.2148
   39CHL1    H6 4002   5.582   5.525   7.200  1.4567 -0.6878  0.9773
   39CHL1    C7 4003   5.644   5.534   6.990 -0.0565  0.8195 -0.7398
   39CHL1   H7A 4004   5.572   5.617   6.972 -0.7690  0.0792 -1.3728
   39CHL1   H7B 4005   5.742   5.585   7.000  0.9254 -1.0656 -0.4214
   39CHL1    C8 4006   5.652   5.443   6.864  0.4313  0.0699  0.1037
   39CHL1    H8 4007   5.542   5.438   6.853  0.3538 -0.0327  0.8538
   39CHL1   C14 4008   5.712   5.508   6.744 -0.2096 -0.1174 -0.1668
   39CHL1   H14 4009   5.821   5.523   6.761 -0.1949 -0.4822  0.0575
   39CHL1   C15 4010   5.654   5.643   6.701 -0.2828  0.5090  0.3968
   39CHL1  H15A 4011   5.544   5.628   6.714 -0.5000  0.4825 -1.2768
   39CHL1  H15B 4012   5.686   5.721   6.774  0.6896 -1.0170  1.6782
   39CHL1   C16 4013   5.689   5.653   6.553 -0.5360 -0.0210  0.0531
   39CHL1  H16A 4014   5.595   5.681   6.501 -1.0278  0.9106  1.3809
   39CHL1  H16B 4015   5.756   5.739   6.532 -1.6010  0.9973  0.7506
   39CHL1   C17 4016   5.742   5.517   6.508 -0.5416 -0.9710  0.0049
   39CHL1   H17 4017   5.852   5.526   6.509 -0.7016  1.9102  0.0677
   39CHL1   C13 4018   5.703   5.419   6.619 -0.2710 -0.5257 -0.2475
   39CHL1   C18 4019   5.551   5.390   6.593  0.3132 -0.3186 -0.4636
   39CHL1  H18A 4020   5.531   5.327   6.504  1.6450 -3.2780  1.1964
   39CHL1  H18B 4021   5.510   5.335   6.680  0.4314 -0.9286 -0.7913
   39CHL1  H18C 4022   5.492   5.484   6.581  0.1692 -0.2256  0.7720
   39CHL1   C12 4023   5.792   5.293   6.654  0.5769  0.3939  0.5650
   39CHL1  H12A 4024   5.794   5.233   6.560 -2.3025  2.1335 -0.7179
   39CHL1  H12B 4025   5.894   5.325   6.683  1.4193  0.0410 -1.7818
   39CHL1   C11 4026   5.738   5.213   6.771  0.3427 -0.0833 -0.6219
   39CHL1  H11A 4027   5.647   5.159   6.736  0.5869 -1.1932  0.3899
   39CHL1  H11B 4028   5.807   5.130   6.795 -0.1998 -0.2198  0.5447
   39CHL1    C9 4029   5.717   5.310   6.895 -0.6464  0.0387 -0.4162
   39CHL1    H9 4030   5.824   5.334   6.911 -0.2184 -2.0225  0.1863
   39CHL1   C10 4031   5.665   5.232   7.025 -0.1517 -0.3491  1.0333
   39CHL1   C19 4032   5.540   5.156   6.983 -0.5419 -0.0403  0.0514
   39CHL1  H19A 4033   5.558   5.068   6.917 -0.7672  0.6688 -0.9819
   39CHL1  H19B 4034   5.497   5.107   7.073  0.8327  1.1273  1.4019
   39CHL1  H19C 4035   5.470   5.233   6.945 -0.5611  0.0679  0.3035
   39CHL1    C1 4036   5.772   5.151   7.077 -0.5690 -0.2056 -1.0176
   39CHL1   H1A 4037   5.795   5.081   6.993  1.4900  0.6705 -1.2490
   39CHL1   H1B 4038   5.853   5.226   7.092 -1.7597  1.0715 -0.8169
   39CHL1    C2 4039   5.746   5.072   7.204  0.0004 -0.0445 -0.1319
   39CHL1   H2A 4040   5.837   5.021   7.243  0.4243  0.7667 -0.0359
   39CHL1   H2B 4041   5.670   4.994   7.182 -2.0113  1.9357 -0.5173
   39CHL1   C20 4042   5.698   5.481   6.366 -0.0906 -0.5765  0.2496
   39CHL1   H20 4043   5.587   5.474   6.362 -0.0699 -0.6179 -0.2487
   39CHL1   C21 4044   5.775   5.354   6.319  0.6215  0.1408  0.6072
   39CHL1  H21A 4045   5.735   5.261   6.367  0.0706 -1.7910 -3.2316
   39CHL1  H21B 4046   5.882   5.360   6.347  0.8613 -1.0497 -0.0013
   39CHL1  H21C 4047   5.767   5.337   6.210 -0.5868 -1.0436  0.8401
   39CHL1   C22 4048   5.747   5.593   6.271  1.0967 -0.4315  0.1828
   39CHL1  H22A 4049   5.719   5.694   6.310  1.6062  0.2546 -1.1701
   39CHL1  H22B 4050   5.857   5.582   6.281  1.0292  0.4493  2.5053
   39CHL1   C23 4051   5.691   5.587   6.126 -0.6983 -0.2230 -0.2685
   39CHL1  H23A 4052   5.714   5.486   6.086  4.1700  0.8942 -0.9457
   39CHL1  H23B 4053   5.580   5.592   6.115 -0.6381 -1.1047 -1.5733
   39CHL1   C24 4054   5.754   5.692   6.029 -0.2256 -0.5498  0.3318
   39CHL1  H24A 4055   5.701   5.787   6.051  0.6028  0.0668 -0.3019
   39CHL1  H24B 4056   5.858   5.725   6.051 -0.3670  1.6995 -1.8895
   39CHL1   C25 4057   5.741   5.658   5.882  0.3668 -0.7009 -0.2851
   39CHL1   H25 4058   5.772   5.745   5.820  1.1796  0.3422  1.5041
   39CHL1   C26 4059   5.838   5.545   5.839  0.5499  0.4485  0.0707
   39CHL1  H26A 4060   5.868   5.558   5.733 -1.3584  2.3428 -0.3046
   39CHL1  H26B 4061   5.922   5.538   5.911  0.8021 -1.0940 -0.3322
   39CHL1  H26C 4062   5.780   5.451   5.851  1.9492 -0.9484 -3.1130
   39CHL1   C27 4063   5.593   5.637   5.838 -0.0612  0.5585  0.0563
   39CHL1  H27A 4064   5.573   5.682   5.739  0.8821  0.7307 -0.0656
   39CHL1  H27B 4065   5.582   5.527   5.829 -0.9100  0.5595  0.9120
   39CHL1  H27C 4066   5.517   5.673   5.910  0.7544  1.5341  0.4637
   40CHL1    C3 4067   5.913   0.045   7.515 -0.5375  0.8111 -0.1917
   40CHL1    H3 4068   6.017   0.009   7.499  0.0609  3.2609 -2.5363
   40CHL1    O3 4069   5.885   0.057   7.650  0.2993 -0.0144 -0.8369
   40CHL1   H3' 4070   5.790   0.071   7.654  0.2275 -0.6673  0.0683
   40CHL1    C4 4071   5.890   0.175   7.447 -0.0280  0.4439  0.0388
   40CHL1   H4A 4072   5.781   0.187   7.465 -0.5043  0.4143 -2.4345
   40CHL1   H4B 4073   5.945   0.254   7.502  0.1546  0.0584  0.4165
   40CHL1    C5 4074   5.916   0.163   7.298 -1.4688 -0.0349  0.0131
   40CHL1    C6 4075   6.008   0.238   7.234 -0.5638 -0.0332  0.1007
   40CHL1    H6 4076   6.060   0.314   7.295 -0.2622  1.0067 -1.3922
   40CHL1    C7 4077   6.035   0.232   7.089 -0.0623  0.4091 -0.5808
   40CHL1   H7A 4078   6.050   0.335   7.052  0.2955  1.4654  2.3031
   40CHL1   H7B 4079   6.125   0.168   7.072 -2.0150 -2.1858 -1.9258
   40CHL1    C8 4080   5.910   0.180   7.010 -0.4174  0.0668 -0.5294
   40CHL1    H8 4081   5.837   0.261   7.033  0.1325  0.6243 -0.7244
   40CHL1   C14 4082   5.944   0.155   6.864 -0.5095  0.3744  0.1471
   40CHL1   H14 4083   6.029   0.083   6.865 -0.8615 -0.0497 -0.0844
   40CHL1   C15 4084   5.996   0.269   6.787 -0.1386  0.3522 -0.1961
   40CHL1  H15A 4085   5.945   0.365   6.811  2.7920  1.7295  0.9572
   40CHL1  H15B 4086   6.101   0.290   6.815 -0.4627  0.7730  0.7617
   40CHL1   C16 4087   5.979   0.232   6.640  0.6274  0.3402 -0.4554
   40CHL1  H16A 4088   5.915   0.316   6.604 -0.4953 -0.6969 -0.9450
   40CHL1  H16B 4089   6.073   0.219   6.583  0.6252 -1.5682 -0.0649
   40CHL1   C17 4090   5.896   0.091   6.636 -0.2805 -0.3172  0.4756
   40CHL1   H17 4091   5.975   0.013   6.629 -0.1944 -0.0604 -3.1078
   40CHL1   C13 4092   5.836   0.088   6.781  0.0747 -0.4529  0.1405
   40CHL1   C18 4093   5.713   0.187   6.781  0.1725 -1.1483 -0.0318
   40CHL1  H18A 4094   5.663   0.197   6.880 -1.5329 -0.0799 -0.9542
   40CHL1  H18B 4095   5.738   0.290   6.749 -1.0182 -1.0890 -0.8423
   40CHL1  H18C 4096   5.640   0.142   6.710 -0.3995  1.7795 -1.4468
   40CHL1   C12 4097   5.807  -0.052   6.838  0.0175 -0.3963 -0.0701
   40CHL1  H12A 4098   5.729  -0.113   6.789 -1.7569 -0.3765  2.5283
   40CHL1  H12B 4099   5.901  -0.110   6.831  1.5695  1.8997  0.2777
   40CHL1   C11 4100   5.765  -0.033   6.987  0.3837 -0.1927  0.0672
   40CHL1  H11A 4101   5.658  -0.002   6.985  0.4277  0.0809  1.3100
   40CHL1  H11B 4102   5.760  -0.138   7.023  2.0958 -1.4822 -3.0108
   40CHL1    C9 4103   5.875   0.041   7.070  0.7680 -0.0557  1.1124
   40CHL1    H9 4104   5.968  -0.020   7.073  0.7529 -0.1015  0.6110
   40CHL1   C10 4105   5.829   0.055   7.218  0.1026  0.1516 -0.0715
   40CHL1   C19 4106   5.675   0.099   7.222  0.1678  0.2119  0.0593
   40CHL1  H19A 4107   5.611   0.008   7.212  0.4970  0.0907 -1.1189
   40CHL1  H19B 4108   5.659   0.156   7.316  1.5657  0.7532 -0.0043
   40CHL1  H19C 4109   5.653   0.163   7.134 -0.6557  2.5536  1.8768
   40CHL1    C1 4110   5.842  -0.078   7.293  0.5161 -0.8663 -0.2409
   40CHL1   H1A 4111   5.758  -0.148   7.273  0.8490 -0.7746 -2.1607
   40CHL1   H1B 4112   5.936  -0.131   7.267  0.1556 -0.8757 -1.6523
   40CHL1    C2 4113   5.826  -0.064   7.448 -0.3786 -0.0904 -1.2784
   40CHL1   H2A 4114   5.837  -0.163   7.496  2.3419 -0.1003 -1.8031
   40CHL1   H2B 4115   5.724  -0.025   7.469  0.3475  1.3666 -0.2667
   40CHL1   C20 4116   5.800   0.076   6.512  0.6992  0.2208  0.7721
   40CHL1   H20 4117   5.721   0.154   6.518  1.8672  1.6414 -0.9273
   40CHL1   C21 4118   5.746  -0.066   6.500 -0.2879  0.3285 -0.0857
   40CHL1  H21A 4119   5.706  -0.106   6.596 -0.0152  0.5451  0.1178
   40CHL1  H21B 4120   5.823  -0.128   6.450 -2.4664 -0.7638 -2.2975
   40CHL1  H21C 4121   5.661  -0.071   6.428  0.2263  2.7190 -0.9862
   40CHL1   C22 4122   5.877   0.111   6.379  0.2265 -0.6731 -0.1475
   40CHL1  H22A 4123   5.898   0.219   6.393  3.1161 -1.4623  2.9118
   40CHL1  H22B 4124   5.968   0.047   6.380  0.6377 -0.2374  3.3665
   40CHL1   C23 4125   5.806   0.085   6.246 -0.4292 -0.5526  0.2525
   40CHL1  H23A 4126   5.779  -0.023   6.238  2.5016 -1.3503  0.0540
   40CHL1  H23B 4127   5.717   0.151   6.244 -0.1445 -0.1206  1.2383
   40CHL1   C24 4128   5.907   0.110   6.132  0.5900  0.4232 -0.1346
   40CHL1  H24A 4129   5.925   0.219   6.122 -1.3884  0.7285 -0.7307
   40CHL1  H24B 4130   6.002   0.053   6.141  1.3885  1.8363  0.8064
   40CHL1   C25 4131   5.843   0.048   5.999 -1.3656  0.8357  0.6500
   40CHL1   H25 4132   5.747   0.100   5.983 -2.1781 -0.3757  1.4570
   40CHL1   C26 4133   5.923   0.097   5.877  0.3863  0.2532 -0.0625
   40CHL1  H26A 4134   6.026   0.067   5.904 -0.4608 -3.7927 -0.6954
   40CHL1  H26B 4135   5.880   0.045   5.789  2.6534  0.7474 -1.5516
   40CHL1  H26C 4136   5.912   0.207   5.864 -0.1575  0.0711 -1.3076
   40CHL1   C27 4137   5.827  -0.111   5.995 -0.0435  0.2519  0.1154
   40CHL1  H27A 4138   5.919  -0.166   6.023  1.2617  2.8500  1.3502
   40CHL1  H27B 4139   5.744  -0.140   6.063  0.1574 -0.5581  0.0214
   40CHL1  H27C 4140   5.794  -0.147   5.896 -1.2155  0.9305  0.2344
   41CHL1    C3 4141   6.683   0.846   7.123  0.6399 -0.6170  0.4971
   41CHL1    H3 4142   6.699   0.956   7.121 -1.3449 -0.2997 -0.3118
   41CHL1    O3 4143   6.659   0.820   7.263 -0.3518 -1.1323  0.6640
   41CHL1   H3' 4144   6.573   0.855   7.285  0.5577  1.0284  1.0379
   41CHL1    C4 4145   6.554   0.813   7.046 -0.1834  0.9117 -0.4017
   41CHL1   H4A 4146   6.526   0.708   7.069  1.1013  0.6076 -0.1587
   41CHL1   H4B 4147   6.475   0.879   7.087  1.1306  2.0058  0.4576
   41CHL1    C5 4148   6.565   0.816   6.895 -0.3674 -0.1633  0.0528
   41CHL1    C6 4149   6.475   0.891   6.821 -0.2091 -0.3968  0.1683
   41CHL1    H6 4150   6.386   0.941   6.862  0.2124  0.5599 -0.0607
   41CHL1    C7 4151   6.499   0.898   6.674  0.3502 -0.4837  0.3923
   41CHL1   H7A 4152   6.405   0.895   6.615  0.4079 -0.7252  0.3107
   41CHL1   H7B 4153   6.565   0.985   6.655 -0.4966  0.1392  0.2212
   41CHL1    C8 4154   6.583   0.796   6.604 -0.0610  0.5506  0.0657
   41CHL1    H8 4155   6.525   0.702   6.594 -2.3550  2.0158 -1.5299
   41CHL1   C14 4156   6.626   0.837   6.467 -0.3977 -0.8418  0.4370
   41CHL1   H14 4157   6.696   0.923   6.480 -0.0007 -0.8196 -1.4538
   41CHL1   C15 4158   6.523   0.904   6.365  0.5459  0.4020  0.4872
   41CHL1  H15A 4159   6.428   0.848   6.356 -0.5297  2.1218  0.6443
   41CHL1  H15B 4160   6.505   1.009   6.396  2.2312  0.8986 -0.0807
   41CHL1   C16 4161   6.608   0.903   6.232  1.0306 -1.2616 -0.2386
   41CHL1  H16A 4162   6.551   0.853   6.151  0.3927  1.0962 -1.3466
   41CHL1  H16B 4163   6.617   1.008   6.198 -0.6858 -1.0506 -0.1069
   41CHL1   C17 4164   6.739   0.825   6.256  0.0386  0.3930 -0.1669
   41CHL1   H17 4165   6.812   0.902   6.287 -1.2712  1.8393 -0.5254
   41CHL1   C13 4166   6.709   0.738   6.380  0.4948 -0.8797 -0.4899
   41CHL1   C18 4167   6.618   0.612   6.343  0.2625  0.3301  0.2769
   41CHL1  H18A 4168   6.574   0.564   6.433  1.3311 -0.0424  0.6148
   41CHL1  H18B 4169   6.529   0.640   6.283  1.0759 -3.1052 -2.9232
   41CHL1  H18C 4170   6.671   0.527   6.294 -0.2830 -0.9168  1.7780
   41CHL1   C12 4171   6.839   0.703   6.459  0.1946 -0.5450 -0.4556
   41CHL1  H12A 4172   6.905   0.625   6.416  0.7511 -0.3815  0.0931
   41CHL1  H12B 4173   6.897   0.797   6.470 -2.5161  1.3940 -1.4202
   41CHL1   C11 4174   6.793   0.667   6.606 -0.1860  0.4230  0.5333
   41CHL1  H11A 4175   6.739   0.570   6.606 -3.1093  1.9278 -0.7413
   41CHL1  H11B 4176   6.888   0.656   6.663  0.0475  1.2684  0.3177
   41CHL1    C9 4177   6.716   0.778   6.681  0.3267  0.0731  0.0466
   41CHL1    H9 4178   6.772   0.874   6.673 -1.6500  1.3292  0.6155
   41CHL1   C10 4179   6.683   0.742   6.833  0.0056  0.1120 -0.1407
   41CHL1   C19 4180   6.640   0.591   6.837  0.0853  0.4059  0.2593
   41CHL1  H19A 4181   6.547   0.571   6.779  0.4261 -1.6792  0.3483
   41CHL1  H19B 4182   6.726   0.527   6.806  0.2260  0.4293  0.6045
   41CHL1  H19C 4183   6.626   0.561   6.943  0.1475  2.7378  0.9773
   41CHL1    C1 4184   6.812   0.767   6.915 -0.0218  0.3985  0.4230
   41CHL1   H1A 4185   6.893   0.703   6.874  3.7715  1.9006  4.6628
   41CHL1   H1B 4186   6.846   0.871   6.895  0.1600  0.2531 -0.0344
   41CHL1    C2 4187   6.792   0.760   7.068 -0.1992  0.0114 -0.1344
   41CHL1   H2A 4188   6.889   0.793   7.111 -0.4978  0.7031  0.0256
   41CHL1   H2B 4189   6.771   0.652   7.086  1.0831 -0.4500 -1.1915
   41CHL1   C20 4190   6.802   0.767   6.128  0.7491  0.1622  0.2377
   41CHL1   H20 4191   6.882   0.698   6.161 -1.1997 -1.9843  0.7530
   41CHL1   C21 4192   6.857   0.884   6.046  0.1026  0.0434 -0.0095
   41CHL1  H21A 4193   6.776   0.952   6.014 -0.8263  0.1084  2.3300
   41CHL1  H21B 4194   6.907   0.854   5.951 -0.2727  3.4782 -1.4323
   41CHL1  H21C 4195   6.942   0.939   6.092  0.2886  1.9183 -2.3707
   41CHL1   C22 4196   6.709   0.686   6.035  0.4995 -0.0375 -0.2028
   41CHL1  H22A 4197   6.630   0.639   6.097  1.0180  0.3184  0.7494
   41CHL1  H22B 4198   6.664   0.765   5.972  1.2685  1.7765  1.4283
   41CHL1   C23 4199   6.788   0.591   5.943  0.2138  1.2520  0.0915
   41CHL1  H23A 4200   6.880   0.638   5.901  1.1126  0.2068  0.8259
   41CHL1  H23B 4201   6.809   0.501   6.005 -1.3263  1.9617  1.7507
   41CHL1   C24 4202   6.700   0.532   5.826 -0.1496 -0.7430  0.0488
   41CHL1  H24A 4203   6.602   0.501   5.868  0.1366  1.9695  3.0810
   41CHL1  H24B 4204   6.681   0.616   5.756  0.6015  0.0622  0.7853
   41CHL1   C25 4205   6.763   0.421   5.739  0.2966 -0.5291  0.1459
   41CHL1   H25 4206   6.858   0.446   5.688 -0.4639  0.4654 -0.8305
   41CHL1   C26 4207   6.792   0.290   5.815 -0.3474 -0.0517 -0.1895
   41CHL1  H26A 4208   6.840   0.309   5.913  1.3435 -1.1326 -0.7708
   41CHL1  H26B 4209   6.697   0.240   5.841 -0.2326 -0.1803 -0.0185
   41CHL1  H26C 4210   6.851   0.216   5.756 -0.3545  0.0224 -0.2894
   41CHL1   C27 4211   6.672   0.390   5.620  0.5292  0.0655 -0.5064
   41CHL1  H27A 4212   6.662   0.479   5.554  0.8202 -0.8400 -1.8241
   41CHL1  H27B 4213   6.712   0.299   5.570 -2.1324 -1.7129  0.3942
   41CHL1  H27C 4214   6.573   0.354   5.656  1.2263  0.1636  1.6623
   42CHL1    C3 4215   1.374   0.768   7.658  0.1681  0.4232  0.2963
   42CHL1    H3 4216   1.462   0.768   7.590 -0.8428  0.0576 -1.0577
   42CHL1    O3 4217   1.424   0.816   7.779 -1.0007 -0.9318 -0.2658
   42CHL1   H3' 4218   1.352   0.802   7.841  0.4706 -1.7341  1.3490
   42CHL1    C4 4219   1.270   0.867   7.596  0.0614  0.3436  0.2933
   42CHL1   H4A 4220   1.179   0.879   7.659  0.2682  0.2684  0.6061
   42CHL1   H4B 4221   1.311   0.970   7.605  1.9379  0.0868 -3.3563
   42CHL1    C5 4222   1.245   0.811   7.459  0.4625  0.5841 -0.1532
   42CHL1    C6 4223   1.280   0.881   7.348  0.1358  0.3288  0.2277
   42CHL1    H6 4224   1.330   0.977   7.369  0.6470 -0.4039  2.6941
   42CHL1    C7 4225   1.256   0.840   7.204 -0.4595  0.0722 -0.3214
   42CHL1   H7A 4226   1.211   0.919   7.141  0.1763 -2.1277 -3.7988
   42CHL1   H7B 4227   1.347   0.804   7.151 -0.0064 -2.9372  2.1788
   42CHL1    C8 4228   1.159   0.724   7.197 -0.0937 -0.2237 -0.1363
   42CHL1    H8 4229   1.058   0.766   7.214  0.4616  0.7576  0.7997
   42CHL1   C14 4230   1.163   0.660   7.058  0.0695  0.0686 -0.1348
   42CHL1   H14 4231   1.267   0.623   7.042  1.3361  2.3261  2.2265
   42CHL1   C15 4232   1.133   0.748   6.937  0.5187 -0.7426 -0.6395
   42CHL1  H15A 4233   1.047   0.815   6.961 -2.7929 -4.5370 -0.7512
   42CHL1  H15B 4234   1.223   0.807   6.911  1.9738 -2.2580  0.7568
   42CHL1   C16 4235   1.095   0.663   6.818  0.1204  0.8630  0.3902
   42CHL1  H16A 4236   0.994   0.695   6.786 -0.1346  1.6172  1.8504
   42CHL1  H16B 4237   1.169   0.666   6.735  1.0065 -0.9580  1.0545
   42CHL1   C17 4238   1.091   0.513   6.884 -0.0102  0.5581 -0.0423
   42CHL1   H17 4239   1.190   0.467   6.864 -1.1277 -1.6793 -0.8591
   42CHL1   C13 4240   1.065   0.539   7.034 -0.9285 -0.5578 -0.4867
   42CHL1   C18 4241   0.912   0.573   7.047  0.0174 -0.7002  0.0236
   42CHL1  H18A 4242   0.904   0.623   7.146 -1.4425 -0.6819 -0.0957
   42CHL1  H18B 4243   0.879   0.654   6.979 -0.5317 -0.7443  0.2329
   42CHL1  H18C 4244   0.848   0.482   7.047 -0.8302 -0.1224  0.6245
   42CHL1   C12 4245   1.107   0.434   7.145 -0.1251 -0.1253 -0.7384
   42CHL1  H12A 4246   1.030   0.353   7.143 -0.5223  0.2279  0.0655
   42CHL1  H12B 4247   1.210   0.397   7.127  0.2099  1.6269 -2.7864
   42CHL1   C11 4248   1.111   0.490   7.289  0.1880 -0.1124  0.1347
   42CHL1  H11A 4249   1.002   0.506   7.305  0.2132 -0.2929  0.5006
   42CHL1  H11B 4250   1.155   0.420   7.363 -1.3227 -0.1094  1.0848
   42CHL1    C9 4251   1.190   0.617   7.304  0.5024 -0.2399 -0.1016
   42CHL1    H9 4252   1.297   0.592   7.286  0.9333  0.1339  1.7540
   42CHL1   C10 4253   1.184   0.673   7.451 -0.8019  0.2064  0.3384
   42CHL1   C19 4254   1.042   0.685   7.501 -0.1850 -0.7376 -0.3272
   42CHL1  H19A 4255   0.973   0.601   7.480 -0.0058 -1.2875  1.1790
   42CHL1  H19B 4256   1.054   0.690   7.611  0.5703 -1.8200 -0.3422
   42CHL1  H19C 4257   1.003   0.785   7.472  2.1006  0.7836  1.4762
   42CHL1    C1 4258   1.263   0.570   7.542  0.0146 -0.0627  0.3331
   42CHL1   H1A 4259   1.200   0.481   7.561  0.5403 -0.5014  0.0537
   42CHL1   H1B 4260   1.352   0.533   7.485 -1.6631  0.6896 -3.0588
   42CHL1    C2 4261   1.318   0.624   7.675 -0.2688  0.1255 -0.0495
   42CHL1   H2A 4262   1.397   0.559   7.718  0.2266 -0.3888 -1.6946
   42CHL1   H2B 4263   1.235   0.636   7.749 -0.3307  2.0070 -0.3630
   42CHL1   C20 4264   0.992   0.417   6.810 -0.4225 -0.5295 -0.3501
   42CHL1   H20 4265   0.887   0.439   6.838 -0.2518  0.6679 -0.5929
   42CHL1   C21 4266   1.043   0.275   6.838  0.0740 -0.5703  0.1569
   42CHL1  H21A 4267   0.973   0.210   6.781 -1.3495  1.8448 -1.0043
   42CHL1  H21B 4268   1.026   0.254   6.945 -0.6985 -0.9995 -0.0420
   42CHL1  H21C 4269   1.148   0.256   6.805 -0.3678 -3.9698  0.3044
   42CHL1   C22 4270   0.988   0.442   6.656  0.5569  0.3145 -0.7044
   42CHL1  H22A 4271   0.967   0.550   6.642 -4.2269  0.0631  2.3798
   42CHL1  H22B 4272   1.084   0.408   6.611  2.7610  2.9513  1.6629
   42CHL1   C23 4273   0.877   0.357   6.580  0.1573 -0.2507 -0.3381
   42CHL1  H23A 4274   0.898   0.248   6.588 -1.9365 -0.7470 -1.1136
   42CHL1  H23B 4275   0.784   0.379   6.636 -0.3932  1.1551 -1.7214
   42CHL1   C24 4276   0.846   0.408   6.436 -0.1456 -0.8540 -0.2955
   42CHL1  H24A 4277   0.829   0.517   6.437  1.6501 -0.5026 -2.0970
   42CHL1  H24B 4278   0.941   0.392   6.382  1.9113  2.7297  1.8797
   42CHL1   C25 4279   0.734   0.328   6.352 -0.2370 -0.4502 -0.0090
   42CHL1   H25 4280   0.763   0.221   6.353  0.2319 -0.3226  0.0848
   42CHL1   C26 4281   0.597   0.343   6.422 -0.4498 -0.6836 -0.2500
   42CHL1  H26A 4282   0.576   0.451   6.415 -1.6601 -0.9406 -0.8037
   42CHL1  H26B 4283   0.514   0.303   6.360 -0.0154  0.8852 -1.9484
   42CHL1  H26C 4284   0.591   0.311   6.528 -0.1527  2.4227  0.8017
   42CHL1   C27 4285   0.742   0.381   6.212  0.4310 -0.0516  0.2137
   42CHL1  H27A 4286   0.739   0.490   6.196  1.9582  0.1100  0.7928
   42CHL1  H27B 4287   0.840   0.348   6.169  0.9476  1.4379  0.2142
   42CHL1  H27C 4288   0.662   0.332   6.152 -0.5068  0.5592  0.9442
   43CHL1    C3 4289   6.331   3.261   7.305 -0.2060 -0.5161 -0.0615
   43CHL1    H3 4290   6.306   3.368   7.323  1.6089 -0.4581  2.6251
   43CHL1    O3 4291   6.387   3.207   7.423  0.3345 -0.1225 -0.8318
   43CHL1   H3' 4292   6.433   3.280   7.466 -0.4603  0.6539 -1.2655
   43CHL1    C4 4293   6.204   3.177   7.268  0.6175 -0.5552  0.1369
   43CHL1   H4A 4294   6.234   3.070   7.274 -0.0498 -0.6809  3.2795
   43CHL1   H4B 4295   6.131   3.194   7.350  1.5285  0.7439  0.7174
   43CHL1    C5 4296   6.149   3.226   7.138 -0.1418 -0.1925  0.6206
   43CHL1    C6 4297   6.025   3.277   7.118  0.7690  0.2255  0.5404
   43CHL1    H6 4298   5.952   3.279   7.200  0.2828 -1.7187  0.1956
   43CHL1    C7 4299   5.970   3.312   6.985  0.2391  0.7797  0.2492
   43CHL1   H7A 4300   5.865   3.278   6.975  0.9348 -1.1029 -1.3301
   43CHL1   H7B 4301   5.956   3.422   6.989 -0.9764  0.6515  0.0257
   43CHL1    C8 4302   6.043   3.256   6.864  0.0446  0.1841 -0.5693
   43CHL1    H8 4303   6.033   3.145   6.857  0.7301  0.0646  0.2274
   43CHL1   C14 4304   5.983   3.309   6.732 -0.2875 -0.2212 -0.2024
   43CHL1   H14 4305   5.970   3.419   6.742 -2.5728  0.0412 -3.9653
   43CHL1   C15 4306   5.837   3.272   6.687 -0.2414 -0.9258  0.7443
   43CHL1  H15A 4307   5.837   3.161   6.684 -0.0711 -0.9204  0.5212
   43CHL1  H15B 4308   5.757   3.314   6.751 -1.2210  2.9502 -2.6003
   43CHL1   C16 4309   5.833   3.316   6.540 -0.3209 -0.0619 -0.0154
   43CHL1  H16A 4310   5.796   3.241   6.467  4.0676  0.0414 -2.7166
   43CHL1  H16B 4311   5.769   3.407   6.533  1.9560  1.7090  0.9329
   43CHL1   C17 4312   5.982   3.345   6.499 -0.0215  0.2464  0.4692
   43CHL1   H17 4313   5.994   3.454   6.518  1.1653 -0.0353  1.4711
   43CHL1   C13 4314   6.075   3.281   6.607  0.4791 -0.0368  0.2544
   43CHL1   C18 4315   6.089   3.133   6.575  0.4965  0.4478  0.3282
   43CHL1  H18A 4316   6.148   3.126   6.481 -0.7677  1.7738 -0.6067
   43CHL1  H18B 4317   6.128   3.073   6.660 -1.4596  1.1586  1.8063
   43CHL1  H18C 4318   5.995   3.080   6.548  0.7608 -0.7844  1.7167
   43CHL1   C12 4319   6.214   3.340   6.637 -0.1891  0.0432  0.3806
   43CHL1  H12A 4320   6.285   3.338   6.552  0.8003 -1.0208  1.1977
   43CHL1  H12B 4321   6.192   3.445   6.665 -1.0342 -0.3293  1.1846
   43CHL1   C11 4322   6.280   3.271   6.764 -0.0406 -0.3415  0.5505
   43CHL1  H11A 4323   6.315   3.171   6.731  0.9100  0.1288  0.1045
   43CHL1  H11B 4324   6.373   3.330   6.777  0.5645 -0.9757 -0.7382
   43CHL1    C9 4325   6.192   3.284   6.889 -0.3197  0.2888 -0.2216
   43CHL1    H9 4326   6.192   3.394   6.903 -0.7922  0.1815  0.6513
   43CHL1   C10 4327   6.247   3.219   7.020  0.0665 -0.2259  0.4290
   43CHL1   C19 4328   6.272   3.069   6.989 -0.4581  0.2588 -0.2215
   43CHL1  H19A 4329   6.170   3.030   6.967 -0.4774 -0.9597  1.7373
   43CHL1  H19B 4330   6.346   3.051   6.908  0.5191 -2.4136  1.1235
   43CHL1  H19C 4331   6.303   3.019   7.084 -1.0513  2.5084  1.2411
   43CHL1    C1 4332   6.380   3.293   7.062 -0.0486  0.6627 -0.2528
   43CHL1   H1A 4333   6.455   3.277   6.982 -1.1322 -1.1811 -0.9562
   43CHL1   H1B 4334   6.347   3.399   7.065 -1.7488  0.1914 -0.9951
   43CHL1    C2 4335   6.435   3.250   7.196  0.2911  0.3993 -0.5742
   43CHL1   H2A 4336   6.532   3.300   7.219  1.1513 -0.9584 -1.1296
   43CHL1   H2B 4337   6.452   3.141   7.187 -1.6691 -0.0093  0.0549
   43CHL1   C20 4338   6.008   3.333   6.345 -0.2884  0.3279  0.9626
   43CHL1   H20 4339   5.990   3.229   6.310  1.9164  0.5518 -1.0670
   43CHL1   C21 4340   6.153   3.364   6.324 -0.0172 -0.3576 -0.9839
   43CHL1  H21A 4341   6.213   3.282   6.369  0.3686  0.7810  0.6793
   43CHL1  H21B 4342   6.173   3.460   6.376 -0.6832  0.0579 -1.4815
   43CHL1  H21C 4343   6.178   3.368   6.216  2.0393  0.2412 -0.5229
   43CHL1   C22 4344   5.910   3.418   6.259  0.6944  0.2175  0.3267
   43CHL1  H22A 4345   5.805   3.385   6.271  0.0322  1.5448 -1.3827
   43CHL1  H22B 4346   5.929   3.523   6.290  2.3408  0.2611 -0.6637
   43CHL1   C23 4347   5.915   3.418   6.103 -0.1203  0.3560  0.3195
   43CHL1  H23A 4348   5.829   3.468   6.054  1.1905 -0.0850 -2.6302
   43CHL1  H23B 4349   5.998   3.479   6.062  0.7582 -2.1463 -1.8520
   43CHL1   C24 4350   5.906   3.275   6.051  0.1408  0.0919 -0.7337
   43CHL1  H24A 4351   5.996   3.214   6.073 -0.9835 -0.7511  2.0153
   43CHL1  H24B 4352   5.829   3.219   6.109  1.0572  0.4047  0.8499
   43CHL1   C25 4353   5.884   3.257   5.900  0.6403 -0.6875 -0.2364
   43CHL1   H25 4354   5.801   3.328   5.882  0.0173 -1.2668  0.3413
   43CHL1   C26 4355   5.998   3.296   5.801 -0.6587  0.0477 -0.3029
   43CHL1  H26A 4356   6.032   3.399   5.828 -0.5537  0.2757 -1.2818
   43CHL1  H26B 4357   6.078   3.224   5.827  0.1313  1.1727  0.5019
   43CHL1  H26C 4358   5.955   3.305   5.699 -0.2484 -0.5360 -0.5276
   43CHL1   C27 4359   5.853   3.108   5.868 -0.3548 -0.3152 -0.6063
   43CHL1  H27A 4360   5.768   3.082   5.936  0.9747  4.2444  3.3298
   43CHL1  H27B 4361   5.835   3.094   5.759  0.7749  1.9310 -1.1285
   43CHL1  H27C 4362   5.940   3.047   5.902 -1.0724  0.4779  3.0945
   44CHL1    C3 4363   0.458   4.353   7.571 -0.6712 -0.3281  0.2232
   44CHL1    H3 4364   0.511   4.256   7.582 -1.5549 -0.6770  1.7464
   44CHL1    O3 4365   0.436   4.424   7.694 -0.0806 -0.2430  0.0378
   44CHL1   H3' 4366   0.524   4.445   7.725 -0.1275 -1.4024  1.0117
   44CHL1    C4 4367   0.551   4.437   7.479 -0.1847 -0.0422 -0.1850
   44CHL1   H4A 4368   0.535   4.544   7.507  1.2779  0.3688 -0.8148
   44CHL1   H4B 4369   0.657   4.416   7.507 -0.2948  2.6053  2.8861
   44CHL1    C5 4370   0.535   4.418   7.329 -0.0490  0.2655  0.4550
   44CHL1    C6 4371   0.641   4.411   7.244  0.0028  0.4137  0.4213
   44CHL1    H6 4372   0.739   4.417   7.293 -0.2081 -0.4082  0.9646
   44CHL1    C7 4373   0.635   4.415   7.092 -0.4160  0.3237  0.1459
   44CHL1   H7A 4374   0.717   4.475   7.047  1.1044 -1.7131  0.0516
   44CHL1   H7B 4375   0.666   4.327   7.033 -2.6123 -0.1191 -0.4561
   44CHL1    C8 4376   0.486   4.457   7.041 -0.9484 -1.2301  0.4175
   44CHL1    H8 4377   0.470   4.566   7.059  1.1051 -1.1054  1.8588
   44CHL1   C14 4378   0.472   4.421   6.888 -0.6409 -0.2081 -0.4602
   44CHL1   H14 4379   0.481   4.310   6.890 -1.1483 -0.2856 -1.8411
   44CHL1   C15 4380   0.581   4.439   6.782 -0.0888  0.3023  0.2357
   44CHL1  H15A 4381   0.624   4.540   6.799 -1.4325  0.9587 -0.1307
   44CHL1  H15B 4382   0.665   4.367   6.773 -0.5877 -0.2983  0.3161
   44CHL1   C16 4383   0.503   4.435   6.644 -0.3587 -0.2396 -0.4646
   44CHL1  H16A 4384   0.524   4.534   6.599  0.3094  0.5009  1.3906
   44CHL1  H16B 4385   0.540   4.356   6.575 -0.6708 -0.9476  0.1641
   44CHL1   C17 4386   0.364   4.405   6.680  0.8605 -0.1972  0.7094
   44CHL1   H17 4387   0.366   4.294   6.679 -0.2948 -0.2258  0.3022
   44CHL1   C13 4388   0.340   4.454   6.826  0.4715  0.4866  0.7649
   44CHL1   C18 4389   0.324   4.609   6.825  0.8332 -0.2772 -0.0736
   44CHL1  H18A 4390   0.239   4.636   6.759  0.8883  0.9021  0.3287
   44CHL1  H18B 4391   0.289   4.645   6.924 -3.0095 -1.8006 -0.7164
   44CHL1  H18C 4392   0.410   4.673   6.798 -0.3363  0.2690 -2.8077
   44CHL1   C12 4393   0.226   4.384   6.910  0.4574 -0.7882 -0.6558
   44CHL1  H12A 4394   0.121   4.407   6.881  0.4197  0.3233  0.2581
   44CHL1  H12B 4395   0.238   4.274   6.905 -0.9900 -0.9720 -0.5558
   44CHL1   C11 4396   0.235   4.429   7.059 -0.2195 -0.0519  0.0165
   44CHL1  H11A 4397   0.207   4.536   7.071 -1.6528 -0.2023 -1.6166
   44CHL1  H11B 4398   0.161   4.366   7.115 -0.1328 -1.3272 -1.2558
   44CHL1    C9 4399   0.378   4.394   7.123  0.7064 -0.1188  0.3859
   44CHL1    H9 4400   0.387   4.283   7.121 -0.5712 -0.2249 -0.4134
   44CHL1   C10 4401   0.392   4.420   7.275  0.3627  0.1700  0.0065
   44CHL1   C19 4402   0.335   4.561   7.306 -0.5504  0.3572  1.1297
   44CHL1  H19A 4403   0.372   4.619   7.393  0.1316  3.6889 -1.1658
   44CHL1  H19B 4404   0.361   4.625   7.219 -2.8712  0.6866  0.6093
   44CHL1  H19C 4405   0.225   4.554   7.321 -0.4088 -0.4413  1.8910
   44CHL1    C1 4406   0.312   4.310   7.354 -0.4124 -0.0500  0.1433
   44CHL1   H1A 4407   0.210   4.304   7.311 -0.4419 -2.7251  0.4132
   44CHL1   H1B 4408   0.355   4.209   7.340 -1.4305 -0.9025  2.6685
   44CHL1    C2 4409   0.310   4.346   7.508 -0.1364  0.5089 -0.1730
   44CHL1   H2A 4410   0.270   4.261   7.567  0.3532 -1.0139 -1.9207
   44CHL1   H2B 4411   0.262   4.445   7.524  1.6923  2.2360 -3.9710
   44CHL1   C20 4412   0.254   4.442   6.572  0.3013 -0.2324  0.5112
   44CHL1   H20 4413   0.282   4.545   6.542 -2.4607 -0.0059 -1.7423
   44CHL1   C21 4414   0.105   4.435   6.615 -0.2938 -0.2470  0.4894
   44CHL1  H21A 4415   0.074   4.516   6.684  0.0414 -1.4578  2.1364
   44CHL1  H21B 4416   0.097   4.336   6.666 -0.3970 -0.8455 -0.6397
   44CHL1  H21C 4417   0.045   4.448   6.522  2.5017 -0.7356 -1.5356
   44CHL1   C22 4418   0.271   4.348   6.449 -0.0738 -0.8446 -0.6837
   44CHL1  H22A 4419   0.377   4.322   6.426 -0.1125  0.2114 -2.2012
   44CHL1  H22B 4420   0.215   4.252   6.449 -0.1993 -0.8054 -2.6364
   44CHL1   C23 4421   0.226   4.417   6.320 -0.2792  0.0186 -0.4875
   44CHL1  H23A 4422   0.116   4.432   6.324 -1.0746 -4.4402 -0.4945
   44CHL1  H23B 4423   0.281   4.514   6.311  2.4760 -1.3988 -0.1355
   44CHL1   C24 4424   0.267   4.340   6.191  0.1538  0.2303 -1.1380
   44CHL1  H24A 4425   0.378   4.331   6.188  0.2759  0.5515  1.1005
   44CHL1  H24B 4426   0.226   4.237   6.195 -1.6819  0.9166  2.8574
   44CHL1   C25 4427   0.209   4.394   6.064 -0.3000 -0.3829  0.7993
   44CHL1   H25 4428   0.236   4.500   6.042  1.5784 -1.2853 -1.7567
   44CHL1   C26 4429   0.269   4.316   5.942  0.3015 -0.0676 -0.2026
   44CHL1  H26A 4430   0.219   4.344   5.847  2.4063 -0.5129 -1.5160
   44CHL1  H26B 4431   0.378   4.336   5.936  0.3103 -0.3261 -1.0625
   44CHL1  H26C 4432   0.267   4.206   5.960 -0.7865 -0.1750 -0.9261
   44CHL1   C27 4433   0.054   4.390   6.050 -0.1627 -0.6648  0.2617
   44CHL1  H27A 4434   0.024   4.409   5.945 -1.1804 -0.4174  0.5938
   44CHL1  H27B 4435   0.027   4.290   6.090 -0.8980 -0.6753 -0.2457
   44CHL1  H27C 4436   0.015   4.476   6.109  2.2649  0.3102  0.5670
   45CHL1    C3 4437   0.485   3.514   7.308 -0.7115  0.2499 -0.2095
   45CHL1    H3 4438   0.543   3.420   7.321  0.8860  1.2803  0.3762
   45CHL1    O3 4439   0.475   3.586   7.434  0.0662 -0.6014 -0.2981
   45CHL1   H3' 4440   0.394   3.637   7.432 -0.4943 -1.2124  2.5129
   45CHL1    C4 4441   0.535   3.612   7.201  0.7454 -0.1712  0.0804
   45CHL1   H4A 4442   0.476   3.706   7.208 -1.2442 -1.4612  1.7206
   45CHL1   H4B 4443   0.642   3.635   7.218  1.5702  0.1015 -4.1737
   45CHL1    C5 4444   0.517   3.563   7.062  0.5650 -0.0097  0.3994
   45CHL1    C6 4445   0.618   3.548   6.979  0.3068  0.5559  0.3387
   45CHL1    H6 4446   0.717   3.571   7.021 -1.0598  0.3234  4.1053
   45CHL1    C7 4447   0.615   3.498   6.830  0.6344  0.2176 -0.6010
   45CHL1   H7A 4448   0.691   3.556   6.773  1.8629  0.7112  1.3999
   45CHL1   H7B 4449   0.657   3.396   6.824  2.3275  0.9742 -3.7415
   45CHL1    C8 4450   0.466   3.482   6.785 -0.3616 -0.4306 -0.3627
   45CHL1    H8 4451   0.425   3.584   6.769 -0.1305 -0.0807  1.1225
   45CHL1   C14 4452   0.463   3.398   6.655 -0.8029  0.5386 -0.1849
   45CHL1   H14 4453   0.513   3.301   6.675  2.3282  1.9593 -0.4684
   45CHL1   C15 4454   0.548   3.454   6.539 -0.7545  0.1945 -0.0964
   45CHL1  H15A 4455   0.526   3.560   6.518  0.6626  0.4201 -0.5682
   45CHL1  H15B 4456   0.656   3.432   6.556 -0.1870  1.9760 -1.2408
   45CHL1   C16 4457   0.503   3.368   6.414 -0.0089 -0.1133  0.0255
   45CHL1  H16A 4458   0.477   3.425   6.322 -1.9270 -3.2184 -1.5471
   45CHL1  H16B 4459   0.584   3.294   6.400  0.1766  0.2951 -1.2312
   45CHL1   C17 4460   0.362   3.309   6.460  0.5827  0.3866  0.3049
   45CHL1   H17 4461   0.375   3.201   6.486  0.0867 -0.3923 -2.3651
   45CHL1   C13 4462   0.329   3.379   6.597  0.3042 -0.5472 -0.2627
   45CHL1   C18 4463   0.253   3.512   6.566 -0.2571 -0.1328  0.4793
   45CHL1  H18A 4464   0.148   3.490   6.536 -0.3616  1.6451 -0.5791
   45CHL1  H18B 4465   0.263   3.581   6.652  0.3280  0.5814 -0.1484
   45CHL1  H18C 4466   0.292   3.565   6.477 -0.8508 -0.1368  0.2113
   45CHL1   C12 4467   0.248   3.302   6.707 -0.3694 -0.1557  0.5146
   45CHL1  H12A 4468   0.148   3.279   6.665  0.2142  1.3304 -1.9053
   45CHL1  H12B 4469   0.307   3.209   6.721 -1.0647 -0.3179  2.6723
   45CHL1   C11 4470   0.241   3.381   6.841  0.2061  0.5896 -0.1461
   45CHL1  H11A 4471   0.175   3.467   6.818 -0.9306 -0.1781  0.1601
   45CHL1  H11B 4472   0.180   3.320   6.911 -1.1457  0.7227 -1.1747
   45CHL1    C9 4473   0.384   3.428   6.892  0.9240 -0.3573 -0.5549
   45CHL1    H9 4474   0.430   3.327   6.907  0.6482 -0.5930 -1.2693
   45CHL1   C10 4475   0.381   3.513   7.020  0.0157  0.6704 -1.4518
   45CHL1   C19 4476   0.281   3.630   7.003 -0.0945  1.0111  0.4530
   45CHL1  H19A 4477   0.181   3.592   6.976  1.3413 -2.0656 -1.0072
   45CHL1  H19B 4478   0.269   3.687   7.098  1.5221 -2.0890  2.7046
   45CHL1  H19C 4479   0.310   3.711   6.932 -0.4152 -0.4467 -1.4035
   45CHL1    C1 4480   0.328   3.420   7.136  0.3030 -0.1450  0.6164
   45CHL1   H1A 4481   0.221   3.400   7.113 -0.8589  1.4998  4.0808
   45CHL1   H1B 4482   0.399   3.335   7.140  0.1658 -0.2218  1.6481
   45CHL1    C2 4483   0.337   3.471   7.279  0.3168 -0.0798 -0.0352
   45CHL1   H2A 4484   0.317   3.401   7.362  5.1055 -1.5821  0.1332
   45CHL1   H2B 4485   0.278   3.564   7.289  0.8902  0.2148  0.6453
   45CHL1   C20 4486   0.264   3.303   6.340 -0.1587  0.2637  0.6940
   45CHL1   H20 4487   0.244   3.407   6.308 -0.5559 -0.8609 -3.2941
   45CHL1   C21 4488   0.133   3.224   6.371  0.2545  0.1394 -0.1276
   45CHL1  H21A 4489   0.068   3.277   6.444  1.1000  1.2323 -0.1380
   45CHL1  H21B 4490   0.147   3.125   6.418  1.1004 -0.3319 -1.3193
   45CHL1  H21C 4491   0.066   3.206   6.284  2.0808 -0.6233 -1.4470
   45CHL1   C22 4492   0.335   3.224   6.221 -1.2127 -0.2946  0.2691
   45CHL1  H22A 4493   0.419   3.288   6.185  0.6891 -2.9158 -0.2489
   45CHL1  H22B 4494   0.374   3.133   6.271 -1.1864  0.3883  1.5354
   45CHL1   C23 4495   0.258   3.181   6.091  0.1863 -0.6102 -0.3135
   45CHL1  H23A 4496   0.306   3.098   6.035 -0.5358 -1.6861  0.6082
   45CHL1  H23B 4497   0.160   3.138   6.122  0.1465  0.7680  1.6708
   45CHL1   C24 4498   0.223   3.298   5.992 -0.2219 -0.1280 -0.5383
   45CHL1  H24A 4499   0.165   3.371   6.051 -0.7466  0.6845 -2.0159
   45CHL1  H24B 4500   0.315   3.349   5.958  0.4160 -0.5955  0.4385
   45CHL1   C25 4501   0.121   3.256   5.883  0.5680  0.7004  0.4331
   45CHL1   H25 4502   0.051   3.184   5.931  1.5646 -0.0208  0.8217
   45CHL1   C26 4503   0.050   3.376   5.836  0.4635 -0.7408  0.4449
   45CHL1  H26A 4504  -0.017   3.359   5.749  1.0005 -0.3593 -0.0546
   45CHL1  H26B 4505  -0.004   3.419   5.923 -0.7038 -0.2675 -0.4849
   45CHL1  H26C 4506   0.115   3.461   5.804 -2.7907  0.6415 -3.3636
   45CHL1   C27 4507   0.190   3.182   5.769 -0.0901 -0.1803  0.5105
   45CHL1  H27A 4508   0.136   3.107   5.708 -1.2603 -0.3694  1.7159
   45CHL1  H27B 4509   0.255   3.247   5.707 -0.6195  1.2899  1.4428
   45CHL1  H27C 4510   0.258   3.109   5.817 -2.5373 -3.0581 -0.0323
   46CHL1    C3 4511   1.763   0.552   7.748 -0.4361 -0.0076  0.3517
   46CHL1    H3 4512   1.658   0.577   7.772  0.5773  3.1297  2.1332
   46CHL1    O3 4513   1.814   0.501   7.877 -0.1002 -0.7402  0.1215
   46CHL1   H3' 4514   1.908   0.486   7.866  0.2422 -0.4354  2.1144
   46CHL1    C4 4515   1.784   0.431   7.653  0.3782  0.1810  0.2629
   46CHL1   H4A 4516   1.892   0.404   7.645 -0.1595 -1.5190 -1.9976
   46CHL1   H4B 4517   1.740   0.344   7.706  1.1280 -0.6149 -0.4033
   46CHL1    C5 4518   1.724   0.457   7.517 -0.0665  0.6187  0.0054
   46CHL1    C6 4519   1.631   0.372   7.464  0.2504 -0.0958  0.2038
   46CHL1    H6 4520   1.595   0.285   7.521 -2.3922  0.3309 -0.6655
   46CHL1    C7 4521   1.581   0.389   7.324 -1.3191 -0.3553 -0.0429
   46CHL1   H7A 4522   1.587   0.297   7.262 -1.2026  0.3927 -1.1610
   46CHL1   H7B 4523   1.474   0.418   7.320 -1.3413 -0.1589  1.4446
   46CHL1    C8 4524   1.666   0.498   7.241  0.3022 -0.0095 -0.1025
   46CHL1    H8 4525   1.763   0.450   7.218  0.7256  0.7399  0.0806
   46CHL1   C14 4526   1.591   0.545   7.119  0.0697  0.3880  0.3129
   46CHL1   H14 4527   1.501   0.607   7.139  1.2286  1.6817  1.7703
   46CHL1   C15 4528   1.548   0.435   7.022  0.4197  0.3290 -0.1877
   46CHL1  H15A 4529   1.625   0.355   7.025  0.1334  0.0214 -0.8124
   46CHL1  H15B 4530   1.457   0.381   7.055  1.1767  0.2024  1.7895
   46CHL1   C16 4531   1.527   0.507   6.889 -0.5304  0.1158 -0.3302
   46CHL1  H16A 4532   1.571   0.438   6.814 -1.7275 -0.4717 -0.5258
   46CHL1  H16B 4533   1.422   0.530   6.858 -1.0370 -0.0241  1.2001
   46CHL1   C17 4534   1.598   0.648   6.903  0.2297 -0.0854 -0.2961
   46CHL1   H17 4535   1.507   0.710   6.915 -0.0443 -0.7769  1.4167
   46CHL1   C13 4536   1.678   0.640   7.030 -0.1093  0.0276  0.5870
   46CHL1   C18 4537   1.809   0.562   6.999 -0.7336  0.1451  0.1696
   46CHL1  H18A 4538   1.880   0.532   7.079  1.1582 -3.4064 -2.5583
   46CHL1  H18B 4539   1.799   0.462   6.951  1.1816 -0.7563  1.5467
   46CHL1  H18C 4540   1.869   0.619   6.924 -0.5618 -0.6778 -0.3233
   46CHL1   C12 4541   1.705   0.764   7.113 -0.3712  0.1343  0.1027
   46CHL1  H12A 4542   1.776   0.836   7.066 -0.0618  0.2204  0.6963
   46CHL1  H12B 4543   1.614   0.825   7.133 -0.8871 -0.0673 -1.4703
   46CHL1   C11 4544   1.778   0.728   7.243  0.1510  0.3831 -0.2075
   46CHL1  H11A 4545   1.873   0.690   7.199 -0.7953  0.2883 -2.2848
   46CHL1  H11B 4546   1.804   0.824   7.291  0.0908  0.7302 -0.8535
   46CHL1    C9 4547   1.700   0.623   7.326 -0.8111 -0.5059 -0.0459
   46CHL1    H9 4548   1.605   0.675   7.353  0.5525  1.3673  1.4004
   46CHL1   C10 4549   1.783   0.593   7.448  0.0334 -0.1181  0.2195
   46CHL1   C19 4550   1.932   0.555   7.415  0.5831 -1.2847 -0.4069
   46CHL1  H19A 4551   1.930   0.504   7.316 -0.2569 -1.1172 -0.4884
   46CHL1  H19B 4552   1.989   0.649   7.405 -0.9227 -0.3646 -0.8055
   46CHL1  H19C 4553   1.980   0.492   7.492 -1.5221 -0.5029  1.6571
   46CHL1    C1 4554   1.790   0.719   7.548  0.4686  0.3417 -0.4036
   46CHL1   H1A 4555   1.853   0.797   7.501  1.1671 -0.7111 -1.2588
   46CHL1   H1B 4556   1.688   0.763   7.558  0.5071  0.0340  2.0537
   46CHL1    C2 4557   1.833   0.681   7.694  0.4790  0.0276 -0.1909
   46CHL1   H2A 4558   1.810   0.767   7.760  1.3840  0.3548 -0.2957
   46CHL1   H2B 4559   1.943   0.668   7.691  0.5854  0.1954  1.7210
   46CHL1   C20 4560   1.674   0.697   6.766 -0.3850 -0.2741 -0.2453
   46CHL1   H20 4561   1.753   0.623   6.741 -0.3958 -0.2601 -0.3215
   46CHL1   C21 4562   1.724   0.841   6.786  0.5876 -0.6668  0.0637
   46CHL1  H21A 4563   1.641   0.900   6.829  0.9157 -0.2596  0.1426
   46CHL1  H21B 4564   1.760   0.889   6.693  0.3152  0.7099  0.6416
   46CHL1  H21C 4565   1.808   0.843   6.859 -0.8540  0.3920  1.7808
   46CHL1   C22 4566   1.585   0.696   6.646 -0.2827 -0.7835 -0.0760
   46CHL1  H22A 4567   1.526   0.602   6.647  0.5975 -1.3578 -0.6212
   46CHL1  H22B 4568   1.520   0.786   6.655  2.7487  1.4646  1.6466
   46CHL1   C23 4569   1.658   0.706   6.508 -0.1375  0.0798  0.4864
   46CHL1  H23A 4570   1.697   0.808   6.490  0.4727 -0.6206 -2.8096
   46CHL1  H23B 4571   1.749   0.643   6.504 -1.2445 -1.5562 -2.5544
   46CHL1   C24 4572   1.568   0.683   6.387  1.1472  0.7309 -0.1621
   46CHL1  H24A 4573   1.516   0.592   6.424  0.2515  1.3384  0.1111
   46CHL1  H24B 4574   1.496   0.765   6.366 -0.0438 -0.1192  0.4764
   46CHL1   C25 4575   1.656   0.648   6.271  0.4864 -0.4577 -0.1678
   46CHL1   H25 4576   1.748   0.593   6.298 -0.2147 -1.4169  0.3549
   46CHL1   C26 4577   1.582   0.553   6.176 -0.6065  0.4274  0.5514
   46CHL1  H26A 4578   1.536   0.460   6.217 -0.6047  0.3947  0.4800
   46CHL1  H26B 4579   1.498   0.610   6.130  1.8232  3.0537 -0.8705
   46CHL1  H26C 4580   1.654   0.532   6.095 -1.4764 -0.5403  0.0109
   46CHL1   C27 4581   1.695   0.788   6.200  0.2828  0.1059 -0.1144
   46CHL1  H27A 4582   1.604   0.842   6.165 -0.0949 -1.0547 -0.9663
   46CHL1  H27B 4583   1.758   0.850   6.267  0.0590 -0.5414  0.7066
   46CHL1  H27C 4584   1.754   0.766   6.109  0.8967 -1.5580  0.6613
   47CHL1    C3 4585   4.836   6.371   7.405 -0.3674  0.1322 -0.2047
   47CHL1    H3 4586   4.729   6.385   7.376 -0.7600  1.3863  1.6878
   47CHL1    O3 4587   4.834   6.365   7.545  0.1449 -0.3387  0.0366
   47CHL1   H3' 4588   4.858   6.453   7.573 -1.9041  0.2172  0.2379
   47CHL1    C4 4589   4.889   6.245   7.345  0.0163  0.2915  0.2650
   47CHL1   H4A 4590   4.989   6.227   7.389 -0.3982 -3.9207 -0.1339
   47CHL1   H4B 4591   4.820   6.164   7.376 -0.1820 -0.2294 -1.4270
   47CHL1    C5 4592   4.916   6.253   7.194 -0.2272 -0.0220  0.4601
   47CHL1    C6 4593   4.877   6.152   7.116  0.1333 -0.0035 -0.2827
   47CHL1    H6 4594   4.837   6.060   7.162  0.5508 -0.4000 -0.7017
   47CHL1    C7 4595   4.880   6.145   6.969 -0.0767 -0.4564 -0.2574
   47CHL1   H7A 4596   4.911   6.045   6.931  1.7056  0.9161 -2.7432
   47CHL1   H7B 4597   4.775   6.168   6.942 -0.6180 -0.8052  1.4499
   47CHL1    C8 4598   4.972   6.258   6.909  0.0518 -0.3778 -0.6678
   47CHL1    H8 4599   5.076   6.221   6.924 -1.0155 -3.0495  0.9757
   47CHL1   C14 4600   4.955   6.278   6.758 -0.0842 -0.1270  0.2403
   47CHL1   H14 4601   4.849   6.309   6.747 -0.5369 -1.3182  1.0367
   47CHL1   C15 4602   4.970   6.153   6.674  0.6639 -0.4360 -0.3910
   47CHL1  H15A 4603   5.062   6.098   6.702  0.0329 -2.1443 -1.5157
   47CHL1  H15B 4604   4.884   6.088   6.703 -0.3674  0.4270 -1.4214
   47CHL1   C16 4605   4.978   6.214   6.530 -0.3214 -0.7273  0.0922
   47CHL1  H16A 4606   5.052   6.169   6.461  0.9182  1.7879 -0.3402
   47CHL1  H16B 4607   4.880   6.194   6.482 -0.9064  0.9576  0.5270
   47CHL1   C17 4608   5.007   6.365   6.551 -0.1480 -0.0235  0.5443
   47CHL1   H17 4609   4.908   6.415   6.545  0.8526  1.8804 -2.1176
   47CHL1   C13 4610   5.046   6.380   6.695 -0.1986 -0.1833 -0.4106
   47CHL1   C18 4611   5.195   6.348   6.710 -0.9603 -0.0156 -0.0562
   47CHL1  H18A 4612   5.262   6.426   6.669 -0.0412 -1.0196 -0.5054
   47CHL1  H18B 4613   5.217   6.339   6.818  0.9477 -0.5884 -0.4565
   47CHL1  H18C 4614   5.230   6.255   6.660 -0.3579  0.2773 -0.1806
   47CHL1   C12 4615   5.018   6.515   6.769 -0.7492 -0.2641 -0.0451
   47CHL1  H12A 4616   5.089   6.589   6.726 -0.8728 -0.4199 -0.5254
   47CHL1  H12B 4617   4.917   6.551   6.740 -0.3859  1.4413  0.6537
   47CHL1   C11 4618   5.015   6.514   6.918 -0.9480 -0.3075  0.5528
   47CHL1  H11A 4619   5.122   6.518   6.949 -0.2287  3.4700 -1.7649
   47CHL1  H11B 4620   4.954   6.599   6.956  0.0764  0.5795  0.2513
   47CHL1    C9 4621   4.948   6.392   6.982  0.0482 -0.7070 -0.2341
   47CHL1    H9 4622   4.838   6.405   6.969 -0.0788 -1.8750 -0.4352
   47CHL1   C10 4623   4.972   6.384   7.130  0.3248 -0.3022 -0.0582
   47CHL1   C19 4624   5.127   6.373   7.167  0.3875  0.2986  0.4154
   47CHL1  H19A 4625   5.185   6.323   7.087 -0.7733 -0.5988  0.1137
   47CHL1  H19B 4626   5.176   6.471   7.185 -2.6963  2.4994 -1.9914
   47CHL1  H19C 4627   5.142   6.316   7.261 -0.7811  1.2682  1.2296
   47CHL1    C1 4628   4.914   6.510   7.207  0.3722 -0.8231 -0.6484
   47CHL1   H1A 4629   4.978   6.598   7.186 -0.2203  0.1371  1.2748
   47CHL1   H1B 4630   4.810   6.526   7.173  0.1563  1.6996  0.9292
   47CHL1    C2 4631   4.923   6.489   7.359  0.6392  0.6181 -0.1025
   47CHL1   H2A 4632   4.886   6.582   7.407 -1.0174  0.3863 -0.8697
   47CHL1   H2B 4633   5.029   6.476   7.390  0.2456 -1.6716  0.4635
   47CHL1   C20 4634   5.093   6.428   6.438  0.1516  0.0244  0.6298
   47CHL1   H20 4635   5.198   6.397   6.453  0.0145  0.3475  2.6449
   47CHL1   C21 4636   5.089   6.582   6.445 -0.2610 -0.4314 -0.0104
   47CHL1  H21A 4637   5.142   6.629   6.359  0.5836 -0.8086  0.3025
   47CHL1  H21B 4638   5.142   6.624   6.533  0.9183 -0.6611 -0.6015
   47CHL1  H21C 4639   4.984   6.619   6.452 -0.2819 -0.1222 -1.5099
   47CHL1   C22 4640   5.041   6.384   6.295  0.0329 -0.0933 -0.3582
   47CHL1  H22A 4641   5.034   6.274   6.300 -0.3451 -0.0370  3.3465
   47CHL1  H22B 4642   4.936   6.417   6.279 -0.0751 -0.7416 -1.0020
   47CHL1   C23 4643   5.138   6.422   6.184 -0.4287 -0.0241  0.0640
   47CHL1  H23A 4644   5.150   6.532   6.169  1.1622 -0.0870  0.6122
   47CHL1  H23B 4645   5.241   6.389   6.210 -0.7415 -1.3833 -0.3584
   47CHL1   C24 4646   5.090   6.347   6.059 -0.0151  0.1100  0.4904
   47CHL1  H24A 4647   5.077   6.238   6.078  0.1487 -0.2004 -0.9960
   47CHL1  H24B 4648   4.983   6.369   6.037 -0.5911 -0.9411  2.0818
   47CHL1   C25 4649   5.177   6.364   5.928 -0.2550  0.2444  0.7830
   47CHL1   H25 4650   5.277   6.318   5.945 -0.7712 -0.5523  1.7513
   47CHL1   C26 4651   5.118   6.295   5.806  0.3519  0.6885  0.2668
   47CHL1  H26A 4652   5.185   6.301   5.718  1.5779  0.0836  1.1296
   47CHL1  H26B 4653   5.113   6.189   5.840  0.0680  0.3952 -0.6597
   47CHL1  H26C 4654   5.012   6.323   5.786 -0.9568 -3.2852  0.6202
   47CHL1   C27 4655   5.197   6.516   5.906 -0.7213  0.3332 -0.1530
   47CHL1  H27A 4656   5.246   6.558   5.996  0.2888  0.6228 -0.8252
   47CHL1  H27B 4657   5.257   6.539   5.816  1.0416  2.7088  1.5023
   47CHL1  H27C 4658   5.103   6.575   5.893  0.0141  1.2873 -1.3013
   48CHL1    C3 4659   0.827   6.504   7.385 -0.0886 -0.1440  0.4459
   48CHL1    H3 4660   0.899   6.425   7.356  0.6669  0.8186 -0.3490
   48CHL1    O3 4661   0.822   6.516   7.526 -0.1135 -0.7824  0.2233
   48CHL1   H3' 4662   0.743   6.569   7.540  1.3171  2.0919 -1.6515
   48CHL1    C4 4663   0.873   6.638   7.336  0.4132  0.5685 -0.4897
   48CHL1   H4A 4664   0.799   6.715   7.366 -0.6257 -0.7938  0.5976
   48CHL1   H4B 4665   0.965   6.662   7.394  0.1780 -1.2075  0.7015
   48CHL1    C5 4666   0.885   6.634   7.184  0.0435  0.0315 -0.4604
   48CHL1    C6 4667   0.999   6.658   7.129  0.3842 -0.9146 -1.0163
   48CHL1    H6 4668   1.081   6.686   7.196 -1.0874  0.7221  0.2084
   48CHL1    C7 4669   1.012   6.673   6.978  0.1111 -1.0000 -0.0608
   48CHL1   H7A 4670   1.052   6.776   6.961 -0.4202 -0.9466 -1.1035
   48CHL1   H7B 4671   1.095   6.608   6.945  1.3917  0.6432 -0.2372
   48CHL1    C8 4672   0.884   6.653   6.896  0.4954 -0.4002  0.5442
   48CHL1    H8 4673   0.828   6.749   6.895 -1.7806 -1.5129 -3.5127
   48CHL1   C14 4674   0.903   6.629   6.742  0.8770  0.2461  0.4216
   48CHL1   H14 4675   0.952   6.530   6.734  0.7203  0.2021 -0.0530
   48CHL1   C15 4676   1.007   6.713   6.668 -0.1592 -0.2731  0.0658
   48CHL1  H15A 4677   0.989   6.819   6.694  1.1583 -0.1508  0.5783
   48CHL1  H15B 4678   1.107   6.668   6.691 -0.4292 -2.1302 -2.0215
   48CHL1   C16 4679   0.976   6.697   6.521  0.1733 -0.3420  0.4294
   48CHL1  H16A 4680   0.943   6.791   6.471  1.3901 -0.1920 -0.1320
   48CHL1  H16B 4681   1.056   6.653   6.456 -1.2410  2.4445 -3.5911
   48CHL1   C17 4682   0.854   6.598   6.517  0.7024  0.1309  0.0949
   48CHL1   H17 4683   0.891   6.494   6.529  0.3446  0.1304  1.3361
   48CHL1   C13 4684   0.780   6.621   6.651  0.2870 -0.8401 -0.4933
   48CHL1   C18 4685   0.714   6.763   6.648 -0.0109  0.4928 -0.6370
   48CHL1  H18A 4686   0.677   6.797   6.747  1.8365 -1.0106  0.6488
   48CHL1  H18B 4687   0.785   6.842   6.617 -0.7717  0.9085 -1.3512
   48CHL1  H18C 4688   0.621   6.760   6.588  0.3570  0.9661 -1.2503
   48CHL1   C12 4689   0.683   6.521   6.713 -0.3038 -0.0907 -0.2989
   48CHL1  H12A 4690   0.592   6.526   6.649  0.6406  0.6234 -1.6419
   48CHL1  H12B 4691   0.722   6.418   6.698 -2.7435 -0.9221 -1.4348
   48CHL1   C11 4692   0.660   6.543   6.868  0.5642  0.1194  0.6189
   48CHL1  H11A 4693   0.596   6.633   6.877  1.5342  0.7323  1.6208
   48CHL1  H11B 4694   0.587   6.471   6.912 -1.8798  0.7910 -2.0392
   48CHL1    C9 4695   0.784   6.554   6.959  0.4069  0.2133 -0.0874
   48CHL1    H9 4696   0.839   6.458   6.956 -1.6704 -1.0434 -0.2243
   48CHL1   C10 4697   0.754   6.587   7.113  0.1050 -0.1848  0.3763
   48CHL1   C19 4698   0.659   6.708   7.131 -0.0823 -0.4941  0.0216
   48CHL1  H19A 4699   0.694   6.801   7.080  0.6720 -0.8682 -0.1634
   48CHL1  H19B 4700   0.560   6.686   7.086 -0.2124  0.7733 -0.3461
   48CHL1  H19C 4701   0.641   6.724   7.239 -0.9576 -0.1619 -0.1666
   48CHL1    C1 4702   0.699   6.460   7.178 -0.1105 -0.4146 -0.3719
   48CHL1   H1A 4703   0.600   6.437   7.134 -0.3579  2.8221 -1.7795
   48CHL1   H1B 4704   0.770   6.378   7.151 -0.4035 -0.7496 -0.1337
   48CHL1    C2 4705   0.690   6.465   7.328 -0.3246  0.7152 -0.1047
   48CHL1   H2A 4706   0.667   6.364   7.370 -0.0158  1.5669  2.2737
   48CHL1   H2B 4707   0.616   6.538   7.368 -1.4882  0.1416 -1.1367
   48CHL1   C20 4708   0.773   6.593   6.383 -0.5642 -0.1658 -0.3773
   48CHL1   H20 4709   0.692   6.669   6.383 -1.3729 -1.0041 -0.1850
   48CHL1   C21 4710   0.701   6.459   6.389  0.9705  0.5272 -0.0159
   48CHL1  H21A 4711   0.656   6.432   6.486  1.3714 -2.3467 -0.5428
   48CHL1  H21B 4712   0.633   6.453   6.302  1.2386 -1.5296 -0.1264
   48CHL1  H21C 4713   0.782   6.385   6.370 -1.7979 -2.5331 -0.8332
   48CHL1   C22 4714   0.861   6.624   6.254 -1.0993  0.7558  0.5387
   48CHL1  H22A 4715   0.896   6.726   6.280 -2.2179  0.9623  1.3010
   48CHL1  H22B 4716   0.943   6.549   6.252 -1.5093  0.2791 -1.7087
   48CHL1   C23 4717   0.767   6.634   6.134 -0.0550 -0.0226 -0.0964
   48CHL1  H23A 4718   0.713   6.542   6.105  0.7392 -0.4272 -0.2933
   48CHL1  H23B 4719   0.685   6.705   6.162 -0.5892 -0.5499 -0.3160
   48CHL1   C24 4720   0.842   6.681   6.013  0.3277 -0.2251  0.7914
   48CHL1  H24A 4721   0.922   6.751   6.045  1.5601 -1.4276  0.4096
   48CHL1  H24B 4722   0.909   6.600   5.980  1.5597  2.1495 -3.3235
   48CHL1   C25 4723   0.765   6.740   5.896  0.1089  0.0760 -0.2483
   48CHL1   H25 4724   0.681   6.669   5.881 -0.3268  0.6200 -0.4115
   48CHL1   C26 4725   0.720   6.879   5.932 -0.4568 -0.8406 -0.5838
   48CHL1  H26A 4726   0.651   6.921   5.856 -1.3399 -2.0519 -0.4851
   48CHL1  H26B 4727   0.660   6.889   6.025  0.5169  1.6234 -0.1502
   48CHL1  H26C 4728   0.804   6.951   5.941 -0.6387 -0.5010 -1.5599
   48CHL1   C27 4729   0.849   6.730   5.764 -0.0979 -0.5223  0.1752
   48CHL1  H27A 4730   0.954   6.759   5.785  0.3742 -1.4834 -0.7436
   48CHL1  H27B 4731   0.852   6.630   5.714  1.7792 -0.3527 -0.1339
   48CHL1  H27C 4732   0.804   6.797   5.688 -1.7930 -2.1736 -0.3725
   49CHL1    C3 4733   3.862   6.237   4.178 -0.5810 -0.5815 -0.4328
   49CHL1    H3 4734   3.824   6.336   4.212  1.6695 -0.1537  1.1139
   49CHL1    O3 4735   3.825   6.208   4.049 -0.4813  0.6293  0.2959
   49CHL1   H3' 4736   3.876   6.270   3.995  0.0932 -0.4153 -0.3915
   49CHL1    C4 4737   4.015   6.219   4.209  0.8608  0.0661  0.0384
   49CHL1   H4A 4738   4.050   6.116   4.186  2.5698  0.9276 -1.4794
   49CHL1   H4B 4739   4.066   6.290   4.141 -2.7643  1.8324 -1.1162
   49CHL1    C5 4740   4.052   6.251   4.352 -1.0399  0.0256 -0.6823
   49CHL1    C6 4741   4.126   6.352   4.391  0.3025  0.3836  0.4864
   49CHL1    H6 4742   4.165   6.426   4.319 -0.2062  0.4893  0.3117
   49CHL1    C7 4743   4.175   6.366   4.530 -0.4699  0.3375  0.0997
   49CHL1   H7A 4744   4.285   6.381   4.524  0.1562 -3.1696  0.6567
   49CHL1   H7B 4745   4.129   6.458   4.572  0.4201 -0.0931  2.1542
   49CHL1    C8 4746   4.148   6.244   4.626  0.7170 -0.6915  0.1376
   49CHL1    H8 4747   4.206   6.157   4.588  0.5215 -1.0706  0.6922
   49CHL1   C14 4748   4.174   6.279   4.771  0.0982  0.4667  0.1951
   49CHL1   H14 4749   4.088   6.346   4.793 -2.3168 -2.1937 -0.5315
   49CHL1   C15 4750   4.304   6.346   4.820  0.5582  0.3691 -0.6818
   49CHL1  H15A 4751   4.387   6.291   4.770  0.8518  0.2454 -0.0669
   49CHL1  H15B 4752   4.318   6.453   4.793 -1.2083  1.3375  1.8742
   49CHL1   C16 4753   4.306   6.316   4.962  0.8027  0.4827 -0.1043
   49CHL1  H16A 4754   4.400   6.262   4.989  1.8987  2.6333  0.5850
   49CHL1  H16B 4755   4.308   6.409   5.023  0.7641  0.3795  0.0561
   49CHL1   C17 4756   4.173   6.233   4.997 -0.2069 -0.8465  0.2869
   49CHL1   H17 4757   4.098   6.311   5.023  0.3466 -0.0515 -0.4271
   49CHL1   C13 4758   4.141   6.164   4.862 -0.3939  0.0718 -0.4301
   49CHL1   C18 4759   4.237   6.044   4.834 -0.2167  0.3991 -0.3766
   49CHL1  H18A 4760   4.221   5.953   4.895 -1.3535  0.2460 -0.8664
   49CHL1  H18B 4761   4.228   6.009   4.729  1.7184 -0.4951 -0.2759
   49CHL1  H18C 4762   4.339   6.084   4.854 -1.2468  1.9625  2.1496
   49CHL1   C12 4763   3.992   6.133   4.850 -0.3734  0.0132  0.6050
   49CHL1  H12A 4764   3.982   6.041   4.912 -0.0214 -0.5077 -0.0894
   49CHL1  H12B 4765   3.923   6.214   4.882 -0.5176 -0.1677  0.7572
   49CHL1   C11 4766   3.953   6.086   4.708  0.2506  0.1078 -0.0379
   49CHL1  H11A 4767   4.011   5.992   4.694  1.9497  1.0389  0.3534
   49CHL1  H11B 4768   3.843   6.076   4.700  0.1642  1.9214 -1.6844
   49CHL1    C9 4769   4.003   6.196   4.605  0.3405  0.4323 -0.4494
   49CHL1    H9 4770   3.939   6.286   4.610 -0.1079  0.1494 -0.9525
   49CHL1   C10 4771   3.985   6.153   4.455 -0.1433 -0.5620  0.0759
   49CHL1   C19 4772   4.041   6.008   4.432  0.7997  0.1539 -0.6326
   49CHL1  H19A 4773   3.966   5.947   4.486  0.9349  0.5594  0.0258
   49CHL1  H19B 4774   4.033   5.977   4.326  3.2405 -0.2843 -0.7537
   49CHL1  H19C 4775   4.148   5.996   4.461  1.6973  3.9108 -1.9490
   49CHL1    C1 4776   3.834   6.144   4.419  0.7059 -0.9353 -0.4556
   49CHL1   H1A 4777   3.775   6.068   4.475  1.8486 -0.2974  1.7523
   49CHL1   H1B 4778   3.799   6.239   4.464  3.5657  0.2847 -0.5575
   49CHL1    C2 4779   3.797   6.137   4.272  0.1955  0.4841  0.2780
   49CHL1   H2A 4780   3.686   6.141   4.269  0.0416 -0.7125  2.4532
   49CHL1   H2B 4781   3.816   6.037   4.227 -0.2161  1.5970 -2.5381
   49CHL1   C20 4782   4.195   6.160   5.123 -0.0684 -0.3948  0.4135
   49CHL1   H20 4783   4.281   6.092   5.108  2.2127  2.0617  1.4957
   49CHL1   C21 4784   4.076   6.065   5.157  0.7211 -0.5238  0.3370
   49CHL1  H21A 4785   4.074   5.979   5.087 -1.3789 -1.2648  1.2594
   49CHL1  H21B 4786   3.987   6.131   5.152  1.3306  0.2341 -3.0225
   49CHL1  H21C 4787   4.073   6.014   5.255 -1.3531  2.4032  1.9527
   49CHL1   C22 4788   4.229   6.263   5.237 -0.1934  0.9611  0.1819
   49CHL1  H22A 4789   4.251   6.200   5.325 -2.1438 -0.4271 -0.2558
   49CHL1  H22B 4790   4.325   6.319   5.229  0.4847 -0.3353 -1.4191
   49CHL1   C23 4791   4.117   6.345   5.289 -0.2324  0.0423 -0.3172
   49CHL1  H23A 4792   4.082   6.421   5.215 -0.7935  0.4882  0.3972
   49CHL1  H23B 4793   4.027   6.289   5.323 -0.4307  0.4996 -0.0766
   49CHL1   C24 4794   4.173   6.411   5.410  0.2171 -0.2617 -0.3086
   49CHL1  H24A 4795   4.204   6.328   5.477 -3.0640 -0.7351  0.7996
   49CHL1  H24B 4796   4.255   6.484   5.390 -0.2908 -0.1629 -2.2009
   49CHL1   C25 4797   4.067   6.489   5.487 -0.4131  0.2007 -0.7175
   49CHL1   H25 4798   4.013   6.554   5.415 -0.5711 -1.2352 -1.9524
   49CHL1   C26 4799   3.981   6.396   5.568 -0.0223 -0.1786 -0.7973
   49CHL1  H26A 4800   3.919   6.338   5.496 -1.2282 -3.6496  2.6883
   49CHL1  H26B 4801   4.041   6.337   5.641 -0.2938  0.6792  0.1321
   49CHL1  H26C 4802   3.916   6.453   5.636 -1.8472 -1.3863 -1.4606
   49CHL1   C27 4803   4.129   6.593   5.592 -0.0844 -0.0065 -0.0954
   49CHL1  H27A 4804   4.201   6.658   5.537 -0.1310 -0.2718 -0.4749
   49CHL1  H27B 4805   4.052   6.662   5.632 -0.7196  1.2283 -3.1772
   49CHL1  H27C 4806   4.175   6.545   5.681 -2.3074 -0.4039  0.8892
   50CHL1    C3 4807   0.373   2.695   4.380 -0.4634  0.0211  0.4378
   50CHL1    H3 4808   0.448   2.766   4.340  0.7666 -1.7421 -0.5355
   50CHL1    O3 4809   0.356   2.601   4.280 -0.3552 -0.3716  0.1949
   50CHL1   H3' 4810   0.291   2.536   4.308  0.4591 -0.4879  1.8908
   50CHL1    C4 4811   0.441   2.621   4.494  0.4826  0.1569 -0.3345
   50CHL1   H4A 4812   0.373   2.537   4.521 -2.0143  2.3060  0.5304
   50CHL1   H4B 4813   0.534   2.576   4.452 -0.8622 -2.2094 -1.0087
   50CHL1    C5 4814   0.456   2.695   4.623 -0.9678  0.2853  0.0859
   50CHL1    C6 4815   0.579   2.715   4.676 -0.0244  0.4637 -0.2588
   50CHL1    H6 4816   0.655   2.664   4.616 -1.6605 -2.0302 -0.3483
   50CHL1    C7 4817   0.616   2.789   4.799  0.3121 -0.3855 -0.2291
   50CHL1   H7A 4818   0.668   2.728   4.876 -0.0319  0.8106  0.9801
   50CHL1   H7B 4819   0.682   2.867   4.757  0.7285 -1.4888 -1.7023
   50CHL1    C8 4820   0.493   2.852   4.867 -0.3012  0.4683  0.4290
   50CHL1    H8 4821   0.453   2.767   4.927 -1.9645  0.6436 -0.3672
   50CHL1   C14 4822   0.535   2.973   4.957 -0.0442  0.5819  0.5844
   50CHL1   H14 4823   0.579   3.044   4.884 -2.0760  0.2165 -1.0992
   50CHL1   C15 4824   0.643   2.953   5.059  0.0495 -0.2772  0.5037
   50CHL1  H15A 4825   0.627   2.861   5.119  2.6434 -1.5682 -0.6216
   50CHL1  H15B 4826   0.742   2.931   5.014  0.0818 -1.1638  0.9942
   50CHL1   C16 4827   0.635   3.072   5.152 -0.1630 -0.8852 -0.0113
   50CHL1  H16A 4828   0.634   3.037   5.257 -0.2729 -0.1789  0.2282
   50CHL1  H16B 4829   0.719   3.143   5.134 -1.1375  0.5488  0.8478
   50CHL1   C17 4830   0.496   3.142   5.116  0.1242  0.2927  0.3800
   50CHL1   H17 4831   0.532   3.225   5.051  0.3715 -1.3289 -1.6736
   50CHL1   C13 4832   0.407   3.043   5.033 -0.4290 -0.1638 -0.3242
   50CHL1   C18 4833   0.328   2.941   5.128  0.3734  0.0313  0.2395
   50CHL1  H18A 4834   0.235   2.994   5.157  0.2407  0.6344 -1.1974
   50CHL1  H18B 4835   0.299   2.844   5.082  1.0869  0.3648 -0.9760
   50CHL1  H18C 4836   0.384   2.923   5.222 -0.1504  0.9051  0.7261
   50CHL1   C12 4837   0.327   3.099   4.918  0.9406  0.2375  0.4378
   50CHL1  H12A 4838   0.229   3.131   4.959 -0.2514 -1.7601 -0.6677
   50CHL1  H12B 4839   0.393   3.173   4.868 -1.4233  2.2492  0.1253
   50CHL1   C11 4840   0.272   2.979   4.831 -0.1856  0.6278  0.5063
   50CHL1  H11A 4841   0.200   2.909   4.879  0.6601 -1.1337 -0.7028
   50CHL1  H11B 4842   0.222   3.033   4.748  0.7764 -0.6422 -0.9353
   50CHL1    C9 4843   0.385   2.895   4.767  0.0797  0.7640 -0.0694
   50CHL1    H9 4844   0.440   2.968   4.704 -0.0575  1.0946  0.1928
   50CHL1   C10 4845   0.338   2.776   4.671  0.1297 -1.1907 -0.5703
   50CHL1   C19 4846   0.241   2.682   4.747 -0.1212  0.4165  0.3982
   50CHL1  H19A 4847   0.146   2.739   4.753  0.2398  0.8689  2.3952
   50CHL1  H19B 4848   0.233   2.584   4.695 -0.8918  0.2174  0.8771
   50CHL1  H19C 4849   0.281   2.672   4.850 -0.2648 -0.6857  0.3554
   50CHL1    C1 4850   0.269   2.850   4.550  0.0513  0.2115  0.5440
   50CHL1   H1A 4851   0.180   2.910   4.578  1.4066  1.4356  2.5145
   50CHL1   H1B 4852   0.340   2.932   4.526  2.3674 -1.3422  1.6777
   50CHL1    C2 4853   0.248   2.764   4.423 -0.7995 -0.0664  0.4129
   50CHL1   H2A 4854   0.218   2.833   4.341 -0.6518 -0.0978  0.3316
   50CHL1   H2B 4855   0.166   2.690   4.435  1.0277 -2.1182  0.8780
   50CHL1   C20 4856   0.421   3.196   5.231  0.3243  0.2013 -0.7056
   50CHL1   H20 4857   0.401   3.115   5.303  0.2111  1.5976  0.8965
   50CHL1   C21 4858   0.294   3.269   5.179 -0.2372  0.1563 -0.5760
   50CHL1  H21A 4859   0.220   3.190   5.156 -1.5973  1.1102  0.3748
   50CHL1  H21B 4860   0.307   3.341   5.095 -1.5243 -0.6240 -1.4816
   50CHL1  H21C 4861   0.250   3.335   5.257  0.6312  0.8093 -0.6254
   50CHL1   C22 4862   0.501   3.298   5.316  0.2024 -0.2318  0.8458
   50CHL1  H22A 4863   0.605   3.260   5.326 -0.0213 -0.6223  1.7902
   50CHL1  H22B 4864   0.518   3.395   5.263  1.1086  0.3226  2.0874
   50CHL1   C23 4865   0.449   3.325   5.455 -1.0317 -0.0674  0.0504
   50CHL1  H23A 4866   0.364   3.395   5.436 -0.0179  0.7430 -1.7634
   50CHL1  H23B 4867   0.414   3.231   5.502 -1.9055 -1.1262 -2.5182
   50CHL1   C24 4868   0.553   3.398   5.550 -0.2837  0.0217  0.5139
   50CHL1  H24A 4869   0.636   3.326   5.569 -2.0331 -1.7465  1.8371
   50CHL1  H24B 4870   0.592   3.489   5.500 -1.7464  0.0128 -0.7370
   50CHL1   C25 4871   0.500   3.446   5.684  0.5715  0.1258  0.0064
   50CHL1   H25 4872   0.443   3.363   5.731 -3.3908  2.0838 -0.9547
   50CHL1   C26 4873   0.606   3.487   5.784 -0.1615 -0.3837 -0.0955
   50CHL1  H26A 4874   0.697   3.423   5.787  0.5269  0.5109 -1.4037
   50CHL1  H26B 4875   0.637   3.592   5.768 -0.4120 -0.2699  0.1581
   50CHL1  H26C 4876   0.568   3.481   5.889  2.4010  1.2762  1.0288
   50CHL1   C27 4877   0.395   3.555   5.658 -0.2435 -0.3685  0.8463
   50CHL1  H27A 4878   0.437   3.639   5.599 -0.0018 -0.7279  0.4996
   50CHL1  H27B 4879   0.306   3.522   5.601 -0.5881 -0.8684  1.6593
   50CHL1  H27C 4880   0.352   3.608   5.746  0.5436  1.9072 -0.0514
   51CHL1    C3 4881   2.101   4.828   4.340 -0.3600  0.3919  0.6346
   51CHL1    H3 4882   2.149   4.919   4.383  0.3179  0.4374 -0.1780
   51CHL1    O3 4883   2.151   4.826   4.203  0.0657 -0.6379 -0.5392
   51CHL1   H3' 4884   2.139   4.736   4.172  1.9715 -0.5099 -1.8757
   51CHL1    C4 4885   2.135   4.695   4.408 -0.2102 -0.4559 -1.0422
   51CHL1   H4A 4886   2.074   4.622   4.350 -2.0041 -0.1049  0.3274
   51CHL1   H4B 4887   2.236   4.652   4.393 -0.5324 -1.5185 -0.3347
   51CHL1    C5 4888   2.095   4.685   4.554  0.7506 -0.4721  0.2070
   51CHL1    C6 4889   2.177   4.662   4.651 -0.9339 -0.3053  0.5637
   51CHL1    H6 4890   2.281   4.649   4.618 -1.1572 -0.3962 -0.1068
   51CHL1    C7 4891   2.137   4.651   4.796  0.3891 -0.3625  1.0047
   51CHL1   H7A 4892   2.181   4.563   4.847 -1.0650 -0.9660  1.2690
   51CHL1   H7B 4893   2.183   4.739   4.845  1.2795  1.3662 -2.6072
   51CHL1    C8 4894   1.978   4.644   4.814  0.5480 -0.4670  0.3562
   51CHL1    H8 4895   1.946   4.540   4.790  0.3190  0.1090 -2.1550
   51CHL1   C14 4896   1.945   4.666   4.960  0.3865  0.1089 -0.1168
   51CHL1   H14 4897   1.980   4.767   4.992  2.6338 -0.2963 -1.1008
   51CHL1   C15 4898   2.010   4.578   5.064 -0.3810 -0.1857  0.8624
   51CHL1  H15A 4899   2.013   4.471   5.034 -0.9192  0.3566 -1.3372
   51CHL1  H15B 4900   2.117   4.610   5.068 -0.1866 -0.6174 -0.3949
   51CHL1   C16 4901   1.927   4.599   5.194 -0.4093  0.3022 -0.5058
   51CHL1  H16A 4902   1.889   4.502   5.232  1.4066 -0.8113 -1.3976
   51CHL1  H16B 4903   1.986   4.655   5.270  0.6761 -2.3884  0.7906
   51CHL1   C17 4904   1.802   4.678   5.155 -0.2527  0.1492 -0.2381
   51CHL1   H17 4905   1.834   4.785   5.162  2.0730 -0.5823  1.2668
   51CHL1   C13 4906   1.796   4.661   4.998 -0.0985 -0.6970 -0.3051
   51CHL1   C18 4907   1.743   4.523   4.970  0.0710  0.1657 -0.0077
   51CHL1  H18A 4908   1.780   4.441   5.035 -2.3712 -2.7483 -2.0082
   51CHL1  H18B 4909   1.632   4.523   4.964  0.0220  0.0229  0.8057
   51CHL1  H18C 4910   1.780   4.484   4.873 -0.8580 -2.2710  0.5435
   51CHL1   C12 4911   1.734   4.770   4.910  0.4892 -0.4690  1.1614
   51CHL1  H12A 4912   1.623   4.766   4.918  0.2101  2.7485  0.0304
   51CHL1  H12B 4913   1.761   4.872   4.945  1.5006 -0.0852 -0.6462
   51CHL1   C11 4914   1.758   4.751   4.759 -0.3470  0.1149  0.2244
   51CHL1  H11A 4915   1.708   4.658   4.726  2.1933 -1.0572 -0.5870
   51CHL1  H11B 4916   1.718   4.839   4.703 -1.3262 -0.1991  0.4149
   51CHL1    C9 4917   1.912   4.737   4.721  0.1122  1.0979  0.1381
   51CHL1    H9 4918   1.957   4.836   4.743 -0.1661  0.9359  1.5402
   51CHL1   C10 4919   1.939   4.715   4.569 -0.1597  0.6542 -0.0917
   51CHL1   C19 4920   1.851   4.597   4.515  1.4256 -0.0698 -0.1408
   51CHL1  H19A 4921   1.865   4.498   4.564 -0.4583 -1.5447 -2.3656
   51CHL1  H19B 4922   1.746   4.632   4.509  1.2987 -0.6548 -2.3072
   51CHL1  H19C 4923   1.878   4.588   4.407  1.4953  0.6023 -0.1861
   51CHL1    C1 4924   1.900   4.842   4.485  0.1188 -0.2238 -0.5887
   51CHL1   H1A 4925   1.789   4.852   4.485  0.1764  0.5462 -0.0086
   51CHL1   H1B 4926   1.943   4.931   4.537  0.8242 -0.1915 -1.2121
   51CHL1    C2 4927   1.954   4.836   4.340 -0.1986 -0.2663 -0.5658
   51CHL1   H2A 4928   1.913   4.919   4.279 -2.1233 -1.3730 -0.8677
   51CHL1   H2B 4929   1.905   4.751   4.287  0.2142  0.2620 -1.8122
   51CHL1   C20 4930   1.676   4.660   5.248 -0.5222  0.3929  0.2056
   51CHL1   H20 4931   1.638   4.557   5.235 -1.6547  0.8564 -0.3180
   51CHL1   C21 4932   1.567   4.760   5.198  0.4109 -0.2540 -0.1210
   51CHL1  H21A 4933   1.519   4.707   5.113 -0.4142 -1.5769  1.1315
   51CHL1  H21B 4934   1.609   4.856   5.161  0.9867 -0.5662 -0.2867
   51CHL1  H21C 4935   1.492   4.787   5.275  0.6776  1.5258 -0.4272
   51CHL1   C22 4936   1.707   4.676   5.394 -0.5000  0.0821  0.0378
   51CHL1  H22A 4937   1.785   4.602   5.423  0.1224  0.6087 -0.2485
   51CHL1  H22B 4938   1.752   4.777   5.401  0.3008 -0.2675  0.0919
   51CHL1   C23 4939   1.582   4.659   5.485 -0.8712  0.3130 -0.0612
   51CHL1  H23A 4940   1.516   4.748   5.470  0.1309  1.1071  0.1281
   51CHL1  H23B 4941   1.533   4.561   5.470  0.8169 -0.5943  0.1596
   51CHL1   C24 4942   1.646   4.673   5.623  0.5079  0.2271 -0.6636
   51CHL1  H24A 4943   1.750   4.635   5.625  0.2770 -0.5910  2.5816
   51CHL1  H24B 4944   1.651   4.779   5.654 -0.6215 -0.0649  0.6549
   51CHL1   C25 4945   1.574   4.598   5.746  0.4172 -0.0789 -0.2441
   51CHL1   H25 4946   1.633   4.606   5.840 -0.9800 -1.6860  0.8270
   51CHL1   C26 4947   1.451   4.676   5.787 -0.3861 -0.2403 -0.6952
   51CHL1  H26A 4948   1.408   4.630   5.879 -0.0571  0.8803  0.0430
   51CHL1  H26B 4949   1.471   4.783   5.809 -0.9382 -0.3124  0.2075
   51CHL1  H26C 4950   1.368   4.675   5.713 -3.3676 -1.4561  2.4027
   51CHL1   C27 4951   1.548   4.452   5.725  0.7788  0.5074 -0.2621
   51CHL1  H27A 4952   1.641   4.395   5.708  2.1297  2.7605 -0.8142
   51CHL1  H27B 4953   1.489   4.416   5.812 -2.5360  0.5812 -2.2861
   51CHL1  H27C 4954   1.480   4.436   5.638  1.8309  0.7044 -1.1402
   52CHL1    C3 4955   1.843   6.167   4.321 -0.0543 -0.3125  0.2747
   52CHL1    H3 4956   1.817   6.275   4.314 -1.9991 -0.6571  1.4597
   52CHL1    O3 4957   1.866   6.110   4.191 -0.2634 -0.1268  0.2818
   52CHL1   H3' 4958   1.862   6.015   4.190 -0.4344 -0.1913 -2.9744
   52CHL1    C4 4959   1.963   6.149   4.408  0.8702 -0.6875 -0.0115
   52CHL1   H4A 4960   2.001   6.045   4.399  0.1504 -0.7849 -4.1068
   52CHL1   H4B 4961   2.039   6.215   4.361 -1.0684  1.6981 -0.0040
   52CHL1    C5 4962   1.929   6.196   4.547 -0.5937  0.1657 -0.1043
   52CHL1    C6 4963   2.007   6.290   4.605 -0.7919  0.9446 -0.3380
   52CHL1    H6 4964   2.097   6.321   4.550 -0.5895  1.0231  0.0374
   52CHL1    C7 4965   1.978   6.337   4.742 -0.3345 -0.2135  0.2952
   52CHL1   H7A 4966   2.071   6.368   4.793  0.0508  1.3948 -1.2904
   52CHL1   H7B 4967   1.927   6.434   4.721 -0.8262 -0.6153 -0.4578
   52CHL1    C8 4968   1.894   6.232   4.826  0.5295 -0.6948 -0.9098
   52CHL1    H8 4969   1.962   6.146   4.846  1.7164  0.2158 -0.9603
   52CHL1   C14 4970   1.854   6.292   4.956 -0.4846  0.1829  0.1804
   52CHL1   H14 4971   1.782   6.376   4.941 -0.8538 -0.1726 -0.0627
   52CHL1   C15 4972   1.966   6.355   5.038  0.4179 -1.2736 -0.0024
   52CHL1  H15A 4973   2.066   6.308   5.044  0.8999 -0.2361  0.2260
   52CHL1  H15B 4974   1.989   6.462   5.016 -0.0730 -0.9161  1.1313
   52CHL1   C16 4975   1.900   6.358   5.179  0.1145 -0.7518 -0.0487
   52CHL1  H16A 4976   1.975   6.310   5.245  0.0006 -1.6360 -0.5581
   52CHL1  H16B 4977   1.887   6.465   5.209  1.5127 -0.5578 -0.0592
   52CHL1   C17 4978   1.756   6.298   5.171  0.2243 -0.2048 -0.2066
   52CHL1   H17 4979   1.694   6.385   5.139  1.2162  0.7294  0.3272
   52CHL1   C13 4980   1.774   6.207   5.055  0.4261 -0.9021  0.3900
   52CHL1   C18 4981   1.854   6.083   5.097  0.4740  0.4287  0.6456
   52CHL1  H18A 4982   1.863   6.002   5.022 -0.5394 -0.0506  1.0199
   52CHL1  H18B 4983   1.957   6.113   5.126 -0.0735  0.9121  2.2079
   52CHL1  H18C 4984   1.812   6.031   5.186 -0.0921  1.5519  1.0440
   52CHL1   C12 4985   1.646   6.169   4.971 -0.3706 -0.5148 -0.4899
   52CHL1  H12A 4986   1.582   6.104   5.034 -1.4577  0.8911 -0.1026
   52CHL1  H12B 4987   1.591   6.264   4.955 -1.4990 -0.9407  0.7065
   52CHL1   C11 4988   1.678   6.104   4.836 -0.0568 -0.4628 -0.3240
   52CHL1  H11A 4989   1.720   6.005   4.866  3.1306  1.4534  2.1780
   52CHL1  H11B 4990   1.579   6.099   4.785  0.0514  1.8211 -0.8391
   52CHL1    C9 4991   1.773   6.189   4.752 -0.6533 -0.0959  0.5471
   52CHL1    H9 4992   1.711   6.276   4.722 -1.0301 -0.5968 -0.1778
   52CHL1   C10 4993   1.809   6.125   4.612  0.0717 -0.0944 -0.3817
   52CHL1   C19 4994   1.835   5.976   4.633 -0.3500  0.4527  0.0226
   52CHL1  H19A 4995   1.915   5.949   4.705  0.2285 -1.7395 -1.3352
   52CHL1  H19B 4996   1.745   5.913   4.651  1.0751 -1.3366  1.2954
   52CHL1  H19C 4997   1.876   5.925   4.543 -0.9179 -0.2397  0.1391
   52CHL1    C1 4998   1.685   6.145   4.517 -0.3559 -0.1137  0.3397
   52CHL1   H1A 4999   1.610   6.087   4.574  1.6566  0.1745  3.5671
   52CHL1   H1B 5000   1.672   6.255   4.518 -0.3374 -0.0858 -0.9432
   52CHL1    C2 5001   1.724   6.096   4.379  0.8992  0.6849 -0.0656
   52CHL1   H2A 5002   1.634   6.111   4.316 -0.5910 -1.1353  1.4908
   52CHL1   H2B 5003   1.722   5.985   4.384 -0.2993  0.6686 -0.3782
   52CHL1   C20 5004   1.712   6.242   5.313  0.1992 -0.3139  0.6524
   52CHL1   H20 5005   1.783   6.160   5.337  1.4003  0.1029 -1.2131
   52CHL1   C21 5006   1.568   6.190   5.298 -0.1850 -0.4317  0.2708
   52CHL1  H21A 5007   1.568   6.100   5.232  0.1751  0.9197 -1.6300
   52CHL1  H21B 5008   1.496   6.262   5.254 -0.2380  0.4992  1.8064
   52CHL1  H21C 5009   1.530   6.159   5.398 -2.7465  1.0153 -0.1736
   52CHL1   C22 5010   1.722   6.361   5.409  0.2702 -0.0841  0.8447
   52CHL1  H22A 5011   1.829   6.385   5.427  0.7724 -1.2743 -0.3859
   52CHL1  H22B 5012   1.687   6.458   5.369  0.8149 -0.6737 -1.1781
   52CHL1   C23 5013   1.666   6.334   5.549 -0.0502  0.2707 -0.0764
   52CHL1  H23A 5014   1.556   6.325   5.551  0.0413 -0.7697  0.9008
   52CHL1  H23B 5015   1.719   6.239   5.570 -0.1372  0.0374 -0.8778
   52CHL1   C24 5016   1.708   6.439   5.653 -0.0015  0.0585 -0.4214
   52CHL1  H24A 5017   1.819   6.440   5.654  0.0496 -1.8819  0.1385
   52CHL1  H24B 5018   1.659   6.537   5.633  0.0420 -0.1240 -1.4596
   52CHL1   C25 5019   1.672   6.396   5.793  0.0350  0.4762 -0.1727
   52CHL1   H25 5020   1.731   6.305   5.818 -1.5543 -0.8921 -1.2018
   52CHL1   C26 5021   1.722   6.498   5.896  0.2480  0.4313  0.6164
   52CHL1  H26A 5022   1.827   6.532   5.882  0.0590  0.5829 -0.5280
   52CHL1  H26B 5023   1.657   6.588   5.882  0.2116  0.2135 -0.7004
   52CHL1  H26C 5024   1.696   6.455   5.995 -3.7245  0.6610 -0.1600
   52CHL1   C27 5025   1.516   6.381   5.806 -0.4496  0.2917 -0.0393
   52CHL1  H27A 5026   1.493   6.367   5.913 -5.0622 -0.4838 -0.9348
   52CHL1  H27B 5027   1.471   6.472   5.761  1.3181 -0.2928 -3.3349
   52CHL1  H27C 5028   1.489   6.290   5.748  0.0649  0.4827 -0.5903
   53CHL1    C3 5029   6.302   6.485   3.886  0.3900  0.2776  0.4373
   53CHL1    H3 5030   6.282   6.383   3.925  3.2825  0.0426  1.5227
   53CHL1    O3 5031   6.342   6.479   3.750  0.0836 -0.3438 -0.0036
   53CHL1   H3' 5032   6.435   6.457   3.751 -0.1978 -1.6329 -0.7190
   53CHL1    C4 5033   6.182   6.577   3.900  0.8354  0.2751 -0.3784
   53CHL1   H4A 5034   6.203   6.678   3.860  0.2875  0.5324 -0.0320
   53CHL1   H4B 5035   6.108   6.540   3.825 -1.0154  1.6273  0.6981
   53CHL1    C5 5036   6.136   6.593   4.043  0.6368 -0.4237  0.4516
   53CHL1    C6 5037   6.009   6.552   4.073 -0.1230 -0.1639 -0.5110
   53CHL1    H6 5038   5.941   6.524   3.991 -0.3544 -0.1216 -0.3342
   53CHL1    C7 5039   5.963   6.535   4.220 -0.5089  0.3176  0.5083
   53CHL1   H7A 5040   5.853   6.532   4.230 -0.4572  2.8628  2.7356
   53CHL1   H7B 5041   5.987   6.430   4.249 -0.0632  0.0863 -0.6101
   53CHL1    C8 5042   6.043   6.633   4.316 -0.5490  0.7481 -0.4624
   53CHL1    H8 5043   6.002   6.733   4.288  0.8930  2.3954  2.7995
   53CHL1   C14 5044   6.008   6.615   4.464 -0.7537 -0.2305  0.2557
   53CHL1   H14 5045   6.032   6.510   4.491 -1.1590 -0.8615 -1.7040
   53CHL1   C15 5046   5.864   6.638   4.503 -0.1399  0.5196  0.1418
   53CHL1  H15A 5047   5.830   6.730   4.452 -1.3067 -0.8880 -1.7788
   53CHL1  H15B 5048   5.789   6.558   4.482 -3.2306  3.8292 -2.6272
   53CHL1   C16 5049   5.873   6.654   4.657  0.2325  0.4530 -0.0640
   53CHL1  H16A 5050   5.815   6.745   4.684  2.5195  1.6655  1.0949
   53CHL1  H16B 5051   5.836   6.560   4.704 -1.2915 -0.3675 -2.6792
   53CHL1   C17 5052   6.020   6.656   4.697  0.3755 -0.5420 -0.4239
   53CHL1   H17 5053   6.044   6.549   4.713 -1.1054 -0.6358  1.5227
   53CHL1   C13 5054   6.080   6.707   4.560 -0.4926  0.4592 -0.2281
   53CHL1   C18 5055   6.058   6.858   4.536 -0.7278  0.0051  0.1872
   53CHL1  H18A 5056   6.081   6.894   4.433 -3.1095 -0.8146 -0.6893
   53CHL1  H18B 5057   5.953   6.882   4.562  0.1981  2.3922  2.1475
   53CHL1  H18C 5058   6.115   6.915   4.613 -4.6405  1.2917  2.4015
   53CHL1   C12 5059   6.228   6.670   4.545  0.0440 -0.2209 -0.6603
   53CHL1  H12A 5060   6.297   6.731   4.606 -1.2040  0.5390  0.0468
   53CHL1  H12B 5061   6.247   6.565   4.573  0.7271 -0.0042 -0.3098
   53CHL1   C11 5062   6.282   6.684   4.399 -0.6050 -0.0984  0.4034
   53CHL1  H11A 5063   6.291   6.792   4.379  0.9846 -0.2371  0.2837
   53CHL1  H11B 5064   6.385   6.645   4.392 -0.3310  0.7177 -0.2751
   53CHL1    C9 5065   6.195   6.614   4.293 -0.6623  0.4619 -0.1543
   53CHL1    H9 5066   6.220   6.506   4.295 -0.8655  0.2287 -3.5597
   53CHL1   C10 5067   6.240   6.639   4.147 -0.1509 -0.1946  1.0618
   53CHL1   C19 5068   6.257   6.797   4.125 -0.4277 -0.1556 -0.5176
   53CHL1  H19A 5069   6.343   6.847   4.174 -2.3771  1.4614  1.5109
   53CHL1  H19B 5070   6.262   6.819   4.017  1.9465  0.3829 -0.3403
   53CHL1  H19C 5071   6.166   6.848   4.163  0.2257  0.9175 -0.3526
   53CHL1    C1 5072   6.374   6.565   4.120 -0.7789  0.1404  0.2341
   53CHL1   H1A 5073   6.450   6.619   4.181  1.1829  0.1428 -2.0858
   53CHL1   H1B 5074   6.356   6.464   4.163  1.3252  0.2211  1.4592
   53CHL1    C2 5075   6.416   6.550   3.970  0.2487  0.5574  0.4360
   53CHL1   H2A 5076   6.509   6.489   3.968  0.7627  1.3222  0.6414
   53CHL1   H2B 5077   6.443   6.652   3.934 -0.8437  0.3625 -1.0272
   53CHL1   C20 5078   6.043   6.744   4.825  0.0014  0.4738  0.6893
   53CHL1   H20 5079   6.027   6.849   4.792 -0.8453  0.5910  1.4339
   53CHL1   C21 5080   6.189   6.715   4.865 -0.4662 -0.2719  0.2626
   53CHL1  H21A 5081   6.214   6.759   4.964 -0.0992 -1.1074  0.5509
   53CHL1  H21B 5082   6.257   6.773   4.799 -0.8968  0.5375  0.5148
   53CHL1  H21C 5083   6.219   6.610   4.885 -0.7513 -0.1194  1.6128
   53CHL1   C22 5084   5.947   6.692   4.936 -0.7847  0.0712  1.2315
   53CHL1  H22A 5085   5.843   6.685   4.897 -0.1010  0.7629 -0.8790
   53CHL1  H22B 5086   5.980   6.587   4.954  1.4921 -0.0311 -2.5054
   53CHL1   C23 5087   5.956   6.769   5.068  0.8300 -0.2162 -0.1162
   53CHL1  H23A 5088   6.063   6.772   5.097  1.0238 -0.7227 -0.7331
   53CHL1  H23B 5089   5.919   6.870   5.043  3.3230  0.9636  0.7145
   53CHL1   C24 5090   5.871   6.692   5.179 -0.2250 -0.0804 -0.4206
   53CHL1  H24A 5091   5.764   6.685   5.150 -0.5873  2.3325  0.1773
   53CHL1  H24B 5092   5.913   6.590   5.194  0.2863 -0.0560 -1.5693
   53CHL1   C25 5093   5.870   6.770   5.307  0.1279  0.1897 -0.6273
   53CHL1   H25 5094   5.865   6.877   5.280 -1.1727  0.5097  0.7853
   53CHL1   C26 5095   5.751   6.738   5.399 -0.0098 -0.3237 -0.3950
   53CHL1  H26A 5096   5.659   6.769   5.346  1.1246  1.6185 -1.3342
   53CHL1  H26B 5097   5.740   6.631   5.429  0.2934  0.2851  2.1124
   53CHL1  H26C 5098   5.765   6.790   5.496 -0.3281 -2.0201  0.5992
   53CHL1   C27 5099   5.996   6.748   5.384 -0.5191  0.0211 -0.2008
   53CHL1  H27A 5100   6.079   6.749   5.310 -0.2146 -2.3631  0.0385
   53CHL1  H27B 5101   6.006   6.823   5.466 -0.5422 -0.4572  0.2423
   53CHL1  H27C 5102   6.003   6.644   5.422 -1.7657 -0.6202 -1.6389
   54CHL1    C3 5103   6.772   6.567   4.128 -0.0901 -0.1057  0.0776
   54CHL1    H3 5104   6.692   6.644   4.126 -0.0829 -0.0063  2.1445
   54CHL1    O3 5105   6.781   6.527   3.994  0.0852  0.0664  0.5536
   54CHL1   H3' 5106   6.826   6.442   3.994 -1.2024 -0.6373  1.5418
   54CHL1    C4 5107   6.903   6.626   4.177 -0.6699  0.4477 -0.3041
   54CHL1   H4A 5108   6.990   6.558   4.176 -0.0625  1.1624 -2.5828
   54CHL1   H4B 5109   6.925   6.712   4.110  2.6027 -0.3769 -0.4253
   54CHL1    C5 5110   6.877   6.695   4.314  0.6108  0.2403 -0.0008
   54CHL1    C6 5111   6.905   6.829   4.339  0.2535  0.6940 -0.6200
   54CHL1    H6 5112   6.947   6.892   4.259 -0.5257 -0.4002 -1.9257
   54CHL1    C7 5113   6.866   6.890   4.475  0.1849  0.0095  0.5403
   54CHL1   H7A 5114   6.954   6.952   4.503 -0.4247  1.5912 -0.9481
   54CHL1   H7B 5115   6.776   6.953   4.461 -1.3159 -1.1386  3.8581
   54CHL1    C8 5116   6.839   6.785   4.582  0.2797 -0.0848  0.0351
   54CHL1    H8 5117   6.935   6.739   4.613  0.2107 -0.2090  0.0698
   54CHL1   C14 5118   6.776   6.847   4.704 -0.2267  0.8690  0.3638
   54CHL1   H14 5119   6.671   6.868   4.674 -0.8393 -1.0330  1.0247
   54CHL1   C15 5120   6.840   6.979   4.757 -0.6507 -0.5393 -0.3611
   54CHL1  H15A 5121   6.950   6.972   4.739 -0.4785  1.3579 -0.2936
   54CHL1  H15B 5122   6.814   7.080   4.719  0.7324 -0.5183 -1.3259
   54CHL1   C16 5123   6.810   6.983   4.910 -0.5395 -0.1566  0.0772
   54CHL1  H16A 5124   6.911   6.971   4.955 -0.8857 -0.0428  0.8887
   54CHL1  H16B 5125   6.773   7.087   4.918  1.6325  0.9058 -2.1086
   54CHL1   C17 5126   6.721   6.862   4.932 -0.5348 -0.0237 -0.0652
   54CHL1   H17 5127   6.623   6.900   4.895 -0.0208  0.4836 -0.9414
   54CHL1   C13 5128   6.760   6.759   4.827  0.0739 -0.6124  0.5762
   54CHL1   C18 5129   6.900   6.701   4.871  0.0073  0.6992 -0.2677
   54CHL1  H18A 5130   6.976   6.780   4.886  0.9910 -0.7019  2.9234
   54CHL1  H18B 5131   6.891   6.652   4.970 -0.9395 -0.9142 -1.0910
   54CHL1  H18C 5132   6.949   6.630   4.801  1.9637 -0.6236  2.3133
   54CHL1   C12 5133   6.658   6.649   4.799 -0.8263 -0.1278 -0.4026
   54CHL1  H12A 5134   6.657   6.590   4.893  1.5079  1.7704  0.9379
   54CHL1  H12B 5135   6.557   6.695   4.792 -0.5523  0.4171 -0.8270
   54CHL1   C11 5136   6.693   6.579   4.667  0.2737 -0.1663  0.5597
   54CHL1  H11A 5137   6.777   6.509   4.685  0.9718  0.5698  0.2362
   54CHL1  H11B 5138   6.610   6.514   4.631 -0.6577  0.6178  1.2440
   54CHL1    C9 5139   6.739   6.677   4.540  0.2302  0.0281  0.7514
   54CHL1    H9 5140   6.648   6.731   4.507  2.0232  1.6894 -1.7851
   54CHL1   C10 5141   6.802   6.601   4.421 -0.1516 -0.1217  0.4509
   54CHL1   C19 5142   6.900   6.500   4.474  0.0280  0.8203 -0.0240
   54CHL1  H19A 5143   6.958   6.450   4.393 -0.8549 -1.9288  0.9121
   54CHL1  H19B 5144   6.980   6.535   4.544  0.4885 -1.6703  0.8271
   54CHL1  H19C 5145   6.853   6.416   4.530  1.6906  0.5759  1.1078
   54CHL1    C1 5146   6.692   6.509   4.352  0.6685 -0.5679  0.4127
   54CHL1   H1A 5147   6.648   6.437   4.424 -0.2219 -1.7290 -1.2434
   54CHL1   H1B 5148   6.605   6.575   4.332 -0.0308 -2.1012 -2.0016
   54CHL1    C2 5149   6.723   6.455   4.214  0.0756  0.0530  0.0839
   54CHL1   H2A 5150   6.638   6.405   4.162 -1.7062  0.4724  2.3883
   54CHL1   H2B 5151   6.813   6.392   4.231  1.8392  2.7861  1.5185
   54CHL1   C20 5152   6.700   6.818   5.080 -0.7337 -0.0789  0.2870
   54CHL1   H20 5153   6.683   6.709   5.073 -0.6780 -0.0165 -0.9059
   54CHL1   C21 5154   6.572   6.872   5.140 -0.6505 -0.1523  0.0053
   54CHL1  H21A 5155   6.582   6.980   5.163 -3.0426  0.0683  0.3285
   54CHL1  H21B 5156   6.546   6.822   5.236 -3.2267 -0.4849 -0.7900
   54CHL1  H21C 5157   6.477   6.854   5.085 -1.2703  1.4845  0.4815
   54CHL1   C22 5158   6.820   6.840   5.178 -0.1915 -0.3848 -0.7585
   54CHL1  H22A 5159   6.917   6.829   5.124 -0.8335  1.1432 -2.3432
   54CHL1  H22B 5160   6.814   6.944   5.217  0.4392 -1.1712  1.6106
   54CHL1   C23 5161   6.817   6.738   5.296  0.8699  0.6131  0.4716
   54CHL1  H23A 5162   6.728   6.756   5.360 -0.7558 -3.8491 -0.0970
   54CHL1  H23B 5163   6.784   6.640   5.256  2.0717 -0.4939  2.0216
   54CHL1   C24 5164   6.956   6.719   5.354 -0.2686 -0.6188 -0.2894
   54CHL1  H24A 5165   7.016   6.656   5.285  0.0181  0.8584 -1.4246
   54CHL1  H24B 5166   7.015   6.813   5.358  0.6476 -1.1895 -0.3490
   54CHL1   C25 5167   6.959   6.667   5.497  0.0855  0.1310 -0.2324
   54CHL1   H25 5168   6.899   6.736   5.560 -0.8961 -1.2237  0.3875
   54CHL1   C26 5169   6.885   6.534   5.505  0.4431  0.0512 -0.0476
   54CHL1  H26A 5170   6.777   6.552   5.483  0.4841  0.0180 -0.2787
   54CHL1  H26B 5171   6.925   6.465   5.428 -1.4224  0.3148 -1.3460
   54CHL1  H26C 5172   6.901   6.486   5.604  0.2038 -1.7860 -0.8561
   54CHL1   C27 5173   7.107   6.660   5.552  0.0140  0.4170 -0.1265
   54CHL1  H27A 5174   7.115   6.652   5.662 -2.0006 -0.6386 -0.0263
   54CHL1  H27B 5175   7.155   6.570   5.508 -1.8042 -0.0493 -1.2660
   54CHL1  H27C 5176   7.152   6.756   5.516 -0.9589  0.9917  0.1540
   55CHL1    C3 5177   2.765   1.345   4.188  0.9790 -0.6242 -0.3983
   55CHL1    H3 5178   2.684   1.422   4.192  0.6753 -0.9110 -0.9231
   55CHL1    O3 5179   2.796   1.317   4.054  0.7066  0.0045 -0.7292
   55CHL1   H3' 5180   2.738   1.372   4.001 -1.1032  0.7672  1.8758
   55CHL1    C4 5181   2.886   1.402   4.265  0.8990  0.2052 -0.0083
   55CHL1   H4A 5182   2.967   1.326   4.258 -1.6650 -2.8234  1.1333
   55CHL1   H4B 5183   2.908   1.495   4.209 -1.2194  1.5027  1.1898
   55CHL1    C5 5184   2.859   1.431   4.411 -0.1006 -0.1593 -0.2169
   55CHL1    C6 5185   2.874   1.555   4.462 -0.6766  1.1168 -0.5879
   55CHL1    H6 5186   2.899   1.640   4.397 -0.7738  0.8988 -0.9114
   55CHL1    C7 5187   2.851   1.595   4.601  0.6144  0.0772  0.1587
   55CHL1   H7A 5188   2.936   1.652   4.644  0.8472 -1.2441  1.5431
   55CHL1   H7B 5189   2.761   1.660   4.604  0.4845  0.0111 -1.4090
   55CHL1    C8 5190   2.841   1.456   4.685  0.0726  0.1188 -0.0509
   55CHL1    H8 5191   2.940   1.406   4.695 -1.0760 -3.4305 -3.6349
   55CHL1   C14 5192   2.802   1.488   4.827  0.0460  0.2963  0.0574
   55CHL1   H14 5193   2.699   1.530   4.827  0.2817  0.9048 -0.6935
   55CHL1   C15 5194   2.883   1.596   4.902 -0.1140 -0.1676  0.3690
   55CHL1  H15A 5195   2.991   1.572   4.912  0.6209  1.9241 -1.5265
   55CHL1  H15B 5196   2.880   1.698   4.857 -1.3785 -0.1038  0.5705
   55CHL1   C16 5197   2.828   1.592   5.044 -0.3660  0.3837 -0.1578
   55CHL1  H16A 5198   2.913   1.606   5.115 -0.1694 -1.3038 -0.0060
   55CHL1  H16B 5199   2.746   1.666   5.057  1.1895  1.9550  1.1997
   55CHL1   C17 5200   2.765   1.444   5.050 -0.2245 -0.9747 -0.7039
   55CHL1   H17 5201   2.655   1.464   5.047  0.1897  2.2279  0.5529
   55CHL1   C13 5202   2.797   1.368   4.917 -0.3994 -0.1389  0.5333
   55CHL1   C18 5203   2.927   1.298   4.926 -0.6372 -0.7586 -0.2192
   55CHL1  H18A 5204   3.005   1.354   4.982 -1.1184 -1.1338  0.8593
   55CHL1  H18B 5205   2.913   1.214   4.998  0.2920  1.6134  2.9893
   55CHL1  H18C 5206   2.967   1.260   4.830 -0.6071 -0.4310 -0.3370
   55CHL1   C12 5207   2.682   1.271   4.867  0.5628 -0.2492 -0.1027
   55CHL1  H12A 5208   2.662   1.177   4.922  0.4038  0.8061  1.7018
   55CHL1  H12B 5209   2.586   1.327   4.871  0.1567 -1.0206  1.6757
   55CHL1   C11 5210   2.716   1.225   4.720 -0.1632 -0.4262  0.2998
   55CHL1  H11A 5211   2.812   1.171   4.733  1.1314  2.0976  2.2058
   55CHL1  H11B 5212   2.633   1.160   4.688 -0.9472  1.8032 -2.5863
   55CHL1    C9 5213   2.754   1.345   4.623 -0.1941 -0.1876 -0.4386
   55CHL1    H9 5214   2.658   1.398   4.607 -0.3933 -0.3877  0.0542
   55CHL1   C10 5215   2.817   1.293   4.483  0.5527 -0.3480  0.0644
   55CHL1   C19 5216   2.936   1.195   4.495 -0.0798 -0.3072 -0.2034
   55CHL1  H19A 5217   2.977   1.169   4.395 -0.0482  0.2604 -0.3394
   55CHL1  H19B 5218   3.014   1.234   4.564 -1.4321  1.5225  0.3599
   55CHL1  H19C 5219   2.909   1.099   4.546  1.5794  0.3292  2.0399
   55CHL1    C1 5220   2.694   1.229   4.404 -0.4675  0.4385  0.2492
   55CHL1   H1A 5221   2.679   1.133   4.457  1.8771 -1.3324 -2.0071
   55CHL1   H1B 5222   2.604   1.292   4.414  1.6833  3.9844 -0.7229
   55CHL1    C2 5223   2.728   1.209   4.259 -0.3715 -0.4175  0.6847
   55CHL1   H2A 5224   2.643   1.172   4.198 -0.8906  0.7261  0.6934
   55CHL1   H2B 5225   2.816   1.142   4.244  1.0033  1.5023 -0.3421
   55CHL1   C20 5226   2.792   1.376   5.188  0.5105  0.6932 -0.2025
   55CHL1   H20 5227   2.901   1.355   5.186  0.4114  0.1884 -0.9936
   55CHL1   C21 5228   2.709   1.248   5.195  0.2998  0.5792  0.0344
   55CHL1  H21A 5229   2.715   1.208   5.298 -2.5366 -1.2403 -0.3767
   55CHL1  H21B 5230   2.745   1.164   5.131  0.0509  0.1330  0.4733
   55CHL1  H21C 5231   2.603   1.267   5.166  0.2755  1.0574  0.4271
   55CHL1   C22 5232   2.770   1.470   5.313 -0.3685  0.0648  0.1952
   55CHL1  H22A 5233   2.797   1.405   5.399  1.4279  1.1476  0.5068
   55CHL1  H22B 5234   2.837   1.559   5.317 -0.4838  0.1166  1.7090
   55CHL1   C23 5235   2.624   1.505   5.338 -0.1998  1.0120 -0.0576
   55CHL1  H23A 5236   2.579   1.564   5.255  2.5382 -0.1160 -2.5003
   55CHL1  H23B 5237   2.575   1.406   5.348  1.6530  0.1756  1.3012
   55CHL1   C24 5238   2.611   1.582   5.471 -0.1403  0.0451 -0.4023
   55CHL1  H24A 5239   2.675   1.521   5.539  0.2931 -0.5050 -1.2783
   55CHL1  H24B 5240   2.647   1.686   5.452 -1.2283  0.2721 -1.3032
   55CHL1   C25 5241   2.469   1.598   5.508  0.3799  0.2217 -0.4619
   55CHL1   H25 5242   2.425   1.630   5.411  2.2615  0.9872 -1.1194
   55CHL1   C26 5243   2.398   1.472   5.557 -0.0624 -0.5850 -0.2407
   55CHL1  H26A 5244   2.394   1.399   5.473  0.8983  0.2057 -0.9828
   55CHL1  H26B 5245   2.459   1.430   5.640  0.6286 -0.7255 -0.8204
   55CHL1  H26C 5246   2.299   1.491   5.605  0.9460 -2.0322  2.7083
   55CHL1   C27 5247   2.439   1.710   5.617  0.2460 -0.1151  0.2416
   55CHL1  H27A 5248   2.467   1.689   5.722  0.5506 -2.1308 -0.1900
   55CHL1  H27B 5249   2.477   1.812   5.595  0.9670 -0.5346 -0.5408
   55CHL1  H27C 5250   2.328   1.706   5.625  0.3292 -3.0881  0.9154
   56CHL1    C3 5251   3.819   2.270   4.026  0.1923  0.2303 -0.0301
   56CHL1    H3 5252   3.729   2.328   4.059 -0.8863 -1.0507 -0.6207
   56CHL1    O3 5253   3.820   2.236   3.889  0.1237 -0.1296 -0.2472
   56CHL1   H3' 5254   3.905   2.194   3.875  0.5707  0.5920  0.2268
   56CHL1    C4 5255   3.948   2.339   4.066  0.0826 -0.4226 -0.1223
   56CHL1   H4A 5256   4.033   2.295   4.010 -1.3252 -0.8099 -2.0400
   56CHL1   H4B 5257   3.953   2.441   4.021 -0.4715  0.3337  1.4400
   56CHL1    C5 5258   3.978   2.347   4.212 -0.6199 -0.7031  0.4144
   56CHL1    C6 5259   3.999   2.465   4.284  0.1320  0.8373 -0.2626
   56CHL1    H6 5260   3.995   2.565   4.238 -1.0126  0.5620 -0.8084
   56CHL1    C7 5261   4.038   2.475   4.428  0.2400 -0.0755 -0.3683
   56CHL1   H7A 5262   4.125   2.540   4.451  0.6483 -1.3294  2.0097
   56CHL1   H7B 5263   3.948   2.513   4.479  0.5829  1.7344 -1.0442
   56CHL1    C8 5264   4.073   2.340   4.498 -0.5500  0.5896  0.2087
   56CHL1    H8 5265   4.177   2.306   4.474 -2.1708 -2.8503 -2.9795
   56CHL1   C14 5266   4.048   2.335   4.653  0.0431  0.2071  0.1868
   56CHL1   H14 5267   3.939   2.351   4.668 -0.1150 -0.4685 -0.1976
   56CHL1   C15 5268   4.112   2.450   4.732  0.1376  0.1516 -0.7289
   56CHL1  H15A 5269   4.209   2.484   4.690  1.4099  0.2588  2.0824
   56CHL1  H15B 5270   4.039   2.534   4.732  0.0078  0.0596  0.3405
   56CHL1   C16 5271   4.129   2.388   4.876 -1.1159 -0.5027  0.0685
   56CHL1  H16A 5272   4.236   2.385   4.907 -1.3098  1.1055  1.0372
   56CHL1  H16B 5273   4.079   2.452   4.952  1.5408  1.4063  0.3305
   56CHL1   C17 5274   4.070   2.248   4.873  0.3907  0.3202 -0.0164
   56CHL1   H17 5275   3.961   2.264   4.886  0.6039  0.3678  2.1572
   56CHL1   C13 5276   4.078   2.205   4.726 -0.3186  0.0946  0.4482
   56CHL1   C18 5277   4.231   2.166   4.703  0.3360 -0.0452  0.5154
   56CHL1  H18A 5278   4.239   2.060   4.734 -1.3290 -0.6787 -1.0783
   56CHL1  H18B 5279   4.258   2.172   4.595 -3.0739  1.3264 -0.3878
   56CHL1  H18C 5280   4.298   2.236   4.758 -0.8108  2.3182 -0.9348
   56CHL1   C12 5281   3.984   2.102   4.678 -0.6916 -0.4506  0.9148
   56CHL1  H12A 5282   3.999   2.000   4.720 -0.4736  0.0704  2.1398
   56CHL1  H12B 5283   3.883   2.121   4.721 -1.0948  0.8796 -0.5003
   56CHL1   C11 5284   3.981   2.091   4.522 -0.1080 -0.5243 -0.1885
   56CHL1  H11A 5285   4.079   2.049   4.491  0.0793 -0.1075 -0.1696
   56CHL1  H11B 5286   3.893   2.029   4.493  1.5450 -1.9290 -2.5495
   56CHL1    C9 5287   3.972   2.227   4.446  0.1337 -0.4594  0.4074
   56CHL1    H9 5288   3.874   2.276   4.463  0.2123 -0.7621  1.9451
   56CHL1   C10 5289   3.973   2.216   4.291  0.6043  0.1329  0.0094
   56CHL1   C19 5290   4.092   2.131   4.243 -0.3144  0.3866 -0.0587
   56CHL1  H19A 5291   4.084   2.028   4.284  0.3930  0.9514  1.5960
   56CHL1  H19B 5292   4.110   2.118   4.134 -1.6226  1.5801 -0.4381
   56CHL1  H19C 5293   4.189   2.172   4.278  0.6451 -0.1102 -1.9816
   56CHL1    C1 5294   3.840   2.142   4.247  0.8639 -0.0801  0.4073
   56CHL1   H1A 5295   3.829   2.041   4.292 -0.9734  0.0562  0.3313
   56CHL1   H1B 5296   3.767   2.214   4.291  1.6739 -0.4587  2.4917
   56CHL1    C2 5297   3.811   2.130   4.095  0.0070 -0.2598 -0.4270
   56CHL1   H2A 5298   3.712   2.084   4.074  0.4018 -0.6798 -1.4530
   56CHL1   H2B 5299   3.887   2.066   4.046  2.0969  0.8870  1.1819
   56CHL1   C20 5300   4.109   2.145   4.988  0.2284  0.1632 -0.2984
   56CHL1   H20 5301   4.216   2.118   4.971 -0.2782 -4.1148  2.0164
   56CHL1   C21 5302   4.029   2.013   4.974 -0.3066 -0.1267  0.0921
   56CHL1  H21A 5303   4.005   1.950   5.063  0.7199 -0.6404  0.0197
   56CHL1  H21B 5304   4.078   1.946   4.901 -1.1070 -0.9762  0.3017
   56CHL1  H21C 5305   3.933   2.037   4.923  0.0203 -1.8758 -1.4696
   56CHL1   C22 5306   4.107   2.213   5.131  0.4702  1.1809  0.9093
   56CHL1  H22A 5307   4.176   2.300   5.126  0.5663  1.0946  0.6982
   56CHL1  H22B 5308   4.003   2.243   5.156  0.7874  0.6055  3.0565
   56CHL1   C23 5309   4.147   2.124   5.246 -0.0988 -0.2205  0.1555
   56CHL1  H23A 5310   4.070   2.054   5.284 -1.7338  0.7015 -1.3487
   56CHL1  H23B 5311   4.239   2.065   5.224  0.5018  0.4629  0.7963
   56CHL1   C24 5312   4.177   2.204   5.379 -0.1506 -0.1344  0.3355
   56CHL1  H24A 5313   4.217   2.138   5.458  0.0529 -1.4681 -0.8390
   56CHL1  H24B 5314   4.258   2.277   5.355 -0.0908  0.5119  2.3492
   56CHL1   C25 5315   4.050   2.277   5.430  0.3261  0.0173 -0.8663
   56CHL1   H25 5316   4.003   2.343   5.354 -2.4653 -0.4352  0.3482
   56CHL1   C26 5317   3.945   2.186   5.488  0.2701  0.4604  0.7655
   56CHL1  H26A 5318   3.924   2.095   5.427 -2.9794  1.2610  0.5204
   56CHL1  H26B 5319   3.968   2.149   5.591  0.0688 -0.9094  0.3439
   56CHL1  H26C 5320   3.852   2.246   5.498 -1.7518 -1.6412 -3.2013
   56CHL1   C27 5321   4.089   2.370   5.542 -0.4767  0.2829 -0.2909
   56CHL1  H27A 5322   4.141   2.328   5.631 -0.1046 -0.6896 -0.9514
   56CHL1  H27B 5323   4.155   2.452   5.509  1.1432 -0.9598 -0.2474
   56CHL1  H27C 5324   3.995   2.417   5.579  0.6993  1.5449  1.2075
   57CHL1    C3 5325   3.372   1.743   3.834  0.1370 -1.1689  0.0814
   57CHL1    H3 5326   3.288   1.814   3.847 -0.5904 -1.7746 -1.1446
   57CHL1    O3 5327   3.418   1.763   3.700 -0.1344  0.3682  0.3006
   57CHL1   H3' 5328   3.492   1.703   3.685  0.3892  0.3599  2.4432
   57CHL1    C4 5329   3.492   1.783   3.927  0.5500  0.1888 -0.5924
   57CHL1   H4A 5330   3.580   1.720   3.901  1.6646  2.0232 -1.4655
   57CHL1   H4B 5331   3.525   1.886   3.901 -0.0111  0.3721 -0.5872
   57CHL1    C5 5332   3.460   1.772   4.076 -0.1251  0.0266 -1.1868
   57CHL1    C6 5333   3.488   1.868   4.167  0.1125  0.3780  0.2939
   57CHL1    H6 5334   3.544   1.955   4.129  1.6554 -0.5101  0.4216
   57CHL1    C7 5335   3.452   1.856   4.308  0.3380  0.2930 -0.2343
   57CHL1   H7A 5336   3.537   1.896   4.367 -0.4156  0.3163  0.8709
   57CHL1   H7B 5337   3.368   1.926   4.323 -0.8007 -1.3623  1.6908
   57CHL1    C8 5338   3.433   1.714   4.359 -0.0807  0.0614  0.4797
   57CHL1    H8 5339   3.531   1.662   4.352  0.1931  0.6522 -0.1249
   57CHL1   C14 5340   3.387   1.712   4.499  0.2754 -0.1071 -0.5461
   57CHL1   H14 5341   3.289   1.763   4.492 -0.4409 -1.5673 -2.3668
   57CHL1   C15 5342   3.454   1.791   4.610 -0.4751 -0.4348 -0.3259
   57CHL1  H15A 5343   3.563   1.809   4.599 -0.0099 -2.5735  0.3899
   57CHL1  H15B 5344   3.421   1.897   4.609  1.8342  0.3495  0.6369
   57CHL1   C16 5345   3.414   1.721   4.745 -0.0588 -0.5871 -0.0955
   57CHL1  H16A 5346   3.513   1.683   4.779  0.3720  0.6274  0.0571
   57CHL1  H16B 5347   3.363   1.801   4.804 -1.9438 -1.5000 -0.4159
   57CHL1   C17 5348   3.319   1.603   4.711  0.6686 -0.1513 -0.3057
   57CHL1   H17 5349   3.211   1.629   4.709 -0.0699 -2.6606  1.7056
   57CHL1   C13 5350   3.356   1.567   4.563  0.4684 -0.9334 -0.4479
   57CHL1   C18 5351   3.487   1.486   4.556 -0.3287 -0.0293  0.2527
   57CHL1  H18A 5352   3.469   1.380   4.587 -2.6427  0.9184  2.5502
   57CHL1  H18B 5353   3.527   1.490   4.453 -0.2163 -0.9652  0.2464
   57CHL1  H18C 5354   3.563   1.542   4.614 -0.5657  2.4702 -1.6945
   57CHL1   C12 5355   3.247   1.506   4.470  0.1817  0.1703  0.5600
   57CHL1  H12A 5356   3.208   1.406   4.498 -0.7822  0.2802 -0.3005
   57CHL1  H12B 5357   3.157   1.568   4.488  1.2632  1.3555  2.0951
   57CHL1   C11 5358   3.305   1.498   4.321  0.0967 -0.4413  0.1874
   57CHL1  H11A 5359   3.394   1.432   4.322 -0.5532 -1.3997 -1.3514
   57CHL1  H11B 5360   3.232   1.452   4.251  0.4362 -2.4143  1.0588
   57CHL1    C9 5361   3.343   1.639   4.262  0.2110  0.3303 -0.0093
   57CHL1    H9 5362   3.247   1.695   4.264  0.3859  0.6509  2.4517
   57CHL1   C10 5363   3.401   1.641   4.119  0.0706 -0.1172  0.4830
   57CHL1   C19 5364   3.521   1.550   4.111 -1.1075 -0.6315 -0.0107
   57CHL1  H19A 5365   3.593   1.573   4.191 -1.3780 -0.3551  0.1555
   57CHL1  H19B 5366   3.499   1.443   4.132 -0.4939 -0.1760  3.5504
   57CHL1  H19C 5367   3.583   1.550   4.019  2.0658 -2.5287  1.9455
   57CHL1    C1 5368   3.292   1.593   4.025 -0.3224 -0.0536  0.1338
   57CHL1   H1A 5369   3.245   1.497   4.057 -1.5260  1.2207  2.4016
   57CHL1   H1B 5370   3.209   1.664   4.044  0.9710  1.6384 -0.3218
   57CHL1    C2 5371   3.319   1.597   3.869 -0.1824 -0.5167  0.0181
   57CHL1   H2A 5372   3.218   1.576   3.826 -0.6410 -2.5296  1.9209
   57CHL1   H2B 5373   3.391   1.518   3.841 -0.5636 -1.3476  1.3085
   57CHL1   C20 5374   3.336   1.494   4.813  0.4368 -0.6086 -0.5182
   57CHL1   H20 5375   3.443   1.465   4.817  0.3789 -0.9403 -1.2993
   57CHL1   C21 5376   3.244   1.370   4.775 -0.1059  0.0023  0.5272
   57CHL1  H21A 5377   3.271   1.311   4.684  0.5215 -1.0625  1.3718
   57CHL1  H21B 5378   3.140   1.401   4.752  0.8960  1.8002 -2.1135
   57CHL1  H21C 5379   3.232   1.292   4.853 -0.1283  0.3611  0.8813
   57CHL1   C22 5380   3.298   1.536   4.952  0.0594 -0.3620 -0.2029
   57CHL1  H22A 5381   3.301   1.647   4.953 -0.5678 -0.3441  0.2800
   57CHL1  H22B 5382   3.194   1.512   4.985  0.0639  1.3790  1.2551
   57CHL1   C23 5383   3.406   1.486   5.051  0.0014  0.2013  0.1896
   57CHL1  H23A 5384   3.436   1.380   5.036 -0.4921  0.1227 -0.2894
   57CHL1  H23B 5385   3.493   1.548   5.025 -0.2772  0.6057  0.2179
   57CHL1   C24 5386   3.354   1.507   5.193  0.2914  0.5764 -0.2594
   57CHL1  H24A 5387   3.329   1.613   5.215  0.1141  0.3215  0.8357
   57CHL1  H24B 5388   3.261   1.453   5.222  1.0309  0.1925  1.4913
   57CHL1   C25 5389   3.465   1.456   5.289 -0.4642 -0.2534 -0.3124
   57CHL1   H25 5390   3.562   1.491   5.247 -1.1947  0.0843 -1.7640
   57CHL1   C26 5391   3.451   1.514   5.426  0.1911 -0.0102 -0.6297
   57CHL1  H26A 5392   3.455   1.625   5.428  1.5072 -0.0376 -1.0345
   57CHL1  H26B 5393   3.352   1.487   5.469  0.4756  1.8451  1.4083
   57CHL1  H26C 5394   3.538   1.478   5.485  0.2920  0.7653 -0.2882
   57CHL1   C27 5395   3.479   1.298   5.300 -0.2938  0.4779  0.7781
   57CHL1  H27A 5396   3.563   1.278   5.370 -0.3469 -0.4755  0.5807
   57CHL1  H27B 5397   3.387   1.252   5.341 -1.7311  4.3311  2.2850
   57CHL1  H27C 5398   3.500   1.258   5.199 -1.2141  0.6439  0.5176
   58CHL1    C3 5399   3.009   0.372   4.005  0.3745 -0.0614  0.0959
   58CHL1    H3 5400   2.944   0.462   4.016  0.6964  0.4730 -1.8956
   58CHL1    O3 5401   2.990   0.323   3.871 -0.1553 -0.3067 -0.3926
   58CHL1   H3' 5402   3.056   0.254   3.861 -1.2668 -1.3914 -0.2930
   58CHL1    C4 5403   3.162   0.385   4.033  0.0733 -0.3245 -0.5400
   58CHL1   H4A 5404   3.216   0.289   4.019  0.5814 -0.4953  2.0061
   58CHL1   H4B 5405   3.216   0.451   3.962  0.3890 -2.3805 -2.2900
   58CHL1    C5 5406   3.190   0.434   4.178 -0.9888  0.5237  0.6217
   58CHL1    C6 5407   3.270   0.537   4.215  0.9599 -0.0157 -0.4439
   58CHL1    H6 5408   3.319   0.592   4.133  1.4521  1.0556  0.5493
   58CHL1    C7 5409   3.316   0.572   4.359 -0.2923  0.1468  0.1773
   58CHL1   H7A 5410   3.426   0.592   4.363  0.3801 -2.4832 -2.1317
   58CHL1   H7B 5411   3.260   0.666   4.382 -0.0174  0.2510  0.4223
   58CHL1    C8 5412   3.279   0.470   4.461 -0.6269 -0.0857  0.2839
   58CHL1    H8 5413   3.357   0.391   4.461 -0.7173 -0.1810  0.8131
   58CHL1   C14 5414   3.282   0.531   4.600  0.4421  0.2383 -0.4149
   58CHL1   H14 5415   3.204   0.610   4.609  1.3753  1.2076 -0.5910
   58CHL1   C15 5416   3.411   0.600   4.645 -0.3830 -0.1374 -1.4667
   58CHL1  H15A 5417   3.494   0.530   4.621 -0.2946 -0.1800 -1.0518
   58CHL1  H15B 5418   3.437   0.692   4.588  0.1924 -0.6204 -2.0019
   58CHL1   C16 5419   3.394   0.617   4.804 -0.0926  0.4829  0.6784
   58CHL1  H16A 5420   3.485   0.596   4.864 -1.2504  0.4940  2.5281
   58CHL1  H16B 5421   3.372   0.725   4.824  1.8286  1.2681 -1.0567
   58CHL1   C17 5422   3.268   0.530   4.834  0.0230  0.1905 -0.5886
   58CHL1   H17 5423   3.179   0.596   4.826 -0.6872 -0.5444  0.8216
   58CHL1   C13 5424   3.248   0.437   4.712  0.2715  0.0446  0.5257
   58CHL1   C18 5425   3.350   0.321   4.713 -0.4217 -0.2489 -0.5070
   58CHL1  H18A 5426   3.454   0.360   4.715 -0.1171 -1.0508  0.1193
   58CHL1  H18B 5427   3.314   0.263   4.801 -1.7703  0.3433 -0.6336
   58CHL1  H18C 5428   3.336   0.254   4.626  2.1928  1.5104 -2.4132
   58CHL1   C12 5429   3.103   0.381   4.689 -0.4935 -0.5095 -0.0209
   58CHL1  H12A 5430   3.072   0.314   4.773 -0.0985 -1.4189 -0.5837
   58CHL1  H12B 5431   3.034   0.468   4.680  1.5758  1.1253 -0.8324
   58CHL1   C11 5432   3.090   0.319   4.549 -0.3706  0.8607 -0.8297
   58CHL1  H11A 5433   3.146   0.223   4.555 -0.7810  0.6946  0.5294
   58CHL1  H11B 5434   2.983   0.297   4.528 -0.0788 -0.2678 -1.2334
   58CHL1    C9 5435   3.143   0.407   4.429 -0.1052 -0.5060  0.2089
   58CHL1    H9 5436   3.073   0.493   4.429  0.0528 -0.3744 -0.3154
   58CHL1   C10 5437   3.134   0.341   4.290  0.2495 -0.5729 -0.1996
   58CHL1   C19 5438   3.229   0.222   4.292  0.1999  0.7956  0.1122
   58CHL1  H19A 5439   3.192   0.155   4.373 -0.2784  0.2991 -0.5105
   58CHL1  H19B 5440   3.222   0.161   4.200 -0.8849  0.4887  0.3825
   58CHL1  H19C 5441   3.337   0.236   4.314  0.3795 -0.5996  0.1527
   58CHL1    C1 5442   2.978   0.308   4.257 -0.0307 -0.1434  0.0310
   58CHL1   H1A 5443   2.936   0.231   4.325  1.4413 -0.7243  0.3262
   58CHL1   H1B 5444   2.927   0.404   4.282  0.6932  1.2685 -3.3409
   58CHL1    C2 5445   2.958   0.274   4.105  0.7480  0.0662  0.1802
   58CHL1   H2A 5446   2.851   0.255   4.080  0.1487  3.1717  0.0611
   58CHL1   H2B 5447   3.022   0.190   4.071  0.3152  0.1210 -0.7917
   58CHL1   C20 5448   3.260   0.471   4.977 -0.5599 -0.2891  0.0879
   58CHL1   H20 5449   3.181   0.393   4.978  0.5072 -1.4699 -1.8154
   58CHL1   C21 5450   3.217   0.586   5.069 -0.2719 -0.4991  0.6167
   58CHL1  H21A 5451   3.298   0.661   5.068 -0.3146 -0.3680  2.6815
   58CHL1  H21B 5452   3.207   0.556   5.175  0.7321  0.7526  1.0801
   58CHL1  H21C 5453   3.119   0.626   5.035  0.3195  1.2287  0.8787
   58CHL1   C22 5454   3.386   0.410   5.043 -0.0387  0.6763 -0.2676
   58CHL1  H22A 5455   3.428   0.340   4.968  1.1052  2.1927 -1.1035
   58CHL1  H22B 5456   3.462   0.489   5.062  0.4990  0.3773 -1.1080
   58CHL1   C23 5457   3.353   0.324   5.173 -0.6386  0.6568  0.1457
   58CHL1  H23A 5458   3.316   0.382   5.259 -2.3972  0.8273 -0.6922
   58CHL1  H23B 5459   3.281   0.241   5.159  0.0148 -0.0847  1.0583
   58CHL1   C24 5460   3.477   0.250   5.227 -0.1415 -0.2033  0.0438
   58CHL1  H24A 5461   3.553   0.329   5.243 -1.0993  1.0374 -1.2637
   58CHL1  H24B 5462   3.459   0.193   5.320  0.3985 -0.1489  0.1820
   58CHL1   C25 5463   3.552   0.154   5.126  0.2154 -0.0824 -0.0906
   58CHL1   H25 5464   3.549   0.209   5.030  0.6693 -0.7871 -0.5122
   58CHL1   C26 5465   3.699   0.130   5.171 -0.3970  0.3544  0.1544
   58CHL1  H26A 5466   3.714   0.079   5.268  1.1303  0.5647  0.0650
   58CHL1  H26B 5467   3.755   0.069   5.097 -4.1009 -0.7464 -2.0248
   58CHL1  H26C 5468   3.750   0.228   5.182  0.4668  0.0171 -0.7210
   58CHL1   C27 5469   3.481   0.023   5.105 -0.6061 -0.2041  0.1118
   58CHL1  H27A 5470   3.452  -0.028   5.199 -0.5362  0.5033  0.5182
   58CHL1  H27B 5471   3.399   0.042   5.032  0.3581 -2.3201 -1.6681
   58CHL1  H27C 5472   3.554  -0.051   5.065  1.0565  1.5320 -0.1700
   59CHL1    C3 5473   2.531   6.794   4.515 -0.1776  0.7221  0.0605
   59CHL1    H3 5474   2.433   6.746   4.535  0.7981 -0.2845  2.7988
   59CHL1    O3 5475   2.571   6.790   4.381  0.4550  0.0791  0.4583
   59CHL1   H3' 5476   2.585   6.881   4.356 -0.3082  0.0211 -0.2091
   59CHL1    C4 5477   2.527   6.938   4.567  0.2811  0.1836  0.2330
   59CHL1   H4A 5478   2.628   6.977   4.542  2.9339 -4.3618  2.4157
   59CHL1   H4B 5479   2.443   6.997   4.525  1.1871  1.0887 -0.3407
   59CHL1    C5 5480   2.507   6.956   4.720  0.0854  0.3682 -0.3825
   59CHL1    C6 5481   2.405   7.032   4.773  0.0545  0.1602  0.4640
   59CHL1    H6 5482   2.341   7.089   4.705 -0.4545  0.4624  1.1824
   59CHL1    C7 5483   2.388   7.059   4.919  0.6713  0.5177 -0.5394
   59CHL1   H7A 5484   2.371   7.168   4.935 -0.5395  0.4750 -1.4284
   59CHL1   H7B 5485   2.286   7.021   4.940  0.4011  0.9499 -1.0409
   59CHL1    C8 5486   2.505   6.999   5.010 -0.0781  0.1825 -0.2906
   59CHL1    H8 5487   2.585   7.075   5.006 -0.0425  0.1086 -1.1580
   59CHL1   C14 5488   2.458   6.978   5.154  0.1940  0.2691  0.1998
   59CHL1   H14 5489   2.384   6.896   5.158  2.3076 -1.8246 -1.1526
   59CHL1   C15 5490   2.391   7.094   5.220  0.1672 -0.7686  0.3586
   59CHL1  H15A 5491   2.457   7.181   5.199  1.6684 -2.0127 -0.2817
   59CHL1  H15B 5492   2.293   7.115   5.172 -0.1343 -1.5607  0.6174
   59CHL1   C16 5493   2.387   7.058   5.365  0.5238 -0.1874  0.6005
   59CHL1  H16A 5494   2.420   7.150   5.417  1.1626  0.9020 -1.6243
   59CHL1  H16B 5495   2.286   7.018   5.389  0.4803 -1.7539 -1.8637
   59CHL1   C17 5496   2.491   6.943   5.384  0.4320  0.1743 -0.5265
   59CHL1   H17 5497   2.430   6.850   5.394  2.6820 -1.6277 -2.2952
   59CHL1   C13 5498   2.568   6.932   5.244  0.3085  0.6651  0.0572
   59CHL1   C18 5499   2.689   7.042   5.242  0.7067  0.2423  0.4662
   59CHL1  H18A 5500   2.660   7.144   5.277 -1.4170 -0.9134  2.3192
   59CHL1  H18B 5501   2.773   7.002   5.303  0.3660  1.5401  1.8534
   59CHL1  H18C 5502   2.724   7.065   5.139 -2.4544  2.6775 -0.2262
   59CHL1   C12 5503   2.618   6.787   5.195 -0.0403  0.4936  0.2373
   59CHL1  H12A 5504   2.694   6.762   5.272 -0.5706  0.8916  0.9001
   59CHL1  H12B 5505   2.525   6.727   5.207 -0.0513  0.7439  1.5261
   59CHL1   C11 5506   2.670   6.797   5.056 -0.1008  0.6238 -0.1666
   59CHL1  H11A 5507   2.772   6.841   5.047  1.9565 -3.7449 -0.7956
   59CHL1  H11B 5508   2.685   6.690   5.030  2.2156  0.7013  0.6215
   59CHL1    C9 5509   2.565   6.864   4.957 -0.9163 -0.4980  0.0334
   59CHL1    H9 5510   2.477   6.796   4.965 -0.9922 -0.3407  0.5525
   59CHL1   C10 5511   2.604   6.868   4.808  0.1947 -0.1620  0.3863
   59CHL1   C19 5512   2.738   6.946   4.800 -0.2850  0.0547  0.0076
   59CHL1  H19A 5513   2.777   6.933   4.697  0.8475  0.4045  0.3789
   59CHL1  H19B 5514   2.720   7.052   4.826 -2.3950 -0.5285  1.2457
   59CHL1  H19C 5515   2.820   6.906   4.863  1.5641  0.4459 -2.0280
   59CHL1    C1 5516   2.606   6.722   4.748 -0.0555  0.1841  0.1949
   59CHL1   H1A 5517   2.681   6.665   4.807  2.8766  1.6136 -1.8565
   59CHL1   H1B 5518   2.507   6.673   4.753 -0.6400  1.3027  0.0203
   59CHL1    C2 5519   2.633   6.721   4.597 -0.0628 -0.1084  0.6146
   59CHL1   H2A 5520   2.633   6.620   4.551  2.4381  0.3141 -0.4636
   59CHL1   H2B 5521   2.736   6.754   4.573  0.6784 -1.9296  1.0801
   59CHL1   C20 5522   2.575   6.953   5.514 -0.6581  0.2592  0.5625
   59CHL1   H20 5523   2.649   7.035   5.506  0.1055 -0.5402 -0.8025
   59CHL1   C21 5524   2.649   6.816   5.535  0.7260 -0.0779  0.1036
   59CHL1  H21A 5525   2.727   6.790   5.460  0.8684 -1.3514  0.6641
   59CHL1  H21B 5526   2.573   6.735   5.522 -1.5748  1.5660  2.2958
   59CHL1  H21C 5527   2.709   6.807   5.628  1.4919 -3.4087 -0.5790
   59CHL1   C22 5528   2.489   6.987   5.640  0.6745  0.0071  0.5685
   59CHL1  H22A 5529   2.538   7.012   5.736 -0.5690 -2.0167  1.8005
   59CHL1  H22B 5530   2.426   7.077   5.618  1.3591  0.3450 -0.0494
   59CHL1   C23 5531   2.391   6.876   5.684 -0.3204  0.3119 -0.0960
   59CHL1  H23A 5532   2.337   6.833   5.596 -1.8026 -0.6876  1.2430
   59CHL1  H23B 5533   2.452   6.797   5.733 -0.2047  1.4276  1.6361
   59CHL1   C24 5534   2.279   6.918   5.772  0.5158 -0.4490  0.2848
   59CHL1  H24A 5535   2.314   6.976   5.860  1.6067 -0.2731 -0.2484
   59CHL1  H24B 5536   2.202   6.985   5.729 -0.0488 -0.7571  0.7953
   59CHL1   C25 5537   2.197   6.796   5.816  0.0255 -0.2227  0.3706
   59CHL1   H25 5538   2.267   6.713   5.842  2.3167  1.0184 -1.4331
   59CHL1   C26 5539   2.123   6.840   5.942 -0.2366 -0.7196  0.3485
   59CHL1  H26A 5540   2.065   6.751   5.976 -1.9919 -0.6532 -2.2109
   59CHL1  H26B 5541   2.193   6.875   6.021 -1.5054  0.1632  1.1211
   59CHL1  H26C 5542   2.044   6.912   5.912  1.5312  1.3638  0.4959
   59CHL1   C27 5543   2.094   6.747   5.714 -0.7647  0.0119  0.2784
   59CHL1  H27A 5544   2.037   6.838   5.685 -2.0012 -0.1207  2.0933
   59CHL1  H27B 5545   2.155   6.688   5.643  2.2403  1.2264  1.6623
   59CHL1  H27C 5546   2.026   6.676   5.765 -2.5989  1.9142  0.6394
   60CHL1    C3 5547   3.118   5.612   4.179 -0.2566 -0.5705  0.5974
   60CHL1    H3 5548   3.195   5.691   4.188 -0.4612 -0.4088  0.9333
   60CHL1    O3 5549   3.092   5.587   4.042  0.0799  0.1262 -0.4846
   60CHL1   H3' 5550   3.013   5.532   4.040 -3.2011  4.2321  1.1657
   60CHL1    C4 5551   3.163   5.483   4.253  0.0985  0.4490 -0.0204
   60CHL1   H4A 5552   3.075   5.416   4.240  0.6902 -0.4174  0.4222
   60CHL1   H4B 5553   3.257   5.450   4.205 -0.8102 -1.3221 -0.6630
   60CHL1    C5 5554   3.186   5.485   4.397 -0.5504 -0.5602  0.1663
   60CHL1    C6 5555   3.303   5.451   4.456 -0.0311 -0.4958  0.1152
   60CHL1    H6 5556   3.387   5.402   4.404  0.6163 -2.5123  2.8282
   60CHL1    C7 5557   3.328   5.464   4.603 -1.1901  0.6179 -0.9636
   60CHL1   H7A 5558   3.371   5.370   4.642 -2.4976 -0.6072 -2.2996
   60CHL1   H7B 5559   3.398   5.547   4.624 -2.3661  1.7817 -1.4794
   60CHL1    C8 5560   3.212   5.509   4.689  0.1788 -0.4735 -0.0538
   60CHL1    H8 5561   3.151   5.417   4.703 -0.8417 -0.4711 -3.5063
   60CHL1   C14 5562   3.259   5.562   4.827 -0.6628  0.2559 -0.8781
   60CHL1   H14 5563   3.331   5.643   4.802 -0.1644  0.8623  2.1671
   60CHL1   C15 5564   3.345   5.466   4.906 -0.4632 -0.3410  0.3652
   60CHL1  H15A 5565   3.297   5.367   4.923  1.1038 -0.8232  2.2057
   60CHL1  H15B 5566   3.441   5.460   4.851 -1.6310 -1.2250 -1.7372
   60CHL1   C16 5567   3.352   5.541   5.049  0.3791  0.5952  0.3295
   60CHL1  H16A 5568   3.313   5.469   5.124  0.7770 -0.2760 -0.2933
   60CHL1  H16B 5569   3.460   5.555   5.072  1.7631 -2.9789 -2.8451
   60CHL1   C17 5570   3.254   5.668   5.031 -0.1789 -0.5870 -0.2322
   60CHL1   H17 5571   3.319   5.750   4.994 -0.7240  0.0632  0.2316
   60CHL1   C13 5572   3.159   5.624   4.916 -0.1531 -0.4601 -0.4181
   60CHL1   C18 5573   3.056   5.526   4.976  0.2543 -0.5123 -0.1951
   60CHL1  H18A 5574   3.097   5.477   5.066  0.9355  0.1698 -0.1211
   60CHL1  H18B 5575   2.964   5.581   5.005 -0.0413 -1.2058  0.1813
   60CHL1  H18C 5576   3.025   5.451   4.900  0.7794 -1.0063  0.0745
   60CHL1   C12 5577   3.094   5.738   4.839 -0.6130  0.0032  0.2620
   60CHL1  H12A 5578   3.012   5.774   4.904 -1.2687 -1.1544  0.1083
   60CHL1  H12B 5579   3.166   5.817   4.811  1.1352 -1.2620  0.9848
   60CHL1   C11 5580   3.030   5.686   4.710  0.2256 -0.0009  0.2370
   60CHL1  H11A 5581   2.950   5.611   4.724  0.0874 -0.4151 -2.2808
   60CHL1  H11B 5582   2.984   5.774   4.661  1.7222  0.9196  0.4124
   60CHL1    C9 5583   3.133   5.618   4.616  0.1458 -0.0106  0.6511
   60CHL1    H9 5584   3.210   5.693   4.587 -1.0209  0.7750 -0.5385
   60CHL1   C10 5585   3.071   5.565   4.479 -0.1958 -1.1763 -0.1527
   60CHL1   C19 5586   2.949   5.476   4.510  0.1486 -0.1218 -0.5145
   60CHL1  H19A 5587   2.924   5.421   4.417  0.9546 -0.2702 -0.6522
   60CHL1  H19B 5588   2.970   5.396   4.585 -0.2457 -0.3532 -0.6464
   60CHL1  H19C 5589   2.865   5.542   4.541 -0.1508 -1.0592  0.7926
   60CHL1    C1 5590   3.024   5.685   4.384 -0.5178 -0.1008 -0.3346
   60CHL1   H1A 5591   2.933   5.729   4.430 -1.1277 -0.6710 -0.9625
   60CHL1   H1B 5592   3.107   5.758   4.394 -0.0018 -0.9322  1.9832
   60CHL1    C2 5593   2.990   5.664   4.247 -0.5644  0.2980 -0.4886
   60CHL1   H2A 5594   2.967   5.766   4.208  1.3977  0.8802 -0.2386
   60CHL1   H2B 5595   2.902   5.601   4.223 -0.8273  0.6478 -0.4494
   60CHL1   C20 5596   3.201   5.716   5.171 -0.5836 -0.0754  0.0825
   60CHL1   H20 5597   3.124   5.645   5.209  3.0613 -3.4974  1.7949
   60CHL1   C21 5598   3.148   5.858   5.157  0.1211 -0.2576 -0.3116
   60CHL1  H21A 5599   3.229   5.926   5.122  2.4645 -1.9304  1.5185
   60CHL1  H21B 5600   3.122   5.913   5.250 -2.0434 -0.5834 -0.6739
   60CHL1  H21C 5601   3.064   5.864   5.084  2.1081  0.2713 -2.6902
   60CHL1   C22 5602   3.315   5.715   5.284  0.5279 -0.5022  0.6119
   60CHL1  H22A 5603   3.357   5.613   5.300 -0.7994 -1.1089  0.3676
   60CHL1  H22B 5604   3.383   5.796   5.249 -0.6034 -0.0609 -0.6327
   60CHL1   C23 5605   3.265   5.761   5.428  0.1131 -0.5295 -0.5552
   60CHL1  H23A 5606   3.215   5.860   5.422 -0.3248 -0.6725  0.4566
   60CHL1  H23B 5607   3.183   5.691   5.458  1.1825 -0.8019  2.0150
   60CHL1   C24 5608   3.362   5.759   5.544 -0.1980  0.0592  0.0005
   60CHL1  H24A 5609   3.316   5.794   5.639 -0.9216  1.1740 -0.7376
   60CHL1  H24B 5610   3.393   5.655   5.567  2.5353  1.4158  3.1732
   60CHL1   C25 5611   3.499   5.822   5.511  0.2425  0.6887  0.4972
   60CHL1   H25 5612   3.549   5.760   5.435 -1.5821 -0.5230  0.2098
   60CHL1   C26 5613   3.488   5.972   5.462 -0.5334 -0.5163  0.0670
   60CHL1  H26A 5614   3.468   6.046   5.543  1.2822 -1.0177  1.0261
   60CHL1  H26B 5615   3.586   6.008   5.425 -0.9928 -0.8015 -1.4806
   60CHL1  H26C 5616   3.416   5.986   5.378  0.4574  2.4595 -0.4085
   60CHL1   C27 5617   3.583   5.830   5.633 -0.4421 -0.1142 -0.3974
   60CHL1  H27A 5618   3.677   5.889   5.624 -0.4353 -0.1995 -0.8867
   60CHL1  H27B 5619   3.534   5.884   5.717 -0.3120  0.5926 -0.7675
   60CHL1  H27C 5620   3.618   5.730   5.667 -1.4598 -0.1693  0.5532
   61CHL1    C3 5621   4.329   3.432   3.993 -0.0083  0.2363 -0.2042
   61CHL1    H3 5622   4.292   3.328   4.008  2.4774 -0.9349 -1.4916
   61CHL1    O3 5623   4.364   3.438   3.858 -0.1586  0.1843 -0.5713
   61CHL1   H3' 5624   4.458   3.454   3.848  0.0878  0.0576  1.1470
   61CHL1    C4 5625   4.218   3.537   4.021 -0.1441 -0.0294 -0.5136
   61CHL1   H4A 5626   4.264   3.633   3.989 -1.5909  0.4432 -1.2592
   61CHL1   H4B 5627   4.138   3.520   3.946  0.7826  0.7017 -1.6910
   61CHL1    C5 5628   4.177   3.525   4.168  0.0477 -0.2366  0.0588
   61CHL1    C6 5629   4.053   3.495   4.199 -0.0579 -0.1240  0.4510
   61CHL1    H6 5630   3.982   3.472   4.117 -3.3825  1.6596  2.5958
   61CHL1    C7 5631   3.992   3.470   4.337  0.1989  0.2663  0.3181
   61CHL1   H7A 5632   3.895   3.524   4.349  0.5968  1.2899 -0.8568
   61CHL1   H7B 5633   3.965   3.363   4.352  3.1113 -0.5456  0.3742
   61CHL1    C8 5634   4.091   3.508   4.444  0.6312 -0.2126 -0.4998
   61CHL1    H8 5635   4.076   3.617   4.451 -0.5592 -0.3933  0.1204
   61CHL1   C14 5636   4.055   3.450   4.581 -0.3367 -0.0975 -0.1838
   61CHL1   H14 5637   4.084   3.343   4.574 -2.4584 -0.6836 -0.7881
   61CHL1   C15 5638   3.901   3.458   4.620  0.1113  0.1015  0.3121
   61CHL1  H15A 5639   3.878   3.566   4.611 -0.8924  0.1183  2.3591
   61CHL1  H15B 5640   3.827   3.397   4.565  1.1538 -2.2303  1.3438
   61CHL1   C16 5641   3.911   3.432   4.772 -0.0570  0.1353  0.2642
   61CHL1  H16A 5642   3.858   3.515   4.824 -0.8314 -0.4568  0.4325
   61CHL1  H16B 5643   3.865   3.334   4.800 -1.0381  0.3198 -0.6539
   61CHL1   C17 5644   4.063   3.427   4.805 -0.0199 -0.2667 -0.1401
   61CHL1   H17 5645   4.078   3.318   4.789 -0.5201 -0.2510 -0.7221
   61CHL1   C13 5646   4.132   3.506   4.700 -0.3724  0.7400  0.2800
   61CHL1   C18 5647   4.104   3.659   4.716 -1.0189  0.0935  0.3013
   61CHL1  H18A 5648   3.994   3.671   4.732 -0.6391  0.5339  3.0144
   61CHL1  H18B 5649   4.155   3.709   4.801  0.9305  1.9091 -1.8409
   61CHL1  H18C 5650   4.136   3.706   4.621 -0.3588 -0.0926  0.4275
   61CHL1   C12 5651   4.277   3.475   4.671 -0.5608  0.2256 -0.3229
   61CHL1  H12A 5652   4.337   3.518   4.754  0.3451 -0.4269 -0.6186
   61CHL1  H12B 5653   4.303   3.367   4.681  0.7302  0.6981  1.9987
   61CHL1   C11 5654   4.326   3.520   4.529  0.7432 -0.1327  0.1471
   61CHL1  H11A 5655   4.343   3.630   4.531  0.8104 -0.1517  0.6120
   61CHL1  H11B 5656   4.428   3.484   4.503  1.5149  2.8257 -1.3743
   61CHL1    C9 5657   4.235   3.479   4.410 -0.0019  0.8185  0.1206
   61CHL1    H9 5658   4.235   3.368   4.416 -1.1309  0.9032  3.3409
   61CHL1   C10 5659   4.288   3.536   4.275  0.2733  0.7780  0.3672
   61CHL1   C19 5660   4.319   3.684   4.295 -0.6986 -0.0626  0.2870
   61CHL1  H19A 5661   4.421   3.689   4.340 -0.5003 -3.8968  0.5340
   61CHL1  H19B 5662   4.335   3.743   4.202 -0.1415  1.3265  1.2192
   61CHL1  H19C 5663   4.250   3.736   4.364 -2.1905  1.0620 -1.9177
   61CHL1    C1 5664   4.409   3.453   4.231  0.4189  0.9012  0.0459
   61CHL1   H1A 5665   4.492   3.480   4.299  0.2223  3.9348 -0.7566
   61CHL1   H1B 5666   4.383   3.346   4.242 -3.2980  1.5490 -1.0600
   61CHL1    C2 5667   4.450   3.462   4.082 -0.1463  0.3186 -0.1055
   61CHL1   H2A 5668   4.523   3.383   4.055 -1.9765 -1.5461  0.1871
   61CHL1   H2B 5669   4.494   3.560   4.053  0.4936 -0.0591 -0.4356
   61CHL1   C20 5670   4.108   3.468   4.946 -0.7840  0.4482 -0.4852
   61CHL1   H20 5671   4.138   3.574   4.938 -3.9095  1.4640 -0.2887
   61CHL1   C21 5672   4.237   3.391   4.997  0.0923 -0.3924 -0.4443
   61CHL1  H21A 5673   4.321   3.386   4.924 -0.1356  2.0880 -1.0000
   61CHL1  H21B 5674   4.213   3.284   5.013  1.0286 -0.1699  3.1621
   61CHL1  H21C 5675   4.275   3.437   5.091 -0.2308  1.7409 -1.2897
   61CHL1   C22 5676   4.010   3.459   5.053  0.0594  0.4963  0.5880
   61CHL1  H22A 5677   3.915   3.500   5.012  0.7518  1.0752 -0.4753
   61CHL1  H22B 5678   4.012   3.358   5.098  3.8441  0.1963  0.0384
   61CHL1   C23 5679   4.031   3.555   5.169 -0.7206  0.7166  0.2732
   61CHL1  H23A 5680   4.116   3.508   5.224 -1.2226 -0.6028 -0.0411
   61CHL1  H23B 5681   4.061   3.659   5.142 -0.8668  0.5399 -0.5752
   61CHL1   C24 5682   3.906   3.555   5.264 -0.2333 -0.8362  0.4841
   61CHL1  H24A 5683   3.821   3.600   5.208 -0.7812  1.5718  3.0355
   61CHL1  H24B 5684   3.877   3.449   5.280  0.1795 -0.7832  1.6648
   61CHL1   C25 5685   3.901   3.653   5.391  0.0999 -0.0528  1.0338
   61CHL1   H25 5686   3.935   3.750   5.348  1.3155 -0.6717  0.5507
   61CHL1   C26 5687   3.765   3.665   5.448 -0.6056 -0.3897 -0.2493
   61CHL1  H26A 5688   3.779   3.712   5.548  2.6511  0.2671 -0.8925
   61CHL1  H26B 5689   3.697   3.723   5.382 -0.2424  1.4554  0.9279
   61CHL1  H26C 5690   3.725   3.562   5.460  0.6280 -0.9215 -0.5005
   61CHL1   C27 5691   4.001   3.608   5.499  0.0307  0.5103 -0.3763
   61CHL1  H27A 5692   4.107   3.601   5.466  1.0168 -0.1665  2.6390
   61CHL1  H27B 5693   3.996   3.690   5.573  0.1463 -0.6495  0.9398
   61CHL1  H27C 5694   3.968   3.509   5.537  0.8044  0.9169  1.4535
   62CHL1    C3 5695   2.900   0.706   4.131  0.4363 -0.3537 -0.1731
   62CHL1    H3 5696   2.965   0.620   4.156  1.0465  0.7233  2.2215
   62CHL1    O3 5697   2.891   0.747   3.996  0.1337 -0.4276  0.7534
   62CHL1   H3' 5698   2.839   0.827   4.000  2.1923  0.9802  0.8081
   62CHL1    C4 5699   2.758   0.676   4.194 -0.0722  0.5201  0.4898
   62CHL1   H4A 5700   2.682   0.754   4.169  0.9599  1.5481  0.4943
   62CHL1   H4B 5701   2.719   0.591   4.135  1.8704  1.0621 -1.7042
   62CHL1    C5 5702   2.761   0.642   4.341  0.0233  0.4502 -0.4031
   62CHL1    C6 5703   2.708   0.526   4.389 -0.1726 -0.2136  0.0395
   62CHL1    H6 5704   2.680   0.448   4.316  1.5046  0.6069 -1.5581
   62CHL1    C7 5705   2.696   0.496   4.539 -0.8178 -0.6221 -0.6067
   62CHL1   H7A 5706   2.590   0.469   4.560 -0.1832 -2.0630  0.9594
   62CHL1   H7B 5707   2.753   0.405   4.570  1.0314  0.5749 -0.3474
   62CHL1    C8 5708   2.722   0.624   4.621 -0.3306 -0.0437 -0.3769
   62CHL1    H8 5709   2.634   0.692   4.613 -0.2254  0.1073 -0.2626
   62CHL1   C14 5710   2.728   0.585   4.762 -0.2372  0.2314  0.2192
   62CHL1   H14 5711   2.811   0.511   4.753  1.7214  2.4182 -0.6080
   62CHL1   C15 5712   2.603   0.524   4.838  0.1258  0.2174 -0.0406
   62CHL1  H15A 5713   2.509   0.571   4.802  1.3689  1.5920 -1.6022
   62CHL1  H15B 5714   2.606   0.414   4.823  1.5485 -0.1175  2.2466
   62CHL1   C16 5715   2.631   0.544   4.988 -0.6078 -0.5616  0.8096
   62CHL1  H16A 5716   2.554   0.609   5.035  0.1085  0.2821  0.8516
   62CHL1  H16B 5717   2.646   0.448   5.042 -0.5308 -0.6903  0.5593
   62CHL1   C17 5718   2.771   0.621   4.992  0.6108  0.0597  0.3616
   62CHL1   H17 5719   2.852   0.545   4.991  0.3204 -0.2449 -0.2557
   62CHL1   C13 5720   2.778   0.691   4.860  0.5547  0.4282  0.2477
   62CHL1   C18 5721   2.684   0.812   4.864  0.4331  0.2602  0.1953
   62CHL1  H18A 5722   2.583   0.792   4.907  1.3274 -0.3205  2.1384
   62CHL1  H18B 5723   2.731   0.894   4.922 -0.7523  1.3448 -0.3221
   62CHL1  H18C 5724   2.670   0.848   4.759  0.9763  0.0375  0.0439
   62CHL1   C12 5725   2.921   0.725   4.817 -0.6480 -0.3624  0.4426
   62CHL1  H12A 5726   2.953   0.808   4.884  3.9612 -0.9422 -0.6865
   62CHL1  H12B 5727   2.984   0.636   4.840 -0.1540  0.0055  0.5527
   62CHL1   C11 5728   2.916   0.774   4.677 -0.1542 -1.1801  0.9855
   62CHL1  H11A 5729   2.860   0.870   4.683  0.4569 -0.4611 -2.5254
   62CHL1  H11B 5730   3.015   0.798   4.634 -1.5117  2.1846 -0.5891
   62CHL1    C9 5731   2.846   0.688   4.569 -0.2712 -0.1260  0.5285
   62CHL1    H9 5732   2.919   0.605   4.558  0.9810  0.7075  2.0692
   62CHL1   C10 5733   2.832   0.751   4.434  0.0814  0.1188  0.5978
   62CHL1   C19 5734   2.740   0.871   4.442  0.2458  0.2351  0.0692
   62CHL1  H19A 5735   2.635   0.838   4.456  0.4622  0.3678  2.4665
   62CHL1  H19B 5736   2.762   0.945   4.522 -1.1417  0.8583 -0.0906
   62CHL1  H19C 5737   2.744   0.924   4.345  0.3069  0.5100  0.2215
   62CHL1    C1 5738   2.964   0.790   4.365 -0.0296  0.1729 -0.4101
   62CHL1   H1A 5739   3.019   0.873   4.414  0.9412 -1.7433  1.9215
   62CHL1   H1B 5740   3.023   0.696   4.365 -0.0386  0.1492 -1.3505
   62CHL1    C2 5741   2.963   0.827   4.213 -0.1667 -0.0484  0.0589
   62CHL1   H2A 5742   3.067   0.833   4.177  0.7439  0.0753  2.5023
   62CHL1   H2B 5743   2.902   0.917   4.191  1.9614  1.5185  0.3331
   62CHL1   C20 5744   2.809   0.701   5.120  0.2175  0.0229  0.6147
   62CHL1   H20 5745   2.892   0.770   5.095 -0.8253  1.2457  0.4106
   62CHL1   C21 5746   2.870   0.607   5.229 -0.0416  0.2538 -0.1721
   62CHL1  H21A 5747   2.909   0.662   5.317  0.5130  3.5146 -2.3207
   62CHL1  H21B 5748   2.951   0.546   5.185  2.2073  1.2141  2.3757
   62CHL1  H21C 5749   2.804   0.526   5.268  0.9339 -0.8994 -0.8283
   62CHL1   C22 5750   2.694   0.786   5.181  0.0879 -0.3692  0.9120
   62CHL1  H22A 5751   2.664   0.865   5.109 -1.2356 -0.5066  1.2780
   62CHL1  H22B 5752   2.604   0.721   5.193 -1.0981  1.1545  0.6345
   62CHL1   C23 5753   2.714   0.862   5.316 -0.1216 -0.1755  0.4984
   62CHL1  H23A 5754   2.768   0.796   5.388  0.7015 -0.8632 -0.7235
   62CHL1  H23B 5755   2.786   0.945   5.301  0.0779 -0.3936  0.2634
   62CHL1   C24 5756   2.580   0.907   5.381  0.2095 -0.1077 -0.4946
   62CHL1  H24A 5757   2.504   0.947   5.309  1.4223 -1.4635 -2.6299
   62CHL1  H24B 5758   2.530   0.821   5.430 -1.4140  2.2423  2.3161
   62CHL1   C25 5759   2.615   1.008   5.497  0.5480  0.8922 -0.2607
   62CHL1   H25 5760   2.699   1.077   5.476  1.4979 -0.4120 -0.8304
   62CHL1   C26 5761   2.493   1.100   5.525 -0.0427  0.3292 -0.4370
   62CHL1  H26A 5762   2.523   1.179   5.597  2.0702  1.2006 -2.1522
   62CHL1  H26B 5763   2.446   1.141   5.433 -2.5803 -1.1302  0.1169
   62CHL1  H26C 5764   2.410   1.043   5.570 -1.4780  1.8591 -1.0489
   62CHL1   C27 5765   2.656   0.934   5.629 -0.2443  0.9511  0.1020
   62CHL1  H27A 5766   2.592   0.846   5.649 -0.6870  1.6209  1.7126
   62CHL1  H27B 5767   2.761   0.902   5.612 -0.4415 -0.0731  0.7564
   62CHL1  H27C 5768   2.648   0.994   5.722 -1.4134  0.1699  0.5263
   63CHL1    C3 5769   5.442   5.540   3.767 -0.1940  0.3549  0.6946
   63CHL1    H3 5770   5.505   5.454   3.796 -0.3751  0.3341  1.0378
   63CHL1    O3 5771   5.391   5.520   3.631 -0.0214 -0.2873 -0.0958
   63CHL1   H3' 5772   5.360   5.430   3.618  0.5971 -0.2063 -2.4861
   63CHL1    C4 5773   5.321   5.542   3.860  0.7565  0.0575  0.1967
   63CHL1   H4A 5774   5.261   5.635   3.849  1.5372  0.5267 -0.1278
   63CHL1   H4B 5775   5.256   5.451   3.855  2.6017 -1.6021  3.1241
   63CHL1    C5 5776   5.360   5.540   4.004  0.2530  0.6759 -0.4504
   63CHL1    C6 5777   5.325   5.443   4.080 -0.3955 -0.5017  0.1614
   63CHL1    H6 5778   5.265   5.360   4.041 -2.9687  1.7556 -1.0338
   63CHL1    C7 5779   5.358   5.427   4.227  0.5208 -0.4918 -0.6381
   63CHL1   H7A 5780   5.265   5.394   4.278  1.2806 -2.0638 -0.2268
   63CHL1   H7B 5781   5.436   5.349   4.230  1.8097  0.7136 -1.5841
   63CHL1    C8 5782   5.405   5.568   4.285 -0.3308  0.3048 -0.1621
   63CHL1    H8 5783   5.307   5.615   4.311  0.7457  2.0252  1.0514
   63CHL1   C14 5784   5.480   5.541   4.419  0.0099  0.0384 -0.0441
   63CHL1   H14 5785   5.567   5.479   4.389 -0.7211 -0.7218 -0.6502
   63CHL1   C15 5786   5.414   5.451   4.520 -0.1452 -0.6589 -0.4276
   63CHL1  H15A 5787   5.303   5.462   4.520 -0.2042 -0.7533  1.6634
   63CHL1  H15B 5788   5.442   5.346   4.500  3.4396  0.6113 -3.0902
   63CHL1   C16 5789   5.469   5.500   4.656  0.4721 -0.4189 -0.2717
   63CHL1  H16A 5790   5.387   5.533   4.722 -0.9713  0.0977 -2.2267
   63CHL1  H16B 5791   5.526   5.414   4.697  2.2373  0.3118 -1.0788
   63CHL1   C17 5792   5.571   5.615   4.622  0.0823 -0.0109  0.1661
   63CHL1   H17 5793   5.659   5.552   4.601 -0.1854 -0.3300 -0.0062
   63CHL1   C13 5794   5.524   5.665   4.486  0.8405  0.0287  0.6795
   63CHL1   C18 5795   5.399   5.757   4.509  0.3529  0.0902  0.5881
   63CHL1  H18A 5796   5.425   5.835   4.583  1.2007 -0.9535  1.4271
   63CHL1  H18B 5797   5.368   5.803   4.412  0.4721 -2.4485 -0.7439
   63CHL1  H18C 5798   5.310   5.702   4.545  0.0297  0.1176 -0.1429
   63CHL1   C12 5799   5.627   5.734   4.398  0.6819 -0.4621  0.4145
   63CHL1  H12A 5800   5.652   5.834   4.440  3.5171  0.2253 -2.4758
   63CHL1  H12B 5801   5.726   5.688   4.419  0.0169 -2.1035  0.0647
   63CHL1   C11 5802   5.574   5.761   4.257 -0.0475 -0.8906  0.5387
   63CHL1  H11A 5803   5.499   5.842   4.259  0.0263 -0.8158  0.3314
   63CHL1  H11B 5804   5.651   5.798   4.186  1.4112 -1.3838  1.8060
   63CHL1    C9 5805   5.505   5.637   4.187 -0.2856 -0.2317  0.4417
   63CHL1    H9 5806   5.584   5.562   4.170 -0.2449 -0.3805  1.2254
   63CHL1   C10 5807   5.445   5.661   4.049 -0.2025  0.0307 -0.0360
   63CHL1   C19 5808   5.362   5.798   4.041  0.1088  0.1133  0.5415
   63CHL1  H19A 5809   5.305   5.813   3.946  0.8635  1.3620  0.2657
   63CHL1  H19B 5810   5.292   5.803   4.127 -1.0210  2.0615 -0.4399
   63CHL1  H19C 5811   5.423   5.890   4.043 -1.2876  1.0560  1.5044
   63CHL1    C1 5812   5.557   5.665   3.945 -0.0720 -0.4583  0.3442
   63CHL1   H1A 5813   5.612   5.759   3.964  0.9407 -0.0851 -3.5407
   63CHL1   H1B 5814   5.622   5.576   3.955 -1.7131 -1.7590  0.0182
   63CHL1    C2 5815   5.513   5.667   3.795 -0.4179 -0.1153  0.0710
   63CHL1   H2A 5816   5.609   5.676   3.739  0.2136 -1.7330  0.8209
   63CHL1   H2B 5817   5.442   5.749   3.772  0.9212  0.8577 -0.7262
   63CHL1   C20 5818   5.594   5.718   4.742  0.0472 -0.5845  0.3766
   63CHL1   H20 5819   5.511   5.791   4.742  0.1185 -0.3494 -2.8484
   63CHL1   C21 5820   5.731   5.789   4.732  0.6976 -0.4407  0.4986
   63CHL1  H21A 5821   5.735   5.873   4.804  1.3906  0.8135 -0.9364
   63CHL1  H21B 5822   5.744   5.836   4.632 -0.9362  0.1288  0.5148
   63CHL1  H21C 5823   5.808   5.713   4.754 -0.7607 -1.7506  1.2909
   63CHL1   C22 5824   5.578   5.643   4.877  0.1530 -0.4677 -0.4175
   63CHL1  H22A 5825   5.470   5.622   4.888 -0.8485  3.0199 -2.0195
   63CHL1  H22B 5826   5.629   5.545   4.873  0.2319 -0.3981 -1.9938
   63CHL1   C23 5827   5.599   5.723   5.005 -0.0484  0.1269  0.1619
   63CHL1  H23A 5828   5.707   5.733   5.029 -0.2586  1.7490  0.6082
   63CHL1  H23B 5829   5.557   5.826   4.998  0.8913  0.4732 -0.7219
   63CHL1   C24 5830   5.525   5.648   5.116 -0.3451  0.0237  0.6346
   63CHL1  H24A 5831   5.416   5.642   5.098 -0.4049 -0.5860  1.1795
   63CHL1  H24B 5832   5.566   5.546   5.130  0.0513  0.1544  0.4281
   63CHL1   C25 5833   5.537   5.714   5.260  0.7471 -0.1645  0.5737
   63CHL1   H25 5834   5.503   5.820   5.249 -0.0768 -0.2665  1.8670
   63CHL1   C26 5835   5.459   5.630   5.362  0.4072 -0.8714 -0.0021
   63CHL1  H26A 5836   5.353   5.657   5.342  0.6848  1.0214  0.8757
   63CHL1  H26B 5837   5.483   5.523   5.341  1.3610 -0.5176 -0.8252
   63CHL1  H26C 5838   5.486   5.643   5.469 -1.2583  0.0474  0.3271
   63CHL1   C27 5839   5.685   5.712   5.305  0.2962  0.0238 -0.0498
   63CHL1  H27A 5840   5.751   5.776   5.242  1.4771 -2.1290 -1.1040
   63CHL1  H27B 5841   5.695   5.732   5.414  0.5904 -1.4528  0.2114
   63CHL1  H27C 5842   5.732   5.612   5.304  2.1288  0.8377  0.6565
   64CHL1    C3 5843   0.417   0.062   4.070  0.4235  0.7752  0.3376
   64CHL1    H3 5844   0.311   0.094   4.070  0.5871  1.3147  0.6750
   64CHL1    O3 5845   0.464   0.039   3.934  0.3928  0.8147 -0.0162
   64CHL1   H3' 5846   0.535  -0.024   3.942 -1.7782 -1.5837  2.7289
   64CHL1    C4 5847   0.506   0.163   4.144 -0.3617 -0.2732  0.1360
   64CHL1   H4A 5848   0.612   0.133   4.133 -0.3602 -0.2873  0.1891
   64CHL1   H4B 5849   0.488   0.257   4.087 -1.3757  0.2981  1.3290
   64CHL1    C5 5850   0.473   0.173   4.296 -0.0736  0.0942  0.4219
   64CHL1    C6 5851   0.448   0.297   4.345 -0.4997  0.5745 -0.1879
   64CHL1    H6 5852   0.456   0.384   4.279 -1.4299 -1.8977 -3.8553
   64CHL1    C7 5853   0.420   0.316   4.494  0.5892  0.2376  0.2502
   64CHL1   H7A 5854   0.494   0.395   4.517  0.2893  0.1932  1.4612
   64CHL1   H7B 5855   0.313   0.344   4.502  0.4073 -0.1849 -0.5911
   64CHL1    C8 5856   0.450   0.186   4.577  0.2575 -0.4936 -0.2900
   64CHL1    H8 5857   0.561   0.185   4.577  0.2733 -0.2411 -1.1803
   64CHL1   C14 5858   0.396   0.202   4.720 -0.6225 -0.4552  0.1603
   64CHL1   H14 5859   0.287   0.205   4.703 -0.6277  3.1622  0.2196
   64CHL1   C15 5860   0.416   0.336   4.797 -0.0500  0.1866  0.5684
   64CHL1  H15A 5861   0.517   0.381   4.800  0.3007 -0.4069 -0.9690
   64CHL1  H15B 5862   0.342   0.411   4.761  0.3358 -0.0376 -0.7638
   64CHL1   C16 5863   0.382   0.301   4.944 -0.1949 -0.1371  0.6082
   64CHL1  H16A 5864   0.466   0.325   5.011 -1.2034  1.6749  1.2882
   64CHL1  H16B 5865   0.294   0.359   4.981  1.4273  2.3335  0.8213
   64CHL1   C17 5866   0.363   0.147   4.948  0.2035 -0.7131  0.0556
   64CHL1   H17 5867   0.255   0.123   4.942  0.1308 -0.3962  0.0930
   64CHL1   C13 5868   0.424   0.088   4.816 -0.5655  0.4573 -0.4398
   64CHL1   C18 5869   0.577   0.074   4.829  0.0376  0.3192 -0.3257
   64CHL1  H18A 5870   0.598  -0.010   4.898  0.1495 -0.3195 -1.1282
   64CHL1  H18B 5871   0.633   0.051   4.736  1.0878  0.7645  0.1859
   64CHL1  H18C 5872   0.618   0.166   4.875 -0.8588  0.6738 -0.2024
   64CHL1   C12 5873   0.369  -0.041   4.753 -0.2803 -0.0968  0.5291
   64CHL1  H12A 5874   0.402  -0.133   4.804 -2.1409 -2.2586 -1.8995
   64CHL1  H12B 5875   0.258  -0.044   4.756 -0.3075 -0.8322 -0.4469
   64CHL1   C11 5876   0.412  -0.066   4.603  0.8171 -0.3842 -0.4107
   64CHL1  H11A 5877   0.516  -0.105   4.609  0.2715 -1.8700 -0.2796
   64CHL1  H11B 5878   0.342  -0.139   4.557  0.5786  0.0659 -0.7695
   64CHL1    C9 5879   0.401   0.061   4.509 -0.0543  0.1450  0.3336
   64CHL1    H9 5880   0.293   0.085   4.498 -0.3733 -0.5774  1.7059
   64CHL1   C10 5881   0.475   0.038   4.372 -0.2759  0.5551  0.0011
   64CHL1   C19 5882   0.617  -0.020   4.396  0.5125  0.2548  0.1805
   64CHL1  H19A 5883   0.663   0.014   4.491  3.3205  2.2954 -1.7518
   64CHL1  H19B 5884   0.615  -0.131   4.394 -2.0723  0.2524 -1.4048
   64CHL1  H19C 5885   0.684   0.023   4.318 -0.8994  2.4120  0.0730
   64CHL1    C1 5886   0.397  -0.066   4.291 -0.3340 -0.6760  0.1420
   64CHL1   H1A 5887   0.403  -0.164   4.344  1.3944  0.9500  3.2902
   64CHL1   H1B 5888   0.295  -0.024   4.300 -0.3698 -1.1234  3.2874
   64CHL1    C2 5889   0.434  -0.074   4.145  0.1322  0.5939  0.2782
   64CHL1   H2A 5890   0.364  -0.153   4.109 -0.0447  0.7220  0.3373
   64CHL1   H2B 5891   0.537  -0.112   4.129  0.0255  1.4623 -3.4083
   64CHL1   C20 5892   0.409   0.089   5.078  0.6204 -0.5764 -0.3936
   64CHL1   H20 5893   0.515   0.117   5.093  0.4258 -1.1175  2.7908
   64CHL1   C21 5894   0.391  -0.064   5.087 -0.3860 -0.0720 -0.0426
   64CHL1  H21A 5895   0.284  -0.086   5.068 -0.3082  0.2683 -0.9422
   64CHL1  H21B 5896   0.417  -0.110   5.185  0.5778 -1.3976 -0.8786
   64CHL1  H21C 5897   0.439  -0.113   5.000 -0.5792  1.0516 -0.8010
   64CHL1   C22 5898   0.324   0.157   5.195  0.5716 -0.2267 -0.1494
   64CHL1  H22A 5899   0.271   0.254   5.179 -0.7009 -1.0858 -1.3744
   64CHL1  H22B 5900   0.236   0.092   5.214 -1.7287  2.6438 -0.3298
   64CHL1   C23 5901   0.404   0.174   5.325  0.1332 -0.1119 -0.8489
   64CHL1  H23A 5902   0.452   0.076   5.345  0.1328 -0.1784 -1.1672
   64CHL1  H23B 5903   0.479   0.254   5.309  1.4115 -0.5878  2.0306
   64CHL1   C24 5904   0.309   0.207   5.442  0.3999  0.0293  0.1155
   64CHL1  H24A 5905   0.243   0.288   5.404 -2.1302 -0.2283  3.5135
   64CHL1  H24B 5906   0.250   0.114   5.456 -1.3173  1.4210  3.2880
   64CHL1   C25 5907   0.379   0.265   5.564  0.2136 -0.4201 -0.4994
   64CHL1   H25 5908   0.439   0.348   5.521  1.6226 -0.6740  0.8916
   64CHL1   C26 5909   0.277   0.324   5.669 -0.3607  0.0832 -0.1066
   64CHL1  H26A 5910   0.219   0.410   5.628 -1.0990  0.2252  1.1799
   64CHL1  H26B 5911   0.203   0.249   5.704  0.0238 -0.1876  0.1228
   64CHL1  H26C 5912   0.329   0.360   5.761  1.3743 -1.4547 -0.4365
   64CHL1   C27 5913   0.465   0.160   5.632 -0.7575 -0.1810 -0.3481
   64CHL1  H27A 5914   0.530   0.210   5.707 -1.1913  1.2128 -0.8679
   64CHL1  H27B 5915   0.400   0.087   5.685  0.3544  1.4894  3.7535
   64CHL1  H27C 5916   0.527   0.090   5.572  1.8623  0.2985  1.5934
   65CHL1    C3 5917   0.152   5.060   4.052 -0.5208  0.6865 -0.0937
   65CHL1    H3 5918   0.251   5.110   4.055  0.4280 -1.1625  1.4643
   65CHL1    O3 5919   0.122   5.025   3.917 -0.5131 -1.2597  0.0416
   65CHL1   H3' 5920   0.060   4.951   3.924 -2.1084  0.0725  0.7831
   65CHL1    C4 5921   0.170   4.934   4.144  0.2213 -1.2063  0.5145
   65CHL1   H4A 5922   0.077   4.873   4.140 -0.3677 -0.3695  0.9121
   65CHL1   H4B 5923   0.248   4.869   4.099 -0.8451 -2.3228  0.2251
   65CHL1    C5 5924   0.183   4.964   4.294  0.6977  0.1939  0.2558
   65CHL1    C6 5925   0.292   4.920   4.363  0.0697 -0.1928  0.6169
   65CHL1    H6 5926   0.370   4.867   4.306  0.3437 -0.8279  1.5455
   65CHL1    C7 5927   0.305   4.936   4.514 -0.4329 -0.3070  0.5177
   65CHL1   H7A 5928   0.318   4.836   4.562 -1.1755 -1.4099 -1.4433
   65CHL1   H7B 5929   0.391   5.003   4.534 -1.5225  1.5659 -0.7601
   65CHL1    C8 5930   0.174   4.989   4.581 -0.0473  0.3021  0.4238
   65CHL1    H8 5931   0.108   4.900   4.589 -0.4287  0.4296 -0.9349
   65CHL1   C14 5932   0.200   5.047   4.717  0.1612  0.0291 -0.2178
   65CHL1   H14 5933   0.274   5.129   4.699 -0.7896  0.6719 -1.3652
   65CHL1   C15 5934   0.265   4.945   4.817 -0.0867 -0.1036  0.2056
   65CHL1  H15A 5935   0.189   4.865   4.817 -1.9099  1.5522  0.1400
   65CHL1  H15B 5936   0.358   4.905   4.769 -0.7972 -0.1330 -1.2043
   65CHL1   C16 5937   0.255   5.019   4.949  0.5345  0.1461  0.3551
   65CHL1  H16A 5938   0.197   4.954   5.018  1.3333  0.0175  0.9215
   65CHL1  H16B 5939   0.356   5.043   4.988 -0.7051  2.7941  2.2033
   65CHL1   C17 5940   0.178   5.154   4.920 -0.1917 -0.8774 -0.1305
   65CHL1   H17 5941   0.253   5.231   4.893 -0.2900 -0.9313 -0.5680
   65CHL1   C13 5942   0.091   5.124   4.794  0.7485  0.1828  0.3456
   65CHL1   C18 5943  -0.026   5.024   4.838  0.5650  0.5813  0.3805
   65CHL1  H18A 5944  -0.087   4.988   4.753  0.7046 -0.7517  0.8150
   65CHL1  H18B 5945  -0.000   4.929   4.889 -0.0247  1.9317  3.4703
   65CHL1  H18C 5946  -0.099   5.073   4.907 -1.9724 -2.1297 -0.1647
   65CHL1   C12 5947   0.039   5.239   4.709  0.1286 -0.7420 -0.2551
   65CHL1  H12A 5948  -0.063   5.264   4.745  0.4355  0.2506 -0.0425
   65CHL1  H12B 5949   0.100   5.332   4.714 -0.5513 -0.3224  0.4023
   65CHL1   C11 5950  -0.001   5.180   4.563  0.0021 -0.6236  0.1297
   65CHL1  H11A 5951  -0.094   5.122   4.576  0.9864 -2.4518 -0.7096
   65CHL1  H11B 5952  -0.024   5.270   4.501  1.2135  0.5931  1.3522
   65CHL1    C9 5953   0.106   5.096   4.492 -0.3294 -0.3176  0.4008
   65CHL1    H9 5954   0.193   5.162   4.473  0.1874 -0.4179  2.2931
   65CHL1   C10 5955   0.069   5.053   4.346  0.0668 -0.2655 -0.2038
   65CHL1   C19 5956  -0.064   4.982   4.345 -0.1137  0.5275 -0.5751
   65CHL1  H19A 5957  -0.148   5.049   4.374  0.1664  1.2386 -1.3521
   65CHL1  H19B 5958  -0.090   4.938   4.246  2.1617 -1.3561 -0.4060
   65CHL1  H19C 5959  -0.069   4.903   4.422  0.4925  0.5761 -0.4859
   65CHL1    C1 5960   0.063   5.182   4.253 -0.1535  0.3352  0.1150
   65CHL1   H1A 5961  -0.025   5.243   4.282 -0.0405  1.0027 -0.8876
   65CHL1   H1B 5962   0.151   5.245   4.279 -0.3912  0.4611  0.6373
   65CHL1    C2 5963   0.045   5.149   4.105 -0.5792 -0.5359  1.1592
   65CHL1   H2A 5964   0.057   5.234   4.033 -0.9411 -2.2503 -1.0159
   65CHL1   H2B 5965  -0.055   5.102   4.095  0.1887 -2.2588  1.2837
   65CHL1   C20 5966   0.110   5.211   5.047 -0.4261  0.0291  0.0872
   65CHL1   H20 5967   0.031   5.141   5.083  0.4919 -0.3362  1.4603
   65CHL1   C21 5968   0.044   5.348   5.017 -0.6747 -0.1275 -0.2775
   65CHL1  H21A 5969  -0.022   5.369   5.104  0.5450  0.0788  0.6294
   65CHL1  H21B 5970  -0.025   5.333   4.932 -1.1372  0.4178 -0.0014
   65CHL1  H21C 5971   0.129   5.419   5.011 -0.9279  0.2671  0.7169
   65CHL1   C22 5972   0.215   5.229   5.161  0.4031 -1.0588  0.1284
   65CHL1  H22A 5973   0.253   5.127   5.183  0.0571 -0.9492  1.3274
   65CHL1  H22B 5974   0.304   5.291   5.139 -1.9331  1.9917 -1.4461
   65CHL1   C23 5975   0.155   5.253   5.301 -0.1789 -0.2776 -0.7538
   65CHL1  H23A 5976   0.092   5.342   5.322  0.5358 -0.3815  2.4145
   65CHL1  H23B 5977   0.092   5.162   5.311 -0.4775  0.1519  2.5219
   65CHL1   C24 5978   0.268   5.261   5.404 -0.2628 -0.1628 -0.1777
   65CHL1  H24A 5979   0.339   5.178   5.385  0.9644  0.7384  0.2946
   65CHL1  H24B 5980   0.333   5.350   5.389  0.3964 -0.8805 -1.7842
   65CHL1   C25 5981   0.240   5.260   5.555  0.4959  0.1967  0.3941
   65CHL1   H25 5982   0.199   5.359   5.584  1.3602 -0.0094  2.4834
   65CHL1   C26 5983   0.144   5.148   5.597 -0.2448  0.8982  0.2623
   65CHL1  H26A 5984   0.041   5.183   5.573  0.4327  4.0211  1.5184
   65CHL1  H26B 5985   0.161   5.051   5.545 -0.5354  1.6426 -1.2687
   65CHL1  H26C 5986   0.145   5.147   5.708 -0.0029 -2.3377  0.3215
   65CHL1   C27 5987   0.375   5.246   5.634  0.4400 -0.3139 -0.6429
   65CHL1  H27A 5988   0.445   5.320   5.590 -0.6395  1.8612  1.0704
   65CHL1  H27B 5989   0.369   5.265   5.744 -0.6592  3.3114 -1.2097
   65CHL1  H27C 5990   0.411   5.144   5.609 -0.5281 -1.0733  0.8676
   66CHL1    C3 5991   5.818   3.052   4.428 -0.6973 -0.8106  0.7644
   66CHL1    H3 5992   5.898   3.117   4.468 -0.3126  0.4428 -1.7933
   66CHL1    O3 5993   5.850   3.033   4.292  0.5955 -0.1375 -0.2480
   66CHL1   H3' 5994   5.881   3.116   4.253  2.8480 -1.3225 -1.1436
   66CHL1    C4 5995   5.832   2.909   4.474  0.6150  0.0945  0.1032
   66CHL1   H4A 5996   5.777   2.838   4.408  0.2188  2.3052 -2.0881
   66CHL1   H4B 5997   5.939   2.878   4.476  0.5409 -0.1791 -0.1540
   66CHL1    C5 5998   5.788   2.906   4.621  0.4298  0.4685  0.3205
   66CHL1    C6 5999   5.873   2.875   4.714  0.2929  1.2464  0.3418
   66CHL1    H6 6000   5.976   2.862   4.679 -0.0440 -1.3646  0.1255
   66CHL1    C7 6001   5.839   2.858   4.862 -0.5543  0.1803 -0.1921
   66CHL1   H7A 6002   5.883   2.764   4.902  4.3086  1.8349 -0.9747
   66CHL1   H7B 6003   5.886   2.941   4.918 -0.2952 -0.0537 -0.0571
   66CHL1    C8 6004   5.688   2.862   4.888 -0.8715  0.3654 -0.1999
   66CHL1    H8 6005   5.639   2.766   4.862 -0.6413  0.5688 -1.4175
   66CHL1   C14 6006   5.667   2.896   5.034 -0.4529 -1.5219  0.7025
   66CHL1   H14 6007   5.719   2.994   5.045 -1.6882 -0.8446  0.7824
   66CHL1   C15 6008   5.723   2.801   5.137  1.1436 -0.3658 -0.1247
   66CHL1  H15A 6009   5.690   2.700   5.106  0.5318  0.0372 -0.8398
   66CHL1  H15B 6010   5.834   2.815   5.131  0.8692  2.3254 -0.1669
   66CHL1   C16 6011   5.657   2.839   5.267 -0.0421  0.1613 -0.5274
   66CHL1  H16A 6012   5.631   2.747   5.324  3.0753 -0.2930  0.3415
   66CHL1  H16B 6013   5.725   2.898   5.333  0.8182  0.8016 -1.9411
   66CHL1   C17 6014   5.540   2.935   5.223 -0.1352 -0.2527 -0.0728
   66CHL1   H17 6015   5.579   3.039   5.223 -0.7974  0.1106 -3.7634
   66CHL1   C13 6016   5.519   2.913   5.071 -0.4538  0.0357  0.0243
   66CHL1   C18 6017   5.448   2.781   5.048 -0.2540  0.1150 -0.6765
   66CHL1  H18A 6018   5.423   2.760   4.942 -3.9190  1.1553 -0.1495
   66CHL1  H18B 6019   5.482   2.692   5.106  0.6919  2.3696  2.4832
   66CHL1  H18C 6020   5.346   2.788   5.092 -0.2007 -3.6000  0.4367
   66CHL1   C12 6021   5.454   3.026   4.987 -0.2716 -0.2513  0.6260
   66CHL1  H12A 6022   5.345   3.045   4.999 -0.3606 -0.1048 -0.3771
   66CHL1  H12B 6023   5.514   3.118   5.006 -1.3710  0.3337  1.4043
   66CHL1   C11 6024   5.479   3.002   4.842  0.0711 -0.5348 -0.3477
   66CHL1  H11A 6025   5.414   2.918   4.808 -0.5906 -0.0267 -0.3561
   66CHL1  H11B 6026   5.434   3.088   4.788  0.0317  0.4653  1.2220
   66CHL1    C9 6027   5.624   2.968   4.802  0.3405 -0.4610 -0.4034
   66CHL1    H9 6028   5.679   3.058   4.837  2.1312 -1.2874 -1.0218
   66CHL1   C10 6029   5.649   2.955   4.653 -0.8185 -0.1035 -0.3051
   66CHL1   C19 6030   5.556   2.849   4.590 -0.2202 -0.1854 -0.0630
   66CHL1  H19A 6031   5.564   2.843   4.479 -0.4262  0.9038 -0.1540
   66CHL1  H19B 6032   5.575   2.749   4.634  0.1925 -1.4024 -2.7479
   66CHL1  H19C 6033   5.449   2.876   4.596  0.0274  0.8528 -0.0957
   66CHL1    C1 6034   5.642   3.099   4.585  0.0500  0.5592 -0.6429
   66CHL1   H1A 6035   5.538   3.137   4.599  0.0601  0.3983 -0.1100
   66CHL1   H1B 6036   5.703   3.166   4.648  1.4915 -1.0415 -0.2764
   66CHL1    C2 6037   5.683   3.108   4.439  0.2811 -0.4402 -0.4941
   66CHL1   H2A 6038   5.675   3.216   4.415 -0.6949 -0.2762  0.4888
   66CHL1   H2B 6039   5.617   3.052   4.370  0.5941  0.2449 -1.3713
   66CHL1   C20 6040   5.417   2.934   5.320 -0.1876 -0.1091  0.3991
   66CHL1   H20 6041   5.385   2.829   5.310  2.4777 -0.8623 -1.4674
   66CHL1   C21 6042   5.307   3.015   5.270  0.1214 -0.6237 -0.9867
   66CHL1  H21A 6043   5.278   2.977   5.169  1.0452 -0.5857 -1.2772
   66CHL1  H21B 6044   5.344   3.119   5.261  0.0854 -0.2487  2.1805
   66CHL1  H21C 6045   5.218   3.018   5.336  0.6624  0.8548 -0.2797
   66CHL1   C22 6046   5.443   2.970   5.472  0.2500 -0.3353  0.1310
   66CHL1  H22A 6047   5.359   2.920   5.524 -1.1986  0.6194 -1.2132
   66CHL1  H22B 6048   5.523   2.902   5.511 -0.0803 -0.3773  0.7550
   66CHL1   C23 6049   5.466   3.121   5.506  0.5741 -0.5979 -0.1954
   66CHL1  H23A 6050   5.571   3.142   5.475  0.6851  1.6264  1.4266
   66CHL1  H23B 6051   5.394   3.184   5.450  1.3258 -0.9030 -1.5525
   66CHL1   C24 6052   5.455   3.149   5.662 -0.1742 -0.0816 -0.6359
   66CHL1  H24A 6053   5.347   3.153   5.686 -0.0939 -1.5091  0.0468
   66CHL1  H24B 6054   5.514   3.073   5.717  2.6886  2.1503 -0.3662
   66CHL1   C25 6055   5.516   3.292   5.697  0.6781  0.0848 -0.2456
   66CHL1   H25 6056   5.620   3.290   5.658  0.0858 -0.3087 -1.9064
   66CHL1   C26 6057   5.456   3.417   5.625  0.2205  0.0880 -0.8058
   66CHL1  H26A 6058   5.473   3.399   5.517  1.1287  1.2745 -0.8846
   66CHL1  H26B 6059   5.346   3.421   5.643  0.2826  1.1917 -0.5822
   66CHL1  H26C 6060   5.509   3.509   5.658 -1.8892  0.4041  2.0907
   66CHL1   C27 6061   5.514   3.317   5.855  0.1699 -0.0142  0.2634
   66CHL1  H27A 6062   5.556   3.418   5.877  2.7169 -0.6870 -1.1651
   66CHL1  H27B 6063   5.576   3.239   5.904  1.0799 -0.1817 -1.1240
   66CHL1  H27C 6064   5.409   3.306   5.891 -0.3063 -1.4990 -1.4464
   67CHL1    C3 6065   3.846   5.541   4.089  0.0287 -0.0324 -0.6336
   67CHL1    H3 6066   3.743   5.498   4.088  1.1836 -3.4528  2.5618
   67CHL1    O3 6067   3.892   5.550   3.957  0.1024  0.3690  0.0200
   67CHL1   H3' 6068   3.833   5.609   3.909  0.5978  0.0842 -0.9614
   67CHL1    C4 6069   3.852   5.675   4.160 -0.8534 -0.0175  0.0251
   67CHL1   H4A 6070   3.955   5.715   4.147 -1.2387  1.0182  0.0746
   67CHL1   H4B 6071   3.786   5.749   4.111 -0.7492 -0.1189 -0.2692
   67CHL1    C5 6072   3.820   5.662   4.305 -0.1075  0.8436  0.0932
   67CHL1    C6 6073   3.706   5.720   4.352 -0.5615  0.4973  0.1663
   67CHL1    H6 6074   3.641   5.782   4.289 -1.9617 -0.8198  0.2614
   67CHL1    C7 6075   3.681   5.721   4.501 -0.2005  0.2982 -0.9623
   67CHL1   H7A 6076   3.656   5.826   4.528  1.0610  0.7805 -1.5735
   67CHL1   H7B 6077   3.592   5.659   4.527  0.3396  0.3753  1.3350
   67CHL1    C8 6078   3.805   5.681   4.589  0.1777 -0.5665  0.2850
   67CHL1    H8 6079   3.882   5.760   4.579 -1.5332  1.2827  1.1277
   67CHL1   C14 6080   3.754   5.671   4.736 -0.2076  0.3893  0.0561
   67CHL1   H14 6081   3.673   5.595   4.727  1.7962 -2.1825  2.3285
   67CHL1   C15 6082   3.697   5.793   4.807  0.5674  0.2799  0.1205
   67CHL1  H15A 6083   3.721   5.895   4.770 -1.2315  0.2645 -1.2130
   67CHL1  H15B 6084   3.587   5.797   4.797  0.3669  0.6507  2.0389
   67CHL1   C16 6085   3.714   5.763   4.957  1.0891 -0.1506 -0.5284
   67CHL1  H16A 6086   3.775   5.847   4.995 -0.0663 -0.2937  1.8724
   67CHL1  H16B 6087   3.616   5.761   5.010  0.2772 -2.1898 -1.9664
   67CHL1   C17 6088   3.801   5.631   4.973 -0.4469  0.3692 -0.7309
   67CHL1   H17 6089   3.728   5.549   4.992  1.3203 -1.0257  0.4426
   67CHL1   C13 6090   3.866   5.613   4.829  0.1149  0.1410  0.0409
   67CHL1   C18 6091   3.989   5.701   4.822  0.1463 -0.3382 -0.2380
   67CHL1  H18A 6092   3.969   5.792   4.882 -0.9341  1.1928 -2.7809
   67CHL1  H18B 6093   4.079   5.654   4.869  1.8072  1.5971 -1.3104
   67CHL1  H18C 6094   4.022   5.731   4.720 -0.2915  1.5408  0.1316
   67CHL1   C12 6095   3.894   5.471   4.775  0.4673 -0.1121  0.1555
   67CHL1  H12A 6096   3.972   5.424   4.839  0.1852 -3.3264 -1.6502
   67CHL1  H12B 6097   3.796   5.419   4.785  0.1064  0.8552  1.9817
   67CHL1   C11 6098   3.944   5.468   4.632 -0.0986  0.2271  0.0597
   67CHL1  H11A 6099   4.047   5.511   4.634  0.1601 -0.2863 -1.3266
   67CHL1  H11B 6100   3.946   5.363   4.594 -1.6117 -0.7687  2.4479
   67CHL1    C9 6101   3.855   5.547   4.533 -0.2614  0.1028  0.2100
   67CHL1    H9 6102   3.760   5.491   4.521  0.1599 -0.6104  0.1540
   67CHL1   C10 6103   3.910   5.571   4.385  0.6022 -0.6004  0.4853
   67CHL1   C19 6104   4.047   5.628   4.381  0.5667 -0.2004  0.7267
   67CHL1  H19A 6105   4.097   5.629   4.281 -0.5142 -0.0318  0.1670
   67CHL1  H19B 6106   4.043   5.738   4.393  2.4194  0.9387 -5.3871
   67CHL1  H19C 6107   4.111   5.585   4.460 -1.1739 -1.4651  1.5258
   67CHL1    C1 6108   3.903   5.429   4.313  0.0472 -0.1365 -0.1586
   67CHL1   H1A 6109   3.964   5.357   4.370  0.1964 -0.6176 -0.9057
   67CHL1   H1B 6110   3.800   5.386   4.317  1.1692 -3.2842 -1.5826
   67CHL1    C2 6111   3.940   5.436   4.164 -0.2884  0.1808 -0.5936
   67CHL1   H2A 6112   3.913   5.340   4.116  0.0159  0.4414 -1.2979
   67CHL1   H2B 6113   4.047   5.462   4.148 -1.1630  2.8704 -2.7026
   67CHL1   C20 6114   3.896   5.618   5.095 -0.2187 -0.2762 -0.8892
   67CHL1   H20 6115   3.966   5.704   5.100 -1.1289  0.6864 -3.2669
   67CHL1   C21 6116   3.984   5.496   5.100  0.0258  0.0238  0.0158
   67CHL1  H21A 6117   4.038   5.496   5.197 -1.0274  1.5965  0.6431
   67CHL1  H21B 6118   4.050   5.497   5.011  1.5602  0.4697  1.1226
   67CHL1  H21C 6119   3.921   5.404   5.103 -0.3331  0.1880 -1.4311
   67CHL1   C22 6120   3.807   5.624   5.228 -0.4372  0.5195 -0.6434
   67CHL1  H22A 6121   3.738   5.711   5.225 -0.3041  0.7787  2.0487
   67CHL1  H22B 6122   3.746   5.531   5.226 -2.2094  1.6504 -0.6601
   67CHL1   C23 6123   3.873   5.630   5.364  0.1584  0.5470  0.2710
   67CHL1  H23A 6124   3.788   5.632   5.436 -0.5917 -2.2022 -0.4297
   67CHL1  H23B 6125   3.927   5.534   5.379 -1.7235 -0.7322 -0.7693
   67CHL1   C24 6126   3.963   5.747   5.384 -0.2814  0.2618  0.2495
   67CHL1  H24A 6127   4.065   5.732   5.343 -0.7320 -1.9869 -0.1796
   67CHL1  H24B 6128   3.913   5.825   5.322 -1.1105 -0.6304 -0.2410
   67CHL1   C25 6129   3.992   5.794   5.532 -0.0970  0.5714 -0.2750
   67CHL1   H25 6130   3.896   5.807   5.587 -0.1610 -0.2210 -0.1859
   67CHL1   C26 6131   4.066   5.685   5.615  0.7307 -0.2509 -0.9046
   67CHL1  H26A 6132   4.080   5.720   5.720 -5.0952  0.0772  0.0894
   67CHL1  H26B 6133   3.995   5.600   5.615 -2.2515  1.9917  1.5667
   67CHL1  H26C 6134   4.157   5.639   5.571 -0.5168 -1.4257 -2.3320
   67CHL1   C27 6135   4.058   5.925   5.539 -0.8440  0.7521 -0.3192
   67CHL1  H27A 6136   4.149   5.912   5.477 -0.4160 -1.0258  0.5941
   67CHL1  H27B 6137   3.995   6.008   5.503 -1.8368 -1.5919 -4.7444
   67CHL1  H27C 6138   4.089   5.967   5.637 -1.3601  1.5963 -0.5119
   68CHL1    C3 6139   1.412   0.876   4.166 -0.8549  0.3118 -0.6295
   68CHL1    H3 6140   1.507   0.826   4.193  0.4806  1.8027 -2.2999
   68CHL1    O3 6141   1.409   0.851   4.026 -0.0198  0.3528 -0.0392
   68CHL1   H3' 6142   1.330   0.895   3.994 -0.4908  0.2658  0.9902
   68CHL1    C4 6143   1.296   0.799   4.220  0.1996 -0.0771 -0.3909
   68CHL1   H4A 6144   1.204   0.840   4.172 -0.0090  1.6494  1.3810
   68CHL1   H4B 6145   1.313   0.695   4.184  1.4346 -0.8542  2.2112
   68CHL1    C5 6146   1.285   0.811   4.374 -0.6055 -0.2818  0.0469
   68CHL1    C6 6147   1.288   0.695   4.431 -0.6351  0.0123 -0.6416
   68CHL1    H6 6148   1.301   0.599   4.379 -0.4957 -1.4361  1.8980
   68CHL1    C7 6149   1.293   0.690   4.580 -0.4171  0.3029  1.1142
   68CHL1   H7A 6150   1.215   0.616   4.604  0.8858 -1.1190  1.0944
   68CHL1   H7B 6151   1.389   0.647   4.614  0.0888  1.7516  1.6192
   68CHL1    C8 6152   1.257   0.826   4.649  0.0269 -0.3855  0.1405
   68CHL1    H8 6153   1.149   0.829   4.625 -0.5735 -0.5542  2.6234
   68CHL1   C14 6154   1.292   0.822   4.793  0.3328  1.5626  0.4695
   68CHL1   H14 6155   1.400   0.844   4.802  0.9092 -1.4050  1.9129
   68CHL1   C15 6156   1.266   0.693   4.874  0.2278  0.6199  0.0582
   68CHL1  H15A 6157   1.173   0.648   4.833 -0.3379 -0.4574  2.3522
   68CHL1  H15B 6158   1.354   0.625   4.879 -0.1941 -0.0123 -0.8676
   68CHL1   C16 6159   1.227   0.740   5.024  0.8002 -0.5798  0.2988
   68CHL1  H16A 6160   1.125   0.714   5.059 -0.1286  0.8568 -1.2201
   68CHL1  H16B 6161   1.297   0.693   5.096  1.0556 -1.0133 -0.2255
   68CHL1   C17 6162   1.250   0.891   5.025  0.5364  0.0038  0.8400
   68CHL1   H17 6163   1.361   0.893   5.035  0.8642 -1.0945 -1.8116
   68CHL1   C13 6164   1.227   0.937   4.872  0.5283 -0.1813 -0.0580
   68CHL1   C18 6165   1.070   0.951   4.850 -0.0102  0.0861  0.3433
   68CHL1  H18A 6166   1.032   0.965   4.747 -1.1515  0.7493  0.8313
   68CHL1  H18B 6167   1.034   0.851   4.882 -1.3896  0.7773  1.0777
   68CHL1  H18C 6168   1.023   1.019   4.925 -2.0349 -1.6513  0.7512
   68CHL1   C12 6169   1.294   1.064   4.819  0.2787 -0.3206  0.1013
   68CHL1  H12A 6170   1.252   1.155   4.867  0.5860 -0.7061  1.1420
   68CHL1  H12B 6171   1.403   1.064   4.840  0.8900  1.4750 -2.5762
   68CHL1   C11 6172   1.282   1.070   4.665  0.4114  1.5039  0.4148
   68CHL1  H11A 6173   1.172   1.085   4.652 -0.0678 -0.2127  2.0585
   68CHL1  H11B 6174   1.326   1.159   4.617 -1.3578  2.2184  0.0345
   68CHL1    C9 6175   1.320   0.941   4.580  0.2638 -0.0620 -0.4070
   68CHL1    H9 6176   1.428   0.917   4.589  0.0582 -0.7846  0.2440
   68CHL1   C10 6177   1.292   0.948   4.435 -0.1127  0.5385 -0.1757
   68CHL1   C19 6178   1.158   1.015   4.422  0.8325 -0.3999 -0.5415
   68CHL1  H19A 6179   1.121   1.014   4.317 -1.1878  3.0317 -0.0289
   68CHL1  H19B 6180   1.076   0.970   4.481  0.4231 -1.2181 -1.6956
   68CHL1  H19C 6181   1.171   1.123   4.444  1.4485 -0.4034 -0.8506
   68CHL1    C1 6182   1.413   1.023   4.367 -0.1951  0.4398  0.2315
   68CHL1   H1A 6183   1.422   1.128   4.404 -2.5789 -0.2404  3.0854
   68CHL1   H1B 6184   1.501   0.961   4.396 -0.7144  0.4430  1.9453
   68CHL1    C2 6185   1.409   1.021   4.212 -0.3823  0.1074 -0.2482
   68CHL1   H2A 6186   1.499   1.074   4.175 -0.6073  1.3063  0.8297
   68CHL1   H2B 6187   1.310   1.062   4.182 -0.9489 -1.9668 -1.3715
   68CHL1   C20 6188   1.184   0.964   5.141 -0.3675  0.1810  0.5132
   68CHL1   H20 6189   1.075   0.963   5.116 -0.5669  0.0147  1.3539
   68CHL1   C21 6190   1.239   1.105   5.136 -0.3425  0.0684  0.3023
   68CHL1  H21A 6191   1.349   1.109   5.119 -0.0344  0.6406  2.2114
   68CHL1  H21B 6192   1.209   1.158   5.229 -1.6277 -2.1575  1.2190
   68CHL1  H21C 6193   1.187   1.154   5.051 -1.1072 -0.4439  0.4686
   68CHL1   C22 6194   1.211   0.902   5.275  0.8003  0.4701  0.4334
   68CHL1  H22A 6195   1.208   0.791   5.277 -0.8722  0.4443  3.7617
   68CHL1  H22B 6196   1.312   0.935   5.309  0.4439  0.2050  1.7967
   68CHL1   C23 6197   1.107   0.945   5.391 -0.6317  0.0454 -0.0524
   68CHL1  H23A 6198   1.108   1.056   5.395  0.2060  0.0005  2.0497
   68CHL1  H23B 6199   1.004   0.910   5.367 -0.1322 -0.6699 -1.2118
   68CHL1   C24 6200   1.163   0.895   5.521 -0.2007  0.3364  0.7634
   68CHL1  H24A 6201   1.178   0.785   5.509 -0.3826 -0.0341  3.3674
   68CHL1  H24B 6202   1.264   0.936   5.537 -0.2034  1.1912 -1.1013
   68CHL1   C25 6203   1.066   0.919   5.640  0.1375 -0.7532  0.2208
   68CHL1   H25 6204   0.961   0.902   5.610 -1.1328  0.0865  3.7383
   68CHL1   C26 6205   1.106   0.840   5.763  0.1468 -0.0906  0.3596
   68CHL1  H26A 6206   1.018   0.823   5.829  0.5047  1.1280  1.1868
   68CHL1  H26B 6207   1.152   0.747   5.724  0.3152  0.1895 -0.1155
   68CHL1  H26C 6208   1.193   0.890   5.811 -1.0395  1.9739  0.4552
   68CHL1   C27 6209   1.077   1.067   5.689  0.1087  0.4900 -0.8471
   68CHL1  H27A 6210   1.023   1.142   5.628 -2.3978 -1.4336 -1.1478
   68CHL1  H27B 6211   1.031   1.073   5.790 -1.1406  0.1595 -1.3777
   68CHL1  H27C 6212   1.179   1.107   5.707  0.1227  0.3021 -0.4922
   69CHL1    C3 6213   5.290   6.687   3.990  0.6860  0.2594 -0.8373
   69CHL1    H3 6214   5.190   6.734   4.000  1.4300  2.5014 -3.0236
   69CHL1    O3 6215   5.313   6.653   3.852  0.3843 -0.5323  0.5560
   69CHL1   H3' 6216   5.403   6.620   3.851  0.4286 -0.4106  0.4895
   69CHL1    C4 6217   5.396   6.797   4.027 -0.4794 -0.2114 -1.1015
   69CHL1   H4A 6218   5.492   6.746   4.005  1.3150  3.0076 -1.2565
   69CHL1   H4B 6219   5.378   6.885   3.961  1.1463  0.9925  0.0084
   69CHL1    C5 6220   5.390   6.828   4.175  0.2448  0.7476 -0.6210
   69CHL1    C6 6221   5.365   6.959   4.205 -0.3802  0.1831 -0.6040
   69CHL1    H6 6222   5.356   7.030   4.122 -0.2837  0.6137 -0.2447
   69CHL1    C7 6223   5.342   7.012   4.346 -0.8377  0.0479  0.7761
   69CHL1   H7A 6224   5.401   7.104   4.365  0.3119 -0.2437 -1.0361
   69CHL1   H7B 6225   5.236   7.018   4.376 -0.9923 -1.8024  0.7352
   69CHL1    C8 6226   5.394   6.906   4.449  0.2582  0.4975  0.0241
   69CHL1    H8 6227   5.505   6.906   4.437  0.4131 -1.4222  1.0183
   69CHL1   C14 6228   5.340   6.935   4.584  0.1215 -0.2538  0.7162
   69CHL1   H14 6229   5.231   6.911   4.585  0.1187 -0.2988  2.3991
   69CHL1   C15 6230   5.333   7.078   4.642  0.7732 -0.6342 -0.3053
   69CHL1  H15A 6231   5.435   7.122   4.638  0.5031 -0.0861 -1.8299
   69CHL1  H15B 6232   5.271   7.146   4.579 -0.1594 -2.4453 -1.4253
   69CHL1   C16 6233   5.286   7.070   4.782  1.1448 -0.0967 -0.0369
   69CHL1  H16A 6234   5.337   7.151   4.838  2.2729  0.1462 -1.3657
   69CHL1  H16B 6235   5.182   7.104   4.804  1.8005  1.1046  1.3488
   69CHL1   C17 6236   5.319   6.923   4.822 -0.5031  0.9369 -0.0617
   69CHL1   H17 6237   5.215   6.885   4.836 -0.0306 -0.1876  0.5744
   69CHL1   C13 6238   5.379   6.844   4.699  0.7226  0.4402 -0.4131
   69CHL1   C18 6239   5.534   6.838   4.708  0.3138  0.3226 -0.8858
   69CHL1  H18A 6240   5.562   6.760   4.782  1.0811  0.9271 -0.5260
   69CHL1  H18B 6241   5.569   6.818   4.605  0.0833  4.0130 -1.8212
   69CHL1  H18C 6242   5.565   6.935   4.751  2.5012 -0.9279  0.5995
   69CHL1   C12 6243   5.324   6.707   4.669 -0.0096 -0.1103  0.1373
   69CHL1  H12A 6244   5.376   6.630   4.729 -1.2612 -2.6786 -1.8695
   69CHL1  H12B 6245   5.219   6.689   4.700  0.3733 -1.8793  0.4770
   69CHL1   C11 6246   5.370   6.651   4.529 -0.2099  0.3346 -0.5975
   69CHL1  H11A 6247   5.476   6.618   4.529 -0.8936 -2.0700 -1.0874
   69CHL1  H11B 6248   5.321   6.554   4.504  1.1690 -0.8255  1.0310
   69CHL1    C9 6249   5.339   6.756   4.414  0.9624 -0.9445  0.2444
   69CHL1    H9 6250   5.228   6.764   4.407  1.1571  1.4360 -1.2829
   69CHL1   C10 6251   5.389   6.712   4.275  0.2893 -0.0585  0.0302
   69CHL1   C19 6252   5.534   6.657   4.284  0.1830 -0.0295 -0.4920
   69CHL1  H19A 6253   5.601   6.733   4.330  0.5090  0.8919 -2.3801
   69CHL1  H19B 6254   5.527   6.569   4.351  1.4109 -1.1583 -1.7856
   69CHL1  H19C 6255   5.572   6.627   4.184 -0.8821 -1.4083 -0.5129
   69CHL1    C1 6256   5.289   6.604   4.227  0.9708  0.0945  0.8362
   69CHL1   H1A 6257   5.299   6.513   4.290 -0.8139 -1.0024 -0.3796
   69CHL1   H1B 6258   5.188   6.644   4.249  1.4672  0.6397  2.2329
   69CHL1    C2 6259   5.299   6.563   4.078  0.7682 -0.5024  0.0862
   69CHL1   H2A 6260   5.225   6.482   4.058 -0.9338  1.2044 -0.8662
   69CHL1   H2B 6261   5.396   6.511   4.061  1.6228  0.8871  0.5529
   69CHL1   C20 6262   5.387   6.899   4.962 -0.4257 -0.0424 -0.0663
   69CHL1   H20 6263   5.493   6.933   4.963 -0.2114 -0.6802  1.2282
   69CHL1   C21 6264   5.368   6.754   5.006 -0.2137  0.7045  0.1992
   69CHL1  H21A 6265   5.429   6.721   5.093  1.1246  0.9686 -0.6196
   69CHL1  H21B 6266   5.403   6.684   4.928 -1.4496 -0.8347  0.9623
   69CHL1  H21C 6267   5.261   6.724   5.017 -0.7506  1.1915 -2.9244
   69CHL1   C22 6268   5.321   6.983   5.067  0.4324 -0.4914  0.6363
   69CHL1  H22A 6269   5.323   7.086   5.027  0.3233 -0.8032 -0.1919
   69CHL1  H22B 6270   5.213   6.962   5.086  0.6508  0.4339  3.3109
   69CHL1   C23 6271   5.390   6.991   5.204 -0.3054  0.1196 -0.1713
   69CHL1  H23A 6272   5.369   6.897   5.259  0.8851 -0.2322 -0.2984
   69CHL1  H23B 6273   5.499   6.992   5.187 -0.2579  0.7500  0.1253
   69CHL1   C24 6274   5.337   7.107   5.292  0.3454 -0.0767  0.3381
   69CHL1  H24A 6275   5.358   7.202   5.240  1.3410 -0.6701 -0.3662
   69CHL1  H24B 6276   5.226   7.106   5.297  0.1295 -1.6591 -2.5755
   69CHL1   C25 6277   5.418   7.115   5.430  0.0220 -0.1668 -0.2117
   69CHL1   H25 6278   5.408   7.016   5.478 -0.9855 -1.4035 -2.7749
   69CHL1   C26 6279   5.563   7.153   5.389  0.8294  0.7010  0.2597
   69CHL1  H26A 6280   5.606   7.181   5.487  1.3484  2.6114 -0.4579
   69CHL1  H26B 6281   5.617   7.064   5.351 -0.3166 -0.2983  0.9150
   69CHL1  H26C 6282   5.557   7.240   5.319 -0.8891  1.0158  0.7471
   69CHL1   C27 6283   5.356   7.221   5.523 -0.3910 -1.1243 -0.1393
   69CHL1  H27A 6284   5.405   7.222   5.623  2.1930  0.5533 -1.3425
   69CHL1  H27B 6285   5.381   7.324   5.490 -0.3632 -0.7019  1.1458
   69CHL1  H27C 6286   5.246   7.205   5.530 -0.3801 -0.8478  0.8782
   70CHL1    C3 6287   1.058   5.609   4.137 -0.1311 -0.3714 -0.5643
   70CHL1    H3 6288   1.146   5.676   4.148 -0.7897  0.4477 -0.1042
   70CHL1    O3 6289   1.023   5.594   3.994  0.1352  0.0375  0.1610
   70CHL1   H3' 6290   0.934   5.561   3.983  0.3636  0.2614 -3.1539
   70CHL1    C4 6291   1.083   5.476   4.194 -0.1626  0.7986 -0.0407
   70CHL1   H4A 6292   0.999   5.408   4.170  0.8375 -1.4638  2.2868
   70CHL1   H4B 6293   1.173   5.432   4.144 -0.9089 -0.0532 -0.6711
   70CHL1    C5 6294   1.109   5.470   4.343  0.0712  0.8256 -0.7138
   70CHL1    C6 6295   1.217   5.406   4.393  0.3623 -0.2517  0.6846
   70CHL1    H6 6296   1.287   5.358   4.323 -0.9553 -2.4198  0.7984
   70CHL1    C7 6297   1.244   5.412   4.536  0.0814 -0.6148  1.2039
   70CHL1   H7A 6298   1.266   5.306   4.563 -0.4221 -1.0053  0.1064
   70CHL1   H7B 6299   1.331   5.481   4.532  0.9828 -1.7572  0.3752
   70CHL1    C8 6300   1.127   5.461   4.630  0.5286  0.8778  0.0379
   70CHL1    H8 6301   1.062   5.372   4.641  2.1860 -0.4261 -0.4602
   70CHL1   C14 6302   1.178   5.492   4.770  0.0417  0.5209 -0.9426
   70CHL1   H14 6303   1.254   5.572   4.755 -0.1609  0.4370 -2.4968
   70CHL1   C15 6304   1.250   5.376   4.841  0.1347  0.4321 -0.1982
   70CHL1  H15A 6305   1.193   5.281   4.840  1.2590 -0.2672 -0.5594
   70CHL1  H15B 6306   1.356   5.370   4.806  0.7091 -0.1001  1.5000
   70CHL1   C16 6307   1.263   5.429   4.982  0.3007  0.4503 -0.5258
   70CHL1  H16A 6308   1.237   5.344   5.048  3.5564 -0.6000 -0.4081
   70CHL1  H16B 6309   1.368   5.445   5.014  0.3630 -3.0218  1.4877
   70CHL1   C17 6310   1.168   5.554   4.995  0.0896  0.4354 -0.3639
   70CHL1   H17 6311   1.235   5.642   4.986  1.5093 -0.3015  2.1404
   70CHL1   C13 6312   1.080   5.544   4.873  0.1784 -0.1283  0.1728
   70CHL1   C18 6313   0.962   5.445   4.906 -0.2036  0.2508  0.2639
   70CHL1  H18A 6314   0.988   5.350   4.958  0.0932  0.5050  0.5841
   70CHL1  H18B 6315   0.902   5.505   4.978  1.9262  2.5634  0.2628
   70CHL1  H18C 6316   0.894   5.423   4.821  0.9896 -0.1873 -0.5882
   70CHL1   C12 6317   1.017   5.674   4.813 -0.1876 -1.0402  0.0644
   70CHL1  H12A 6318   0.939   5.717   4.880 -0.3140 -1.1671 -0.0023
   70CHL1  H12B 6319   1.094   5.753   4.802 -1.1045  0.1160  1.5505
   70CHL1   C11 6320   0.959   5.646   4.672  1.0022  0.2040 -0.3916
   70CHL1  H11A 6321   0.870   5.580   4.683  0.7505  0.5702 -0.2207
   70CHL1  H11B 6322   0.920   5.741   4.631  0.2457  0.4175  0.7834
   70CHL1    C9 6323   1.061   5.581   4.575 -0.0793 -0.3522  0.2475
   70CHL1    H9 6324   1.133   5.665   4.569 -0.5698  0.2605  2.2436
   70CHL1   C10 6325   1.011   5.554   4.430  0.1023  0.0533 -0.1718
   70CHL1   C19 6326   0.875   5.476   4.432 -0.1810 -0.1163  0.1064
   70CHL1  H19A 6327   0.796   5.539   4.479 -1.0127  0.7624 -2.3247
   70CHL1  H19B 6328   0.843   5.454   4.328 -0.0040 -2.6294  0.5121
   70CHL1  H19C 6329   0.882   5.382   4.491 -0.6099 -0.2174 -0.0043
   70CHL1    C1 6330   0.987   5.694   4.366 -0.4304 -0.3193  0.8307
   70CHL1   H1A 6331   0.915   5.759   4.420 -2.0517 -1.7175  0.4620
   70CHL1   H1B 6332   1.083   5.749   4.367 -0.9658  0.7462 -0.9646
   70CHL1    C2 6333   0.948   5.683   4.221  0.1668 -0.4143 -0.3988
   70CHL1   H2A 6334   0.937   5.788   4.188 -0.1613 -0.1851  0.4310
   70CHL1   H2B 6335   0.848   5.633   4.220 -1.2154  2.1459 -0.3809
   70CHL1   C20 6336   1.107   5.569   5.134  0.2857 -0.3193 -0.5191
   70CHL1   H20 6337   1.033   5.488   5.147  1.3348 -0.9803  2.1268
   70CHL1   C21 6338   1.050   5.710   5.153 -0.1107 -0.7152 -0.5236
   70CHL1  H21A 6339   1.016   5.722   5.258 -0.0374 -0.2469 -0.5511
   70CHL1  H21B 6340   0.960   5.731   5.091 -1.0164  2.3207  1.6103
   70CHL1  H21C 6341   1.124   5.790   5.133 -1.8354  1.4620  1.3277
   70CHL1   C22 6342   1.210   5.529   5.244 -0.5907  0.2287 -0.6898
   70CHL1  H22A 6343   1.286   5.450   5.228 -1.1951 -0.8869  1.5297
   70CHL1  H22B 6344   1.271   5.615   5.276 -1.0348 -0.1778  1.4241
   70CHL1   C23 6345   1.144   5.477   5.371 -0.4418  0.2203  0.6173
   70CHL1  H23A 6346   1.055   5.540   5.395 -1.2374 -0.6277  0.0123
   70CHL1  H23B 6347   1.105   5.374   5.354  1.8900 -0.6962  0.5852
   70CHL1   C24 6348   1.237   5.479   5.496 -0.2859  0.2735 -0.7153
   70CHL1  H24A 6349   1.324   5.411   5.484  1.3317  1.7589  1.7013
   70CHL1  H24B 6350   1.273   5.584   5.494 -1.5398  0.7312 -0.2128
   70CHL1   C25 6351   1.149   5.453   5.626 -0.7114  0.1796  0.9404
   70CHL1   H25 6352   1.061   5.521   5.620  1.4370  3.0394 -0.2825
   70CHL1   C26 6353   1.100   5.308   5.635  0.0582 -0.1728  0.2202
   70CHL1  H26A 6354   1.054   5.291   5.735 -2.2832  0.8393 -0.5964
   70CHL1  H26B 6355   1.016   5.300   5.562 -0.0269  1.1217  0.1607
   70CHL1  H26C 6356   1.174   5.225   5.622  0.8435  0.3696  1.1515
   70CHL1   C27 6357   1.221   5.490   5.754  0.0736  0.8294 -0.0907
   70CHL1  H27A 6358   1.303   5.420   5.781 -0.8953  0.2348  1.4340
   70CHL1  H27B 6359   1.265   5.591   5.747  1.9323  0.0299 -0.4676
   70CHL1  H27C 6360   1.149   5.503   5.838 -1.8293 -0.1789 -1.4737
   71CHL1    C3 6361   0.755   1.543   4.016  0.4242  0.4287  0.4603
   71CHL1    H3 6362   0.682   1.461   3.999 -0.1779  1.3244 -1.7703
   71CHL1    O3 6363   0.826   1.558   3.888  0.0185 -0.5179  0.0681
   71CHL1   H3' 6364   0.879   1.638   3.897 -2.6541  1.3668  0.3862
   71CHL1    C4 6365   0.679   1.669   4.052  0.0218  0.5599 -0.0929
   71CHL1   H4A 6366   0.754   1.751   4.045  0.1489  0.5082  0.6387
   71CHL1   H4B 6367   0.603   1.691   3.973  0.6193 -0.6572 -1.0382
   71CHL1    C5 6368   0.627   1.670   4.187 -1.0259  0.4444 -0.0623
   71CHL1    C6 6369   0.501   1.694   4.206  0.5271 -0.0905 -0.1189
   71CHL1    H6 6370   0.438   1.720   4.121  2.1468 -0.0225 -1.3542
   71CHL1    C7 6371   0.430   1.681   4.341 -1.2492  0.4814  0.5738
   71CHL1   H7A 6372   0.347   1.755   4.343 -3.2927 -1.5986 -1.5592
   71CHL1   H7B 6373   0.373   1.587   4.359  0.3073 -0.8358 -1.0304
   71CHL1    C8 6374   0.532   1.681   4.465  0.5213  0.2254  0.9663
   71CHL1    H8 6375   0.572   1.785   4.461  1.3177 -0.0442 -3.5152
   71CHL1   C14 6376   0.461   1.633   4.591 -0.2422  0.6506  0.1690
   71CHL1   H14 6377   0.441   1.524   4.582  1.7898  0.3108 -0.9026
   71CHL1   C15 6378   0.329   1.695   4.630  0.1844 -0.3095 -0.3278
   71CHL1  H15A 6379   0.337   1.805   4.626 -1.5264  0.0998  3.3568
   71CHL1  H15B 6380   0.241   1.648   4.580  0.7842 -0.3854 -1.3528
   71CHL1   C16 6381   0.321   1.665   4.783 -0.0746  0.2554 -0.0290
   71CHL1  H16A 6382   0.306   1.770   4.817  2.2739  1.1747 -1.6138
   71CHL1  H16B 6383   0.227   1.610   4.805  1.3599 -2.2222  0.3536
   71CHL1   C17 6384   0.448   1.591   4.819  0.0366  0.1439  0.0565
   71CHL1   H17 6385   0.423   1.485   4.797 -0.3373  0.4040 -0.8218
   71CHL1   C13 6386   0.552   1.639   4.716 -0.2456  0.7302  0.2568
   71CHL1   C18 6387   0.598   1.780   4.750  0.4475  0.1485  0.7329
   71CHL1  H18A 6388   0.670   1.788   4.834  1.5673 -0.7242 -0.1131
   71CHL1  H18B 6389   0.648   1.825   4.662 -0.2668 -0.4786 -0.0120
   71CHL1  H18C 6390   0.514   1.848   4.775 -0.2860 -1.1629  1.9717
   71CHL1   C12 6391   0.682   1.550   4.688  0.5479  0.0313 -0.5297
   71CHL1  H12A 6392   0.743   1.564   4.781 -2.4148 -1.7842  1.8763
   71CHL1  H12B 6393   0.644   1.446   4.688  0.1869  0.1628 -0.2578
   71CHL1   C11 6394   0.747   1.591   4.557  0.0490 -0.4803  0.1520
   71CHL1  H11A 6395   0.797   1.689   4.575  0.8573 -1.0303  0.9106
   71CHL1  H11B 6396   0.829   1.519   4.541  0.1412 -0.5927  1.1231
   71CHL1    C9 6397   0.649   1.590   4.438 -0.3947 -0.4645 -0.2257
   71CHL1    H9 6398   0.612   1.486   4.438 -0.3317 -0.5123  1.1550
   71CHL1   C10 6399   0.719   1.621   4.307 -0.7317  0.7089  0.4585
   71CHL1   C19 6400   0.816   1.741   4.321 -0.8037 -0.0385 -0.2815
   71CHL1  H19A 6401   0.759   1.831   4.352 -0.8609  0.7717 -2.6093
   71CHL1  H19B 6402   0.893   1.717   4.398 -0.5874 -1.2499 -0.8482
   71CHL1  H19C 6403   0.872   1.771   4.230  0.4398 -1.1419  0.0849
   71CHL1    C1 6404   0.790   1.492   4.255 -0.2905 -0.3894  0.4380
   71CHL1   H1A 6405   0.877   1.469   4.321  0.1290 -0.7463 -0.2215
   71CHL1   H1B 6406   0.730   1.398   4.261  1.0732 -1.3107  0.1813
   71CHL1    C2 6407   0.858   1.505   4.123 -0.6414  0.2831  0.3388
   71CHL1   H2A 6408   0.905   1.410   4.088 -0.0288  0.4729  0.6186
   71CHL1   H2B 6409   0.940   1.580   4.113  1.0306 -1.7318 -3.0084
   71CHL1   C20 6410   0.474   1.605   4.971  0.4635  0.2470 -1.2869
   71CHL1   H20 6411   0.529   1.701   4.984  0.9841 -0.0553 -1.2214
   71CHL1   C21 6412   0.572   1.502   5.020 -0.0459 -0.1630 -0.3112
   71CHL1  H21A 6413   0.599   1.526   5.125 -2.1081  3.1054 -0.3940
   71CHL1  H21B 6414   0.665   1.509   4.959  0.3127  2.1103  0.4124
   71CHL1  H21C 6415   0.526   1.402   5.003  1.9740 -1.7721  2.8816
   71CHL1   C22 6416   0.338   1.618   5.054  0.0523 -0.5635  0.8185
   71CHL1  H22A 6417   0.277   1.704   5.018  1.2227 -0.7440 -1.7962
   71CHL1  H22B 6418   0.282   1.523   5.044 -1.8475  0.6311 -0.7120
   71CHL1   C23 6419   0.363   1.656   5.193  0.3344 -0.1356  0.4711
   71CHL1  H23A 6420   0.269   1.655   5.251 -1.1111 -0.5574 -1.7568
   71CHL1  H23B 6421   0.419   1.575   5.244 -1.3368 -2.6755 -1.5092
   71CHL1   C24 6422   0.422   1.796   5.217 -0.1700 -0.1228 -0.6567
   71CHL1  H24A 6423   0.528   1.796   5.185  0.1880 -0.9238  0.4861
   71CHL1  H24B 6424   0.369   1.873   5.156  1.2273  0.2822 -1.3903
   71CHL1   C25 6425   0.425   1.841   5.364  0.4406 -0.6437 -0.3255
   71CHL1   H25 6426   0.332   1.819   5.420  0.3706 -1.0187 -0.5855
   71CHL1   C26 6427   0.539   1.768   5.444 -0.3519 -0.3688 -0.3131
   71CHL1  H26A 6428   0.534   1.786   5.554  1.5284 -1.2973 -0.0266
   71CHL1  H26B 6429   0.547   1.658   5.427  2.6845 -0.2781 -0.1103
   71CHL1  H26C 6430   0.630   1.824   5.413  0.3910 -1.3933 -0.0399
   71CHL1   C27 6431   0.436   2.000   5.377  0.0406  0.4010 -0.5794
   71CHL1  H27A 6432   0.427   2.039   5.481 -0.2528  0.0326 -0.4615
   71CHL1  H27B 6433   0.535   2.032   5.338  0.6771  0.7775  1.2398
   71CHL1  H27C 6434   0.364   2.051   5.309  1.6651  2.2172 -1.0226
   72CHL1    C3 6435   6.246   4.775   4.108  0.2904  0.6023 -0.0817
   72CHL1    H3 6436   6.316   4.695   4.139 -0.2505 -0.3312 -1.1891
   72CHL1    O3 6437   6.236   4.777   3.964 -0.0335  0.1278 -0.2294
   72CHL1   H3' 6438   6.144   4.798   3.945 -0.3520 -0.1254  0.9359
   72CHL1    C4 6439   6.098   4.760   4.160 -0.6400  0.1701  0.1975
   72CHL1   H4A 6440   6.039   4.850   4.131 -1.1231  0.4395  1.9145
   72CHL1   H4B 6441   6.051   4.674   4.109  0.7207  0.0602 -0.9278
   72CHL1    C5 6442   6.091   4.748   4.304  0.5634 -0.0944  0.0515
   72CHL1    C6 6443   6.040   4.634   4.358 -0.4087 -0.3231 -0.3235
   72CHL1    H6 6444   6.015   4.552   4.290 -0.3787  0.9270 -1.9127
   72CHL1    C7 6445   6.046   4.626   4.510 -0.3473 -0.7163  0.3547
   72CHL1   H7A 6446   5.946   4.586   4.536 -1.7274  1.9304 -0.5801
   72CHL1   H7B 6447   6.113   4.541   4.535 -0.1451 -0.6245  0.1288
   72CHL1    C8 6448   6.061   4.757   4.593 -0.4603  0.4969  0.8635
   72CHL1    H8 6449   5.965   4.813   4.584 -0.8758 -0.3025  0.2000
   72CHL1   C14 6450   6.090   4.722   4.730  0.3550  0.3681 -0.4624
   72CHL1   H14 6451   6.186   4.665   4.730 -0.1948 -0.5921 -0.5483
   72CHL1   C15 6452   5.998   4.626   4.814 -0.4069 -0.7519 -0.8826
   72CHL1  H15A 6453   5.892   4.643   4.784 -0.7305 -1.5268 -0.2113
   72CHL1  H15B 6454   6.025   4.519   4.796  2.0480 -0.6108  1.3528
   72CHL1   C16 6455   6.008   4.659   4.964 -0.2327  0.1803  0.2713
   72CHL1  H16A 6456   5.905   4.685   4.999 -1.2925 -2.7577 -0.4103
   72CHL1  H16B 6457   6.050   4.572   5.018  1.9319  0.2103 -1.2143
   72CHL1   C17 6458   6.113   4.775   4.964 -0.4741  0.4568  0.2106
   72CHL1   H17 6459   6.207   4.715   4.967 -0.9150 -0.2775 -0.3675
   72CHL1   C13 6460   6.107   4.845   4.823  0.0769  0.3730 -0.5008
   72CHL1   C18 6461   5.989   4.947   4.815  0.1538  0.0816  0.6160
   72CHL1  H18A 6462   5.895   4.891   4.831 -0.6768  1.5902  1.2645
   72CHL1  H18B 6463   5.988   5.021   4.898  1.2822  0.4341  0.3414
   72CHL1  H18C 6464   5.984   5.000   4.718  1.0132 -1.6824 -0.4337
   72CHL1   C12 6465   6.238   4.905   4.773 -0.0395  0.0259 -0.6983
   72CHL1  H12A 6466   6.263   4.992   4.837  0.8132 -0.2445 -0.6490
   72CHL1  H12B 6467   6.321   4.835   4.797 -0.6171 -0.5969 -0.4994
   72CHL1   C11 6468   6.227   4.949   4.624  0.0213 -0.1211 -0.2614
   72CHL1  H11A 6469   6.144   5.023   4.628 -1.0591 -1.3242  0.4152
   72CHL1  H11B 6470   6.310   5.005   4.576 -2.5888  2.0262 -2.6202
   72CHL1    C9 6471   6.181   4.830   4.530 -0.2579 -0.9421  0.1443
   72CHL1    H9 6472   6.265   4.757   4.534  1.4631  0.9347 -0.0518
   72CHL1   C10 6473   6.158   4.863   4.383 -0.2837 -0.2173  0.0903
   72CHL1   C19 6474   6.067   4.988   4.372  0.8214 -0.0283 -0.2322
   72CHL1  H19A 6475   5.980   4.990   4.442 -0.2606  1.8566 -1.5465
   72CHL1  H19B 6476   6.127   5.079   4.387 -0.5929  0.6640  1.7443
   72CHL1  H19C 6477   6.026   4.999   4.269 -0.1028 -0.1492  0.1050
   72CHL1    C1 6478   6.301   4.896   4.313 -0.6748 -0.2812 -0.2827
   72CHL1   H1A 6479   6.345   4.987   4.360  0.7412 -1.3816  0.6300
   72CHL1   H1B 6480   6.377   4.822   4.347 -0.9618 -1.1434 -1.4486
   72CHL1    C2 6481   6.301   4.905   4.165 -0.6606  0.6819  0.3433
   72CHL1   H2A 6482   6.408   4.916   4.138 -0.1531  2.3755  2.6952
   72CHL1   H2B 6483   6.242   4.990   4.126  1.3451  1.5025 -1.0876
   72CHL1   C20 6484   6.115   4.859   5.095 -0.1189  0.6759  0.5116
   72CHL1   H20 6485   6.019   4.906   5.124 -1.2787  0.6245 -2.8809
   72CHL1   C21 6486   6.212   4.974   5.099 -0.0377  0.0165  0.4031
   72CHL1  H21A 6487   6.183   5.050   5.024  1.7233  1.3261  0.9799
   72CHL1  H21B 6488   6.318   4.948   5.080  0.4743  1.1796  1.5523
   72CHL1  H21C 6489   6.214   5.025   5.198 -3.1756  1.1625 -0.0206
   72CHL1   C22 6490   6.153   4.760   5.208  0.0179  0.9240  0.2053
   72CHL1  H22A 6491   6.077   4.679   5.208 -0.7735  1.6456 -0.3844
   72CHL1  H22B 6492   6.253   4.715   5.195 -2.0320 -4.1004 -0.2451
   72CHL1   C23 6493   6.159   4.818   5.354 -0.3115 -0.3246 -0.1340
   72CHL1  H23A 6494   6.237   4.898   5.366 -0.5431 -0.2627  1.0648
   72CHL1  H23B 6495   6.061   4.856   5.389  0.5004  1.3408  0.4637
   72CHL1   C24 6496   6.198   4.702   5.442 -0.2094 -0.0798 -0.6644
   72CHL1  H24A 6497   6.144   4.614   5.401 -2.7870  2.1502 -2.3589
   72CHL1  H24B 6498   6.305   4.683   5.420 -0.1715  0.5813 -1.0897
   72CHL1   C25 6499   6.161   4.704   5.595  0.3273  0.8582  0.7277
   72CHL1   H25 6500   6.050   4.712   5.604  0.3638  3.0717 -0.2816
   72CHL1   C26 6501   6.197   4.577   5.676 -0.2616  0.0368  0.2216
   72CHL1  H26A 6502   6.140   4.561   5.770 -1.8204  0.1568 -0.6710
   72CHL1  H26B 6503   6.172   4.485   5.619 -2.5601  1.6465 -1.5422
   72CHL1  H26C 6504   6.305   4.584   5.704 -1.2550  0.5532  4.7355
   72CHL1   C27 6505   6.238   4.810   5.665 -0.1916 -0.9349 -0.0450
   72CHL1  H27A 6506   6.223   4.809   5.775 -1.1531 -2.1255 -0.1562
   72CHL1  H27B 6507   6.345   4.815   5.635  0.3102  2.7700  1.8339
   72CHL1  H27C 6508   6.216   4.912   5.626  1.9247  0.4848  2.2076
   73CHL1    C3 6509   1.615   2.080   4.420 -0.0823  0.5956 -0.4325
   73CHL1    H3 6510   1.552   1.995   4.454 -0.8543  0.8154 -1.2794
   73CHL1    O3 6511   1.630   2.071   4.283 -0.6633 -0.4826  0.2215
   73CHL1   H3' 6512   1.672   2.155   4.264  0.0130 -1.2424 -1.8819
   73CHL1    C4 6513   1.548   2.207   4.460 -0.4202  0.1279 -0.2847
   73CHL1   H4A 6514   1.609   2.292   4.422 -0.0736  0.2068  0.4345
   73CHL1   H4B 6515   1.445   2.212   4.419 -0.5466  0.9297  0.1209
   73CHL1    C5 6516   1.534   2.227   4.608  0.1805  0.7170  0.2217
   73CHL1    C6 6517   1.413   2.223   4.665 -0.4110  0.1457  0.7555
   73CHL1    H6 6518   1.322   2.223   4.603  0.0572  1.0577  0.0207
   73CHL1    C7 6519   1.381   2.234   4.808 -0.1231  0.0919  0.2124
   73CHL1   H7A 6520   1.293   2.299   4.827  0.0046  0.2875  0.1298
   73CHL1   H7B 6521   1.353   2.134   4.847  0.3430  0.7026  2.2015
   73CHL1    C8 6522   1.503   2.288   4.877  0.0682 -0.6422  0.0776
   73CHL1    H8 6523   1.529   2.394   4.855 -2.1151  0.3715  1.9241
   73CHL1   C14 6524   1.486   2.269   5.027 -0.1286 -0.6863  0.1373
   73CHL1   H14 6525   1.477   2.160   5.050 -1.3281 -0.4228  1.0495
   73CHL1   C15 6526   1.358   2.336   5.090  0.1194 -0.1458  0.1583
   73CHL1  H15A 6527   1.319   2.432   5.052  1.8286  0.2025 -0.8374
   73CHL1  H15B 6528   1.281   2.256   5.090  0.0518 -0.0826  0.5055
   73CHL1   C16 6529   1.394   2.358   5.237 -0.7183  0.1431 -0.2106
   73CHL1  H16A 6530   1.392   2.467   5.256 -3.5909 -0.2856  2.8367
   73CHL1  H16B 6531   1.320   2.306   5.301 -0.4585 -2.8604 -2.1465
   73CHL1   C17 6532   1.549   2.306   5.258  0.4620 -0.4307  0.0660
   73CHL1   H17 6533   1.541   2.198   5.284  1.0005 -0.3695  0.4907
   73CHL1   C13 6534   1.602   2.315   5.115 -0.5707  0.3226  0.0041
   73CHL1   C18 6535   1.634   2.463   5.081 -0.1140  0.0182 -0.0037
   73CHL1  H18A 6536   1.545   2.526   5.100 -0.0599 -0.0001  0.3306
   73CHL1  H18B 6537   1.721   2.496   5.143 -1.3168  0.4661  1.4993
   73CHL1  H18C 6538   1.666   2.482   4.976  1.2633 -1.5406  0.0762
   73CHL1   C12 6539   1.722   2.221   5.080 -0.2728  0.2575 -0.1424
   73CHL1  H12A 6540   1.814   2.250   5.134  1.9438 -1.6856 -2.6432
   73CHL1  H12B 6541   1.698   2.117   5.111 -0.3702 -0.0454 -1.2016
   73CHL1   C11 6542   1.752   2.228   4.927  0.6511  0.2747 -0.7612
   73CHL1  H11A 6543   1.805   2.325   4.914  2.0946  0.0214  2.3899
   73CHL1  H11B 6544   1.821   2.143   4.905  2.0376  0.2336  3.0994
   73CHL1    C9 6545   1.629   2.212   4.834 -0.1764 -0.7888  0.0600
   73CHL1    H9 6546   1.596   2.108   4.857 -1.6903  0.0371  1.9331
   73CHL1   C10 6547   1.668   2.222   4.682 -0.3092 -1.1332 -0.9246
   73CHL1   C19 6548   1.757   2.345   4.646  1.0385 -0.6395 -0.1907
   73CHL1  H19A 6549   1.702   2.436   4.677 -0.4732 -1.2307 -1.0834
   73CHL1  H19B 6550   1.857   2.348   4.695  1.1349  0.6419 -0.4384
   73CHL1  H19C 6551   1.774   2.360   4.537 -0.9506 -0.3575 -0.4836
   73CHL1    C1 6552   1.743   2.092   4.639 -0.5386  1.5275 -0.2816
   73CHL1   H1A 6553   1.844   2.092   4.684 -0.5037 -5.6549  0.7735
   73CHL1   H1B 6554   1.694   2.001   4.680 -0.9135  1.6248 -0.5009
   73CHL1    C2 6555   1.752   2.064   4.489  0.3250  0.0725  0.2186
   73CHL1   H2A 6556   1.780   1.958   4.469 -0.3205 -0.0268 -0.2085
   73CHL1   H2B 6557   1.821   2.133   4.436 -1.7025  1.9333 -0.1538
   73CHL1   C20 6558   1.613   2.384   5.379  0.0876  0.4597 -0.3873
   73CHL1   H20 6559   1.599   2.491   5.354 -0.6724  0.9439  1.9118
   73CHL1   C21 6560   1.765   2.357   5.372  0.2406 -0.0611 -0.8922
   73CHL1  H21A 6561   1.820   2.419   5.298  1.0128  1.7980  1.1217
   73CHL1  H21B 6562   1.778   2.251   5.343 -0.5277  0.0298 -1.6230
   73CHL1  H21C 6563   1.811   2.375   5.471 -1.1342 -0.2926 -0.1845
   73CHL1   C22 6564   1.552   2.348   5.516 -0.7675  0.2164  0.2689
   73CHL1  H22A 6565   1.581   2.421   5.595 -1.4589  1.4338 -0.5682
   73CHL1  H22B 6566   1.442   2.357   5.509 -0.6721  1.3744 -0.0535
   73CHL1   C23 6567   1.583   2.209   5.572  0.1809  0.3315  0.0847
   73CHL1  H23A 6568   1.555   2.134   5.495 -2.1709 -2.4739  3.3328
   73CHL1  H23B 6569   1.693   2.194   5.579 -0.0424 -1.4134  0.4732
   73CHL1   C24 6570   1.509   2.195   5.704  0.1984  0.4939 -1.0799
   73CHL1  H24A 6571   1.545   2.278   5.769  1.4740 -1.5106  0.9006
   73CHL1  H24B 6572   1.399   2.211   5.705 -0.0840 -0.8094  2.3363
   73CHL1   C25 6573   1.550   2.071   5.788 -0.0427 -0.1900  0.1899
   73CHL1   H25 6574   1.661   2.073   5.787 -0.0098  1.5158 -2.2696
   73CHL1   C26 6575   1.487   2.062   5.934  0.1215  0.0685  0.1536
   73CHL1  H26A 6576   1.479   2.166   5.971 -1.3604  0.5282 -1.3394
   73CHL1  H26B 6577   1.382   2.027   5.933  0.7710 -2.0243  0.2642
   73CHL1  H26C 6578   1.550   1.993   5.995 -1.4930 -0.2821  1.5201
   73CHL1   C27 6579   1.511   1.938   5.709  0.4574  0.2654 -0.9145
   73CHL1  H27A 6580   1.400   1.948   5.717  0.6771  2.8597 -0.1970
   73CHL1  H27B 6581   1.551   1.940   5.606  1.1046  0.6802 -0.6615
   73CHL1  H27C 6582   1.553   1.852   5.766 -1.2761  0.6533  1.1164
   74CHL1    C3 6583   1.410   6.515   3.879 -0.6278 -0.3541 -0.1046
   74CHL1    H3 6584   1.425   6.625   3.883  0.9745 -0.4533 -2.1381
   74CHL1    O3 6585   1.420   6.471   3.746  0.4102  0.2059  0.5718
   74CHL1   H3' 6586   1.411   6.376   3.754  1.8617 -0.1022 -0.7885
   74CHL1    C4 6587   1.523   6.444   3.957 -0.0453 -0.3790  0.6746
   74CHL1   H4A 6588   1.518   6.335   3.940 -1.7545 -0.1784 -0.3599
   74CHL1   H4B 6589   1.620   6.473   3.912  0.7317 -3.0224  0.4899
   74CHL1    C5 6590   1.518   6.481   4.100 -0.4550 -0.2496 -0.7884
   74CHL1    C6 6591   1.608   6.569   4.153  0.1524  0.0892  0.0138
   74CHL1    H6 6592   1.688   6.610   4.089  0.3712 -2.1119 -1.2082
   74CHL1    C7 6593   1.602   6.617   4.297  1.0075  0.5593  0.1001
   74CHL1   H7A 6594   1.702   6.625   4.345  1.9037  0.3009 -1.6443
   74CHL1   H7B 6595   1.552   6.716   4.305  0.4190  0.1160  3.0847
   74CHL1    C8 6596   1.512   6.522   4.384  0.2046 -0.4800  0.2304
   74CHL1    H8 6597   1.551   6.418   4.390 -2.0944 -1.4693 -0.7082
   74CHL1   C14 6598   1.500   6.583   4.525  0.2794  0.1470 -1.0047
   74CHL1   H14 6599   1.458   6.686   4.519 -2.2685 -0.8477 -1.5527
   74CHL1   C15 6600   1.621   6.588   4.616 -0.0308 -0.0401 -0.2556
   74CHL1  H15A 6601   1.671   6.489   4.613 -0.2419 -0.2506  1.7554
   74CHL1  H15B 6602   1.688   6.671   4.585  0.5970 -0.4226  0.0596
   74CHL1   C16 6603   1.557   6.615   4.760 -0.3847  0.4992  0.2889
   74CHL1  H16A 6604   1.594   6.541   4.834 -2.6456  0.0297  1.0127
   74CHL1  H16B 6605   1.595   6.715   4.792 -2.1534  1.8303 -1.5059
   74CHL1   C17 6606   1.404   6.602   4.747  0.0272 -0.1156  0.1344
   74CHL1   H17 6607   1.368   6.704   4.721 -1.0235 -0.1845  1.2714
   74CHL1   C13 6608   1.387   6.519   4.619  0.0472  0.8157 -0.0439
   74CHL1   C18 6609   1.425   6.371   4.650  0.2445 -0.6353  0.3970
   74CHL1  H18A 6610   1.426   6.309   4.558  4.3325 -0.4421  0.0967
   74CHL1  H18B 6611   1.526   6.369   4.697  1.6323  0.2757 -2.2884
   74CHL1  H18C 6612   1.356   6.336   4.729  0.4741  1.7305  1.7687
   74CHL1   C12 6613   1.254   6.532   4.545 -0.2255  0.1200 -0.0737
   74CHL1  H12A 6614   1.185   6.479   4.614  0.0619 -0.9569 -0.5926
   74CHL1  H12B 6615   1.238   6.642   4.542  2.5277  0.6219  1.0486
   74CHL1   C11 6616   1.260   6.462   4.406 -0.4466 -0.4865  0.7808
   74CHL1  H11A 6617   1.288   6.357   4.427  0.0230 -0.8455 -1.4237
   74CHL1  H11B 6618   1.166   6.461   4.347  2.2510  2.4260 -4.2832
   74CHL1    C9 6619   1.379   6.512   4.318  0.5485  0.2993 -0.3036
   74CHL1    H9 6620   1.353   6.619   4.302  0.6749  0.2054 -1.1865
   74CHL1   C10 6621   1.391   6.440   4.178  0.4658 -0.3360  0.0142
   74CHL1   C19 6622   1.392   6.286   4.190 -0.1241 -0.0389 -0.0768
   74CHL1  H19A 6623   1.470   6.254   4.263 -0.4499 -1.7910 -0.4560
   74CHL1  H19B 6624   1.297   6.239   4.223  0.1937 -0.6598 -0.0175
   74CHL1  H19C 6625   1.430   6.241   4.095  2.3993 -2.0668  1.7323
   74CHL1    C1 6626   1.273   6.497   4.096 -0.2306 -1.0043 -0.4369
   74CHL1   H1A 6627   1.179   6.454   4.135 -0.5490  1.4069  1.7056
   74CHL1   H1B 6628   1.266   6.607   4.110  0.7681 -0.8122 -1.2988
   74CHL1    C2 6629   1.278   6.472   3.945 -0.2816  0.0553  0.1740
   74CHL1   H2A 6630   1.198   6.537   3.904 -0.1129  1.3061  1.7246
   74CHL1   H2B 6631   1.261   6.363   3.933 -1.5583  0.1994  0.5411
   74CHL1   C20 6632   1.339   6.557   4.873  0.0278 -0.1393 -0.4621
   74CHL1   H20 6633   1.374   6.461   4.915  0.2310  0.7593  1.5810
   74CHL1   C21 6634   1.184   6.550   4.863 -0.1944  0.0329 -0.3684
   74CHL1  H21A 6635   1.154   6.533   4.968  2.1525 -1.4359  0.1210
   74CHL1  H21B 6636   1.150   6.459   4.810  2.5369 -1.0973 -0.3475
   74CHL1  H21C 6637   1.136   6.640   4.817 -0.5956 -0.0681 -0.1519
   74CHL1   C22 6638   1.376   6.660   4.984  0.0246  0.1870  0.4655
   74CHL1  H22A 6639   1.485   6.679   4.990  0.3612 -1.3499 -0.1529
   74CHL1  H22B 6640   1.317   6.751   4.961 -0.2581 -0.3890 -1.2387
   74CHL1   C23 6641   1.345   6.608   5.123  1.1785  0.7494  0.0687
   74CHL1  H23A 6642   1.236   6.585   5.128  1.2929  0.5311  2.9478
   74CHL1  H23B 6643   1.413   6.523   5.147  4.0818  3.1653  0.9731
   74CHL1   C24 6644   1.373   6.718   5.228  0.3353  0.5607 -0.5427
   74CHL1  H24A 6645   1.484   6.727   5.237  0.5484 -1.4441 -0.7519
   74CHL1  H24B 6646   1.347   6.820   5.192  0.9425  0.2358 -1.9608
   74CHL1   C25 6647   1.306   6.677   5.359  0.2875 -1.0148 -0.7469
   74CHL1   H25 6648   1.197   6.672   5.338  0.1074  1.9146 -0.9200
   74CHL1   C26 6649   1.368   6.550   5.424  0.0554 -0.6083 -0.2460
   74CHL1  H26A 6650   1.368   6.466   5.352  1.0263 -0.0086 -0.9786
   74CHL1  H26B 6651   1.476   6.569   5.441  0.5126 -1.6859 -1.7058
   74CHL1  H26C 6652   1.318   6.514   5.516  0.5336 -0.4130  0.0973
   74CHL1   C27 6653   1.325   6.788   5.463  0.1405 -0.0866 -0.0716
   74CHL1  H27A 6654   1.282   6.764   5.562  1.4172 -0.1705  0.4803
   74CHL1  H27B 6655   1.432   6.811   5.484 -0.1685  0.0075  1.4405
   74CHL1  H27C 6656   1.280   6.879   5.417 -0.8656 -0.6186 -0.1641
   75CHL1    C3 6657   1.209   0.050   4.008  0.2631  0.2075 -0.5706
   75CHL1    H3 6658   1.158  -0.048   4.021  1.8422 -0.8055 -1.7019
   75CHL1    O3 6659   1.244   0.054   3.868  0.0479  0.2405  0.0385
   75CHL1   H3' 6660   1.323   0.107   3.852  2.5097 -2.8860  0.8126
   75CHL1    C4 6661   1.122   0.174   4.047  0.4217 -0.0789  0.3097
   75CHL1   H4A 6662   1.190   0.261   4.031 -0.8328  1.3590  2.2705
   75CHL1   H4B 6663   1.044   0.195   3.970 -0.2590 -0.5340  0.8623
   75CHL1    C5 6664   1.083   0.178   4.194  0.1459  0.2915  0.2355
   75CHL1    C6 6665   0.956   0.190   4.237 -0.3934  0.0184  1.2015
   75CHL1    H6 6666   0.880   0.215   4.162  2.0546  5.4168  0.0173
   75CHL1    C7 6667   0.912   0.175   4.379  0.2785  0.3438 -0.5479
   75CHL1   H7A 6668   0.823   0.237   4.403  0.9310  0.9582  0.3330
   75CHL1   H7B 6669   0.884   0.068   4.393  2.6481 -0.1587  1.0635
   75CHL1    C8 6670   1.035   0.193   4.476 -0.2638  0.2829  0.9623
   75CHL1    H8 6671   1.062   0.300   4.470 -1.6673  0.5944 -0.5348
   75CHL1   C14 6672   0.995   0.170   4.620 -0.8021  0.1674 -0.3417
   75CHL1   H14 6673   0.957   0.065   4.619  1.4042 -0.7116 -2.1283
   75CHL1   C15 6674   0.884   0.260   4.673 -0.9185 -0.9330 -0.1402
   75CHL1  H15A 6675   0.871   0.350   4.608  1.7811  1.2787  2.1437
   75CHL1  H15B 6676   0.792   0.198   4.665 -2.4025  0.7936  2.2603
   75CHL1   C16 6677   0.907   0.277   4.817 -0.6141  0.3059 -0.8122
   75CHL1  H16A 6678   0.934   0.381   4.843 -0.5129  0.3414 -1.0586
   75CHL1  H16B 6679   0.820   0.248   4.880  0.1328 -0.6486 -0.1907
   75CHL1   C17 6680   1.031   0.191   4.845  0.0219 -0.2588 -1.2196
   75CHL1   H17 6681   0.990   0.090   4.865 -1.0413 -0.1053 -2.5398
   75CHL1   C13 6682   1.109   0.177   4.715  0.3104  0.0091  0.2928
   75CHL1   C18 6683   1.176   0.321   4.703  0.4068  0.6122 -0.5810
   75CHL1  H18A 6684   1.114   0.406   4.738 -1.7161 -0.6988 -0.9376
   75CHL1  H18B 6685   1.273   0.310   4.757 -0.4451 -2.1313  0.5711
   75CHL1  H18C 6686   1.206   0.348   4.599 -0.3699  0.4366 -0.8595
   75CHL1   C12 6687   1.203   0.060   4.687  0.5020 -0.3830 -0.1433
   75CHL1  H12A 6688   1.287   0.065   4.760  0.9471  0.4450 -0.6895
   75CHL1  H12B 6689   1.153  -0.038   4.703  0.4706 -0.7768 -2.3119
   75CHL1   C11 6690   1.257   0.073   4.546 -0.1738  0.2593 -0.1914
   75CHL1  H11A 6691   1.346   0.140   4.545 -0.8328  1.3805  3.0356
   75CHL1  H11B 6692   1.296  -0.026   4.516  0.5293  0.2035  0.8460
   75CHL1    C9 6693   1.156   0.107   4.435  0.8200 -1.0401  0.0831
   75CHL1    H9 6694   1.107   0.008   4.420 -1.0314 -0.2911  0.9208
   75CHL1   C10 6695   1.203   0.147   4.294  0.2076 -0.2951 -1.1184
   75CHL1   C19 6696   1.307   0.265   4.309  1.1065  0.7451  0.5750
   75CHL1  H19A 6697   1.243   0.349   4.342 -1.3395 -0.7041 -0.2454
   75CHL1  H19B 6698   1.393   0.244   4.377  2.4840  0.9322 -1.0598
   75CHL1  H19C 6699   1.350   0.287   4.209  0.6284  0.2921  0.2641
   75CHL1    C1 6700   1.286   0.031   4.237 -0.8347 -0.2308  0.1413
   75CHL1   H1A 6701   1.376   0.013   4.300 -0.9131 -1.3005 -0.0300
   75CHL1   H1B 6702   1.225  -0.062   4.238 -2.1114  0.5124 -2.0094
   75CHL1    C2 6703   1.337   0.042   4.092  0.7782 -0.2555 -0.3244
   75CHL1   H2A 6704   1.385  -0.056   4.070 -0.1658 -1.2828  1.8892
   75CHL1   H2B 6705   1.406   0.128   4.078  0.9511 -0.0907  1.3370
   75CHL1   C20 6706   1.102   0.237   4.971  0.2236  0.1272  0.3467
   75CHL1   H20 6707   1.149   0.337   4.956 -1.2920  0.5820 -1.9650
   75CHL1   C21 6708   1.210   0.137   5.012 -0.3420  0.2244  0.0712
   75CHL1  H21A 6709   1.173   0.033   5.000 -2.6846  0.9330  0.6762
   75CHL1  H21B 6710   1.240   0.160   5.116  0.6470  2.9560 -0.7186
   75CHL1  H21C 6711   1.295   0.141   4.940 -1.0515  0.1873 -0.7962
   75CHL1   C22 6712   1.004   0.259   5.092  0.1953 -0.0742  0.5602
   75CHL1  H22A 6713   1.078   0.281   5.172 -0.6787  0.1860  1.3218
   75CHL1  H22B 6714   0.941   0.350   5.083  0.6865  0.2477  0.3290
   75CHL1   C23 6715   0.928   0.134   5.137  0.4137 -0.9648 -0.4399
   75CHL1  H23A 6716   0.843   0.116   5.068 -0.6417 -0.0360  0.5669
   75CHL1  H23B 6717   1.001   0.051   5.127  1.8474  0.1216  0.5962
   75CHL1   C24 6718   0.866   0.148   5.277  0.7228 -0.6458 -0.1685
   75CHL1  H24A 6719   0.937   0.205   5.340  1.4244  0.2906 -1.7495
   75CHL1  H24B 6720   0.772   0.206   5.269  1.4446  0.6682  0.4520
   75CHL1   C25 6721   0.824   0.021   5.350  0.3181 -0.1363 -0.0958
   75CHL1   H25 6722   0.770   0.057   5.441  2.7410  1.8432  0.6762
   75CHL1   C26 6723   0.744  -0.074   5.264 -0.1500 -0.7151 -0.0108
   75CHL1  H26A 6724   0.744  -0.174   5.312  1.7708 -1.3910 -1.3061
   75CHL1  H26B 6725   0.641  -0.037   5.243  0.0156 -0.7221 -0.8919
   75CHL1  H26C 6726   0.796  -0.079   5.166 -0.9210  2.8287 -0.7346
   75CHL1   C27 6727   0.949  -0.049   5.399  0.6856  0.2739 -0.6841
   75CHL1  H27A 6728   0.911  -0.131   5.465  1.9474  2.1774  2.6647
   75CHL1  H27B 6729   1.001  -0.092   5.311 -0.6748 -1.0904 -0.8655
   75CHL1  H27C 6730   1.008   0.017   5.466 -0.0361 -0.6271  0.9140
   76CHL1    C3 6731   6.811   0.787   3.939  0.4893  0.3570 -1.2333
   76CHL1    H3 6732   6.811   0.682   3.974  0.3789  0.4238 -1.0330
   76CHL1    O3 6733   6.839   0.783   3.801 -1.1077 -0.1044 -0.1580
   76CHL1   H3' 6734   6.846   0.876   3.778  0.2592 -0.2602 -0.4853
   76CHL1    C4 6735   6.682   0.869   3.952 -0.0431  0.2220 -0.5225
   76CHL1   H4A 6736   6.704   0.977   3.935 -1.1286  0.5564  0.0809
   76CHL1   H4B 6737   6.613   0.824   3.877  0.6878  2.0894 -2.4124
   76CHL1    C5 6738   6.631   0.868   4.097  0.2048 -0.2905 -0.1651
   76CHL1    C6 6739   6.513   0.814   4.134  0.3573  0.1485 -0.2597
   76CHL1    H6 6740   6.464   0.758   4.053 -0.3319 -0.0483  0.2842
   76CHL1    C7 6741   6.460   0.820   4.275 -0.2664  0.8819 -0.1600
   76CHL1   H7A 6742   6.351   0.840   4.274 -0.7406 -1.3721 -2.0830
   76CHL1   H7B 6743   6.461   0.719   4.321  0.7957  0.7343 -0.4774
   76CHL1    C8 6744   6.547   0.910   4.371 -0.5467 -0.1172  0.3210
   76CHL1    H8 6745   6.523   1.018   4.363  1.5653  0.4596  1.0071
   76CHL1   C14 6746   6.511   0.879   4.517 -0.2204 -0.1933 -0.4645
   76CHL1   H14 6747   6.532   0.771   4.524 -0.0884 -0.0608  2.1395
   76CHL1   C15 6748   6.360   0.904   4.566 -0.3536  0.4231  0.6267
   76CHL1  H15A 6749   6.329   0.996   4.512  1.1504  0.3338 -0.4333
   76CHL1  H15B 6750   6.296   0.816   4.542 -0.2472  0.5978 -0.3217
   76CHL1   C16 6751   6.373   0.920   4.720  0.2902  0.4557  0.1729
   76CHL1  H16A 6752   6.365   1.020   4.768  3.0592  0.5110  0.7362
   76CHL1  H16B 6753   6.320   0.842   4.779  1.4947 -0.1686  0.4788
   76CHL1   C17 6754   6.524   0.901   4.752 -0.9059 -0.1383 -0.4908
   76CHL1   H17 6755   6.552   0.793   4.754  0.7727  0.2804  0.3471
   76CHL1   C13 6756   6.599   0.952   4.625 -0.3144  0.7298  0.0154
   76CHL1   C18 6757   6.588   1.110   4.621  0.8007 -0.0094  0.1749
   76CHL1  H18A 6758   6.628   1.159   4.530  0.7808 -0.1818  0.0717
   76CHL1  H18B 6759   6.481   1.141   4.625  0.2952 -1.4606 -0.9206
   76CHL1  H18C 6760   6.650   1.154   4.702 -0.6329  0.2375  1.1760
   76CHL1   C12 6761   6.747   0.900   4.602  0.9279 -0.0691 -0.3359
   76CHL1  H12A 6762   6.819   0.936   4.679  0.1945  2.1542 -0.6174
   76CHL1  H12B 6763   6.743   0.794   4.635  1.2264  0.7209  2.5278
   76CHL1   C11 6764   6.794   0.936   4.454  0.0338  0.7328 -0.3809
   76CHL1  H11A 6765   6.803   1.046   4.446 -0.6463  0.8085 -0.1751
   76CHL1  H11B 6766   6.897   0.896   4.441 -0.7651 -1.4901 -0.3671
   76CHL1    C9 6767   6.698   0.884   4.345  0.9758 -0.4980  0.2189
   76CHL1    H9 6768   6.709   0.773   4.340  2.4781 -0.3647  0.2152
   76CHL1   C10 6769   6.733   0.929   4.198 -0.1862 -0.9132 -0.5132
   76CHL1   C19 6770   6.736   1.085   4.192 -0.0180 -0.0261 -0.1083
   76CHL1  H19A 6771   6.651   1.129   4.248  0.7592  0.9392  0.3612
   76CHL1  H19B 6772   6.827   1.120   4.246  0.4201  1.8753 -1.9100
   76CHL1  H19C 6773   6.748   1.125   4.089 -0.1068  0.7573  0.1733
   76CHL1    C1 6774   6.874   0.878   4.168 -0.5186  0.6526  0.3715
   76CHL1   H1A 6775   6.955   0.924   4.229 -0.5057 -0.4158  1.1884
   76CHL1   H1B 6776   6.876   0.772   4.200  0.2048  0.0322 -1.5579
   76CHL1    C2 6777   6.910   0.873   4.017  0.1529 -0.0904 -0.3567
   76CHL1   H2A 6778   7.014   0.837   4.007 -0.1041 -0.3259 -2.8080
   76CHL1   H2B 6779   6.908   0.979   3.983 -1.7565 -0.1211 -0.4810
   76CHL1   C20 6780   6.556   0.938   4.899 -0.0756 -0.0508  0.0896
   76CHL1   H20 6781   6.551   1.048   4.911 -1.0464 -0.1859  1.0207
   76CHL1   C21 6782   6.705   0.910   4.945  0.2735 -0.5564  0.2672
   76CHL1  H21A 6783   6.776   0.979   4.894  1.1524 -0.4938  1.5291
   76CHL1  H21B 6784   6.730   0.803   4.928 -0.1060 -0.5703 -0.2337
   76CHL1  H21C 6785   6.725   0.935   5.052 -0.8824 -0.2160  0.4107
   76CHL1   C22 6786   6.464   0.866   5.001 -0.3520  0.2769 -0.2861
   76CHL1  H22A 6787   6.358   0.896   4.988 -0.3410 -0.9279 -4.7806
   76CHL1  H22B 6788   6.461   0.756   4.989 -2.4853 -0.1896  3.1433
   76CHL1   C23 6789   6.489   0.894   5.150 -0.0210 -0.0100 -0.0150
   76CHL1  H23A 6790   6.588   0.853   5.178 -0.3110 -0.4444  0.4032
   76CHL1  H23B 6791   6.490   1.004   5.166 -0.5764 -0.0867  0.6326
   76CHL1   C24 6792   6.374   0.829   5.241 -0.3616 -0.6856  0.0183
   76CHL1  H24A 6793   6.278   0.874   5.209  0.1299 -0.6818 -1.5475
   76CHL1  H24B 6794   6.367   0.719   5.225 -2.2919 -0.2790 -2.4763
   76CHL1   C25 6795   6.390   0.863   5.388  0.3376  1.0449  0.9320
   76CHL1   H25 6796   6.408   0.972   5.401  1.6965  0.8681  0.7479
   76CHL1   C26 6797   6.257   0.826   5.462 -0.3438 -0.0849 -0.1070
   76CHL1  H26A 6798   6.249   0.716   5.447  0.4927 -0.1752  0.0619
   76CHL1  H26B 6799   6.274   0.835   5.571 -2.0654  1.5756  0.0873
   76CHL1  H26C 6800   6.174   0.892   5.428  1.5547  1.4424 -2.0609
   76CHL1   C27 6801   6.522   0.799   5.449 -0.1705 -0.0538 -0.5680
   76CHL1  H27A 6802   6.606   0.836   5.386  0.1180  1.0810  0.4434
   76CHL1  H27B 6803   6.532   0.827   5.556 -1.0595 -1.2723 -0.1522
   76CHL1  H27C 6804   6.520   0.688   5.436 -1.2990 -0.1920  0.6123
   77SOPE     N 6805   3.088   0.584   7.647  0.7564  0.1116 -0.6487
   77SOPE   HN1 6806   3.006   0.631   7.602 -1.3174 -2.2609  0.4055
   77SOPE   HN2 6807   3.133   0.653   7.710  0.2711 -0.1105 -0.0490
   77SOPE   HN3 6808   3.151   0.573   7.566  0.5022  1.7585 -1.1060
   77SOPE   C12 6809   3.053   0.464   7.734  0.0570 -0.4098 -0.0975
   77SOPE  H12A 6810   2.990   0.401   7.667 -1.5713  2.0746 -1.0597
   77SOPE  H12B 6811   2.997   0.507   7.819  1.1006  1.1179 -0.1531
   77SOPE   C11 6812   3.180   0.390   7.787 -0.0003  0.2418 -0.8567
   77SOPE  H11A 6813   3.151   0.330   7.876  1.9117 -0.5506 -0.7351
   77SOPE  H11B 6814   3.233   0.470   7.843 -2.3975  0.4983  1.3008
   77SOPE     P 6815   3.405   0.282   7.727 -0.0103 -0.3254  0.1585
   77SOPE   O13 6816   3.429   0.163   7.645  0.1099  0.1985 -0.7955
   77SOPE   O14 6817   3.408   0.260   7.876  0.1326  0.2960  0.3296
   77SOPE   O12 6818   3.265   0.328   7.698  0.4132  0.2313  0.4018
   77SOPE   O11 6819   3.502   0.405   7.686  0.1117 -0.1422 -0.0897
   77SOPE    C1 6820   3.456   0.525   7.624  0.3824  0.6368 -0.4375
   77SOPE    HA 6821   3.514   0.599   7.683  1.0797  0.4132 -0.8382
   77SOPE    HB 6822   3.351   0.540   7.659  0.9767  0.6057  1.4926
   77SOPE    C2 6823   3.475   0.521   7.474  0.1663  0.0509  0.2764
   77SOPE    HS 6824   3.408   0.598   7.430 -0.8991 -0.1205  1.5302
   77SOPE   O21 6825   3.433   0.391   7.416  0.1040 -0.7492 -0.6172
   77SOPE   C21 6826   3.304   0.376   7.402  0.5223 -0.1324  0.7285
   77SOPE   O22 6827   3.218   0.459   7.415 -0.0567  0.2068  0.3997
   77SOPE   C22 6828   3.274   0.239   7.348 -0.1574  0.0322 -0.8659
   77SOPE   H2R 6829   3.225   0.174   7.423  0.4709 -0.2731 -0.7204
   77SOPE   H2S 6830   3.369   0.188   7.322  0.1298  0.1454 -0.0365
   77SOPE    C3 6831   3.622   0.558   7.444 -0.6528 -0.0535  0.4211
   77SOPE    HX 6832   3.689   0.488   7.497  1.2743  1.9436  0.7670
   77SOPE    HY 6833   3.632   0.661   7.484 -1.9557 -0.7382  2.6998
   77SOPE   O31 6834   3.639   0.565   7.296  0.0587  0.2415 -0.2152
   77SOPE   C31 6835   3.662   0.448   7.236 -0.4613 -0.3975  0.1315
   77SOPE   O32 6836   3.709   0.344   7.282 -0.2906 -0.3212  0.1880
   77SOPE   C32 6837   3.609   0.470   7.097  0.5596  0.2393 -0.0152
   77SOPE   H2X 6838   3.637   0.573   7.065  1.5020  0.6487  1.9777
   77SOPE   H2Y 6839   3.498   0.468   7.102  0.4864 -0.3607 -1.3051
   77SOPE   C23 6840   3.171   0.235   7.233  0.0331 -0.7839 -0.2981
   77SOPE   H3R 6841   3.082   0.296   7.258  0.4762 -0.6251  1.0067
   77SOPE   H3S 6842   3.141   0.129   7.221 -0.6379 -0.6803  0.4229
   77SOPE   C24 6843   3.225   0.272   7.097  0.2590 -0.0437  0.0665
   77SOPE   H4R 6844   3.229   0.381   7.073  1.4244 -0.3418 -1.2089
   77SOPE   H4S 6845   3.326   0.227   7.088 -0.3205 -1.1984 -1.0089
   77SOPE   C25 6846   3.141   0.209   6.987  0.7420 -0.0245 -0.5532
   77SOPE   H5R 6847   3.168   0.101   6.994 -1.0376 -0.5509 -1.0722
   77SOPE   H5S 6848   3.032   0.218   7.007  1.0021  0.0796  0.9126
   77SOPE   C26 6849   3.171   0.266   6.850  0.1023  0.4120  0.0536
   77SOPE   H6R 6850   3.131   0.369   6.840  1.2111  0.7233 -1.6432
   77SOPE   H6S 6851   3.282   0.262   6.841  0.3111  0.2477  2.2896
   77SOPE   C27 6852   3.113   0.188   6.727  0.3304  0.1730  0.5024
   77SOPE   H7R 6853   3.143   0.082   6.742 -2.1378 -0.8602 -1.3330
   77SOPE   H7S 6854   3.002   0.184   6.734  0.1799  2.3922  0.1718
   77SOPE   C28 6855   3.158   0.242   6.591 -0.3533 -0.1792  0.3295
   77SOPE   H8R 6856   3.145   0.351   6.610  0.8065  0.0289  0.0059
   77SOPE   H8S 6857   3.263   0.211   6.571 -0.1267 -0.5846  2.0117
   77SOPE   C29 6858   3.075   0.216   6.471  0.4249 -0.3700 -0.2790
   77SOPE   H91 6859   3.041   0.113   6.453 -0.4912 -0.7292  2.9458
   77SOPE  C210 6860   3.036   0.306   6.378  0.0292  0.0291 -1.4838
   77SOPE  H101 6861   2.987   0.277   6.284  0.3843  3.8503 -3.0316
   77SOPE  C211 6862   3.091   0.442   6.373 -0.1178 -0.1665 -0.1140
   77SOPE  H11R 6863   3.201   0.447   6.354 -0.1074 -0.0233 -0.0185
   77SOPE  H11S 6864   3.083   0.490   6.473 -0.9175  0.4642 -0.4697
   77SOPE  C212 6865   3.026   0.533   6.266  0.1042  0.5385 -0.5757
   77SOPE  H12R 6866   3.048   0.493   6.165  2.1617  0.4109 -0.1127
   77SOPE  H12S 6867   3.086   0.627   6.272  0.1742  0.6318 -2.2387
   77SOPE  C213 6868   2.880   0.550   6.295 -0.4288 -0.4313  0.3835
   77SOPE  H13R 6869   2.874   0.610   6.388  1.6249  1.1424 -0.4160
   77SOPE  H13S 6870   2.814   0.460   6.298 -1.3778  0.2735  1.1363
   77SOPE  C214 6871   2.818   0.642   6.182  0.4512  0.0633  0.3016
   77SOPE  H14R 6872   2.855   0.615   6.080 -1.5074  0.2946 -0.5218
   77SOPE  H14S 6873   2.871   0.737   6.205  0.7814 -0.2848  1.0028
   77SOPE  C215 6874   2.669   0.670   6.208  0.4373  0.1877 -0.2115
   77SOPE  H15R 6875   2.656   0.663   6.318 -0.3404 -0.7859 -0.3530
   77SOPE  H15S 6876   2.623   0.574   6.176 -0.2606  1.0124 -1.7621
   77SOPE  C216 6877   2.604   0.779   6.126  0.4658 -0.8801 -0.1322
   77SOPE  H16R 6878   2.641   0.768   6.022  0.4256 -0.5526 -0.1798
   77SOPE  H16S 6879   2.644   0.877   6.160 -0.4913 -0.7960  0.8028
   77SOPE  C217 6880   2.446   0.806   6.122  0.4744 -0.2981 -0.0345
   77SOPE  H17R 6881   2.422   0.828   6.228  1.1366 -0.8839  0.2415
   77SOPE  H17S 6882   2.390   0.712   6.102  1.7765 -1.0951 -0.0106
   77SOPE  C218 6883   2.404   0.912   6.020 -0.4557 -0.6004  0.4652
   77SOPE  H18R 6884   2.434   0.890   5.916  0.5774  1.6745  0.2248
   77SOPE  H18S 6885   2.466   1.002   6.042 -1.6366  0.3360  0.0671
   77SOPE  H18T 6886   2.300   0.944   6.042  0.6613  3.9735  0.2179
   77SOPE   C33 6887   3.651   0.366   6.994 -0.6518 -0.2693 -0.0708
   77SOPE   H3X 6888   3.638   0.258   7.017  1.7170 -0.4305  0.7758
   77SOPE   H3Y 6889   3.762   0.369   6.984 -0.7187 -1.1410 -1.2683
   77SOPE   C34 6890   3.576   0.380   6.861  0.2868 -0.2555  0.0747
   77SOPE   H4X 6891   3.477   0.335   6.882  0.2059 -0.2463 -0.2738
   77SOPE   H4Y 6892   3.619   0.310   6.786  0.9148 -0.8415  0.9681
   77SOPE   C35 6893   3.564   0.518   6.801  0.0684  0.2077 -0.2020
   77SOPE   H5X 6894   3.658   0.578   6.804 -0.1235  0.4862  1.0542
   77SOPE   H5Y 6895   3.490   0.580   6.858 -0.0329  2.3146 -2.4485
   77SOPE   C36 6896   3.516   0.518   6.657 -0.4416 -0.0723 -0.1752
   77SOPE   H6X 6897   3.473   0.620   6.645  0.6717  0.4655  0.2863
   77SOPE   H6Y 6898   3.440   0.439   6.645  0.1583 -0.7194  0.1876
   77SOPE   C37 6899   3.633   0.495   6.569  0.0480 -0.4926  0.0984
   77SOPE   H7X 6900   3.681   0.397   6.591  1.4439  0.1016 -0.2507
   77SOPE   H7Y 6901   3.713   0.569   6.586 -2.0776  2.1244 -0.5343
   77SOPE   C38 6902   3.602   0.513   6.419  0.1374  0.0259  0.8246
   77SOPE   H8X 6903   3.530   0.596   6.404 -1.5178 -0.1293  5.9843
   77SOPE   H8Y 6904   3.552   0.421   6.383  1.9035 -0.8910  0.5848
   77SOPE   C39 6905   3.736   0.532   6.337 -0.8055 -0.1611  0.0710
   77SOPE   H9X 6906   3.797   0.618   6.372 -2.6255  0.1918  2.6614
   77SOPE   H9Y 6907   3.700   0.555   6.234  1.7612  1.6081 -0.5189
   77SOPE  C310 6908   3.816   0.405   6.321  0.0258  0.4503  1.0122
   77SOPE  H10X 6909   3.741   0.324   6.317  0.8864 -0.3093 -0.1179
   77SOPE  H10Y 6910   3.892   0.398   6.402  2.6260  0.7251 -1.2718
   77SOPE  C311 6911   3.893   0.385   6.191  0.2107  0.0978  0.2283
   77SOPE  H11X 6912   3.824   0.376   6.104  0.1879 -1.8009  0.3945
   77SOPE  H11Y 6913   3.940   0.288   6.217  1.4833  1.3364  2.9358
   77SOPE  C312 6914   4.008   0.480   6.155  0.1315  0.0111 -0.3969
   77SOPE  H12X 6915   4.077   0.498   6.240 -0.5872  1.3227 -0.0691
   77SOPE  H12Y 6916   3.963   0.579   6.132 -1.7060 -1.2868 -2.8451
   77SOPE  C313 6917   4.082   0.432   6.028 -0.9146  0.0822  0.0890
   77SOPE  H13X 6918   4.003   0.420   5.951 -1.2436  0.5369  0.3487
   77SOPE  H13Y 6919   4.127   0.332   6.048 -0.8420 -0.3521 -1.9772
   77SOPE  C314 6920   4.188   0.532   5.980  0.1613  0.0007 -1.1040
   77SOPE  H14X 6921   4.262   0.548   6.062 -0.2309  0.3997 -0.8225
   77SOPE  H14Y 6922   4.143   0.631   5.956  0.2063  0.0357 -1.0436
   77SOPE  C315 6923   4.262   0.486   5.848 -0.4160  0.1368 -0.2601
   77SOPE  H15X 6924   4.188   0.470   5.766 -0.0105 -0.0213 -0.5992
   77SOPE  H15Y 6925   4.293   0.380   5.862 -0.1129  0.3526  0.8120
   77SOPE  C316 6926   4.399   0.542   5.805  0.3871 -0.3682  0.6137
   77SOPE  H16X 6927   4.462   0.527   5.894  1.2787  0.1115  0.0749
   77SOPE  H16Y 6928   4.379   0.651   5.791 -0.0557 -0.3557  1.3301
   77SOPE  C317 6929   4.469   0.500   5.683 -0.6282 -0.3822  0.3301
   77SOPE  H17X 6930   4.403   0.496   5.594  1.2309  0.9059 -1.2103
   77SOPE  H17Y 6931   4.510   0.397   5.691  1.2475  0.3504  0.8399
   77SOPE  C318 6932   4.587   0.587   5.635 -0.0215  0.1066 -0.0089
   77SOPE  H18X 6933   4.657   0.604   5.720 -0.4837  0.4079  0.3201
   77SOPE  H18Y 6934   4.554   0.688   5.604 -2.9747 -0.7420  0.0344
   77SOPE  H18Z 6935   4.638   0.550   5.544 -1.7388  0.1514 -1.0200
   78SOPE     N 6936   4.961   5.106   8.105  0.0826 -0.3307  0.1901
   78SOPE   HN1 6937   4.939   5.100   8.206 -1.6018 -3.9941 -0.2229
   78SOPE   HN2 6938   4.875   5.059   8.070  0.6548 -3.2901  2.4140
   78SOPE   HN3 6939   5.044   5.049   8.079  0.1117 -0.2442  0.0940
   78SOPE   C12 6940   4.993   5.237   8.033 -0.3288  0.6013  0.4983
   78SOPE  H12A 6941   5.010   5.204   7.929  2.2997  0.7217  0.8217
   78SOPE  H12B 6942   5.087   5.273   8.079  0.6430 -0.1075 -0.8712
   78SOPE   C11 6943   4.881   5.336   8.055  0.4415  0.4419  0.9975
   78SOPE  H11A 6944   4.878   5.414   7.976 -1.3684 -0.6738 -0.1138
   78SOPE  H11B 6945   4.897   5.376   8.157  0.7587  4.4476 -0.4405
   78SOPE     P 6946   4.609   5.341   8.052  0.0555 -0.1550  0.1458
   78SOPE   O13 6947   4.606   5.447   8.151 -0.0073 -0.5468  0.2670
   78SOPE   O14 6948   4.504   5.239   8.063  0.0540 -0.3719 -0.2277
   78SOPE   O12 6949   4.749   5.268   8.043  0.1064 -0.3856 -0.3901
   78SOPE   O11 6950   4.609   5.416   7.916  0.0796  0.0054 -0.3992
   78SOPE    C1 6951   4.660   5.373   7.797  0.1536  0.8017  0.6734
   78SOPE    HA 6952   4.705   5.271   7.786  0.5270  1.0359 -0.0295
   78SOPE    HB 6953   4.732   5.444   7.751 -2.9438  2.1968 -2.4119
   78SOPE    C2 6954   4.541   5.378   7.686  0.3371  0.4972  0.5749
   78SOPE    HS 6955   4.482   5.284   7.699 -1.5891  1.1202 -2.6053
   78SOPE   O21 6956   4.596   5.383   7.549 -0.1278  0.6490 -0.3193
   78SOPE   C21 6957   4.548   5.290   7.466  0.3630  0.1464  0.1023
   78SOPE   O22 6958   4.491   5.184   7.503  0.4788 -0.0742  0.0235
   78SOPE   C22 6959   4.573   5.335   7.323 -0.1302  0.3632  0.5412
   78SOPE   H2R 6960   4.682   5.359   7.325  0.0240 -0.3211  0.7516
   78SOPE   H2S 6961   4.511   5.425   7.303  1.0522  1.2103  0.5766
   78SOPE    C3 6962   4.460   5.515   7.701 -0.3655  0.0782 -0.0300
   78SOPE    HX 6963   4.527   5.601   7.678  0.7995 -0.8190 -0.1151
   78SOPE    HY 6964   4.435   5.530   7.808  2.6981  0.9784  0.6456
   78SOPE   O31 6965   4.337   5.510   7.621  0.1337 -0.4107  0.0613
   78SOPE   C31 6966   4.238   5.451   7.674 -0.4890 -0.6019  0.4697
   78SOPE   O32 6967   4.230   5.416   7.791  0.4860 -0.4617 -0.2009
   78SOPE   C32 6968   4.128   5.429   7.578 -0.2171 -0.2304 -0.7497
   78SOPE   H2X 6969   4.099   5.528   7.537 -1.5421 -0.5467 -0.6490
   78SOPE   H2Y 6970   4.041   5.389   7.635 -0.3497  0.5381 -0.3960
   78SOPE   C23 6971   4.540   5.216   7.225  0.1929  0.0044 -0.3648
   78SOPE   H3R 6972   4.429   5.209   7.214  0.0859  2.2904 -1.3882
   78SOPE   H3S 6973   4.574   5.119   7.266  0.0433  0.3389  0.5738
   78SOPE   C24 6974   4.597   5.239   7.086  0.2546  0.7333 -0.0085
   78SOPE   H4R 6975   4.564   5.340   7.052  1.6302  1.0097 -0.5817
   78SOPE   H4S 6976   4.707   5.249   7.096  0.3493 -2.1400  3.4917
   78SOPE   C25 6977   4.567   5.136   6.979 -0.3639  0.0961  0.2460
   78SOPE   H5R 6978   4.610   5.041   7.018 -1.6170 -0.1354  1.1318
   78SOPE   H5S 6979   4.459   5.120   6.961 -0.8522  1.2350  1.9236
   78SOPE   C26 6980   4.629   5.167   6.843 -0.4046 -0.5275  0.3790
   78SOPE   H6R 6981   4.602   5.272   6.816 -0.8598 -1.2087 -2.0568
   78SOPE   H6S 6982   4.740   5.160   6.840 -0.2279  1.7230 -1.6371
   78SOPE   C27 6983   4.579   5.081   6.732 -0.6789 -0.6085  0.5194
   78SOPE   H7R 6984   4.625   4.980   6.737 -0.4179 -0.4901  0.5124
   78SOPE   H7S 6985   4.470   5.065   6.750 -1.1202  1.0169 -0.4496
   78SOPE   C28 6986   4.611   5.138   6.594 -0.5621 -0.1908  0.1245
   78SOPE   H8R 6987   4.528   5.112   6.525 -2.5604  1.9007  1.6010
   78SOPE   H8S 6988   4.607   5.249   6.595 -2.6577 -0.2328 -0.4777
   78SOPE   C29 6989   4.748   5.104   6.537 -0.0243  0.4019 -0.5693
   78SOPE   H91 6990   4.826   5.157   6.593 -0.6888  1.0103 -0.2141
   78SOPE  C210 6991   4.781   5.005   6.447  0.0862  0.0258  0.0911
   78SOPE  H101 6992   4.885   4.998   6.412  0.1476  0.9340  0.0643
   78SOPE  C211 6993   4.678   4.924   6.373 -0.0054 -0.2505 -0.3336
   78SOPE  H11R 6994   4.581   4.922   6.427 -0.3233 -3.5013 -0.8266
   78SOPE  H11S 6995   4.709   4.817   6.367 -0.5343 -0.3453 -2.1190
   78SOPE  C212 6996   4.624   4.955   6.229  0.8721  0.3892  0.5512
   78SOPE  H12R 6997   4.632   5.065   6.219  1.0546  0.4844  1.6646
   78SOPE  H12S 6998   4.519   4.920   6.229  0.5022  1.2927  3.1767
   78SOPE  C213 6999   4.718   4.891   6.122  0.4886 -0.3662 -0.0555
   78SOPE  H13R 7000   4.765   4.798   6.160  0.4168 -0.6332 -0.6041
   78SOPE  H13S 7001   4.801   4.963   6.103  0.1701 -0.0954 -0.4475
   78SOPE  C214 7002   4.650   4.869   5.986  0.3022 -0.2174 -0.2516
   78SOPE  H14R 7003   4.628   4.969   5.944  0.8831  0.2085  0.4473
   78SOPE  H14S 7004   4.546   4.836   6.009 -0.5128  2.8582  0.9787
   78SOPE  C215 7005   4.722   4.769   5.891 -0.1060 -0.4707  0.0538
   78SOPE  H15R 7006   4.734   4.668   5.936  1.0622 -0.7328 -0.8015
   78SOPE  H15S 7007   4.826   4.802   5.870 -0.3490 -0.0926 -0.5851
   78SOPE  C216 7008   4.657   4.758   5.752 -0.6639  0.2851 -0.5204
   78SOPE  H16R 7009   4.569   4.691   5.763  0.6845 -1.3971  0.5020
   78SOPE  H16S 7010   4.730   4.700   5.691 -1.3514 -1.7211  0.4825
   78SOPE  C217 7011   4.624   4.884   5.674  0.3659  0.5584 -0.7389
   78SOPE  H17R 7012   4.698   4.963   5.697 -0.4192  1.3207 -0.7445
   78SOPE  H17S 7013   4.523   4.926   5.696 -0.2712 -0.8476 -0.8190
   78SOPE  C218 7014   4.634   4.867   5.523  0.0923  1.0020 -0.1142
   78SOPE  H18R 7015   4.581   4.779   5.482  0.0556  1.0185 -0.1031
   78SOPE  H18S 7016   4.740   4.846   5.501 -0.6622 -3.0620 -0.6237
   78SOPE  H18T 7017   4.602   4.956   5.465 -0.5763  0.0193 -1.2888
   78SOPE   C33 7018   4.154   5.327   7.470 -0.2571  0.0440 -0.4645
   78SOPE   H3X 7019   4.125   5.221   7.486 -0.5306  0.3106  0.9352
   78SOPE   H3Y 7020   4.264   5.313   7.463 -0.0683  1.3604 -0.4190
   78SOPE   C34 7021   4.100   5.371   7.333 -0.0349 -0.1772  0.4501
   78SOPE   H4X 7022   4.113   5.481   7.316  0.1573  0.0576  1.9651
   78SOPE   H4Y 7023   3.993   5.343   7.322 -0.3057  0.3815  1.5120
   78SOPE   C35 7024   4.174   5.302   7.215  0.1483  0.3455  0.2984
   78SOPE   H5X 7025   4.172   5.191   7.225 -0.9435  0.2617 -0.6906
   78SOPE   H5Y 7026   4.278   5.341   7.216 -0.2503  1.5141 -0.9090
   78SOPE   C36 7027   4.112   5.337   7.085  0.2701 -1.0529  0.0399
   78SOPE   H6X 7028   4.091   5.446   7.084 -0.7479 -1.2276  0.8652
   78SOPE   H6Y 7029   4.012   5.292   7.069 -0.3576  0.0073  0.8224
   78SOPE   C37 7030   4.191   5.287   6.965 -0.3887  0.2079 -0.5501
   78SOPE   H7X 7031   4.212   5.178   6.973 -1.4483 -0.0431 -0.9928
   78SOPE   H7Y 7032   4.286   5.344   6.971  0.2974 -0.9077 -0.3409
   78SOPE   C38 7033   4.109   5.295   6.833 -0.2643  0.0845  0.5958
   78SOPE   H8X 7034   4.075   5.398   6.810 -0.3923  0.1556  1.1008
   78SOPE   H8Y 7035   4.018   5.234   6.853  0.4136 -1.1457  0.0588
   78SOPE   C39 7036   4.191   5.260   6.702 -0.5588  0.2602 -0.3848
   78SOPE   H9X 7037   4.239   5.161   6.714 -0.1163  0.7551  2.8498
   78SOPE   H9Y 7038   4.282   5.323   6.694 -1.4242  1.5910 -0.1220
   78SOPE  C310 7039   4.113   5.272   6.570 -0.4879  0.3251 -0.0880
   78SOPE  H10X 7040   4.054   5.366   6.577 -1.0842  0.0454 -1.0913
   78SOPE  H10Y 7041   4.031   5.196   6.571  0.0641 -0.2911  1.5526
   78SOPE  C311 7042   4.205   5.260   6.449  0.2201 -0.1316 -0.0258
   78SOPE  H11X 7043   4.274   5.173   6.464  2.0877  1.2945  0.0082
   78SOPE  H11Y 7044   4.269   5.351   6.451 -0.4458  0.3462 -0.1217
   78SOPE  C312 7045   4.132   5.255   6.316 -0.5303  0.0209  0.1517
   78SOPE  H12X 7046   4.047   5.326   6.311  0.8722  1.7644  0.0443
   78SOPE  H12Y 7047   4.081   5.156   6.317  2.2011 -1.4955 -0.9505
   78SOPE  C313 7048   4.211   5.280   6.190  0.3155 -0.1302  0.4245
   78SOPE  H13X 7049   4.274   5.191   6.167  0.1901  0.0200 -0.5368
   78SOPE  H13Y 7050   4.262   5.378   6.194 -0.7375  0.5215 -1.2298
   78SOPE  C314 7051   4.118   5.290   6.069 -0.6443  0.1894  0.3626
   78SOPE  H14X 7052   4.060   5.384   6.062  1.9758  1.8696 -0.0740
   78SOPE  H14Y 7053   4.058   5.197   6.060 -1.1609  0.7181 -2.4250
   78SOPE  C315 7054   4.210   5.284   5.946  0.4172 -0.1766  0.0142
   78SOPE  H15X 7055   4.290   5.208   5.961  1.4210  0.4818 -1.7231
   78SOPE  H15Y 7056   4.268   5.377   5.928  2.4326 -1.3802  0.0380
   78SOPE  C316 7057   4.121   5.257   5.823  0.4101 -0.5125 -0.4348
   78SOPE  H16X 7058   4.052   5.171   5.836 -1.3508  0.8957 -0.0913
   78SOPE  H16Y 7059   4.182   5.252   5.731 -0.6540  0.0886 -1.2012
   78SOPE  C317 7060   4.026   5.378   5.790  0.3512  0.1216 -0.6381
   78SOPE  H17X 7061   4.090   5.467   5.771  1.1792 -0.4515 -0.5893
   78SOPE  H17Y 7062   3.960   5.405   5.874 -1.8829  0.1549 -2.3192
   78SOPE  C318 7063   3.937   5.347   5.671 -0.6177 -0.3506  0.3484
   78SOPE  H18X 7064   4.000   5.317   5.585 -1.2578  0.3127 -0.3714
   78SOPE  H18Y 7065   3.875   5.435   5.643 -1.1194 -0.7656  0.1440
   78SOPE  H18Z 7066   3.865   5.265   5.690 -0.6638 -0.4202 -0.1053
   79SOPE     N 7067   4.428   4.079   7.622 -0.4672 -0.5440  0.1370
   79SOPE   HN1 7068   4.398   3.981   7.603  0.9176 -0.9691  0.0547
   79SOPE   HN2 7069   4.492   4.084   7.703  1.3515  0.3250 -1.2786
   79SOPE   HN3 7070   4.346   4.136   7.651 -0.0467  0.4894 -0.6487
   79SOPE   C12 7071   4.499   4.146   7.504 -0.0663  0.4026  0.0010
   79SOPE  H12A 7072   4.429   4.126   7.421  0.0648  0.3589 -0.0987
   79SOPE  H12B 7073   4.604   4.108   7.499  0.5774  2.0900 -0.2642
   79SOPE   C11 7074   4.507   4.297   7.532 -0.0555 -0.0886  0.2652
   79SOPE  H11A 7075   4.413   4.343   7.496 -0.3252  0.5760  1.7682
   79SOPE  H11B 7076   4.583   4.343   7.465 -1.3192  0.5426 -0.7749
   79SOPE     P 7077   4.637   4.426   7.721 -0.3807 -0.2280 -0.0049
   79SOPE   O13 7078   4.659   4.388   7.857 -0.1520  0.5356 -0.2683
   79SOPE   O14 7079   4.607   4.567   7.697  0.0311 -0.2298 -0.1668
   79SOPE   O12 7080   4.522   4.326   7.666  0.4731  0.3002 -0.5874
   79SOPE   O11 7081   4.774   4.390   7.633 -0.0557 -0.5429  0.3950
   79SOPE    C1 7082   4.876   4.309   7.690  0.0517 -0.7522  0.6711
   79SOPE    HA 7083   4.836   4.206   7.699  0.6263 -0.9272  1.2743
   79SOPE    HB 7084   4.919   4.349   7.784  0.8627 -0.2155  0.0837
   79SOPE    C2 7085   4.996   4.293   7.597  0.0528  0.3367 -0.0847
   79SOPE    HS 7086   5.050   4.389   7.585  2.5176 -0.9693 -0.1187
   79SOPE   O21 7087   4.946   4.250   7.468 -0.0746  0.6211 -0.0385
   79SOPE   C21 7088   5.014   4.294   7.361  0.7310  0.6107 -0.2314
   79SOPE   O22 7089   5.118   4.364   7.365  0.2985  0.0700 -0.2753
   79SOPE   C22 7090   4.931   4.256   7.241 -0.0132 -0.0539 -0.1687
   79SOPE   H2R 7091   4.826   4.291   7.251 -0.2917 -0.8023 -0.3981
   79SOPE   H2S 7092   4.934   4.146   7.230  1.9781 -0.1418  0.7791
   79SOPE    C3 7093   5.073   4.173   7.667 -0.6920  0.0189  0.7160
   79SOPE    HX 7094   5.004   4.086   7.671 -1.1828  0.3699  0.1232
   79SOPE    HY 7095   5.100   4.197   7.772 -0.1499 -0.1366  0.6179
   79SOPE   O31 7096   5.198   4.137   7.600 -0.2559 -0.1129  0.8252
   79SOPE   C31 7097   5.293   4.233   7.590 -0.6226  0.0490  0.0892
   79SOPE   O32 7098   5.299   4.337   7.656  0.0160  0.0296  0.5850
   79SOPE   C32 7099   5.410   4.185   7.497 -0.2062  0.3375 -0.1486
   79SOPE   H2X 7100   5.424   4.077   7.518 -1.3804  0.2452  0.2399
   79SOPE   H2Y 7101   5.499   4.240   7.534  0.1824  0.2138 -0.8920
   79SOPE   C23 7102   4.978   4.335   7.118 -0.3926  0.1559  0.0856
   79SOPE   H3R 7103   5.084   4.309   7.094  0.4725  2.0308  1.6117
   79SOPE   H3S 7104   4.985   4.445   7.132  0.7534 -0.1860  2.7471
   79SOPE   C24 7105   4.899   4.299   6.990  0.1055  0.3290 -0.1182
   79SOPE   H4R 7106   4.909   4.189   6.979  0.7593  0.4988 -1.3055
   79SOPE   H4S 7107   4.791   4.319   7.009 -0.2685  0.6491 -2.3450
   79SOPE   C25 7108   4.934   4.379   6.865 -0.2517 -0.2452  0.7422
   79SOPE   H5R 7109   4.918   4.488   6.880 -3.2415 -0.5299  0.2481
   79SOPE   H5S 7110   5.041   4.377   6.836 -0.5609  3.2532 -1.2153
   79SOPE   C26 7111   4.853   4.337   6.738 -0.7096  0.1976 -0.1557
   79SOPE   H6R 7112   4.842   4.226   6.742 -0.2919  0.1930  1.1283
   79SOPE   H6S 7113   4.750   4.372   6.761  0.4191  2.3472  2.0150
   79SOPE   C27 7114   4.923   4.375   6.607  0.3411  0.0337  0.0413
   79SOPE   H7R 7115   4.921   4.486   6.602  1.9909  0.1857  1.6978
   79SOPE   H7S 7116   5.029   4.345   6.624  0.6086  1.1589  0.4866
   79SOPE   C28 7117   4.861   4.302   6.489 -0.9840 -0.2184 -0.0243
   79SOPE   H8R 7118   4.945   4.306   6.417 -0.0596  0.6679  1.0604
   79SOPE   H8S 7119   4.832   4.196   6.508 -1.1764  0.0527  1.3504
   79SOPE   C29 7120   4.739   4.370   6.442 -0.0267 -0.2489  0.3815
   79SOPE   H91 7121   4.673   4.411   6.520 -0.3842  0.5702 -0.3478
   79SOPE  C210 7122   4.710   4.382   6.313 -0.9130  0.1948  0.2420
   79SOPE  H101 7123   4.615   4.432   6.291 -0.7173  1.0244  1.1793
   79SOPE  C211 7124   4.789   4.329   6.199 -0.0033  0.5448  0.8526
   79SOPE  H11R 7125   4.896   4.356   6.210  0.2482 -0.3220  0.6178
   79SOPE  H11S 7126   4.764   4.375   6.101  1.8410  2.0344  1.0273
   79SOPE  C212 7127   4.778   4.180   6.179  0.3403  0.4199  0.0081
   79SOPE  H12R 7128   4.671   4.148   6.175  0.4186  0.1416  0.1719
   79SOPE  H12S 7129   4.832   4.131   6.262  2.8077 -1.9899 -2.8032
   79SOPE  C213 7130   4.849   4.138   6.052 -0.4687 -0.3556 -0.0941
   79SOPE  H13R 7131   4.948   4.189   6.058 -1.2697  1.1645  0.8762
   79SOPE  H13S 7132   4.790   4.181   5.969 -0.7167  0.9628  0.7333
   79SOPE  C214 7133   4.852   3.986   6.038 -0.1148 -0.3055  0.8850
   79SOPE  H14R 7134   4.749   3.944   6.035  0.4353 -1.6953 -1.4879
   79SOPE  H14S 7135   4.901   3.942   6.127 -0.2457 -0.5700  0.8281
   79SOPE  C215 7136   4.926   3.949   5.910 -0.2457  0.3815  0.4421
   79SOPE  H15R 7137   5.033   3.928   5.931 -0.2917 -3.0080 -1.8047
   79SOPE  H15S 7138   4.913   4.040   5.848  0.1747  0.3834  0.3544
   79SOPE  C216 7139   4.857   3.830   5.835  0.8295 -0.7388  0.5112
   79SOPE  H16R 7140   4.761   3.856   5.786  1.1852 -1.3942 -0.5549
   79SOPE  H16S 7141   4.836   3.754   5.914  0.9594  0.1519  1.4345
   79SOPE  C217 7142   4.950   3.772   5.731  0.0935  0.6245 -0.3398
   79SOPE  H17R 7143   4.903   3.687   5.678  2.9560 -2.0794  1.1317
   79SOPE  H17S 7144   5.043   3.735   5.779  0.4804 -0.3255 -1.7718
   79SOPE  C218 7145   4.992   3.880   5.630 -0.5520  0.5678 -0.1949
   79SOPE  H18R 7146   4.907   3.947   5.606  1.2823  2.5430 -1.5317
   79SOPE  H18S 7147   5.043   3.831   5.545 -2.1461 -0.2003 -0.7284
   79SOPE  H18T 7148   5.065   3.950   5.678  0.8459  0.7695 -2.4956
   79SOPE   C33 7149   5.384   4.209   7.352  0.0086 -0.9567  0.0168
   79SOPE   H3X 7150   5.398   4.315   7.321  0.0904 -2.0515 -4.1809
   79SOPE   H3Y 7151   5.283   4.170   7.329 -0.5368 -0.6348  1.6641
   79SOPE   C34 7152   5.481   4.128   7.264  0.5918  0.9565 -0.2770
   79SOPE   H4X 7153   5.466   4.023   7.296 -0.4427  0.6920 -1.5642
   79SOPE   H4Y 7154   5.587   4.160   7.280  0.6932  0.4852  0.0130
   79SOPE   C35 7155   5.441   4.118   7.121 -0.0006  0.1941 -0.8209
   79SOPE   H5X 7156   5.443   4.217   7.071 -1.6316  0.2261 -0.8742
   79SOPE   H5Y 7157   5.335   4.087   7.110 -0.0083  0.0446 -0.3563
   79SOPE   C36 7158   5.516   4.017   7.029 -0.0850  0.1227 -0.1029
   79SOPE   H6X 7159   5.464   4.040   6.934 -0.1242  2.9821  0.5201
   79SOPE   H6Y 7160   5.493   3.911   7.054 -0.6376  0.4671  0.9401
   79SOPE   C37 7161   5.664   4.039   7.024 -0.6924 -0.2668 -0.3572
   79SOPE   H7X 7162   5.714   3.985   7.107 -2.6314  0.3285  1.2974
   79SOPE   H7Y 7163   5.682   4.149   7.030 -0.5476 -0.1259 -2.6984
   79SOPE   C38 7164   5.724   3.992   6.889 -0.0707 -0.3336 -0.2374
   79SOPE   H8X 7165   5.719   3.881   6.890 -3.1424 -0.2753 -0.2140
   79SOPE   H8Y 7166   5.831   4.020   6.894 -0.6752  2.2891 -0.4423
   79SOPE   C39 7167   5.671   4.057   6.761  0.2861 -0.2393 -0.6940
   79SOPE   H9X 7168   5.684   4.167   6.763  2.4966 -0.4556 -0.3086
   79SOPE   H9Y 7169   5.567   4.023   6.745  0.5916 -1.3170 -0.5384
   79SOPE  C310 7170   5.747   3.998   6.641 -0.6898  0.1038  0.4012
   79SOPE  H10X 7171   5.729   3.890   6.622  1.4624  0.0770 -2.1193
   79SOPE  H10Y 7172   5.854   4.007   6.669 -0.0743 -0.8397 -1.5044
   79SOPE  C311 7173   5.732   4.087   6.514  0.0516 -0.5338 -0.0260
   79SOPE  H11X 7174   5.750   4.190   6.550 -0.6677 -0.4549  0.1099
   79SOPE  H11Y 7175   5.627   4.079   6.479  0.3327 -1.8029 -0.6578
   79SOPE  C312 7176   5.843   4.059   6.411 -0.4477  0.5634 -0.7525
   79SOPE  H12X 7177   5.827   3.953   6.380  0.4345  0.4951 -0.9969
   79SOPE  H12Y 7178   5.948   4.072   6.448 -0.7518  2.9992 -0.5805
   79SOPE  C313 7179   5.824   4.130   6.284 -0.3718 -0.2978  0.4303
   79SOPE  H13X 7180   5.895   4.216   6.283  1.2479 -1.4762 -3.5176
   79SOPE  H13Y 7181   5.717   4.154   6.266 -0.9052 -1.4499  1.8759
   79SOPE  C314 7182   5.873   4.058   6.155 -0.3723  0.0554  0.0421
   79SOPE  H14X 7183   5.794   3.994   6.111  1.2685 -0.6040 -2.0899
   79SOPE  H14Y 7184   5.958   3.993   6.181 -0.9989  0.3815  3.3049
   79SOPE  C315 7185   5.916   4.161   6.040  0.4132  0.1422 -0.9331
   79SOPE  H15X 7186   5.986   4.239   6.078 -0.1908 -0.8532  2.4783
   79SOPE  H15Y 7187   5.824   4.215   6.009  0.4015  0.7245  0.0762
   79SOPE  C316 7188   5.983   4.085   5.920 -0.0630  0.0575 -0.6571
   79SOPE  H16X 7189   5.909   4.024   5.866 -0.4900  0.1468 -0.1847
   79SOPE  H16Y 7190   6.075   4.032   5.953 -0.1075  1.0989  1.3001
   79SOPE  C317 7191   6.037   4.192   5.828  0.0315  0.3705 -0.7489
   79SOPE  H17X 7192   6.101   4.257   5.891 -0.4630 -0.5959  0.8106
   79SOPE  H17Y 7193   5.950   4.245   5.783 -0.8818 -1.5374 -1.3291
   79SOPE  C318 7194   6.128   4.135   5.719  0.4112 -0.0274 -0.0891
   79SOPE  H18X 7195   6.168   4.205   5.642  0.7192 -1.6411 -1.4705
   79SOPE  H18Y 7196   6.081   4.053   5.661  2.2454  1.0856 -3.4311
   79SOPE  H18Z 7197   6.205   4.075   5.773 -0.6806 -0.3112  1.1883
   80SOPE     N 7198   2.959   5.923   8.034 -0.6731 -0.4519  0.4192
   80SOPE   HN1 7199   2.968   5.839   7.974  1.2297  1.2875 -1.9117
   80SOPE   HN2 7200   3.021   5.905   8.115  0.3263  1.7843  0.2450
   80SOPE   HN3 7201   2.858   5.929   8.059 -1.2541  1.5459 -1.9434
   80SOPE   C12 7202   3.010   6.044   7.966  0.1954 -0.1576  0.0401
   80SOPE  H12A 7203   3.021   6.132   8.034 -1.8803 -0.5655  0.9856
   80SOPE  H12B 7204   2.941   6.079   7.886  0.4853  0.5073  0.0736
   80SOPE   C11 7205   3.151   6.004   7.916  0.3091 -0.2556 -0.2261
   80SOPE  H11A 7206   3.213   5.966   8.000 -0.2140 -2.7392 -0.8890
   80SOPE  H11B 7207   3.183   6.098   7.866 -2.6858  0.2691 -1.3754
   80SOPE     P 7208   3.220   5.878   7.700 -0.3587  0.0990 -0.5207
   80SOPE   O13 7209   3.164   5.771   7.616 -0.3478  0.2817 -0.3143
   80SOPE   O14 7210   3.354   5.858   7.757  0.2105  0.1048  0.1037
   80SOPE   O12 7211   3.130   5.897   7.824  0.6591 -0.3360 -0.4268
   80SOPE   O11 7212   3.225   6.021   7.627  0.0582  0.0575  0.3306
   80SOPE    C1 7213   3.104   6.087   7.592  0.1468 -0.4463 -0.2584
   80SOPE    HA 7214   3.083   6.164   7.670  1.2905 -2.7568  2.4852
   80SOPE    HB 7215   3.012   6.026   7.586 -0.9455  0.6703  3.0417
   80SOPE    C2 7216   3.124   6.161   7.455 -0.6530 -0.7251  0.1317
   80SOPE    HS 7217   3.187   6.249   7.480  0.0009 -1.4499  1.1285
   80SOPE   O21 7218   2.991   6.189   7.394 -0.2028 -0.2478 -0.1359
   80SOPE   C21 7219   2.941   6.303   7.423  0.0417  0.2424 -0.8234
   80SOPE   O22 7220   2.981   6.384   7.505  0.2115 -0.6394  0.6535
   80SOPE   C22 7221   2.812   6.318   7.348 -0.3086  0.8351 -0.8237
   80SOPE   H2R 7222   2.729   6.314   7.422  0.4254 -0.2119 -0.0246
   80SOPE   H2S 7223   2.791   6.241   7.271 -0.1714 -0.8286  0.7311
   80SOPE    C3 7224   3.204   6.071   7.352  0.2284 -0.6528  0.2698
   80SOPE    HX 7225   3.158   5.970   7.348 -0.7688 -0.1805 -0.6796
   80SOPE    HY 7226   3.310   6.048   7.379  1.2512  1.5717 -1.4807
   80SOPE   O31 7227   3.191   6.127   7.217 -0.0638 -0.1082 -0.7181
   80SOPE   C31 7228   3.267   6.226   7.200  0.5180  0.3872 -0.0575
   80SOPE   O32 7229   3.337   6.282   7.280 -0.6812  0.5342 -0.2619
   80SOPE   C32 7230   3.244   6.281   7.063 -0.6732 -0.4407  0.0406
   80SOPE   H2X 7231   3.189   6.377   7.075 -0.3273 -0.4472  1.8772
   80SOPE   H2Y 7232   3.172   6.216   7.009 -1.7811  0.7532  0.0566
   80SOPE   C23 7233   2.800   6.456   7.269 -0.2612  0.0414 -0.6756
   80SOPE   H3R 7234   2.816   6.538   7.342  1.3109 -1.0526  0.3017
   80SOPE   H3S 7235   2.707   6.467   7.210 -0.2823  0.8844 -0.4851
   80SOPE   C24 7236   2.907   6.467   7.158  0.4443  0.3796  0.0604
   80SOPE   H4R 7237   3.007   6.472   7.206  1.2685 -1.1100 -1.4035
   80SOPE   H4S 7238   2.914   6.370   7.105 -0.9067 -0.1635  0.8450
   80SOPE   C25 7239   2.866   6.590   7.072 -0.7735  0.7975  0.0006
   80SOPE   H5R 7240   2.766   6.576   7.025 -0.7943  1.6159 -0.2101
   80SOPE   H5S 7241   2.863   6.687   7.126  1.5933  0.0218  1.7030
   80SOPE   C26 7242   2.963   6.624   6.953  0.2542 -0.4778  1.0986
   80SOPE   H6R 7243   2.937   6.723   6.910  1.5528 -0.5011  0.1771
   80SOPE   H6S 7244   3.069   6.644   6.981  0.7622 -0.1691 -0.8853
   80SOPE   C27 7245   2.968   6.523   6.834  0.3724 -0.1322  0.1457
   80SOPE   H7R 7246   3.005   6.424   6.868  2.5398  0.3581 -0.6580
   80SOPE   H7S 7247   2.867   6.500   6.793 -1.0216  2.7474  1.6522
   80SOPE   C28 7248   3.067   6.568   6.729 -0.1858  0.1707  0.5194
   80SOPE   H8R 7249   3.166   6.584   6.777 -0.3072 -0.5321  1.0135
   80SOPE   H8S 7250   3.082   6.481   6.661  0.5949  1.0460 -0.4666
   80SOPE   C29 7251   3.023   6.680   6.646  0.1892 -0.4729  0.3325
   80SOPE   H91 7252   2.969   6.759   6.699 -2.1808 -0.8502 -1.3480
   80SOPE  C210 7253   3.018   6.678   6.511  0.4507  0.2554 -0.2649
   80SOPE  H101 7254   2.968   6.760   6.457 -0.3189  0.6186  0.9615
   80SOPE  C211 7255   3.073   6.567   6.424  0.4716  0.3071  0.5020
   80SOPE  H11R 7256   2.981   6.511   6.396 -0.4745  2.6029 -1.3212
   80SOPE  H11S 7257   3.162   6.515   6.466 -1.3817 -2.0006  1.7843
   80SOPE  C212 7258   3.119   6.609   6.279  0.0634 -0.6358  0.0627
   80SOPE  H12R 7259   3.035   6.660   6.227 -0.5153  2.1425  3.3267
   80SOPE  H12S 7260   3.157   6.515   6.234  1.0814  0.7559 -2.1607
   80SOPE  C213 7261   3.238   6.709   6.278 -0.3582 -0.0455 -0.2342
   80SOPE  H13R 7262   3.320   6.651   6.325  0.4455  0.0125 -1.5173
   80SOPE  H13S 7263   3.209   6.793   6.344 -1.7102 -0.0369 -0.8130
   80SOPE  C214 7264   3.279   6.755   6.137  0.0804  0.1417  0.0473
   80SOPE  H14R 7265   3.189   6.769   6.074 -0.2031  0.2288  0.4653
   80SOPE  H14S 7266   3.333   6.673   6.085 -2.5739 -1.7271  0.0627
   80SOPE  C215 7267   3.362   6.885   6.133 -0.1954  0.4171  0.1110
   80SOPE  H15R 7268   3.466   6.859   6.159 -0.5035  0.7757  1.8098
   80SOPE  H15S 7269   3.322   6.953   6.212  2.1143 -1.0665  2.7284
   80SOPE  C216 7270   3.348   6.951   5.999 -0.3478  0.2800  0.0036
   80SOPE  H16R 7271   3.242   6.966   5.967  0.1019 -0.4135 -1.9683
   80SOPE  H16S 7272   3.375   6.880   5.918 -3.6742 -0.0820 -0.9285
   80SOPE  C217 7273   3.431   7.081   5.979 -0.0745  0.6297 -0.0228
   80SOPE  H17R 7274   3.432   7.094   5.868  1.3982 -1.7017 -0.3588
   80SOPE  H17S 7275   3.540   7.067   5.992  0.1094  1.4398 -0.5766
   80SOPE  C218 7276   3.389   7.202   6.057  0.7090 -0.8958  0.0282
   80SOPE  H18R 7277   3.390   7.164   6.162 -0.6877 -1.6795 -0.2285
   80SOPE  H18S 7278   3.280   7.217   6.043  0.4535 -1.0608  1.5763
   80SOPE  H18T 7279   3.460   7.286   6.039 -0.1138 -0.0570  0.6046
   80SOPE   C33 7280   3.379   6.278   6.977  0.4167 -0.1331 -0.4985
   80SOPE   H3X 7281   3.434   6.184   6.999  3.8247  1.8975  0.3042
   80SOPE   H3Y 7282   3.431   6.364   7.023 -1.3041  0.7493 -0.0984
   80SOPE   C34 7283   3.343   6.288   6.831 -0.4254  0.3955  0.3039
   80SOPE   H4X 7284   3.291   6.386   6.821  0.7488  1.1264  1.0631
   80SOPE   H4Y 7285   3.278   6.203   6.804 -0.3099  0.3365  0.2113
   80SOPE   C35 7286   3.470   6.298   6.741  0.6671  0.2830  0.6252
   80SOPE   H5X 7287   3.540   6.214   6.760  0.4694  0.2411  1.1784
   80SOPE   H5Y 7288   3.531   6.387   6.767  1.6619 -0.6056  1.4180
   80SOPE   C36 7289   3.430   6.296   6.590 -0.2204  0.8069 -0.1381
   80SOPE   H6X 7290   3.369   6.383   6.557 -0.5938 -0.1398 -2.1245
   80SOPE   H6Y 7291   3.367   6.205   6.575  1.0279 -0.3530  1.2836
   80SOPE   C37 7292   3.549   6.290   6.491 -0.1624  0.2234 -0.4256
   80SOPE   H7X 7293   3.600   6.191   6.494 -0.5711 -0.0055  2.9796
   80SOPE   H7Y 7294   3.620   6.371   6.519  0.5687 -0.1854 -1.0627
   80SOPE   C38 7295   3.509   6.326   6.347 -0.7286 -0.5098 -0.2898
   80SOPE   H8X 7296   3.600   6.314   6.285 -1.3509 -1.6760 -1.0226
   80SOPE   H8Y 7297   3.471   6.430   6.341  0.4968 -0.1072 -2.0993
   80SOPE   C39 7298   3.414   6.227   6.284  0.1224 -0.4454 -0.4869
   80SOPE   H9X 7299   3.311   6.239   6.324  0.9892  0.7548  1.5648
   80SOPE   H9Y 7300   3.454   6.125   6.301  2.6826  0.4827 -0.5980
   80SOPE  C310 7301   3.400   6.239   6.130 -0.1323  0.3762  0.4937
   80SOPE  H10X 7302   3.501   6.234   6.082 -0.4164 -1.7727  0.0401
   80SOPE  H10Y 7303   3.350   6.333   6.100 -0.6781 -0.4233 -1.2546
   80SOPE  C311 7304   3.308   6.130   6.077 -0.1034 -0.3324 -0.4871
   80SOPE  H11X 7305   3.209   6.147   6.124 -0.4760  0.0134 -1.3720
   80SOPE  H11Y 7306   3.348   6.033   6.115  0.3211  0.7627  2.0120
   80SOPE  C312 7307   3.302   6.124   5.927 -0.5148  0.5503  0.2214
   80SOPE  H12X 7308   3.390   6.068   5.889 -1.2882 -0.6709  0.1810
   80SOPE  H12Y 7309   3.318   6.228   5.891 -0.7115 -0.2092 -2.2369
   80SOPE  C313 7310   3.181   6.065   5.867 -0.0414 -0.3778  0.7998
   80SOPE  H13X 7311   3.193   6.065   5.757 -0.1902 -1.7773  0.7576
   80SOPE  H13Y 7312   3.089   6.121   5.895 -0.6272  0.0779 -1.7765
   80SOPE  C314 7313   3.160   5.915   5.903 -0.2901 -0.2075  0.6239
   80SOPE  H14X 7314   3.150   5.902   6.013 -0.4475  2.0207  0.9189
   80SOPE  H14Y 7315   3.249   5.854   5.876 -1.6292 -2.0118  0.0879
   80SOPE  C315 7316   3.040   5.847   5.841 -0.0938 -0.7947  0.0771
   80SOPE  H15X 7317   3.067   5.856   5.734  4.1204  2.7442  1.1517
   80SOPE  H15Y 7318   2.946   5.907   5.843 -0.0866 -0.7940  1.5036
   80SOPE  C316 7319   3.028   5.705   5.872 -0.3283  0.2527 -0.0610
   80SOPE  H16X 7320   2.994   5.696   5.977 -1.9176  0.5201 -0.5247
   80SOPE  H16Y 7321   3.120   5.646   5.858 -0.5780  0.3595 -2.6043
   80SOPE  C317 7322   2.926   5.618   5.787  0.8160 -0.0081 -0.7403
   80SOPE  H17X 7323   2.963   5.517   5.759  0.7922 -0.1847 -0.1409
   80SOPE  H17Y 7324   2.900   5.680   5.698  0.5954  0.5380 -0.2999
   80SOPE  C318 7325   2.790   5.612   5.860  0.5432 -0.0914 -0.1304
   80SOPE  H18X 7326   2.707   5.608   5.787  0.3225 -0.4857  0.1417
   80SOPE  H18Y 7327   2.772   5.709   5.912 -2.0180 -0.7573  0.3800
   80SOPE  H18Z 7328   2.781   5.525   5.928  2.1862  1.5308  2.3474
   81SOPE     N 7329   0.528   0.961   8.198 -1.0003 -0.3135 -0.0144
   81SOPE   HN1 7330   0.586   1.038   8.238 -0.8655 -0.3240 -0.1890
   81SOPE   HN2 7331   0.481   0.897   8.265 -0.8382 -2.2805 -1.6966
   81SOPE   HN3 7332   0.593   0.896   8.149 -2.0368 -1.3325 -0.0913
   81SOPE   C12 7333   0.430   1.020   8.107  0.3258  0.7882  0.1032
   81SOPE  H12A 7334   0.483   1.049   8.014 -1.0666 -1.9978 -1.7344
   81SOPE  H12B 7335   0.388   1.111   8.154 -0.5325  0.8346 -0.6977
   81SOPE   C11 7336   0.324   0.913   8.060  0.1682 -0.0776 -0.7497
   81SOPE  H11A 7337   0.264   0.877   8.146  1.0601 -0.7186 -0.3735
   81SOPE  H11B 7338   0.374   0.820   8.023 -0.3231 -0.6031 -0.1184
   81SOPE     P 7339   0.254   0.975   7.810  0.0582  0.1375 -0.2235
   81SOPE   O13 7340   0.179   1.090   7.765  0.6769  0.0106 -0.0931
   81SOPE   O14 7341   0.234   0.842   7.742 -0.4710  1.0320 -0.0318
   81SOPE   O12 7342   0.239   0.972   7.964 -0.0998 -0.5397 -0.2149
   81SOPE   O11 7343   0.409   1.013   7.781 -0.0716  0.4336  0.0261
   81SOPE    C1 7344   0.453   1.133   7.715 -0.2388 -0.3980  0.8881
   81SOPE    HA 7345   0.558   1.161   7.737  0.2028  0.1248 -1.5345
   81SOPE    HB 7346   0.382   1.213   7.744  1.2489  1.1950  0.3364
   81SOPE    C2 7347   0.462   1.122   7.562  0.8670 -0.0510  0.5914
   81SOPE    HS 7348   0.363   1.094   7.519  0.4274  0.3022  1.3446
   81SOPE   O21 7349   0.563   1.022   7.533  0.5536 -0.1581  0.4398
   81SOPE   C21 7350   0.523   0.920   7.461 -0.4388 -0.3067  0.2622
   81SOPE   O22 7351   0.410   0.905   7.423 -0.3673  0.3681  0.2634
   81SOPE   C22 7352   0.650   0.834   7.424  0.2986 -0.4816 -0.4457
   81SOPE   H2R 7353   0.686   0.792   7.520  0.7585  0.8503 -0.0233
   81SOPE   H2S 7354   0.724   0.906   7.383 -0.4526 -1.2221 -3.3503
   81SOPE    C3 7355   0.489   1.263   7.499  0.9420  0.0326 -0.3051
   81SOPE    HX 7356   0.591   1.295   7.531  1.1639 -0.7360 -0.2000
   81SOPE    HY 7357   0.411   1.338   7.524  0.3212 -0.6238 -0.2239
   81SOPE   O31 7358   0.484   1.250   7.359 -0.0120  0.1780 -0.0234
   81SOPE   C31 7359   0.365   1.241   7.306  0.3737  0.0758  0.5999
   81SOPE   O32 7360   0.255   1.267   7.356 -0.1767  0.2890  0.2925
   81SOPE   C32 7361   0.377   1.203   7.160  0.6161 -0.2212 -0.1258
   81SOPE   H2X 7362   0.480   1.175   7.130  0.7576  0.6834 -0.4903
   81SOPE   H2Y 7363   0.340   1.286   7.097  1.3301 -0.8551 -1.4099
   81SOPE   C23 7364   0.632   0.717   7.327 -0.0096 -0.2949 -0.0241
   81SOPE   H3R 7365   0.569   0.639   7.374 -1.4529  1.0078  0.2888
   81SOPE   H3S 7366   0.733   0.671   7.325  1.0956  1.9565  0.5013
   81SOPE   C24 7367   0.587   0.743   7.183  0.3354 -0.7528  0.5248
   81SOPE   H4R 7368   0.612   0.652   7.124  0.0706  0.2779 -1.2337
   81SOPE   H4S 7369   0.479   0.766   7.175  0.2447 -0.8017  1.5193
   81SOPE   C25 7370   0.671   0.853   7.120  0.1714 -0.4488  0.7127
   81SOPE   H5R 7371   0.660   0.943   7.184 -0.6210 -0.6697  0.9013
   81SOPE   H5S 7372   0.776   0.820   7.132  1.2432  1.7131 -1.6233
   81SOPE   C26 7373   0.639   0.866   6.971  0.0510 -1.1292 -0.9124
   81SOPE   H6R 7374   0.685   0.782   6.915 -0.5953 -1.5907 -0.7600
   81SOPE   H6S 7375   0.530   0.873   6.951 -0.0931  0.1103  0.1664
   81SOPE   C27 7376   0.702   0.987   6.908 -1.5569 -0.5464 -0.4214
   81SOPE   H7R 7377   0.679   1.080   6.964 -0.8564 -0.7042  0.1466
   81SOPE   H7S 7378   0.811   0.969   6.918 -1.3785  0.2873 -0.8229
   81SOPE   C28 7379   0.673   1.006   6.762 -0.1211 -0.2689 -0.5380
   81SOPE   H8R 7380   0.693   0.912   6.705 -2.2715  0.2759 -2.3398
   81SOPE   H8S 7381   0.566   1.037   6.759  0.2765  1.2595 -0.0037
   81SOPE   C29 7382   0.762   1.128   6.722  0.2446  0.2254 -0.4213
   81SOPE   H91 7383   0.756   1.221   6.781 -0.5406 -0.7431  1.1280
   81SOPE  C210 7384   0.832   1.126   6.611 -0.8874  0.1611  0.3020
   81SOPE  H101 7385   0.902   1.209   6.594 -0.9896  0.0675 -0.6123
   81SOPE  C211 7386   0.858   1.015   6.505  0.1195  0.1965  0.1894
   81SOPE  H11R 7387   0.843   1.057   6.404 -1.5111  0.1689  0.3901
   81SOPE  H11S 7388   0.773   0.944   6.509 -2.0043  2.5551  0.0771
   81SOPE  C212 7389   0.986   0.939   6.516 -0.4003  0.1691 -0.7240
   81SOPE  H12R 7390   0.981   0.867   6.601  0.1188  2.5516  1.4502
   81SOPE  H12S 7391   1.071   1.007   6.536  0.5416 -1.7750  2.8503
   81SOPE  C213 7392   1.027   0.846   6.400  0.8231 -0.2941  0.2138
   81SOPE  H13R 7393   1.040   0.910   6.309 -2.3072  1.3796  0.8007
   81SOPE  H13S 7394   0.945   0.777   6.372  1.6491 -0.6607 -1.4395
   81SOPE  C214 7395   1.149   0.757   6.421 -0.0787 -0.4037 -0.1626
   81SOPE  H14R 7396   1.126   0.689   6.506 -2.3637 -0.6876 -0.9565
   81SOPE  H14S 7397   1.238   0.823   6.425 -2.7196  3.7611 -2.9276
   81SOPE  C215 7398   1.176   0.667   6.299  0.1465  0.2355  0.4438
   81SOPE  H15R 7399   1.099   0.588   6.299 -0.9401  1.2651  1.0245
   81SOPE  H15S 7400   1.268   0.612   6.331  0.2570  0.1958  0.0727
   81SOPE  C216 7401   1.193   0.735   6.162  0.5776  0.3859 -0.4291
   81SOPE  H16R 7402   1.288   0.792   6.156  0.5441  0.5044  0.0955
   81SOPE  H16S 7403   1.108   0.806   6.147  1.7570  1.8960 -0.2475
   81SOPE  C217 7404   1.196   0.639   6.043  0.7345  0.2281  0.2048
   81SOPE  H17R 7405   1.267   0.553   6.046  2.3068  1.2813 -2.6229
   81SOPE  H17S 7406   1.224   0.692   5.950  0.4346 -1.4589 -0.8983
   81SOPE  C218 7407   1.055   0.575   6.015  0.1922  0.8555 -0.2242
   81SOPE  H18R 7408   1.027   0.502   6.094  2.3236  0.4532  0.1984
   81SOPE  H18S 7409   1.061   0.512   5.923  3.6903 -1.7441  1.5784
   81SOPE  H18T 7410   0.975   0.652   6.020  0.4193  1.0860 -0.1258
   81SOPE   C33 7411   0.283   1.085   7.135  0.1020 -0.1139  0.8000
   81SOPE   H3X 7412   0.182   1.086   7.182 -0.8308  0.7170 -1.1128
   81SOPE   H3Y 7413   0.327   0.987   7.162  0.0422 -0.2857  0.2887
   81SOPE   C34 7414   0.240   1.080   6.981 -0.0139 -0.0912  0.2604
   81SOPE   H4X 7415   0.252   0.978   6.938  2.1138  0.0539  0.4061
   81SOPE   H4Y 7416   0.320   1.144   6.938  0.9329 -1.3810  0.0223
   81SOPE   C35 7417   0.106   1.133   6.944  0.3925  0.3253  0.6951
   81SOPE   H5X 7418   0.079   1.230   6.990 -0.3917 -0.5453  2.1662
   81SOPE   H5Y 7419   0.028   1.058   6.972  0.6112 -0.7043 -1.2935
   81SOPE   C36 7420   0.101   1.159   6.794  0.4372 -0.8846  0.0438
   81SOPE   H6X 7421   0.147   1.072   6.743  1.7157 -0.0380 -0.2986
   81SOPE   H6Y 7422   0.152   1.254   6.765 -2.1697  0.0077 -2.0498
   81SOPE   C37 7423  -0.043   1.182   6.732 -0.5422  0.8843 -0.2453
   81SOPE   H7X 7424  -0.077   1.280   6.770  0.4005  1.0188  0.2794
   81SOPE   H7Y 7425  -0.108   1.107   6.781  0.3486 -0.3370 -0.8682
   81SOPE   C38 7426  -0.042   1.161   6.580 -0.1468 -0.2153  0.7370
   81SOPE   H8X 7427  -0.145   1.163   6.537 -0.6628 -4.7885  1.2710
   81SOPE   H8Y 7428   0.000   1.059   6.570  0.3307  0.1534 -1.9249
   81SOPE   C39 7429   0.062   1.243   6.495 -0.4330 -0.4370  0.3100
   81SOPE   H9X 7430   0.157   1.231   6.551 -0.2235 -1.0372 -0.1598
   81SOPE   H9Y 7431   0.037   1.350   6.510  1.5892  0.0098  0.8301
   81SOPE  C310 7432   0.074   1.208   6.341  0.0876  0.1215 -0.7273
   81SOPE  H10X 7433  -0.024   1.221   6.292  1.1347  2.4052 -2.4257
   81SOPE  H10Y 7434   0.100   1.101   6.330 -0.9242 -0.1649 -0.4250
   81SOPE  C311 7435   0.184   1.295   6.285 -0.0916  0.2994 -0.5799
   81SOPE  H11X 7436   0.276   1.275   6.344  1.9741 -1.9980 -4.1512
   81SOPE  H11Y 7437   0.160   1.401   6.306  2.1541  0.6246  0.5951
   81SOPE  C312 7438   0.218   1.263   6.136  0.4503  0.0120 -0.2272
   81SOPE  H12X 7439   0.137   1.272   6.061  0.6464 -1.1699 -0.5950
   81SOPE  H12Y 7440   0.241   1.155   6.136  3.1066  0.4859  0.7251
   81SOPE  C313 7441   0.341   1.342   6.086  0.2665 -0.4495 -0.9849
   81SOPE  H13X 7442   0.413   1.351   6.170 -1.7494 -0.2300  0.7873
   81SOPE  H13Y 7443   0.296   1.438   6.054 -0.2122 -0.6256 -0.8392
   81SOPE  C314 7444   0.411   1.263   5.976  0.1723 -0.8794 -0.4140
   81SOPE  H14X 7445   0.331   1.206   5.924 -2.2048 -0.2883  2.3859
   81SOPE  H14Y 7446   0.478   1.191   6.026 -1.2729 -2.7686 -1.0901
   81SOPE  C315 7447   0.491   1.347   5.874 -0.9653 -0.1080  0.5742
   81SOPE  H15X 7448   0.432   1.404   5.798 -0.4663 -0.1441  0.1546
   81SOPE  H15Y 7449   0.534   1.273   5.802  1.2997 -0.0803  1.8010
   81SOPE  C316 7450   0.610   1.420   5.944  0.0291  0.6662 -0.0251
   81SOPE  H16X 7451   0.643   1.362   6.033  1.1333  0.7378 -0.3792
   81SOPE  H16Y 7452   0.571   1.521   5.969 -3.0073 -0.7269  1.4229
   81SOPE  C317 7453   0.741   1.424   5.861  0.3468  0.6299 -0.0440
   81SOPE  H17X 7454   0.775   1.318   5.859  0.3329  0.6120  0.6024
   81SOPE  H17Y 7455   0.819   1.487   5.908  0.6781 -0.6204  1.1306
   81SOPE  C318 7456   0.728   1.453   5.712  0.0902 -0.1066  0.4635
   81SOPE  H18X 7457   0.830   1.446   5.669 -0.2541 -0.6482 -0.3019
   81SOPE  H18Y 7458   0.689   1.556   5.701  0.3889 -0.0343  0.0519
   81SOPE  H18Z 7459   0.661   1.377   5.666 -0.2574  1.0929 -1.0885
   82SOPE     N 7460   2.935   3.442   8.211  0.4283  0.3079 -0.2159
   82SOPE   HN1 7461   3.005   3.501   8.162  0.3764  1.0252  0.5436
   82SOPE   HN2 7462   2.858   3.445   8.141  0.0951  1.6035  0.1879
   82SOPE   HN3 7463   2.917   3.480   8.306 -1.2962  2.9999 -1.5121
   82SOPE   C12 7464   2.989   3.310   8.233  0.1831  0.4303  0.6994
   82SOPE  H12A 7465   2.909   3.245   8.274 -0.2608 -0.4443 -1.3943
   82SOPE  H12B 7466   3.084   3.324   8.290  0.3729 -0.5899  0.6573
   82SOPE   C11 7467   3.040   3.238   8.100 -0.5917  0.4920  0.3280
   82SOPE  H11A 7468   3.065   3.131   8.114 -0.0184  0.8322  2.1433
   82SOPE  H11B 7469   3.138   3.282   8.071 -1.1703  1.6277  0.0580
   82SOPE     P 7470   2.988   3.183   7.851 -0.2030  0.1707 -0.0397
   82SOPE   O13 7471   2.935   3.044   7.853  0.3317 -0.0839 -0.3101
   82SOPE   O14 7472   3.137   3.185   7.838 -0.7857 -0.6971 -0.0795
   82SOPE   O12 7473   2.940   3.254   7.989 -0.6696 -0.1982  0.2832
   82SOPE   O11 7474   2.924   3.259   7.730 -0.9064 -0.3923  0.1029
   82SOPE    C1 7475   2.788   3.242   7.697 -0.2954  0.3524  0.6984
   82SOPE    HA 7476   2.735   3.337   7.723 -2.1554  0.0140 -1.5392
   82SOPE    HB 7477   2.736   3.161   7.753 -2.0444  0.9625  0.0231
   82SOPE    C2 7478   2.762   3.219   7.548 -0.1421  0.2786 -0.6789
   82SOPE    HS 7479   2.758   3.109   7.529  0.3070 -0.4287  2.7253
   82SOPE   O21 7480   2.856   3.286   7.464 -0.2197  0.0298 -0.1286
   82SOPE   C21 7481   2.971   3.226   7.449  0.1365  0.4811 -0.3558
   82SOPE   O22 7482   3.002   3.116   7.489  0.2558 -0.5018 -0.3108
   82SOPE   C22 7483   3.063   3.322   7.376 -0.5640  0.0706  0.2680
   82SOPE   H2R 7484   3.155   3.324   7.438 -0.1687 -2.4448 -0.1325
   82SOPE   H2S 7485   3.010   3.420   7.382 -1.8550 -0.5601 -0.3148
   82SOPE    C3 7486   2.620   3.254   7.504 -0.0313  0.4165  1.3922
   82SOPE    HX 7487   2.610   3.363   7.524  0.2790  0.4979  1.1103
   82SOPE    HY 7488   2.531   3.208   7.552 -1.0978  1.0643  0.1074
   82SOPE   O31 7489   2.606   3.240   7.359  0.1971 -0.1714  0.3813
   82SOPE   C31 7490   2.572   3.121   7.311 -0.0572  0.0547  0.0017
   82SOPE   O32 7491   2.539   3.024   7.377 -0.5661 -0.0142 -0.1832
   82SOPE   C32 7492   2.553   3.129   7.155 -0.7958  0.6729  0.7762
   82SOPE   H2X 7493   2.613   3.211   7.110 -1.8951  1.5220  0.8228
   82SOPE   H2Y 7494   2.446   3.146   7.130 -0.3912  0.0315 -1.5731
   82SOPE   C23 7495   3.102   3.270   7.234  0.5664 -0.4729 -0.5074
   82SOPE   H3R 7496   3.150   3.170   7.239  0.9913 -0.2302  0.4929
   82SOPE   H3S 7497   3.182   3.331   7.188  0.6521 -0.9131 -0.9383
   82SOPE   C24 7498   2.988   3.275   7.132 -0.0691 -0.3395  0.2492
   82SOPE   H4R 7499   2.896   3.242   7.184  0.1891  0.5362  1.2950
   82SOPE   H4S 7500   2.984   3.380   7.097  0.3482 -0.4469 -0.1320
   82SOPE   C25 7501   3.018   3.176   7.023 -0.2126  0.5328  0.8231
   82SOPE   H5R 7502   3.129   3.172   7.015  0.0919  2.1353  3.1948
   82SOPE   H5S 7503   2.982   3.074   7.048 -2.6547  0.9038 -0.8366
   82SOPE   C26 7504   2.955   3.194   6.886 -0.0630 -0.3440  0.0629
   82SOPE   H6R 7505   2.977   3.108   6.819 -0.8979 -0.8277  0.3971
   82SOPE   H6S 7506   2.846   3.212   6.892  0.3252  2.0733  0.5787
   82SOPE   C27 7507   3.033   3.309   6.808  0.5368  0.2599  0.3099
   82SOPE   H7R 7508   2.976   3.403   6.827  0.1704 -0.5908  4.0296
   82SOPE   H7S 7509   3.131   3.325   6.857  0.5090 -0.6157  0.6605
   82SOPE   C28 7510   3.050   3.285   6.657 -0.0784 -0.9004  0.5012
   82SOPE   H8R 7511   2.947   3.294   6.614  0.2055 -1.4123 -0.2992
   82SOPE   H8S 7512   3.102   3.379   6.626 -1.4542 -0.3086 -0.1140
   82SOPE   C29 7513   3.139   3.164   6.629  0.4531  0.0321  0.0442
   82SOPE   H91 7514   3.156   3.098   6.716 -1.3464  0.5764  0.8568
   82SOPE  C210 7515   3.190   3.134   6.510 -0.0503  0.1725  0.0355
   82SOPE  H101 7516   3.236   3.034   6.497 -0.0669  0.1208  0.3840
   82SOPE  C211 7517   3.167   3.202   6.377  0.1989  0.2054 -0.1607
   82SOPE  H11R 7518   3.115   3.298   6.397 -0.1879 -0.0199 -0.0743
   82SOPE  H11S 7519   3.096   3.149   6.309  0.2890  0.0100 -0.1037
   82SOPE  C212 7520   3.300   3.232   6.308 -0.2638  0.0581  0.3451
   82SOPE  H12R 7521   3.373   3.148   6.311  0.5322  0.6955 -0.4763
   82SOPE  H12S 7522   3.349   3.313   6.367 -1.1944 -0.6713  2.1746
   82SOPE  C213 7523   3.296   3.274   6.157 -0.1106  0.2341  0.7661
   82SOPE  H13R 7524   3.392   3.321   6.127 -1.1534  1.5739 -0.6693
   82SOPE  H13S 7525   3.214   3.346   6.134 -0.7579 -1.4131 -2.6469
   82SOPE  C214 7526   3.277   3.162   6.053  0.3583  0.0097 -0.4089
   82SOPE  H14R 7527   3.189   3.099   6.080 -0.6128  1.2401 -0.6292
   82SOPE  H14S 7528   3.372   3.105   6.057  1.7692  2.2986  1.6085
   82SOPE  C215 7529   3.252   3.224   5.921  0.5926  1.0571  0.0821
   82SOPE  H15R 7530   3.347   3.281   5.912  1.8873 -1.1077 -0.9521
   82SOPE  H15S 7531   3.166   3.295   5.919 -0.0340  0.3195  0.2055
   82SOPE  C216 7532   3.248   3.126   5.799 -0.2492  0.5218 -0.1064
   82SOPE  H16R 7533   3.155   3.065   5.804  0.9803 -1.4534 -0.0636
   82SOPE  H16S 7534   3.340   3.065   5.792  0.1860  1.3183 -1.7894
   82SOPE  C217 7535   3.227   3.200   5.666 -0.5164  0.3853 -0.1050
   82SOPE  H17R 7536   3.316   3.261   5.642 -1.0676  1.8186  1.3091
   82SOPE  H17S 7537   3.153   3.280   5.689 -0.5814  0.3546 -0.2026
   82SOPE  C218 7538   3.194   3.118   5.546  0.4309 -1.0343  0.2058
   82SOPE  H18R 7539   3.280   3.067   5.496  0.6430  0.2008 -0.7298
   82SOPE  H18S 7540   3.148   3.177   5.464 -0.7221 -0.5442  1.1802
   82SOPE  H18T 7541   3.121   3.040   5.575  0.6761 -0.6728  1.8994
   82SOPE   C33 7542   2.612   3.000   7.095 -0.9291 -0.3841  0.4322
   82SOPE   H3X 7543   2.560   2.909   7.133  0.8887 -1.2299  1.0221
   82SOPE   H3Y 7544   2.717   2.995   7.129 -0.9039  0.1348  0.4342
   82SOPE   C34 7545   2.603   2.998   6.942  0.2735  0.3270 -0.0201
   82SOPE   H4X 7546   2.602   3.101   6.899 -1.6517 -0.1750 -1.2987
   82SOPE   H4Y 7547   2.501   2.954   6.930 -0.0244  0.5792  1.3744
   82SOPE   C35 7548   2.708   2.900   6.891  0.6881  0.0815  0.0751
   82SOPE   H5X 7549   2.693   2.797   6.929  3.5945 -1.1650 -1.8141
   82SOPE   H5Y 7550   2.808   2.935   6.923  0.5977  1.8491 -1.3908
   82SOPE   C36 7551   2.710   2.877   6.742  0.3145 -0.2014  0.1520
   82SOPE   H6X 7552   2.607   2.863   6.704  0.1764  1.6342 -0.2504
   82SOPE   H6Y 7553   2.760   2.778   6.732  0.4918 -0.2266  1.1907
   82SOPE   C37 7554   2.792   2.987   6.673 -0.0304  0.7354  0.3453
   82SOPE   H7X 7555   2.897   2.976   6.708  0.3729 -0.2597 -1.0686
   82SOPE   H7Y 7556   2.755   3.090   6.691  1.2624  1.1978  0.4374
   82SOPE   C38 7557   2.825   2.971   6.521 -0.0932  0.8290  0.8667
   82SOPE   H8X 7558   2.885   3.058   6.487 -1.4721  2.0778  1.5055
   82SOPE   H8Y 7559   2.726   2.968   6.470  1.3241 -0.1233 -2.0557
   82SOPE   C39 7560   2.879   2.839   6.480 -0.5895  0.2428  0.5783
   82SOPE   H9X 7561   2.888   2.755   6.551  0.2312  0.4909  0.7788
   82SOPE   H9Y 7562   2.984   2.868   6.461 -0.6331  0.5581  0.8036
   82SOPE  C310 7563   2.824   2.798   6.342 -0.3509  0.3487  0.0487
   82SOPE  H10X 7564   2.824   2.887   6.275 -1.8277  1.6540  1.6625
   82SOPE  H10Y 7565   2.720   2.761   6.352  0.7433 -2.7748  1.0701
   82SOPE  C311 7566   2.903   2.694   6.273 -0.1270 -0.0504 -0.0151
   82SOPE  H11X 7567   3.007   2.724   6.248 -0.1342  1.4320  1.5460
   82SOPE  H11Y 7568   2.858   2.672   6.174  1.0380  0.3040 -0.6372
   82SOPE  C312 7569   2.915   2.563   6.341  0.0921  0.2278 -0.9370
   82SOPE  H12X 7570   2.815   2.530   6.378  1.1627  0.0489  2.0932
   82SOPE  H12Y 7571   2.979   2.578   6.431  0.8783  0.5134 -1.5340
   82SOPE  C313 7572   2.974   2.454   6.255 -0.5084  0.1204 -0.0534
   82SOPE  H13X 7573   3.036   2.387   6.318  0.8534  0.8001 -0.6351
   82SOPE  H13Y 7574   3.053   2.484   6.183  0.4402 -0.8965  0.5238
   82SOPE  C314 7575   2.874   2.356   6.185  0.3194 -0.7640  0.2815
   82SOPE  H14X 7576   2.927   2.279   6.125 -3.7177 -2.2067 -1.7598
   82SOPE  H14Y 7577   2.798   2.408   6.124 -0.0806 -0.3653  1.1021
   82SOPE  C315 7578   2.802   2.280   6.297  0.6137  0.1099 -0.3441
   82SOPE  H15X 7579   2.755   2.336   6.380  0.9350 -2.6529  1.8457
   82SOPE  H15Y 7580   2.884   2.230   6.352 -0.6215  0.3820  1.8462
   82SOPE  C316 7581   2.700   2.190   6.237  0.5975  0.5742 -0.1773
   82SOPE  H16X 7582   2.723   2.135   6.143  0.2535  3.0524 -1.7939
   82SOPE  H16Y 7583   2.620   2.259   6.204  1.2467  1.0096 -0.8790
   82SOPE  C317 7584   2.653   2.102   6.347  0.6766  0.0467  0.4597
   82SOPE  H17X 7585   2.629   2.164   6.437 -1.9631  1.0789 -0.8502
   82SOPE  H17Y 7586   2.722   2.027   6.390  0.8039  0.5032  1.0606
   82SOPE  C318 7587   2.522   2.030   6.303 -0.0792  0.3101  0.2433
   82SOPE  H18X 7588   2.440   2.106   6.302 -1.7710 -1.4364 -1.0997
   82SOPE  H18Y 7589   2.478   1.957   6.374 -0.1950  0.8568  0.7450
   82SOPE  H18Z 7590   2.534   1.978   6.206 -0.5141 -2.7081  1.7007
   83SOPE     N 7591   5.966   0.909   2.978  0.0610 -0.7359  0.4389
   83SOPE   HN1 7592   5.972   0.806   2.961 -1.3112 -0.5694 -1.4354
   83SOPE   HN2 7593   5.889   0.948   2.920  0.3691 -1.9487 -0.8387
   83SOPE   HN3 7594   6.054   0.957   2.951 -0.0869  1.1730  2.9802
   83SOPE   C12 7595   5.950   0.950   3.123 -0.1094  0.1113  0.5433
   83SOPE  H12A 7596   5.843   0.939   3.153 -0.5769  2.6446  0.0254
   83SOPE  H12B 7597   5.971   1.058   3.131  0.0896  0.0243  1.2484
   83SOPE   C11 7598   6.033   0.863   3.212 -0.0083 -0.0139 -0.1674
   83SOPE  H11A 7599   5.984   0.764   3.204 -0.4608  0.0727  1.1857
   83SOPE  H11B 7600   6.028   0.894   3.319 -2.5524  1.8901 -0.7574
   83SOPE     P 7601   6.295   0.868   3.251 -0.0833  0.0815 -0.0256
   83SOPE   O13 7602   6.294   0.993   3.329  0.2187 -0.0507  0.2279
   83SOPE   O14 7603   6.414   0.850   3.162  0.1451  0.6868  0.0376
   83SOPE   O12 7604   6.166   0.853   3.158 -0.2841 -0.2814 -0.2160
   83SOPE   O11 7605   6.286   0.742   3.355  0.3850  0.1841 -0.1145
   83SOPE    C1 7606   6.257   0.614   3.302 -0.1189 -0.1734  0.6799
   83SOPE    HA 7607   6.336   0.582   3.232 -0.4689 -1.4780  0.8522
   83SOPE    HB 7608   6.166   0.600   3.240  2.6554  0.0675 -3.9374
   83SOPE    C2 7609   6.265   0.511   3.420  0.8011 -0.8098 -0.0660
   83SOPE    HS 7610   6.221   0.418   3.378  1.8953 -1.4148  0.0851
   83SOPE   O21 7611   6.191   0.561   3.538  0.0192 -0.0920 -0.0611
   83SOPE   C21 7612   6.060   0.596   3.519  0.3812 -0.2104  0.0602
   83SOPE   O22 7613   5.997   0.576   3.415 -0.3055  0.2461 -0.2259
   83SOPE   C22 7614   5.999   0.650   3.650 -0.9865  0.5436 -0.6295
   83SOPE   H2R 7615   5.940   0.738   3.615 -1.1293  0.3958 -0.7613
   83SOPE   H2S 7616   6.078   0.674   3.725 -0.5164  0.4526 -1.0952
   83SOPE    C3 7617   6.405   0.463   3.461 -0.3844  0.1083 -0.0750
   83SOPE    HX 7618   6.466   0.550   3.493  0.0227 -0.6624  1.3519
   83SOPE    HY 7619   6.453   0.436   3.364  0.2994 -1.0433  0.5537
   83SOPE   O31 7620   6.414   0.354   3.556  0.0334  0.1890 -0.1552
   83SOPE   C31 7621   6.454   0.396   3.682 -0.4270 -0.2121 -0.4146
   83SOPE   O32 7622   6.499   0.505   3.711  0.5938  0.7568 -0.4687
   83SOPE   C32 7623   6.440   0.285   3.788  0.2257 -1.3910  0.1550
   83SOPE   H2X 7624   6.488   0.193   3.749  0.9033 -2.4358  3.1659
   83SOPE   H2Y 7625   6.333   0.267   3.810  0.4979 -2.3970  0.7166
   83SOPE   C23 7626   5.894   0.550   3.717  0.7464  0.6087 -0.5399
   83SOPE   H3R 7627   5.809   0.537   3.646  0.3090  0.6618 -0.0307
   83SOPE   H3S 7628   5.852   0.589   3.811 -1.9891 -2.7543 -0.1391
   83SOPE   C24 7629   5.939   0.410   3.753  0.3118  0.6564 -0.1718
   83SOPE   H4R 7630   5.848   0.368   3.802 -0.7837  0.0404 -2.5874
   83SOPE   H4S 7631   5.963   0.344   3.667 -2.3328 -0.6226 -0.0178
   83SOPE   C25 7632   6.054   0.413   3.853 -0.5367  0.6185 -0.2979
   83SOPE   H5R 7633   6.149   0.440   3.803  0.5723 -0.4668  1.1364
   83SOPE   H5S 7634   6.038   0.493   3.930 -0.2509  0.5227 -0.1362
   83SOPE   C26 7635   6.068   0.277   3.931 -0.1508 -0.0635 -0.4259
   83SOPE   H6R 7636   6.040   0.191   3.866  0.7982  0.3327 -1.3833
   83SOPE   H6S 7637   6.167   0.258   3.978 -0.4513 -1.8053 -0.4242
   83SOPE   C27 7638   5.961   0.282   4.040  0.2685  0.0982 -0.5212
   83SOPE   H7R 7639   5.958   0.372   4.104  0.1086  0.3519 -0.8794
   83SOPE   H7S 7640   5.868   0.279   3.979 -1.6223 -1.2076  2.2024
   83SOPE   C28 7641   5.941   0.147   4.113 -0.3343 -0.0024 -0.3213
   83SOPE   H8R 7642   5.952   0.066   4.037  0.7875  0.3102 -0.5019
   83SOPE   H8S 7643   6.024   0.123   4.183 -1.5414 -2.0788  0.5165
   83SOPE   C29 7644   5.813   0.128   4.192 -0.2844  0.1631  0.0131
   83SOPE   H91 7645   5.740   0.059   4.148 -1.7610  0.2492  2.1648
   83SOPE  C210 7646   5.788   0.189   4.310  0.2038  0.3079 -0.2424
   83SOPE  H101 7647   5.689   0.174   4.356 -0.2284 -0.1619 -1.2848
   83SOPE  C211 7648   5.870   0.294   4.376  0.5108  0.0819  0.2171
   83SOPE  H11R 7649   5.862   0.393   4.326  1.4262  0.7816  1.3818
   83SOPE  H11S 7650   5.976   0.265   4.359  0.7040  1.4688 -1.2481
   83SOPE  C212 7651   5.843   0.306   4.525  0.6763  0.2193  0.9828
   83SOPE  H12R 7652   5.931   0.371   4.547  1.0803 -0.4572  1.4047
   83SOPE  H12S 7653   5.850   0.204   4.569 -1.0719 -0.8307 -0.9933
   83SOPE  C213 7654   5.707   0.365   4.560  0.7817 -0.2213  0.7415
   83SOPE  H13R 7655   5.619   0.323   4.505  1.0496 -0.4548  0.4840
   83SOPE  H13S 7656   5.701   0.468   4.521  0.1415 -1.4361 -2.7611
   83SOPE  C214 7657   5.682   0.375   4.709 -0.1007 -0.1221 -0.1498
   83SOPE  H14R 7658   5.671   0.274   4.752  0.7240  0.7528  2.2757
   83SOPE  H14S 7659   5.588   0.433   4.721 -0.4261 -1.0138  2.1834
   83SOPE  C215 7660   5.789   0.454   4.785  0.0201 -0.3178  0.3013
   83SOPE  H15R 7661   5.805   0.544   4.721 -1.2979  0.7031  1.3520
   83SOPE  H15S 7662   5.883   0.394   4.792 -0.1582 -0.7296 -0.6589
   83SOPE  C216 7663   5.745   0.499   4.924 -0.4186  0.3188  0.1935
   83SOPE  H16R 7664   5.676   0.585   4.914  0.5823  0.8702 -2.9588
   83SOPE  H16S 7665   5.839   0.535   4.973 -0.9340 -0.9684  2.2537
   83SOPE  C217 7666   5.675   0.387   5.008 -0.1892 -0.0659  0.5618
   83SOPE  H17R 7667   5.584   0.353   4.955  0.6809 -0.7185 -0.5608
   83SOPE  H17S 7668   5.649   0.423   5.110  1.3353  1.5136  0.4358
   83SOPE  C218 7669   5.760   0.267   5.039  0.1694  0.1580  0.0886
   83SOPE  H18R 7670   5.800   0.225   4.944  2.6554  0.6340  0.8408
   83SOPE  H18S 7671   5.702   0.179   5.075 -0.0632  0.7791  1.2734
   83SOPE  H18T 7672   5.841   0.285   5.113  0.9137  0.0260 -0.6721
   83SOPE   C33 7673   6.525   0.314   3.921  0.5114 -0.7072 -0.3130
   83SOPE   H3X 7674   6.629   0.344   3.896  0.8573 -0.6575  1.1149
   83SOPE   H3Y 7675   6.538   0.215   3.968 -1.3472 -0.8819 -0.0786
   83SOPE   C34 7676   6.441   0.405   4.014 -0.1239  0.0571  0.3164
   83SOPE   H4X 7677   6.342   0.357   4.023 -0.3689  0.6656  0.9264
   83SOPE   H4Y 7678   6.423   0.502   3.963 -1.4949 -1.9713 -3.5303
   83SOPE   C35 7679   6.497   0.415   4.159  0.6082  0.3771  0.7546
   83SOPE   H5X 7680   6.463   0.518   4.184  0.9378  0.4854  0.7565
   83SOPE   H5Y 7681   6.606   0.395   4.157  0.5580  0.1561 -0.0954
   83SOPE   C36 7682   6.422   0.315   4.255  0.8012 -0.1870  0.4916
   83SOPE   H6X 7683   6.450   0.211   4.227 -0.1832  0.3567 -3.1365
   83SOPE   H6Y 7684   6.313   0.320   4.235  0.8193  1.0451  0.6198
   83SOPE   C37 7685   6.453   0.336   4.402  0.3865  0.3417 -0.2131
   83SOPE   H7X 7686   6.443   0.440   4.439  2.3278  0.6725 -0.5103
   83SOPE   H7Y 7687   6.557   0.310   4.431 -0.1767  1.7514  3.6095
   83SOPE   C38 7688   6.372   0.242   4.491 -0.1518 -0.5251 -0.1172
   83SOPE   H8X 7689   6.396   0.141   4.452  1.5408  0.8900 -3.1335
   83SOPE   H8Y 7690   6.261   0.241   4.485 -0.4923  2.3163  2.9003
   83SOPE   C39 7691   6.424   0.260   4.639  0.5084  0.2652 -0.5726
   83SOPE   H9X 7692   6.447   0.367   4.656 -0.0332  0.2584  0.2236
   83SOPE   H9Y 7693   6.520   0.204   4.644 -0.1285 -0.9265 -1.1657
   83SOPE  C310 7694   6.325   0.206   4.745 -0.0119  0.1312 -0.2021
   83SOPE  H10X 7695   6.324   0.096   4.735 -0.9675 -0.1395  2.2083
   83SOPE  H10Y 7696   6.223   0.247   4.729 -0.5933  0.8000  4.1277
   83SOPE  C311 7697   6.361   0.244   4.889 -0.2034 -0.4856 -0.5127
   83SOPE  H11X 7698   6.398   0.349   4.884 -0.8185 -0.2844 -1.0392
   83SOPE  H11Y 7699   6.451   0.186   4.919  0.3151  0.0917 -0.9160
   83SOPE  C312 7700   6.244   0.236   4.990  0.6369  0.0182  0.2296
   83SOPE  H12X 7701   6.207   0.131   4.995  0.4589  0.0412 -0.4531
   83SOPE  H12Y 7702   6.159   0.298   4.956  0.2126 -1.2564 -1.1218
   83SOPE  C313 7703   6.279   0.280   5.132  0.0847 -0.4444  0.5122
   83SOPE  H13X 7704   6.325   0.381   5.128 -0.6551 -0.1363 -1.7191
   83SOPE  H13Y 7705   6.359   0.210   5.164  1.3155  0.8957  0.4973
   83SOPE  C314 7706   6.160   0.282   5.209 -0.3473  0.6827 -0.5266
   83SOPE  H14X 7707   6.093   0.199   5.178  1.0588 -2.1417  3.2389
   83SOPE  H14Y 7708   6.094   0.371   5.202 -1.3404 -0.1449 -2.7763
   83SOPE  C315 7709   6.187   0.249   5.358  0.0558 -0.1705 -0.4527
   83SOPE  H15X 7710   6.253   0.160   5.369  0.8690  0.4675 -0.0026
   83SOPE  H15Y 7711   6.084   0.227   5.391 -0.7944  0.6222 -2.4148
   83SOPE  C316 7712   6.239   0.373   5.440  0.0210 -0.4124 -0.2605
   83SOPE  H16X 7713   6.176   0.463   5.421 -0.6962 -0.4837  1.6299
   83SOPE  H16Y 7714   6.347   0.377   5.416 -0.0253 -2.4985 -0.9798
   83SOPE  C317 7715   6.237   0.361   5.591  0.3422 -0.0996 -0.2690
   83SOPE  H17X 7716   6.285   0.452   5.632  0.2420  0.4261 -1.2753
   83SOPE  H17Y 7717   6.289   0.265   5.613  0.1023 -0.1824 -0.0631
   83SOPE  C318 7718   6.095   0.348   5.655  0.6473  0.8158  0.0478
   83SOPE  H18X 7719   6.037   0.436   5.619 -0.3584 -0.0297 -0.4657
   83SOPE  H18Y 7720   6.113   0.359   5.764  2.3183  0.0648 -0.1215
   83SOPE  H18Z 7721   6.049   0.249   5.636 -0.4749  1.4329 -0.5830
   84SOPE     N 7722   0.250   4.767   3.637  0.5131 -0.0606 -0.4481
   84SOPE   HN1 7723   0.305   4.697   3.583  0.9485 -1.5559  1.7756
   84SOPE   HN2 7724   0.212   4.723   3.724  1.6322  0.3715  0.2759
   84SOPE   HN3 7725   0.170   4.798   3.577  1.2252 -0.2693 -1.5347
   84SOPE   C12 7726   0.341   4.884   3.669 -0.2630  0.9245 -0.3539
   84SOPE  H12A 7727   0.275   4.966   3.701 -1.8515 -0.3354 -0.2823
   84SOPE  H12B 7728   0.393   4.919   3.577 -1.1124 -2.0195 -2.0863
   84SOPE   C11 7729   0.424   4.832   3.781 -0.0102  0.5623 -0.7021
   84SOPE  H11A 7730   0.367   4.774   3.856  0.5456  2.4706  1.3195
   84SOPE  H11B 7731   0.463   4.920   3.837  1.5239  1.5389 -3.1037
   84SOPE     P 7732   0.660   4.801   3.678 -0.1799  0.4004 -0.0214
   84SOPE   O13 7733   0.627   4.852   3.544 -0.1537 -0.1126 -0.4296
   84SOPE   O14 7734   0.769   4.702   3.687 -0.4221  0.4694  0.6234
   84SOPE   O12 7735   0.533   4.750   3.745 -0.5736  0.0149 -0.2337
   84SOPE   O11 7736   0.700   4.929   3.763  0.2148 -0.4217 -0.2496
   84SOPE    C1 7737   0.777   4.911   3.885 -0.3295 -0.7273  0.8075
   84SOPE    HA 7738   0.875   4.964   3.878 -0.8471  0.5359  2.4908
   84SOPE    HB 7739   0.804   4.804   3.899 -1.2018 -1.2841 -1.3528
   84SOPE    C2 7740   0.704   4.972   4.010 -0.4706 -0.2227  0.3014
   84SOPE    HS 7741   0.784   4.999   4.082  1.3835 -2.1265 -0.9167
   84SOPE   O21 7742   0.607   4.871   4.055  0.3054  0.0637 -0.2153
   84SOPE   C21 7743   0.665   4.765   4.109 -0.6008 -0.4970 -0.3472
   84SOPE   O22 7744   0.772   4.761   4.170  0.1213  0.2351 -0.0233
   84SOPE   C22 7745   0.570   4.652   4.098 -0.5659 -0.1745 -0.0020
   84SOPE   H2R 7746   0.582   4.601   4.000 -1.8508 -1.0655  0.2785
   84SOPE   H2S 7747   0.472   4.706   4.099  0.5057  1.8554  0.4785
   84SOPE    C3 7748   0.643   5.109   3.985  0.7667  1.5064 -0.3732
   84SOPE    HX 7749   0.551   5.083   3.928 -1.8942 -0.2459  4.2556
   84SOPE    HY 7750   0.719   5.166   3.927  2.0405  0.4112  0.1753
   84SOPE   O31 7751   0.612   5.156   4.112 -0.5872  0.0770  0.0665
   84SOPE   C31 7752   0.537   5.263   4.112 -0.3332 -0.3077  0.0414
   84SOPE   O32 7753   0.513   5.330   4.011  0.0253 -0.0518  0.5328
   84SOPE   C32 7754   0.477   5.274   4.250 -0.1572  0.0154 -0.2779
   84SOPE   H2X 7755   0.557   5.251   4.324 -1.2728 -2.4429  0.2660
   84SOPE   H2Y 7756   0.390   5.206   4.255 -2.3089  2.3964 -2.5483
   84SOPE   C23 7757   0.573   4.553   4.218 -0.9184 -0.3467 -0.4254
   84SOPE   H3R 7758   0.661   4.486   4.226 -0.7541 -0.1341 -0.4668
   84SOPE   H3S 7759   0.492   4.481   4.191 -1.7325  1.2111 -2.3709
   84SOPE   C24 7760   0.539   4.618   4.355 -1.4305  0.2588 -0.2803
   84SOPE   H4R 7761   0.611   4.700   4.377 -2.0104  0.1254  2.5073
   84SOPE   H4S 7762   0.437   4.662   4.352 -0.3048  3.0051 -1.1935
   84SOPE   C25 7763   0.555   4.520   4.478  0.9005 -0.2465  0.3093
   84SOPE   H5R 7764   0.488   4.431   4.473  0.5019  0.0044  0.9184
   84SOPE   H5S 7765   0.661   4.491   4.465  0.8114 -0.4572  0.0371
   84SOPE   C26 7766   0.533   4.594   4.606 -0.7739 -0.3625  0.1478
   84SOPE   H6R 7767   0.615   4.664   4.634 -1.5772  0.8032 -0.3137
   84SOPE   H6S 7768   0.449   4.665   4.591 -0.7496 -0.2558  0.5077
   84SOPE   C27 7769   0.493   4.497   4.721 -0.2936  0.1004  0.2677
   84SOPE   H7R 7770   0.416   4.433   4.674  0.3124  0.6895 -1.6424
   84SOPE   H7S 7771   0.563   4.421   4.761 -0.9650  0.3203  1.9466
   84SOPE   C28 7772   0.416   4.570   4.831  0.3909  0.4449  0.9565
   84SOPE   H8R 7773   0.471   4.656   4.874  1.7805  1.0110 -1.7436
   84SOPE   H8S 7774   0.315   4.603   4.796  0.8829  0.7495 -0.2330
   84SOPE   C29 7775   0.369   4.476   4.934 -0.1170 -0.4899 -0.6417
   84SOPE   H91 7776   0.375   4.369   4.908  1.9513 -0.6892  0.4159
   84SOPE  C210 7777   0.309   4.521   5.049 -0.2927  0.3680 -0.1377
   84SOPE  H101 7778   0.274   4.444   5.120 -1.0286  0.3541 -0.5055
   84SOPE  C211 7779   0.282   4.662   5.092  0.3616 -0.5378  0.0264
   84SOPE  H11R 7780   0.172   4.674   5.077  0.1449  0.9670  2.3505
   84SOPE  H11S 7781   0.324   4.742   5.028 -1.6699  0.4295 -0.1639
   84SOPE  C212 7782   0.309   4.696   5.235 -0.4715  0.4428  0.7195
   84SOPE  H12R 7783   0.312   4.806   5.250  0.6990  0.2520  2.1921
   84SOPE  H12S 7784   0.407   4.658   5.272  0.1761  1.7956  0.4361
   84SOPE  C213 7785   0.203   4.635   5.338 -0.0150  0.2695 -0.6599
   84SOPE  H13R 7786   0.206   4.524   5.335 -0.9324  0.2118  0.0897
   84SOPE  H13S 7787   0.108   4.675   5.296 -0.5772  0.9788  1.1845
   84SOPE  C214 7788   0.226   4.684   5.484  0.5375 -0.4270 -0.0020
   84SOPE  H14R 7789   0.130   4.694   5.539 -0.0560  0.6344 -1.1749
   84SOPE  H14S 7790   0.263   4.788   5.465 -0.9919  0.0887 -0.2642
   84SOPE  C215 7791   0.335   4.612   5.560  0.1857  0.3114 -0.1514
   84SOPE  H15R 7792   0.435   4.636   5.517  0.9361  0.7403  1.7547
   84SOPE  H15S 7793   0.313   4.504   5.571  0.0615  0.4505  1.1645
   84SOPE  C216 7794   0.339   4.668   5.705  0.0815  0.6955  0.2687
   84SOPE  H16R 7795   0.411   4.599   5.754  0.5237  1.6968  1.0748
   84SOPE  H16S 7796   0.242   4.654   5.758  0.0605  2.0017  0.6050
   84SOPE  C217 7797   0.383   4.813   5.732  0.6368  0.6687 -0.3340
   84SOPE  H17R 7798   0.323   4.889   5.678 -1.3431  1.0987  2.2643
   84SOPE  H17S 7799   0.489   4.828   5.703  0.4435  0.1761 -1.3349
   84SOPE  C218 7800   0.357   4.854   5.881  0.7169 -0.1717  0.1370
   84SOPE  H18R 7801   0.248   4.862   5.902  0.6843  2.1456 -0.5868
   84SOPE  H18S 7802   0.390   4.960   5.885 -0.7383  0.2788  0.7146
   84SOPE  H18T 7803   0.417   4.785   5.944 -0.7004 -2.1440 -0.5966
   84SOPE   C33 7804   0.445   5.423   4.278 -0.0876 -0.1830  0.2096
   84SOPE   H3X 7805   0.353   5.457   4.225 -1.6128  1.0477  3.3450
   84SOPE   H3Y 7806   0.531   5.486   4.248  1.0162 -0.6554  2.2121
   84SOPE   C34 7807   0.403   5.434   4.423 -0.5927  0.6618 -0.1264
   84SOPE   H4X 7808   0.348   5.342   4.454  1.6957 -1.4506 -1.9053
   84SOPE   H4Y 7809   0.338   5.521   4.444  0.8755  1.4247  1.5504
   84SOPE   C35 7810   0.525   5.438   4.519  0.3995  0.0705 -0.0485
   84SOPE   H5X 7811   0.579   5.535   4.518 -0.8828  0.9731  3.1557
   84SOPE   H5Y 7812   0.594   5.351   4.514 -1.2210 -1.3828  1.3101
   84SOPE   C36 7813   0.469   5.419   4.663 -0.5643  0.6143 -0.2253
   84SOPE   H6X 7814   0.412   5.324   4.676 -0.4903  0.6168  0.1249
   84SOPE   H6Y 7815   0.389   5.495   4.676  0.1832  1.6125 -1.2407
   84SOPE   C37 7816   0.576   5.438   4.772  0.0718 -0.1201  0.3000
   84SOPE   H7X 7817   0.650   5.518   4.753  0.5109 -0.0170  2.2279
   84SOPE   H7Y 7818   0.636   5.346   4.760 -1.0356 -0.9192  0.6533
   84SOPE   C38 7819   0.514   5.454   4.911 -0.1662  0.3430  0.1454
   84SOPE   H8X 7820   0.453   5.363   4.929 -0.1236  0.9093  3.8416
   84SOPE   H8Y 7821   0.452   5.546   4.919 -0.0623  0.4151  0.1172
   84SOPE   C39 7822   0.628   5.464   5.011 -0.1189 -0.6927  0.0495
   84SOPE   H9X 7823   0.684   5.558   4.991 -0.1307 -0.5639  0.6217
   84SOPE   H9Y 7824   0.683   5.368   4.999  0.1726 -0.5667  0.3603
   84SOPE  C310 7825   0.575   5.483   5.153  0.2479 -0.8416  0.2320
   84SOPE  H10X 7826   0.511   5.395   5.175  0.0252 -0.6113  0.5121
   84SOPE  H10Y 7827   0.506   5.570   5.157  2.4265  0.9765  0.6512
   84SOPE  C311 7828   0.685   5.499   5.253 -0.8410 -1.0760 -0.3412
   84SOPE  H11X 7829   0.747   5.590   5.238 -0.1106 -1.2851  1.2270
   84SOPE  H11Y 7830   0.744   5.404   5.248 -0.6518 -1.0674  1.3065
   84SOPE  C312 7831   0.631   5.516   5.396  0.5869 -0.0714  0.3247
   84SOPE  H12X 7832   0.549   5.443   5.411 -1.1354  2.1793  2.9574
   84SOPE  H12Y 7833   0.580   5.615   5.395  0.5761 -0.0548 -1.4526
   84SOPE  C313 7834   0.736   5.509   5.508 -0.4518 -1.1376  0.7757
   84SOPE  H13X 7835   0.801   5.599   5.503 -0.5325 -1.1369 -0.8338
   84SOPE  H13Y 7836   0.793   5.413   5.506  1.0898 -0.2383 -0.5897
   84SOPE  C314 7837   0.673   5.508   5.642 -0.2352  0.9209  0.1500
   84SOPE  H14X 7838   0.618   5.414   5.661  0.5519  0.6096  0.9860
   84SOPE  H14Y 7839   0.600   5.589   5.661 -1.7920 -0.8381  2.0782
   84SOPE  C315 7840   0.780   5.529   5.749  0.3995 -0.9191  0.0649
   84SOPE  H15X 7841   0.824   5.631   5.742  0.1223 -0.7772  0.3527
   84SOPE  H15Y 7842   0.864   5.458   5.737  1.4851  0.3802 -0.1942
   84SOPE  C316 7843   0.713   5.524   5.890  0.0676  0.3531  0.1433
   84SOPE  H16X 7844   0.673   5.423   5.913  0.0022  0.2618 -0.3644
   84SOPE  H16Y 7845   0.627   5.591   5.910  1.6601  2.2632  0.9541
   84SOPE  C317 7846   0.819   5.577   5.993  0.6133 -0.1479  0.7258
   84SOPE  H17X 7847   0.827   5.685   5.969 -0.6915 -0.1886 -0.0227
   84SOPE  H17Y 7848   0.920   5.532   5.985  1.4271  1.4721  1.4394
   84SOPE  C318 7849   0.766   5.550   6.133 -0.2285 -0.1211  0.3198
   84SOPE  H18X 7850   0.753   5.442   6.156  1.1184 -0.5426 -0.7558
   84SOPE  H18Y 7851   0.674   5.609   6.151  0.1845  0.4539  0.6089
   84SOPE  H18Z 7852   0.833   5.591   6.213  0.9979  0.9254 -1.1855
   85SOPE     N 7853   3.672   4.180   3.171 -0.3307 -0.0920 -0.1384
   85SOPE   HN1 7854   3.692   4.118   3.090 -2.9624  0.6361 -1.4363
   85SOPE   HN2 7855   3.732   4.158   3.254 -0.0950  0.5860 -0.1226
   85SOPE   HN3 7856   3.572   4.174   3.199 -0.5497 -0.7653 -0.9899
   85SOPE   C12 7857   3.681   4.321   3.118 -0.3807  0.4898  0.0701
   85SOPE  H12A 7858   3.602   4.328   3.041 -0.1650  0.8270 -0.1238
   85SOPE  H12B 7859   3.780   4.336   3.069 -0.1683 -0.5569  0.1633
   85SOPE   C11 7860   3.658   4.419   3.234  0.2069  0.0970 -0.4973
   85SOPE  H11A 7861   3.556   4.392   3.268 -0.4298  1.3302 -1.3566
   85SOPE  H11B 7862   3.649   4.522   3.193  0.4999 -0.2257 -1.3886
   85SOPE     P 7863   3.725   4.413   3.497 -0.0066  0.0656 -0.0273
   85SOPE   O13 7864   3.830   4.494   3.565  0.4299 -0.1209 -0.0949
   85SOPE   O14 7865   3.692   4.275   3.542  0.3235  0.2823  0.1596
   85SOPE   O12 7866   3.763   4.397   3.333 -0.2822 -0.8878 -0.2564
   85SOPE   O11 7867   3.593   4.496   3.502  0.0259 -0.6323  0.5054
   85SOPE    C1 7868   3.601   4.640   3.506  0.8550 -0.0538  0.5899
   85SOPE    HA 7869   3.521   4.687   3.445  1.3304 -1.7517 -1.4501
   85SOPE    HB 7870   3.691   4.679   3.454 -0.5628  0.4187 -1.6318
   85SOPE    C2 7871   3.577   4.699   3.650 -0.7461  0.8073  0.7125
   85SOPE    HS 7872   3.564   4.809   3.637  0.8434  0.6886 -2.8991
   85SOPE   O21 7873   3.687   4.687   3.740  0.4348 -0.2377  0.0692
   85SOPE   C21 7874   3.794   4.761   3.703 -0.4821 -0.2696 -0.0096
   85SOPE   O22 7875   3.800   4.820   3.597 -0.1311 -0.7858  0.1800
   85SOPE   C22 7876   3.912   4.730   3.797 -0.4070 -0.5456  0.3784
   85SOPE   H2R 7877   4.004   4.756   3.741 -0.2842 -0.6503  0.5306
   85SOPE   H2S 7878   3.926   4.621   3.816  0.5316 -0.4634  0.2184
   85SOPE    C3 7879   3.447   4.641   3.710 -0.7382 -0.2664 -0.3822
   85SOPE    HX 7880   3.463   4.533   3.729  2.5352  0.0888 -0.5762
   85SOPE    HY 7881   3.364   4.658   3.638 -0.8712  3.1625  0.3973
   85SOPE   O31 7882   3.403   4.712   3.828 -0.4755  0.0492  0.8615
   85SOPE   C31 7883   3.458   4.666   3.938 -0.0716 -0.3476  0.0943
   85SOPE   O32 7884   3.539   4.576   3.954 -0.1080  0.3253  0.4053
   85SOPE   C32 7885   3.413   4.765   4.047 -0.3669  0.2934  0.7920
   85SOPE   H2X 7886   3.302   4.771   4.057 -0.2271  1.5576  1.9447
   85SOPE   H2Y 7887   3.451   4.868   4.032  0.5985 -0.2719 -0.8459
   85SOPE   C23 7888   3.902   4.806   3.930  0.7673 -0.0298  0.4432
   85SOPE   H3R 7889   3.804   4.776   3.972  1.0583 -0.5907  0.7274
   85SOPE   H3S 7890   3.899   4.917   3.917 -1.2889 -0.0034  0.7252
   85SOPE   C24 7891   4.003   4.756   4.036 -0.6141  0.0295 -0.3379
   85SOPE   H4R 7892   3.978   4.648   4.045  1.7539 -0.5288  0.1467
   85SOPE   H4S 7893   4.102   4.751   3.987  0.0782 -2.8503  1.1357
   85SOPE   C25 7894   3.994   4.839   4.168  0.7795  0.0159 -1.2083
   85SOPE   H5R 7895   4.066   4.924   4.169 -1.0212  1.6152 -0.3616
   85SOPE   H5S 7896   3.889   4.875   4.180  0.8403  0.4306 -1.8762
   85SOPE   C26 7897   4.030   4.744   4.281 -0.1852 -0.0803 -0.1030
   85SOPE   H6R 7898   3.948   4.672   4.302  1.0234 -2.0639 -1.7679
   85SOPE   H6S 7899   4.126   4.694   4.256 -0.3871 -1.7325  2.1602
   85SOPE   C27 7900   4.069   4.825   4.403 -0.1982  0.5641  0.4376
   85SOPE   H7R 7901   4.160   4.880   4.371  1.3623 -2.2171 -0.2105
   85SOPE   H7S 7902   3.977   4.881   4.432  0.2848  1.1593  0.8519
   85SOPE   C28 7903   4.110   4.722   4.510 -0.3811 -0.7163  0.7878
   85SOPE   H8R 7904   4.005   4.697   4.536 -1.3023 -0.9214 -2.6285
   85SOPE   H8S 7905   4.161   4.631   4.474 -1.3466 -1.0247  0.1521
   85SOPE   C29 7906   4.188   4.781   4.616 -1.2229 -0.6472 -0.5846
   85SOPE   H91 7907   4.266   4.855   4.597  1.2190 -2.3199  2.1683
   85SOPE  C210 7908   4.146   4.773   4.747 -0.2699  0.2252 -0.9175
   85SOPE  H101 7909   4.209   4.824   4.822 -3.1970 -0.3751  2.1648
   85SOPE  C211 7910   4.037   4.690   4.814 -0.3251  0.2609 -0.1282
   85SOPE  H11R 7911   4.039   4.584   4.780 -1.0254  0.4138 -0.6653
   85SOPE  H11S 7912   3.939   4.731   4.780  0.2586  2.5992  0.8633
   85SOPE  C212 7913   4.043   4.691   4.967  0.1403 -0.3951  0.9108
   85SOPE  H12R 7914   3.944   4.662   5.008 -0.4926  0.6021  0.1266
   85SOPE  H12S 7915   4.062   4.795   5.001 -0.0818 -0.0124 -0.1084
   85SOPE  C213 7916   4.160   4.606   5.025  0.8436  0.4776  0.5897
   85SOPE  H13R 7917   4.250   4.627   4.962 -0.1013  2.0442 -0.3073
   85SOPE  H13S 7918   4.133   4.501   5.002 -2.0055  0.9142  1.6087
   85SOPE  C214 7919   4.191   4.635   5.169  0.4031 -1.1017 -0.3193
   85SOPE  H14R 7920   4.105   4.697   5.204  0.4449 -2.4166  2.4124
   85SOPE  H14S 7921   4.286   4.692   5.176  0.2819 -0.6235 -2.0787
   85SOPE  C215 7922   4.219   4.510   5.253  0.3631  0.4837  0.1761
   85SOPE  H15R 7923   4.135   4.439   5.240  0.2358  1.0234 -2.4184
   85SOPE  H15S 7924   4.214   4.538   5.360 -0.5400  1.1334 -0.0250
   85SOPE  C216 7925   4.347   4.442   5.207 -0.0280  0.7447 -0.1383
   85SOPE  H16R 7926   4.363   4.441   5.097 -0.9192 -1.0597 -0.2762
   85SOPE  H16S 7927   4.346   4.334   5.233 -1.2798  0.9708  0.8440
   85SOPE  C217 7928   4.464   4.509   5.282  0.3942 -0.5711  0.3256
   85SOPE  H17R 7929   4.481   4.613   5.248 -0.9242  0.3981  2.4463
   85SOPE  H17S 7930   4.559   4.461   5.249  1.3354  0.4764  1.4453
   85SOPE  C218 7931   4.448   4.504   5.434  0.5267 -0.6664  0.0255
   85SOPE  H18R 7932   4.373   4.577   5.470  1.3712 -0.3909  1.2862
   85SOPE  H18S 7933   4.535   4.532   5.497 -0.3402  0.1811  0.8842
   85SOPE  H18T 7934   4.400   4.409   5.468 -2.3830  1.0391  1.1000
   85SOPE   C33 7935   3.481   4.740   4.187 -0.0127 -0.0110 -0.1431
   85SOPE   H3X 7936   3.591   4.752   4.174  0.0852  1.8570  1.7677
   85SOPE   H3Y 7937   3.455   4.636   4.217  1.2537 -0.1550  0.5420
   85SOPE   C34 7938   3.439   4.837   4.298 -0.1847  0.7575 -0.5160
   85SOPE   H4X 7939   3.328   4.831   4.295 -0.2595  1.7866  0.0454
   85SOPE   H4Y 7940   3.446   4.942   4.265 -1.9811  0.4471 -2.1029
   85SOPE   C35 7941   3.506   4.801   4.429 -0.5535 -0.0631 -0.1539
   85SOPE   H5X 7942   3.614   4.827   4.420 -0.6130 -0.4259 -2.4198
   85SOPE   H5Y 7943   3.500   4.693   4.455  0.6090  0.1614  1.2056
   85SOPE   C36 7944   3.435   4.858   4.548  0.7026 -0.1789  0.3119
   85SOPE   H6X 7945   3.336   4.808   4.553 -0.0180  1.1228 -0.5708
   85SOPE   H6Y 7946   3.424   4.968   4.547 -0.5997 -0.2964  0.5940
   85SOPE   C37 7947   3.500   4.804   4.680 -0.6590  0.4390  0.3489
   85SOPE   H7X 7948   3.606   4.835   4.692 -0.5315  0.7004 -1.2053
   85SOPE   H7Y 7949   3.502   4.694   4.691 -1.0039  0.0971 -2.2176
   85SOPE   C38 7950   3.428   4.859   4.805 -0.6424 -0.1885 -0.4595
   85SOPE   H8X 7951   3.319   4.839   4.811 -0.3676 -1.3607  1.6294
   85SOPE   H8Y 7952   3.425   4.970   4.811  1.5076 -0.0272 -1.6150
   85SOPE   C39 7953   3.507   4.823   4.930  0.1268 -0.3944  0.0681
   85SOPE   H9X 7954   3.478   4.887   5.016 -0.7601 -0.2221 -0.3565
   85SOPE   H9Y 7955   3.615   4.847   4.919 -0.0936  0.3424 -0.5414
   85SOPE  C310 7956   3.496   4.670   4.966 -0.1846 -0.6541  0.1601
   85SOPE  H10X 7957   3.548   4.622   4.880 -0.3459 -1.4202  0.4806
   85SOPE  H10Y 7958   3.391   4.635   4.968 -0.2709 -0.3615  1.0734
   85SOPE  C311 7959   3.549   4.617   5.099  0.5852  0.3102 -0.3147
   85SOPE  H11X 7960   3.651   4.656   5.119  0.1373  0.4994  1.8423
   85SOPE  H11Y 7961   3.563   4.508   5.094 -0.7301  0.1565 -1.3360
   85SOPE  C312 7962   3.460   4.642   5.225  0.5723  0.1913 -0.3351
   85SOPE  H12X 7963   3.356   4.605   5.209 -0.0888  1.2119  1.3122
   85SOPE  H12Y 7964   3.442   4.748   5.254 -1.0351 -0.5917  1.8432
   85SOPE  C313 7965   3.522   4.568   5.344  0.2066  0.3489  0.3733
   85SOPE  H13X 7966   3.624   4.602   5.372 -0.6491  2.0357  1.6718
   85SOPE  H13Y 7967   3.523   4.462   5.313  1.5576  0.6755 -0.8234
   85SOPE  C314 7968   3.431   4.574   5.471 -0.0352  0.6749 -0.2321
   85SOPE  H14X 7969   3.451   4.489   5.539 -0.9299 -0.0443 -0.8406
   85SOPE  H14Y 7970   3.323   4.573   5.447 -0.5362 -0.2637  1.8143
   85SOPE  C315 7971   3.459   4.697   5.548  0.2328 -0.5813  0.3759
   85SOPE  H15X 7972   3.419   4.781   5.488  2.0968 -0.6434 -1.0458
   85SOPE  H15Y 7973   3.569   4.699   5.560  0.2801 -1.7285  0.3155
   85SOPE  C316 7974   3.390   4.696   5.685 -0.3009 -0.2615 -0.5606
   85SOPE  H16X 7975   3.449   4.634   5.756 -0.8124  0.7870  0.8298
   85SOPE  H16Y 7976   3.291   4.646   5.677 -0.7815 -0.0328  2.6027
   85SOPE  C317 7977   3.358   4.833   5.739 -0.7149  0.4125  0.0318
   85SOPE  H17X 7978   3.290   4.888   5.671 -2.2033  0.6047  1.6026
   85SOPE  H17Y 7979   3.447   4.900   5.742 -0.0993 -0.2912 -1.4400
   85SOPE  C318 7980   3.292   4.815   5.880  0.7056  1.1788  0.2629
   85SOPE  H18X 7981   3.201   4.752   5.866  1.2987  0.4596 -0.4880
   85SOPE  H18Y 7982   3.265   4.905   5.939  1.7264  1.4884  0.2695
   85SOPE  H18Z 7983   3.367   4.758   5.939  0.5230 -1.8962 -2.2183
   86SOPE     N 7984   2.909   2.314   3.585 -0.2392 -0.6060 -1.0069
   86SOPE   HN1 7985   2.961   2.399   3.554 -1.0029 -0.4969 -2.0500
   86SOPE   HN2 7986   2.809   2.320   3.557 -0.3268  1.3898 -0.4203
   86SOPE   HN3 7987   2.910   2.313   3.689 -1.5966 -1.8417 -0.9731
   86SOPE   C12 7988   2.960   2.186   3.524  0.0971 -0.2905  0.2410
   86SOPE  H12A 7989   3.068   2.172   3.546  0.5745 -0.2191 -1.8724
   86SOPE  H12B 7990   2.956   2.193   3.413  0.6079  2.6318  0.3355
   86SOPE   C11 7991   2.888   2.056   3.562  0.2789  0.2668  0.1295
   86SOPE  H11A 7992   2.937   1.973   3.508  0.4107 -1.1641  2.3509
   86SOPE  H11B 7993   2.784   2.068   3.526  0.5617 -1.9189 -1.6144
   86SOPE     P 7994   2.992   1.961   3.788 -0.2208 -0.2475  0.2152
   86SOPE   O13 7995   3.121   2.031   3.764  0.2130  0.6749  0.7219
   86SOPE   O14 7996   2.983   1.813   3.768  0.1406 -0.3789  0.1841
   86SOPE   O12 7997   2.887   2.036   3.701  0.7348 -0.1468 -0.3106
   86SOPE   O11 7998   2.952   1.983   3.939 -0.5175  0.2222  1.0540
   86SOPE    C1 7999   2.824   2.035   3.979 -0.1926  0.9459  0.0627
   86SOPE    HA 8000   2.756   1.948   3.994  1.5230 -0.3094  0.9246
   86SOPE    HB 8001   2.781   2.099   3.900 -0.7318 -1.0407 -1.3299
   86SOPE    C2 8002   2.827   2.115   4.113  0.5616  0.3402 -0.0302
   86SOPE    HS 8003   2.869   2.215   4.089  1.6657  0.5707  2.5392
   86SOPE   O21 8004   2.899   2.047   4.217  0.2911  0.7558  0.6753
   86SOPE   C21 8005   2.978   2.121   4.293  0.0437 -0.2315  0.2532
   86SOPE   O22 8006   2.999   2.240   4.274  0.1776  0.2301 -0.7461
   86SOPE   C22 8007   3.056   2.048   4.401 -0.5454 -0.2729  0.4004
   86SOPE   H2R 8008   3.161   2.083   4.401 -1.1468  1.6937 -0.5614
   86SOPE   H2S 8009   3.047   1.939   4.381  1.8222 -0.3228 -0.7198
   86SOPE    C3 8010   2.679   2.152   4.162 -0.1394 -0.1972  0.1317
   86SOPE    HX 8011   2.630   2.053   4.158  0.0104 -0.3320  1.3771
   86SOPE    HY 8012   2.634   2.220   4.086 -1.9214  0.6211  1.8495
   86SOPE   O31 8013   2.683   2.208   4.293  0.8713 -0.2059  0.4950
   86SOPE   C31 8014   2.612   2.312   4.315  0.5477  0.5604 -0.0734
   86SOPE   O32 8015   2.534   2.362   4.236  0.3894 -0.5846  0.1469
   86SOPE   C32 8016   2.630   2.356   4.462 -0.8793  0.1848 -0.6840
   86SOPE   H2X 8017   2.548   2.426   4.485 -1.8529 -0.7913 -1.0907
   86SOPE   H2Y 8018   2.730   2.404   4.459  0.7328 -2.8898 -0.6164
   86SOPE   C23 8019   2.982   2.059   4.535 -0.1430  0.4154  0.0602
   86SOPE   H3R 8020   2.886   2.002   4.536  0.4659 -0.6620 -0.8366
   86SOPE   H3S 8021   2.955   2.161   4.569 -3.1777  0.3046 -1.6501
   86SOPE   C24 8022   3.077   2.001   4.647 -0.0167  0.2075  0.9252
   86SOPE   H4R 8023   3.091   1.899   4.606 -0.7649  0.8015 -0.9576
   86SOPE   H4S 8024   3.169   2.062   4.636 -0.4297  0.4846 -2.1114
   86SOPE   C25 8025   3.019   2.004   4.788 -0.0821 -0.0287 -0.1772
   86SOPE   H5R 8026   3.010   2.100   4.843  1.4999 -1.3369  2.5728
   86SOPE   H5S 8027   2.919   1.956   4.777 -0.4672  0.9894 -1.3145
   86SOPE   C26 8028   3.111   1.919   4.876  0.3574 -0.3968  0.0647
   86SOPE   H6R 8029   3.092   1.812   4.854  0.2385 -0.2885 -0.3604
   86SOPE   H6S 8030   3.216   1.948   4.853 -0.5608  2.1750 -1.2843
   86SOPE   C27 8031   3.083   1.941   5.031  0.6200 -0.0308 -0.1047
   86SOPE   H7R 8032   3.123   2.039   5.064 -1.4437  1.8589 -2.8045
   86SOPE   H7S 8033   2.973   1.943   5.049  0.7397 -1.7687  1.0948
   86SOPE   C28 8034   3.139   1.830   5.119  0.1359 -0.3256  0.5303
   86SOPE   H8R 8035   3.105   1.736   5.071  0.2864  0.5001 -1.2921
   86SOPE   H8S 8036   3.249   1.833   5.104  0.1027  0.0313  0.3676
   86SOPE   C29 8037   3.095   1.819   5.262  0.6280 -0.3972 -0.6672
   86SOPE   H91 8038   3.017   1.744   5.278  0.4013 -0.1867 -0.7628
   86SOPE  C210 8039   3.138   1.893   5.362  0.6543  0.3835  0.3527
   86SOPE  H101 8040   3.089   1.881   5.460  0.1498  1.6938  0.2855
   86SOPE  C211 8041   3.248   1.994   5.361  0.2443  0.2687  0.1199
   86SOPE  H11R 8042   3.273   2.004   5.253 -1.9266  1.6147 -0.3051
   86SOPE  H11S 8043   3.341   1.957   5.410 -0.4381  0.7357  1.8136
   86SOPE  C212 8044   3.204   2.126   5.418  0.4691 -0.2380  0.6754
   86SOPE  H12R 8045   3.287   2.191   5.455  0.2087  3.0155 -3.7181
   86SOPE  H12S 8046   3.126   2.113   5.496 -1.0338 -1.3312 -0.9567
   86SOPE  C213 8047   3.125   2.215   5.310 -0.4192  0.5789  0.4923
   86SOPE  H13R 8048   3.091   2.304   5.369  1.2918  0.8615  1.1106
   86SOPE  H13S 8049   3.039   2.164   5.262  0.3608  1.1923 -1.6800
   86SOPE  C214 8050   3.215   2.267   5.195 -0.0441 -0.6668 -0.5878
   86SOPE  H14R 8051   3.284   2.189   5.156  1.9313  0.0758  1.2105
   86SOPE  H14S 8052   3.283   2.349   5.227  0.7223 -0.6921 -2.0788
   86SOPE  C215 8053   3.133   2.330   5.074  0.0144  0.2525  0.5611
   86SOPE  H15R 8054   3.096   2.423   5.123  0.3700  0.9291 -0.4220
   86SOPE  H15S 8055   3.051   2.263   5.041  0.9844  0.2937 -2.2441
   86SOPE  C216 8056   3.212   2.366   4.945 -0.0474 -0.3169  0.3004
   86SOPE  H16R 8057   3.238   2.274   4.890  1.1767 -0.0229  0.3596
   86SOPE  H16S 8058   3.309   2.416   4.963 -1.3089  2.6537 -0.4788
   86SOPE  C217 8059   3.123   2.446   4.851 -1.1728 -0.3505  0.0941
   86SOPE  H17R 8060   3.104   2.549   4.888  0.8222 -0.0133  0.3212
   86SOPE  H17S 8061   3.028   2.389   4.845 -0.8185 -1.0365  0.8430
   86SOPE  C218 8062   3.183   2.442   4.713 -0.1681  0.4016  0.5227
   86SOPE  H18R 8063   3.259   2.519   4.687  0.4726 -0.5814 -0.5945
   86SOPE  H18S 8064   3.094   2.470   4.654 -0.0824 -0.2692  0.0555
   86SOPE  H18T 8065   3.219   2.339   4.692  0.9003  0.7575  0.5511
   86SOPE   C33 8066   2.637   2.247   4.569 -0.4938  0.6343  1.1221
   86SOPE   H3X 8067   2.720   2.176   4.550 -1.6804 -1.1027  2.0395
   86SOPE   H3Y 8068   2.549   2.179   4.572 -1.8263  2.3033  1.3099
   86SOPE   C34 8069   2.630   2.303   4.707 -0.2534 -0.4858 -0.3276
   86SOPE   H4X 8070   2.534   2.356   4.729  0.7937  2.2927 -1.9513
   86SOPE   H4Y 8071   2.715   2.373   4.710 -0.6356 -0.0447  0.7847
   86SOPE   C35 8072   2.647   2.198   4.820 -0.1607  0.1113  0.7732
   86SOPE   H5X 8073   2.738   2.145   4.785 -1.2488 -1.4642  0.2338
   86SOPE   H5Y 8074   2.571   2.118   4.811  0.4314 -0.3497 -0.3754
   86SOPE   C36 8075   2.673   2.258   4.956 -0.4522 -0.4903 -0.6349
   86SOPE   H6X 8076   2.589   2.329   4.969 -1.0329 -1.5294  1.6030
   86SOPE   H6Y 8077   2.771   2.311   4.960 -0.3418 -0.6700 -0.9148
   86SOPE   C37 8078   2.674   2.151   5.066  0.0034 -0.6806 -0.1221
   86SOPE   H7X 8079   2.760   2.085   5.043  0.6793  1.0289 -2.9440
   86SOPE   H7Y 8080   2.591   2.079   5.054  0.2664 -1.0362  0.1607
   86SOPE   C38 8081   2.684   2.199   5.207  0.3864 -0.2659 -0.1743
   86SOPE   H8X 8082   2.586   2.248   5.229  0.2113  0.4756 -2.3871
   86SOPE   H8Y 8083   2.767   2.271   5.224  1.0411 -1.0080 -0.1674
   86SOPE   C39 8084   2.717   2.085   5.312  0.0057 -0.5689  0.3079
   86SOPE   H9X 8085   2.821   2.052   5.288  0.1163  1.4389 -2.4847
   86SOPE   H9Y 8086   2.642   2.004   5.309 -0.6050  0.0063 -0.1462
   86SOPE  C310 8087   2.731   2.144   5.455 -0.0512 -0.2217  0.2962
   86SOPE  H10X 8088   2.797   2.233   5.454  1.0090 -0.9829 -0.0429
   86SOPE  H10Y 8089   2.775   2.067   5.523 -1.6084 -0.3909  1.1612
   86SOPE  C311 8090   2.601   2.193   5.519  0.6428  0.7832 -0.5488
   86SOPE  H11X 8091   2.521   2.117   5.512  1.9062 -0.4906 -1.6801
   86SOPE  H11Y 8092   2.559   2.276   5.458  1.8662 -0.4078 -3.1774
   86SOPE  C312 8093   2.638   2.245   5.658 -0.7010 -0.5535  0.3922
   86SOPE  H12X 8094   2.722   2.318   5.656 -0.6167 -0.6577  0.1964
   86SOPE  H12Y 8095   2.657   2.148   5.709  0.7921 -2.4493 -3.4358
   86SOPE  C313 8096   2.519   2.307   5.733  0.0459  0.3215  0.6500
   86SOPE  H13X 8097   2.428   2.247   5.713  0.5884 -0.2145 -0.3237
   86SOPE  H13Y 8098   2.490   2.409   5.700  0.8517  1.0292  2.0399
   86SOPE  C314 8099   2.545   2.299   5.885 -0.3629 -0.1741 -0.5998
   86SOPE  H14X 8100   2.638   2.353   5.913 -0.0231 -2.0344  2.2568
   86SOPE  H14Y 8101   2.556   2.195   5.922  1.2790  0.8449  2.0964
   86SOPE  C315 8102   2.435   2.366   5.968 -0.3467 -0.2317 -0.0685
   86SOPE  H15X 8103   2.453   2.331   6.073 -1.1511  0.0004  0.1521
   86SOPE  H15Y 8104   2.333   2.335   5.939  0.3199 -3.8182  0.8796
   86SOPE  C316 8105   2.432   2.523   5.974  0.1646  0.2333  0.1754
   86SOPE  H16X 8106   2.380   2.572   5.889  0.4557  0.3798  0.0799
   86SOPE  H16Y 8107   2.537   2.558   5.973 -0.1414  1.4277 -2.8868
   86SOPE  C317 8108   2.354   2.577   6.093 -0.5742  0.0211 -0.0922
   86SOPE  H17X 8109   2.384   2.682   6.113 -2.0311  0.3422  0.5742
   86SOPE  H17Y 8110   2.389   2.521   6.182  3.5147  1.1959 -0.7358
   86SOPE  C318 8111   2.204   2.582   6.074 -0.0614 -0.5387  0.0472
   86SOPE  H18X 8112   2.164   2.626   5.980 -1.3430 -1.1495  0.2846
   86SOPE  H18Y 8113   2.163   2.647   6.154  0.5616  0.8159 -0.7091
   86SOPE  H18Z 8114   2.169   2.478   6.091 -0.4847 -0.5726 -0.9683
   87SOPE     N 8115   4.365   0.824   2.920 -0.0398  0.1379  0.8977
   87SOPE   HN1 8116   4.330   0.733   2.885 -0.2437  0.8169 -0.8220
   87SOPE   HN2 8117   4.290   0.896   2.910  0.9545  0.9791 -1.1942
   87SOPE   HN3 8118   4.448   0.851   2.863 -0.0077  1.2007  1.4229
   87SOPE   C12 8119   4.413   0.802   3.057  0.1155 -0.2106  0.1772
   87SOPE  H12A 8120   4.484   0.716   3.054  1.1122  0.3492  3.4197
   87SOPE  H12B 8121   4.326   0.786   3.124  1.0218  0.9727  1.7080
   87SOPE   C11 8122   4.480   0.933   3.108 -0.3747  0.2498 -0.1177
   87SOPE  H11A 8123   4.523   0.940   3.211  0.7311  2.6077 -0.6861
   87SOPE  H11B 8124   4.410   1.018   3.097 -0.1460  0.4759  0.1490
   87SOPE     P 8125   4.744   0.934   3.072 -0.0776 -0.0891 -0.0157
   87SOPE   O13 8126   4.834   0.991   2.967 -0.2174  0.9009  0.1394
   87SOPE   O14 8127   4.758   0.793   3.106 -0.0029 -0.2333  0.4260
   87SOPE   O12 8128   4.595   0.966   3.031 -0.5498  0.3317  0.7003
   87SOPE   O11 8129   4.769   1.020   3.207 -0.2134  0.4552  0.1271
   87SOPE    C1 8130   4.755   1.166   3.206 -0.1608  0.1882 -0.3905
   87SOPE    HA 8131   4.683   1.199   3.127 -1.3287 -2.2953 -0.4475
   87SOPE    HB 8132   4.855   1.205   3.179  0.4304 -1.3947 -0.5624
   87SOPE    C2 8133   4.692   1.222   3.341  0.4708 -0.7471  0.7618
   87SOPE    HS 8134   4.706   1.332   3.347 -0.6864 -0.6553  2.4100
   87SOPE   O21 8135   4.750   1.175   3.462  0.2487 -0.2149  0.1096
   87SOPE   C21 8136   4.875   1.192   3.474 -0.7375 -0.0014 -0.4309
   87SOPE   O22 8137   4.941   1.266   3.401 -0.2497 -0.3245  0.3571
   87SOPE   C22 8138   4.925   1.101   3.590 -0.3315 -0.1067 -0.5208
   87SOPE   H2R 8139   5.035   1.118   3.601 -0.5990  0.1771  2.6724
   87SOPE   H2S 8140   4.907   0.994   3.567  0.7888  0.1308 -2.7533
   87SOPE    C3 8141   4.536   1.192   3.348  0.4348 -0.3026 -0.5785
   87SOPE    HX 8142   4.532   1.083   3.364  0.6742  0.0039  1.8615
   87SOPE    HY 8143   4.481   1.202   3.251  0.0094 -0.0266 -0.3129
   87SOPE   O31 8144   4.464   1.263   3.459  0.2228 -0.0732 -0.1341
   87SOPE   C31 8145   4.429   1.380   3.433 -0.0825 -0.5118  0.6903
   87SOPE   O32 8146   4.436   1.432   3.320  0.0791 -0.0892  0.1295
   87SOPE   C32 8147   4.378   1.453   3.552  0.0011 -0.6076 -0.0103
   87SOPE   H2X 8148   4.303   1.392   3.606 -2.9773  1.8103 -1.0719
   87SOPE   H2Y 8149   4.322   1.540   3.511 -1.1097 -0.8992  0.8522
   87SOPE   C23 8150   4.855   1.132   3.722 -0.3071 -0.9601  0.5716
   87SOPE   H3R 8151   4.746   1.117   3.709 -0.3647  0.0372 -0.2741
   87SOPE   H3S 8152   4.860   1.238   3.756 -0.6087 -1.0451  0.8923
   87SOPE   C24 8153   4.894   1.045   3.844  0.2177 -0.0613  0.1524
   87SOPE   H4R 8154   4.991   1.091   3.874 -0.6589  2.7429 -0.9832
   87SOPE   H4S 8155   4.822   1.078   3.922  0.2919 -0.9461  0.6186
   87SOPE   C25 8156   4.893   0.889   3.820  0.3620 -0.1097  0.2991
   87SOPE   H5R 8157   4.824   0.837   3.889 -2.9941  1.9834 -1.2526
   87SOPE   H5S 8158   4.842   0.886   3.721  1.8622  1.6848 -0.5975
   87SOPE   C26 8159   5.037   0.830   3.814 -0.0900 -0.7475 -0.1913
   87SOPE   H6R 8160   5.037   0.727   3.773 -0.8798 -0.2905 -1.3777
   87SOPE   H6S 8161   5.094   0.886   3.736 -2.2271  3.1382  0.7668
   87SOPE   C27 8162   5.118   0.840   3.949  0.1603  0.0212 -0.0501
   87SOPE   H7R 8163   5.227   0.819   3.939  0.0393 -1.0079  0.7415
   87SOPE   H7S 8164   5.107   0.947   3.979 -1.7849 -0.1274 -0.1246
   87SOPE   C28 8165   5.050   0.763   4.058  0.5240  0.2294 -0.0427
   87SOPE   H8R 8166   5.092   0.802   4.153  1.9316 -1.8303  0.2588
   87SOPE   H8S 8167   4.941   0.785   4.055 -0.2077 -2.5115  1.8508
   87SOPE   C29 8168   5.083   0.619   4.047  0.3629  0.0507  0.0647
   87SOPE   H91 8169   5.073   0.599   3.940 -1.6973  4.8692 -0.9196
   87SOPE  C210 8170   5.119   0.533   4.142 -0.1863 -0.0990  0.1511
   87SOPE  H101 8171   5.124   0.427   4.113 -0.4293  0.2950 -1.3888
   87SOPE  C211 8172   5.135   0.560   4.293  0.2232  0.0447  0.1416
   87SOPE  H11R 8173   5.134   0.670   4.310 -3.1160  0.6509 -2.9008
   87SOPE  H11S 8174   5.231   0.519   4.332  1.0775  0.5268 -1.3759
   87SOPE  C212 8175   5.035   0.490   4.392  0.1696  0.1793 -0.0531
   87SOPE  H12R 8176   5.058   0.383   4.373  2.5139  0.9697 -2.1017
   87SOPE  H12S 8177   4.934   0.512   4.353 -0.5396 -1.3645  0.8152
   87SOPE  C213 8178   5.040   0.544   4.537 -0.1728  0.3275  0.4004
   87SOPE  H13R 8179   4.981   0.638   4.541  1.0244  1.0563  1.3389
   87SOPE  H13S 8180   5.147   0.566   4.555 -0.3527  2.1055 -0.4917
   87SOPE  C214 8181   4.981   0.436   4.628 -0.2101  0.5810  0.2246
   87SOPE  H14R 8182   5.039   0.342   4.632 -2.5953 -0.9794 -0.0838
   87SOPE  H14S 8183   4.879   0.403   4.599  1.0758 -2.3397 -1.3146
   87SOPE  C215 8184   4.983   0.480   4.781  0.5054 -0.1227 -0.1818
   87SOPE  H15R 8185   5.074   0.544   4.787  0.5227  0.1144 -2.1634
   87SOPE  H15S 8186   4.978   0.394   4.851 -2.0154 -0.8263 -1.1180
   87SOPE  C216 8187   4.863   0.569   4.808 -0.5356 -0.1242  0.3897
   87SOPE  H16R 8188   4.761   0.528   4.792 -0.0401 -0.4550 -2.5463
   87SOPE  H16S 8189   4.849   0.648   4.731 -1.3142 -2.1557 -1.6974
   87SOPE  C217 8190   4.877   0.639   4.947 -0.3630  0.2628 -0.1222
   87SOPE  H17R 8191   4.826   0.737   4.947  1.6297  1.3781 -1.6115
   87SOPE  H17S 8192   4.985   0.665   4.961 -0.5818  1.2611 -0.2159
   87SOPE  C218 8193   4.840   0.540   5.057  0.9087  0.1928 -0.4771
   87SOPE  H18R 8194   4.862   0.437   5.021 -0.6430  0.3644 -2.0083
   87SOPE  H18S 8195   4.736   0.552   5.093  0.7364 -1.8596 -0.1674
   87SOPE  H18T 8196   4.905   0.559   5.146  1.6391 -1.4592 -0.6132
   87SOPE   C33 8197   4.483   1.492   3.658 -0.7930  0.3751  0.0332
   87SOPE   H3X 8198   4.458   1.574   3.728  1.6381  0.8536  0.4313
   87SOPE   H3Y 8199   4.583   1.511   3.613 -0.1532  0.4044  1.4012
   87SOPE   C34 8200   4.511   1.367   3.748 -0.0919 -0.5671 -0.6363
   87SOPE   H4X 8201   4.547   1.286   3.681 -0.1715  0.6875 -2.2653
   87SOPE   H4Y 8202   4.417   1.343   3.803  0.4290 -0.4997  0.2973
   87SOPE   C35 8203   4.626   1.381   3.843  0.4311 -0.2714 -0.3027
   87SOPE   H5X 8204   4.692   1.456   3.796  0.4931  0.3400  0.7291
   87SOPE   H5Y 8205   4.679   1.284   3.843  2.0307  0.5722 -0.4890
   87SOPE   C36 8206   4.585   1.420   3.987  1.0240  0.2839  0.0856
   87SOPE   H6X 8207   4.530   1.333   4.029  1.0740 -0.0187 -0.4616
   87SOPE   H6Y 8208   4.524   1.512   3.980 -1.3815 -1.1387  0.8788
   87SOPE   C37 8209   4.702   1.445   4.078  0.6240 -0.4429 -0.5485
   87SOPE   H7X 8210   4.746   1.539   4.038 -0.2183 -0.1621 -0.8342
   87SOPE   H7Y 8211   4.774   1.360   4.078  1.6331  0.3555  1.0434
   87SOPE   C38 8212   4.673   1.489   4.224  0.4925  0.5825 -0.7798
   87SOPE   H8X 8213   4.574   1.448   4.252  0.6608 -2.1710 -3.6109
   87SOPE   H8Y 8214   4.663   1.598   4.244 -0.6186  0.4618 -0.6159
   87SOPE   C39 8215   4.782   1.432   4.322  0.9720 -0.9567  0.1973
   87SOPE   H9X 8216   4.885   1.437   4.281  1.0682  1.1954  0.6186
   87SOPE   H9Y 8217   4.763   1.322   4.317 -0.3363 -0.8991  2.3939
   87SOPE  C310 8218   4.781   1.508   4.455  0.1927  0.0996 -0.0170
   87SOPE  H10X 8219   4.779   1.619   4.446  1.1609  0.3019  1.7220
   87SOPE  H10Y 8220   4.878   1.483   4.502  1.3620 -1.8189 -3.1939
   87SOPE  C311 8221   4.662   1.459   4.541  0.1103 -0.0180  0.1590
   87SOPE  H11X 8222   4.640   1.353   4.517  0.7708 -0.3442  0.9434
   87SOPE  H11Y 8223   4.570   1.515   4.510 -0.2325 -1.1311 -0.9154
   87SOPE  C312 8224   4.668   1.473   4.692 -0.0605  0.3067 -0.2345
   87SOPE  H12X 8225   4.731   1.386   4.721  0.5134  0.2268 -1.6350
   87SOPE  H12Y 8226   4.565   1.469   4.733 -0.2641  0.8394 -0.6825
   87SOPE  C313 8227   4.736   1.597   4.747 -0.5225  0.0660 -0.3989
   87SOPE  H13X 8228   4.726   1.699   4.703  3.0333  0.8965  0.3330
   87SOPE  H13Y 8229   4.847   1.592   4.739 -0.3172  1.3932  1.0199
   87SOPE  C314 8230   4.701   1.620   4.900  0.3072 -1.7655  0.0731
   87SOPE  H14X 8231   4.597   1.585   4.921 -1.3028  1.8400 -1.1200
   87SOPE  H14Y 8232   4.710   1.729   4.917 -1.9227 -1.5037 -0.1054
   87SOPE  C315 8233   4.799   1.544   4.998  0.7732 -0.8254 -0.3462
   87SOPE  H15X 8234   4.902   1.586   4.993  0.6998 -0.8214 -2.5634
   87SOPE  H15Y 8235   4.807   1.439   4.964  2.8434 -0.7776 -0.1844
   87SOPE  C316 8236   4.748   1.542   5.148  0.0889 -0.0871 -0.1535
   87SOPE  H16X 8237   4.648   1.496   5.159 -0.1318  0.3640 -0.2196
   87SOPE  H16Y 8238   4.731   1.646   5.184  0.6792 -0.1020  0.1825
   87SOPE  C317 8239   4.846   1.471   5.240  0.1163  0.3342 -0.1739
   87SOPE  H17X 8240   4.937   1.531   5.220 -0.1147  1.4111  1.7765
   87SOPE  H17Y 8241   4.862   1.367   5.204  0.4402 -0.2891  1.6537
   87SOPE  C318 8242   4.811   1.483   5.389 -1.0356  0.3976 -0.5157
   87SOPE  H18X 8243   4.800   1.592   5.409  0.3168  0.5301 -0.3573
   87SOPE  H18Y 8244   4.881   1.435   5.461 -2.1747  1.1782  1.1657
   87SOPE  H18Z 8245   4.717   1.432   5.416 -0.7281  0.0634 -0.0505
   88SOPE     N 8246   0.185   2.043   3.727  0.0463 -0.1787 -0.9786
   88SOPE   HN1 8247   0.244   1.969   3.770 -4.1109 -1.6023  3.1150
   88SOPE   HN2 8248   0.136   2.007   3.643 -0.9400 -0.6345 -0.2260
   88SOPE   HN3 8249   0.236   2.133   3.712 -0.6927  0.1144 -1.8443
   88SOPE   C12 8250   0.082   2.088   3.825 -0.0922 -0.4061  0.2319
   88SOPE  H12A 8251   0.130   2.141   3.910 -1.8992  0.5215  0.7129
   88SOPE  H12B 8252   0.024   2.000   3.860  2.2202 -2.8241 -1.6027
   88SOPE   C11 8253  -0.010   2.191   3.756  1.3526  0.0617 -0.8914
   88SOPE  H11A 8254  -0.108   2.185   3.807  1.0029 -0.6435 -1.6157
   88SOPE  H11B 8255  -0.041   2.144   3.660  0.6270 -0.3233 -0.4704
   88SOPE     P 8256  -0.011   2.439   3.805  0.0192 -0.3563 -0.0176
   88SOPE   O13 8257  -0.158   2.443   3.803 -0.0120 -0.1353  0.0373
   88SOPE   O14 8258   0.054   2.562   3.760  0.0906 -0.1291  0.0752
   88SOPE   O12 8259   0.054   2.317   3.734  0.3436 -0.5724  0.2697
   88SOPE   O11 8260   0.032   2.413   3.954  0.2204 -0.4710 -0.5474
   88SOPE    C1 8261   0.035   2.532   4.041  0.0859  0.3138  0.8555
   88SOPE    HA 8262   0.037   2.630   3.988 -1.3562  0.7584  1.5789
   88SOPE    HB 8263   0.127   2.520   4.103 -0.3110  0.1934  1.4276
   88SOPE    C2 8264  -0.081   2.530   4.152 -0.3501  0.6849 -0.8394
   88SOPE    HS 8265  -0.065   2.620   4.214  0.7765 -0.3273  0.3995
   88SOPE   O21 8266  -0.086   2.408   4.231  0.6382  0.1655 -0.0644
   88SOPE   C21 8267   0.007   2.400   4.328  0.2010  0.2649  0.4623
   88SOPE   O22 8268   0.112   2.458   4.331  0.4775  0.0315 -0.1739
   88SOPE   C22 8269  -0.049   2.307   4.437 -0.2499 -0.3549  0.2073
   88SOPE   H2R 8270   0.038   2.260   4.489 -0.0409 -0.6431 -0.3917
   88SOPE   H2S 8271  -0.106   2.230   4.380  0.6322  0.0373 -1.2593
   88SOPE    C3 8272  -0.219   2.548   4.084 -0.0737  0.5072  0.4729
   88SOPE    HX 8273  -0.252   2.449   4.047  1.9912 -0.1604  0.2613
   88SOPE    HY 8274  -0.220   2.618   3.997 -1.2370  0.7695  0.6881
   88SOPE   O31 8275  -0.314   2.587   4.178 -0.1600  0.2562  0.3029
   88SOPE   C31 8276  -0.433   2.592   4.136 -0.4443 -0.3095 -0.6834
   88SOPE   O32 8277  -0.474   2.567   4.028  0.1673  0.3478  0.1500
   88SOPE   C32 8278  -0.527   2.639   4.247 -0.6030 -0.1644 -0.0389
   88SOPE   H2X 8279  -0.611   2.688   4.193 -0.3312  1.7876  1.2139
   88SOPE   H2Y 8280  -0.470   2.704   4.317 -0.2741 -0.8331  0.3205
   88SOPE   C23 8281  -0.144   2.362   4.535  0.2510 -0.0767 -0.6694
   88SOPE   H3R 8282  -0.237   2.404   4.492  0.6073  0.5120 -0.8812
   88SOPE   H3S 8283  -0.101   2.444   4.597 -1.9979  0.3233  0.4584
   88SOPE   C24 8284  -0.192   2.263   4.644  0.1762  0.6764 -0.3223
   88SOPE   H4R 8285  -0.280   2.310   4.693  0.6003 -0.1043  1.2620
   88SOPE   H4S 8286  -0.227   2.167   4.601 -0.9543 -0.1681  2.2800
   88SOPE   C25 8287  -0.103   2.235   4.764 -0.2094  0.5067 -0.0626
   88SOPE   H5R 8288  -0.159   2.162   4.827  0.5604  1.4878  1.8319
   88SOPE   H5S 8289  -0.003   2.196   4.734 -0.3837  0.0025  0.0042
   88SOPE   C26 8290  -0.078   2.362   4.843  0.2971 -1.0949 -0.1629
   88SOPE   H6R 8291  -0.003   2.428   4.794  1.9426 -0.5169  2.8905
   88SOPE   H6S 8292  -0.178   2.410   4.842  0.3200 -1.0179 -1.3843
   88SOPE   C27 8293  -0.042   2.346   4.991 -0.5005  0.6358 -0.2607
   88SOPE   H7R 8294  -0.100   2.253   5.011 -1.6774  1.6036  0.9783
   88SOPE   H7S 8295   0.066   2.326   5.006 -1.0244 -2.5503 -0.0184
   88SOPE   C28 8296  -0.095   2.467   5.079 -0.1957  0.3238 -0.4694
   88SOPE   H8R 8297  -0.016   2.545   5.072 -1.3038  1.3743 -1.9051
   88SOPE   H8S 8298  -0.191   2.504   5.037 -0.2468  0.9744  0.2145
   88SOPE   C29 8299  -0.113   2.413   5.222 -0.1015  0.8743 -0.1687
   88SOPE   H91 8300  -0.037   2.343   5.260 -0.2592  0.5708 -0.4045
   88SOPE  C210 8301  -0.223   2.424   5.303  0.6010  0.0822  0.3885
   88SOPE  H101 8302  -0.227   2.375   5.402  0.0783  0.2269  0.4421
   88SOPE  C211 8303  -0.349   2.504   5.286  0.3783  0.1077 -0.4030
   88SOPE  H11R 8304  -0.344   2.577   5.202  0.1646  0.6891  0.0793
   88SOPE  H11S 8305  -0.377   2.554   5.381 -1.1057  0.7074 -1.1276
   88SOPE  C212 8306  -0.471   2.414   5.257 -0.3845  0.1596  0.4228
   88SOPE  H12R 8307  -0.476   2.331   5.332  0.7253 -2.6084 -2.3306
   88SOPE  H12S 8308  -0.458   2.366   5.157  0.7198 -0.6395  0.9169
   88SOPE  C213 8309  -0.607   2.485   5.271 -0.3765 -0.2511  0.5638
   88SOPE  H13R 8310  -0.596   2.564   5.194  0.4314 -1.2552 -0.3918
   88SOPE  H13S 8311  -0.614   2.526   5.374  1.3962 -2.5145  1.7036
   88SOPE  C214 8312  -0.730   2.390   5.235 -0.0099 -0.2965  0.3046
   88SOPE  H14R 8313  -0.745   2.309   5.309 -0.1026 -1.6983 -1.1927
   88SOPE  H14S 8314  -0.691   2.340   5.143  1.6699  2.0564 -0.3679
   88SOPE  C215 8315  -0.860   2.467   5.198 -0.7784 -0.2158 -0.0179
   88SOPE  H15R 8316  -0.830   2.556   5.138  2.4991 -1.1939 -0.0435
   88SOPE  H15S 8317  -0.884   2.508   5.299 -1.5321 -1.9884  0.5490
   88SOPE  C216 8318  -0.971   2.391   5.133 -0.3182  0.0166 -0.2108
   88SOPE  H16R 8319  -0.948   2.365   5.028  0.3783 -1.3994  0.2666
   88SOPE  H16S 8320  -1.058   2.459   5.128 -0.2995  0.0212 -0.4874
   88SOPE  C217 8321  -1.017   2.262   5.205  0.1283 -0.0553  0.7009
   88SOPE  H17R 8322  -0.924   2.205   5.225  1.4295  1.7299 -0.0054
   88SOPE  H17S 8323  -1.065   2.200   5.127  2.1508 -1.9311  0.8336
   88SOPE  C218 8324  -1.093   2.293   5.326  0.2647 -0.0722 -0.3045
   88SOPE  H18R 8325  -1.128   2.196   5.366 -1.5023  1.2033  1.4440
   88SOPE  H18S 8326  -1.188   2.348   5.309  0.1564  0.2981  1.3661
   88SOPE  H18T 8327  -1.044   2.357   5.403 -1.9742  1.6381 -0.1959
   88SOPE   C33 8328  -0.554   2.514   4.330 -0.1154  0.5855 -0.2793
   88SOPE   H3X 8329  -0.456   2.481   4.371 -0.1771  0.7411 -0.0084
   88SOPE   H3Y 8330  -0.585   2.424   4.273 -0.9445  0.8099 -0.1917
   88SOPE   C34 8331  -0.653   2.527   4.443  0.3311  0.4530 -0.3139
   88SOPE   H4X 8332  -0.619   2.607   4.512  0.2615 -0.0880  0.3532
   88SOPE   H4Y 8333  -0.643   2.430   4.497  2.4023  0.1751 -1.1038
   88SOPE   C35 8334  -0.798   2.562   4.407 -0.1750 -0.3137 -0.2008
   88SOPE   H5X 8335  -0.841   2.482   4.344 -1.0091  0.1283 -0.2038
   88SOPE   H5Y 8336  -0.802   2.659   4.353  4.1299  1.2772  1.8294
   88SOPE   C36 8337  -0.886   2.574   4.530  0.1347  1.0063  0.5612
   88SOPE   H6X 8338  -0.986   2.613   4.500 -0.7514 -1.4611  0.0989
   88SOPE   H6Y 8339  -0.840   2.643   4.604  3.7847 -2.2775  1.6588
   88SOPE   C37 8340  -0.916   2.455   4.616 -0.6588 -0.0944  0.3131
   88SOPE   H7X 8341  -0.824   2.399   4.643 -0.2296  0.4108 -0.0748
   88SOPE   H7Y 8342  -0.977   2.385   4.556 -0.1888 -0.0614 -0.2068
   88SOPE   C38 8343  -0.993   2.483   4.747 -0.3576  0.1305  0.1356
   88SOPE   H8X 8344  -0.946   2.566   4.803 -1.4977  0.8023  0.1252
   88SOPE   H8Y 8345  -0.984   2.391   4.808 -2.9305 -1.8711 -2.2270
   88SOPE   C39 8346  -1.132   2.530   4.726  0.3014 -0.8288 -1.0767
   88SOPE   H9X 8347  -1.146   2.606   4.646  1.3888  2.4940  1.6309
   88SOPE   H9Y 8348  -1.170   2.574   4.820  0.6212 -0.7315 -0.9904
   88SOPE  C310 8349  -1.224   2.416   4.696 -0.0742  0.1842 -0.6600
   88SOPE  H10X 8350  -1.194   2.356   4.607 -0.6262  0.6857 -1.1930
   88SOPE  H10Y 8351  -1.318   2.460   4.656  1.0591  1.2999 -2.2252
   88SOPE  C311 8352  -1.265   2.323   4.820  0.1348 -0.0249  0.0716
   88SOPE  H11X 8353  -1.176   2.285   4.875  1.0212  1.7584 -0.0691
   88SOPE  H11Y 8354  -1.320   2.236   4.779 -0.4342  0.5551 -0.4119
   88SOPE  C312 8355  -1.364   2.386   4.925  0.5108  0.7235  0.2147
   88SOPE  H12X 8356  -1.456   2.408   4.866  0.8533  1.4661 -0.0492
   88SOPE  H12Y 8357  -1.329   2.486   4.957 -0.2012  1.4017 -1.0263
   88SOPE  C313 8358  -1.400   2.286   5.041  0.3639  0.2434 -0.4302
   88SOPE  H13X 8359  -1.312   2.227   5.073 -0.4997 -2.0692 -2.0157
   88SOPE  H13Y 8360  -1.470   2.217   4.989 -2.2494  1.4010  1.3300
   88SOPE  C314 8361  -1.480   2.340   5.154  0.1120 -0.4969 -0.0920
   88SOPE  H14X 8362  -1.541   2.412   5.095  1.2955  0.4377 -0.2247
   88SOPE  H14Y 8363  -1.413   2.401   5.219  1.9924  0.4229 -2.7519
   88SOPE  C315 8364  -1.558   2.239   5.239 -0.1661 -0.2640  0.0462
   88SOPE  H15X 8365  -1.475   2.190   5.295 -1.1252 -2.1060 -0.0453
   88SOPE  H15Y 8366  -1.602   2.156   5.180  0.4415 -1.1635  0.8241
   88SOPE  C316 8367  -1.648   2.298   5.345  0.3120  0.0567 -0.1806
   88SOPE  H16X 8368  -1.743   2.340   5.305  0.1595 -0.1896 -0.0837
   88SOPE  H16Y 8369  -1.601   2.390   5.385 -0.5763  0.8704 -0.9346
   88SOPE  C317 8370  -1.676   2.202   5.461 -0.6421  1.1116  0.7773
   88SOPE  H17X 8371  -1.578   2.182   5.510 -0.8916 -4.1281 -0.2572
   88SOPE  H17Y 8372  -1.707   2.105   5.415 -0.2370  1.5185 -0.3981
   88SOPE  C318 8373  -1.767   2.260   5.565  0.2157  0.7479 -0.4519
   88SOPE  H18X 8374  -1.711   2.347   5.608  1.0683 -0.8971  1.9928
   88SOPE  H18Y 8375  -1.771   2.192   5.653  0.8604  0.6905 -0.4591
   88SOPE  H18Z 8376  -1.869   2.282   5.529 -0.4589 -0.8055  0.4147
   89SAPC     N 8377   5.814   6.654   8.301 -0.1429  0.1071  0.4533
   89SAPC   C12 8378   5.860   6.574   8.181  0.5915  0.8660 -0.5945
   89SAPC  H12A 8379   5.939   6.510   8.218 -0.6923  0.1902  1.1085
   89SAPC  H12B 8380   5.908   6.651   8.122  1.6374  1.2538  0.7203
   89SAPC   C13 8381   5.750   6.571   8.402  0.3194 -0.0972  0.3924
   89SAPC  H13A 8382   5.823   6.515   8.458  0.7673  0.5454  0.4629
   89SAPC  H13B 8383   5.698   6.632   8.474  0.1640  0.2086  0.0283
   89SAPC  H13C 8384   5.687   6.504   8.346  2.6351 -0.2186 -2.2585
   89SAPC   C14 8385   5.929   6.721   8.367  0.2517  0.2892  0.1452
   89SAPC  H14A 8386   5.975   6.792   8.300 -0.2027  0.3760 -0.0734
   89SAPC  H14B 8387   5.904   6.779   8.455 -0.4117  0.7831 -0.3663
   89SAPC  H14C 8388   6.005   6.649   8.396 -0.2494 -0.8299 -1.2205
   89SAPC   C15 8389   5.710   6.757   8.259  0.3272 -0.1171 -0.3131
   89SAPC  H15A 8390   5.687   6.832   8.333  1.0252  0.4364 -0.6397
   89SAPC  H15B 8391   5.753   6.819   8.182  1.6636  0.3167  0.7440
   89SAPC  H15C 8392   5.625   6.706   8.218  1.0383 -0.5790 -1.2402
   89SAPC   C11 8393   5.752   6.491   8.106 -0.7437 -0.7310  0.1169
   89SAPC  H11A 8394   5.799   6.459   8.011  1.1968 -0.0412  0.7972
   89SAPC  H11B 8395   5.678   6.568   8.078  0.1279 -0.4355 -1.5354
   89SAPC     P 8396   5.756   6.245   8.185 -0.0107 -0.0779  0.3373
   89SAPC   O13 8397   5.900   6.246   8.224 -0.0986  0.0765 -0.3035
   89SAPC   O14 8398   5.668   6.163   8.268  0.3922  0.1680 -0.1241
   89SAPC   O12 8399   5.682   6.384   8.172 -0.1327  0.5171  0.2777
   89SAPC   O11 8400   5.745   6.188   8.038  0.0171 -0.4589 -0.5676
   89SAPC    C1 8401   5.644   6.221   7.952  0.6046 -0.0012  0.4364
   89SAPC    HA 8402   5.546   6.226   8.004  0.5464  0.0588  0.3224
   89SAPC    HB 8403   5.663   6.323   7.912  2.1156 -0.5278 -0.2588
   89SAPC    C2 8404   5.638   6.118   7.832  0.4522  0.9004 -0.6048
   89SAPC    HS 8405   5.625   6.016   7.874 -0.0119  0.1619 -2.4495
   89SAPC   O21 8406   5.756   6.124   7.750  0.0607  0.5017 -0.9174
   89SAPC   C21 8407   5.766   6.014   7.678 -0.2876  0.1400  0.1832
   89SAPC   O22 8408   5.723   5.904   7.708 -0.2828  0.0078  0.2710
   89SAPC   C22 8409   5.864   6.038   7.557  0.3123  0.5920  0.7826
   89SAPC   H2R 8410   5.817   6.113   7.490  3.5249 -0.0624 -2.4524
   89SAPC   H2S 8411   5.962   6.076   7.592 -0.7763  2.8121  1.6508
   89SAPC    C3 8412   5.511   6.154   7.751  0.3612  0.0731 -0.0757
   89SAPC    HX 8413   5.431   6.151   7.828  2.2479 -0.7368  1.9642
   89SAPC    HY 8414   5.481   6.077   7.678 -0.4869  0.3801 -0.0587
   89SAPC   O31 8415   5.518   6.288   7.695 -0.2260  0.0884 -0.4435
   89SAPC   C31 8416   5.552   6.299   7.567  0.5933 -0.8745 -0.2218
   89SAPC   O32 8417   5.571   6.206   7.492 -0.1957  0.0424  0.1626
   89SAPC   C32 8418   5.533   6.444   7.530  0.5326 -0.5617 -0.0815
   89SAPC   H2X 8419   5.580   6.510   7.607  0.8288  0.4992 -1.1445
   89SAPC   H2Y 8420   5.423   6.458   7.524  0.5531 -0.8062 -1.3587
   89SAPC   C23 8421   5.876   5.908   7.466 -0.7997  0.2342 -0.3435
   89SAPC   H3R 8422   5.776   5.885   7.423 -2.1408  0.0323  2.6726
   89SAPC   H3S 8423   5.918   5.825   7.527 -0.8504  1.2079  1.0611
   89SAPC   C24 8424   5.962   5.955   7.343  0.0498 -0.0256  0.1088
   89SAPC   H4R 8425   5.925   6.049   7.299  0.5627 -0.0256 -0.3162
   89SAPC   H4S 8426   5.936   5.877   7.269 -0.8846  1.1933 -0.8806
   89SAPC   C25 8427   6.108   5.942   7.387  1.1962  0.0699 -0.1013
   89SAPC   H5R 8428   6.115   5.915   7.494  0.5721  1.3286  0.2791
   89SAPC   C26 8429   6.214   5.976   7.316  0.0070 -0.5688 -0.7311
   89SAPC   H6R 8430   6.313   5.971   7.363 -0.7153  1.8487  1.2945
   89SAPC   C27 8431   6.217   6.031   7.177 -0.2092 -0.7593 -0.4005
   89SAPC   H7R 8432   6.247   6.138   7.182  1.7434 -1.2052 -1.3973
   89SAPC   H7S 8433   6.114   6.041   7.138 -0.7098  1.3015  1.2579
   89SAPC   C28 8434   6.311   5.960   7.087 -0.7101 -0.3269  0.3841
   89SAPC   H8R 8435   6.318   5.852   7.110  1.3952 -0.3184 -0.0706
   89SAPC   C29 8436   6.395   6.017   6.995  0.1583  0.8036  0.7298
   89SAPC   H9R 8437   6.454   5.947   6.933 -0.4915 -0.4800  1.5175
   89SAPC  C210 8438   6.396   6.153   6.940  0.2853 -0.3408  0.1719
   89SAPC  H10R 8439   6.396   6.235   7.014  3.4171  0.2487 -0.3285
   89SAPC  H10S 8440   6.306   6.166   6.876  1.5484  3.2198 -1.1574
   89SAPC  C211 8441   6.516   6.165   6.852  0.0177  0.2322 -0.6976
   89SAPC  H11R 8442   6.610   6.155   6.908  1.3516 -0.8178 -2.9412
   89SAPC  C212 8443   6.536   6.148   6.720  0.6571  0.7415 -0.1493
   89SAPC  H12R 8444   6.636   6.169   6.679  1.4630 -0.9999  0.8366
   89SAPC  C213 8445   6.420   6.129   6.630  0.1745 -0.0146 -0.9235
   89SAPC  H13R 8446   6.397   6.231   6.594 -1.5420  0.2569  0.7749
   89SAPC  H13S 8447   6.329   6.101   6.687  1.4627 -3.9586 -0.4749
   89SAPC  C214 8448   6.422   6.042   6.512  0.1999  0.3277  1.0720
   89SAPC  H14R 8449   6.389   5.940   6.536  0.3970  0.2721  1.1062
   89SAPC  C215 8450   6.478   6.067   6.391 -0.5605  0.0032  0.4428
   89SAPC  H15R 8451   6.465   5.993   6.310  1.1211  1.0328 -0.8522
   89SAPC  C216 8452   6.548   6.194   6.344  0.4334  0.6889 -0.0258
   89SAPC  H16R 8453   6.643   6.158   6.299 -0.7989 -2.7745 -0.1418
   89SAPC  H16S 8454   6.565   6.281   6.411  1.5737  0.6878 -0.2765
   89SAPC  C217 8455   6.479   6.249   6.216  0.5107  0.3526  0.0559
   89SAPC  H17R 8456   6.375   6.283   6.234 -0.1228 -1.6617  0.4785
   89SAPC  H17S 8457   6.462   6.166   6.145 -1.8566 -1.2033  2.2766
   89SAPC  C218 8458   6.562   6.363   6.152 -0.6564 -0.1284  0.1541
   89SAPC  H18R 8459   6.592   6.430   6.237  3.6232 -3.6453  1.8136
   89SAPC  H18S 8460   6.500   6.416   6.077 -1.4154  0.6442  1.2945
   89SAPC  C219 8461   6.691   6.303   6.090  1.0375  0.1417  0.1775
   89SAPC  H19R 8462   6.665   6.220   6.022  0.8916  1.2493 -1.1687
   89SAPC  H19S 8463   6.759   6.268   6.170  0.9251 -0.5783 -0.0355
   89SAPC  C220 8464   6.773   6.402   6.004  0.2765 -1.0716  0.6074
   89SAPC  H20R 8465   6.875   6.362   5.984  1.1171  0.8228  0.8757
   89SAPC  H20S 8466   6.783   6.501   6.054  2.3580 -1.2685  0.6570
   89SAPC  H20T 8467   6.733   6.405   5.901  3.5500 -0.9448 -0.7836
   89SAPC   C33 8468   5.603   6.481   7.401  0.0169  0.3719  0.5412
   89SAPC   H3X 8469   5.703   6.434   7.391  0.2624  0.5669  1.8506
   89SAPC   H3Y 8470   5.609   6.591   7.391 -1.2339  0.5063  1.0614
   89SAPC   C34 8471   5.524   6.428   7.284 -0.2005 -0.5694  0.7078
   89SAPC   H4X 8472   5.438   6.497   7.285 -0.4964 -0.9263  1.4745
   89SAPC   H4Y 8473   5.488   6.322   7.288 -2.1023  0.0658  1.6428
   89SAPC   C35 8474   5.605   6.454   7.151 -0.2296 -0.3408 -0.0548
   89SAPC   H5X 8475   5.704   6.403   7.155 -0.5674 -0.8909  1.6509
   89SAPC   H5Y 8476   5.620   6.565   7.154 -1.5754 -0.1303 -0.4382
   89SAPC   C36 8477   5.529   6.406   7.027  0.0559 -0.3139 -0.2065
   89SAPC   H6X 8478   5.423   6.439   7.031 -0.4243 -1.6428 -1.1449
   89SAPC   H6Y 8479   5.521   6.296   7.042  1.1548 -0.1437  2.1473
   89SAPC   C37 8480   5.610   6.428   6.892  0.1098 -0.1345 -0.0610
   89SAPC   H7X 8481   5.694   6.356   6.889  0.1084 -0.1196 -0.5371
   89SAPC   H7Y 8482   5.656   6.528   6.907  1.4855 -0.7543  0.0070
   89SAPC   C38 8483   5.525   6.430   6.769  0.3526 -0.2960  0.2622
   89SAPC   H8X 8484   5.430   6.483   6.787 -1.2358 -2.2852 -1.5871
   89SAPC   H8Y 8485   5.485   6.326   6.766  0.5953 -0.4811  2.3655
   89SAPC   C39 8486   5.595   6.477   6.640 -0.1779  0.1899 -0.5346
   89SAPC   H9X 8487   5.687   6.415   6.642 -0.8984 -0.9202 -1.0792
   89SAPC   H9Y 8488   5.629   6.582   6.653  1.6429 -0.4009 -0.3073
   89SAPC  C310 8489   5.533   6.447   6.505 -0.3592 -0.2146  0.1181
   89SAPC  H10X 8490   5.450   6.519   6.486  0.8686  1.3234  0.3407
   89SAPC  H10Y 8491   5.504   6.340   6.500  1.4944 -0.7469  0.0745
   89SAPC  C311 8492   5.641   6.462   6.395 -0.8570  0.0113 -0.0980
   89SAPC  H11X 8493   5.709   6.375   6.397 -0.6487  0.1677 -0.2493
   89SAPC  H11Y 8494   5.703   6.553   6.414 -0.2390 -0.4140 -0.0473
   89SAPC  C312 8495   5.587   6.471   6.253 -0.3657 -0.2611  0.0321
   89SAPC  H12X 8496   5.536   6.566   6.224  0.2174 -0.1249 -0.5815
   89SAPC  H12Y 8497   5.507   6.394   6.249 -1.7636  1.1864 -2.7819
   89SAPC  C313 8498   5.675   6.450   6.128  0.1161  0.0653 -0.4059
   89SAPC  H13X 8499   5.718   6.348   6.134  0.8588  0.3386 -0.7904
   89SAPC  H13Y 8500   5.762   6.519   6.118 -1.6688  2.4760 -0.0480
   89SAPC  C314 8501   5.590   6.455   6.003  0.3337 -0.0284 -0.5224
   89SAPC  H14X 8502   5.557   6.561   5.998  0.0674 -0.0797  0.0912
   89SAPC  H14Y 8503   5.497   6.393   6.004  1.1563 -1.2916 -0.6413
   89SAPC  C315 8504   5.665   6.429   5.872  0.2081  0.8747  0.2069
   89SAPC  H15X 8505   5.711   6.328   5.880 -1.0766  0.1096 -1.4410
   89SAPC  H15Y 8506   5.748   6.502   5.869  0.5483  0.4967  0.2600
   89SAPC  C316 8507   5.577   6.438   5.748 -0.5607  0.0387 -0.2355
   89SAPC  H16X 8508   5.490   6.370   5.763  0.2977 -1.0599 -0.1267
   89SAPC  H16Y 8509   5.630   6.395   5.660 -1.2789 -2.4515  0.4567
   89SAPC  C317 8510   5.534   6.575   5.705  0.2566 -0.8276  0.3161
   89SAPC  H17X 8511   5.624   6.640   5.698 -0.2050 -0.0982  1.0206
   89SAPC  H17Y 8512   5.473   6.628   5.782  2.2320 -0.5628  1.7757
   89SAPC  C318 8513   5.470   6.571   5.566 -0.1451  0.2500 -0.0816
   89SAPC  H18X 8514   5.460   6.669   5.514  2.9954  0.5225 -0.3671
   89SAPC  H18Y 8515   5.378   6.511   5.581  0.6157 -0.4752  2.0563
   89SAPC  H18Z 8516   5.533   6.505   5.502 -2.3783 -1.5687 -0.5451
   90SAPC     N 8517   3.169   0.609   8.314 -0.3950  0.3659 -0.0540
   90SAPC   C12 8518   3.257   0.601   8.189  0.6197  0.1701  0.2842
   90SAPC  H12A 8519   3.284   0.496   8.186  0.5436  0.1704 -0.5281
   90SAPC  H12B 8520   3.354   0.648   8.200  1.5298 -1.4942 -0.2233
   90SAPC   C13 8521   3.067   0.500   8.310 -0.9271  0.1975 -0.2459
   90SAPC  H13A 8522   2.978   0.524   8.366  1.6691  2.2867  3.4506
   90SAPC  H13B 8523   3.041   0.489   8.206 -1.0576  1.4524 -0.3607
   90SAPC  H13C 8524   3.109   0.407   8.344 -0.4957  0.3966 -0.2146
   90SAPC   C14 8525   3.248   0.598   8.435 -0.0968  0.1567 -0.1934
   90SAPC  H14A 8526   3.192   0.608   8.527  1.5225 -0.5934  0.9184
   90SAPC  H14B 8527   3.293   0.500   8.434  0.0172  0.1851  0.8208
   90SAPC  H14C 8528   3.332   0.665   8.430 -0.2930  0.3396 -1.2517
   90SAPC   C15 8529   3.098   0.738   8.325 -0.1408 -0.4628 -0.1745
   90SAPC  H15A 8530   3.049   0.763   8.232  0.5339 -1.5746 -0.8507
   90SAPC  H15B 8531   3.020   0.729   8.399  2.2308 -0.7450  2.4647
   90SAPC  H15C 8532   3.163   0.813   8.369  0.5691 -0.8326 -0.5744
   90SAPC   C11 8533   3.199   0.652   8.060 -0.1313  0.5108 -0.6743
   90SAPC  H11A 8534   3.096   0.617   8.039 -0.6616  2.1051 -0.8826
   90SAPC  H11B 8535   3.258   0.601   7.981 -0.3754 -2.1312  0.7415
   90SAPC     P 8536   3.133   0.848   7.913 -0.1884 -0.2844  0.0313
   90SAPC   O13 8537   2.992   0.808   7.924 -0.0788  0.9596  0.0457
   90SAPC   O14 8538   3.154   0.994   7.905  0.7340 -0.7775  0.0085
   90SAPC   O12 8539   3.209   0.794   8.041 -0.3900 -0.0400 -0.3331
   90SAPC   O11 8540   3.207   0.780   7.791  0.1854 -0.1853  0.0963
   90SAPC    C1 8541   3.312   0.842   7.722 -0.4899  0.9300 -0.0518
   90SAPC    HA 8542   3.372   0.902   7.793  0.0358 -0.4058  0.6687
   90SAPC    HB 8543   3.375   0.757   7.687  2.3479  1.6327  2.8589
   90SAPC    C2 8544   3.287   0.925   7.595  0.7195  0.1106  0.1764
   90SAPC    HS 8545   3.240   1.016   7.640  0.7812  0.1807  0.0987
   90SAPC   O21 8546   3.212   0.842   7.506  0.5906  0.4775  0.2500
   90SAPC   C21 8547   3.119   0.921   7.435  0.2650  0.2143  0.4019
   90SAPC   O22 8548   3.096   1.038   7.454  0.3505  0.3835  0.1157
   90SAPC   C22 8549   3.055   0.834   7.326 -0.1497 -1.3215 -0.0743
   90SAPC   H2R 8550   2.984   0.760   7.369 -1.6394  0.3796  0.5744
   90SAPC   H2S 8551   2.999   0.902   7.258  0.0262  0.6163  1.5877
   90SAPC    C3 8552   3.427   0.960   7.533 -0.0235 -0.5061 -0.3465
   90SAPC    HX 8553   3.496   0.873   7.527 -0.7492 -1.0756 -0.7970
   90SAPC    HY 8554   3.485   1.032   7.594  1.0636 -2.8096  1.5186
   90SAPC   O31 8555   3.417   1.007   7.395 -0.2153 -0.2324  0.5494
   90SAPC   C31 8556   3.452   1.134   7.362 -0.1367  0.0839  0.1007
   90SAPC   O32 8557   3.480   1.221   7.445 -0.2919 -0.2252  0.5335
   90SAPC   C32 8558   3.434   1.159   7.212 -0.4613 -0.3779  0.2021
   90SAPC   H2X 8559   3.393   1.064   7.173  0.6461 -1.6511  1.9735
   90SAPC   H2Y 8560   3.532   1.173   7.162 -0.0703 -2.4391  0.2965
   90SAPC   C23 8561   3.167   0.763   7.248 -0.2216  0.4599 -0.3314
   90SAPC   H3R 8562   3.212   0.686   7.315 -0.2090  0.7045 -0.0563
   90SAPC   H3S 8563   3.248   0.835   7.224 -1.4299  1.7085 -0.7224
   90SAPC   C24 8564   3.133   0.704   7.111 -0.8716 -0.5183  0.1729
   90SAPC   H4R 8565   3.054   0.626   7.119 -1.9082  0.0314 -3.2683
   90SAPC   H4S 8566   3.228   0.664   7.071 -0.1205  3.4149 -2.5965
   90SAPC   C25 8567   3.092   0.808   7.010  0.4762  0.2614 -0.6258
   90SAPC   H5R 8568   3.025   0.883   7.055  1.7417  0.2613  1.3607
   90SAPC   C26 8569   3.127   0.831   6.887  0.4013  0.0449 -0.1538
   90SAPC   H6R 8570   3.086   0.919   6.834 -0.9480 -0.0847  0.6331
   90SAPC   C27 8571   3.217   0.741   6.808  0.0639 -0.7174 -0.0261
   90SAPC   H7R 8572   3.231   0.642   6.856  0.8436 -0.5911  0.0226
   90SAPC   H7S 8573   3.316   0.791   6.819 -0.5922  0.8750 -0.9261
   90SAPC   C28 8574   3.188   0.706   6.670 -0.1382  0.4420 -0.1939
   90SAPC   H8R 8575   3.149   0.607   6.642 -0.5635  1.6474 -4.6522
   90SAPC   C29 8576   3.205   0.791   6.567  0.2432  0.1845 -0.0211
   90SAPC   H9R 8577   3.194   0.754   6.464  0.6850  1.0665 -0.3963
   90SAPC  C210 8578   3.259   0.933   6.569  0.4953 -0.0181 -0.4376
   90SAPC  H10R 8579   3.369   0.932   6.554  0.4660 -4.0574 -1.7415
   90SAPC  H10S 8580   3.239   0.988   6.663  1.0784 -0.8350  0.1757
   90SAPC  C211 8581   3.190   1.004   6.451 -0.5451 -0.8612 -0.2119
   90SAPC  H11R 8582   3.118   1.081   6.482 -0.4104 -1.5884  2.0310
   90SAPC  C212 8583   3.233   0.991   6.322 -0.3188  0.8031  0.7098
   90SAPC  H12R 8584   3.177   1.045   6.244 -2.4852 -1.7501  0.3858
   90SAPC  C213 8585   3.321   0.888   6.261  0.4880 -0.0438  0.4840
   90SAPC  H13R 8586   3.250   0.820   6.210 -0.4660  1.5287 -0.3436
   90SAPC  H13S 8587   3.370   0.828   6.341  1.4901  1.7274  1.2789
   90SAPC  C214 8588   3.424   0.949   6.170  0.4353  0.2712  0.2605
   90SAPC  H14R 8589   3.512   0.994   6.219 -1.4314  1.2333  2.9678
   90SAPC  C215 8590   3.416   0.947   6.038  0.2795 -0.3404  0.3149
   90SAPC  H15R 8591   3.504   0.987   5.985  1.0381  0.2259  1.9614
   90SAPC  C216 8592   3.318   0.884   5.948  0.2894  0.1746 -0.1927
   90SAPC  H16R 8593   3.286   0.790   5.999  2.6464 -1.3032 -1.2725
   90SAPC  H16S 8594   3.354   0.840   5.853 -2.8149 -2.5991 -0.2777
   90SAPC  C217 8595   3.184   0.951   5.918  0.2321 -0.8194 -0.4785
   90SAPC  H17R 8596   3.206   1.048   5.868 -0.2396 -2.5156 -4.3484
   90SAPC  H17S 8597   3.129   0.955   6.015  2.6979 -1.3930  1.0313
   90SAPC  C218 8598   3.112   0.880   5.806 -0.5141  0.3355 -0.1510
   90SAPC  H18R 8599   3.168   0.880   5.710  1.2214  2.5538  0.7515
   90SAPC  H18S 8600   3.018   0.936   5.789 -0.7592 -0.0218  0.0235
   90SAPC  C219 8601   3.072   0.735   5.825 -0.3309 -0.4906 -0.7504
   90SAPC  H19R 8602   3.021   0.738   5.924  1.0901 -1.8765  0.0734
   90SAPC  H19S 8603   3.159   0.668   5.838 -0.7711 -0.8525  0.5552
   90SAPC  C220 8604   2.978   0.678   5.717 -0.3684 -0.1533 -0.4412
   90SAPC  H20R 8605   3.039   0.660   5.627  3.0580 -0.3588  1.7334
   90SAPC  H20S 8606   2.891   0.746   5.711 -0.3046  0.0544  0.6486
   90SAPC  H20T 8607   2.948   0.575   5.749  1.4754 -0.2928  1.0420
   90SAPC   C33 8608   3.345   1.282   7.174 -0.3368  0.1816 -0.7879
   90SAPC   H3X 8609   3.389   1.380   7.199  1.1634 -0.5819 -0.3034
   90SAPC   H3Y 8610   3.259   1.258   7.241 -0.2858  0.5993 -0.5705
   90SAPC   C34 8611   3.287   1.272   7.034 -0.4885  0.6680  0.4106
   90SAPC   H4X 8612   3.221   1.360   7.022  0.0496  0.9976 -0.2192
   90SAPC   H4Y 8613   3.217   1.186   7.029 -1.3630  0.9803  3.9988
   90SAPC   C35 8614   3.388   1.277   6.920  0.0728  0.5709 -0.1452
   90SAPC   H5X 8615   3.442   1.180   6.916  1.3004  1.1646  1.3716
   90SAPC   H5Y 8616   3.458   1.360   6.942  0.0556  1.3710 -2.8026
   90SAPC   C36 8617   3.315   1.310   6.786 -0.1403  0.2550 -0.5483
   90SAPC   H6X 8618   3.252   1.401   6.790  1.2531  1.2227  0.7217
   90SAPC   H6Y 8619   3.248   1.225   6.760  1.4901 -0.7859 -1.5330
   90SAPC   C37 8620   3.420   1.321   6.675  0.3363  0.2149  0.7643
   90SAPC   H7X 8621   3.473   1.224   6.664  1.0558  0.5017  1.6422
   90SAPC   H7Y 8622   3.498   1.399   6.679  0.5822  0.1196 -0.9916
   90SAPC   C38 8623   3.344   1.351   6.541  0.0107 -0.6367 -0.0236
   90SAPC   H8X 8624   3.294   1.450   6.547 -1.3883 -1.3715  0.8032
   90SAPC   H8Y 8625   3.264   1.275   6.531 -1.2237 -0.3045  4.8481
   90SAPC   C39 8626   3.425   1.348   6.411 -0.5478 -0.0919  0.0016
   90SAPC   H9X 8627   3.457   1.247   6.377 -0.6236  0.8476 -3.1858
   90SAPC   H9Y 8628   3.514   1.413   6.424 -1.2835  1.6064 -2.6954
   90SAPC  C310 8629   3.338   1.395   6.291 -0.5641 -0.8332  0.0393
   90SAPC  H10X 8630   3.316   1.501   6.313  0.3555 -0.5565 -0.2986
   90SAPC  H10Y 8631   3.243   1.339   6.282 -1.3710 -0.3540  3.8139
   90SAPC  C311 8632   3.422   1.386   6.160 -0.0457 -0.2974 -0.4192
   90SAPC  H11X 8633   3.461   1.282   6.165 -0.2036 -0.3022  1.7801
   90SAPC  H11Y 8634   3.501   1.465   6.152  0.5560 -0.9904 -1.5884
   90SAPC  C312 8635   3.346   1.396   6.029  0.5027  0.1810  0.8244
   90SAPC  H12X 8636   3.275   1.311   6.030  0.6662 -0.0119  3.4032
   90SAPC  H12Y 8637   3.418   1.388   5.945  2.0980  0.1646  2.1423
   90SAPC  C313 8638   3.272   1.520   5.992 -0.3280 -0.7730  0.5800
   90SAPC  H13X 8639   3.332   1.612   6.009 -1.2582 -0.2640  1.1674
   90SAPC  H13Y 8640   3.179   1.529   6.052 -1.6043 -1.8996 -1.1468
   90SAPC  C314 8641   3.231   1.516   5.847  0.2917  0.2956 -0.2707
   90SAPC  H14X 8642   3.310   1.492   5.772 -1.9411 -2.5938 -1.8977
   90SAPC  H14Y 8643   3.189   1.611   5.809  2.3418  0.5720 -2.0546
   90SAPC  C315 8644   3.117   1.416   5.817 -0.3395  0.0719 -0.5353
   90SAPC  H15X 8645   3.031   1.451   5.878  0.8666  1.1009  0.6112
   90SAPC  H15Y 8646   3.149   1.318   5.858 -1.5904  0.0392  0.4246
   90SAPC  C316 8647   3.090   1.403   5.669 -0.0798 -0.4353  0.2172
   90SAPC  H16X 8648   3.184   1.383   5.613  1.1922 -0.6196  2.3141
   90SAPC  H16Y 8649   3.055   1.498   5.625 -3.0391 -1.0852  0.9671
   90SAPC  C317 8650   2.998   1.288   5.633  0.1911  0.3560 -0.5654
   90SAPC  H17X 8651   2.892   1.308   5.660  0.6653  0.4232  1.4852
   90SAPC  H17Y 8652   3.022   1.203   5.701  0.1154 -0.4158 -1.4866
   90SAPC  C318 8653   3.016   1.229   5.495 -0.3207 -0.0219  0.6095
   90SAPC  H18X 8654   2.987   1.303   5.417  1.3282  0.7974  0.7211
   90SAPC  H18Y 8655   2.957   1.137   5.478 -0.1994 -0.0099  0.0801
   90SAPC  H18Z 8656   3.123   1.206   5.478  0.2693  1.5351  2.0082
   91SAPC     N 8657   0.431   2.229   8.058 -0.0697 -0.5511  0.2833
   91SAPC   C12 8658   0.535   2.196   7.953 -0.1661  0.4638  0.3099
   91SAPC  H12A 8659   0.569   2.096   7.978  0.2909  0.5766  0.1453
   91SAPC  H12B 8660   0.624   2.253   7.975 -0.4860  1.2471 -0.3883
   91SAPC   C13 8661   0.380   2.370   8.036 -0.3887  0.0806 -0.2136
   91SAPC  H13A 8662   0.453   2.447   8.016  0.1562 -0.1549  0.8149
   91SAPC  H13B 8663   0.308   2.369   7.955 -0.1668 -1.0769 -0.4175
   91SAPC  H13C 8664   0.331   2.408   8.124  0.9813  2.2807 -0.3393
   91SAPC   C14 8665   0.318   2.128   8.049 -0.2689  0.0676  0.7593
   91SAPC  H14A 8666   0.252   2.153   8.131 -0.3634  2.9502 -0.0829
   91SAPC  H14B 8667   0.269   2.145   7.954  0.3115  2.9555  0.8814
   91SAPC  H14C 8668   0.334   2.022   8.062 -0.4754 -0.1612 -0.6792
   91SAPC   C15 8669   0.506   2.205   8.187  0.2238 -0.3498  0.2843
   91SAPC  H15A 8670   0.589   2.274   8.195 -0.8899  1.0224  0.3044
   91SAPC  H15B 8671   0.452   2.210   8.280 -0.5049 -0.5806 -0.1185
   91SAPC  H15C 8672   0.565   2.114   8.180  1.1550  0.2703 -0.1461
   91SAPC   C11 8673   0.491   2.188   7.806 -0.1055 -0.0168  0.8514
   91SAPC  H11A 8674   0.576   2.191   7.735  0.8027 -1.9118  1.7813
   91SAPC  H11B 8675   0.432   2.279   7.780  0.1070 -0.5252 -1.6839
   91SAPC     P 8676   0.473   1.931   7.772  0.3846 -0.0043  0.1242
   91SAPC   O13 8677   0.615   1.945   7.741 -0.6088 -0.6760  0.2106
   91SAPC   O14 8678   0.432   1.870   7.902 -0.4638 -0.4060  0.5265
   91SAPC   O12 8679   0.409   2.073   7.770  0.1977 -0.3299  0.9382
   91SAPC   O11 8680   0.415   1.860   7.653  1.2255 -0.0035  0.2019
   91SAPC    C1 8681   0.306   1.909   7.573 -0.1887 -0.7794 -0.3316
   91SAPC    HA 8682   0.216   1.909   7.638 -0.5126  0.8946 -0.7283
   91SAPC    HB 8683   0.329   2.012   7.540 -1.0041 -0.2879  0.5941
   91SAPC    C2 8684   0.267   1.821   7.450 -0.3005  0.2708  0.1450
   91SAPC    HS 8685   0.203   1.733   7.474  0.0656  0.2834  1.2054
   91SAPC   O21 8686   0.397   1.792   7.388  0.6140 -0.8012 -0.1234
   91SAPC   C21 8687   0.387   1.726   7.278 -0.4201 -0.8713  0.6396
   91SAPC   O22 8688   0.295   1.658   7.238  0.2859  0.2871 -0.3938
   91SAPC   C22 8689   0.519   1.741   7.210 -0.5235  0.5346  0.2594
   91SAPC   H2R 8690   0.562   1.843   7.220 -0.7903  0.4864  2.3024
   91SAPC   H2S 8691   0.583   1.660   7.251 -1.7518 -1.1085 -0.8890
   91SAPC    C3 8692   0.185   1.906   7.354 -0.4879  0.9859 -0.1989
   91SAPC    HX 8693   0.104   1.947   7.419  0.6275  0.6355  1.4528
   91SAPC    HY 8694   0.136   1.832   7.287  0.1571  0.5823 -0.2233
   91SAPC   O31 8695   0.265   2.011   7.299 -0.2104  0.0790 -0.3146
   91SAPC   C31 8696   0.214   2.054   7.181  1.0266 -0.0039 -0.1336
   91SAPC   O32 8697   0.111   2.019   7.127 -0.4419  0.0154 -0.1065
   91SAPC   C32 8698   0.314   2.158   7.130  0.1140 -0.2991  0.5603
   91SAPC   H2X 8699   0.345   2.221   7.216 -1.9636 -0.2012  1.2999
   91SAPC   H2Y 8700   0.261   2.235   7.069  0.7259  0.1834  0.6275
   91SAPC   C23 8701   0.533   1.694   7.060 -0.1152  0.0575  0.2977
   91SAPC   H3R 8702   0.470   1.747   6.985  1.6514  0.6399 -0.8591
   91SAPC   H3S 8703   0.494   1.590   7.059 -0.1328  0.0476  1.2161
   91SAPC   C24 8704   0.680   1.677   7.018 -0.6685  0.0692  0.7892
   91SAPC   H4R 8705   0.742   1.622   7.093 -1.4264  0.2019  1.5256
   91SAPC   H4S 8706   0.720   1.780   7.008  1.4081 -0.8812 -1.7867
   91SAPC   C25 8707   0.692   1.607   6.885  0.6419  0.8450  0.0907
   91SAPC   H5R 8708   0.655   1.504   6.883 -0.4795  1.2475 -1.5708
   91SAPC   C26 8709   0.752   1.656   6.777  0.1104  0.0513 -0.0559
   91SAPC   H6R 8710   0.758   1.588   6.691  0.3297 -0.9552  0.7412
   91SAPC   C27 8711   0.804   1.801   6.752  0.0221  0.6784 -0.4854
   91SAPC   H7R 8712   0.904   1.799   6.702  1.4706  1.8560  2.1160
   91SAPC   H7S 8713   0.830   1.840   6.853 -0.7955  2.7895 -1.0454
   91SAPC   C28 8714   0.710   1.902   6.697  0.1387  0.2672  0.5552
   91SAPC   H8R 8715   0.607   1.875   6.725  0.3743 -0.4664  0.7492
   91SAPC   C29 8716   0.740   2.011   6.618  0.3127 -0.1407 -0.3559
   91SAPC   H9R 8717   0.661   2.083   6.595 -0.6993 -0.1245  2.6940
   91SAPC  C210 8718   0.873   2.048   6.566 -0.1014  0.0993  0.1984
   91SAPC  H10R 8719   0.856   2.117   6.480  0.6696  0.8305  0.6118
   91SAPC  H10S 8720   0.935   1.958   6.547 -0.9662 -0.7089  1.0963
   91SAPC  C211 8721   0.942   2.123   6.679 -0.0297 -0.1833  0.4330
   91SAPC  H11R 8722   0.988   2.057   6.755  0.9192  0.8621  0.7771
   91SAPC  C212 8723   0.945   2.256   6.691 -0.5105  0.1076 -0.1842
   91SAPC  H12R 8724   1.010   2.290   6.773 -0.2793  0.3251 -0.4551
   91SAPC  C213 8725   0.890   2.358   6.600  0.5255 -0.1124 -0.6034
   91SAPC  H13R 8726   0.784   2.382   6.626  0.5008 -1.0447  0.2127
   91SAPC  H13S 8727   0.881   2.332   6.492 -1.5976  2.4366 -1.1465
   91SAPC  C214 8728   0.983   2.479   6.603  0.0536 -0.4640 -0.6379
   91SAPC  H14R 8729   1.073   2.475   6.540  1.4262  0.2507  1.2075
   91SAPC  C215 8730   0.954   2.586   6.682 -0.6353 -0.4661  0.0251
   91SAPC  H15R 8731   1.028   2.668   6.690 -0.2176 -0.8962  0.6102
   91SAPC  C216 8732   0.840   2.596   6.786 -0.3015 -0.6337  0.2375
   91SAPC  H16R 8733   0.793   2.498   6.808 -1.3636 -0.2420 -0.2239
   91SAPC  H16S 8734   0.754   2.653   6.743  1.6460  2.4355  0.0929
   91SAPC  C217 8735   0.886   2.650   6.921  0.0081 -0.0443  0.3013
   91SAPC  H17R 8736   0.943   2.745   6.913 -1.0140  0.4719 -1.4798
   91SAPC  H17S 8737   0.949   2.574   6.973  1.8234  0.1096 -1.5479
   91SAPC  C218 8738   0.768   2.684   7.015  0.1488  0.7256 -0.4447
   91SAPC  H18R 8739   0.700   2.596   7.029  0.5798  0.1938 -1.5405
   91SAPC  H18S 8740   0.700   2.758   6.967 -3.4043 -1.1542  1.2370
   91SAPC  C219 8741   0.821   2.732   7.155  0.2791 -0.2759  0.5014
   91SAPC  H19R 8742   0.882   2.822   7.130  1.0093 -1.3803 -1.9195
   91SAPC  H19S 8743   0.890   2.656   7.198 -0.9420 -1.6418  0.1183
   91SAPC  C220 8744   0.712   2.772   7.252  0.2031  0.4148  0.9630
   91SAPC  H20R 8745   0.658   2.862   7.217 -1.1115 -0.4693  0.6547
   91SAPC  H20S 8746   0.764   2.800   7.346  1.9152 -1.0221  0.5066
   91SAPC  H20T 8747   0.647   2.688   7.286  0.3850  0.4095  1.3076
   91SAPC   C33 8748   0.428   2.084   7.051  0.2407  0.1645  0.0142
   91SAPC   H3X 8749   0.441   1.978   7.082 -1.8151 -0.1280  0.0531
   91SAPC   H3Y 8750   0.521   2.144   7.063  0.9946 -1.1167  0.8534
   91SAPC   C34 8751   0.392   2.068   6.900 -0.1366 -0.0292 -0.0857
   91SAPC   H4X 8752   0.328   1.986   6.861 -1.4695  0.3940  1.1129
   91SAPC   H4Y 8753   0.492   2.038   6.864 -1.1413 -1.9533 -1.5072
   91SAPC   C35 8754   0.352   2.201   6.833  0.7226  0.0965 -0.8872
   91SAPC   H5X 8755   0.397   2.278   6.900  0.5259  0.4311 -1.1379
   91SAPC   H5Y 8756   0.243   2.216   6.821  0.5651 -2.4569 -4.6385
   91SAPC   C36 8757   0.417   2.216   6.698 -0.6327 -0.2563  0.4090
   91SAPC   H6X 8758   0.378   2.137   6.632 -1.9515  0.0415  0.7934
   91SAPC   H6Y 8759   0.527   2.202   6.707 -0.2014  0.0580 -3.1262
   91SAPC   C37 8760   0.406   2.351   6.626  0.1411  0.2455 -0.1087
   91SAPC   H7X 8761   0.477   2.413   6.686  1.5627 -0.2932 -1.1964
   91SAPC   H7Y 8762   0.308   2.403   6.637  0.0752  0.0433  0.2826
   91SAPC   C38 8763   0.464   2.354   6.489 -0.3953 -0.3650  0.4280
   91SAPC   H8X 8764   0.562   2.304   6.475 -1.4017 -1.6067 -3.3465
   91SAPC   H8Y 8765   0.470   2.461   6.458  0.9635 -0.6246 -0.2611
   91SAPC   C39 8766   0.373   2.279   6.388 -0.2266  0.3594 -0.8641
   91SAPC   H9X 8767   0.264   2.282   6.409 -0.0955 -0.0855 -0.0819
   91SAPC   H9Y 8768   0.399   2.171   6.403 -0.0575  0.6329  1.0568
   91SAPC  C310 8769   0.408   2.313   6.238 -0.2893 -0.0433 -0.3348
   91SAPC  H10X 8770   0.384   2.421   6.226 -1.8535 -0.3459 -0.0633
   91SAPC  H10Y 8771   0.355   2.254   6.161  0.5289  0.4035 -1.2656
   91SAPC  C311 8772   0.557   2.300   6.204 -0.1863 -0.1706  1.1061
   91SAPC  H11X 8773   0.589   2.194   6.213  1.8121  0.2475 -0.4306
   91SAPC  H11Y 8774   0.614   2.358   6.280 -0.2488 -0.7681  1.6224
   91SAPC  C312 8775   0.572   2.335   6.055  0.2166  0.4754 -0.3869
   91SAPC  H12X 8776   0.543   2.442   6.048  0.5546  0.5378 -0.8882
   91SAPC  H12Y 8777   0.500   2.270   5.999  0.2248  0.0814  0.0607
   91SAPC  C313 8778   0.717   2.326   6.012  0.7848  0.3513  0.7687
   91SAPC  H13X 8779   0.736   2.220   5.984  0.9574  1.0181 -1.8599
   91SAPC  H13Y 8780   0.794   2.355   6.087  0.2270 -0.6085  1.7574
   91SAPC  C314 8781   0.735   2.410   5.884  1.2322  0.1987  0.0370
   91SAPC  H14X 8782   0.839   2.399   5.846  1.4648 -0.5839  0.8759
   91SAPC  H14Y 8783   0.722   2.520   5.892  1.8270  0.3565 -0.9674
   91SAPC  C315 8784   0.639   2.372   5.771 -0.1923  0.1382 -0.0846
   91SAPC  H15X 8785   0.535   2.399   5.800 -0.0066  1.5697 -0.7033
   91SAPC  H15Y 8786   0.648   2.261   5.767 -0.6317  0.0557  0.9144
   91SAPC  C316 8787   0.675   2.428   5.630 -0.7398 -0.2648  0.0584
   91SAPC  H16X 8788   0.786   2.431   5.617 -1.0786  0.2771 -3.7392
   91SAPC  H16Y 8789   0.653   2.536   5.639 -0.8616 -0.3489  0.8604
   91SAPC  C317 8790   0.610   2.361   5.510  0.2637  0.1201 -0.7823
   91SAPC  H17X 8791   0.502   2.341   5.527  0.2907  1.7108  1.6495
   91SAPC  H17Y 8792   0.650   2.257   5.519  0.1660  0.2178  1.1492
   91SAPC  C318 8793   0.640   2.420   5.375 -0.3264  0.4919 -0.7782
   91SAPC  H18X 8794   0.585   2.359   5.300  1.0895  1.7385 -2.9409
   91SAPC  H18Y 8795   0.749   2.416   5.354 -0.3308 -1.0088 -0.6723
   91SAPC  H18Z 8796   0.606   2.525   5.366 -4.0298 -0.5610 -0.8933
   92SAPC     N 8797   6.738   0.995   7.952  0.4008  0.1172 -0.8678
   92SAPC   C12 8798   6.770   1.000   7.806 -0.4139 -0.2880  0.1892
   92SAPC  H12A 8799   6.867   0.955   7.791 -1.6310 -2.7050 -0.8675
   92SAPC  H12B 8800   6.782   1.103   7.774  0.1227  0.0233  1.3209
   92SAPC   C13 8801   6.834   1.069   8.038  0.7789  0.3184 -0.1139
   92SAPC  H13A 8802   6.832   1.045   8.143  0.9368 -0.1712 -0.2182
   92SAPC  H13B 8803   6.937   1.051   8.014  0.6073 -1.1922  0.1819
   92SAPC  H13C 8804   6.812   1.175   8.031  2.0779  0.5141 -2.1591
   92SAPC   C14 8805   6.603   1.052   7.980  0.1810  0.7181  0.5207
   92SAPC  H14A 8806   6.535   0.990   7.924 -1.7958  2.8248  0.4013
   92SAPC  H14B 8807   6.574   1.040   8.084 -2.3989 -0.4011 -0.2486
   92SAPC  H14C 8808   6.597   1.159   7.967 -1.4036  0.3639 -2.7082
   92SAPC   C15 8809   6.732   0.848   7.982 -0.4080 -0.3044 -0.0120
   92SAPC  H15A 8810   6.690   0.831   8.080  1.2561  1.5938  1.1108
   92SAPC  H15B 8811   6.674   0.796   7.908 -1.1992 -0.8203  0.9485
   92SAPC  H15C 8812   6.833   0.809   7.974  0.0547  0.7422  0.5931
   92SAPC   C11 8813   6.679   0.933   7.695 -0.9174  0.5289 -0.7746
   92SAPC  H11A 8814   6.656   0.828   7.725  1.6980  0.4613  1.3164
   92SAPC  H11B 8815   6.732   0.940   7.598  0.0538  2.3707 -0.1603
   92SAPC     P 8816   6.529   1.103   7.566  0.5185  0.1416  0.0790
   92SAPC   O13 8817   6.403   1.174   7.607 -0.2317  0.7219 -0.6093
   92SAPC   O14 8818   6.650   1.184   7.545  0.7335 -0.0584  0.0477
   92SAPC   O12 8819   6.552   1.001   7.680 -0.1300 -0.0327  0.2098
   92SAPC   O11 8820   6.509   1.004   7.446  0.4447  0.3446 -0.3008
   92SAPC    C1 8821   6.382   0.982   7.385  0.3481 -0.3120 -0.5226
   92SAPC    HA 8822   6.317   1.071   7.398 -0.4173 -1.0890  1.3517
   92SAPC    HB 8823   6.395   0.991   7.275  2.3168  3.5672 -0.1219
   92SAPC    C2 8824   6.316   0.851   7.423  0.6882  0.1491 -0.0117
   92SAPC    HS 8825   6.294   0.841   7.532 -1.6539 -1.1395 -0.5345
   92SAPC   O21 8826   6.407   0.756   7.380 -0.0669  0.8956 -0.5860
   92SAPC   C21 8827   6.403   0.634   7.438  0.2711 -0.5347  0.6366
   92SAPC   O22 8828   6.323   0.596   7.519  0.4288 -0.9312 -0.2856
   92SAPC   C22 8829   6.503   0.547   7.364  0.1018 -0.3407 -0.2823
   92SAPC   H2R 8830   6.564   0.615   7.302 -1.2792 -0.4572 -1.8478
   92SAPC   H2S 8831   6.570   0.493   7.435 -0.6695 -0.1028  0.6604
   92SAPC    C3 8832   6.173   0.833   7.361  0.1358  0.5148  0.1522
   92SAPC    HX 8833   6.127   0.932   7.382  0.6901  1.2184 -1.7394
   92SAPC    HY 8834   6.118   0.747   7.406  0.3208  0.6238  0.5877
   92SAPC   O31 8835   6.187   0.836   7.219  0.0259  0.2987  0.2599
   92SAPC   C31 8836   6.165   0.715   7.165 -0.4932 -0.4963 -0.5426
   92SAPC   O32 8837   6.167   0.610   7.223  0.0799  0.7103 -0.2906
   92SAPC   C32 8838   6.145   0.734   7.009 -1.0164  0.0256 -0.2626
   92SAPC   H2X 8839   6.176   0.838   6.985  1.0888  0.1960  2.7070
   92SAPC   H2Y 8840   6.035   0.739   6.995 -1.1891  4.1957  1.1656
   92SAPC   C23 8841   6.437   0.456   7.268 -0.0635  0.3410 -0.6704
   92SAPC   H3R 8842   6.375   0.504   7.189  0.0513 -1.4084 -1.8999
   92SAPC   H3S 8843   6.376   0.377   7.316  1.9170 -1.0382 -0.2919
   92SAPC   C24 8844   6.545   0.384   7.177  0.3405  0.0235 -0.1491
   92SAPC   H4R 8845   6.601   0.459   7.118  0.7790 -1.0044 -1.0648
   92SAPC   H4S 8846   6.500   0.324   7.095  3.8272 -3.2359  0.0615
   92SAPC   C25 8847   6.617   0.285   7.262  0.4487 -0.4643  0.3649
   92SAPC   H5R 8848   6.556   0.214   7.320 -0.0116  0.9319  1.6646
   92SAPC   C26 8849   6.751   0.286   7.278  0.4149 -0.6875 -0.3033
   92SAPC   H6R 8850   6.790   0.208   7.345 -1.2680  0.6406  2.3929
   92SAPC   C27 8851   6.857   0.382   7.229 -0.3088  0.2835 -0.1752
   92SAPC   H7R 8852   6.822   0.466   7.165  0.0805 -0.4318 -1.3595
   92SAPC   H7S 8853   6.924   0.324   7.162  2.0203  0.8060  1.5460
   92SAPC   C28 8854   6.938   0.455   7.334  0.5153  0.5665  0.0165
   92SAPC   H8R 8855   6.895   0.457   7.435 -2.5134  0.1932 -1.1787
   92SAPC   C29 8856   7.057   0.508   7.319  1.0261  0.0269 -1.4115
   92SAPC   H9R 8857   7.103   0.563   7.403  0.1049 -0.5299 -0.5219
   92SAPC  C210 8858   7.125   0.521   7.189  0.2579  0.1958  0.6310
   92SAPC  H10R 8859   7.096   0.442   7.117  0.4800  2.9139 -2.7026
   92SAPC  H10S 8860   7.232   0.509   7.219  0.6887  0.6386 -0.6622
   92SAPC  C211 8861   7.117   0.655   7.128 -0.3085 -0.3332  0.2500
   92SAPC  H11R 8862   7.113   0.741   7.197  1.8063  0.8054 -0.9353
   92SAPC  C212 8863   7.124   0.684   6.998 -0.2903  0.9489  0.4124
   92SAPC  H12R 8864   7.115   0.786   6.960 -0.2994  0.1406 -1.9367
   92SAPC  C213 8865   7.159   0.582   6.892 -0.2918 -0.6351 -0.0179
   92SAPC  H13R 8866   7.070   0.573   6.826  1.4313 -2.0074 -2.2576
   92SAPC  H13S 8867   7.189   0.484   6.935  0.8114 -0.5077 -0.4754
   92SAPC  C214 8868   7.281   0.617   6.810 -0.6306 -0.1210  0.1213
   92SAPC  H14R 8869   7.379   0.591   6.853  0.2884  2.3173 -0.3259
   92SAPC  C215 8870   7.289   0.679   6.689  0.4994 -0.3394  0.4781
   92SAPC  H15R 8871   7.390   0.703   6.654 -0.1373  1.4657 -0.2376
   92SAPC  C216 8872   7.192   0.721   6.584  0.1695  0.1943 -0.1520
   92SAPC  H16R 8873   7.088   0.726   6.622  0.2847  0.6564  0.1169
   92SAPC  H16S 8874   7.193   0.631   6.519  0.5615  0.8071 -1.0156
   92SAPC  C217 8875   7.227   0.838   6.489  0.4375 -0.1720 -0.2933
   92SAPC  H17R 8876   7.253   0.929   6.547 -0.8651 -0.3329  0.5616
   92SAPC  H17S 8877   7.148   0.855   6.413  0.9342  1.1249 -0.5623
   92SAPC  C218 8878   7.353   0.801   6.402  0.1679 -0.1326 -0.6968
   92SAPC  H18R 8879   7.321   0.706   6.354 -1.2667  0.1273 -0.2975
   92SAPC  H18S 8880   7.441   0.788   6.468 -0.2973  0.3256  0.0254
   92SAPC  C219 8881   7.388   0.908   6.302  0.2851  0.0507 -0.3306
   92SAPC  H19R 8882   7.315   0.890   6.220  0.4991 -0.8312 -0.3356
   92SAPC  H19S 8883   7.485   0.879   6.256  0.5260  1.2090 -0.5905
   92SAPC  C220 8884   7.389   1.050   6.356 -0.4595 -0.5719  0.4479
   92SAPC  H20R 8885   7.472   1.064   6.428  0.4803  1.3217 -0.9229
   92SAPC  H20S 8886   7.289   1.078   6.394 -1.0738 -0.2053 -1.3406
   92SAPC  H20T 8887   7.414   1.119   6.273  0.9288  0.3384  1.5560
   92SAPC   C33 8888   6.217   0.634   6.913  0.4662 -0.3674  0.4541
   92SAPC   H3X 8889   6.189   0.531   6.941 -1.3948 -0.0942 -0.3228
   92SAPC   H3Y 8890   6.327   0.648   6.906  0.0586  3.6191 -0.6548
   92SAPC   C34 8891   6.161   0.648   6.770  0.2024  1.4329 -0.1784
   92SAPC   H4X 8892   6.194   0.745   6.728  2.9803  1.1701  1.1974
   92SAPC   H4Y 8893   6.050   0.635   6.769 -0.1298  2.9513  3.3572
   92SAPC   C35 8894   6.219   0.536   6.690 -0.9976 -0.0236  0.0753
   92SAPC   H5X 8895   6.196   0.436   6.733 -1.1810 -1.4954 -3.1318
   92SAPC   H5Y 8896   6.329   0.540   6.679 -1.2748  0.3581 -3.9108
   92SAPC   C36 8897   6.152   0.523   6.551  0.0721  0.0187 -0.0315
   92SAPC   H6X 8898   6.042   0.521   6.568 -0.2791 -0.2833 -2.0872
   92SAPC   H6Y 8899   6.179   0.425   6.506 -0.9405 -0.5697  0.5996
   92SAPC   C37 8900   6.200   0.638   6.452 -0.5577  0.1961  1.1266
   92SAPC   H7X 8901   6.308   0.655   6.470 -0.4656  3.0398 -1.2819
   92SAPC   H7Y 8902   6.143   0.730   6.479 -0.4916  0.2240  1.1724
   92SAPC   C38 8903   6.175   0.594   6.301 -0.2257  0.6984 -0.1243
   92SAPC   H8X 8904   6.074   0.550   6.293  1.0557 -2.3708 -1.0432
   92SAPC   H8Y 8905   6.242   0.506   6.285 -1.6965 -1.0441  2.5802
   92SAPC   C39 8906   6.209   0.702   6.202 -0.4320  0.4816 -1.2428
   92SAPC   H9X 8907   6.320   0.711   6.193 -0.3503  0.5640 -0.2619
   92SAPC   H9Y 8908   6.159   0.793   6.240 -0.1556 -0.3729  1.3563
   92SAPC  C310 8909   6.162   0.682   6.059  0.0732 -0.1603  0.4114
   92SAPC  H10X 8910   6.058   0.644   6.056 -0.9385  2.4585 -1.5468
   92SAPC  H10Y 8911   6.226   0.602   6.016 -0.6346 -0.0049 -0.9781
   92SAPC  C311 8912   6.176   0.809   5.965  0.2788 -0.2109 -0.5121
   92SAPC  H11X 8913   6.102   0.887   5.991 -1.0508 -1.5104 -0.2824
   92SAPC  H11Y 8914   6.154   0.780   5.860 -1.8411  0.8377 -0.4065
   92SAPC  C312 8915   6.314   0.879   5.966  0.1397  0.2093  0.1990
   92SAPC  H12X 8916   6.375   0.787   5.958  0.5214  0.0805  3.4048
   92SAPC  H12Y 8917   6.338   0.933   6.060  1.0947  2.1967 -1.1243
   92SAPC  C313 8918   6.336   0.969   5.848 -0.2119 -0.0651 -0.6782
   92SAPC  H13X 8919   6.254   1.044   5.850 -1.0797 -0.9697 -1.4441
   92SAPC  H13Y 8920   6.323   0.912   5.754 -0.0317  1.0060 -1.3621
   92SAPC  C314 8921   6.472   1.039   5.869  0.0495  0.0337  0.4784
   92SAPC  H14X 8922   6.544   0.957   5.889 -1.2455 -1.2260  0.1264
   92SAPC  H14Y 8923   6.456   1.112   5.951 -1.4808  0.9775 -0.6237
   92SAPC  C315 8924   6.524   1.111   5.747 -0.2209 -0.4793 -0.7649
   92SAPC  H15X 8925   6.435   1.151   5.693 -2.2053  1.4026  3.4251
   92SAPC  H15Y 8926   6.566   1.030   5.684  0.9385  2.5933 -4.2835
   92SAPC  C316 8927   6.640   1.215   5.770  0.2127 -0.0367  1.3821
   92SAPC  H16X 8928   6.724   1.164   5.822  1.0839 -2.1376 -1.7730
   92SAPC  H16Y 8929   6.601   1.291   5.841  0.5516  1.2750  0.2160
   92SAPC  C317 8930   6.702   1.275   5.641  0.1717 -0.5534  0.4294
   92SAPC  H17X 8931   6.777   1.350   5.675 -1.8481  1.0560  1.5808
   92SAPC  H17Y 8932   6.610   1.324   5.602  0.2657  0.1992  1.1341
   92SAPC  C318 8933   6.759   1.173   5.542 -0.1588  0.7234 -0.5108
   92SAPC  H18X 8934   6.849   1.132   5.591 -1.4435  1.6127  2.9030
   92SAPC  H18Y 8935   6.778   1.215   5.441 -0.8138  0.5374 -0.7181
   92SAPC  H18Z 8936   6.697   1.084   5.516 -0.4040  1.2253 -1.7264
   93SAPC     N 8937   3.426   4.680   8.378 -0.4919 -0.1044  0.4284
   93SAPC   C12 8938   3.420   4.708   8.225  0.1650 -0.0529  0.1226
   93SAPC  H12A 8939   3.500   4.655   8.175 -1.0200 -2.2430  0.4487
   93SAPC  H12B 8940   3.439   4.814   8.214  1.0371 -0.2466 -0.2889
   93SAPC   C13 8941   3.565   4.703   8.426 -0.5170  0.3550  0.2039
   93SAPC  H13A 8942   3.597   4.805   8.409  1.0953  0.0849  1.3493
   93SAPC  H13B 8943   3.572   4.694   8.534 -2.0417  0.7780  0.3622
   93SAPC  H13C 8944   3.641   4.645   8.376  0.4327  1.8428 -0.1171
   93SAPC   C14 8945   3.338   4.775   8.446  0.2197 -0.4208 -0.0889
   93SAPC  H14A 8946   3.245   4.790   8.394 -0.9964  0.2877  2.1600
   93SAPC  H14B 8947   3.312   4.745   8.546 -2.9655  0.8129 -0.4226
   93SAPC  H14C 8948   3.378   4.875   8.458  3.6188 -1.9002  2.5741
   93SAPC   C15 8949   3.386   4.546   8.424 -0.0159 -0.1972  0.2121
   93SAPC  H15A 8950   3.457   4.472   8.391 -2.0821 -1.8149 -0.8717
   93SAPC  H15B 8951   3.378   4.542   8.532  0.2511  1.4864  0.3194
   93SAPC  H15C 8952   3.291   4.519   8.381  0.1783  0.7604 -0.8861
   93SAPC   C11 8953   3.284   4.677   8.152  0.3171  0.0488  0.3368
   93SAPC  H11A 8954   3.293   4.723   8.052 -0.8902  2.1451  1.1449
   93SAPC  H11B 8955   3.205   4.725   8.213 -0.8486  0.5095 -1.4846
   93SAPC     P 8956   3.364   4.447   8.068  0.1466 -0.0111  0.2748
   93SAPC   O13 8957   3.492   4.520   8.046  0.5811 -0.0097 -0.5358
   93SAPC   O14 8958   3.376   4.313   8.135 -0.0394 -0.3190 -0.1261
   93SAPC   O12 8959   3.262   4.535   8.148  0.0985  0.0866  0.2659
   93SAPC   O11 8960   3.295   4.425   7.931  0.3414 -0.6210 -0.1658
   93SAPC    C1 8961   3.204   4.513   7.866  0.9914 -0.0044  0.5451
   93SAPC    HA 8962   3.123   4.534   7.938 -0.4828  0.5381 -1.1855
   93SAPC    HB 8963   3.256   4.608   7.839 -0.6610  0.1401 -2.6495
   93SAPC    C2 8964   3.142   4.449   7.733 -0.2980  0.2127 -0.2345
   93SAPC    HS 8965   3.097   4.351   7.764  2.4911 -1.5009 -1.2867
   93SAPC   O21 8966   3.253   4.433   7.644  0.0368  0.1708 -0.3263
   93SAPC   C21 8967   3.268   4.308   7.599  0.5112 -0.6172  0.0836
   93SAPC   O22 8968   3.198   4.213   7.626  0.3352  0.1315  0.0307
   93SAPC   C22 8969   3.396   4.299   7.514  0.3412  0.9387  0.4925
   93SAPC   H2R 8970   3.408   4.396   7.462  1.7368  0.0784 -0.8918
   93SAPC   H2S 8971   3.485   4.294   7.581  0.5802  0.8362  0.1684
   93SAPC    C3 8972   3.025   4.539   7.671 -0.1410  0.0487 -0.1433
   93SAPC    HX 8973   3.071   4.637   7.646  0.0626  0.4825  1.7328
   93SAPC    HY 8974   2.947   4.543   7.750  2.1772  1.0121  2.2554
   93SAPC   O31 8975   2.962   4.472   7.554  0.4274 -0.1617  0.1546
   93SAPC   C31 8976   2.999   4.529   7.433  0.3509  0.2523 -0.0939
   93SAPC   O32 8977   3.085   4.608   7.419 -0.3011 -0.5342  0.4584
   93SAPC   C32 8978   2.903   4.474   7.325  0.3352  0.1817  0.2752
   93SAPC   H2X 8979   2.813   4.430   7.371  0.2577  1.3514  1.2960
   93SAPC   H2Y 8980   2.962   4.389   7.283 -2.8843 -1.0933 -2.0857
   93SAPC   C23 8981   3.393   4.184   7.410 -0.1554 -0.0974 -0.2835
   93SAPC   H3R 8982   3.387   4.083   7.455 -2.4380  0.7692  1.6019
   93SAPC   H3S 8983   3.480   4.178   7.341  0.2129  1.4191 -0.0001
   93SAPC   C24 8984   3.271   4.202   7.311 -0.1976 -0.4488 -0.0054
   93SAPC   H4R 8985   3.187   4.239   7.374  1.0566  3.5973 -0.4420
   93SAPC   H4S 8986   3.241   4.102   7.272  1.9934 -0.7441 -1.1120
   93SAPC   C25 8987   3.296   4.290   7.193  1.0135  0.0990  0.1539
   93SAPC   H5R 8988   3.280   4.399   7.203  0.8002  0.1288 -0.4709
   93SAPC   C26 8989   3.358   4.249   7.077  0.0432 -0.6940 -0.1909
   93SAPC   H6R 8990   3.391   4.328   7.008  2.3154 -1.7160 -0.3687
   93SAPC   C27 8991   3.407   4.109   7.037 -0.3524 -0.4824 -0.3914
   93SAPC   H7R 8992   3.352   4.026   7.087 -0.8218  0.8028  1.2828
   93SAPC   H7S 8993   3.515   4.085   7.045 -0.4036 -0.4882  0.3552
   93SAPC   C28 8994   3.376   4.084   6.884 -0.2291 -0.4821 -0.0929
   93SAPC   H8R 8995   3.269   4.067   6.868 -0.5932  0.8651  0.7456
   93SAPC   C29 8996   3.464   4.067   6.783  0.2149  0.2126  0.4458
   93SAPC   H9R 8997   3.431   4.034   6.683 -0.8489 -0.3748  0.9762
   93SAPC  C210 8998   3.617   4.069   6.790 -0.8057 -0.2585  0.1616
   93SAPC  H10R 8999   3.657   4.124   6.878 -0.2433 -1.5377  0.7295
   93SAPC  H10S 9000   3.651   4.130   6.703  0.3570 -1.9198 -0.6074
   93SAPC  C211 9001   3.687   3.933   6.766  0.2279  0.5537 -0.0872
   93SAPC  H11R 9002   3.727   3.881   6.855 -1.8435 -0.7302  0.1502
   93SAPC  C212 9003   3.730   3.881   6.647 -0.2742  0.6292  0.1921
   93SAPC  H12R 9004   3.780   3.783   6.654  1.4423  1.5339  1.1674
   93SAPC  C213 9005   3.677   3.928   6.515 -0.3916 -0.3708  0.1134
   93SAPC  H13R 9006   3.659   4.038   6.517 -0.9564 -0.4623  1.4070
   93SAPC  H13S 9007   3.576   3.883   6.508 -0.6176  0.2247 -0.5586
   93SAPC  C214 9008   3.763   3.882   6.405  0.4398 -0.3958 -0.2251
   93SAPC  H14R 9009   3.848   3.818   6.433  0.6112  0.5767  1.6366
   93SAPC  C215 9010   3.734   3.887   6.279  0.1551 -0.3032 -0.3851
   93SAPC  H15R 9011   3.807   3.844   6.209  1.2423  0.6847  0.1235
   93SAPC  C216 9012   3.617   3.963   6.219 -0.6524  0.6460  0.5854
   93SAPC  H16R 9013   3.576   4.034   6.294  1.1999  1.6873  0.6638
   93SAPC  H16S 9014   3.541   3.887   6.191 -0.1922  0.8468 -1.3595
   93SAPC  C217 9015   3.646   4.038   6.092  0.1045 -0.5356  0.2695
   93SAPC  H17R 9016   3.708   3.980   6.020  0.5297  1.3096 -0.9357
   93SAPC  H17S 9017   3.716   4.122   6.116  1.2243 -1.7447  1.3892
   93SAPC  C218 9018   3.523   4.091   6.017  0.8592 -0.4704 -0.0984
   93SAPC  H18R 9019   3.491   4.180   6.075  0.1882 -0.7819  0.0169
   93SAPC  H18S 9020   3.449   4.008   6.018  0.5419 -0.2289 -1.3980
   93SAPC  C219 9021   3.556   4.145   5.879  0.0588 -0.2590 -0.3597
   93SAPC  H19R 9022   3.591   4.058   5.820 -0.3865 -1.3018  0.8666
   93SAPC  H19S 9023   3.655   4.196   5.883  1.1812 -2.4079  1.2144
   93SAPC  C220 9024   3.443   4.221   5.820 -0.6337  0.9115  0.1656
   93SAPC  H20R 9025   3.353   4.158   5.808  0.5818 -1.0562  0.9797
   93SAPC  H20S 9026   3.478   4.263   5.723 -0.5053  1.2300  0.3458
   93SAPC  H20T 9027   3.421   4.312   5.880 -0.6544  1.3677 -0.5201
   93SAPC   C33 9028   2.868   4.557   7.206  0.6873  0.4723 -0.2359
   93SAPC   H3X 9029   2.960   4.587   7.151  1.1997  1.2242  0.9825
   93SAPC   H3Y 9030   2.808   4.649   7.222 -0.5307 -0.0586 -1.5394
   93SAPC   C34 9031   2.773   4.478   7.111  0.1985 -0.3318  0.2362
   93SAPC   H4X 9032   2.700   4.420   7.172 -0.3131 -1.5360 -1.4327
   93SAPC   H4Y 9033   2.832   4.421   7.036 -0.4089  2.5692 -2.6953
   93SAPC   C35 9034   2.689   4.561   7.025  0.2085 -0.6305  0.9954
   93SAPC   H5X 9035   2.753   4.639   6.979  0.5581 -1.9935 -0.9588
   93SAPC   H5Y 9036   2.611   4.613   7.085 -0.8412  0.2029 -0.9993
   93SAPC   C36 9037   2.618   4.471   6.913 -0.3438  0.3676  0.9865
   93SAPC   H6X 9038   2.570   4.389   6.970 -1.1679  0.7806  0.8992
   93SAPC   H6Y 9039   2.696   4.426   6.848 -1.1870  0.3449 -0.0406
   93SAPC   C37 9040   2.513   4.533   6.821  0.2143 -0.0873 -0.0308
   93SAPC   H7X 9041   2.554   4.621   6.767 -0.8150  0.2572 -0.2661
   93SAPC   H7Y 9042   2.436   4.580   6.884 -1.8963 -1.3410 -1.5468
   93SAPC   C38 9043   2.447   4.434   6.725  0.6124 -0.7554  0.5207
   93SAPC   H8X 9044   2.357   4.396   6.777 -0.5766  0.9266 -0.1947
   93SAPC   H8Y 9045   2.514   4.355   6.684  0.2097 -1.1529  0.6310
   93SAPC   C39 9046   2.379   4.514   6.617  0.6191 -0.2477  0.2086
   93SAPC   H9X 9047   2.327   4.603   6.659 -1.5488 -0.8558 -1.0012
   93SAPC   H9Y 9048   2.314   4.435   6.573 -1.5696  1.0009  1.0091
   93SAPC  C310 9049   2.463   4.564   6.497 -0.5575 -0.0641  0.1808
   93SAPC  H10X 9050   2.528   4.651   6.521 -0.5377 -0.0801  0.1840
   93SAPC  H10Y 9051   2.395   4.599   6.415 -0.8924  0.6889  0.7657
   93SAPC  C311 9052   2.561   4.456   6.444  0.2978  1.0725 -0.4334
   93SAPC  H11X 9053   2.484   4.379   6.424  1.5972 -0.0200 -1.4409
   93SAPC  H11Y 9054   2.629   4.419   6.524 -1.4952 -1.4928  0.0229
   93SAPC  C312 9055   2.642   4.507   6.319 -0.2425  0.2212 -0.0558
   93SAPC  H12X 9056   2.722   4.581   6.341  0.4103 -1.2715  3.2504
   93SAPC  H12Y 9057   2.575   4.566   6.253 -2.7578 -2.4210 -0.0508
   93SAPC  C313 9058   2.717   4.398   6.243 -1.2199 -0.4618 -0.4666
   93SAPC  H13X 9059   2.665   4.305   6.211 -0.7277 -0.7993 -0.3026
   93SAPC  H13Y 9060   2.799   4.370   6.313 -0.1485  2.8824 -0.1843
   93SAPC  C314 9061   2.785   4.456   6.119 -0.0475  0.2725  0.0594
   93SAPC  H14X 9062   2.834   4.550   6.152 -1.4072  0.9089  0.3745
   93SAPC  H14Y 9063   2.701   4.497   6.059  0.0414  1.2913  0.6113
   93SAPC  C315 9064   2.882   4.376   6.044 -0.8790 -0.3540  0.0570
   93SAPC  H15X 9065   2.841   4.285   5.997  0.3584 -1.2708  0.7071
   93SAPC  H15Y 9066   2.970   4.340   6.102 -0.0225  0.6832 -0.5460
   93SAPC  C316 9067   2.930   4.460   5.921  0.3753 -0.4722  0.3707
   93SAPC  H16X 9068   2.965   4.555   5.967 -1.2022 -0.3764  1.4367
   93SAPC  H16Y 9069   2.840   4.483   5.861  0.5118  1.0761  0.7284
   93SAPC  C317 9070   3.034   4.385   5.829 -0.2712  0.3885 -0.4614
   93SAPC  H17X 9071   3.005   4.278   5.821  1.0168 -0.0989  0.9571
   93SAPC  H17Y 9072   3.126   4.384   5.890  0.0377 -1.0787 -0.8936
   93SAPC  C318 9073   3.046   4.442   5.691 -0.4043  0.1483  0.9839
   93SAPC  H18X 9074   3.140   4.423   5.636 -0.7296  2.1943 -0.4140
   93SAPC  H18Y 9075   3.045   4.553   5.694 -0.0345  0.5298 -4.1432
   93SAPC  H18Z 9076   2.965   4.408   5.623  1.5934 -0.2379 -1.3061
   94SAPC     N 9077   0.961   6.711   7.808 -0.5184 -0.0442  0.5910
   94SAPC   C12 9078   1.061   6.790   7.896 -0.5328 -0.0218  0.1370
   94SAPC  H12A 9079   1.017   6.889   7.901 -0.8200 -0.0398 -1.4688
   94SAPC  H12B 9080   1.149   6.800   7.834 -0.5690  1.1004  0.2407
   94SAPC   C13 9081   0.984   6.562   7.815  0.0097 -0.4359  0.2208
   94SAPC  H13A 9082   0.911   6.514   7.752  0.4651 -1.3341  0.3610
   94SAPC  H13B 9083   1.084   6.543   7.779  0.1211 -0.3716  0.4954
   94SAPC  H13C 9084   0.977   6.531   7.918 -0.9293  0.2514  0.3780
   94SAPC   C14 9085   0.828   6.734   7.862  0.9867 -0.0678 -0.0177
   94SAPC  H14A 9086   0.798   6.837   7.873  0.3148 -0.0665 -1.5370
   94SAPC  H14B 9087   0.755   6.685   7.798  1.0696  0.4289 -0.5006
   94SAPC  H14C 9088   0.833   6.686   7.959  0.4873 -0.2830 -0.0933
   94SAPC   C15 9089   0.953   6.770   7.674  0.1001  0.7975 -0.4215
   94SAPC  H15A 9090   1.040   6.753   7.612 -1.0468  0.8562 -2.1240
   94SAPC  H15B 9091   0.881   6.719   7.612  0.3197  1.7197 -1.4761
   94SAPC  H15C 9092   0.939   6.877   7.679  0.8039  0.8533  0.8599
   94SAPC   C11 9093   1.104   6.726   8.031  0.4375 -0.5145 -0.5399
   94SAPC  H11A 9094   1.025   6.666   8.082 -1.0470  1.3258 -0.5654
   94SAPC  H11B 9095   1.112   6.822   8.085  2.9085 -0.6603 -0.5236
   94SAPC     P 9096   1.328   6.676   8.132 -0.0437  0.1164  0.3112
   94SAPC   O13 9097   1.332   6.818   8.166 -0.3778 -0.4217  0.1857
   94SAPC   O14 9098   1.301   6.587   8.247  0.5201 -0.4728  0.3349
   94SAPC   O12 9099   1.226   6.646   8.014  0.0267 -0.2648 -0.5325
   94SAPC   O11 9100   1.464   6.641   8.064  0.5726  0.3991  0.2275
   94SAPC    C1 9101   1.547   6.724   7.981  0.2512  0.0398  0.2733
   94SAPC    HA 9102   1.481   6.770   7.905  1.7724 -0.3351 -1.3196
   94SAPC    HB 9103   1.593   6.812   8.031  0.5642 -0.2484  0.4956
   94SAPC    C2 9104   1.639   6.643   7.893  0.1881  0.0682 -0.4240
   94SAPC    HS 9105   1.710   6.712   7.842 -1.6712  1.7471 -0.8580
   94SAPC   O21 9106   1.561   6.572   7.791 -0.1631 -0.2799 -0.4173
   94SAPC   C21 9107   1.533   6.647   7.683  0.0944  0.0662  0.5819
   94SAPC   O22 9108   1.556   6.764   7.665  0.4571 -0.0677 -0.4829
   94SAPC   C22 9109   1.449   6.557   7.591  0.6407 -0.1061 -0.3242
   94SAPC   H2R 9110   1.482   6.579   7.488  0.7243  0.4838 -0.1748
   94SAPC   H2S 9111   1.482   6.454   7.614  0.0123  0.0423  1.3761
   94SAPC    C3 9112   1.714   6.540   7.985  0.9766 -0.6710 -0.1302
   94SAPC    HX 9113   1.643   6.487   8.052  0.4860  0.1076 -0.0152
   94SAPC    HY 9114   1.788   6.598   8.043 -0.2187  1.3773 -0.5458
   94SAPC   O31 9115   1.785   6.455   7.900 -0.4352 -0.5040  0.5538
   94SAPC   C31 9116   1.762   6.331   7.893  0.0485 -0.0767 -0.0992
   94SAPC   O32 9117   1.685   6.266   7.968  0.1071  0.2605  0.4037
   94SAPC   C32 9118   1.825   6.258   7.766 -0.3920 -0.1228  0.4815
   94SAPC   H2X 9119   1.888   6.174   7.803  1.1714  1.6536  2.1039
   94SAPC   H2Y 9120   1.899   6.331   7.727 -1.1490 -0.3813 -1.6194
   94SAPC   C23 9121   1.296   6.575   7.595  0.4595 -0.0830  0.5789
   94SAPC   H3R 9122   1.278   6.680   7.564  0.5177 -0.1797  0.2045
   94SAPC   H3S 9123   1.269   6.566   7.702  3.2146  0.7420  1.4168
   94SAPC   C24 9124   1.225   6.474   7.502  0.3302  0.4298 -0.2334
   94SAPC   H4R 9125   1.255   6.483   7.396 -0.7759 -0.1673 -0.6214
   94SAPC   H4S 9126   1.119   6.506   7.489 -0.3141 -2.7099 -5.4463
   94SAPC   C25 9127   1.210   6.342   7.569  0.2293  0.4016  0.0760
   94SAPC   H5R 9128   1.220   6.351   7.678  1.0023 -1.9516  0.2450
   94SAPC   C26 9129   1.168   6.226   7.513 -0.7570  0.6744  0.1578
   94SAPC   H6R 9130   1.164   6.132   7.571 -0.3361 -0.6691 -1.8858
   94SAPC   C27 9131   1.129   6.206   7.365 -0.5319  0.0275 -0.7581
   94SAPC   H7R 9132   1.065   6.292   7.333  0.3409  0.8791 -0.2748
   94SAPC   H7S 9133   1.057   6.121   7.360 -3.1597  2.0326  0.3454
   94SAPC   C28 9134   1.243   6.179   7.268  0.0335 -0.3348 -0.0473
   94SAPC   H8R 9135   1.323   6.122   7.317 -0.2061  1.1932  2.3075
   94SAPC   C29 9136   1.260   6.215   7.140  0.2924 -0.3476  0.3983
   94SAPC   H9R 9137   1.341   6.169   7.081 -1.3180  0.0213 -2.2404
   94SAPC  C210 9138   1.165   6.286   7.043  0.1986  0.1063  0.1238
   94SAPC  H10R 9139   1.225   6.370   7.002  0.3024 -0.8864 -1.9220
   94SAPC  H10S 9140   1.081   6.332   7.100  0.0799  2.1784 -1.5625
   94SAPC  C211 9141   1.122   6.188   6.935 -0.2709 -0.3406  0.2009
   94SAPC  H11R 9142   1.030   6.136   6.968  0.8654 -0.8039  2.9153
   94SAPC  C212 9143   1.163   6.177   6.806  0.6580  0.1460  0.6190
   94SAPC  H12R 9144   1.118   6.096   6.746  1.7166  0.6157 -0.8462
   94SAPC  C213 9145   1.271   6.245   6.734 -0.2531  0.0239  0.1126
   94SAPC  H13R 9146   1.322   6.170   6.670 -2.9494 -1.4236 -0.5185
   94SAPC  H13S 9147   1.341   6.290   6.807  1.2937  0.0890 -1.3486
   94SAPC  C214 9148   1.203   6.356   6.646 -1.0516  0.6087 -0.4342
   94SAPC  H14R 9149   1.161   6.438   6.707 -0.7550  1.0389 -0.7958
   94SAPC  C215 9150   1.221   6.377   6.515 -0.0143  0.9516  0.0784
   94SAPC  H15R 9151   1.191   6.468   6.461  2.7629  1.1113 -1.4061
   94SAPC  C216 9152   1.284   6.280   6.422  0.6160  0.5070  0.5070
   94SAPC  H16R 9153   1.266   6.176   6.456 -3.0821  0.2156 -1.7786
   94SAPC  H16S 9154   1.394   6.298   6.422  0.3969  2.1325 -0.5894
   94SAPC  C217 9155   1.225   6.298   6.283  0.2263 -0.4296 -0.7262
   94SAPC  H17R 9156   1.231   6.404   6.249  1.1028  0.0866  0.8930
   94SAPC  H17S 9157   1.121   6.262   6.292  0.8255 -2.0363  0.2411
   94SAPC  C218 9158   1.277   6.200   6.183  0.2712 -0.3727 -0.0276
   94SAPC  H18R 9159   1.272   6.098   6.226 -0.4313 -0.6355 -0.7228
   94SAPC  H18S 9160   1.383   6.230   6.163 -0.3053  0.9144 -1.2822
   94SAPC  C219 9161   1.217   6.204   6.050  0.4804  0.7682  0.4952
   94SAPC  H19R 9162   1.262   6.137   5.974 -0.9617  0.9006 -0.5187
   94SAPC  H19S 9163   1.214   6.308   6.011 -0.3493 -0.8250 -4.3849
   94SAPC  C220 9164   1.069   6.169   6.048  0.6415 -0.4779 -0.4878
   94SAPC  H20R 9165   1.055   6.076   6.107  0.9480 -0.5439 -0.5184
   94SAPC  H20S 9166   1.030   6.179   5.945  1.5784  1.9468 -0.6838
   94SAPC  H20T 9167   1.004   6.239   6.105  0.6096  0.6499 -1.8569
   94SAPC   C33 9168   1.730   6.215   7.656 -0.5526  0.0319  0.0664
   94SAPC   H3X 9169   1.627   6.182   7.683  0.2891 -2.1447  0.7336
   94SAPC   H3Y 9170   1.775   6.130   7.602  1.6528  0.6429  0.8596
   94SAPC   C34 9171   1.719   6.325   7.544 -0.2478  0.3054 -0.1111
   94SAPC   H4X 9172   1.816   6.355   7.500 -2.1075  1.0497 -4.2018
   94SAPC   H4Y 9173   1.688   6.424   7.582 -1.4212  0.4641 -1.3780
   94SAPC   C35 9174   1.636   6.273   7.426  0.3718 -0.2557  0.1337
   94SAPC   H5X 9175   1.526   6.261   7.439  0.6603 -1.6923  1.6105
   94SAPC   H5Y 9176   1.673   6.174   7.393  0.9347 -0.6667  1.9149
   94SAPC   C36 9177   1.658   6.365   7.307 -0.1556 -0.2939 -0.0006
   94SAPC   H6X 9178   1.753   6.347   7.252 -0.1650  0.5803 -0.3190
   94SAPC   H6Y 9179   1.651   6.471   7.339 -0.8101 -0.7457  1.4153
   94SAPC   C37 9180   1.561   6.338   7.186 -0.1562 -0.3337 -0.5544
   94SAPC   H7X 9181   1.460   6.376   7.210  1.0281  2.1025  0.9543
   94SAPC   H7Y 9182   1.557   6.229   7.166 -0.5317 -0.3498 -0.4017
   94SAPC   C38 9183   1.622   6.413   7.062 -0.9694 -0.0347  1.2115
   94SAPC   H8X 9184   1.704   6.349   7.023 -1.7088 -0.4268  0.2491
   94SAPC   H8Y 9185   1.654   6.518   7.079 -1.1842  0.4729 -1.1668
   94SAPC   C39 9186   1.540   6.420   6.935 -0.4034  1.3828 -0.1325
   94SAPC   H9X 9187   1.446   6.476   6.953  0.5495  2.6692  1.0539
   94SAPC   H9Y 9188   1.515   6.315   6.906  1.1576  1.3179 -1.3471
   94SAPC  C310 9189   1.621   6.492   6.829  0.6487  0.0863  0.5669
   94SAPC  H10X 9190   1.723   6.454   6.808  0.8273 -0.1703  1.8107
   94SAPC  H10Y 9191   1.645   6.588   6.881  1.1674 -0.3752  1.1883
   94SAPC  C311 9192   1.558   6.510   6.685  0.3495 -0.5560 -0.2486
   94SAPC  H11X 9193   1.456   6.555   6.692  1.4889  2.0183  1.2372
   94SAPC  H11Y 9194   1.544   6.405   6.650 -0.3857 -0.9763  1.2253
   94SAPC  C312 9195   1.660   6.585   6.591  0.3972  0.4183  0.0318
   94SAPC  H12X 9196   1.759   6.550   6.626 -0.8289 -1.0431  2.3019
   94SAPC  H12Y 9197   1.659   6.692   6.622  1.1724  0.3308  0.3814
   94SAPC  C313 9198   1.642   6.560   6.441 -0.5559 -0.2229  0.3370
   94SAPC  H13X 9199   1.629   6.450   6.432 -2.2490 -0.2080  1.8840
   94SAPC  H13Y 9200   1.729   6.595   6.382 -0.3000 -1.7695 -0.2517
   94SAPC  C314 9201   1.524   6.628   6.373  0.4353 -0.0710 -0.7051
   94SAPC  H14X 9202   1.541   6.738   6.380 -3.8336  0.6546  0.7613
   94SAPC  H14Y 9203   1.436   6.614   6.439  1.1355  2.5084  0.9176
   94SAPC  C315 9204   1.504   6.595   6.227 -0.2058  0.2905  0.0666
   94SAPC  H15X 9205   1.503   6.484   6.225 -0.5899  0.2124  2.0742
   94SAPC  H15Y 9206   1.590   6.620   6.162 -1.4238 -0.0919 -1.7704
   94SAPC  C316 9207   1.383   6.670   6.173  0.8224  0.0489  0.5255
   94SAPC  H16X 9208   1.393   6.781   6.180  2.2550  0.0840 -1.2312
   94SAPC  H16Y 9209   1.296   6.626   6.225  0.9021  1.6785  2.1321
   94SAPC  C317 9210   1.370   6.630   6.023  0.4530 -0.8828 -0.5200
   94SAPC  H17X 9211   1.383   6.519   6.015 -0.0138 -0.8291 -2.7045
   94SAPC  H17Y 9212   1.462   6.659   5.967  1.5802 -0.7987  1.3007
   94SAPC  C318 9213   1.238   6.679   5.961  0.0910  0.0158  0.2584
   94SAPC  H18X 9214   1.150   6.638   6.016 -0.8861 -0.4307 -1.5471
   94SAPC  H18Y 9215   1.225   6.633   5.860 -1.7131 -0.9902  0.9040
   94SAPC  H18Z 9216   1.235   6.790   5.966  1.6062  0.1496 -0.9893
   95SAPC     N 9217   2.811   0.998   3.261  0.7484 -0.2730 -0.5192
   95SAPC   C12 9218   2.722   0.992   3.390  0.5963 -0.1452 -0.1026
   95SAPC  H12A 9219   2.705   1.090   3.431 -0.8105  0.0267 -1.0090
   95SAPC  H12B 9220   2.771   0.936   3.468 -2.0701  0.0622  1.8641
   95SAPC   C13 9221   2.814   0.861   3.208 -0.0062 -0.0168  0.0608
   95SAPC  H13A 9222   2.873   0.854   3.118 -0.2687 -0.8611 -0.0604
   95SAPC  H13B 9223   2.856   0.785   3.273  0.5918  0.0257 -0.2638
   95SAPC  H13C 9224   2.711   0.841   3.185  0.0629  0.4905 -0.7254
   95SAPC   C14 9225   2.756   1.093   3.157 -0.6066 -0.2275  0.6673
   95SAPC  H14A 9226   2.823   1.087   3.073  0.4368 -2.4621  1.5753
   95SAPC  H14B 9227   2.660   1.068   3.114  0.7866 -0.4105 -2.5660
   95SAPC  H14C 9228   2.755   1.193   3.199  0.8453 -0.0258  0.2486
   95SAPC   C15 9229   2.954   1.046   3.297 -0.7682  0.1594  0.1892
   95SAPC  H15A 9230   2.967   1.146   3.335 -0.1478  1.0427 -2.1836
   95SAPC  H15B 9231   2.992   0.974   3.368 -0.9998 -0.4789 -0.3237
   95SAPC  H15C 9232   3.010   1.037   3.205 -2.0487  1.1706 -0.7442
   95SAPC   C11 9233   2.577   0.935   3.379 -0.5708 -0.4202  1.0226
   95SAPC  H11A 9234   2.528   0.963   3.284 -0.6301  0.6147  1.3480
   95SAPC  H11B 9235   2.511   0.982   3.455 -1.6354 -0.0412 -0.1076
   95SAPC     P 9236   2.595   0.726   3.528 -0.3082  0.1604  0.3789
   95SAPC   O13 9237   2.578   0.579   3.517  0.3000 -0.1694  0.1496
   95SAPC   O14 9238   2.712   0.779   3.593 -0.3166  0.2703 -0.1952
   95SAPC   O12 9239   2.578   0.791   3.383  0.3491  0.3173  0.5877
   95SAPC   O11 9240   2.466   0.759   3.610  0.6574  0.7981 -0.3481
   95SAPC    C1 9241   2.451   0.876   3.690 -0.2053 -0.5686 -0.1288
   95SAPC    HA 9242   2.535   0.947   3.677 -1.4441  1.3962  1.8027
   95SAPC    HB 9243   2.360   0.935   3.662  0.3639  0.1632 -0.4751
   95SAPC    C2 9244   2.459   0.854   3.845 -0.1698  0.3059 -0.0928
   95SAPC    HS 9245   2.559   0.807   3.858 -0.7965 -1.6751 -1.9467
   95SAPC   O21 9246   2.355   0.766   3.896 -0.5639  0.8851  0.0538
   95SAPC   C21 9247   2.390   0.640   3.908  0.9237 -0.0127 -0.9769
   95SAPC   O22 9248   2.498   0.591   3.882  0.3354  0.0061 -0.3005
   95SAPC   C22 9249   2.273   0.556   3.954  0.4597 -0.6481 -0.4405
   95SAPC   H2R 9250   2.185   0.576   3.890  0.2430  0.0175  0.0416
   95SAPC   H2S 9251   2.293   0.448   3.939  1.2927 -0.4470 -0.7951
   95SAPC    C3 9252   2.435   0.984   3.926  0.5110 -0.3588  0.2588
   95SAPC    HX 9253   2.330   1.015   3.904  0.9168 -0.3778 -1.9223
   95SAPC    HY 9254   2.507   1.059   3.888  1.0401 -0.7165  0.5325
   95SAPC   O31 9255   2.471   0.956   4.065  0.6825 -0.1224 -0.2289
   95SAPC   C31 9256   2.365   0.961   4.150 -0.5109  0.6249 -0.0202
   95SAPC   O32 9257   2.251   0.975   4.127  0.2264 -0.0374  0.4796
   95SAPC   C32 9258   2.415   0.913   4.284 -0.3886  0.3067 -0.2944
   95SAPC   H2X 9259   2.498   0.980   4.313  0.5820 -1.5844  1.6071
   95SAPC   H2Y 9260   2.463   0.813   4.271  2.3844  0.5715  5.1896
   95SAPC   C23 9261   2.224   0.596   4.096  0.0671  0.6739 -0.4246
   95SAPC   H3R 9262   2.133   0.533   4.112 -0.6454  1.6132 -0.7487
   95SAPC   H3S 9263   2.195   0.703   4.098  0.1638  0.7035 -0.6215
   95SAPC   C24 9264   2.315   0.570   4.213  0.2863  0.2988 -0.2397
   95SAPC   H4R 9265   2.288   0.626   4.305  1.2645  2.3232 -1.1270
   95SAPC   H4S 9266   2.417   0.610   4.194  0.1956  1.4773  1.5636
   95SAPC   C25 9267   2.320   0.418   4.241  0.2657  0.6752  0.2783
   95SAPC   H5R 9268   2.383   0.377   4.161 -0.1973  1.9536 -0.7830
   95SAPC   C26 9269   2.260   0.345   4.341 -0.6384 -0.4331  0.1175
   95SAPC   H6R 9270   2.281   0.237   4.341 -2.1516 -0.8301 -2.9272
   95SAPC   C27 9271   2.172   0.400   4.451  0.1273  0.1767 -0.3027
   95SAPC   H7R 9272   2.094   0.460   4.399  0.0203  0.0767 -0.2590
   95SAPC   H7S 9273   2.238   0.466   4.511 -0.9498  0.2016  0.9107
   95SAPC   C28 9274   2.118   0.300   4.550  0.5062  0.5969  0.1759
   95SAPC   H8R 9275   2.115   0.197   4.512 -0.4682  0.7334 -0.1382
   95SAPC   C29 9276   2.090   0.330   4.678 -0.3328 -0.2184 -0.3330
   95SAPC   H9R 9277   2.046   0.242   4.729 -0.4687  1.0395  1.8448
   95SAPC  C210 9278   2.088   0.471   4.742 -0.9386 -0.0954  0.1163
   95SAPC  H10R 9279   1.990   0.496   4.789 -0.1171  1.4268  1.0847
   95SAPC  H10S 9280   2.094   0.548   4.663  0.3319 -1.4108 -1.1406
   95SAPC  C211 9281   2.201   0.473   4.842  0.0467  0.3546  0.2886
   95SAPC  H11R 9282   2.299   0.461   4.795  0.5624 -0.9654  1.6132
   95SAPC  C212 9283   2.188   0.469   4.972  0.2542 -0.0702  0.9094
   95SAPC  H12R 9284   2.282   0.465   5.030  1.4144 -0.9861 -0.9076
   95SAPC  C213 9285   2.060   0.461   5.051 -0.0474  0.1786 -0.5249
   95SAPC  H13R 9286   2.000   0.377   5.012  0.3149 -1.2292  1.7582
   95SAPC  H13S 9287   1.999   0.552   5.037  1.4452  1.1348 -1.0085
   95SAPC  C214 9288   2.083   0.431   5.197 -0.5315 -0.5359 -0.5742
   95SAPC  H14R 9289   2.155   0.495   5.250 -0.3275 -1.4610  0.3182
   95SAPC  C215 9290   2.030   0.331   5.275 -0.4757  0.5218 -0.0372
   95SAPC  H15R 9291   2.054   0.317   5.381 -0.1222 -1.7538 -0.3561
   95SAPC  C216 9292   1.941   0.221   5.220  0.2395 -0.1663 -0.0170
   95SAPC  H16R 9293   2.000   0.178   5.137  1.4345  0.9451  0.2134
   95SAPC  H16S 9294   1.842   0.254   5.183 -0.2528 -0.8031  0.6972
   95SAPC  C217 9295   1.920   0.115   5.324  0.0407  0.1482 -0.3493
   95SAPC  H17R 9296   1.926   0.165   5.423  0.4122  2.2640 -1.3833
   95SAPC  H17S 9297   1.998   0.036   5.319  1.2330  1.3731 -1.8934
   95SAPC  C218 9298   1.772   0.041   5.324  0.9075  0.1539 -0.0636
   95SAPC  H18R 9299   1.768  -0.024   5.234 -1.8721  0.7031 -0.4138
   95SAPC  H18S 9300   1.696   0.118   5.299  0.1538 -0.4775  0.2815
   95SAPC  C219 9301   1.749  -0.052   5.446 -0.0753  0.3417  0.3022
   95SAPC  H19R 9302   1.847  -0.098   5.472  0.2453 -0.3296 -1.8728
   95SAPC  H19S 9303   1.672  -0.126   5.418 -0.3719  1.2241 -1.3723
   95SAPC  C220 9304   1.697   0.029   5.572 -0.3647  0.4872  0.0192
   95SAPC  H20R 9305   1.593   0.061   5.549 -1.5077 -2.7264  0.3093
   95SAPC  H20S 9306   1.772   0.102   5.610  0.8143 -1.3412  1.3376
   95SAPC  H20T 9307   1.683  -0.040   5.657  0.0727  1.5204  0.9550
   95SAPC   C33 9308   2.311   0.899   4.392  0.9682  0.2348 -0.5949
   95SAPC   H3X 9309   2.231   0.825   4.370  1.5238 -1.2490  1.9928
   95SAPC   H3Y 9310   2.244   0.987   4.401  0.8025  0.1135 -0.6261
   95SAPC   C34 9311   2.370   0.867   4.534  0.0136 -0.5432  0.1320
   95SAPC   H4X 9312   2.441   0.949   4.556 -2.0944  1.7216 -0.9843
   95SAPC   H4Y 9313   2.425   0.771   4.542  0.1209 -0.6594 -1.5594
   95SAPC   C35 9314   2.262   0.855   4.649  0.9946 -1.2560 -0.0067
   95SAPC   H5X 9315   2.190   0.774   4.625  0.4004 -1.3807  2.0222
   95SAPC   H5Y 9316   2.204   0.950   4.642  1.1051 -1.2219 -0.4813
   95SAPC   C36 9317   2.314   0.832   4.791 -0.4166  0.3790  0.3650
   95SAPC   H6X 9318   2.391   0.909   4.807 -2.7011  2.8988 -0.0373
   95SAPC   H6Y 9319   2.351   0.728   4.803 -2.7344 -0.5865 -0.1467
   95SAPC   C37 9320   2.205   0.855   4.895 -0.3527 -0.1818  0.8219
   95SAPC   H7X 9321   2.120   0.789   4.869 -1.4153 -0.2249  3.9600
   95SAPC   H7Y 9322   2.170   0.960   4.894  1.2229  0.3728  0.0773
   95SAPC   C38 9323   2.264   0.821   5.032  0.1606 -0.4423 -0.8052
   95SAPC   H8X 9324   2.351   0.889   5.048 -0.7651  0.0359  3.0816
   95SAPC   H8Y 9325   2.317   0.724   5.020  3.1917  0.8460  0.9270
   95SAPC   C39 9326   2.158   0.835   5.143  0.4106  0.3408  0.0440
   95SAPC   H9X 9327   2.074   0.769   5.112 -0.9878  1.5050  1.2253
   95SAPC   H9Y 9328   2.119   0.939   5.139  2.4850  1.1612 -0.1645
   95SAPC  C310 9329   2.225   0.804   5.272  0.4126  0.1448 -0.1133
   95SAPC  H10X 9330   2.301   0.879   5.299 -0.3151  1.1443 -0.7534
   95SAPC  H10Y 9331   2.265   0.701   5.264 -2.0982 -1.1453  2.2009
   95SAPC  C311 9332   2.129   0.791   5.389  0.3651 -0.6169 -0.4969
   95SAPC  H11X 9333   2.159   0.702   5.448 -0.9887 -1.0709 -0.4657
   95SAPC  H11Y 9334   2.026   0.783   5.348 -0.2456  3.2840 -0.0800
   95SAPC  C312 9335   2.131   0.908   5.488 -0.2678 -0.2704 -0.4760
   95SAPC  H12X 9336   2.113   0.990   5.416  2.5857  0.1129 -0.8649
   95SAPC  H12Y 9337   2.237   0.916   5.519 -0.4856 -0.2174  0.2625
   95SAPC  C313 9338   2.030   0.905   5.603 -0.4622 -0.3422 -1.2449
   95SAPC  H13X 9339   2.040   0.809   5.658 -0.4736 -0.1828 -0.9647
   95SAPC  H13Y 9340   1.923   0.912   5.573 -0.7541 -1.5403 -0.5630
   95SAPC  C314 9341   2.052   1.025   5.703 -0.2563 -0.1996 -0.3204
   95SAPC  H14X 9342   2.028   1.123   5.656 -2.4724 -2.1700 -3.7019
   95SAPC  H14Y 9343   2.159   1.035   5.731 -0.8086  0.1276  1.9218
   95SAPC  C315 9344   1.970   1.009   5.831 -0.0281  0.8628  0.2289
   95SAPC  H15X 9345   2.003   0.919   5.886 -2.5380 -0.1495  0.1599
   95SAPC  H15Y 9346   1.861   0.996   5.820  0.1588  0.6243 -1.7233
   95SAPC  C316 9347   1.978   1.123   5.937 -0.3588  0.2086 -0.1036
   95SAPC  H16X 9348   1.963   1.227   5.900 -1.8667 -0.5392 -1.6972
   95SAPC  H16Y 9349   2.084   1.115   5.972 -0.4640  0.6829  0.3303
   95SAPC  C317 9350   1.905   1.096   6.072  0.4736  0.1889  0.0021
   95SAPC  H17X 9351   1.961   1.150   6.151 -0.5069 -0.7602  1.3799
   95SAPC  H17Y 9352   1.911   0.994   6.116 -1.0786  0.5056  1.0383
   95SAPC  C318 9353   1.760   1.156   6.081 -0.6121 -0.1517  0.2855
   95SAPC  H18X 9354   1.749   1.265   6.067 -0.0380  0.1658  2.0360
   95SAPC  H18Y 9355   1.715   1.142   6.182  0.1360 -2.8440  0.3259
   95SAPC  H18Z 9356   1.689   1.108   6.009  0.1049 -0.5765 -0.1521
   96SAPC     N 9357   0.748   4.303   3.342  0.3008  0.1940 -0.0628
   96SAPC   C12 9358   0.740   4.174   3.422  0.2276 -0.0750  0.2697
   96SAPC  H12A 9359   0.749   4.082   3.367 -1.3618 -0.0375 -0.1073
   96SAPC  H12B 9360   0.637   4.164   3.454  0.5150 -2.1728  0.7117
   96SAPC   C13 9361   0.882   4.309   3.269  0.5904  0.0248 -0.3296
   96SAPC  H13A 9362   0.961   4.319   3.342 -1.2125  1.2333  1.5850
   96SAPC  H13B 9363   0.908   4.211   3.231  2.7238  0.7689 -0.9393
   96SAPC  H13C 9364   0.892   4.395   3.204  0.1129  1.5576  1.5350
   96SAPC   C14 9365   0.633   4.314   3.241 -0.0562  0.9359  0.0797
   96SAPC  H14A 9366   0.617   4.226   3.181  0.2990  1.1937 -0.3960
   96SAPC  H14B 9367   0.544   4.339   3.298 -0.7317  0.3273 -0.6941
   96SAPC  H14C 9368   0.640   4.394   3.169 -0.6538  0.3801 -0.6142
   96SAPC   C15 9369   0.741   4.426   3.432  0.6005  0.4503  0.5635
   96SAPC  H15A 9370   0.808   4.414   3.515  1.5960  2.1453  0.0594
   96SAPC  H15B 9371   0.758   4.522   3.384  0.1215  0.2791  0.0302
   96SAPC  H15C 9372   0.638   4.430   3.465 -0.3649  0.8577 -2.1709
   96SAPC   C11 9373   0.821   4.166   3.554 -0.4733  0.5291  0.3610
   96SAPC  H11A 9374   0.797   4.068   3.601  0.1948  0.0982 -0.1631
   96SAPC  H11B 9375   0.782   4.233   3.633 -1.8615 -0.5525  0.6373
   96SAPC     P 9376   1.059   4.057   3.526 -0.2077  0.2471  0.0111
   96SAPC   O13 9377   0.980   3.933   3.489  0.2312 -0.3885  0.1880
   96SAPC   O14 9378   1.175   4.092   3.440  0.5664 -0.2103 -0.3150
   96SAPC   O12 9379   0.966   4.187   3.528  0.6234 -0.0599  0.0352
   96SAPC   O11 9380   1.090   4.040   3.684 -0.1209  0.1625  0.4891
   96SAPC    C1 9381   1.132   4.159   3.747  0.0256  0.5408  0.2649
   96SAPC    HA 9382   1.223   4.200   3.698 -0.0705 -0.1208 -0.4913
   96SAPC    HB 9383   1.048   4.231   3.748 -1.5809 -1.1072 -2.7010
   96SAPC    C2 9384   1.184   4.133   3.895  0.3757 -0.7174  0.1799
   96SAPC    HS 9385   1.281   4.080   3.887  0.5932 -0.4502  0.9474
   96SAPC   O21 9386   1.085   4.065   3.978  0.8437 -0.5098  0.1492
   96SAPC   C21 9387   1.115   3.941   4.026  0.3356 -0.0513  0.9098
   96SAPC   O22 9388   1.213   3.883   3.995  0.6247 -0.3058  0.0495
   96SAPC   C22 9389   0.999   3.884   4.122 -0.1369 -0.2855 -0.0116
   96SAPC   H2R 9390   0.941   3.965   4.170 -0.6469 -1.0997  0.7901
   96SAPC   H2S 9391   0.931   3.824   4.057 -0.0694  0.1496 -0.4844
   96SAPC    C3 9392   1.233   4.270   3.958  0.1561  1.1508  0.2935
   96SAPC    HX 9393   1.151   4.342   3.978  0.5892  1.4637  0.9542
   96SAPC    HY 9394   1.298   4.318   3.882  0.7747 -0.2841 -0.1264
   96SAPC   O31 9395   1.297   4.245   4.090 -0.8071 -0.0135 -0.4643
   96SAPC   C31 9396   1.431   4.247   4.088  0.0357  0.7426 -0.2266
   96SAPC   O32 9397   1.501   4.298   4.001  0.6368  0.6436 -0.6860
   96SAPC   C32 9398   1.482   4.175   4.213  0.4876 -0.4038 -0.2199
   96SAPC   H2X 9399   1.399   4.165   4.287  0.3030 -3.7188 -0.6936
   96SAPC   H2Y 9400   1.568   4.233   4.251 -0.0460  0.8080 -0.8019
   96SAPC   C23 9401   1.048   3.782   4.225  0.4943 -0.5579  0.0308
   96SAPC   H3R 9402   1.099   3.693   4.184  1.4268 -0.3301  0.6671
   96SAPC   H3S 9403   0.955   3.735   4.265 -0.0090 -0.2122 -0.7007
   96SAPC   C24 9404   1.157   3.846   4.318 -0.7048 -0.6203 -0.1925
   96SAPC   H4R 9405   1.135   3.955   4.313  3.4418  0.3399 -0.4819
   96SAPC   H4S 9406   1.253   3.843   4.262 -0.0732 -0.4763  0.8586
   96SAPC   C25 9407   1.176   3.796   4.459  0.5146 -0.3624  0.0488
   96SAPC   H5R 9408   1.208   3.692   4.471  2.5535 -0.0719 -2.2424
   96SAPC   C26 9409   1.163   3.864   4.573  0.4883 -0.1186 -0.5625
   96SAPC   H6R 9410   1.166   3.819   4.673  0.1307  0.8851 -0.0965
   96SAPC   C27 9411   1.128   4.009   4.578  0.3535 -0.5758  0.0837
   96SAPC   H7R 9412   1.140   4.052   4.477  0.6087 -0.6853  0.0652
   96SAPC   H7S 9413   1.201   4.070   4.635  0.2411  0.4643 -0.8614
   96SAPC   C28 9414   0.990   4.031   4.627 -0.1501  0.0013 -0.6297
   96SAPC   H8R 9415   0.910   4.026   4.552  1.7426 -1.1611 -2.6766
   96SAPC   C29 9416   0.954   4.053   4.752 -0.2500  0.4441 -0.6497
   96SAPC   H9R 9417   0.848   4.071   4.775 -0.1694 -0.7542  0.7606
   96SAPC  C210 9418   1.045   4.052   4.873 -0.0481  0.1811 -0.4227
   96SAPC  H10R 9419   1.105   4.145   4.873  0.5764 -0.2036  1.0066
   96SAPC  H10S 9420   1.119   3.971   4.856 -1.7429 -0.9422 -3.0065
   96SAPC  C211 9421   0.958   4.034   4.994  0.2189 -0.0740  0.3261
   96SAPC  H11R 9422   0.869   3.971   4.979 -0.8789  1.5461 -0.2519
   96SAPC  C212 9423   0.974   4.081   5.121  0.3478 -0.9474  0.2111
   96SAPC  H12R 9424   0.901   4.058   5.200  0.2047  1.3117  0.8142
   96SAPC  C213 9425   1.083   4.176   5.169  0.5002  0.4829  0.3999
   96SAPC  H13R 9426   1.048   4.277   5.198  1.3238  0.7201  0.6030
   96SAPC  H13S 9427   1.161   4.203   5.095  0.6968  0.2686  0.5259
   96SAPC  C214 9428   1.170   4.119   5.276  0.4645  0.4213 -0.0235
   96SAPC  H14R 9429   1.226   4.031   5.243  0.1556 -0.2077  1.0768
   96SAPC  C215 9430   1.197   4.164   5.401 -0.4813 -0.0551 -0.2914
   96SAPC  H15R 9431   1.276   4.116   5.460 -1.0884  0.4603  0.9689
   96SAPC  C216 9432   1.146   4.287   5.477 -0.2002 -0.3750 -0.2765
   96SAPC  H16R 9433   1.037   4.302   5.461 -0.1896  0.8528  0.6850
   96SAPC  H16S 9434   1.196   4.374   5.429  0.4019 -0.0723  0.8778
   96SAPC  C217 9435   1.181   4.275   5.624 -0.2576  0.4142 -0.2427
   96SAPC  H17R 9436   1.289   4.276   5.650 -0.1233  0.7752 -0.7989
   96SAPC  H17S 9437   1.137   4.182   5.666 -2.3617  1.4397 -0.0285
   96SAPC  C218 9438   1.127   4.394   5.706  0.4328  0.4565  0.1662
   96SAPC  H18R 9439   1.021   4.415   5.677 -0.0122 -2.9527 -1.1272
   96SAPC  H18S 9440   1.186   4.482   5.672  1.5823  0.2949  1.6565
   96SAPC  C219 9441   1.135   4.377   5.855  0.1262  0.2387 -0.9963
   96SAPC  H19R 9442   1.096   4.468   5.905 -1.9848 -2.0656  1.9140
   96SAPC  H19S 9443   1.244   4.371   5.879 -0.3293  1.0381  1.6179
   96SAPC  C220 9444   1.064   4.254   5.913 -0.8047  0.3962  0.2751
   96SAPC  H20R 9445   0.963   4.250   5.868 -0.4238  1.3154 -0.7148
   96SAPC  H20S 9446   1.068   4.242   6.023  0.1871 -2.9282 -0.0049
   96SAPC  H20T 9447   1.122   4.164   5.882 -0.6856  0.3219  0.7053
   96SAPC   C33 9448   1.515   4.027   4.190  0.3901  0.1753 -0.3327
   96SAPC   H3X 9449   1.598   4.016   4.118  2.4930 -0.2344  2.0240
   96SAPC   H3Y 9450   1.425   3.993   4.135  0.5917  1.6964 -1.6827
   96SAPC   C34 9451   1.530   3.954   4.328 -0.4776 -0.4320 -0.3267
   96SAPC   H4X 9452   1.434   3.963   4.383  0.7162  1.0255  1.6308
   96SAPC   H4Y 9453   1.603   4.006   4.393 -0.0233  1.5427 -2.2989
   96SAPC   C35 9454   1.579   3.806   4.315 -0.2265  0.2260 -1.0392
   96SAPC   H5X 9455   1.681   3.798   4.272  0.1985  1.0370 -0.2256
   96SAPC   H5Y 9456   1.508   3.760   4.243  0.3782 -1.8504 -0.3705
   96SAPC   C36 9457   1.598   3.728   4.449  0.6243 -1.3435 -0.0569
   96SAPC   H6X 9458   1.627   3.624   4.423 -2.1361 -1.8228 -1.6126
   96SAPC   H6Y 9459   1.503   3.716   4.504  0.0117  0.9365 -0.4970
   96SAPC   C37 9460   1.701   3.786   4.541  0.2179 -0.0567 -0.0716
   96SAPC   H7X 9461   1.682   3.890   4.576 -0.0574 -0.5718  1.3784
   96SAPC   H7Y 9462   1.795   3.780   4.483 -1.4310 -1.9442 -2.8067
   96SAPC   C38 9463   1.711   3.706   4.675 -1.0510  1.0984 -0.0532
   96SAPC   H8X 9464   1.768   3.613   4.657 -1.9459  0.5546 -0.1514
   96SAPC   H8Y 9465   1.619   3.660   4.717  1.1115 -2.5218  1.1271
   96SAPC   C39 9466   1.792   3.785   4.776  0.5234 -0.3342  0.2223
   96SAPC   H9X 9467   1.736   3.874   4.813 -0.2864 -0.4826 -0.6167
   96SAPC   H9Y 9468   1.882   3.821   4.721 -0.9606  0.6106 -1.6985
   96SAPC  C310 9469   1.826   3.705   4.900  0.2927  0.0516  0.6763
   96SAPC  H10X 9470   1.883   3.613   4.873  2.2985  1.8221 -1.6710
   96SAPC  H10Y 9471   1.727   3.684   4.945 -1.1556 -0.3316 -2.3987
   96SAPC  C311 9472   1.898   3.786   5.013  0.4706  0.8274  0.4445
   96SAPC  H11X 9473   1.856   3.887   5.030  0.8428  1.1481 -0.4577
   96SAPC  H11Y 9474   2.002   3.805   4.981  0.7505  1.8123  1.8492
   96SAPC  C312 9475   1.924   3.682   5.127 -0.6323  0.1016  0.2727
   96SAPC  H12X 9476   2.004   3.613   5.095 -1.5439 -1.1422  0.6093
   96SAPC  H12Y 9477   1.836   3.624   5.164 -1.4161  0.9436 -0.2219
   96SAPC  C313 9478   1.990   3.752   5.252 -0.2756  0.5086  0.5357
   96SAPC  H13X 9479   2.079   3.811   5.220  1.6582 -1.5166  1.8470
   96SAPC  H13Y 9480   2.026   3.672   5.320  0.6118 -0.8758 -1.4687
   96SAPC  C314 9481   1.892   3.850   5.326 -0.4490  0.1377  0.1414
   96SAPC  H14X 9482   1.790   3.807   5.316 -1.8703  3.2398  0.0285
   96SAPC  H14Y 9483   1.903   3.945   5.269  0.3769 -1.3285 -2.3292
   96SAPC  C315 9484   1.926   3.868   5.472 -0.5996 -0.6713 -0.8809
   96SAPC  H15X 9485   1.923   3.770   5.523  1.7087 -0.3848 -0.1017
   96SAPC  H15Y 9486   1.846   3.929   5.520  0.7760 -0.3539  1.1013
   96SAPC  C316 9487   2.069   3.922   5.493  0.4260 -0.6366 -0.9678
   96SAPC  H16X 9488   2.087   4.024   5.451  2.7729 -1.0616 -1.1673
   96SAPC  H16Y 9489   2.137   3.850   5.442  0.1961 -1.1231 -0.5838
   96SAPC  C317 9490   2.113   3.917   5.638 -0.1255 -0.5391 -0.3328
   96SAPC  H17X 9491   2.084   3.825   5.693  0.9170 -0.8559 -0.2853
   96SAPC  H17Y 9492   2.071   4.007   5.686  1.7760  0.5591 -0.6342
   96SAPC  C318 9493   2.266   3.916   5.647  0.0783  0.4111  0.2162
   96SAPC  H18X 9494   2.299   3.830   5.585 -2.9605 -1.0899  0.4890
   96SAPC  H18Y 9495   2.293   3.905   5.754 -1.3492 -2.3813  0.3866
   96SAPC  H18Z 9496   2.314   4.007   5.605 -0.3852  0.2998 -0.5649
   97SAPC     N 9497   0.913   3.647   3.256  0.0897  0.4443 -0.1937
   97SAPC   C12 9498   0.846   3.641   3.395  0.4772  0.0514 -0.5419
   97SAPC  H12A 9499   0.745   3.676   3.383 -0.5605 -2.0063  1.3918
   97SAPC  H12B 9500   0.893   3.708   3.466 -1.3755 -0.1850  1.0037
   97SAPC   C13 9501   0.962   3.785   3.233  0.0094  0.0711 -0.1180
   97SAPC  H13A 9502   0.979   3.830   3.329 -0.1857 -0.4939  0.1915
   97SAPC  H13B 9503   1.058   3.779   3.185 -0.5108 -0.4396 -1.1404
   97SAPC  H13C 9504   0.889   3.839   3.174  0.9674  1.6834  0.1272
   97SAPC   C14 9505   1.039   3.554   3.263  0.4652  0.5468  0.2818
   97SAPC  H14A 9506   1.007   3.453   3.281  3.9520 -0.4312  1.7998
   97SAPC  H14B 9507   1.106   3.556   3.178  0.5721 -2.9077  0.1346
   97SAPC  H14C 9508   1.109   3.578   3.342  0.2114  0.3123  0.5794
   97SAPC   C15 9509   0.821   3.593   3.148  0.0905  0.4577  0.3158
   97SAPC  H15A 9510   0.797   3.489   3.164  1.2912 -0.6401 -3.7063
   97SAPC  H15B 9511   0.736   3.660   3.153 -0.0616  0.1447  2.4905
   97SAPC  H15C 9512   0.864   3.594   3.048  0.1445  0.0459  0.3335
   97SAPC   C11 9513   0.840   3.504   3.463 -0.4484 -0.7007  0.4787
   97SAPC  H11A 9514   0.792   3.503   3.563 -1.7718  0.1581 -0.1068
   97SAPC  H11B 9515   0.947   3.480   3.478 -0.0344  0.7045 -0.1267
   97SAPC     P 9516   0.817   3.264   3.376  0.1483 -0.1669  0.0222
   97SAPC   O13 9517   0.719   3.173   3.301  0.3287  0.6102  0.7454
   97SAPC   O14 9518   0.954   3.254   3.331  0.4986 -0.2639  0.0530
   97SAPC   O12 9519   0.771   3.411   3.374  0.9517 -0.3184  0.2032
   97SAPC   O11 9520   0.806   3.235   3.530 -0.6159 -0.4333  0.2730
   97SAPC    C1 9521   0.683   3.229   3.598 -0.0305  0.4042 -0.1184
   97SAPC    HA 9522   0.609   3.291   3.543 -0.3430 -0.7201 -1.0162
   97SAPC    HB 9523   0.657   3.121   3.596  0.3944  0.2900  0.4335
   97SAPC    C2 9524   0.708   3.275   3.748 -0.4693  0.2887  0.7570
   97SAPC    HS 9525   0.749   3.379   3.747  1.1432 -0.3158 -0.9604
   97SAPC   O21 9526   0.794   3.177   3.810 -0.0499 -0.1438 -0.9350
   97SAPC   C21 9527   0.897   3.227   3.884  0.1943  0.1609  0.6009
   97SAPC   O22 9528   0.930   3.342   3.887  0.5348 -0.2534  0.3287
   97SAPC   C22 9529   0.975   3.116   3.952 -0.4499 -0.5841  0.0503
   97SAPC   H2R 9530   0.939   3.012   3.936  0.1251 -0.4913 -2.2430
   97SAPC   H2S 9531   1.065   3.113   3.886 -0.7230  2.0424 -0.5525
   97SAPC    C3 9532   0.581   3.269   3.836 -0.0010  0.0988  0.8715
   97SAPC    HX 9533   0.537   3.167   3.831  0.4281 -0.1076 -3.9289
   97SAPC    HY 9534   0.502   3.327   3.783  0.5812 -1.2897 -1.7054
   97SAPC   O31 9535   0.599   3.318   3.971  0.0378  0.1908 -0.0201
   97SAPC   C31 9536   0.625   3.447   4.005  0.6085  0.5889 -0.3783
   97SAPC   O32 9537   0.638   3.538   3.928  0.0238 -0.5663 -0.6716
   97SAPC   C32 9538   0.638   3.457   4.155  0.0247 -0.1262  0.1813
   97SAPC   H2X 9539   0.625   3.360   4.208 -0.6739 -1.8949 -2.9513
   97SAPC   H2Y 9540   0.561   3.531   4.186 -2.4863 -1.1217 -3.0766
   97SAPC   C23 9541   0.994   3.128   4.102 -0.1884  0.0677 -0.1695
   97SAPC   H3R 9542   1.007   3.230   4.145  0.0824 -0.5111  1.1811
   97SAPC   H3S 9543   1.099   3.094   4.110 -0.1958  0.4279  2.6198
   97SAPC   C24 9544   0.906   3.032   4.198 -0.2849 -0.1705  0.8079
   97SAPC   H4R 9545   0.965   3.015   4.291  0.3274 -0.8241  0.3068
   97SAPC   H4S 9546   0.887   2.938   4.142  1.4684 -0.0234 -0.0779
   97SAPC   C25 9547   0.771   3.095   4.207 -0.3883 -0.1178 -0.0474
   97SAPC   H5R 9548   0.725   3.147   4.121 -2.2576  0.8949  1.4916
   97SAPC   C26 9549   0.695   3.089   4.313  0.2546  0.0136  0.3941
   97SAPC   H6R 9550   0.595   3.134   4.308 -0.3870 -1.1179  2.2605
   97SAPC   C27 9551   0.726   3.030   4.448  0.0831  0.5182  1.1782
   97SAPC   H7R 9552   0.835   3.020   4.466  0.4240 -1.3085 -1.2518
   97SAPC   H7S 9553   0.681   2.929   4.457 -0.2830  0.3760 -1.3402
   97SAPC   C28 9554   0.670   3.118   4.556  0.2742  0.2275 -0.2411
   97SAPC   H8R 9555   0.560   3.124   4.559  0.1394  0.5848 -2.9300
   97SAPC   C29 9556   0.739   3.178   4.654 -0.1261 -0.3574  0.6094
   97SAPC   H9R 9557   0.686   3.240   4.727  0.4894  0.8439  0.0674
   97SAPC  C210 9558   0.891   3.181   4.680 -0.0394 -0.6975 -0.1368
   97SAPC  H10R 9559   0.906   3.269   4.745 -0.3528 -1.3908  0.8957
   97SAPC  H10S 9560   0.951   3.210   4.591  2.9068  1.6482  2.3743
   97SAPC  C211 9561   0.942   3.051   4.740  0.0830 -0.6636  0.6293
   97SAPC  H11R 9562   0.926   2.955   4.690  1.9637 -1.3681  1.2797
   97SAPC  C212 9563   1.008   3.052   4.860 -0.2054 -0.5779 -0.0136
   97SAPC  H12R 9564   1.060   2.960   4.891  2.5437  0.8213 -0.1491
   97SAPC  C213 9565   1.058   3.171   4.929  0.2132  0.2453 -0.2005
   97SAPC  H13R 9566   0.971   3.232   4.962  1.4931  2.2090 -0.2710
   97SAPC  H13S 9567   1.109   3.224   4.846  0.7533  0.8577  0.5053
   97SAPC  C214 9568   1.155   3.138   5.044  0.3452  0.0470 -0.9206
   97SAPC  H14R 9569   1.229   3.058   5.026 -0.4753 -1.2794  1.1755
   97SAPC  C215 9570   1.155   3.192   5.171  0.3182 -0.4792 -0.0048
   97SAPC  H15R 9571   1.234   3.155   5.239 -0.0832 -0.5162  0.4497
   97SAPC  C216 9572   1.058   3.299   5.224  0.3110  0.3907 -0.0018
   97SAPC  H16R 9573   1.015   3.351   5.136  1.2497 -2.1638 -2.0723
   97SAPC  H16S 9574   1.103   3.372   5.296 -3.5247  3.6519 -0.5085
   97SAPC  C217 9575   0.936   3.224   5.295 -0.5264  0.0430  1.1547
   97SAPC  H17R 9576   0.914   3.123   5.253 -0.9222 -0.0075  1.4755
   97SAPC  H17S 9577   0.842   3.278   5.272  0.3434  0.2376 -2.7339
   97SAPC  C218 9578   0.963   3.190   5.444  0.1736  0.3262  0.2224
   97SAPC  H18R 9579   1.066   3.153   5.460 -0.3138 -0.3999  2.0319
   97SAPC  H18S 9580   0.893   3.108   5.470  1.2028 -0.7611 -0.3677
   97SAPC  C219 9581   0.954   3.313   5.535 -0.5724 -0.3362 -0.4421
   97SAPC  H19R 9582   0.864   3.368   5.501  0.2843  0.3897 -1.5793
   97SAPC  H19S 9583   1.045   3.376   5.537 -1.5621  1.2063  2.0733
   97SAPC  C220 9584   0.947   3.279   5.686  0.0726 -0.2831 -0.2226
   97SAPC  H20R 9585   0.863   3.209   5.710  1.4093 -1.4694  1.2210
   97SAPC  H20S 9586   0.946   3.368   5.752  0.9304  0.5581 -1.3014
   97SAPC  H20T 9587   1.041   3.227   5.713  1.1625  1.6465 -0.1779
   97SAPC   C33 9588   0.769   3.533   4.189 -0.4199  0.1761  1.1943
   97SAPC   H3X 9589   0.758   3.637   4.153  0.3960 -0.3382 -0.6140
   97SAPC   H3Y 9590   0.859   3.489   4.142 -1.3048 -1.0276  0.5769
   97SAPC   C34 9591   0.813   3.509   4.334  0.3279  0.0296  0.5432
   97SAPC   H4X 9592   0.909   3.565   4.341  0.4773  0.1504 -1.7626
   97SAPC   H4Y 9593   0.824   3.400   4.348 -1.7170 -0.2414  0.3233
   97SAPC   C35 9594   0.707   3.568   4.428  0.3040 -0.0625 -0.3888
   97SAPC   H5X 9595   0.649   3.483   4.469 -1.5022  1.2011 -0.2161
   97SAPC   H5Y 9596   0.639   3.643   4.383  1.9306  0.8830 -1.3968
   97SAPC   C36 9597   0.773   3.643   4.541 -0.0826 -0.4135  0.3458
   97SAPC   H6X 9598   0.697   3.706   4.592  2.3768  2.9395  0.2361
   97SAPC   H6Y 9599   0.842   3.716   4.492 -0.8225  0.1073  0.0590
   97SAPC   C37 9600   0.860   3.552   4.634 -0.2221  0.2864  0.4270
   97SAPC   H7X 9601   0.935   3.508   4.565 -0.9907  1.8025 -1.4660
   97SAPC   H7Y 9602   0.791   3.474   4.673  1.1725 -0.6935  1.0080
   97SAPC   C38 9603   0.926   3.633   4.744  0.4683  0.1762  0.6016
   97SAPC   H8X 9604   0.949   3.731   4.696  0.8102  0.8330  2.0533
   97SAPC   H8Y 9605   1.021   3.592   4.782  0.8182  2.3715  2.2770
   97SAPC   C39 9606   0.836   3.662   4.868  0.0286 -0.1461 -0.2872
   97SAPC   H9X 9607   0.727   3.659   4.849 -0.7821 -0.1831  3.4836
   97SAPC   H9Y 9608   0.864   3.755   4.921  2.4817 -1.2488  0.4912
   97SAPC  C310 9609   0.852   3.552   4.977 -0.6100  0.6651  0.3440
   97SAPC  H10X 9610   0.960   3.527   4.974 -1.0134 -1.3540  1.0835
   97SAPC  H10Y 9611   0.791   3.466   4.941  0.0064  1.0475 -1.6901
   97SAPC  C311 9612   0.799   3.586   5.122 -0.0389  0.3300  0.0799
   97SAPC  H11X 9613   0.824   3.500   5.188  1.7856 -2.3117 -3.7162
   97SAPC  H11Y 9614   0.689   3.600   5.132  0.3165  1.6559  3.3204
   97SAPC  C312 9615   0.862   3.715   5.176  0.2439 -0.0097 -0.2856
   97SAPC  H12X 9616   0.807   3.798   5.126 -2.3533 -0.1850  2.0402
   97SAPC  H12Y 9617   0.970   3.707   5.151  0.6027 -1.2239  1.4914
   97SAPC  C313 9618   0.847   3.716   5.326  0.4730  0.0491 -0.0497
   97SAPC  H13X 9619   0.916   3.798   5.356 -0.1734  0.9158 -0.8921
   97SAPC  H13Y 9620   0.883   3.625   5.380  1.6018 -0.0716 -0.9921
   97SAPC  C314 9621   0.708   3.762   5.370  0.2452  0.8348  0.4263
   97SAPC  H14X 9622   0.629   3.687   5.350  0.4117  1.1186 -1.5023
   97SAPC  H14Y 9623   0.673   3.850   5.312 -3.4240 -1.0039 -0.4564
   97SAPC  C315 9624   0.701   3.812   5.513 -0.3315 -0.1791  0.0131
   97SAPC  H15X 9625   0.788   3.873   5.547 -1.8856  1.2081  1.6752
   97SAPC  H15Y 9626   0.718   3.722   5.576 -0.2182  0.4267  0.8601
   97SAPC  C316 9627   0.571   3.880   5.557 -0.5666  0.4783  0.0484
   97SAPC  H16X 9628   0.558   3.867   5.667  3.1999  0.6328  0.6575
   97SAPC  H16Y 9629   0.478   3.842   5.512 -0.4871 -1.0269  1.0743
   97SAPC  C317 9630   0.580   4.031   5.525 -0.0831 -0.1512  0.6640
   97SAPC  H17X 9631   0.613   4.039   5.419 -2.4514 -4.1892 -0.5911
   97SAPC  H17Y 9632   0.652   4.077   5.596 -0.7735 -1.4333  2.2485
   97SAPC  C318 9633   0.444   4.098   5.550  0.6977 -0.0127 -0.6233
   97SAPC  H18X 9634   0.358   4.041   5.508  0.2130 -0.9123  1.4747
   97SAPC  H18Y 9635   0.444   4.196   5.498 -0.6768  0.9380  1.0661
   97SAPC  H18Z 9636   0.416   4.110   5.656  0.6898  1.0804 -0.7412
   98SAPC     N 9637   5.399   3.499   3.307  0.2439  0.7183  0.0549
   98SAPC   C12 9638   5.447   3.464   3.446 -0.8884 -0.8976  0.1236
   98SAPC  H12A 9639   5.479   3.556   3.491 -1.3183 -0.9612  0.5760
   98SAPC  H12B 9640   5.534   3.400   3.451  0.2941  0.5888 -0.6786
   98SAPC   C13 9641   5.372   3.375   3.226 -0.3761 -0.5863 -0.2427
   98SAPC  H13A 9642   5.314   3.311   3.290  0.8233 -0.9835  0.4762
   98SAPC  H13B 9643   5.331   3.379   3.126  1.7062 -2.2578 -1.2441
   98SAPC  H13C 9644   5.459   3.313   3.209  0.1062 -0.0900  0.3246
   98SAPC   C14 9645   5.266   3.581   3.303 -0.0690 -0.1637  0.9589
   98SAPC  H14A 9646   5.284   3.675   3.353  0.9948  1.8569 -2.8247
   98SAPC  H14B 9647   5.235   3.607   3.202 -0.5763 -1.7643  0.6710
   98SAPC  H14C 9648   5.180   3.528   3.342  0.7277 -0.6470  2.1036
   98SAPC   C15 9649   5.499   3.586   3.228  0.1148 -0.1930  0.1454
   98SAPC  H15A 9650   5.449   3.626   3.141  1.8102  0.5939 -0.5280
   98SAPC  H15B 9651   5.538   3.675   3.275  0.6358  0.0362 -0.6890
   98SAPC  H15C 9652   5.580   3.530   3.184 -1.0614 -1.8351  0.0244
   98SAPC   C11 9653   5.343   3.397   3.534  1.3082 -0.5157  0.2104
   98SAPC  H11A 9654   5.246   3.453   3.534  1.7592  0.2835  0.4713
   98SAPC  H11B 9655   5.368   3.404   3.642 -0.6940  2.5422  0.6295
   98SAPC     P 9656   5.389   3.145   3.557 -0.0816 -0.4775 -0.1119
   98SAPC   O13 9657   5.334   3.024   3.494  0.0976  0.2855 -0.1046
   98SAPC   O14 9658   5.535   3.165   3.556  0.0165  0.2038  0.1862
   98SAPC   O12 9659   5.310   3.266   3.493 -0.2812 -0.2902  0.7717
   98SAPC   O11 9660   5.346   3.152   3.712 -0.1643  0.1263  0.1169
   98SAPC    C1 9661   5.205   3.174   3.729  0.0969  0.0610 -0.0004
   98SAPC    HA 9662   5.158   3.242   3.655  1.7855  0.4248 -0.7894
   98SAPC    HB 9663   5.155   3.076   3.714 -1.4410  0.8293 -0.0190
   98SAPC    C2 9664   5.171   3.229   3.860  0.1580 -0.0217  0.4088
   98SAPC    HS 9665   5.191   3.338   3.852 -0.4862 -0.0010 -1.3185
   98SAPC   O21 9666   5.245   3.168   3.964  0.4610  0.8587 -0.1390
   98SAPC   C21 9667   5.273   3.243   4.072 -0.1361  0.8373  0.2896
   98SAPC   O22 9668   5.257   3.362   4.088 -0.7712 -0.0196 -0.0400
   98SAPC   C22 9669   5.320   3.138   4.181 -0.8014  0.4534 -0.2997
   98SAPC   H2R 9670   5.416   3.089   4.155  0.2572  1.2550  1.8745
   98SAPC   H2S 9671   5.329   3.190   4.278 -1.0189 -3.2280  1.8971
   98SAPC    C3 9672   5.020   3.231   3.891 -0.4936  0.2796 -0.3992
   98SAPC    HX 9673   4.985   3.132   3.927 -0.3561  0.4935  0.3368
   98SAPC    HY 9674   4.964   3.236   3.795 -0.4353  0.1224 -0.4427
   98SAPC   O31 9675   4.982   3.331   3.982 -0.3345 -0.4114 -0.2359
   98SAPC   C31 9676   4.941   3.444   3.938  0.4193 -0.4198 -0.5972
   98SAPC   O32 9677   4.927   3.473   3.819  0.2094 -0.0024 -0.0685
   98SAPC   C32 9678   4.926   3.542   4.049  0.8654 -0.3101 -0.5608
   98SAPC   H2X 9679   5.020   3.599   4.031  2.1297 -2.4519 -1.1018
   98SAPC   H2Y 9680   4.932   3.494   4.149 -2.5136 -0.2042 -0.1879
   98SAPC   C23 9681   5.216   3.028   4.216  0.0935 -0.5049 -0.5205
   98SAPC   H3R 9682   5.189   2.981   4.119  0.2343 -1.6526 -0.0146
   98SAPC   H3S 9683   5.131   3.087   4.256  0.8108 -0.2231  0.6513
   98SAPC   C24 9684   5.267   2.924   4.317 -0.0103  0.0434  0.3508
   98SAPC   H4R 9685   5.364   2.877   4.290 -0.5689 -1.1167  0.2742
   98SAPC   H4S 9686   5.199   2.841   4.346 -0.2915  0.3904  0.6826
   98SAPC   C25 9687   5.294   3.006   4.446  1.1733 -0.3445 -0.1485
   98SAPC   H5R 9688   5.394   3.051   4.447  0.7440  0.6616 -0.6452
   98SAPC   C26 9689   5.196   3.035   4.537 -0.7384 -0.9760  0.2510
   98SAPC   H6R 9690   5.228   3.111   4.610 -0.0632 -0.0051 -1.0094
   98SAPC   C27 9691   5.053   2.998   4.531 -0.0546  0.6769  0.4762
   98SAPC   H7R 9692   5.030   2.954   4.432  0.5387 -0.4832  0.8415
   98SAPC   H7S 9693   4.983   3.085   4.540 -1.1097  0.0719 -1.3916
   98SAPC   C28 9694   4.998   2.897   4.634  0.4719 -0.1569  0.5104
   98SAPC   H8R 9695   4.989   2.796   4.590 -3.5033  0.3822 -0.2859
   98SAPC   C29 9696   4.972   2.928   4.763  0.0202  0.2129  0.1445
   98SAPC   H9R 9697   4.948   2.842   4.827  0.7760 -0.0271  0.1175
   98SAPC  C210 9698   4.982   3.064   4.826  0.0174 -0.3609 -0.4511
   98SAPC  H10R 9699   4.879   3.106   4.820  0.2606  0.4209  0.5626
   98SAPC  H10S 9700   5.048   3.130   4.766  0.7526 -1.8489 -1.3369
   98SAPC  C211 9701   5.012   3.076   4.975 -0.2535  0.4470 -0.0918
   98SAPC  H11R 9702   4.983   2.983   5.026  3.0175  0.0565  1.3590
   98SAPC  C212 9703   5.071   3.177   5.050  0.0580  0.3865  0.4530
   98SAPC  H12R 9704   5.084   3.160   5.158  0.2046  1.0990  0.5490
   98SAPC  C213 9705   5.116   3.311   4.995 -0.3648 -0.4225 -0.4091
   98SAPC  H13R 9706   5.071   3.392   5.056 -0.3887 -1.4740  1.0229
   98SAPC  H13S 9707   5.090   3.316   4.887 -0.9588 -1.1532 -0.3054
   98SAPC  C214 9708   5.267   3.347   4.995  0.0895 -0.1522  0.0070
   98SAPC  H14R 9709   5.304   3.373   5.095 -0.8943 -0.7703  0.5548
   98SAPC  C215 9710   5.345   3.378   4.893  1.0062  0.5918  0.4800
   98SAPC  H15R 9711   5.444   3.422   4.914  1.3237 -0.4754  1.3280
   98SAPC  C216 9712   5.301   3.373   4.750  0.1215 -0.4172  0.2445
   98SAPC  H16R 9713   5.249   3.279   4.721  1.4713 -0.6954 -1.4178
   98SAPC  H16S 9714   5.396   3.377   4.693  1.2764  0.0639  2.1207
   98SAPC  C217 9715   5.223   3.495   4.722 -0.2706 -0.9533  0.8380
   98SAPC  H17R 9716   5.263   3.589   4.764  1.1162 -1.8064  1.4817
   98SAPC  H17S 9717   5.122   3.490   4.769 -0.7746  1.5482  0.1551
   98SAPC  C218 9718   5.197   3.517   4.567 -0.3666 -0.3777 -0.0495
   98SAPC  H18R 9719   5.290   3.510   4.506 -0.9364 -0.2191 -0.9681
   98SAPC  H18S 9720   5.142   3.614   4.565 -1.5910 -1.0184  1.2056
   98SAPC  C219 9721   5.102   3.409   4.505  0.3553  0.7320 -0.3774
   98SAPC  H19R 9722   5.012   3.398   4.569 -1.3052 -0.2208 -2.7235
   98SAPC  H19S 9723   5.166   3.319   4.510 -1.0957 -0.5262 -2.3827
   98SAPC  C220 9724   5.057   3.428   4.364  0.4097  0.1909 -1.0635
   98SAPC  H20R 9725   4.987   3.347   4.336  1.1825 -0.2267 -1.8388
   98SAPC  H20S 9726   5.148   3.420   4.300  0.8068 -2.7342 -0.2562
   98SAPC  H20T 9727   5.003   3.526   4.367  0.6823  0.3199  0.6917
   98SAPC   C33 9728   4.804   3.643   4.045 -0.4096  0.5488 -0.0804
   98SAPC   H3X 9729   4.710   3.587   4.063  0.4525 -0.3407  1.9016
   98SAPC   H3Y 9730   4.804   3.695   3.947 -0.3506  3.0172  1.1494
   98SAPC   C34 9731   4.818   3.751   4.162  1.0442  0.4305  0.2352
   98SAPC   H4X 9732   4.768   3.846   4.134  2.2784  1.2748  0.8159
   98SAPC   H4Y 9733   4.926   3.771   4.173  1.2507 -1.1162  1.3597
   98SAPC   C35 9734   4.771   3.702   4.295 -0.2814 -0.4790  0.7224
   98SAPC   H5X 9735   4.837   3.626   4.340  3.3912  0.9410 -1.7978
   98SAPC   H5Y 9736   4.664   3.670   4.297 -0.1241 -0.9916  1.1203
   98SAPC   C36 9737   4.772   3.818   4.394 -0.1488 -0.2505  0.0034
   98SAPC   H6X 9738   4.731   3.908   4.345 -2.4565 -0.8516  0.7241
   98SAPC   H6Y 9739   4.874   3.839   4.432 -1.4030  1.9242  2.4321
   98SAPC   C37 9740   4.692   3.802   4.522 -0.7372 -0.4676  0.2945
   98SAPC   H7X 9741   4.725   3.713   4.580  0.8628 -0.2484 -0.2379
   98SAPC   H7Y 9742   4.587   3.792   4.487 -1.1477  1.9915  0.6503
   98SAPC   C38 9743   4.700   3.920   4.615 -0.0380 -0.3459 -1.2716
   98SAPC   H8X 9744   4.660   4.014   4.572 -0.9406  0.2993  0.8389
   98SAPC   H8Y 9745   4.804   3.948   4.646 -1.2515  3.0341  0.2586
   98SAPC   C39 9746   4.609   3.914   4.737 -0.0366 -1.0526 -0.3725
   98SAPC   H9X 9747   4.652   3.859   4.823 -0.0010 -0.1977  0.1638
   98SAPC   H9Y 9748   4.511   3.869   4.708 -1.5626  1.3086  0.7550
   98SAPC  C310 9749   4.584   4.051   4.802 -0.0096  0.5409 -0.0451
   98SAPC  H10X 9750   4.554   4.129   4.729  1.4403  0.4119 -0.8174
   98SAPC  H10Y 9751   4.684   4.080   4.842  0.0700 -0.9061  0.8506
   98SAPC  C311 9752   4.481   4.042   4.914  0.2907 -0.8860  0.2772
   98SAPC  H11X 9753   4.407   3.966   4.883 -0.6924 -0.5924  1.8044
   98SAPC  H11Y 9754   4.432   4.141   4.926 -1.1542 -1.5929  0.4634
   98SAPC  C312 9755   4.551   4.009   5.049 -0.3491 -0.3957  0.4681
   98SAPC  H12X 9756   4.640   3.943   5.043 -0.1789 -0.2439  1.1939
   98SAPC  H12Y 9757   4.475   3.953   5.107 -0.4833  0.1336  0.8083
   98SAPC  C313 9758   4.609   4.127   5.127  0.8799  0.4073 -0.1861
   98SAPC  H13X 9759   4.536   4.210   5.124  0.0306 -0.3558 -1.9504
   98SAPC  H13Y 9760   4.708   4.158   5.088  0.1244 -0.3552 -2.8948
   98SAPC  C314 9761   4.618   4.095   5.281 -0.0626 -0.5773 -0.1084
   98SAPC  H14X 9762   4.656   3.991   5.289  0.0374 -0.4840  0.7816
   98SAPC  H14Y 9763   4.512   4.083   5.311 -0.4171 -0.0499 -1.0947
   98SAPC  C315 9764   4.678   4.207   5.372 -0.4234  0.4399 -0.0510
   98SAPC  H15X 9765   4.664   4.307   5.326 -0.1650 -0.1402 -1.4596
   98SAPC  H15Y 9766   4.787   4.184   5.376 -0.4671  0.2345  0.0092
   98SAPC  C316 9767   4.626   4.204   5.512 -0.6820 -0.5214 -0.0166
   98SAPC  H16X 9768   4.631   4.102   5.557 -2.4505  0.4601  2.6642
   98SAPC  H16Y 9769   4.517   4.225   5.510 -0.5764 -0.0485 -1.4188
   98SAPC  C317 9770   4.703   4.303   5.602 -0.2671  0.3163  0.1412
   98SAPC  H17X 9771   4.696   4.410   5.572 -2.8639  0.6359  1.6040
   98SAPC  H17Y 9772   4.813   4.283   5.600 -0.1114  1.0491  0.7693
   98SAPC  C318 9773   4.652   4.303   5.743 -0.7942 -0.0669 -0.8469
   98SAPC  H18X 9774   4.686   4.386   5.809 -0.5242 -0.1585 -0.8715
   98SAPC  H18Y 9775   4.676   4.205   5.789  0.8703  0.5379 -0.3762
   98SAPC  H18Z 9776   4.541   4.317   5.740 -0.9038 -0.9685 -2.3872
   99SAPC     N 9777   5.333   6.609   3.167 -0.4473  0.6234  0.5214
   99SAPC   C12 9778   5.356   6.518   3.287  0.3436  0.6352 -0.2288
   99SAPC  H12A 9779   5.312   6.422   3.265 -1.0988  1.7506 -2.6790
   99SAPC  H12B 9780   5.298   6.549   3.373  0.7932 -0.9943  0.7053
   99SAPC   C13 9781   5.189   6.596   3.128  0.1583 -0.2971 -0.1021
   99SAPC  H13A 9782   5.166   6.667   3.050 -0.9869  1.8602  2.0451
   99SAPC  H13B 9783   5.158   6.496   3.101  1.2010 -0.5082 -0.5920
   99SAPC  H13C 9784   5.129   6.637   3.207 -0.6869  2.1587 -1.8946
   99SAPC   C14 9785   5.363   6.750   3.203 -0.2683  0.2153 -0.1499
   99SAPC  H14A 9786   5.319   6.801   3.119 -0.6990  0.1281  0.0229
   99SAPC  H14B 9787   5.322   6.779   3.299  2.8575 -0.6231  1.6233
   99SAPC  H14C 9788   5.471   6.760   3.201 -0.2872  0.2890 -1.6515
   99SAPC   C15 9789   5.413   6.565   3.048  0.3488  0.2953  0.4072
   99SAPC  H15A 9790   5.377   6.468   3.019  0.0859  0.9024 -1.4180
   99SAPC  H15B 9791   5.403   6.631   2.964  0.0177 -1.5542 -1.0662
   99SAPC  H15C 9792   5.519   6.554   3.070  0.1203  0.7611  1.8571
   99SAPC   C11 9793   5.503   6.487   3.330  0.1998 -0.6164  0.3168
   99SAPC  H11A 9794   5.509   6.426   3.423  0.0282 -2.4569 -0.8287
   99SAPC  H11B 9795   5.545   6.585   3.362  0.0175 -0.7369  0.9502
   99SAPC     P 9796   5.731   6.381   3.259  0.1581 -0.0817 -0.1872
   99SAPC   O13 9797   5.732   6.234   3.276 -0.2911 -0.5722 -0.0527
   99SAPC   O14 9798   5.826   6.433   3.163 -0.1757  0.3203  0.5934
   99SAPC   O12 9799   5.585   6.431   3.228  0.8424 -0.1344 -0.3694
   99SAPC   O11 9800   5.761   6.453   3.389 -0.1173  0.0540 -0.1497
   99SAPC    C1 9801   5.805   6.393   3.510 -0.6321  0.1847  0.0405
   99SAPC    HA 9802   5.813   6.282   3.504 -2.5757 -0.0477  1.0307
   99SAPC    HB 9803   5.907   6.427   3.540 -0.9163  0.0881  1.1664
   99SAPC    C2 9804   5.715   6.444   3.627  0.4658  0.6227 -0.8068
   99SAPC    HS 9805   5.618   6.475   3.584 -1.4302 -0.3328  2.4335
   99SAPC   O21 9806   5.780   6.561   3.687  0.0105  0.5450  0.5221
   99SAPC   C21 9807   5.701   6.633   3.763  0.2110  1.0151  0.1966
   99SAPC   O22 9808   5.585   6.602   3.796 -0.6602 -0.5009 -0.1689
   99SAPC   C22 9809   5.785   6.742   3.831 -0.6201  0.1132 -0.8011
   99SAPC   H2R 9810   5.753   6.744   3.938 -1.4165  1.1264 -1.0415
   99SAPC   H2S 9811   5.888   6.705   3.813 -0.6318  1.3063 -3.8239
   99SAPC    C3 9812   5.686   6.323   3.723  0.1792 -0.5693 -0.0984
   99SAPC    HX 9813   5.625   6.253   3.663  0.3832 -1.8462  1.1383
   99SAPC    HY 9814   5.619   6.344   3.809  1.4337 -0.2427  0.8334
   99SAPC   O31 9815   5.817   6.265   3.764 -0.0440 -0.0381 -0.4310
   99SAPC   C31 9816   5.810   6.153   3.829  0.2140 -0.0788 -1.0200
   99SAPC   O32 9817   5.712   6.083   3.841  0.3160 -0.3864 -0.5023
   99SAPC   C32 9818   5.947   6.112   3.884  0.0906 -0.9770 -0.6968
   99SAPC   H2X 9819   6.009   6.204   3.893 -0.8275 -0.4312  0.2978
   99SAPC   H2Y 9820   5.989   6.033   3.818 -2.2439 -1.1104 -2.1588
   99SAPC   C23 9821   5.759   6.869   3.769  0.4545 -0.9254  0.1554
   99SAPC   H3R 9822   5.797   6.859   3.665  2.6685 -1.7414  0.9790
   99SAPC   H3S 9823   5.829   6.944   3.812  0.2773 -1.5948  1.6495
   99SAPC   C24 9824   5.624   6.932   3.802 -0.2905 -0.0068 -0.3755
   99SAPC   H4R 9825   5.604   6.915   3.910  0.2730 -1.2770 -0.4579
   99SAPC   H4S 9826   5.535   6.879   3.764  0.5794 -0.2564 -2.1733
   99SAPC   C25 9827   5.604   7.080   3.755 -0.4367 -0.1714 -0.4048
   99SAPC   H5R 9828   5.591   7.100   3.648 -0.8849  1.7221 -0.0440
   99SAPC   C26 9829   5.583   7.187   3.828  0.2638 -0.9632 -0.4550
   99SAPC   H6R 9830   5.577   7.291   3.795 -0.5707 -1.3698 -1.6080
   99SAPC   C27 9831   5.575   7.200   3.986  0.0997  0.5451 -0.1391
   99SAPC   H7R 9832   5.681   7.211   4.018  0.1850  0.8617 -0.5210
   99SAPC   H7S 9833   5.537   7.107   4.034  0.2996 -0.1403 -1.2690
   99SAPC   C28 9834   5.493   7.318   4.040 -0.3681  0.5594  1.3883
   99SAPC   H8R 9835   5.385   7.309   4.020 -0.1649 -1.5507  1.0317
   99SAPC   C29 9836   5.548   7.422   4.100  0.5527 -0.3775 -0.1218
   99SAPC   H9R 9837   5.477   7.498   4.135  0.9702 -0.5447  1.1193
   99SAPC  C210 9838   5.692   7.446   4.133 -0.7666 -0.2379 -0.4319
   99SAPC  H10R 9839   5.764   7.365   4.108 -0.8617 -0.5848  0.3918
   99SAPC  H10S 9840   5.702   7.443   4.244 -0.0234 -0.4663 -0.4932
   99SAPC  C211 9841   5.740   7.579   4.072  0.2752 -0.1693 -0.4220
   99SAPC  H11R 9842   5.674   7.636   4.005  1.8315  1.1348 -0.8923
   99SAPC  C212 9843   5.859   7.635   4.113  0.3488  0.0068 -0.1871
   99SAPC  H12R 9844   5.895   7.723   4.058  0.0387 -0.1366 -0.6273
   99SAPC  C213 9845   5.959   7.554   4.194  0.0780 -0.2406  0.4068
   99SAPC  H13R 9846   6.037   7.514   4.126 -0.6214 -1.8603  0.5013
   99SAPC  H13S 9847   5.915   7.468   4.250  1.2585 -1.7528 -0.9249
   99SAPC  C214 9848   6.028   7.642   4.300 -0.5239 -0.6017  0.1413
   99SAPC  H14R 9849   6.033   7.750   4.280 -2.0729 -0.4791  0.3350
   99SAPC  C215 9850   6.050   7.601   4.427 -0.0428  0.2164  0.8538
   99SAPC  H15R 9851   6.087   7.671   4.503 -0.8343  0.2228  1.2441
   99SAPC  C216 9852   6.036   7.457   4.483 -0.5574 -0.1656 -0.2741
   99SAPC  H16R 9853   6.050   7.393   4.394  1.1856  0.2341 -0.3111
   99SAPC  H16S 9854   5.938   7.434   4.532 -0.4873  2.8598  1.5755
   99SAPC  C217 9855   6.150   7.432   4.589  0.2792 -0.6402 -0.1152
   99SAPC  H17R 9856   6.244   7.482   4.556 -1.5153  2.3202 -1.1533
   99SAPC  H17S 9857   6.166   7.323   4.601  0.0495 -0.7026 -0.3623
   99SAPC  C218 9858   6.122   7.483   4.734  0.1511 -0.1466 -0.2904
   99SAPC  H18R 9859   6.027   7.439   4.771  0.6612  0.1869  1.5057
   99SAPC  H18S 9860   6.091   7.590   4.725  0.3220 -0.1141 -0.4913
   99SAPC  C219 9861   6.235   7.460   4.835  0.0363 -0.2603 -0.0971
   99SAPC  H19R 9862   6.319   7.512   4.784 -0.4442 -0.8848 -1.5551
   99SAPC  H19S 9863   6.250   7.351   4.847  1.3026 -0.0451  0.4551
   99SAPC  C220 9864   6.201   7.522   4.976 -0.0071 -0.3386 -0.5860
   99SAPC  H20R 9865   6.270   7.492   5.057 -0.2742 -0.3980 -0.3765
   99SAPC  H20S 9866   6.101   7.493   5.016 -0.4047  1.1324 -0.4658
   99SAPC  H20T 9867   6.198   7.632   4.961 -2.4015 -0.2197  0.2547
   99SAPC   C33 9868   5.950   6.055   4.028  0.1436 -0.3248  0.4506
   99SAPC   H3X 9869   6.053   6.051   4.071  0.6961  2.0891 -0.4586
   99SAPC   H3Y 9870   5.910   5.953   4.017 -0.5120  0.0728 -1.1188
   99SAPC   C34 9871   5.865   6.135   4.124  1.2300 -0.3229  0.2714
   99SAPC   H4X 9872   5.757   6.147   4.100  1.2598 -0.1940  0.2006
   99SAPC   H4Y 9873   5.905   6.238   4.134 -1.5642  0.7983  0.6758
   99SAPC   C35 9874   5.867   6.087   4.270  0.3001 -0.8912 -0.2587
   99SAPC   H5X 9875   5.972   6.053   4.272  0.9255  0.8709 -1.2296
   99SAPC   H5Y 9876   5.797   6.005   4.296 -0.0364 -1.1238 -1.8291
   99SAPC   C36 9877   5.858   6.195   4.375  0.2226 -0.0235  0.0547
   99SAPC   H6X 9878   5.759   6.243   4.391  0.3464  0.5972 -0.9380
   99SAPC   H6Y 9879   5.931   6.276   4.352  1.1359 -1.1347 -1.0705
   99SAPC   C37 9880   5.891   6.137   4.514 -0.2747 -0.5887  0.5399
   99SAPC   H7X 9881   5.994   6.097   4.516  1.8168  4.1475  0.9461
   99SAPC   H7Y 9882   5.815   6.058   4.534 -1.6637  0.8013  0.9687
   99SAPC   C38 9883   5.890   6.233   4.627  0.3636 -0.1845 -0.2521
   99SAPC   H8X 9884   5.790   6.281   4.629 -0.7833 -2.2913 -2.1939
   99SAPC   H8Y 9885   5.963   6.317   4.617 -0.8080  0.8509 -0.2838
   99SAPC   C39 9886   5.933   6.167   4.755 -0.0620  0.9042 -0.3213
   99SAPC   H9X 9887   6.035   6.126   4.738 -0.2361  0.3913 -0.1651
   99SAPC   H9Y 9888   5.855   6.089   4.771  0.6548  0.2856  0.2213
   99SAPC  C310 9889   5.947   6.254   4.878 -0.3406 -0.5582  0.7914
   99SAPC  H10X 9890   5.862   6.325   4.877  0.6478  0.6441  0.2912
   99SAPC  H10Y 9891   6.030   6.326   4.861 -0.2224 -0.7961  0.3343
   99SAPC  C311 9892   5.968   6.178   5.013 -0.4855  0.1246 -0.2486
   99SAPC  H11X 9893   6.058   6.114   5.014 -0.5436 -0.0542  3.0917
   99SAPC  H11Y 9894   5.884   6.108   5.034 -0.5241  0.4864  0.8642
   99SAPC  C312 9895   5.988   6.276   5.134  0.1720 -0.1037 -0.2164
   99SAPC  H12X 9896   5.903   6.346   5.125  0.1584 -0.2259 -1.1772
   99SAPC  H12Y 9897   6.085   6.328   5.118  1.2842 -1.5724  1.3467
   99SAPC  C313 9898   5.960   6.193   5.260  0.3552  0.1399 -0.7089
   99SAPC  H13X 9899   6.023   6.101   5.259 -1.0387 -0.8410 -1.3101
   99SAPC  H13Y 9900   5.854   6.162   5.261  0.2481  0.5139 -0.5030
   99SAPC  C314 9901   5.984   6.276   5.381 -0.4946  0.1276 -0.3578
   99SAPC  H14X 9902   5.910   6.358   5.394 -2.0662 -1.3699  0.4885
   99SAPC  H14Y 9903   6.090   6.309   5.385 -0.4082  0.0933 -1.8630
   99SAPC  C315 9904   5.972   6.193   5.512 -0.1894 -0.1339 -0.6333
   99SAPC  H15X 9905   6.039   6.107   5.528 -2.3890 -1.9258 -0.5748
   99SAPC  H15Y 9906   5.872   6.144   5.514 -0.2632  0.0394  0.5778
   99SAPC  C316 9907   5.992   6.287   5.634  0.4683 -0.1626 -0.1360
   99SAPC  H16X 9908   5.918   6.370   5.639  0.6815  0.1623 -1.7420
   99SAPC  H16Y 9909   6.096   6.325   5.623  0.2092  0.4051 -0.6787
   99SAPC  C317 9910   5.974   6.202   5.760 -0.0490 -0.1641  0.1304
   99SAPC  H17X 9911   6.016   6.101   5.737 -1.0681 -0.4936 -0.3245
   99SAPC  H17Y 9912   5.868   6.180   5.782 -0.0842  1.3070  1.5616
   99SAPC  C318 9913   6.035   6.248   5.894 -0.0416  0.1065  0.1325
   99SAPC  H18X 9914   5.985   6.341   5.928  1.0635  0.2182  1.5161
   99SAPC  H18Y 9915   6.145   6.258   5.884  0.1781 -1.1014  1.1321
   99SAPC  H18Z 9916   6.009   6.174   5.972  0.1961  0.4649  0.5588
  100SAPC     N 9917   2.561   2.788   3.798  0.6877  0.2662 -0.0201
  100SAPC   C12 9918   2.434   2.702   3.796 -0.8578 -0.2757  0.2682
  100SAPC  H12A 9919   2.409   2.663   3.699 -0.2041 -0.7638  0.2862
  100SAPC  H12B 9920   2.354   2.770   3.822  1.3421  1.4786  3.0230
  100SAPC   C13 9921   2.571   2.870   3.922  0.1851  0.7519  0.3527
  100SAPC  H13A 9922   2.595   2.806   4.006 -1.8002 -0.1035  0.3204
  100SAPC  H13B 9923   2.655   2.937   3.912  1.6123 -1.1871 -1.6958
  100SAPC  H13C 9924   2.482   2.921   3.956 -1.1350 -1.6695  0.7568
  100SAPC   C14 9925   2.676   2.699   3.782 -0.0182 -0.1887  0.4645
  100SAPC  H14A 9926   2.694   2.660   3.683  0.5006  0.5981  0.2405
  100SAPC  H14B 9927   2.768   2.749   3.808  0.9686 -0.1256 -2.7032
  100SAPC  H14C 9928   2.664   2.614   3.847 -0.0154  0.4648  1.3407
  100SAPC   C15 9929   2.555   2.885   3.677  0.0640  0.8742 -0.6785
  100SAPC  H15A 9930   2.476   2.956   3.695 -2.0265 -0.5888 -3.3364
  100SAPC  H15B 9931   2.651   2.926   3.651  1.2870 -0.5745  1.2739
  100SAPC  H15C 9932   2.521   2.830   3.590 -0.6700  0.1968  0.0185
  100SAPC   C11 9933   2.427   2.594   3.902  0.2243 -0.4320  0.1002
  100SAPC  H11A 9934   2.327   2.546   3.904  1.0495 -2.2235  1.8749
  100SAPC  H11B 9935   2.443   2.633   4.005 -1.1727 -0.7241  0.4562
  100SAPC     P 9936   2.469   2.365   3.792  0.0390 -0.0914 -0.0681
  100SAPC   O13 9937   2.442   2.412   3.657  0.7167  0.0414  0.2834
  100SAPC   O14 9938   2.569   2.252   3.804  0.0092 -0.2496 -0.1953
  100SAPC   O12 9939   2.525   2.486   3.884  0.2039 -0.1316  0.0380
  100SAPC   O11 9940   2.336   2.315   3.866 -0.0741 -0.3305  0.3637
  100SAPC    C1 9941   2.331   2.291   4.004  0.4861  0.0505 -0.8652
  100SAPC    HA 9942   2.432   2.260   4.039  0.1710 -0.6996 -0.5972
  100SAPC    HB 9943   2.306   2.389   4.052 -2.7437 -1.0482 -0.0753
  100SAPC    C2 9944   2.231   2.175   4.059 -0.7705 -0.9833 -1.6321
  100SAPC    HS 9945   2.125   2.207   4.047 -0.8084 -0.6242 -0.4344
  100SAPC   O21 9946   2.261   2.150   4.201  0.2258  0.1454  0.1059
  100SAPC   C21 9947   2.199   2.225   4.286  0.1161 -0.3824  0.4099
  100SAPC   O22 9948   2.106   2.303   4.250  0.3103 -0.4234 -0.3182
  100SAPC   C22 9949   2.241   2.181   4.428  0.2693 -0.7845 -0.0961
  100SAPC   H2R 9950   2.188   2.083   4.430 -2.1787  0.4541 -0.0056
  100SAPC   H2S 9951   2.351   2.169   4.438  0.0443 -2.1339  1.0029
  100SAPC    C3 9952   2.253   2.041   3.983  0.4872 -0.1088  0.8156
  100SAPC    HX 9953   2.358   2.005   3.994 -0.0211 -1.5951  0.9374
  100SAPC    HY 9954   2.237   2.057   3.874  2.4183 -1.7844  0.2125
  100SAPC   O31 9955   2.153   1.947   4.023 -0.2905  0.2619 -0.0197
  100SAPC   C31 9956   2.182   1.845   4.104 -0.2563  0.9874 -0.6697
  100SAPC   O32 9957   2.291   1.817   4.146 -0.2661  0.0249  0.1634
  100SAPC   C32 9958   2.047   1.773   4.147  0.8985  0.1121  0.8890
  100SAPC   H2X 9959   2.020   1.706   4.063  1.1645  0.0060  0.8864
  100SAPC   H2Y 9960   1.979   1.859   4.162  0.3941 -0.3104  1.0382
  100SAPC   C23 9961   2.182   2.271   4.532  0.1223 -0.0815 -0.5502
  100SAPC   H3R 9962   2.077   2.301   4.510  1.2968  3.4653 -2.0648
  100SAPC   H3S 9963   2.233   2.369   4.531 -1.7808  0.9576 -0.5279
  100SAPC   C24 9964   2.194   2.219   4.677 -0.1606 -0.0977  1.1378
  100SAPC   H4R 9965   2.298   2.199   4.708 -0.0197 -1.0941  0.0592
  100SAPC   H4S 9966   2.143   2.121   4.683 -0.4872 -0.1540 -1.5276
  100SAPC   C25 9967   2.128   2.312   4.772  0.5678 -0.1857 -0.2482
  100SAPC   H5R 9968   2.086   2.405   4.731 -1.4578 -0.7740  0.3922
  100SAPC   C26 9969   2.115   2.301   4.904 -0.3971 -0.1543  0.4091
  100SAPC   H6R 9970   2.073   2.383   4.964 -2.0824  0.3205 -1.3184
  100SAPC   C27 9971   2.153   2.170   4.971 -0.2365 -0.2955  0.5832
  100SAPC   H7R 9972   2.165   2.092   4.893  2.4817  1.8630 -1.3696
  100SAPC   H7S 9973   2.067   2.146   5.036 -2.1582  3.8491 -0.1110
  100SAPC   C28 9974   2.284   2.160   5.049 -0.0253  0.3712 -0.0373
  100SAPC   H8R 9975   2.378   2.195   5.003 -1.0723  0.1595 -2.4824
  100SAPC   C29 9976   2.311   2.075   5.149 -0.1031  0.9569 -0.3191
  100SAPC   H9R 9977   2.414   2.074   5.186 -0.6642 -0.9568  1.4033
  100SAPC  C210 9978   2.219   1.984   5.227  0.9616 -0.6155 -0.4137
  100SAPC  H10R 9979   2.135   1.967   5.156  0.9776 -1.0149 -0.3368
  100SAPC  H10S 9980   2.169   2.027   5.317 -0.7475  0.0519 -1.6133
  100SAPC  C211 9981   2.269   1.847   5.261  0.3289 -0.7175 -0.2954
  100SAPC  H11R 9982   2.268   1.822   5.369  2.7706 -0.2614 -0.1026
  100SAPC  C212 9983   2.323   1.755   5.182  0.3719  0.1894  0.9117
  100SAPC  H12R 9984   2.385   1.670   5.213 -0.5398 -0.3907  1.1602
  100SAPC  C213 9985   2.329   1.756   5.028 -0.2383 -0.5945 -0.4354
  100SAPC  H13R 9986   2.239   1.815   4.998 -1.1389 -0.6383  1.9570
  100SAPC  H13S 9987   2.328   1.654   4.985 -1.2888 -1.5487  1.7004
  100SAPC  C214 9988   2.456   1.828   4.981  0.2081  0.2976  0.1257
  100SAPC  H14R 9989   2.527   1.866   5.056  1.1594  0.7137 -0.9623
  100SAPC  C215 9990   2.491   1.855   4.850  0.9304  0.0510  0.3774
  100SAPC  H15R 9991   2.580   1.917   4.831 -0.4185  2.1743  0.7320
  100SAPC  C216 9992   2.409   1.807   4.729 -0.8010 -0.3870  0.8091
  100SAPC  H16R 9993   2.354   1.901   4.704 -0.4697 -0.4672 -0.2486
  100SAPC  H16S 9994   2.333   1.730   4.755 -0.1492 -1.9435 -1.5835
  100SAPC  C217 9995   2.496   1.776   4.602  0.0009 -0.1782 -1.0956
  100SAPC  H17R 9996   2.422   1.757   4.522 -1.1687  1.3126 -0.4196
  100SAPC  H17S 9997   2.566   1.690   4.611  0.7001  0.5911  2.1033
  100SAPC  C218 9998   2.576   1.903   4.543 -0.2894  0.6854  0.4980
  100SAPC  H18R 9999   2.652   1.942   4.614  0.1800  0.6846  0.0057
  100SAPC  H18S10000   2.511   1.987   4.510  0.2044  0.0737 -2.2991
  100SAPC  C21910001   2.664   1.877   4.416  0.6744 -0.2506 -0.1177
  100SAPC  H19R10002   2.738   1.803   4.452 -1.2374 -1.8417  0.7010
  100SAPC  H19S10003   2.709   1.977   4.397 -0.1924 -0.1265 -1.7368
  100SAPC  C22010004   2.590   1.832   4.291  0.3269 -0.1164 -0.1167
  100SAPC  H20R10005   2.544   1.731   4.303  2.9300 -1.7318 -2.4999
  100SAPC  H20S10006   2.657   1.839   4.203  2.3784  1.4002  1.4732
  100SAPC  H20T10007   2.511   1.909   4.281 -1.7215 -2.0751  0.0226
  100SAPC   C3310008   2.057   1.696   4.279  0.2777 -0.1589 -0.0558
  100SAPC   H3X10009   2.123   1.607   4.271  0.8426  0.3023 -0.6125
  100SAPC   H3Y10010   1.956   1.654   4.299  0.0549  0.6327  0.5209
  100SAPC   C3410011   2.082   1.798   4.394  0.5663 -0.2684 -0.0135
  100SAPC   H4X10012   2.008   1.881   4.400 -0.1604 -0.8984 -0.1557
  100SAPC   H4Y10013   2.178   1.850   4.377 -0.3771  1.4450 -0.3840
  100SAPC   C3510014   2.088   1.728   4.530 -0.4666  0.0991  0.2898
  100SAPC   H5X10015   2.192   1.692   4.548  0.0348  1.5729  0.5221
  100SAPC   H5Y10016   2.029   1.635   4.516 -0.2286 -0.0954  0.5491
  100SAPC   C3610017   2.024   1.797   4.646 -1.0726  0.1478  0.6092
  100SAPC   H6X10018   1.922   1.835   4.623 -1.7686 -0.3476  2.6890
  100SAPC   H6Y10019   2.097   1.878   4.667  0.3417  0.2851 -3.6947
  100SAPC   C3710020   2.000   1.711   4.772  1.0587 -0.0112  0.4247
  100SAPC   H7X10021   2.099   1.669   4.800  1.6556  1.5359  0.7422
  100SAPC   H7Y10022   1.936   1.621   4.758 -0.2859  0.7637  1.3723
  100SAPC   C3810023   1.960   1.795   4.897  0.0082 -0.3776 -0.0093
  100SAPC   H8X10024   1.870   1.852   4.870  0.9265  2.9487  3.1476
  100SAPC   H8Y10025   2.054   1.852   4.916 -0.1695 -0.0139 -0.2254
  100SAPC   C3910026   1.929   1.718   5.026  0.7218 -0.0036 -0.4104
  100SAPC   H9X10027   2.024   1.671   5.059  0.0371 -0.4559  0.9652
  100SAPC   H9Y10028   1.855   1.646   4.985  1.8513  0.2470 -3.1468
  100SAPC  C31010029   1.869   1.809   5.130  0.2017  0.2534  0.0557
  100SAPC  H10X10030   1.807   1.887   5.080  0.5938  1.4196  1.3157
  100SAPC  H10Y10031   1.949   1.870   5.178 -0.3003  3.2710 -2.6091
  100SAPC  C31110032   1.791   1.730   5.233 -0.3726  0.2543 -0.5688
  100SAPC  H11X10033   1.842   1.637   5.266  0.5212  1.0484  0.3360
  100SAPC  H11Y10034   1.694   1.710   5.181 -0.0202  0.1249 -1.1910
  100SAPC  C31210035   1.761   1.804   5.364  0.3042 -0.6139  0.1716
  100SAPC  H12X10036   1.657   1.797   5.403 -0.0751 -0.9542 -0.8676
  100SAPC  H12Y10037   1.781   1.909   5.336  1.0429 -1.0623 -1.0695
  100SAPC  C31310038   1.849   1.750   5.479 -0.5671  0.2180 -0.4298
  100SAPC  H13X10039   1.948   1.708   5.451 -0.6300 -0.1893 -0.0391
  100SAPC  H13Y10040   1.803   1.654   5.510 -1.1921  1.2133  1.8909
  100SAPC  C31410041   1.865   1.843   5.596 -0.4169  0.8435 -0.0662
  100SAPC  H14X10042   1.766   1.844   5.647 -0.6488  0.7009 -0.5103
  100SAPC  H14Y10043   1.892   1.949   5.575 -2.4672  1.4347  0.0356
  100SAPC  C31510044   1.971   1.781   5.699 -0.2104  0.3423 -0.3488
  100SAPC  H15X10045   1.991   1.860   5.774 -0.7117 -2.0279  2.4501
  100SAPC  H15Y10046   2.069   1.763   5.650 -0.0935  0.3651 -0.1251
  100SAPC  C31610047   1.926   1.657   5.785  0.2335  0.6286  0.0310
  100SAPC  H16X10048   1.903   1.574   5.715  2.4543 -0.1590  0.1528
  100SAPC  H16Y10049   1.827   1.692   5.820  0.3607  1.1251 -0.0945
  100SAPC  C31710050   2.019   1.614   5.899 -0.4027 -0.2599 -0.2301
  100SAPC  H17X10051   2.126   1.622   5.871 -0.2839  0.2015  0.3236
  100SAPC  H17Y10052   1.997   1.506   5.917  1.4394 -0.3610  1.9654
  100SAPC  C31810053   1.997   1.693   6.027  0.8926  0.2210 -0.1544
  100SAPC  H18X10054   1.893   1.669   6.060  0.1947 -2.9338 -3.9389
  100SAPC  H18Y10055   1.996   1.802   6.006 -0.3577  0.0496 -1.0971
  100SAPC  H18Z10056   2.074   1.680   6.106 -0.7873  0.4366  1.6097
  101OSM      N10057   5.514   5.322   8.086  0.0232 -0.2782  0.1532
  101OSM    C1510058   5.466   5.293   7.944  0.8116 -0.4934  0.1658
  101OSM   H15A10059   5.543   5.270   7.872  0.8794  2.6731 -0.9148
  101OSM   H15B10060   5.401   5.367   7.900  3.1423  0.4632 -1.8696
  101OSM   H15C10061   5.403   5.206   7.954 -1.1769  0.9814  1.3731
  101OSM    C1410062   5.402   5.367   8.175 -0.0024  0.2677 -0.3806
  101OSM   H14A10063   5.323   5.293   8.174  1.5960 -1.6267  2.3909
  101OSM   H14B10064   5.353   5.460   8.149 -0.6655  0.3082  0.9044
  101OSM   H14C10065   5.428   5.381   8.279 -1.5875  0.8794 -0.0307
  101OSM    C1310066   5.570   5.189   8.134 -0.0715  0.5675  0.2901
  101OSM   H13A10067   5.494   5.113   8.141  0.2800  0.3851  3.5152
  101OSM   H13B10068   5.625   5.196   8.226 -1.9083 -0.3049  1.4990
  101OSM   H13C10069   5.654   5.157   8.073  0.9677 -0.9946  2.4179
  101OSM    C1210070   5.627   5.419   8.079 -0.1645  1.1038 -0.1597
  101OSM   H12A10071   5.606   5.506   8.018  1.0693  1.6885  0.2328
  101OSM   H12B10072   5.700   5.370   8.017 -0.7353  0.3662 -0.2665
  101OSM    C1110073   5.692   5.463   8.210 -0.4427  0.2134 -0.2678
  101OSM   H11A10074   5.612   5.511   8.270 -1.7311 -2.2308  0.0855
  101OSM   H11B10075   5.770   5.542   8.197  1.1036 -1.0315  0.9441
  101OSM      P10076   5.889   5.294   8.247  0.7021  0.1810 -0.0727
  101OSM    O1310077   6.002   5.376   8.304  0.5970 -0.7171  0.1081
  101OSM    O1410078   5.900   5.147   8.277  0.2520 -0.1048 -0.5895
  101OSM    O1110079   5.890   5.325   8.094  0.0244  0.1499  0.2315
  101OSM    O1210080   5.745   5.355   8.293 -0.2677 -0.1615  1.2537
  101OSM    C1S10081   5.968   5.239   8.007  0.0390  0.1886 -0.7380
  101OSM    H1S10082   5.941   5.131   8.006  1.5541 -0.2827 -4.0190
  101OSM    H1T10083   6.076   5.245   8.034 -0.2817  0.0462  0.6414
  101OSM     NF10084   6.015   5.176   7.768  0.7824 -1.1185  0.0367
  101OSM    HNF10085   6.096   5.193   7.712 -0.1024 -2.0482 -1.6124
  101OSM    C2S10086   5.954   5.279   7.854  0.0187  0.3941 -0.7784
  101OSM    H2S10087   5.847   5.277   7.827 -0.5926 -2.3258  1.3598
  101OSM    C3S10088   6.003   5.424   7.833  0.5049 -0.6155  0.6958
  101OSM    H3S10089   6.111   5.429   7.860  0.5182 -3.7284  1.5815
  101OSM     O310090   5.941   5.525   7.913 -0.4821 -0.7385 -0.2636
  101OSM    HO310091   5.936   5.476   7.995 -1.5867 -0.3441 -0.0721
  101OSM    C4S10092   5.987   5.449   7.680 -0.0507  0.3513  1.1040
  101OSM    H4S10093   6.036   5.377   7.614  0.4239  1.5285  0.1442
  101OSM    C5S10094   5.882   5.514   7.624  0.4069 -0.2361  0.3808
  101OSM    H5S10095   5.813   5.574   7.686  0.7219 -1.3900  1.8953
  101OSM    C6S10096   5.849   5.513   7.477  0.1256 -0.2958 -0.3635
  101OSM    H6S10097   5.767   5.583   7.449 -0.1901 -0.3842  0.3263
  101OSM    H6T10098   5.809   5.413   7.449 -3.0653  0.5785  0.6300
  101OSM    C7S10099   5.981   5.529   7.401 -0.4938  0.3046  1.1793
  101OSM    H7S10100   6.060   5.456   7.430 -0.0475 -0.3414 -1.3539
  101OSM    H7T10101   6.015   5.631   7.428 -0.6034  0.8766 -0.6507
  101OSM    C8S10102   5.974   5.526   7.245  0.0382 -0.5485 -0.0972
  101OSM    H8S10103   5.879   5.579   7.222  0.4333  0.4792  0.5649
  101OSM    H8T10104   5.973   5.422   7.207  0.4803 -0.3916 -0.5489
  101OSM    C9S10105   6.088   5.587   7.171 -0.4074 -0.3753  0.6049
  101OSM    H9S10106   6.180   5.526   7.187  1.0335  1.5006 -0.2071
  101OSM    H9T10107   6.108   5.684   7.220 -0.1959  0.2091 -0.6060
  101OSM   C10S10108   6.070   5.622   7.024  0.5711  0.0509  0.4449
  101OSM   H10S10109   6.013   5.539   6.977 -2.1109  1.9839  0.0354
  101OSM   H10T10110   6.171   5.630   6.980  0.8637  0.5172  1.1745
  101OSM   C11S10111   5.990   5.751   7.000 -0.2080  0.7675  0.0543
  101OSM   H11S10112   6.017   5.824   7.079 -2.0698 -2.3912  4.0211
  101OSM   H11T10113   5.881   5.729   7.008 -0.1695  0.6336  0.2059
  101OSM   C12S10114   6.011   5.819   6.862 -0.4737 -0.6698  0.2363
  101OSM   H12S10115   5.984   5.752   6.777  1.3425 -0.4084 -0.5956
  101OSM   H12T10116   6.113   5.862   6.854 -0.2951 -1.1051  0.1184
  101OSM   C13S10117   5.908   5.924   6.835  0.3045 -0.5510 -0.0373
  101OSM   H13S10118   5.939   6.019   6.884  3.8050 -1.2912 -0.5053
  101OSM   H13T10119   5.811   5.887   6.876  1.4622 -3.4182  0.4119
  101OSM   C14S10120   5.900   5.962   6.691 -0.6475 -0.4876 -0.1667
  101OSM   H14S10121   5.823   6.037   6.665  0.4223 -0.3863 -3.5603
  101OSM   H14T10122   5.865   5.873   6.634 -0.6077  0.4083 -1.6200
  101OSM   C15S10123   6.028   6.015   6.634  0.4016  0.3627 -0.1421
  101OSM   H15S10124   6.111   5.950   6.670 -0.3940  0.3120  1.7471
  101OSM   H15T10125   6.062   6.113   6.674  0.3806  0.1252  0.4827
  101OSM   C16S10126   6.039   6.028   6.480  0.9927 -0.2920  0.0895
  101OSM   H16S10127   5.978   5.952   6.428  1.9186 -0.2511 -1.1137
  101OSM   H16T10128   6.145   6.005   6.454  0.7360 -0.0135 -1.2428
  101OSM   C17S10129   6.016   6.178   6.432  0.2734 -0.0960  0.1759
  101OSM   H17S10130   6.073   6.246   6.498 -0.7462  0.2138  0.7679
  101OSM   H17T10131   5.907   6.197   6.449  0.3887  0.0423  0.7793
  101OSM   C18S10132   6.056   6.190   6.282 -0.3426  0.0012 -0.3408
  101OSM   H18S10133   5.995   6.111   6.233 -0.2582 -1.5196  1.8645
  101OSM   H18T10134   6.163   6.169   6.257 -0.2048 -0.6895  0.7451
  101OSM   H18U10135   6.022   6.289   6.244  1.7350  1.0062  0.2384
  101OSM    C1F10136   5.963   5.055   7.754  0.3782  0.0543 -0.2752
  101OSM     OF10137   5.855   5.027   7.804 -0.2656  0.2588 -0.1491
  101OSM    C2F10138   6.041   4.957   7.683 -0.3538 -0.0752  0.7240
  101OSM    H2F10139   6.024   4.855   7.723  1.3095 -0.2678  1.0159
  101OSM    H2G10140   6.150   4.973   7.697 -0.2794 -2.1004  3.1713
  101OSM    C3F10141   6.009   4.958   7.533 -0.4861  0.6526 -0.4858
  101OSM    H3F10142   5.906   4.924   7.512 -0.1229 -1.0138  0.2974
  101OSM    H3G10143   6.077   4.882   7.490 -0.9145  0.4688 -0.8361
  101OSM    C4F10144   6.048   5.082   7.449  0.0421 -0.2567 -0.4461
  101OSM    H4F10145   6.132   5.141   7.492 -0.2043 -0.0272 -0.2839
  101OSM    H4G10146   5.960   5.149   7.443 -0.2496 -0.7166 -1.3991
  101OSM    C5F10147   6.099   5.044   7.313 -0.2283 -0.1848 -0.3945
  101OSM    H5F10148   6.022   4.984   7.260  1.2393 -0.5922 -2.1562
  101OSM    H5G10149   6.183   4.972   7.319 -0.0615  0.0605  0.3308
  101OSM    C6F10150   6.129   5.175   7.237  0.0352 -0.5568 -0.3647
  101OSM    H6F10151   6.214   5.223   7.290  0.2259 -0.0460 -1.1246
  101OSM    H6G10152   6.035   5.234   7.241 -0.3480 -1.2027  0.4814
  101OSM    C7F10153   6.145   5.151   7.085 -0.1110 -0.0130 -0.3473
  101OSM    H7F10154   6.059   5.084   7.067 -0.6398  0.5697 -0.0448
  101OSM    H7G10155   6.233   5.088   7.060 -0.2800 -0.0076 -0.9515
  101OSM    C8F10156   6.141   5.279   6.998 -0.7099 -0.3062  0.1027
  101OSM    H8F10157   6.219   5.352   7.027  0.5621 -1.1528 -1.1006
  101OSM    H8G10158   6.049   5.339   7.018 -0.5236  0.0443 -0.0871
  101OSM    C9F10159   6.146   5.249   6.854 -0.6398  0.7389 -0.2279
  101OSM    H9F10160   6.092   5.159   6.824 -0.0850  0.0981  0.6422
  101OSM   C10F10161   6.220   5.315   6.766  0.1430 -0.1483  0.4902
  101OSM   H10F10162   6.205   5.280   6.663 -0.1654  0.0206  0.4756
  101OSM   C11F10163   6.297   5.447   6.782  1.3495 -0.5344 -0.0871
  101OSM   H11F10164   6.402   5.431   6.751  0.8031 -3.9978 -0.5597
  101OSM   H11G10165   6.298   5.475   6.890 -0.0166  2.4120 -0.7427
  101OSM   C12F10166   6.233   5.560   6.694  0.2567 -0.1191 -0.5738
  101OSM   H12F10167   6.299   5.644   6.722 -1.9413  0.9839  1.7937
  101OSM   H12G10168   6.138   5.581   6.749  0.8066 -2.5025  1.4749
  101OSM   C13F10169   6.213   5.543   6.543 -0.1233 -0.2146 -0.7595
  101OSM   H13F10170   6.150   5.455   6.522 -1.4949  0.3775  0.6641
  101OSM   H13G10171   6.315   5.525   6.502  0.8064  1.0710  0.8396
  101OSM   C14F10172   6.178   5.682   6.476  0.2406  0.0705 -0.1104
  101OSM   H14F10173   6.214   5.755   6.551  0.9613 -0.0409 -0.3465
  101OSM   H14G10174   6.070   5.694   6.453  0.4450 -0.1276 -1.2235
  101OSM   C15F10175   6.261   5.711   6.348 -0.3939 -0.4889  0.4057
  101OSM   H15F10176   6.368   5.684   6.360 -0.5803 -1.2955  0.3032
  101OSM   H15G10177   6.265   5.819   6.324 -3.6074 -0.5095 -0.6958
  101OSM   C16F10178   6.213   5.646   6.222 -0.3486  0.8486  1.1062
  101OSM   H16F10179   6.138   5.571   6.254 -0.0277  0.0069 -0.0722
  101OSM   H16G10180   6.290   5.589   6.167  0.1201  0.0145  2.5577
  101OSM   C17F10181   6.139   5.746   6.134  0.2178  0.2550 -0.7098
  101OSM   H17F10182   6.064   5.797   6.199 -0.9979 -1.4771 -0.7051
  101OSM   H17G10183   6.092   5.688   6.052 -0.8748  0.7246 -0.4309
  101OSM   C18F10184   6.234   5.845   6.058 -0.1524  0.2161  0.6406
  101OSM   H18F10185   6.304   5.794   5.988 -2.6131 -0.1155 -1.7529
  101OSM   H18G10186   6.295   5.902   6.131  0.2021  1.4059 -0.5591
  101OSM   H18H10187   6.169   5.906   5.991 -0.4403  1.1538  1.7385
  102OSM      N10188   6.513   2.599   8.565  0.0922  0.5455 -0.1952
  102OSM    C1510189   6.421   2.495   8.640 -0.1120  0.2599 -0.2172
  102OSM   H15A10190   6.446   2.514   8.744 -0.0626  1.8269 -0.4922
  102OSM   H15B10191   6.442   2.391   8.625  0.8092  0.3052  0.5939
  102OSM   H15C10192   6.318   2.513   8.616  0.4476  0.1009 -3.1231
  102OSM    C1410193   6.480   2.736   8.602  0.1777  0.3534  0.1016
  102OSM   H14A10194   6.515   2.773   8.698 -0.4231  0.1397  0.4143
  102OSM   H14B10195   6.373   2.749   8.607 -0.1607 -2.0948  0.3992
  102OSM   H14C10196   6.523   2.800   8.526 -1.2997  0.0186 -1.0509
  102OSM    C1310197   6.654   2.572   8.596  0.2651  0.2383  0.8573
  102OSM   H13A10198   6.670   2.603   8.698 -2.9606  0.6023  1.3707
  102OSM   H13B10199   6.716   2.636   8.536 -0.5646 -0.4775 -0.8639
  102OSM   H13C10200   6.676   2.469   8.571  0.8787  0.9646 -2.0135
  102OSM    C1210201   6.485   2.584   8.417 -0.2183  0.0280  0.3280
  102OSM   H12A10202   6.378   2.583   8.398 -0.3701 -0.3605  1.1722
  102OSM   H12B10203   6.523   2.488   8.385  1.4235  0.7100  0.1618
  102OSM    C1110204   6.550   2.683   8.325  0.1803 -0.2566 -0.0373
  102OSM   H11A10205   6.520   2.785   8.356  0.4358 -0.1582 -0.1108
  102OSM   H11B10206   6.511   2.677   8.221  0.5351  1.1410 -0.2589
  102OSM      P10207   6.780   2.562   8.258 -0.0958  0.1935  0.5091
  102OSM    O1310208   6.914   2.573   8.320  0.5125  0.0267 -0.2840
  102OSM    O1410209   6.705   2.437   8.266 -0.5502 -0.2612  0.5437
  102OSM    O1110210   6.782   2.607   8.107  0.8700  0.1584  0.3662
  102OSM    O1210211   6.694   2.684   8.330  0.6223  0.7457  0.5630
  102OSM    C1S10212   6.784   2.741   8.067 -0.1769  0.8082  0.1370
  102OSM    H1S10213   6.878   2.781   8.112  0.6769 -0.8879 -0.0645
  102OSM    H1T10214   6.700   2.799   8.112 -1.7462  0.4119 -2.1374
  102OSM     NF10215   6.798   2.886   7.872 -0.8986  0.1969  0.2072
  102OSM    HNF10216   6.713   2.935   7.855 -0.5780  0.2318 -1.4263
  102OSM    C2S10217   6.779   2.751   7.915  0.1708 -0.3210 -0.4265
  102OSM    H2S10218   6.863   2.683   7.886  0.4450 -1.6912  3.0593
  102OSM    C3S10219   6.648   2.692   7.856  0.1146 -0.3061  0.4198
  102OSM    H3S10220   6.576   2.771   7.885  0.6719  0.2946  0.1881
  102OSM     O310221   6.606   2.565   7.910 -0.4235 -0.0950  0.2381
  102OSM    HO310222   6.665   2.547   7.983 -0.4003 -2.8139 -0.3406
  102OSM    C4S10223   6.655   2.692   7.706  0.1363 -0.0565  0.6671
  102OSM    H4S10224   6.613   2.784   7.662  0.2342  0.1944  1.0925
  102OSM    C5S10225   6.683   2.587   7.623 -0.3939  0.4003  0.3221
  102OSM    H5S10226   6.692   2.488   7.669  0.0353  0.4767  0.4062
  102OSM    C6S10227   6.689   2.600   7.476  0.2264  0.6477  0.3229
  102OSM    H6S10228   6.795   2.612   7.446  0.8274 -0.7422  1.7162
  102OSM    H6T10229   6.635   2.694   7.454 -0.1429  0.3617 -0.0099
  102OSM    C7S10230   6.612   2.489   7.403  0.4223 -0.8477 -0.1556
  102OSM    H7S10231   6.509   2.477   7.443  0.2051  1.2883  0.0464
  102OSM    H7T10232   6.668   2.394   7.390  1.4415 -0.0818 -1.6821
  102OSM    C8S10233   6.586   2.528   7.249  0.6075  0.2895 -0.2012
  102OSM    H8S10234   6.680   2.511   7.192 -0.5853 -3.0296 -1.4045
  102OSM    H8T10235   6.550   2.632   7.244  1.1958  0.6417  1.8433
  102OSM    C9S10236   6.475   2.446   7.193  0.2516  0.4032  0.1174
  102OSM    H9S10237   6.375   2.462   7.238 -0.7824 -1.3536 -1.4005
  102OSM    H9T10238   6.501   2.339   7.212 -0.2784  0.2566  0.0438
  102OSM   C10S10239   6.459   2.466   7.037 -0.6292 -0.0547 -0.5357
  102OSM   H10S10240   6.382   2.392   7.006  0.1495 -1.9612  1.7873
  102OSM   H10T10241   6.557   2.438   6.993  0.6392 -0.7450  2.5039
  102OSM   C11S10242   6.416   2.604   7.007  0.1486  0.5392  1.0815
  102OSM   H11S10243   6.474   2.680   7.063 -0.7628  1.0710  1.3325
  102OSM   H11T10244   6.319   2.617   7.059 -0.6338  0.0274 -0.1834
  102OSM   C12S10245   6.423   2.642   6.857 -1.4115 -0.5362 -0.4487
  102OSM   H12S10246   6.528   2.628   6.823 -0.5152 -0.9191  2.2370
  102OSM   H12T10247   6.402   2.751   6.848 -2.3047 -0.7360 -0.9586
  102OSM   C13S10248   6.326   2.566   6.762  0.3112  0.6154 -0.6649
  102OSM   H13S10249   6.228   2.543   6.811 -0.0493  0.6970 -1.3341
  102OSM   H13T10250   6.372   2.466   6.745  0.5426  0.6512 -0.2549
  102OSM   C14S10251   6.306   2.651   6.628  0.1596  0.3354 -0.5743
  102OSM   H14S10252   6.243   2.741   6.645 -1.3768 -0.9820  1.1883
  102OSM   H14T10253   6.247   2.586   6.559 -2.6644  0.9373  1.0852
  102OSM   C15S10254   6.433   2.694   6.557 -0.8465 -0.2143 -0.4313
  102OSM   H15S10255   6.497   2.606   6.532  0.2048  1.0382 -2.4311
  102OSM   H15T10256   6.494   2.757   6.626 -0.7204 -1.4617  0.6286
  102OSM   C16S10257   6.407   2.776   6.431 -0.4218 -0.0025  0.4897
  102OSM   H16S10258   6.328   2.732   6.366  1.3902 -1.1012 -1.0855
  102OSM   H16T10259   6.494   2.767   6.362 -1.8296 -2.7775 -1.1292
  102OSM   C17S10260   6.377   2.916   6.463  0.0213 -0.1339 -0.4703
  102OSM   H17S10261   6.459   2.959   6.524  0.3737 -0.0316 -1.0056
  102OSM   H17T10262   6.279   2.915   6.516 -1.3895  1.7321 -2.7778
  102OSM   C18S10263   6.368   3.003   6.345  0.5521 -0.8351  0.1957
  102OSM   H18S10264   6.464   2.989   6.290  0.6181 -0.3743  0.1929
  102OSM   H18T10265   6.352   3.110   6.368 -2.0134 -1.0013 -0.5587
  102OSM   H18U10266   6.288   2.972   6.275 -0.5276 -0.0500  1.0547
  102OSM    C1F10267   6.913   2.951   7.878 -0.3663  0.1002  0.2433
  102OSM     OF10268   7.019   2.891   7.896 -0.0699  0.0392 -0.2871
  102OSM    C2F10269   6.904   3.094   7.865  0.4136  0.4024  0.4262
  102OSM    H2F10270   6.977   3.143   7.934  0.0242  2.2313 -0.4157
  102OSM    H2G10271   6.804   3.129   7.896  1.1136  2.3832  0.5497
  102OSM    C3F10272   6.936   3.129   7.713 -0.1186 -0.8952 -0.0876
  102OSM    H3F10273   6.998   3.047   7.671 -1.3866 -1.9020 -0.0482
  102OSM    H3G10274   6.987   3.227   7.701 -1.8308 -0.0095 -0.4092
  102OSM    C4F10275   6.810   3.133   7.613  0.1172  0.0310  0.9115
  102OSM    H4F10276   6.735   3.212   7.635 -0.1156  0.5109 -1.3671
  102OSM    H4G10277   6.750   3.042   7.634 -1.9910  1.2987  0.7506
  102OSM    C5F10278   6.854   3.138   7.467  0.5296 -0.0936 -0.3133
  102OSM    H5F10279   6.932   3.059   7.461  0.1889 -0.7190  2.2601
  102OSM    H5G10280   6.905   3.236   7.455  1.1890 -0.2610  0.9306
  102OSM    C6F10281   6.743   3.094   7.364  0.1518 -0.4584 -0.7150
  102OSM    H6F10282   6.690   3.183   7.325 -2.4187 -1.5864 -0.0016
  102OSM    H6G10283   6.666   3.029   7.410  1.6529 -0.1772  2.4449
  102OSM    C7F10284   6.813   3.023   7.253  0.1537 -0.5808 -0.4641
  102OSM    H7F10285   6.850   2.933   7.307  2.9537 -0.4474 -1.9947
  102OSM    H7G10286   6.897   3.079   7.206  0.2082 -0.9993 -0.8838
  102OSM    C8F10287   6.721   2.988   7.132  0.2819 -0.3083 -0.3813
  102OSM    H8F10288   6.685   3.087   7.098 -1.1158  0.7554  3.6150
  102OSM    H8G10289   6.623   2.948   7.165 -0.1065 -0.5728 -1.7959
  102OSM    C9F10290   6.789   2.896   7.032  0.6112  0.8390  1.0644
  102OSM    H9F10291   6.809   2.798   7.079  1.2918  0.4137 -0.0604
  102OSM   C10F10292   6.817   2.919   6.900  0.1026 -0.2349  0.5404
  102OSM   H10F10293   6.858   2.837   6.839 -0.3481 -0.2053  0.1884
  102OSM   C11F10294   6.790   3.048   6.828 -0.0603 -0.1178  0.1958
  102OSM   H11F10295   6.889   3.097   6.818  0.8278 -1.6501  1.0395
  102OSM   H11G10296   6.737   3.121   6.893 -1.1078 -1.1527  0.5383
  102OSM   C12F10297   6.725   3.043   6.694  0.6662 -0.4626  0.2275
  102OSM   H12F10298   6.704   3.138   6.641 -1.0000 -0.9977 -0.1470
  102OSM   H12G10299   6.622   3.002   6.699 -0.5773  2.3955 -0.3147
  102OSM   C13F10300   6.808   2.967   6.584 -0.7996  0.1358 -0.2997
  102OSM   H13F10301   6.850   2.868   6.611 -1.0935 -0.4313 -1.8266
  102OSM   H13G10302   6.900   3.024   6.558 -0.9925 -0.4084 -2.3864
  102OSM   C14F10303   6.731   2.951   6.454  0.2597 -0.2476  0.6057
  102OSM   H14F10304   6.692   3.051   6.425 -0.0271 -0.2395  1.0177
  102OSM   H14G10305   6.648   2.877   6.464 -0.2625  0.5519  2.5750
  102OSM   C15F10306   6.813   2.904   6.329 -0.4242 -0.4014  0.0294
  102OSM   H15F10307   6.863   2.808   6.348  0.2813  0.1096  0.8037
  102OSM   H15G10308   6.890   2.984   6.325  1.0575 -1.8079 -0.9244
  102OSM   C16F10309   6.745   2.890   6.194 -0.0435 -0.0461  0.7021
  102OSM   H16F10310   6.682   2.982   6.192 -0.9519 -0.5139  3.4533
  102OSM   H16G10311   6.680   2.800   6.187 -0.2930  0.0866  1.2345
  102OSM   C17F10312   6.844   2.895   6.080 -0.1825 -0.1164  0.3263
  102OSM   H17F10313   6.901   2.799   6.085 -0.9503 -0.6344 -0.5180
  102OSM   H17G10314   6.918   2.972   6.109 -1.3411  0.6189  1.4525
  102OSM   C18F10315   6.786   2.918   5.943  0.0601 -0.2391 -0.0664
  102OSM   H18F10316   6.693   2.861   5.925  0.6754 -0.6393 -2.2771
  102OSM   H18G10317   6.859   2.885   5.865  1.6472 -0.7536  1.5526
  102OSM   H18H10318   6.773   3.027   5.925 -1.2578 -0.3060  0.4346
  103OSM      N10319   3.705   6.795   7.826 -0.2109  0.5818  0.1773
  103OSM    C1510320   3.680   6.917   7.911 -0.1796 -0.0852  0.0534
  103OSM   H15A10321   3.575   6.938   7.924  0.6882  4.5736  1.0486
  103OSM   H15B10322   3.719   7.006   7.864  0.4434  1.2184  2.8482
  103OSM   H15C10323   3.735   6.916   8.004  0.4953  0.3281 -0.3326
  103OSM    C1410324   3.628   6.806   7.700  0.8207 -0.3466  0.1732
  103OSM   H14A10325   3.665   6.729   7.634  0.1047  0.2539 -0.9550
  103OSM   H14B10326   3.655   6.895   7.646  0.6008  1.1535  2.3983
  103OSM   H14C10327   3.520   6.800   7.700  0.7577  0.6351 -0.5987
  103OSM    C1310328   3.855   6.785   7.795  0.8569 -0.8079 -0.3634
  103OSM   H13A10329   3.906   6.814   7.885 -1.7651  1.2282  0.6120
  103OSM   H13B10330   3.874   6.862   7.722 -0.7154  0.2037  0.2394
  103OSM   H13C10331   3.885   6.684   7.772 -0.2197 -1.4251  0.8220
  103OSM    C1210332   3.661   6.676   7.899  0.1468 -0.2108 -0.1959
  103OSM   H12A10333   3.562   6.697   7.936 -0.0708  1.4926 -1.5681
  103OSM   H12B10334   3.722   6.668   7.987  0.4676 -1.7663 -0.5409
  103OSM    C1110335   3.666   6.538   7.833  0.6726  0.5502 -0.4409
  103OSM   H11A10336   3.591   6.552   7.752  1.3187  3.1625 -0.6899
  103OSM   H11B10337   3.626   6.473   7.914 -0.2367  1.7376  0.0880
  103OSM      P10338   3.890   6.428   7.888 -0.4781  0.1366 -0.4504
  103OSM    O1310339   4.033   6.468   7.866  0.2273 -0.2785 -0.3428
  103OSM    O1410340   3.840   6.459   8.022 -0.7529 -0.0447  0.1255
  103OSM    O1110341   3.889   6.277   7.860 -0.4427 -0.0223 -0.0331
  103OSM    O1210342   3.798   6.506   7.782  0.4204 -0.4183 -0.3034
  103OSM    C1S10343   3.787   6.212   7.784  0.1451  0.3272  0.2541
  103OSM    H1S10344   3.724   6.282   7.725 -0.5992  2.1457  3.0583
  103OSM    H1T10345   3.725   6.145   7.847  1.6030  1.3834  2.9824
  103OSM     NF10346   3.762   6.070   7.573  0.0909 -1.0482 -0.6228
  103OSM    HNF10347   3.701   5.994   7.596 -0.1828 -0.0512  2.3221
  103OSM    C2S10348   3.855   6.108   7.677 -0.8674  0.6684 -0.6449
  103OSM    H2S10349   3.929   6.175   7.628 -1.2982  1.2880 -0.4708
  103OSM    C3S10350   3.935   5.986   7.734  0.2991  0.2541  0.1796
  103OSM    H3S10351   3.873   5.913   7.792 -0.0518 -0.8134 -1.4463
  103OSM     O310352   4.026   6.031   7.832 -0.3474  0.9871  0.1603
  103OSM    HO310353   4.011   6.126   7.837  2.0147  1.6172 -2.2070
  103OSM    C4S10354   4.003   5.924   7.613 -0.0283 -0.2591 -0.5824
  103OSM    H4S10355   3.930   5.896   7.536  2.4296  0.7176 -3.4748
  103OSM    C5S10356   4.137   5.917   7.587  0.0155  0.1156  0.7619
  103OSM    H5S10357   4.214   5.967   7.647 -1.1060  1.7628  0.9261
  103OSM    C6S10358   4.195   5.859   7.457  0.4013  0.3116 -0.0677
  103OSM    H6S10359   4.241   5.758   7.459  0.1997  0.2148 -0.2941
  103OSM    H6T10360   4.275   5.933   7.435 -0.3538  0.8902 -0.9363
  103OSM    C7S10361   4.089   5.854   7.348  0.1452  0.6197 -0.5546
  103OSM    H7S10362   4.034   5.947   7.325 -0.3108  0.5292  0.1499
  103OSM    H7T10363   4.006   5.782   7.364  0.3620  0.3441 -0.6528
  103OSM    C8S10364   4.160   5.818   7.213 -0.1826 -0.7838 -0.9008
  103OSM    H8S10365   4.224   5.731   7.241  0.7228 -0.2678 -1.3081
  103OSM    H8T10366   4.244   5.885   7.185  0.4806 -1.8514 -1.5637
  103OSM    C9S10367   4.061   5.814   7.095 -0.2238 -0.0916  0.6698
  103OSM    H9S10368   4.024   5.916   7.072 -0.6613 -0.3090  0.3935
  103OSM    H9T10369   3.969   5.757   7.120  0.6162 -0.9645  1.9361
  103OSM   C10S10370   4.138   5.763   6.969  0.7044  0.5296  0.6670
  103OSM   H10S10371   4.158   5.659   7.002 -0.1285  0.6300  1.5321
  103OSM   H10T10372   4.224   5.825   6.937  1.0255 -0.7965 -1.2213
  103OSM   C11S10373   4.046   5.755   6.849  0.2348  0.2151 -0.5099
  103OSM   H11S10374   3.989   5.850   6.842 -0.1179  0.0428 -0.0576
  103OSM   H11T10375   3.967   5.676   6.853 -1.0374  1.4828  0.8462
  103OSM   C12S10376   4.129   5.725   6.728  0.3366 -0.9935 -0.1924
  103OSM   H12S10377   4.185   5.631   6.749 -0.1545 -1.5715 -1.4060
  103OSM   H12T10378   4.197   5.810   6.706 -2.5786  1.6244  0.2948
  103OSM   C13S10379   4.050   5.698   6.599  0.9585 -1.0686  0.0732
  103OSM   H13S10380   3.990   5.787   6.570  2.6530  0.0798 -0.0808
  103OSM   H13T10381   3.983   5.609   6.606  0.8049 -0.9054  0.7260
  103OSM   C14S10382   4.149   5.658   6.482 -0.8297  0.1617  0.3213
  103OSM   H14S10383   4.202   5.565   6.512  0.2104  0.1901 -1.3395
  103OSM   H14T10384   4.221   5.742   6.484  0.1199 -0.4497 -3.0682
  103OSM   C15S10385   4.094   5.654   6.336 -0.8445 -0.5187  0.2090
  103OSM   H15S10386   4.025   5.740   6.328 -0.2307  0.0075  0.4331
  103OSM   H15T10387   4.060   5.550   6.318  2.0356 -1.9856  2.4180
  103OSM   C16S10388   4.208   5.689   6.239 -0.6903 -0.0258  0.2025
  103OSM   H16S10389   4.299   5.624   6.244 -0.9699 -0.3668  1.0291
  103OSM   H16T10390   4.245   5.790   6.267  2.3766 -1.0583  0.2736
  103OSM   C17S10391   4.171   5.687   6.091  0.0382  0.5202  0.3498
  103OSM   H17S10392   4.090   5.762   6.076 -0.7205 -0.3976 -0.3089
  103OSM   H17T10393   4.119   5.591   6.072 -1.6365  1.1281  1.6479
  103OSM   C18S10394   4.288   5.701   5.994 -0.6769  0.4113  0.2751
  103OSM   H18S10395   4.365   5.624   6.013 -0.5800  0.2224 -0.8112
  103OSM   H18T10396   4.335   5.802   5.985 -1.9123  0.8476 -2.7248
  103OSM   H18U10397   4.255   5.678   5.890  2.6442 -1.3175 -0.5387
  103OSM    C1F10398   3.722   6.153   7.479  0.2079  0.0256 -0.3404
  103OSM     OF10399   3.747   6.269   7.498 -0.2105 -1.0407 -0.0020
  103OSM    C2F10400   3.635   6.098   7.366 -0.0170 -0.1583 -0.4930
  103OSM    H2F10401   3.531   6.113   7.403  1.0725 -0.7552  3.2312
  103OSM    H2G10402   3.643   5.987   7.364 -2.1899 -0.3680 -0.9426
  103OSM    C3F10403   3.672   6.160   7.226 -0.2165  0.6332  0.7330
  103OSM    H3F10404   3.650   6.269   7.237  1.1368  0.9082  0.8316
  103OSM    H3G10405   3.599   6.116   7.155  1.8238 -0.4624 -0.7412
  103OSM    C4F10406   3.812   6.130   7.165  0.4501 -0.5484 -0.2125
  103OSM    H4F10407   3.837   6.024   7.145 -0.2054 -1.0969  1.6371
  103OSM    H4G10408   3.884   6.165   7.242 -0.2392  0.9057 -0.1900
  103OSM    C5F10409   3.851   6.217   7.049  0.0434  0.2984  0.4794
  103OSM    H5F10410   3.945   6.272   7.073 -1.2248  3.0203 -0.3749
  103OSM    H5G10411   3.767   6.287   7.031 -0.8738 -0.2657  2.3849
  103OSM    C6F10412   3.858   6.142   6.922 -0.0867 -0.6251  0.4302
  103OSM    H6F10413   3.760   6.094   6.897 -1.1712  2.0487 -0.7675
  103OSM    H6G10414   3.940   6.067   6.923  2.0498  1.5417 -1.6265
  103OSM    C7F10415   3.903   6.231   6.802  0.1600 -0.3169  0.1032
  103OSM    H7F10416   4.002   6.267   6.836 -0.1458  0.3612  0.3070
  103OSM    H7G10417   3.825   6.311   6.804  1.9722  1.6599 -2.3509
  103OSM    C8F10418   3.897   6.161   6.664  0.0321  0.2945  0.2748
  103OSM    H8F10419   3.799   6.109   6.658  0.0147  0.2759  0.7159
  103OSM    H8G10420   3.975   6.082   6.663 -2.4018 -2.2768  1.1998
  103OSM    C9F10421   3.912   6.266   6.555  0.3142  0.2416  0.5538
  103OSM    H9F10422   3.855   6.359   6.572 -2.3207 -1.3176  0.7065
  103OSM   C10F10423   3.991   6.270   6.446  0.1471  0.3449 -0.0152
  103OSM   H10F10424   3.990   6.356   6.377 -0.5843  0.7761  0.5107
  103OSM   C11F10425   4.079   6.164   6.391 -0.3044  0.1608 -0.0680
  103OSM   H11F10426   4.093   6.081   6.464  1.6415 -0.8750 -1.5309
  103OSM   H11G10427   4.180   6.203   6.366 -0.2062 -0.7878 -1.2502
  103OSM   C12F10428   4.030   6.100   6.259 -0.1224  0.7280  0.1400
  103OSM   H12F10429   4.109   6.024   6.236  1.3361  1.3039  2.8795
  103OSM   H12G10430   4.034   6.184   6.187  1.5352  2.9402  2.6548
  103OSM   C13F10431   3.894   6.038   6.262 -0.9111 -0.0833  0.4926
  103OSM   H13F10432   3.821   6.104   6.313 -0.2505 -1.4515  3.4051
  103OSM   H13G10433   3.885   5.944   6.320 -1.1669 -1.8296 -2.2077
  103OSM   C14F10434   3.842   6.004   6.126  0.4564  0.0570  0.2914
  103OSM   H14F10435   3.752   5.939   6.130 -0.4712  0.9968 -2.7749
  103OSM   H14G10436   3.917   5.947   6.066 -1.6407 -0.5615 -1.8829
  103OSM   C15F10437   3.788   6.133   6.054 -0.2136  0.1797 -0.2756
  103OSM   H15F10438   3.874   6.203   6.053  0.3923 -0.5119  0.8223
  103OSM   H15G10439   3.714   6.191   6.113 -0.3863  0.9534 -1.2366
  103OSM   C16F10440   3.738   6.114   5.914 -0.3346  0.0594  1.0472
  103OSM   H16F10441   3.639   6.064   5.926 -0.3862 -0.0647  0.1831
  103OSM   H16G10442   3.796   6.035   5.862 -1.4287 -1.3712  1.8963
  103OSM   C17F10443   3.731   6.243   5.838  1.0482  0.1980 -0.4500
  103OSM   H17F10444   3.828   6.292   5.815  0.3133  0.5240 -3.2184
  103OSM   H17G10445   3.674   6.301   5.913  1.2784 -0.0897 -0.0457
  103OSM   C18F10446   3.657   6.236   5.711  0.0910  0.0260 -0.0981
  103OSM   H18F10447   3.553   6.198   5.716  0.3192 -1.0472 -2.3968
  103OSM   H18G10448   3.703   6.167   5.637 -0.3600  0.3219 -0.6661
  103OSM   H18H10449   3.652   6.335   5.660  1.3029  0.6399  0.9212
  104OSM      N10450   4.874   5.819   8.444  0.1897  0.1210  0.1444
  104OSM    C1510451   4.866   5.968   8.401 -0.3030 -0.5868 -0.3758
  104OSM   H15A10452   4.922   5.991   8.311 -0.7729 -2.0310 -1.0784
  104OSM   H15B10453   4.886   6.033   8.484 -0.1459 -0.9576 -0.1177
  104OSM   H15C10454   4.766   6.000   8.376 -0.2993  1.4879  1.9396
  104OSM    C1410455   5.010   5.783   8.497 -0.4383  0.1765 -0.7707
  104OSM   H14A10456   5.006   5.683   8.539 -0.8200  0.3963 -0.2732
  104OSM   H14B10457   5.041   5.845   8.579  0.8607 -1.1212 -0.2332
  104OSM   H14C10458   5.093   5.787   8.428 -0.5675 -0.3058 -0.9659
  104OSM    C1310459   4.780   5.791   8.554  0.5375  0.7531 -0.5462
  104OSM   H13A10460   4.680   5.830   8.538 -0.6884 -0.0747  3.7935
  104OSM   H13B10461   4.804   5.849   8.642 -1.3499  0.3932  0.2631
  104OSM   H13C10462   4.778   5.691   8.593 -0.0909 -0.0075 -2.4344
  104OSM    C1210463   4.847   5.732   8.323  0.1025  0.2801  0.2824
  104OSM   H12A10464   4.740   5.737   8.309  0.2173  1.1244 -0.3934
  104OSM   H12B10465   4.885   5.633   8.345  0.0637 -0.2799 -1.9100
  104OSM    C1110466   4.918   5.746   8.185 -0.1049 -0.5418  0.0250
  104OSM   H11A10467   4.891   5.840   8.133 -2.1499 -0.5500  0.9495
  104OSM   H11B10468   4.884   5.663   8.118 -0.2668  0.6774 -1.4669
  104OSM      P10469   5.150   5.643   8.127  0.2476  0.1632 -0.6248
  104OSM    O1310470   5.288   5.695   8.132 -0.1392 -0.1087 -0.0774
  104OSM    O1410471   5.122   5.506   8.177  0.3831 -0.4357  0.6021
  104OSM    O1110472   5.095   5.653   7.976 -0.2947  0.7914 -0.1927
  104OSM    O1210473   5.056   5.746   8.201  0.1161 -0.3779 -0.0589
  104OSM    C1S10474   5.100   5.787   7.913 -0.0057  0.6574 -0.0344
  104OSM    H1S10475   5.203   5.830   7.913 -0.1531  1.0547 -1.5238
  104OSM    H1T10476   5.035   5.863   7.961  0.5435  1.0943  0.0315
  104OSM     NF10477   5.071   5.911   7.705  0.1471  0.1002 -0.2874
  104OSM    HNF10478   4.999   5.973   7.676  1.7222  1.4870 -1.3602
  104OSM    C2S10479   5.037   5.785   7.767  0.6899 -0.0610 -0.5193
  104OSM    H2S10480   5.092   5.700   7.721 -0.0180 -1.5770  1.2886
  104OSM    C3S10481   4.885   5.749   7.780 -0.7353 -0.0452  0.6238
  104OSM    H3S10482   4.820   5.824   7.831  0.9534 -0.4299  3.6043
  104OSM     O310483   4.865   5.631   7.855 -0.5615 -0.3037 -0.0846
  104OSM    HO310484   4.943   5.619   7.909 -2.4800  0.9856  3.3109
  104OSM    C4S10485   4.822   5.738   7.642 -0.6190  0.0389 -0.6930
  104OSM    H4S10486   4.837   5.643   7.587 -0.5513  0.1747 -0.9138
  104OSM    C5S10487   4.749   5.833   7.583  0.5068 -0.8064  0.0466
  104OSM    H5S10488   4.746   5.931   7.632  2.0450 -1.1553  0.8951
  104OSM    C6S10489   4.678   5.835   7.450  0.4032 -0.0866 -0.2468
  104OSM    H6S10490   4.740   5.843   7.358 -3.3727  1.6920 -2.8957
  104OSM    H6T10491   4.604   5.917   7.445 -2.5489 -2.5501  0.4095
  104OSM    C7S10492   4.585   5.714   7.437  0.2614  0.9579  0.2255
  104OSM    H7S10493   4.513   5.705   7.521  0.9223 -2.1966  0.5965
  104OSM    H7T10494   4.641   5.617   7.440 -0.6727  0.4250  0.8182
  104OSM    C8S10495   4.501   5.732   7.306 -0.4553  0.2226  0.5800
  104OSM    H8S10496   4.470   5.838   7.310  0.9755  0.6878  0.0770
  104OSM    H8T10497   4.410   5.668   7.304 -0.8624  0.7960  0.3537
  104OSM    C9S10498   4.577   5.700   7.171  0.1731  0.5380 -0.1520
  104OSM    H9S10499   4.657   5.623   7.174  0.2784  0.6210 -0.7297
  104OSM    H9T10500   4.632   5.794   7.148  2.4509 -1.2866 -2.9786
  104OSM   C10S10501   4.490   5.657   7.056 -0.0574  0.0475  0.1762
  104OSM   H10S10502   4.413   5.734   7.037  1.4634  1.2151 -1.6320
  104OSM   H10T10503   4.448   5.558   7.085  1.9116 -0.6331  0.9365
  104OSM   C11S10504   4.570   5.628   6.923  0.4058 -0.1668  0.1989
  104OSM   H11S10505   4.639   5.543   6.944 -0.6947 -0.7954  1.4615
  104OSM   H11T10506   4.633   5.718   6.908  0.2782  0.0526  0.9267
  104OSM   C12S10507   4.485   5.576   6.808  0.0731  0.9215 -0.6503
  104OSM   H12S10508   4.415   5.655   6.774 -0.6178  0.4523 -0.3476
  104OSM   H12T10509   4.416   5.495   6.841 -0.0305  1.3320  0.1575
  104OSM   C13S10510   4.565   5.533   6.681  0.8974 -0.1117 -0.2706
  104OSM   H13S10511   4.607   5.431   6.686  1.2107 -0.0168 -0.8715
  104OSM   H13T10512   4.649   5.604   6.666  0.2218  0.4503 -1.5515
  104OSM   C14S10513   4.477   5.562   6.559  0.1647 -0.5943  0.1090
  104OSM   H14S10514   4.448   5.669   6.550 -0.4935 -0.8473 -1.1774
  104OSM   H14T10515   4.377   5.521   6.584  0.5759 -0.8215  1.4344
  104OSM   C15S10516   4.530   5.505   6.425 -0.2154  0.4132  0.0107
  104OSM   H15S10517   4.470   5.549   6.342 -0.6339 -2.1413 -1.1184
  104OSM   H15T10518   4.510   5.396   6.422  0.7182  0.1825  1.2204
  104OSM   C16S10519   4.677   5.523   6.399  0.3463  0.7027 -0.4121
  104OSM   H16S10520   4.726   5.479   6.489 -0.1474  0.2785 -0.3440
  104OSM   H16T10521   4.698   5.632   6.407  3.2362  0.3229 -1.6647
  104OSM   C17S10522   4.737   5.463   6.271 -0.5868  0.1436  0.2243
  104OSM   H17S10523   4.728   5.353   6.271 -2.3963  0.2532 -0.6628
  104OSM   H17T10524   4.845   5.484   6.262 -0.1170 -1.6547  1.3153
  104OSM   C18S10525   4.671   5.514   6.146 -0.1242 -0.4133  0.7687
  104OSM   H18S10526   4.727   5.489   6.053  0.0007 -0.7265  0.9290
  104OSM   H18T10527   4.665   5.625   6.139 -0.3475 -0.5008 -1.1195
  104OSM   H18U10528   4.567   5.476   6.133 -0.3446 -0.3657  2.2254
  104OSM    C1F10529   5.192   5.948   7.662 -0.3674  0.1490  0.4681
  104OSM     OF10530   5.292   5.885   7.695 -0.1865  0.4860 -0.1174
  104OSM    C2F10531   5.208   6.072   7.580  0.1121 -0.4980  0.2445
  104OSM    H2F10532   5.256   6.157   7.634 -0.2128  0.2987 -0.6870
  104OSM    H2G10533   5.110   6.104   7.538  0.3005 -2.3924 -1.8261
  104OSM    C3F10534   5.294   6.035   7.455 -0.3922 -0.1371 -0.3654
  104OSM    H3F10535   5.389   5.995   7.499 -0.0985 -0.8551 -1.5955
  104OSM    H3G10536   5.303   6.121   7.386  1.3501  1.0747  1.2808
  104OSM    C4F10537   5.250   5.919   7.373  0.3324  0.1213  0.6798
  104OSM    H4F10538   5.171   5.964   7.310  1.4743  0.3265 -0.6621
  104OSM    H4G10539   5.210   5.837   7.436 -1.8986  0.0881 -0.6896
  104OSM    C5F10540   5.347   5.856   7.267 -0.5990  1.0095  0.1841
  104OSM    H5F10541   5.287   5.776   7.220 -0.5660  1.1396 -0.0851
  104OSM    H5G10542   5.427   5.815   7.332 -0.9932 -1.3586 -0.7344
  104OSM    C6F10543   5.394   5.947   7.148 -0.4526 -0.7288  0.3461
  104OSM    H6F10544   5.455   6.033   7.183 -0.8717  0.4218 -1.6205
  104OSM    H6G10545   5.296   5.982   7.110 -0.2284  0.0176  0.4332
  104OSM    C7F10546   5.465   5.872   7.029  0.8525  0.1208 -0.3599
  104OSM    H7F10547   5.397   5.797   6.983 -1.3936  0.5716  2.0181
  104OSM    H7G10548   5.556   5.814   7.059 -0.4556 -1.5341  0.5988
  104OSM    C8F10549   5.514   5.974   6.928 -0.2517  0.1755 -0.6691
  104OSM    H8F10550   5.599   5.933   6.870 -0.0161  0.1754 -0.3284
  104OSM    H8G10551   5.559   6.056   6.987  0.0473  1.6465 -2.8480
  104OSM    C9F10552   5.400   6.018   6.840 -0.3685  1.0316 -0.5841
  104OSM    H9F10553   5.321   6.068   6.898  0.5229  0.4973  1.1552
  104OSM   C10F10554   5.370   6.004   6.710 -0.2478  0.2800  0.5974
  104OSM   H10F10555   5.268   6.034   6.682 -0.1781  1.2911  1.3643
  104OSM   C11F10556   5.454   5.937   6.601 -0.2130 -0.6212  0.3248
  104OSM   H11F10557   5.395   5.848   6.572  1.0370 -1.3874  0.0660
  104OSM   H11G10558   5.554   5.908   6.638 -0.0115 -2.4167 -1.4816
  104OSM   C12F10559   5.478   6.000   6.460  0.1189 -0.4241 -0.5382
  104OSM   H12F10560   5.551   5.934   6.406 -2.3468 -4.4158  0.5468
  104OSM   H12G10561   5.532   6.095   6.481 -0.5793 -0.1924  0.2640
  104OSM   C13F10562   5.344   6.025   6.386  0.2430 -0.0112 -0.0986
  104OSM   H13F10563   5.271   6.080   6.449 -1.8092 -1.1579 -1.3527
  104OSM   H13G10564   5.306   5.922   6.368 -1.3736  0.1917  1.7552
  104OSM   C14F10565   5.341   6.096   6.248  0.2773 -0.0043  0.9693
  104OSM   H14F10566   5.379   6.200   6.239 -1.9495  0.7024 -1.5950
  104OSM   H14G10567   5.231   6.103   6.230  0.5231 -0.9054 -1.2304
  104OSM   C15F10568   5.408   6.021   6.122 -0.2494  0.3514  0.4586
  104OSM   H15F10569   5.379   5.914   6.121  1.3168 -0.0989  0.0707
  104OSM   H15G10570   5.517   6.013   6.145  0.6704  2.8862 -2.3157
  104OSM   C16F10571   5.382   6.096   5.994  0.1029  0.5026 -0.5924
  104OSM   H16F10572   5.429   6.196   5.982  1.3518 -0.1255 -1.1979
  104OSM   H16G10573   5.271   6.099   5.996  0.0639 -0.1560  2.2215
  104OSM   C17F10574   5.434   6.006   5.880  0.1369  0.6978 -0.7316
  104OSM   H17F10575   5.365   5.919   5.883  1.5942 -0.4703  0.3527
  104OSM   H17G10576   5.533   5.964   5.906  0.2161 -1.0655 -3.4478
  104OSM   C18F10577   5.434   6.069   5.739 -0.1146 -0.4036  0.7982
  104OSM   H18F10578   5.503   6.011   5.675 -1.8578 -1.6682 -0.0019
  104OSM   H18G10579   5.463   6.176   5.743 -1.4786 -0.0259  1.1038
  104OSM   H18H10580   5.331   6.074   5.699  1.2045  0.1887 -2.9585
  105OSM      N10581   6.037   0.347   8.077 -0.4233  0.2901  0.0073
  105OSM    C1510582   5.907   0.313   8.007  0.6196  0.5937 -0.1758
  105OSM   H15A10583   5.821   0.325   8.072 -0.4772 -1.4538 -1.1618
  105OSM   H15B10584   5.905   0.208   7.985 -2.0615  0.2870  1.1425
  105OSM   H15C10585   5.898   0.374   7.918 -0.0444  2.6339  1.2225
  105OSM    C1410586   6.034   0.491   8.091 -0.0465  0.4901 -0.5948
  105OSM   H14A10587   5.963   0.523   8.166 -2.0303  2.2623 -3.0474
  105OSM   H14B10588   5.993   0.548   8.009  0.5534  3.0001  0.7313
  105OSM   H14C10589   6.131   0.533   8.114 -0.9702  1.7236  1.3719
  105OSM    C1310590   6.055   0.268   8.199  0.3176 -0.0029 -0.2148
  105OSM   H13A10591   6.087   0.169   8.170  1.8003  0.9462 -2.0683
  105OSM   H13B10592   5.969   0.273   8.264  0.6810  1.2734  0.1868
  105OSM   H13C10593   6.128   0.315   8.264 -1.2089  0.4503  1.2459
  105OSM    C1210594   6.154   0.309   7.984  0.3306  0.3548  0.1970
  105OSM   H12A10595   6.252   0.327   8.025  0.9962  0.6292 -1.4116
  105OSM   H12B10596   6.153   0.371   7.895  1.8219  0.6337  0.3423
  105OSM    C1110597   6.166   0.155   7.936 -1.3484  0.1485 -0.4129
  105OSM   H11A10598   6.237   0.165   7.851  0.2196 -2.4594  0.4556
  105OSM   H11B10599   6.071   0.111   7.898 -0.1768 -2.7413 -0.2971
  105OSM      P10600   6.371   0.093   8.068  0.1364 -0.1961  0.0178
  105OSM    O1310601   6.404   0.236   8.071  0.3459  0.5333 -0.0787
  105OSM    O1410602   6.403   0.016   8.191 -0.7538  0.4460 -0.0966
  105OSM    O1110603   6.441   0.037   7.942  0.4308  0.2280  0.3132
  105OSM    O1210604   6.224   0.072   8.030 -0.1105 -0.1474 -0.0333
  105OSM    C1S10605   6.433  -0.102   7.903 -0.1258  0.0913 -0.0556
  105OSM    H1S10606   6.356  -0.159   7.960 -0.1165 -2.2633 -2.2079
  105OSM    H1T10607   6.526  -0.163   7.912 -1.5584 -1.9498  2.1068
  105OSM     NF10608   6.363  -0.245   7.719  0.2011 -0.1389  0.2698
  105OSM    HNF10609   6.431  -0.307   7.681  0.7033 -0.0799  1.0612
  105OSM    C2S10610   6.398  -0.108   7.750  0.2596  0.3713 -0.2175
  105OSM    H2S10611   6.307  -0.047   7.730  0.9220  2.3195  2.2497
  105OSM    C3S10612   6.514  -0.045   7.666  0.9199 -0.4908  0.5832
  105OSM    H3S10613   6.606  -0.104   7.683  1.5356  0.5506  0.9428
  105OSM     O310614   6.551   0.086   7.710 -0.2388  0.0392 -0.2744
  105OSM    HO310615   6.496   0.086   7.788 -0.0957 -1.5318 -0.1341
  105OSM    C4S10616   6.474  -0.048   7.519  0.3862 -0.0885  0.3099
  105OSM    H4S10617   6.522  -0.133   7.466 -0.4630 -1.6236  1.9072
  105OSM    C5S10618   6.395   0.045   7.460 -0.0342 -1.3000  0.3738
  105OSM    H5S10619   6.361   0.136   7.512 -1.7282 -1.2113 -0.8003
  105OSM    C6S10620   6.354   0.046   7.313 -0.0844  0.6662  0.5261
  105OSM    H6S10621   6.403   0.130   7.258  2.0678  0.4664  2.0416
  105OSM    H6T10622   6.246   0.070   7.315 -0.4216 -0.7866  2.5523
  105OSM    C7S10623   6.366  -0.088   7.228  0.2331 -0.4182  0.0724
  105OSM    H7S10624   6.322  -0.173   7.285 -1.9304  0.7989  0.3494
  105OSM    H7T10625   6.475  -0.108   7.223  0.7425  0.5981  3.8484
  105OSM    C8S10626   6.303  -0.067   7.082  0.8789 -0.2729  0.8623
  105OSM    H8S10627   6.197  -0.034   7.086  1.2179  1.8827 -3.0746
  105OSM    H8T10628   6.307  -0.168   7.037  1.8013  0.7997 -1.6833
  105OSM    C9S10629   6.378   0.027   6.977  0.1824  0.4436  0.1611
  105OSM    H9S10630   6.488   0.018   6.982  0.0497 -2.9079 -0.7777
  105OSM    H9T10631   6.380   0.128   7.023  0.5289  0.8412 -0.7015
  105OSM   C10S10632   6.342   0.018   6.832 -0.3609 -0.1836 -0.1777
  105OSM   H10S10633   6.232   0.028   6.825 -0.6287 -1.6346  1.2483
  105OSM   H10T10634   6.381  -0.083   6.804 -0.8533 -0.5835  0.5359
  105OSM   C11S10635   6.413   0.124   6.757  0.1401  0.3267  0.1249
  105OSM   H11S10636   6.523   0.124   6.770  0.0913  2.6167  1.0117
  105OSM   H11T10637   6.370   0.220   6.794 -0.2588 -0.1465  0.8998
  105OSM   C12S10638   6.398   0.117   6.607  0.6103 -0.4419 -0.2784
  105OSM   H12S10639   6.290   0.108   6.582  0.7666 -2.4798 -0.3375
  105OSM   H12T10640   6.449   0.024   6.574 -1.6552 -1.5707 -0.8247
  105OSM   C13S10641   6.460   0.232   6.526  0.1310  0.5083 -0.2466
  105OSM   H13S10642   6.563   0.238   6.566  0.6247  0.4442 -1.4586
  105OSM   H13T10643   6.392   0.313   6.560 -0.7137 -0.4875  0.5093
  105OSM   C14S10644   6.461   0.205   6.379 -0.7682 -0.0066 -0.7621
  105OSM   H14S10645   6.500   0.104   6.356 -0.2153  0.0724 -0.2191
  105OSM   H14T10646   6.526   0.281   6.331 -2.0139  1.0900 -0.7595
  105OSM   C15S10647   6.319   0.216   6.307 -0.0427 -0.1716 -0.0938
  105OSM   H15S10648   6.286   0.322   6.316  2.0601  0.7211 -1.7870
  105OSM   H15T10649   6.244   0.148   6.352 -1.0566 -0.3621 -1.9699
  105OSM   C16S10650   6.340   0.178   6.161 -0.4458 -0.5779 -0.3548
  105OSM   H16S10651   6.241   0.165   6.114 -0.8537  1.7347 -0.2510
  105OSM   H16T10652   6.386   0.077   6.168 -0.4732 -0.4774  2.5996
  105OSM   C17S10653   6.409   0.272   6.067  0.1249 -0.8683 -0.5189
  105OSM   H17S10654   6.510   0.301   6.103 -1.4452  3.7316  0.8230
  105OSM   H17T10655   6.351   0.366   6.059  3.0228  0.9924 -1.2170
  105OSM   C18S10656   6.411   0.210   5.929 -0.1050  1.0404  0.0340
  105OSM   H18S10657   6.451   0.281   5.854  0.5296 -0.6699 -1.3348
  105OSM   H18T10658   6.306   0.183   5.904 -0.3409  1.9875 -0.0411
  105OSM   H18U10659   6.472   0.118   5.912 -1.8797 -0.3369  0.7619
  105OSM    C1F10660   6.245  -0.302   7.761 -0.5589  0.3724  0.1897
  105OSM     OF10661   6.161  -0.244   7.825  0.5474 -0.4963  0.1502
  105OSM    C2F10662   6.239  -0.445   7.724  0.0652 -0.7652  0.0791
  105OSM    H2F10663   6.294  -0.511   7.796  0.7140  0.4079  0.6863
  105OSM    H2G10664   6.293  -0.456   7.628  0.7333 -1.1144  0.4815
  105OSM    C3F10665   6.094  -0.494   7.694 -0.3239 -0.7430  0.0689
  105OSM    H3F10666   6.025  -0.469   7.777 -1.0475  1.6574 -1.1539
  105OSM    H3G10667   6.091  -0.604   7.677  1.9833 -0.4558 -3.2129
  105OSM    C4F10668   6.023  -0.433   7.564  0.1732 -0.1117 -0.6760
  105OSM    H4F10669   6.034  -0.322   7.556  1.9451 -0.3519 -2.5473
  105OSM    H4G10670   5.915  -0.456   7.574 -0.0565  1.0050 -0.4375
  105OSM    C5F10671   6.071  -0.497   7.438  0.0683 -0.4144  0.9508
  105OSM    H5F10672   6.027  -0.599   7.437 -0.5455 -0.1602  1.4732
  105OSM    H5G10673   6.181  -0.511   7.449  0.2376 -0.4408 -0.5539
  105OSM    C6F10674   6.034  -0.405   7.323  0.1874 -0.7371 -0.2789
  105OSM    H6F10675   6.101  -0.317   7.334  2.5634 -2.0790 -2.8348
  105OSM    H6G10676   5.927  -0.386   7.345  0.3850  0.6126 -0.4065
  105OSM    C7F10677   6.039  -0.461   7.172  0.2863 -0.9138 -0.4236
  105OSM    H7F10678   5.975  -0.552   7.163 -1.2584 -0.0762  1.5141
  105OSM    H7G10679   6.145  -0.495   7.160  0.4469 -0.3247 -0.7098
  105OSM    C8F10680   6.007  -0.362   7.061 -0.4368 -0.3739  0.0210
  105OSM    H8F10681   6.089  -0.288   7.058 -0.7432 -0.0364 -0.1224
  105OSM    H8G10682   5.909  -0.311   7.078 -0.4750 -0.2504 -0.5491
  105OSM    C9F10683   5.996  -0.442   6.931  0.0043 -0.1868 -0.7521
  105OSM    H9F10684   5.929  -0.529   6.941 -1.7927  1.0563 -1.3426
  105OSM   C10F10685   6.067  -0.431   6.819  0.8646  0.5921  0.2332
  105OSM   H10F10686   6.063  -0.516   6.749 -2.7470  0.1848  0.7555
  105OSM   C11F10687   6.164  -0.321   6.795 -0.4688  0.3586  0.7274
  105OSM   H11F10688   6.256  -0.358   6.845 -0.6717  0.9624  1.5610
  105OSM   H11G10689   6.142  -0.217   6.827  0.4773  0.8526 -0.1466
  105OSM   C12F10690   6.222  -0.309   6.654 -0.5685 -0.0120  0.5101
  105OSM   H12F10691   6.265  -0.405   6.620  1.3415  0.4604  1.4628
  105OSM   H12G10692   6.297  -0.227   6.659  0.5892 -1.0028 -0.1367
  105OSM   C13F10693   6.120  -0.256   6.550  0.0305 -0.5945  0.5736
  105OSM   H13F10694   6.085  -0.151   6.551  2.6533  0.3943 -0.7759
  105OSM   H13G10695   6.027  -0.315   6.559 -1.4411  1.6646  0.9075
  105OSM   C14F10696   6.166  -0.265   6.404 -0.3078 -0.9662 -0.1163
  105OSM   H14F10697   6.088  -0.243   6.328 -0.9671 -0.3663  0.7029
  105OSM   H14G10698   6.189  -0.368   6.372  1.1483 -0.5189 -0.5917
  105OSM   C15F10699   6.286  -0.174   6.366  0.3120  0.2438  0.6473
  105OSM   H15F10700   6.361  -0.205   6.442  1.3762  0.5718 -0.2490
  105OSM   H15G10701   6.251  -0.069   6.359 -1.2170 -0.3317 -1.2373
  105OSM   C16F10702   6.331  -0.214   6.221 -0.2589  0.2497  0.3716
  105OSM   H16F10703   6.344  -0.324   6.209 -2.2969  0.2636 -3.1305
  105OSM   H16G10704   6.421  -0.159   6.188 -0.2199  0.7941  1.3365
  105OSM   C17F10705   6.226  -0.175   6.116  0.7056  0.0094 -0.2379
  105OSM   H17F10706   6.195  -0.069   6.127 -0.7433 -0.2811 -1.1953
  105OSM   H17G10707   6.132  -0.234   6.127  1.8549 -2.0492 -1.0801
  105OSM   C18F10708   6.272  -0.192   5.975 -1.0530  0.3103 -0.2560
  105OSM   H18F10709   6.277  -0.094   5.924  2.7375 -1.1119 -3.1594
  105OSM   H18G10710   6.202  -0.262   5.923  0.5094 -1.1353 -0.5217
  105OSM   H18H10711   6.375  -0.235   5.968 -1.1198 -0.3984  2.0711
  106OSM      N10712   5.770   4.732   8.041 -0.0039 -0.4025  0.4165
  106OSM    C1510713   5.814   4.834   8.141 -0.2316  0.4610 -0.0426
  106OSM   H15A10714   5.857   4.920   8.092  0.8322  0.3563  0.6567
  106OSM   H15B10715   5.903   4.794   8.189  1.2379  1.5167 -1.7845
  106OSM   H15C10716   5.738   4.867   8.210  0.3851  1.6532  0.0911
  106OSM    C1410717   5.739   4.613   8.124 -0.4662  0.4364  0.3544
  106OSM   H14A10718   5.827   4.581   8.177  1.8745  0.5894 -3.0696
  106OSM   H14B10719   5.700   4.536   8.058 -1.1610  0.4374  0.7457
  106OSM   H14C10720   5.665   4.630   8.201 -1.7481  0.7400 -0.8935
  106OSM    C1310721   5.649   4.780   7.965 -0.1002  0.2488  0.0327
  106OSM   H13A10722   5.604   4.692   7.923  1.3072 -0.4422 -0.0665
  106OSM   H13B10723   5.678   4.844   7.883  1.1687  1.2533  1.2004
  106OSM   H13C10724   5.583   4.832   8.033  0.7490 -1.3788  2.2226
  106OSM    C1210725   5.876   4.693   7.951 -0.8361  0.8531  0.1747
  106OSM   H12A10726   5.955   4.644   8.006 -2.4277  0.2419  2.0251
  106OSM   H12B10727   5.928   4.781   7.915  0.5349 -0.4067 -1.0735
  106OSM    C1110728   5.851   4.603   7.829  0.1380 -0.7324 -0.5390
  106OSM   H11A10729   5.943   4.613   7.768  0.7822 -0.6707  0.4179
  106OSM   H11B10730   5.767   4.658   7.781 -2.2152  0.0239  3.9079
  106OSM      P10731   5.687   4.394   7.840  0.1906 -0.1034 -0.4169
  106OSM    O1310732   5.688   4.260   7.913  0.0450 -0.2361  0.6503
  106OSM    O1410733   5.575   4.493   7.868 -0.2139  0.1959  0.6509
  106OSM    O1110734   5.676   4.367   7.682 -0.4762  0.2824 -0.6517
  106OSM    O1210735   5.834   4.465   7.863 -0.4249 -0.0404  0.2821
  106OSM    C1S10736   5.792   4.347   7.601  0.3189 -0.0433 -0.2316
  106OSM    H1S10737   5.822   4.241   7.588 -0.8130 -0.2624 -1.2522
  106OSM    H1T10738   5.881   4.400   7.641  2.1679 -3.9441  1.2642
  106OSM     NF10739   5.888   4.364   7.380 -0.7472 -0.0198 -0.3677
  106OSM    HNF10740   5.962   4.430   7.379  0.1321 -0.8818  1.5963
  106OSM    C2S10741   5.768   4.400   7.452 -0.0116 -0.6428  0.3605
  106OSM    H2S10742   5.691   4.336   7.405  0.5430 -0.2395 -1.1583
  106OSM    C3S10743   5.722   4.551   7.439  0.9380  0.5660 -0.2574
  106OSM    H3S10744   5.793   4.616   7.495 -1.0791  1.3690  1.5541
  106OSM     O310745   5.598   4.578   7.499  0.3177 -0.1937  0.0923
  106OSM    HO310746   5.576   4.507   7.559 -1.8741  1.0074  0.8056
  106OSM    C4S10747   5.725   4.598   7.301  0.1866  0.3932 -0.3568
  106OSM    H4S10748   5.630   4.588   7.245 -0.0716  1.3596 -0.1046
  106OSM    C5S10749   5.829   4.668   7.249  0.7795  0.3838  0.8206
  106OSM    H5S10750   5.916   4.677   7.316 -0.8755  1.3475  2.9611
  106OSM    C6S10751   5.843   4.728   7.113  0.0747  0.2099 -0.1566
  106OSM    H6S10752   5.948   4.709   7.082  1.0717  1.9260  1.9466
  106OSM    H6T10753   5.830   4.837   7.125  2.5296  0.5687 -0.3131
  106OSM    C7S10754   5.752   4.672   7.007 -0.0961  0.0123  0.1823
  106OSM    H7S10755   5.649   4.697   7.041 -0.2399 -0.0164 -0.2284
  106OSM    H7T10756   5.766   4.562   7.020 -1.3695 -0.1431  0.4025
  106OSM    C8S10757   5.763   4.718   6.866  0.9661  0.3545 -0.2520
  106OSM    H8S10758   5.859   4.686   6.820  0.8722  1.4240 -1.2559
  106OSM    H8T10759   5.748   4.828   6.865  0.7861  0.3576  1.1194
  106OSM    C9S10760   5.657   4.652   6.775 -0.6469  0.4361 -0.7012
  106OSM    H9S10761   5.562   4.707   6.792  0.6290  2.4535  0.3590
  106OSM    H9T10762   5.645   4.547   6.807 -2.3007  0.8315  0.0925
  106OSM   C10S10763   5.687   4.663   6.621 -0.5781  0.2253 -0.1202
  106OSM   H10S10764   5.645   4.578   6.563  0.7956  1.0402 -2.4826
  106OSM   H10T10765   5.797   4.657   6.607 -0.6751 -0.3419 -0.6796
  106OSM   C11S10766   5.643   4.796   6.561 -0.4632  0.4514  1.0743
  106OSM   H11S10767   5.687   4.888   6.605 -0.5232  0.8853  0.2486
  106OSM   H11T10768   5.537   4.805   6.592 -0.3900  0.5403  1.3000
  106OSM   C12S10769   5.653   4.790   6.405 -0.7336 -0.1167 -0.1711
  106OSM   H12S10770   5.645   4.685   6.369  0.8141 -0.1491 -0.4876
  106OSM   H12T10771   5.752   4.828   6.373  0.3510 -0.9569  1.9514
  106OSM   C13S10772   5.544   4.869   6.343  0.2319 -0.6453 -0.3538
  106OSM   H13S10773   5.453   4.866   6.407  0.5416  0.6568  0.1814
  106OSM   H13T10774   5.512   4.823   6.247  0.2113 -0.4250 -0.4552
  106OSM   C14S10775   5.576   5.016   6.313  0.1888 -0.1374  0.2775
  106OSM   H14S10776   5.670   5.017   6.254  0.4832 -1.1541  0.7004
  106OSM   H14T10777   5.598   5.066   6.410  1.0114 -0.1939  0.1252
  106OSM   C15S10778   5.465   5.098   6.250  0.5095  0.1004 -0.0622
  106OSM   H15S10779   5.513   5.198   6.242  3.0519 -0.9211  1.1924
  106OSM   H15T10780   5.380   5.091   6.320  1.9209 -1.8915  1.5853
  106OSM   C16S10781   5.410   5.043   6.112 -0.6413  0.0917 -0.1993
  106OSM   H16S10782   5.364   4.943   6.125 -0.0382  0.0151  1.6823
  106OSM   H16T10783   5.500   5.013   6.054  0.0010 -1.2124  1.3921
  106OSM   C17S10784   5.323   5.147   6.039  0.1008  0.1654 -0.5443
  106OSM   H17S10785   5.253   5.098   5.967 -0.9447 -2.9064  2.2887
  106OSM   H17T10786   5.391   5.218   5.988 -1.9735  1.6544 -1.3614
  106OSM   C18S10787   5.233   5.229   6.130 -0.4545 -0.3372 -0.1255
  106OSM   H18S10788   5.156   5.164   6.178  0.1964 -0.9150  0.1426
  106OSM   H18T10789   5.191   5.313   6.070  0.4260  0.3910  0.2560
  106OSM   H18U10790   5.285   5.278   6.215 -0.6909  0.4832 -0.4353
  106OSM    C1F10791   5.913   4.237   7.343  0.0928  0.0956  0.4301
  106OSM     OF10792   5.839   4.145   7.381 -0.3618 -0.2491  0.1474
  106OSM    C2F10793   6.040   4.206   7.265  0.6556 -0.4941  0.3474
  106OSM    H2F10794   6.029   4.106   7.218 -0.4086  0.2548 -1.0650
  106OSM    H2G10795   6.121   4.205   7.342  0.4747 -1.4047  0.5417
  106OSM    C3F10796   6.083   4.304   7.149  0.3961  0.2211 -0.5724
  106OSM    H3F10797   6.168   4.252   7.099 -0.2214 -2.2463  0.7762
  106OSM    H3G10798   6.111   4.401   7.196  1.2952  0.2365 -1.1113
  106OSM    C4F10799   5.987   4.325   7.027  0.2351  0.4244 -0.7519
  106OSM    H4F10800   5.897   4.385   7.052  0.0168  0.2984 -1.2190
  106OSM    H4G10801   5.946   4.225   7.000 -1.3770  0.5566  0.9916
  106OSM    C5F10802   6.040   4.401   6.908  0.0924  0.2456  0.2931
  106OSM    H5F10803   6.143   4.361   6.905 -0.1469 -0.4131  0.6524
  106OSM    H5G10804   6.043   4.507   6.942 -0.2720 -0.5849  3.1991
  106OSM    C6F10805   5.967   4.387   6.779 -0.3214 -0.5195  0.2783
  106OSM    H6F10806   5.871   4.444   6.771  0.1735  0.3249  0.2131
  106OSM    H6G10807   5.953   4.280   6.755 -1.3805  0.0951 -2.1646
  106OSM    C7F10808   6.048   4.453   6.659 -0.3815  0.8207  0.2758
  106OSM    H7F10809   6.153   4.424   6.681 -0.8019 -1.0125  0.0004
  106OSM    H7G10810   6.038   4.562   6.677 -6.0899  0.6643 -0.0531
  106OSM    C8F10811   5.996   4.413   6.515 -0.7259 -0.0638 -0.4017
  106OSM    H8F10812   5.892   4.449   6.502 -0.7958 -0.1793 -0.1804
  106OSM    H8G10813   5.982   4.303   6.528 -0.8350 -0.0043  0.0268
  106OSM    C9F10814   6.086   4.443   6.397  0.3975 -0.6618 -0.5296
  106OSM    H9F10815   6.171   4.373   6.387  1.8026  0.8259  0.4507
  106OSM   C10F10816   6.041   4.502   6.288 -0.1360 -0.1921 -0.4318
  106OSM   H10F10817   6.116   4.526   6.210 -0.2116 -0.5477 -0.6184
  106OSM   C11F10818   5.919   4.584   6.279 -0.0135  0.1773  0.1564
  106OSM   H11F10819   5.907   4.659   6.360 -0.0876 -0.6665  0.9587
  106OSM   H11G10820   5.824   4.526   6.281 -0.9892  1.7399  0.2368
  106OSM   C12F10821   5.908   4.647   6.138 -0.0041  0.5656  0.1364
  106OSM   H12F10822   5.802   4.673   6.114  0.2447 -0.3269 -2.2165
  106OSM   H12G10823   5.926   4.570   6.059 -0.1941  1.2307 -0.5699
  106OSM   C13F10824   5.990   4.772   6.111 -0.4980 -0.2872 -0.8724
  106OSM   H13F10825   6.095   4.744   6.134 -1.0791 -4.3564 -2.3810
  106OSM   H13G10826   5.945   4.855   6.169 -0.8910 -0.4015 -1.0121
  106OSM   C14F10827   5.984   4.818   5.963 -0.9875  0.3276 -0.3282
  106OSM   H14F10828   5.971   4.721   5.910  0.9450  0.3447 -0.9254
  106OSM   H14G10829   6.082   4.860   5.933 -1.3426  1.7160  0.3468
  106OSM   C15F10830   5.872   4.920   5.931 -0.5153 -0.1434 -0.2260
  106OSM   H15F10831   5.896   5.015   5.985 -3.2318  0.5504 -0.0848
  106OSM   H15G10832   5.776   4.887   5.976  0.5662 -0.6845  1.8471
  106OSM   C16F10833   5.870   4.959   5.786 -0.6557  0.6920  0.7294
  106OSM   H16F10834   5.880   4.869   5.721  0.9402  0.6956  0.9377
  106OSM   H16G10835   5.949   5.035   5.768 -1.0927  0.7144 -1.3044
  106OSM   C17F10836   5.747   5.034   5.752 -0.1309  0.2986 -0.5060
  106OSM   H17F10837   5.654   4.976   5.766 -1.5997  2.9122  1.2385
  106OSM   H17G10838   5.747   5.068   5.646  0.6105 -0.6722 -0.8298
  106OSM   C18F10839   5.704   5.150   5.839 -0.5231 -0.3425  0.0694
  106OSM   H18F10840   5.716   5.127   5.947  2.7364 -2.9969 -0.6876
  106OSM   H18G10841   5.597   5.174   5.822 -0.7795 -0.4595  1.4307
  106OSM   H18H10842   5.774   5.235   5.822 -0.4343 -0.2462  0.8823
  107OSM      N10843   3.673   1.566   7.711 -0.1188 -0.1423 -0.9665
  107OSM    C1510844   3.566   1.657   7.655 -0.2200 -0.2405  0.0069
  107OSM   H15A10845   3.490   1.662   7.731 -0.6236 -1.8371 -0.2530
  107OSM   H15B10846   3.523   1.620   7.562  1.1691 -0.1064 -0.7209
  107OSM   H15C10847   3.606   1.755   7.638 -0.4257 -0.5279 -2.5933
  107OSM    C1410848   3.706   1.617   7.844  0.5824  0.1578  0.4061
  107OSM   H14A10849   3.793   1.571   7.889 -0.9795 -2.6161  0.8469
  107OSM   H14B10850   3.619   1.605   7.907  1.5221 -1.9619  1.4165
  107OSM   H14C10851   3.730   1.722   7.844  0.8936  0.3738 -5.3088
  107OSM    C1310852   3.616   1.429   7.729 -0.7569 -0.1033 -0.0545
  107OSM   H13A10853   3.563   1.393   7.641 -1.5651 -1.0031  0.7729
  107OSM   H13B10854   3.542   1.432   7.808  0.6550  0.5398  1.2686
  107OSM   H13C10855   3.688   1.352   7.750  1.6910  1.0714 -3.2803
  107OSM    C1210856   3.802   1.557   7.629  1.0019  0.0344  0.0086
  107OSM   H12A10857   3.784   1.501   7.538 -0.3249  0.2383  0.1264
  107OSM   H12B10858   3.859   1.499   7.700 -0.9322 -0.5446  1.1474
  107OSM    C1110859   3.892   1.677   7.604  0.6110  0.5517  0.1105
  107OSM   H11A10860   3.833   1.770   7.585 -2.9641 -1.9611 -2.4806
  107OSM   H11B10861   3.933   1.663   7.501 -0.8630  1.6059 -0.6722
  107OSM      P10862   4.112   1.622   7.712  0.0320 -0.4130  0.1318
  107OSM    O1310863   4.205   1.707   7.788 -0.0186 -0.0881 -0.0779
  107OSM    O1410864   4.103   1.478   7.760 -0.4793  0.0407  0.5347
  107OSM    O1110865   4.159   1.625   7.562  0.0261 -0.5306  0.8894
  107OSM    O1210866   3.976   1.687   7.711  0.1005 -0.1308  0.5407
  107OSM    C1S10867   4.292   1.604   7.536  0.0562  0.6230 -0.3166
  107OSM    H1S10868   4.341   1.529   7.602 -0.8075 -0.7049 -1.1436
  107OSM    H1T10869   4.345   1.701   7.542 -0.2940  0.7490  1.4631
  107OSM     NF10870   4.445   1.496   7.382 -0.2374 -0.2626 -0.0469
  107OSM    HNF10871   4.504   1.558   7.331 -0.7630  1.1833  1.0333
  107OSM    C2S10872   4.312   1.550   7.393 -0.4295 -0.3061 -0.1708
  107OSM    H2S10873   4.237   1.469   7.384 -1.3957  0.3213  1.6693
  107OSM    C3S10874   4.277   1.646   7.282 -0.4345 -0.6319 -0.1720
  107OSM    H3S10875   4.359   1.721   7.270  2.2960 -3.5493 -1.0442
  107OSM     O310876   4.158   1.717   7.304  0.1727  0.2837 -0.0409
  107OSM    HO310877   4.137   1.689   7.394 -1.8636 -1.8528 -1.0797
  107OSM    C4S10878   4.257   1.578   7.147 -0.4626 -0.0625 -0.8808
  107OSM    H4S10879   4.157   1.536   7.134 -0.6578 -0.9323  2.5328
  107OSM    C5S10880   4.349   1.575   7.047 -0.4454  0.4048 -0.0220
  107OSM    H5S10881   4.447   1.623   7.056 -0.7039  1.1516 -1.0706
  107OSM    C6S10882   4.306   1.516   6.914  0.2423  0.0885  0.6569
  107OSM    H6S10883   4.196   1.502   6.907  0.0930  1.8005 -1.2166
  107OSM    H6T10884   4.351   1.415   6.899  0.7163  0.6250 -1.9881
  107OSM    C7S10885   4.325   1.594   6.783 -0.7242  0.2330 -0.0659
  107OSM    H7S10886   4.304   1.534   6.692 -1.0002  1.3871 -0.7815
  107OSM    H7T10887   4.434   1.614   6.769 -0.7758  0.0166 -0.8306
  107OSM    C8S10888   4.243   1.723   6.784  0.0891 -0.3552  0.3346
  107OSM    H8S10889   4.291   1.798   6.851 -0.8552 -0.3728  1.0469
  107OSM    H8T10890   4.147   1.689   6.828 -0.5747 -0.1074 -0.8918
  107OSM    C9S10891   4.225   1.788   6.643 -0.2063  0.0806  0.4213
  107OSM    H9S10892   4.171   1.884   6.649 -0.2227  0.0802  0.2725
  107OSM    H9T10893   4.159   1.731   6.574  0.1157 -0.9430  0.9331
  107OSM   C10S10894   4.361   1.817   6.575  0.2187 -0.3133 -0.3377
  107OSM   H10S10895   4.410   1.724   6.538  2.0717  0.2949  0.4753
  107OSM   H10T10896   4.426   1.860   6.654  1.0343 -0.7269 -0.7758
  107OSM   C11S10897   4.353   1.901   6.441 -0.6170  0.2602 -0.3890
  107OSM   H11S10898   4.331   2.004   6.478 -0.6738 -0.4583  1.6988
  107OSM   H11T10899   4.278   1.859   6.371 -0.4702 -2.6418  1.0929
  107OSM   C12S10900   4.489   1.909   6.366  0.2145  0.1807  0.5484
  107OSM   H12S10901   4.470   1.973   6.277 -1.0244 -1.7146 -0.6227
  107OSM   H12T10902   4.501   1.810   6.318  1.6164  0.0745  1.0681
  107OSM   C13S10903   4.619   1.937   6.448  0.3064  0.1273  0.3470
  107OSM   H13S10904   4.696   1.874   6.400 -0.3659 -1.1649  0.9140
  107OSM   H13T10905   4.608   1.893   6.549  1.8217  0.6580  0.7568
  107OSM   C14S10906   4.672   2.082   6.456  0.5945 -0.3160 -0.9743
  107OSM   H14S10907   4.762   2.073   6.520  0.0805  1.2325  0.0327
  107OSM   H14T10908   4.595   2.150   6.500  1.0730 -0.1527 -0.3690
  107OSM   C15S10909   4.699   2.154   6.332  0.2151 -0.7660  0.0398
  107OSM   H15S10910   4.700   2.263   6.349  0.4041 -0.5418 -1.2681
  107OSM   H15T10911   4.608   2.146   6.268 -0.7391 -0.0700  1.2658
  107OSM   C16S10912   4.812   2.116   6.252  0.7895 -0.5539  0.0267
  107OSM   H16S10913   4.811   2.009   6.222  1.9528 -0.9725  1.3457
  107OSM   H16T10914   4.901   2.116   6.319  0.2562  0.2907  0.7621
  107OSM   C17S10915   4.823   2.197   6.126  0.3588  0.5032 -0.1062
  107OSM   H17S10916   4.928   2.186   6.090  0.1541 -0.6285 -0.4114
  107OSM   H17T10917   4.818   2.303   6.156 -0.5099  0.6181 -0.6549
  107OSM   C18S10918   4.732   2.148   6.012  0.3540  0.0259 -0.1369
  107OSM   H18S10919   4.771   2.169   5.910 -2.1323 -0.3503 -1.2384
  107OSM   H18T10920   4.627   2.180   6.031  0.3618  0.2648 -0.4747
  107OSM   H18U10921   4.722   2.038   6.015  0.3152 -0.0622 -2.2136
  107OSM    C1F10922   4.500   1.387   7.451  0.5154  0.2003  0.7474
  107OSM     OF10923   4.426   1.312   7.513 -0.5562 -0.0407 -0.1273
  107OSM    C2F10924   4.643   1.357   7.437  0.2232  0.6768 -0.3586
  107OSM    H2F10925   4.671   1.262   7.488  0.4522  0.8921 -0.0760
  107OSM    H2G10926   4.689   1.446   7.486  0.9874  0.0285  0.1285
  107OSM    C3F10927   4.678   1.359   7.292  0.0175 -0.3658  0.1707
  107OSM    H3F10928   4.789   1.358   7.282  0.2149 -1.0887  2.0068
  107OSM    H3G10929   4.646   1.447   7.234 -1.6341 -1.8123 -1.2178
  107OSM    C4F10930   4.617   1.231   7.219  0.0096  0.1259  0.8070
  107OSM    H4F10931   4.512   1.257   7.191  0.4456 -1.4589 -2.7925
  107OSM    H4G10932   4.616   1.153   7.299  0.5692  0.5298  1.2115
  107OSM    C5F10933   4.692   1.185   7.092  0.3292  0.5643 -0.0288
  107OSM    H5F10934   4.641   1.095   7.052  0.3017  1.5322 -2.3686
  107OSM    H5G10935   4.794   1.153   7.122  0.2042  0.0622 -0.1314
  107OSM    C6F10936   4.694   1.293   6.986 -0.0766 -0.2808  0.0636
  107OSM    H6F10937   4.746   1.382   7.029  1.8391 -1.7757  1.0207
  107OSM    H6G10938   4.586   1.317   6.974 -0.0492  0.0233  0.3822
  107OSM    C7F10939   4.753   1.251   6.847  0.2175 -0.4726 -0.3519
  107OSM    H7F10940   4.706   1.153   6.825  1.0282 -0.8930 -0.2633
  107OSM    H7G10941   4.861   1.232   6.865  0.1322 -1.5725 -0.9265
  107OSM    C8F10942   4.732   1.351   6.741  0.3691  0.8579  0.5228
  107OSM    H8F10943   4.805   1.432   6.762  0.4810  0.6397  0.9775
  107OSM    H8G10944   4.633   1.402   6.746 -1.2740 -2.0524 -0.0198
  107OSM    C9F10945   4.755   1.298   6.599  0.0515  0.0528  0.3494
  107OSM    H9F10946   4.727   1.195   6.573  1.4601 -0.0378 -0.9707
  107OSM   C10F10947   4.820   1.361   6.501  0.2312  0.5651 -0.6184
  107OSM   H10F10948   4.813   1.305   6.406  1.6894 -0.4374 -0.1791
  107OSM   C11F10949   4.869   1.506   6.504 -0.5457  0.3160  0.0915
  107OSM   H11F10950   4.976   1.518   6.477 -1.6170  2.0471 -4.2945
  107OSM   H11G10951   4.852   1.556   6.601  1.0694  1.2627 -0.0765
  107OSM   C12F10952   4.807   1.592   6.397  0.1357 -0.6658  0.0515
  107OSM   H12F10953   4.826   1.701   6.405  0.8440 -0.7157 -0.8471
  107OSM   H12G10954   4.697   1.585   6.415 -0.1116  0.1599 -1.0268
  107OSM   C13F10955   4.843   1.554   6.253  0.2964 -0.2391 -0.6540
  107OSM   H13F10956   4.778   1.469   6.222 -2.8929  1.1844  1.5363
  107OSM   H13G10957   4.953   1.544   6.255  0.2089 -1.2111 -0.2859
  107OSM   C14F10958   4.792   1.662   6.156  0.4612 -0.6541  0.3580
  107OSM   H14F10959   4.808   1.767   6.189 -0.9746 -0.7750  1.5471
  107OSM   H14G10960   4.682   1.654   6.158  0.3286  0.8870  0.2658
  107OSM   C15F10961   4.837   1.636   6.010 -0.1406  0.4328 -0.2489
  107OSM   H15F10962   4.753   1.677   5.950 -2.2347 -1.5189  1.1787
  107OSM   H15G10963   4.840   1.526   5.995  2.0634  0.6570 -1.8651
  107OSM   C16F10964   4.967   1.701   5.963 -0.0505 -0.0997  0.2216
  107OSM   H16F10965   5.063   1.661   6.003  1.3624  0.5648 -2.2532
  107OSM   H16G10966   4.971   1.808   5.994 -1.7630 -0.7961  3.2197
  107OSM   C17F10967   4.982   1.676   5.808  0.3068 -0.3646 -0.0365
  107OSM   H17F10968   4.898   1.726   5.753  1.9810  3.8397  0.8163
  107OSM   H17G10969   4.970   1.570   5.779 -0.2285 -0.2707 -0.1831
  107OSM   C18F10970   5.104   1.743   5.755 -0.0732  0.0889  0.4331
  107OSM   H18F10971   5.103   1.758   5.645 -0.0410  0.0442  0.4263
  107OSM   H18G10972   5.196   1.689   5.787  0.1250 -0.1567 -0.5234
  107OSM   H18H10973   5.098   1.843   5.801 -1.6981  0.4066 -0.3763
  108OSM      N10974   2.400   4.337   8.323  0.1117 -1.0393  0.2357
  108OSM    C1510975   2.544   4.373   8.331 -0.5897 -0.3470 -0.3238
  108OSM   H15A10976   2.568   4.453   8.398 -0.8873  0.5357 -1.2409
  108OSM   H15B10977   2.564   4.416   8.234 -2.4708 -3.2641 -2.1789
  108OSM   H15C10978   2.605   4.285   8.339 -1.3824 -0.9881 -1.0356
  108OSM    C1410979   2.337   4.338   8.456  0.2149 -0.8922 -0.4372
  108OSM   H14A10980   2.239   4.293   8.448  0.5419 -1.5896 -0.6197
  108OSM   H14B10981   2.333   4.434   8.504  1.5720 -0.1543 -1.7377
  108OSM   H14C10982   2.386   4.265   8.519  1.7416 -0.0877 -0.6549
  108OSM    C1310983   2.320   4.441   8.243 -0.5935 -0.3301 -0.2078
  108OSM   H13A10984   2.215   4.426   8.263 -0.3003 -2.2585  0.0211
  108OSM   H13B10985   2.340   4.422   8.138 -0.7019 -1.7140  0.0008
  108OSM   H13C10986   2.355   4.535   8.283 -1.2675 -0.6163  1.1331
  108OSM    C1210987   2.386   4.197   8.262  0.4743 -0.4638 -0.1458
  108OSM   H12A10988   2.282   4.178   8.283  0.7954 -0.8183  1.1845
  108OSM   H12B10989   2.445   4.127   8.318 -1.3958 -2.8993 -1.0363
  108OSM    C1110990   2.422   4.176   8.114  0.9855  0.4315 -0.2126
  108OSM   H11A10991   2.426   4.066   8.101 -0.6075  0.2096  0.8330
  108OSM   H11B10992   2.514   4.230   8.083  1.2056 -0.0732 -0.4550
  108OSM      P10993   2.166   4.183   8.018  0.1974 -0.0675  0.2387
  108OSM    O1310994   2.139   4.088   8.128  0.2845 -0.1531  0.6835
  108OSM    O1410995   2.082   4.300   8.003  0.4941 -0.3148  0.1949
  108OSM    O1110996   2.170   4.106   7.872 -0.6780 -0.1016  0.0567
  108OSM    O1210997   2.314   4.231   8.038 -0.4863  0.0699 -0.4640
  108OSM    C1S10998   2.218   3.969   7.860 -0.0098  0.4647  0.2536
  108OSM    H1S10999   2.149   3.897   7.907 -0.8513  2.3822  2.1250
  108OSM    H1T11000   2.315   3.964   7.913  1.1272  3.3802 -1.3218
  108OSM     NF11001   2.253   3.787   7.695  0.1050  0.3426 -0.7408
  108OSM    HNF11002   2.345   3.751   7.683  0.8355  1.4544  1.1899
  108OSM    C2S11003   2.245   3.928   7.712 -0.1460 -1.1935  1.0196
  108OSM    H2S11004   2.156   3.957   7.651  1.0475  0.2699 -0.0894
  108OSM    C3S11005   2.356   4.010   7.633 -0.4757 -0.1235  1.0458
  108OSM    H3S11006   2.451   3.991   7.687 -1.2692 -1.0271  2.1607
  108OSM     O311007   2.343   4.154   7.634 -0.3027 -0.1547 -0.1336
  108OSM    HO311008   2.272   4.163   7.698 -1.6961 -3.9581 -0.8584
  108OSM    C4S11009   2.388   3.961   7.487 -0.4741  0.2844  0.1536
  108OSM    H4S11010   2.477   3.896   7.485 -1.1206 -0.6182  0.2782
  108OSM    C5S11011   2.336   4.009   7.374 -0.1353  0.2551  0.0603
  108OSM    H5S11012   2.270   4.097   7.380  1.1700  1.2478  0.2262
  108OSM    C6S11013   2.371   3.955   7.235 -0.7854 -0.1858 -0.6803
  108OSM    H6S11014   2.278   3.912   7.193 -0.9435 -1.7157  1.0935
  108OSM    H6T11015   2.431   3.863   7.247 -0.3178 -0.0661 -2.0112
  108OSM    C7S11016   2.449   4.056   7.146  0.5409 -0.0146  0.2069
  108OSM    H7S11017   2.553   4.047   7.184  0.5007  1.3790  0.6949
  108OSM    H7T11018   2.406   4.156   7.167  0.9203  0.3782 -0.8332
  108OSM    C8S11019   2.434   4.022   6.999 -0.4187  1.1124 -0.0433
  108OSM    H8S11020   2.398   3.917   6.986  1.1983  0.7550 -1.9954
  108OSM    H8T11021   2.535   4.019   6.953 -0.2770 -0.5932  0.2920
  108OSM    C9S11022   2.340   4.118   6.915 -0.6232  0.2430  0.6176
  108OSM    H9S11023   2.395   4.214   6.906 -0.6713  0.1401 -0.9187
  108OSM    H9T11024   2.238   4.136   6.957 -1.4377 -0.3861 -0.9995
  108OSM   C10S11025   2.321   4.070   6.771 -0.1579 -0.6524  0.3135
  108OSM   H10S11026   2.420   4.076   6.722 -0.5918 -1.8395 -0.7647
  108OSM   H10T11027   2.256   4.140   6.713  1.8009  2.2202  1.4115
  108OSM   C11S11028   2.260   3.933   6.745 -0.1251  0.7864 -0.0495
  108OSM   H11S11029   2.152   3.933   6.773 -0.4164 -3.0685 -0.5694
  108OSM   H11T11030   2.308   3.867   6.820  2.0701  3.6846  1.2683
  108OSM   C12S11031   2.275   3.882   6.601  0.0957  0.0428  0.5399
  108OSM   H12S11032   2.371   3.926   6.566  0.8256 -1.0022  1.1885
  108OSM   H12T11033   2.198   3.933   6.538  1.7207 -1.2236 -2.6565
  108OSM   C13S11034   2.277   3.722   6.594  0.3669  0.1792  0.7636
  108OSM   H13S11035   2.341   3.673   6.671  1.9737  1.9523  0.6181
  108OSM   H13T11036   2.313   3.689   6.494  1.7920  1.4950  0.8090
  108OSM   C14S11037   2.128   3.690   6.618 -0.6521  0.0560 -0.4758
  108OSM   H14S11038   2.075   3.744   6.536 -0.5834 -0.9655 -1.2201
  108OSM   H14T11039   2.100   3.735   6.715 -2.0938  0.0136 -0.8525
  108OSM   C15S11040   2.100   3.539   6.601 -1.2382 -0.5987  0.2802
  108OSM   H15S11041   1.991   3.532   6.621 -1.1868 -0.2189  0.7106
  108OSM   H15T11042   2.154   3.477   6.675  1.9301 -0.0079 -1.3907
  108OSM   C16S11043   2.144   3.488   6.459 -0.0734  0.9661  0.0211
  108OSM   H16S11044   2.253   3.470   6.467 -0.4428 -1.6264  0.1917
  108OSM   H16T11045   2.130   3.579   6.398  1.9540 -0.1423 -2.2599
  108OSM   C17S11046   2.078   3.360   6.399 -0.3191 -0.5973  0.7013
  108OSM   H17S11047   1.967   3.362   6.406 -0.6374  0.7208 -2.7228
  108OSM   H17T11048   2.095   3.278   6.472 -1.2057  0.3357  1.9985
  108OSM   C18S11049   2.121   3.320   6.257 -0.5012 -0.2487  0.3553
  108OSM   H18S11050   2.068   3.387   6.186 -1.8982  1.5891  2.9576
  108OSM   H18T11051   2.080   3.218   6.242  0.5014 -1.0333  2.5224
  108OSM   H18U11052   2.232   3.321   6.246 -0.6170  0.6241 -0.9542
  108OSM    C1F11053   2.155   3.705   7.729 -0.0599  0.9449  0.7128
  108OSM     OF11054   2.042   3.753   7.759  0.9715 -0.0553  0.0403
  108OSM    C2F11055   2.187   3.552   7.716 -0.5212 -0.4433  0.0334
  108OSM    H2F11056   2.194   3.508   7.817  1.3324 -1.1602 -0.3774
  108OSM    H2G11057   2.288   3.544   7.671 -0.3519  1.1866  0.0620
  108OSM    C3F11058   2.080   3.480   7.628 -0.2306 -0.4020 -0.2723
  108OSM    H3F11059   1.975   3.495   7.663 -0.4529 -0.7797 -0.7722
  108OSM    H3G11060   2.103   3.372   7.634  0.9136 -0.1449  0.4472
  108OSM    C4F11061   2.067   3.540   7.489  0.6337  0.4185  0.0121
  108OSM    H4F11062   2.024   3.642   7.484 -0.8243 -0.2326 -1.7923
  108OSM    H4G11063   1.989   3.474   7.445 -0.8248  2.1266 -0.1211
  108OSM    C5F11064   2.195   3.525   7.410  0.5450 -0.0848  0.3290
  108OSM    H5F11065   2.237   3.424   7.428 -0.4653 -0.5413  0.1784
  108OSM    H5G11066   2.274   3.595   7.445 -0.4918  0.8963  0.7946
  108OSM    C6F11067   2.166   3.545   7.259  0.0453  0.4069 -0.8183
  108OSM    H6F11068   2.096   3.628   7.234  1.4912  1.2232 -2.4021
  108OSM    H6G11069   2.112   3.454   7.225 -0.4910 -0.0530  1.1270
  108OSM    C7F11070   2.299   3.571   7.185 -0.1013 -0.1763 -0.2619
  108OSM    H7F11071   2.370   3.491   7.219  1.0707  1.1851  0.6095
  108OSM    H7G11072   2.332   3.667   7.229 -0.4488  0.9914 -2.4412
  108OSM    C8F11073   2.295   3.563   7.028  0.0533  0.3868 -0.0840
  108OSM    H8F11074   2.392   3.608   6.997 -1.4483  3.8623 -0.1311
  108OSM    H8G11075   2.208   3.620   6.991 -0.8783 -1.6313 -1.1447
  108OSM    C9F11076   2.276   3.417   6.993 -0.4510  0.3930  0.5784
  108OSM    H9F11077   2.182   3.376   7.033 -0.4405 -0.1130  0.1000
  108OSM   C10F11078   2.354   3.339   6.908 -0.1190  0.2131 -0.7796
  108OSM   H10F11079   2.321   3.241   6.870  0.3945  0.6195 -2.3295
  108OSM   C11F11080   2.480   3.374   6.839  0.7272 -0.2893 -0.0037
  108OSM   H11F11081   2.558   3.312   6.888 -0.1503 -1.6669 -0.3126
  108OSM   H11G11082   2.514   3.478   6.859  0.9326  0.1835 -2.4462
  108OSM   C12F11083   2.465   3.349   6.692  0.4464 -0.0736 -0.1490
  108OSM   H12F11084   2.382   3.410   6.652  0.8179  0.7585  0.3310
  108OSM   H12G11085   2.445   3.240   6.681 -2.6819  0.4347 -0.1632
  108OSM   C13F11086   2.585   3.378   6.604  0.1917 -0.4642  0.7588
  108OSM   H13F11087   2.673   3.324   6.645  0.2325 -0.8400  0.1827
  108OSM   H13G11088   2.605   3.486   6.618 -1.5563 -0.2325  1.7002
  108OSM   C14F11089   2.558   3.353   6.456  0.7374  0.3469  0.5733
  108OSM   H14F11090   2.475   3.424   6.436  0.6079  0.6404  2.0251
  108OSM   H14G11091   2.516   3.251   6.457 -0.4745  0.7453  4.1137
  108OSM   C15F11092   2.682   3.379   6.378 -0.4040 -0.5771  0.0425
  108OSM   H15F11093   2.748   3.290   6.376 -0.8430 -0.8890 -0.7575
  108OSM   H15G11094   2.740   3.457   6.432  0.4143 -2.3674  1.8739
  108OSM   C16F11095   2.664   3.420   6.232 -0.3393  0.5846 -0.5842
  108OSM   H16F11096   2.597   3.506   6.209 -0.7474  0.1866 -0.9108
  108OSM   H16G11097   2.608   3.339   6.180  2.2154 -0.1962 -2.3174
  108OSM   C17F11098   2.808   3.432   6.170 -0.2299 -0.0844 -0.3707
  108OSM   H17F11099   2.890   3.423   6.245 -2.7406  1.2919  2.7651
  108OSM   H17G11100   2.824   3.538   6.142 -0.3385 -0.1811 -0.7973
  108OSM   C18F11101   2.822   3.332   6.050  0.6644  0.1808 -0.3617
  108OSM   H18F11102   2.741   3.337   5.973  1.8570 -2.0374 -1.8686
  108OSM   H18G11103   2.803   3.234   6.099 -3.6641  1.2981  0.6143
  108OSM   H18H11104   2.919   3.338   5.998  0.9832 -2.6091 -0.2592
  109OSM      N11105   3.271   5.503   7.858  0.0847  0.5834  0.1411
  109OSM    C1511106   3.340   5.524   7.728  0.4154  0.6943  0.0527
  109OSM   H15A11107   3.301   5.456   7.653  0.7391  0.7033 -0.1255
  109OSM   H15B11108   3.447   5.512   7.734  0.2454 -0.0211  2.8413
  109OSM   H15C11109   3.315   5.626   7.703  1.4466  0.9762  0.1008
  109OSM    C1411110   3.317   5.600   7.956 -0.5343  0.5099 -0.1415
  109OSM   H14A11111   3.235   5.612   8.025 -0.8985  0.1898 -0.5118
  109OSM   H14B11112   3.328   5.697   7.910 -0.5757  0.0222 -1.2037
  109OSM   H14C11113   3.411   5.590   8.009  0.7952  1.3963 -2.1976
  109OSM    C1311114   3.130   5.535   7.833  0.4735  0.4713 -0.4940
  109OSM   H13A11115   3.084   5.540   7.930  2.7091  1.1081  0.6035
  109OSM   H13B11116   3.087   5.461   7.768 -1.5765  1.2955 -0.1608
  109OSM   H13C11117   3.126   5.627   7.776  0.5496  0.0870 -1.1333
  109OSM    C1211118   3.290   5.360   7.899 -0.0318  0.2681  0.5803
  109OSM   H12A11119   3.217   5.342   7.977 -0.5002  1.3221  0.4075
  109OSM   H12B11120   3.388   5.355   7.944 -0.1266  0.6334  0.8306
  109OSM    C1111121   3.271   5.240   7.798 -0.1420 -0.4113 -0.0318
  109OSM   H11A11122   3.314   5.156   7.856  0.0874  0.3769  0.9664
  109OSM   H11B11123   3.335   5.258   7.708  0.0608 -0.0818  0.1756
  109OSM      P11124   3.020   5.154   7.832 -0.1562 -0.1640  0.1227
  109OSM    O1311125   3.055   5.196   7.971 -0.4556  0.3229 -0.3845
  109OSM    O1411126   2.886   5.194   7.784 -0.1017  0.0714  0.6475
  109OSM    O1111127   3.046   4.994   7.834  0.3621  0.3516 -0.7720
  109OSM    O1211128   3.133   5.226   7.749 -0.3187 -0.3881 -0.4935
  109OSM    C1S11129   3.030   4.932   7.700 -0.6337 -0.2002  0.3195
  109OSM    H1S11130   2.952   4.977   7.636 -1.7076 -1.6274  0.5720
  109OSM    H1T11131   2.996   4.827   7.712 -1.3485  0.1920  1.9653
  109OSM     NF11132   3.148   4.897   7.470  0.3353 -0.1192  0.2483
  109OSM    HNF11133   3.166   4.809   7.426 -0.1766  0.4176 -1.0861
  109OSM    C2S11134   3.169   4.929   7.609  0.6751 -0.3822 -0.0485
  109OSM    H2S11135   3.211   5.032   7.614  2.7602 -1.1059 -1.3909
  109OSM    C3S11136   3.276   4.846   7.674 -0.4437 -0.1407 -1.0170
  109OSM    H3S11137   3.239   4.742   7.692  2.7481 -0.9855  1.4219
  109OSM     O311138   3.313   4.886   7.809 -0.2250  0.2551  0.2182
  109OSM    HO311139   3.233   4.935   7.829 -1.2644 -1.1469 -0.3877
  109OSM    C4S11140   3.404   4.835   7.590 -0.6409 -0.0169  1.0043
  109OSM    H4S11141   3.469   4.921   7.571  0.4570 -1.0642 -0.1300
  109OSM    C5S11142   3.436   4.728   7.519  0.3525  0.0221  0.2444
  109OSM    H5S11143   3.381   4.634   7.534  0.5066 -0.1839 -0.4268
  109OSM    C6S11144   3.541   4.712   7.416 -0.4938 -0.2698  0.0954
  109OSM    H6S11145   3.615   4.637   7.450 -0.4042 -0.7069 -1.0324
  109OSM    H6T11146   3.603   4.803   7.399 -0.0503 -0.5432  0.2329
  109OSM    C7S11147   3.489   4.679   7.277 -0.0636 -0.6796  0.2499
  109OSM    H7S11148   3.424   4.588   7.283 -1.1928  0.0201 -0.8367
  109OSM    H7T11149   3.569   4.653   7.204  1.3034  0.4649  1.2962
  109OSM    C8S11150   3.397   4.781   7.208 -0.4348  0.2610 -0.7769
  109OSM    H8S11151   3.441   4.882   7.219 -0.6170  0.5567 -2.3764
  109OSM    H8T11152   3.296   4.785   7.254  0.3226 -1.3764  1.1698
  109OSM    C9S11153   3.387   4.755   7.056 -0.1678  0.1179 -0.1591
  109OSM    H9S11154   3.490   4.737   7.017 -0.2397  0.0562 -0.3212
  109OSM    H9T11155   3.340   4.848   7.017 -3.1508 -1.3905 -0.4390
  109OSM   C10S11156   3.295   4.636   7.019  0.1697  0.0064  0.0406
  109OSM   H10S11157   3.195   4.644   7.067 -0.7297 -1.3880 -1.4851
  109OSM   H10T11158   3.341   4.547   7.068  0.0748  0.2518  0.5812
  109OSM   C11S11159   3.303   4.619   6.871 -0.2818  0.1990 -0.3375
  109OSM   H11S11160   3.402   4.597   6.826  0.6726 -0.7216  2.0478
  109OSM   H11T11161   3.266   4.707   6.815  1.1221  0.3391 -1.0869
  109OSM   C12S11162   3.204   4.505   6.817  0.2537 -0.5362 -0.3174
  109OSM   H12S11163   3.104   4.504   6.865  0.1540 -0.0093 -0.5067
  109OSM   H12T11164   3.244   4.401   6.820 -3.1164 -1.9751 -0.3470
  109OSM   C13S11165   3.175   4.528   6.667 -0.2066  0.1235  0.7904
  109OSM   H13S11166   3.136   4.632   6.653  2.4021  1.0395 -0.3273
  109OSM   H13T11167   3.110   4.449   6.624  1.2288 -0.6593 -0.0198
  109OSM   C14S11168   3.304   4.521   6.575 -0.3088 -0.1574  0.2336
  109OSM   H14S11169   3.356   4.425   6.598  0.3204 -0.6343 -2.7844
  109OSM   H14T11170   3.382   4.597   6.594  0.8696 -0.9086 -1.3547
  109OSM   C15S11171   3.279   4.514   6.424 -0.4693  0.6077  0.2218
  109OSM   H15S11172   3.202   4.439   6.397  0.2014 -0.1058  0.2449
  109OSM   H15T11173   3.366   4.454   6.387 -2.7440 -1.9166 -1.4399
  109OSM   C16S11174   3.275   4.649   6.357 -0.1984  0.2191  0.0056
  109OSM   H16S11175   3.378   4.692   6.357 -0.2327  0.3118 -0.6374
  109OSM   H16T11176   3.222   4.724   6.420 -1.8647 -0.0066 -1.0774
  109OSM   C17S11177   3.206   4.648   6.217  0.5950  0.0216  0.0839
  109OSM   H17S11178   3.187   4.751   6.179  0.4250  0.1496  0.5102
  109OSM   H17T11179   3.100   4.614   6.226  0.7162 -0.1744  0.8622
  109OSM   C18S11180   3.283   4.565   6.117 -0.0105 -0.2064  0.6930
  109OSM   H18S11181   3.241   4.569   6.014 -0.1477 -0.0731  0.7542
  109OSM   H18T11182   3.286   4.460   6.155  0.4356 -0.4745 -0.0637
  109OSM   H18U11183   3.389   4.598   6.120  0.0544 -0.3966  0.5313
  109OSM    C1F11184   3.073   4.971   7.383  0.1138  0.8559 -0.1472
  109OSM     OF11185   3.031   5.076   7.416  0.3565 -0.0954  0.1184
  109OSM    C2F11186   3.040   4.904   7.249 -0.2926 -0.4631 -0.0912
  109OSM    H2F11187   3.037   4.793   7.258  0.2326 -0.5126 -0.4719
  109OSM    H2G11188   3.125   4.914   7.178 -0.7565 -0.6042 -0.6781
  109OSM    C3F11189   2.912   4.950   7.170 -1.1771  0.5011  0.0283
  109OSM    H3F11190   2.902   5.060   7.187 -0.8627  0.4074  0.8970
  109OSM    H3G11191   2.824   4.899   7.215 -1.3953  1.3014  0.5387
  109OSM    C4F11192   2.918   4.913   7.028  0.7708  0.0476 -0.3951
  109OSM    H4F11193   2.927   4.802   7.026 -1.8677 -0.2150 -0.4090
  109OSM    H4G11194   3.006   4.961   6.980  0.2030  1.5271 -0.0309
  109OSM    C5F11195   2.792   4.974   6.957  0.1035  0.7520  0.4958
  109OSM    H5F11196   2.764   5.078   6.984  1.4813  1.1549  0.4560
  109OSM    H5G11197   2.711   4.903   6.985 -1.0161  1.9671  0.4478
  109OSM    C6F11198   2.806   4.974   6.798  0.6078  0.1913 -0.1900
  109OSM    H6F11199   2.891   5.039   6.769 -0.3692  0.4584 -2.6875
  109OSM    H6G11200   2.718   5.023   6.750  0.2068  1.2397  1.5499
  109OSM    C7F11201   2.820   4.831   6.747 -0.0272 -0.5026 -0.8987
  109OSM    H7F11202   2.721   4.780   6.746 -1.0931  1.3917  0.9072
  109OSM    H7G11203   2.886   4.774   6.816 -0.6889 -3.6022 -2.6123
  109OSM    C8F11204   2.861   4.833   6.601 -0.0511 -0.7434  0.3773
  109OSM    H8F11205   2.778   4.871   6.538 -0.6601 -0.9147  1.0630
  109OSM    H8G11206   2.869   4.727   6.569 -1.1030  0.1847 -3.3794
  109OSM    C9F11207   2.989   4.896   6.560  0.1200 -0.0540  0.2410
  109OSM    H9F11208   3.075   4.860   6.618  0.4382  0.6372  0.2008
  109OSM   C10F11209   3.002   4.982   6.458 -0.2068 -1.2422  0.0988
  109OSM   H10F11210   3.097   5.032   6.437 -1.2687  1.3963  1.1401
  109OSM   C11F11211   2.898   5.035   6.362 -0.4135  0.3226 -0.6470
  109OSM   H11F11212   2.900   5.146   6.367  1.3295  0.3309 -0.8679
  109OSM   H11G11213   2.795   5.014   6.398 -1.1941 -1.3586 -3.5139
  109OSM   C12F11214   2.902   4.989   6.215 -0.6283 -1.3843  0.3498
  109OSM   H12F11215   3.003   5.004   6.173 -0.9025  1.4932  0.5091
  109OSM   H12G11216   2.837   5.065   6.166  0.6822  0.4294  1.3156
  109OSM   C13F11217   2.827   4.853   6.186 -0.0367 -0.0298  0.0833
  109OSM   H13F11218   2.737   4.839   6.248  0.1984  1.1593  0.7252
  109OSM   H13G11219   2.900   4.776   6.218 -1.9227 -1.8055  0.2641
  109OSM   C14F11220   2.788   4.835   6.039 -0.0981 -0.0327  0.4781
  109OSM   H14F11221   2.682   4.867   6.022 -0.8793 -2.0010  1.4134
  109OSM   H14G11222   2.793   4.726   6.019  1.2505 -0.3060  2.1300
  109OSM   C15F11223   2.884   4.904   5.934  0.7277  0.6945 -0.3468
  109OSM   H15F11224   2.982   4.856   5.952 -0.1648 -2.3815 -2.8684
  109OSM   H15G11225   2.892   5.015   5.946 -0.6114  0.6456  1.2172
  109OSM   C16F11226   2.849   4.875   5.787  0.2972 -0.9380  0.3693
  109OSM   H16F11227   2.767   4.941   5.751 -0.9737 -1.2506  2.5290
  109OSM   H16G11228   2.813   4.773   5.763  0.3918 -0.9547  0.2967
  109OSM   C17F11229   2.976   4.911   5.702  0.5567 -0.7769  0.5922
  109OSM   H17F11230   2.948   4.892   5.596  1.1794  0.7805  0.1215
  109OSM   H17G11231   3.055   4.843   5.740  0.2115 -1.0891  0.7655
  109OSM   C18F11232   3.022   5.057   5.716 -0.3402  0.3566  0.5873
  109OSM   H18F11233   2.933   5.122   5.699  0.1549  1.1187  0.8591
  109OSM   H18G11234   3.089   5.082   5.632 -1.1125  0.0147 -0.1429
  109OSM   H18H11235   3.074   5.083   5.811 -1.2238  1.5347  0.7723
  110OSM      N11236   5.701   1.667   7.982  0.8121 -0.7850 -0.1398
  110OSM    C1511237   5.777   1.639   7.855 -0.2187  0.3007 -0.1153
  110OSM   H15A11238   5.877   1.609   7.882 -0.1941  1.1884  0.8683
  110OSM   H15B11239   5.781   1.732   7.800 -1.9243  0.4882  0.0360
  110OSM   H15C11240   5.717   1.563   7.807  0.3032 -0.6313  0.6831
  110OSM    C1411241   5.689   1.543   8.064  0.0885  0.0624  0.0803
  110OSM   H14A11242   5.784   1.518   8.110 -0.7196 -0.7766  1.3765
  110OSM   H14B11243   5.656   1.455   8.010 -0.3637 -0.8840  1.8003
  110OSM   H14C11244   5.614   1.562   8.140 -1.4036 -1.4630 -0.9324
  110OSM    C1311245   5.777   1.758   8.072 -0.1418 -0.1185  0.2278
  110OSM   H13A11246   5.866   1.707   8.105  0.6632  1.6897  1.0115
  110OSM   H13B11247   5.725   1.784   8.163 -0.1913 -1.6500  0.6558
  110OSM   H13C11248   5.811   1.840   8.011 -0.1669 -0.3202 -0.0599
  110OSM    C1211249   5.564   1.721   7.951 -0.3058 -1.2305 -0.3941
  110OSM   H12A11250   5.578   1.798   7.876 -1.6428 -0.8705 -0.2958
  110OSM   H12B11251   5.524   1.765   8.041  1.3502 -1.2517  0.3945
  110OSM    C1111252   5.459   1.623   7.899  0.2120 -0.0804 -0.2393
  110OSM   H11A11253   5.367   1.678   7.872  0.2394  0.6628  1.0678
  110OSM   H11B11254   5.439   1.553   7.983 -0.5062  2.2971  1.7084
  110OSM      P11255   5.461   1.402   7.758 -0.0093 -0.0857  0.0821
  110OSM    O1311256   5.527   1.311   7.858  0.4953  0.8198  0.5438
  110OSM    O1411257   5.313   1.402   7.756 -0.4685 -0.1886 -0.0043
  110OSM    O1111258   5.510   1.365   7.618  0.0309 -0.0106  0.1396
  110OSM    O1211259   5.512   1.550   7.783  0.3652 -0.4974  0.7334
  110OSM    C1S11260   5.646   1.391   7.570 -0.3068  0.0256 -0.0156
  110OSM    H1S11261   5.713   1.310   7.606 -0.7883  0.5222  2.2042
  110OSM    H1T11262   5.687   1.486   7.610  0.9295 -0.4785 -0.0390
  110OSM     NF11263   5.786   1.408   7.357 -0.3218  0.0603  0.2429
  110OSM    HNF11264   5.836   1.484   7.315  2.4421 -2.1579 -0.8149
  110OSM    C2S11265   5.646   1.410   7.408 -0.1863 -0.2515 -0.0263
  110OSM    H2S11266   5.585   1.331   7.360 -1.6753 -0.5248  2.1818
  110OSM    C3S11267   5.573   1.544   7.364 -0.0612  1.2301 -0.6021
  110OSM    H3S11268   5.644   1.620   7.403  0.2969 -0.6130  2.6742
  110OSM     O311269   5.446   1.559   7.429  0.0553 -0.8522  0.0403
  110OSM    HO311270   5.432   1.476   7.474 -0.7954 -1.8072 -1.8630
  110OSM    C4S11271   5.577   1.545   7.212  0.3408  0.5081  0.6620
  110OSM    H4S11272   5.650   1.617   7.172 -0.0971  1.2863  1.2124
  110OSM    C5S11273   5.500   1.468   7.134 -0.3830 -0.1047 -0.4086
  110OSM    H5S11274   5.425   1.398   7.174  0.8804 -0.5886  1.2402
  110OSM    C6S11275   5.501   1.478   6.982  0.1321  0.7161 -0.8973
  110OSM    H6S11276   5.521   1.580   6.943  1.2420  0.6149 -0.6374
  110OSM    H6T11277   5.408   1.443   6.933  0.0436 -2.7626  1.3948
  110OSM    C7S11278   5.602   1.392   6.917  0.0174  0.5612  0.6113
  110OSM    H7S11279   5.585   1.288   6.953 -0.8208  1.3215  2.5895
  110OSM    H7T11280   5.700   1.431   6.950 -0.5568  1.1843  1.6596
  110OSM    C8S11281   5.590   1.404   6.760  1.0325 -0.6126 -0.1503
  110OSM    H8S11282   5.577   1.512   6.738  1.0984  0.2941  3.5482
  110OSM    H8T11283   5.511   1.347   6.706 -0.1718 -0.0604  0.9692
  110OSM    C9S11284   5.722   1.353   6.704  0.2665 -0.1761  0.5380
  110OSM    H9S11285   5.708   1.243   6.697  0.0472 -0.2520  1.8761
  110OSM    H9T11286   5.804   1.363   6.779  0.2996  0.9912  0.3597
  110OSM   C10S11287   5.763   1.421   6.578  0.9804 -0.9389  0.2193
  110OSM   H10S11288   5.873   1.403   6.573  1.5512  1.9902  0.6699
  110OSM   H10T11289   5.749   1.528   6.601  1.9528 -0.8674  0.5100
  110OSM   C11S11290   5.688   1.385   6.442  0.4303  0.3222 -0.3300
  110OSM   H11S11291   5.579   1.390   6.463  0.2830  0.4909 -1.1019
  110OSM   H11T11292   5.707   1.276   6.431 -1.3125 -0.0581  0.1153
  110OSM   C12S11293   5.733   1.471   6.328 -0.3365 -0.1384 -0.3431
  110OSM   H12S11294   5.832   1.422   6.312  0.0814  0.9152 -1.1520
  110OSM   H12T11295   5.764   1.571   6.368 -0.0953 -0.0261 -0.8046
  110OSM   C13S11296   5.647   1.474   6.199 -0.8783  0.2837 -0.2734
  110OSM   H13S11297   5.547   1.503   6.238 -0.9844  0.9469 -0.9985
  110OSM   H13T11298   5.639   1.380   6.141  1.8961  0.4837 -1.1349
  110OSM   C14S11299   5.691   1.570   6.090 -0.2363  0.4793  0.8274
  110OSM   H14S11300   5.692   1.669   6.141  0.2077  1.4256 -0.9428
  110OSM   H14T11301   5.619   1.586   6.007 -1.3273 -1.7088  1.2744
  110OSM   C15S11302   5.843   1.540   6.044  0.0516  0.4193  0.7455
  110OSM   H15S11303   5.857   1.447   5.986 -1.4643 -0.2163  1.3567
  110OSM   H15T11304   5.906   1.537   6.136 -0.3199 -0.1458  0.9883
  110OSM   C16S11305   5.904   1.650   5.961 -0.6099  0.0182  0.3528
  110OSM   H16S11306   6.013   1.633   5.978 -0.6280 -0.3205  0.1451
  110OSM   H16T11307   5.871   1.748   6.002 -1.0693  0.5098 -1.1121
  110OSM   C17S11308   5.864   1.654   5.810 -0.1535 -0.5143  0.4243
  110OSM   H17S11309   5.753   1.656   5.805 -0.1551 -1.2059  0.1309
  110OSM   H17T11310   5.900   1.558   5.766  0.9906 -0.0872  0.4108
  110OSM   C18S11311   5.916   1.774   5.744 -0.3305  0.6167 -0.0116
  110OSM   H18S11312   6.024   1.773   5.767  0.2311 -0.0027 -2.3512
  110OSM   H18T11313   5.861   1.867   5.772 -0.1854  0.5472  0.4991
  110OSM   H18U11314   5.902   1.771   5.633 -1.4224  0.7295  0.1076
  110OSM    C1F11315   5.851   1.296   7.362  0.1495  0.3402 -0.3269
  110OSM     OF11316   5.808   1.200   7.424  0.2410  0.3558 -0.4013
  110OSM    C2F11317   5.988   1.290   7.296 -0.2006 -0.4061  0.5769
  110OSM    H2F11318   6.056   1.224   7.354  1.8232 -0.1360 -1.3645
  110OSM    H2G11319   6.033   1.390   7.310 -0.5100 -0.2182  0.2532
  110OSM    C3F11320   5.978   1.259   7.152 -0.2086 -0.5600  0.8505
  110OSM    H3F11321   6.078   1.251   7.104  0.1221  2.0911  0.9609
  110OSM    H3G11322   5.923   1.339   7.098  1.1005 -1.1096 -1.4315
  110OSM    C4F11323   5.902   1.123   7.125  0.1613  0.6160 -0.3015
  110OSM    H4F11324   5.803   1.131   7.174  1.1114  2.7119  1.4433
  110OSM    H4G11325   5.969   1.048   7.170 -0.0647  1.0235  0.7370
  110OSM    C5F11326   5.893   1.078   6.983  0.0337 -0.7923 -0.5462
  110OSM    H5F11327   5.832   1.145   6.919  1.6811 -0.7304 -2.1292
  110OSM    H5G11328   5.848   0.977   6.976 -1.4342 -0.2759  0.7443
  110OSM    C6F11329   6.031   1.076   6.904  1.0184 -1.1944 -0.3282
  110OSM    H6F11330   6.104   1.041   6.980  0.8764 -2.9473 -0.9431
  110OSM    H6G11331   6.045   1.183   6.877 -3.3086 -0.0853  1.0605
  110OSM    C7F11332   6.023   0.995   6.778 -0.4453  0.8960 -0.1382
  110OSM    H7F11333   6.000   0.889   6.801  2.6859  0.1059 -0.1855
  110OSM    H7G11334   6.121   0.982   6.725  1.5877 -1.0636  3.6699
  110OSM    C8F11335   5.916   1.042   6.666 -0.3753  0.5624  1.0305
  110OSM    H8F11336   5.934   1.149   6.641 -0.3148  0.1569 -0.8850
  110OSM    H8G11337   5.812   1.034   6.703 -1.0054  0.2294 -0.7148
  110OSM    C9F11338   5.925   0.956   6.543  0.1039  0.0693 -0.1447
  110OSM    H9F11339   5.879   0.858   6.558  0.8850 -0.3164 -0.2340
  110OSM   C10F11340   5.979   0.987   6.427 -0.1498  0.4980  0.4378
  110OSM   H10F11341   5.994   0.903   6.357 -0.9065  0.2154  0.6095
  110OSM   C11F11342   6.048   1.117   6.387  0.6568  0.4257  0.3451
  110OSM   H11F11343   6.155   1.088   6.385  1.0083  1.6924 -2.1765
  110OSM   H11G11344   6.024   1.199   6.459 -0.9194 -0.2108  0.5996
  110OSM   C12F11345   6.001   1.157   6.248 -0.2957  0.6808 -0.2304
  110OSM   H12F11346   5.896   1.191   6.237  0.0185  1.4218 -1.0335
  110OSM   H12G11347   6.021   1.070   6.182  1.1317 -0.3357  1.4468
  110OSM   C13F11348   6.108   1.261   6.200 -0.5142 -0.1375  0.2527
  110OSM   H13F11349   6.200   1.202   6.222 -0.0352  0.0151 -1.2095
  110OSM   H13G11350   6.107   1.351   6.266 -1.3385  0.5981 -0.7425
  110OSM   C14F11351   6.098   1.281   6.048  0.1250 -0.4239 -0.2906
  110OSM   H14F11352   6.001   1.334   6.037 -0.2409 -0.5865  1.7912
  110OSM   H14G11353   6.088   1.179   6.005 -0.3856 -1.1132  1.3671
  110OSM   C15F11354   6.216   1.356   5.981 -0.7613  0.4222 -0.2845
  110OSM   H15F11355   6.301   1.285   5.988 -1.8150 -0.7808  1.2089
  110OSM   H15G11356   6.244   1.447   6.038 -1.3774 -0.6333  1.8309
  110OSM   C16F11357   6.187   1.377   5.835 -0.2573 -0.7852  0.0882
  110OSM   H16F11358   6.086   1.421   5.820 -0.0036 -0.1445  0.2186
  110OSM   H16G11359   6.194   1.277   5.786 -0.6835 -0.5490 -0.4524
  110OSM   C17F11360   6.276   1.483   5.768 -0.7266 -0.2583  0.1588
  110OSM   H17F11361   6.380   1.448   5.782 -0.8356  0.1226  2.2007
  110OSM   H17G11362   6.240   1.573   5.822 -1.1170  0.2660 -0.9377
  110OSM   C18F11363   6.245   1.505   5.615 -0.0700 -0.0067 -0.3441
  110OSM   H18F11364   6.310   1.581   5.566  0.2299  0.3600  0.5936
  110OSM   H18G11365   6.138   1.530   5.598  0.2105 -0.3576 -2.9695
  110OSM   H18H11366   6.264   1.413   5.557 -0.3553  0.0448 -0.5184
  111OSM      N11367   0.661   5.544   8.224 -0.1491  0.0098 -0.4107
  111OSM    C1511368   0.551   5.615   8.287 -0.2905 -0.8198 -0.5191
  111OSM   H15A11369   0.472   5.547   8.315  0.9009 -0.4802  4.5175
  111OSM   H15B11370   0.509   5.685   8.216 -4.8854 -1.3439  1.3508
  111OSM   H15C11371   0.569   5.677   8.373 -0.3324  2.5471 -2.7582
  111OSM    C1411372   0.628   5.515   8.076  0.2192  0.4289 -0.8237
  111OSM   H14A11373   0.611   5.606   8.021 -1.3428  0.8236  0.2418
  111OSM   H14B11374   0.538   5.456   8.068 -1.2195  1.9298  2.3052
  111OSM   H14C11375   0.703   5.457   8.025 -0.4025  0.2705 -1.5778
  111OSM    C1311376   0.794   5.628   8.226  0.0287  0.0959 -0.3696
  111OSM   H13A11377   0.803   5.664   8.328  0.4900  0.3990 -0.5123
  111OSM   H13B11378   0.788   5.708   8.153 -2.2105  0.7393  0.4335
  111OSM   H13C11379   0.884   5.570   8.210  0.0725 -0.3217  1.2546
  111OSM    C1211380   0.701   5.419   8.304 -0.3855  0.1840 -0.2202
  111OSM   H12A11381   0.606   5.373   8.326 -0.3552 -0.2880 -1.0447
  111OSM   H12B11382   0.731   5.455   8.401 -0.1857  0.4315 -0.3717
  111OSM    C1111383   0.796   5.317   8.240 -0.0890 -0.3688  0.0153
  111OSM   H11A11384   0.835   5.246   8.316 -0.8875 -0.1959  0.5881
  111OSM   H11B11385   0.874   5.377   8.188 -1.7244 -0.2775 -2.4862
  111OSM      P11386   0.798   5.105   8.105  0.0852 -0.0113  0.3666
  111OSM    O1311387   0.945   5.125   8.121  0.4378 -0.1977  0.1725
  111OSM    O1411388   0.729   4.991   8.178 -1.0395 -0.2049  0.1185
  111OSM    O1111389   0.768   5.094   7.949  0.6086  0.2379  0.0243
  111OSM    O1211390   0.728   5.240   8.140  0.5658 -0.3611 -0.1312
  111OSM    C1S11391   0.633   5.078   7.893  0.0263  0.4312 -0.0427
  111OSM    H1S11392   0.594   5.179   7.866 -0.1722  0.3869  0.0829
  111OSM    H1T11393   0.559   5.036   7.964  1.0526 -2.5121 -0.6060
  111OSM     NF11394   0.496   4.976   7.712  0.5954 -0.6125  0.3219
  111OSM    HNF11395   0.453   4.887   7.702  0.2799 -0.4156 -0.1035
  111OSM    C2S11396   0.627   4.989   7.768 -0.6010  0.7060 -0.1983
  111OSM    H2S11397   0.691   5.042   7.694  1.8685  1.5085  2.3330
  111OSM    C3S11398   0.688   4.844   7.801  0.4389 -0.4993 -0.3669
  111OSM    H3S11399   0.608   4.776   7.838  1.6605 -2.1343 -0.6024
  111OSM     O311400   0.793   4.843   7.892 -0.0919 -0.0151 -0.8378
  111OSM    HO311401   0.814   4.936   7.903  2.0193 -0.3474 -1.6279
  111OSM    C4S11402   0.730   4.775   7.675  0.2224 -1.0666 -0.5804
  111OSM    H4S11403   0.657   4.710   7.624  0.1819  0.7154 -2.9982
  111OSM    C5S11404   0.845   4.786   7.614 -0.0268 -1.0265  0.2786
  111OSM    H5S11405   0.931   4.840   7.658  0.0172  0.6242 -1.6781
  111OSM    C6S11406   0.873   4.711   7.485  0.1807 -0.0956 -0.1949
  111OSM    H6S11407   0.823   4.611   7.480  1.0246 -0.7406  2.5404
  111OSM    H6T11408   0.981   4.693   7.468  0.3720  0.3944  0.4554
  111OSM    C7S11409   0.817   4.806   7.373 -0.2704 -0.1007 -0.0148
  111OSM    H7S11410   0.875   4.901   7.374 -1.2917  0.5389 -0.6739
  111OSM    H7T11411   0.710   4.826   7.391 -0.2724  2.1734 -2.0458
  111OSM    C8S11412   0.828   4.738   7.235 -0.4465  0.5761  0.2343
  111OSM    H8S11413   0.760   4.650   7.232 -2.5857  2.1802 -2.3998
  111OSM    H8T11414   0.935   4.707   7.233 -0.6398 -0.2670  1.4451
  111OSM    C9S11415   0.798   4.839   7.118 -0.0131 -0.1421 -0.2215
  111OSM    H9S11416   0.869   4.923   7.134 -0.2874  0.1635 -0.5874
  111OSM    H9T11417   0.700   4.891   7.129 -0.2940 -0.7408  0.1078
  111OSM   C10S11418   0.820   4.780   6.980  0.5216  0.0865 -0.0759
  111OSM   H10S11419   0.728   4.726   6.950 -0.3521 -0.0115  2.5139
  111OSM   H10T11420   0.901   4.703   6.984  2.9509  2.4540 -0.5646
  111OSM   C11S11421   0.862   4.877   6.872  0.1382  0.6902 -0.6165
  111OSM   H11S11422   0.964   4.907   6.905  0.3960  0.5430 -1.2696
  111OSM   H11T11423   0.802   4.970   6.876  2.1519  2.1039 -1.5246
  111OSM   C12S11424   0.865   4.815   6.732  0.1534  0.1850 -0.0620
  111OSM   H12S11425   0.761   4.777   6.721  0.8276 -2.9748  2.5941
  111OSM   H12T11426   0.919   4.718   6.726 -0.0821  0.0765 -0.4946
  111OSM   C13S11427   0.913   4.910   6.622 -0.0507  0.3114  0.2569
  111OSM   H13S11428   1.019   4.926   6.651 -0.1609 -1.2421  1.6662
  111OSM   H13T11429   0.851   5.002   6.632 -0.5245  0.1053 -0.6363
  111OSM   C14S11430   0.913   4.852   6.482 -0.2011  0.8339 -0.2020
  111OSM   H14S11431   0.951   4.748   6.485 -0.6147  0.6112 -1.8274
  111OSM   H14T11432   0.985   4.906   6.416  1.0082  0.4103  0.7250
  111OSM   C15S11433   0.776   4.852   6.413  0.1534 -0.3140  0.0068
  111OSM   H15S11434   0.758   4.958   6.386  0.5209 -0.0197  0.8527
  111OSM   H15T11435   0.692   4.821   6.479  1.6068  0.1208  2.1946
  111OSM   C16S11436   0.769   4.767   6.279  0.5705  0.0410 -0.2710
  111OSM   H16S11437   0.856   4.785   6.212  0.8615 -0.2793  0.0187
  111OSM   H16T11438   0.668   4.783   6.235 -0.5343 -0.8306  1.8095
  111OSM   C17S11439   0.779   4.611   6.314 -0.9180 -0.1877  0.4744
  111OSM   H17S11440   0.711   4.594   6.400 -0.3599  1.4420  1.2613
  111OSM   H17T11441   0.887   4.594   6.333 -0.2079 -0.1025 -2.8468
  111OSM   C18S11442   0.720   4.522   6.205 -0.3968  0.7510  0.0514
  111OSM   H18S11443   0.626   4.564   6.164 -0.6037 -0.5328 -0.8273
  111OSM   H18T11444   0.695   4.420   6.242 -0.8634 -0.0940 -2.4366
  111OSM   H18U11445   0.799   4.509   6.128  2.2388  0.3286  2.6461
  111OSM    C1F11446   0.428   5.076   7.656  0.1626 -0.2846 -0.5375
  111OSM     OF11447   0.476   5.189   7.654 -0.0731 -0.4295 -0.1611
  111OSM    C2F11448   0.297   5.045   7.601  0.2195  0.3143  1.4954
  111OSM    H2F11449   0.245   5.140   7.576 -2.1816 -1.7959 -2.5132
  111OSM    H2G11450   0.241   4.982   7.673 -2.3195 -0.0859 -0.6885
  111OSM    C3F11451   0.303   4.971   7.463  0.1248  0.2104 -0.6074
  111OSM    H3F11452   0.335   4.865   7.476 -0.8896 -0.0944 -0.5598
  111OSM    H3G11453   0.370   5.032   7.398  2.2969 -0.7063  0.6689
  111OSM    C4F11454   0.166   4.971   7.387  0.0633  0.1273  0.3479
  111OSM    H4F11455   0.119   5.072   7.392  4.8116  2.6628 -0.7537
  111OSM    H4G11456   0.094   4.901   7.434  0.7154  0.0344  1.2238
  111OSM    C5F11457   0.187   4.932   7.234 -0.4062 -0.3295 -0.0380
  111OSM    H5F11458   0.087   4.940   7.185 -1.5951  3.5040  2.5503
  111OSM    H5G11459   0.224   4.828   7.239 -1.2274 -0.6450 -0.3286
  111OSM    C6F11460   0.274   5.022   7.147  0.4364 -0.3687  0.5631
  111OSM    H6F11461   0.378   5.025   7.186  0.2698  2.3478  0.9972
  111OSM    H6G11462   0.238   5.127   7.153 -0.4135 -0.6557  0.5381
  111OSM    C7F11463   0.282   4.979   6.996  0.1215  0.2090 -0.4567
  111OSM    H7F11464   0.176   4.969   6.962  0.5476 -1.2844 -1.4261
  111OSM    H7G11465   0.329   4.882   6.971 -1.4776 -0.1767 -2.2477
  111OSM    C8F11466   0.337   5.092   6.902 -1.0156  0.1933  0.2936
  111OSM    H8F11467   0.442   5.112   6.934 -0.7085 -1.1068  0.1330
  111OSM    H8G11468   0.289   5.189   6.927  0.6439  0.6769  1.8685
  111OSM    C9F11469   0.321   5.071   6.759 -0.2008 -0.1041  0.5081
  111OSM    H9F11470   0.331   4.968   6.720  0.4747 -0.3840  1.4018
  111OSM   C10F11471   0.282   5.164   6.667  0.2229  0.4617 -0.0347
  111OSM   H10F11472   0.277   5.127   6.564 -0.3455 -3.0131  1.0970
  111OSM   C11F11473   0.256   5.311   6.685  0.4294 -0.4922 -0.1960
  111OSM   H11F11474   0.349   5.372   6.688 -0.1227  0.3450  0.4941
  111OSM   H11G11475   0.210   5.325   6.786  1.4412 -0.7438  0.3180
  111OSM   C12F11476   0.161   5.362   6.575  1.2919  0.6885 -0.0510
  111OSM   H12F11477   0.110   5.459   6.593  1.2247  0.6688 -0.1350
  111OSM   H12G11478   0.075   5.293   6.566 -0.5385  2.6061  1.5989
  111OSM   C13F11479   0.232   5.393   6.442 -0.0815  0.6463 -0.2014
  111OSM   H13F11480   0.286   5.301   6.414 -0.9653  0.2760 -0.7418
  111OSM   H13G11481   0.299   5.478   6.465 -0.4336  0.1366  3.1714
  111OSM   C14F11482   0.143   5.435   6.325  0.1730  0.5334  0.1245
  111OSM   H14F11483   0.094   5.534   6.336 -0.4308  0.5382 -2.2620
  111OSM   H14G11484   0.057   5.366   6.317  1.5073 -1.2134  0.1445
  111OSM   C15F11485   0.221   5.451   6.200 -0.1017  0.2723 -0.6171
  111OSM   H15F11486   0.280   5.359   6.181  1.2503  1.1236 -0.6595
  111OSM   H15G11487   0.300   5.527   6.223  0.6436 -0.9181  1.0114
  111OSM   C16F11488   0.139   5.490   6.068 -0.5654 -0.3366 -0.4129
  111OSM   H16F11489   0.087   5.584   6.098  2.7971  1.9581 -1.2004
  111OSM   H16G11490   0.068   5.410   6.040 -0.4748 -0.2620 -0.8611
  111OSM   C17F11491   0.242   5.504   5.951 -0.0006  0.0432  0.1233
  111OSM   H17F11492   0.281   5.402   5.932  0.0888 -0.1952  1.5043
  111OSM   H17G11493   0.318   5.570   5.999 -1.3221  0.2428  2.0344
  111OSM   C18F11494   0.183   5.568   5.833  0.4095 -0.1475 -0.7809
  111OSM   H18F11495   0.090   5.512   5.808 -0.1220  0.9930 -1.4155
  111OSM   H18G11496   0.245   5.559   5.742 -1.0460  2.7380 -2.1903
  111OSM   H18H11497   0.165   5.675   5.858 -1.6547 -0.4793 -0.6468
  112OSM      N11498   5.183   3.567   8.384 -0.6639  0.0384  0.0409
  112OSM    C1511499   5.313   3.498   8.416 -0.7953 -0.0097  0.5078
  112OSM   H15A11500   5.399   3.562   8.405 -0.7099 -0.3958 -1.2412
  112OSM   H15B11501   5.332   3.408   8.360  2.0054  0.3018  0.8308
  112OSM   H15C11502   5.308   3.473   8.521  1.6989 -0.9836  0.4615
  112OSM    C1411503   5.074   3.474   8.376  0.0340  0.0293  0.2439
  112OSM   H14A11504   5.061   3.431   8.475  1.1116 -1.5813 -0.2700
  112OSM   H14B11505   5.090   3.390   8.310  0.0786  0.4955 -0.3487
  112OSM   H14C11506   4.981   3.507   8.332 -1.5174 -1.9482  1.7996
  112OSM    C1311507   5.154   3.682   8.478 -0.2454 -0.4169  0.2136
  112OSM   H13A11508   5.242   3.745   8.480  1.2658 -2.3618 -1.3497
  112OSM   H13B11509   5.127   3.649   8.577  0.4554 -0.6106  0.3457
  112OSM   H13C11510   5.069   3.740   8.443  0.0318  0.1923  0.5381
  112OSM    C1211511   5.192   3.629   8.245 -0.4728  0.8994  0.3735
  112OSM   H12A11512   5.274   3.700   8.249  1.5210 -0.8986 -3.0892
  112OSM   H12B11513   5.100   3.675   8.212 -1.2524 -1.8136 -1.6299
  112OSM    C1111514   5.247   3.532   8.130  0.0782  0.1340  0.1618
  112OSM   H11A11515   5.241   3.588   8.034  0.8492 -0.8028 -0.4617
  112OSM   H11B11516   5.179   3.444   8.126 -0.8615  0.8655 -0.3877
  112OSM      P11517   5.457   3.383   8.091 -0.0496  0.5738 -0.0698
  112OSM    O1311518   5.597   3.407   8.095 -0.3783 -0.1722  0.0965
  112OSM    O1411519   5.402   3.271   8.172  0.4592 -0.0560 -0.7641
  112OSM    O1111520   5.412   3.358   7.938 -0.9420  0.3871  0.1153
  112OSM    O1211521   5.381   3.507   8.149 -0.6186  0.9146  0.8327
  112OSM    C1S11522   5.426   3.476   7.857  0.1046  0.0797 -0.5085
  112OSM    H1S11523   5.514   3.534   7.892  1.1509 -1.8457  0.2240
  112OSM    H1T11524   5.339   3.536   7.890  1.0888 -0.7134  4.2641
  112OSM     NF11525   5.422   3.575   7.624 -0.0200  0.1861  0.0881
  112OSM    HNF11526   5.333   3.609   7.594  0.0691 -0.0496 -0.4631
  112OSM    C2S11527   5.412   3.451   7.698 -0.0746 -0.6338 -0.2979
  112OSM    H2S11528   5.495   3.384   7.668  0.1971 -1.3851  1.9186
  112OSM    C3S11529   5.278   3.377   7.661 -0.0590 -0.0964  0.6935
  112OSM    H3S11530   5.196   3.447   7.688 -0.6143 -0.5944  0.3022
  112OSM     O311531   5.239   3.256   7.735 -0.0835 -0.6979 -0.5812
  112OSM    HO311532   5.313   3.250   7.796  0.5162 -3.2622 -1.4552
  112OSM    C4S11533   5.268   3.342   7.509  0.2323  0.1273  0.4442
  112OSM    H4S11534   5.355   3.280   7.483  0.4223 -0.2030  1.7993
  112OSM    C5S11535   5.183   3.373   7.413  1.1075  0.1014  0.5278
  112OSM    H5S11536   5.111   3.455   7.428  0.7518  0.7808 -3.7547
  112OSM    C6S11537   5.196   3.328   7.269  1.1067 -0.3667  0.1819
  112OSM    H6S11538   5.272   3.248   7.255 -0.5734 -1.7629 -1.5968
  112OSM    H6T11539   5.223   3.407   7.197  3.2635 -3.5312 -2.8210
  112OSM    C7S11540   5.056   3.266   7.224 -0.4925  0.0700 -0.4878
  112OSM    H7S11541   4.976   3.342   7.234 -0.7118 -0.2631  0.4157
  112OSM    H7T11542   5.023   3.190   7.297  0.1891  0.5110  0.3094
  112OSM    C8S11543   5.061   3.196   7.085  0.0725 -0.2737  0.0041
  112OSM    H8S11544   4.986   3.114   7.084 -1.2753  0.8040 -3.5683
  112OSM    H8T11545   5.163   3.155   7.071 -0.3167 -0.6520 -2.1846
  112OSM    C9S11546   5.021   3.288   6.967  0.2004  0.5354  0.1527
  112OSM    H9S11547   5.091   3.374   6.963 -0.9245  1.4253 -1.3743
  112OSM    H9T11548   4.926   3.344   6.978  0.5479  0.8682  1.6944
  112OSM   C10S11549   5.036   3.211   6.838  0.5670 -0.1230  0.3186
  112OSM   H10S11550   4.977   3.118   6.843 -1.2351  0.9773  0.2748
  112OSM   H10T11551   5.146   3.201   6.821  0.7333  0.7171  0.8466
  112OSM   C11S11552   4.984   3.300   6.717 -0.6251 -0.0525  0.2032
  112OSM   H11S11553   4.879   3.329   6.740 -0.2113  0.2252  1.8186
  112OSM   H11T11554   4.987   3.236   6.626  1.2963  0.9130 -0.4549
  112OSM   C12S11555   5.079   3.422   6.694 -0.7957  0.2108  0.6599
  112OSM   H12S11556   5.179   3.391   6.658 -0.2795  1.7001  0.7366
  112OSM   H12T11557   5.066   3.490   6.781 -1.3012  0.0496  0.7147
  112OSM   C13S11558   5.041   3.497   6.568  1.0467  0.0643 -0.0216
  112OSM   H13S11559   5.053   3.606   6.585  2.5930 -0.1161  0.1848
  112OSM   H13T11560   4.934   3.477   6.550  1.1126 -0.9040  0.6042
  112OSM   C14S11561   5.100   3.446   6.431 -0.3996  0.5547 -0.2368
  112OSM   H14S11562   5.069   3.340   6.416  2.2558 -0.4100  0.4474
  112OSM   H14T11563   5.210   3.456   6.418 -0.4228 -0.3833 -1.2871
  112OSM   C15S11564   5.035   3.528   6.310  0.2419  1.0966 -0.0676
  112OSM   H15S11565   5.081   3.628   6.316 -1.4584  1.9598 -0.7714
  112OSM   H15T11566   4.928   3.538   6.339  0.1006 -0.0003 -0.1571
  112OSM   C16S11567   5.067   3.459   6.171  0.3773  0.6480 -1.6865
  112OSM   H16S11568   5.028   3.355   6.172 -1.1168  1.1626  0.3740
  112OSM   H16T11569   5.178   3.453   6.167  0.4119 -0.3284 -0.1118
  112OSM   C17S11570   5.014   3.528   6.046 -0.7318 -0.1512 -0.1815
  112OSM   H17S11571   5.071   3.620   6.022 -1.0725 -0.0618 -0.6662
  112OSM   H17T11572   4.910   3.567   6.057 -0.1574  1.8727 -1.2889
  112OSM   C18S11573   5.022   3.442   5.919 -0.1752 -0.2981 -0.2993
  112OSM   H18S11574   4.946   3.362   5.926 -0.8448  0.4125  1.0331
  112OSM   H18T11575   5.128   3.409   5.918  0.0187  0.1002  2.0486
  112OSM   H18U11576   5.000   3.507   5.831  1.5062 -2.3616 -2.3674
  112OSM    C1F11577   5.531   3.646   7.621 -0.2042  0.2393  0.6970
  112OSM     OF11578   5.638   3.599   7.660 -0.3592  0.2770 -0.2193
  112OSM    C2F11579   5.508   3.784   7.560 -0.1606 -0.1962  0.2897
  112OSM    H2F11580   5.476   3.853   7.641 -1.4464  0.8318 -1.0426
  112OSM    H2G11581   5.421   3.770   7.492  0.8530  0.5091 -1.2112
  112OSM    C3F11582   5.622   3.831   7.468 -0.0598  0.0023 -0.6420
  112OSM    H3F11583   5.725   3.834   7.511  0.9343  4.6269 -2.7693
  112OSM    H3G11584   5.593   3.938   7.466 -0.9899 -0.2374 -0.2915
  112OSM    C4F11585   5.621   3.779   7.326 -0.4083  0.1693  0.0872
  112OSM    H4F11586   5.680   3.851   7.265  0.7298 -1.4586 -0.8117
  112OSM    H4G11587   5.516   3.785   7.290 -0.3688 -1.4288 -0.3925
  112OSM    C5F11588   5.683   3.639   7.314  0.2191 -0.2629  0.0235
  112OSM    H5F11589   5.615   3.565   7.361 -1.6250  2.2924  1.6499
  112OSM    H5G11590   5.784   3.646   7.361 -0.4170  0.9414  1.3109
  112OSM    C6F11591   5.699   3.580   7.169  0.6960 -0.1724  0.4417
  112OSM    H6F11592   5.764   3.490   7.176  1.6008  0.2880 -1.4463
  112OSM    H6G11593   5.746   3.658   7.106 -1.6217  0.5262 -0.5240
  112OSM    C7F11594   5.560   3.549   7.106 -0.5634 -0.6661  0.6694
  112OSM    H7F11595   5.509   3.648   7.095 -0.4749 -0.4311  2.1569
  112OSM    H7G11596   5.506   3.478   7.173 -1.6332 -0.9124 -0.4273
  112OSM    C8F11597   5.594   3.489   6.972  0.8372  0.4021 -0.1436
  112OSM    H8F11598   5.662   3.404   6.991 -1.5264 -0.8265  3.9890
  112OSM    H8G11599   5.648   3.564   6.910  0.3241 -0.9643 -2.3656
  112OSM    C9F11600   5.470   3.437   6.900 -0.1643 -0.3469  0.8124
  112OSM    H9F11601   5.432   3.336   6.921 -2.1876 -0.0504 -1.0484
  112OSM   C10F11602   5.420   3.489   6.785  0.7745 -0.1587 -0.8192
  112OSM   H10F11603   5.334   3.434   6.744  0.3110  0.1325 -0.2553
  112OSM   C11F11604   5.455   3.618   6.717 -0.1284  0.0021  0.0467
  112OSM   H11F11605   5.494   3.693   6.789  2.0924 -0.7752 -0.2686
  112OSM   H11G11606   5.366   3.654   6.661 -1.0464 -1.0406  0.7736
  112OSM   C12F11607   5.562   3.596   6.617 -1.1810  0.8078  0.4758
  112OSM   H12F11608   5.543   3.494   6.576 -1.1869  1.1360 -0.3584
  112OSM   H12G11609   5.666   3.607   6.656  0.5064  0.4621 -3.4131
  112OSM   C13F11610   5.544   3.705   6.503 -0.3141  0.1875 -0.1004
  112OSM   H13F11611   5.531   3.799   6.560  1.8422  0.2199  0.4393
  112OSM   H13G11612   5.455   3.677   6.443  0.2547 -1.9967 -0.0295
  112OSM   C14F11613   5.665   3.721   6.410  0.0884 -0.5393  0.1995
  112OSM   H14F11614   5.765   3.709   6.457  0.2428  1.0274  0.3261
  112OSM   H14G11615   5.673   3.824   6.370 -0.7436 -0.7203 -0.4443
  112OSM   C15F11616   5.654   3.630   6.288 -0.4051 -0.6886 -0.3875
  112OSM   H15F11617   5.617   3.527   6.309  0.8859 -1.4927 -1.7805
  112OSM   H15G11618   5.755   3.623   6.242  0.5495  2.0901  1.0690
  112OSM   C16F11619   5.561   3.696   6.188  0.2092 -0.5818 -0.5400
  112OSM   H16F11620   5.592   3.802   6.177  0.3191 -0.4041  1.1736
  112OSM   H16G11621   5.463   3.698   6.241  0.6066 -1.1026  0.2489
  112OSM   C17F11622   5.553   3.617   6.060 -0.4948  0.5607  0.3582
  112OSM   H17F11623   5.561   3.509   6.087  1.0689  0.1644 -1.5019
  112OSM   H17G11624   5.642   3.635   5.997 -0.4475 -0.1374  0.2192
  112OSM   C18F11625   5.414   3.641   5.997  0.0590  0.1812 -0.0770
  112OSM   H18F11626   5.390   3.576   5.910  1.6233  1.4364 -1.5383
  112OSM   H18G11627   5.424   3.743   5.953  1.1083  0.2118  0.2096
  112OSM   H18H11628   5.340   3.628   6.078  1.6792  1.0181  1.6062
  113OSM      N11629   2.072   5.334   8.321 -1.0306  0.2618 -0.4560
  113OSM    C1511630   2.149   5.463   8.329 -0.1362  0.0550  0.3037
  113OSM   H15A11631   2.205   5.474   8.238 -0.7950  1.2755  0.0285
  113OSM   H15B11632   2.211   5.477   8.417  1.0635 -0.6406 -0.4095
  113OSM   H15C11633   2.076   5.540   8.347  1.9365  1.6562  2.5600
  113OSM    C1411634   2.176   5.228   8.293  0.5547  0.4652  0.1394
  113OSM   H14A11635   2.257   5.236   8.365  0.2097  0.3241  0.5430
  113OSM   H14B11636   2.210   5.234   8.191 -0.6336  0.1353 -0.2844
  113OSM   H14C11637   2.131   5.133   8.314 -0.3708  0.6134 -1.0959
  113OSM    C1311638   2.011   5.302   8.454 -0.1413 -0.1392 -0.2801
  113OSM   H13A11639   1.941   5.379   8.484  2.5966  2.3244  0.3326
  113OSM   H13B11640   2.080   5.296   8.537 -0.7374  1.9624  0.4325
  113OSM   H13C11641   1.956   5.210   8.443 -1.4691  0.4291  1.1769
  113OSM    C1211642   1.961   5.332   8.217 -0.5173  0.4195 -0.3581
  113OSM   H12A11643   1.888   5.410   8.231 -1.1789  0.0213 -1.4135
  113OSM   H12B11644   1.902   5.241   8.224  0.3737 -0.1092  0.4310
  113OSM    C1111645   2.009   5.339   8.062  0.4523  0.2218 -0.3726
  113OSM   H11A11646   2.088   5.417   8.055  0.5078  0.3347  1.1872
  113OSM   H11B11647   1.921   5.377   8.006  0.1984  2.3477  1.3507
  113OSM      P11648   1.975   5.094   7.987 -0.0017 -0.4134 -0.0030
  113OSM    O1311649   2.064   4.976   7.976  0.1926 -0.5116 -0.0285
  113OSM    O1411650   1.861   5.076   8.068 -0.1749  0.1881 -0.5181
  113OSM    O1111651   1.921   5.145   7.850 -0.5811 -0.3112 -0.5012
  113OSM    O1211652   2.067   5.215   8.019 -0.5551  0.2126  0.3854
  113OSM    C1S11653   2.022   5.184   7.749  0.2314 -0.2951  0.1301
  113OSM    H1S11654   2.113   5.121   7.747 -1.0534 -2.2173 -1.2740
  113OSM    H1T11655   2.049   5.290   7.769  1.1205 -0.4636 -0.1100
  113OSM     NF11656   2.059   5.207   7.510 -0.5372 -0.4689  0.3262
  113OSM    HNF11657   2.058   5.291   7.457  1.9575 -0.5723 -0.0201
  113OSM    C2S11658   1.959   5.191   7.612 -0.2550 -0.5904  0.0412
  113OSM    H2S11659   1.913   5.091   7.601 -1.1321 -0.1273 -0.6995
  113OSM    C3S11660   1.851   5.299   7.608 -0.2352 -0.2889  0.1020
  113OSM    H3S11661   1.916   5.388   7.604  0.4184 -0.7993 -1.7237
  113OSM     O311662   1.768   5.320   7.722 -0.3019  0.2374  0.2928
  113OSM    HO311663   1.811   5.267   7.790  1.1609  0.0629 -0.7081
  113OSM    C4S11664   1.771   5.295   7.478  0.3518  0.1184 -0.0983
  113OSM    H4S11665   1.823   5.337   7.391  2.1812 -1.7301  0.0168
  113OSM    C5S11666   1.653   5.229   7.461  0.3962  0.2703 -0.3515
  113OSM    H5S11667   1.599   5.177   7.541  0.3610 -0.9756 -1.1584
  113OSM    C6S11668   1.593   5.216   7.323  0.2895 -0.7548 -0.4977
  113OSM    H6S11669   1.486   5.186   7.325 -0.1997  0.9008  0.6393
  113OSM    H6T11670   1.651   5.135   7.275  3.3333  0.2628  1.1848
  113OSM    C7S11671   1.596   5.345   7.238 -0.1550  0.9720 -0.0424
  113OSM    H7S11672   1.698   5.374   7.205 -0.2260 -0.9162 -2.2533
  113OSM    H7T11673   1.550   5.428   7.295  0.8010 -0.2874  2.7366
  113OSM    C8S11674   1.529   5.321   7.102  0.6376 -0.4431  0.0404
  113OSM    H8S11675   1.420   5.303   7.112 -0.1062  3.5789  0.6902
  113OSM    H8T11676   1.572   5.226   7.063 -0.5395 -0.9191 -0.1387
  113OSM    C9S11677   1.559   5.426   6.997 -0.0954 -0.3544 -0.0500
  113OSM    H9S11678   1.669   5.438   6.989 -0.3365  1.3153 -1.2731
  113OSM    H9T11679   1.522   5.526   7.025 -0.9506 -1.0496  1.4291
  113OSM   C10S11680   1.494   5.397   6.861  0.4443  0.0532  0.4420
  113OSM   H10S11681   1.383   5.391   6.863  0.3993  0.8038  2.6989
  113OSM   H10T11682   1.546   5.306   6.825 -1.4026 -0.0209 -2.4322
  113OSM   C11S11683   1.545   5.490   6.757 -1.1473 -0.3495  0.8803
  113OSM   H11S11684   1.656   5.488   6.752 -0.9927  3.1807  0.5245
  113OSM   H11T11685   1.525   5.599   6.766  0.8731  0.0844  0.4272
  113OSM   C12S11686   1.497   5.433   6.617  0.1339 -0.7172  0.1240
  113OSM   H12S11687   1.387   5.451   6.618  0.4306  1.4881 -0.5939
  113OSM   H12T11688   1.530   5.329   6.599  2.0076  0.1732 -1.9398
  113OSM   C13S11689   1.547   5.517   6.500  0.1967  0.0912  0.9044
  113OSM   H13S11690   1.658   5.513   6.506  0.2522  0.1339  0.0175
  113OSM   H13T11691   1.517   5.623   6.513  0.1860  0.0071  1.5994
  113OSM   C14S11692   1.509   5.457   6.367 -0.4440  0.4024 -0.3324
  113OSM   H14S11693   1.400   5.437   6.377  0.0021 -1.3745  1.6551
  113OSM   H14T11694   1.545   5.352   6.361 -0.8304  0.3072 -1.0854
  113OSM   C15S11695   1.564   5.534   6.248 -0.0996 -0.8963 -0.0106
  113OSM   H15S11696   1.674   5.545   6.255 -0.2302  0.7708 -0.2529
  113OSM   H15T11697   1.518   5.635   6.248  1.2537 -0.2237 -1.5443
  113OSM   C16S11698   1.540   5.468   6.119 -0.1581 -0.3674  0.0476
  113OSM   H16S11699   1.430   5.450   6.113 -0.0827 -0.4582 -4.0324
  113OSM   H16T11700   1.587   5.368   6.118 -1.1543 -0.8594  0.7121
  113OSM   C17S11701   1.575   5.549   5.993 -0.4822 -0.4863  0.3060
  113OSM   H17S11702   1.545   5.656   6.004 -1.3975 -0.3446 -2.6958
  113OSM   H17T11703   1.535   5.503   5.900  1.6036 -0.4292 -0.6883
  113OSM   C18S11704   1.725   5.547   5.967  0.7306  0.1264  0.4965
  113OSM   H18S11705   1.752   5.602   5.875  1.4187 -1.7716 -0.4858
  113OSM   H18T11706   1.754   5.440   5.957  0.1825  0.0081  0.1750
  113OSM   H18U11707   1.781   5.598   6.049 -0.2083  0.1388  1.1478
  113OSM    C1F11708   2.160   5.124   7.480 -0.7761 -0.0674 -0.7364
  113OSM     OF11709   2.167   5.020   7.545  0.2545 -0.5976  0.1676
  113OSM    C2F11710   2.251   5.156   7.368  0.6029 -0.2181 -0.3991
  113OSM    H2F11711   2.357   5.176   7.396  0.2005 -1.4423  2.2790
  113OSM    H2G11712   2.211   5.240   7.308  0.2357 -0.6817 -0.8077
  113OSM    C3F11713   2.260   5.025   7.287  0.3151 -0.5628  0.7913
  113OSM    H3F11714   2.154   4.994   7.274  0.3140  0.1607 -1.2229
  113OSM    H3G11715   2.312   4.942   7.339 -1.3914 -1.8692  0.4976
  113OSM    C4F11716   2.341   5.042   7.163  0.5793 -0.9677  0.2457
  113OSM    H4F11717   2.444   5.079   7.184  1.0571 -0.7555 -2.1648
  113OSM    H4G11718   2.291   5.124   7.107 -0.4837 -1.0105  1.0951
  113OSM    C5F11719   2.340   4.923   7.062 -0.8772 -0.5447 -0.9560
  113OSM    H5F11720   2.237   4.883   7.049 -0.0896 -1.8991 -3.8762
  113OSM    H5G11721   2.400   4.844   7.113 -2.1271 -1.4538 -0.8499
  113OSM    C6F11722   2.420   4.961   6.932  0.0858  0.2450  0.4636
  113OSM    H6F11723   2.456   4.870   6.881 -2.4347 -2.1650  2.5873
  113OSM    H6G11724   2.514   5.015   6.956  1.2056 -1.1296 -0.6629
  113OSM    C7F11725   2.324   5.039   6.834  0.0970 -0.1531  0.4542
  113OSM    H7F11726   2.281   5.132   6.878 -1.5322 -0.9736  0.6780
  113OSM    H7G11727   2.234   4.976   6.819  0.9170 -1.2640  0.0720
  113OSM    C8F11728   2.394   5.049   6.696  0.9220  0.2710  0.3756
  113OSM    H8F11729   2.484   5.112   6.715  0.4463  1.3417 -0.7674
  113OSM    H8G11730   2.330   5.121   6.640  0.0582 -1.0876 -0.4433
  113OSM    C9F11731   2.415   4.933   6.609  0.1569  1.1273 -0.0524
  113OSM    H9F11732   2.498   4.870   6.644 -0.5186 -0.4770 -1.1993
  113OSM   C10F11733   2.348   4.889   6.505  0.5462  0.5022 -0.0293
  113OSM   H10F11734   2.381   4.801   6.449 -2.1412 -0.8697  0.3401
  113OSM   C11F11735   2.232   4.962   6.444 -0.3666  1.0288 -0.1938
  113OSM   H11F11736   2.259   5.002   6.344  1.2019  0.6872  0.0641
  113OSM   H11G11737   2.197   5.046   6.507 -0.8607  1.0994 -0.5635
  113OSM   C12F11738   2.107   4.871   6.436 -0.3159 -0.4671  0.3232
  113OSM   H12F11739   2.022   4.936   6.407  1.0417  0.7896 -1.0228
  113OSM   H12G11740   2.071   4.826   6.530 -1.7652  0.4222  0.2277
  113OSM   C13F11741   2.112   4.770   6.319 -0.2390 -0.2852 -0.1095
  113OSM   H13F11742   2.194   4.697   6.338  0.6661  0.6366 -0.3728
  113OSM   H13G11743   2.128   4.826   6.224 -1.1888  0.1986  0.0071
  113OSM   C14F11744   1.977   4.701   6.308  0.0291  0.3830 -0.1658
  113OSM   H14F11745   1.904   4.782   6.285  1.3606  2.3359  1.9769
  113OSM   H14G11746   1.949   4.660   6.407  4.1077 -0.5067  0.8137
  113OSM   C15F11747   1.963   4.601   6.194  0.5937 -0.4044  0.0390
  113OSM   H15F11748   2.046   4.528   6.195  0.7209 -0.2904  1.9406
  113OSM   H15G11749   1.974   4.663   6.102 -1.7343  0.9324  0.5670
  113OSM   C16F11750   1.826   4.525   6.194  0.5255 -0.7597  0.7181
  113OSM   H16F11751   1.742   4.597   6.190 -0.3364 -1.7753 -0.4450
  113OSM   H16G11752   1.817   4.465   6.287 -0.8775 -0.3558  0.8764
  113OSM   C17F11753   1.817   4.420   6.074 -0.0030  0.1009  0.0997
  113OSM   H17F11754   1.910   4.361   6.069 -0.6313 -0.9109  0.1685
  113OSM   H17G11755   1.817   4.489   5.987 -1.0364  0.7983  0.6240
  113OSM   C18F11756   1.698   4.330   6.057 -0.5135  0.5354 -0.3743
  113OSM   H18F11757   1.694   4.284   5.956  2.2385 -0.9720  0.0978
  113OSM   H18G11758   1.608   4.392   6.076 -1.2783 -0.7599  0.3435
  113OSM   H18H11759   1.709   4.258   6.141  0.2778  2.0766  0.9068
  114OSM      N11760   2.652   2.650   7.807 -0.2966 -0.2744  0.3324
  114OSM    C1511761   2.623   2.573   7.685 -0.4737 -0.3799  0.6261
  114OSM   H15A11762   2.523   2.581   7.647 -0.0834 -0.9823 -0.5921
  114OSM   H15B11763   2.632   2.469   7.711 -2.0316 -0.2975  1.6319
  114OSM   H15C11764   2.694   2.599   7.607  1.2489  1.0400  2.5498
  114OSM    C1411765   2.792   2.630   7.844 -0.5669  0.7009  0.2674
  114OSM   H14A11766   2.803   2.531   7.885  0.2653  1.5533  2.3059
  114OSM   H14B11767   2.838   2.692   7.921  3.2860 -0.3485 -0.9470
  114OSM   H14C11768   2.859   2.634   7.759 -1.0705 -0.9430 -0.2288
  114OSM    C1311769   2.644   2.794   7.778 -0.5199  0.6655  0.7982
  114OSM   H13A11770   2.553   2.818   7.726 -1.3161 -0.0867  1.8160
  114OSM   H13B11771   2.728   2.820   7.715 -0.7617  0.7478  0.5085
  114OSM   H13C11772   2.652   2.845   7.873  2.5228 -0.1083  1.0699
  114OSM    C1211773   2.562   2.609   7.918  0.1711  0.4427 -0.2478
  114OSM   H12A11774   2.587   2.665   8.007 -0.1266  1.8083 -1.0024
  114OSM   H12B11775   2.566   2.502   7.936 -0.6326  0.3450 -0.5933
  114OSM    C1111776   2.410   2.638   7.907 -0.7417  0.2292  0.5110
  114OSM   H11A11777   2.349   2.592   7.988 -0.3357  0.8938  1.2130
  114OSM   H11B11778   2.364   2.576   7.827 -0.6081  1.4520 -0.5423
  114OSM      P11779   2.363   2.872   7.998  0.2435  0.4251  0.1327
  114OSM    O1311780   2.442   2.834   8.118 -0.4991  0.5104 -0.5713
  114OSM    O1411781   2.386   3.005   7.948 -0.0357  0.3174  0.2983
  114OSM    O1111782   2.210   2.861   8.031  0.8713  0.1913  0.3863
  114OSM    O1211783   2.386   2.776   7.882 -0.0962 -0.2724  0.3473
  114OSM    C1S11784   2.110   2.925   7.939 -0.9976  0.1759 -0.4071
  114OSM    H1S11785   2.155   3.010   7.883  2.3864 -0.5821  0.9069
  114OSM    H1T11786   2.027   2.957   8.005  0.0606 -1.0597  1.6307
  114OSM     NF11787   1.998   2.924   7.724  0.0275 -0.1359 -0.5640
  114OSM    HNF11788   1.899   2.938   7.725 -0.3091 -2.2139 -0.5456
  114OSM    C2S11789   2.049   2.838   7.827 -0.3074  0.0765 -0.5242
  114OSM    H2S11790   2.140   2.791   7.784  0.1759  0.7452 -0.2490
  114OSM    C3S11791   1.965   2.727   7.891 -0.0251 -0.7395 -0.4873
  114OSM    H3S11792   1.882   2.774   7.946  0.8332  0.7402 -0.3973
  114OSM     O311793   2.039   2.669   8.002 -0.1686  0.2745  0.2561
  114OSM    HO311794   2.091   2.740   8.040 -0.3681 -0.1161  1.3179
  114OSM    C4S11795   1.910   2.627   7.792 -0.2299  0.1415 -0.8391
  114OSM    H4S11796   1.806   2.646   7.761 -1.1169 -1.2742  1.0487
  114OSM    C5S11797   1.970   2.511   7.762 -0.1773  0.4134 -0.1076
  114OSM    H5S11798   2.068   2.484   7.803 -0.4046 -0.0872  0.1213
  114OSM    C6S11799   1.924   2.403   7.670 -0.4866 -0.1515 -0.2002
  114OSM    H6S11800   1.859   2.337   7.731 -2.1082  0.6790 -0.9441
  114OSM    H6T11801   2.011   2.344   7.634 -0.0981  0.5257 -0.3881
  114OSM    C7S11802   1.853   2.448   7.541  0.0709 -0.0374 -0.3557
  114OSM    H7S11803   1.903   2.540   7.501 -0.2009  0.1072 -0.3644
  114OSM    H7T11804   1.757   2.483   7.583  1.3570  3.1711  0.2345
  114OSM    C8S11805   1.831   2.342   7.437 -0.6135  0.5640 -0.1207
  114OSM    H8S11806   1.761   2.263   7.472 -1.1543  1.4051  0.7223
  114OSM    H8T11807   1.933   2.313   7.404 -0.4498  1.3833 -0.3545
  114OSM    C9S11808   1.767   2.394   7.311 -0.0321  0.1206  0.4889
  114OSM    H9S11809   1.793   2.498   7.281 -0.4235  0.7962  2.3051
  114OSM    H9T11810   1.659   2.396   7.338 -0.2474  1.8872 -0.3162
  114OSM   C10S11811   1.788   2.305   7.196  0.6515  0.2966  0.1563
  114OSM   H10S11812   1.777   2.201   7.232 -0.4067  0.0670 -0.7728
  114OSM   H10T11813   1.895   2.321   7.170  0.8882 -0.3327  0.6980
  114OSM   C11S11814   1.685   2.321   7.091  0.2135  0.8871 -0.3210
  114OSM   H11S11815   1.684   2.422   7.043 -0.8438 -0.1882 -2.7250
  114OSM   H11T11816   1.580   2.317   7.128  0.6354 -4.0521  0.9340
  114OSM   C12S11817   1.697   2.202   6.992  1.0435 -0.4537 -0.1697
  114OSM   H12S11818   1.634   2.219   6.903 -0.9924 -1.2669  1.0484
  114OSM   H12T11819   1.658   2.108   7.036 -2.0739 -0.5914 -2.8967
  114OSM   C13S11820   1.841   2.165   6.952  0.1276  0.3975  0.6544
  114OSM   H13S11821   1.877   2.114   7.043  0.0928 -1.9967 -0.5784
  114OSM   H13T11822   1.888   2.263   6.931 -1.5324  1.1205  0.0846
  114OSM   C14S11823   1.855   2.071   6.825 -0.2932 -0.5926  0.4115
  114OSM   H14S11824   1.798   2.108   6.738  0.0424  2.4783  1.3722
  114OSM   H14T11825   1.807   1.974   6.851  0.4106 -1.0714 -0.0466
  114OSM   C15S11826   2.006   2.057   6.777 -0.0763 -0.0935  0.1048
  114OSM   H15S11827   2.056   2.009   6.864 -0.2973 -1.6369 -0.5852
  114OSM   H15T11828   2.052   2.155   6.752 -0.5039 -0.0222 -0.4225
  114OSM   C16S11829   2.031   1.972   6.653  0.2804  0.6653 -0.3310
  114OSM   H16S11830   1.972   2.016   6.570  0.2122  0.6019 -0.3159
  114OSM   H16T11831   1.985   1.874   6.675  0.7315  0.8805  1.7423
  114OSM   C17S11832   2.179   1.942   6.629  1.0086  0.1068 -0.2442
  114OSM   H17S11833   2.201   1.851   6.569 -0.8471 -1.3266  1.1077
  114OSM   H17T11834   2.226   1.931   6.730  1.0556  0.3343 -0.2416
  114OSM   C18S11835   2.256   2.066   6.569  0.0215  0.4345  0.0733
  114OSM   H18S11836   2.204   2.096   6.475 -1.5600 -2.1244  0.0265
  114OSM   H18T11837   2.361   2.045   6.539 -0.0092  0.9947 -0.4482
  114OSM   H18U11838   2.254   2.149   6.642 -0.1337  2.7683 -2.4429
  114OSM    C1F11839   2.069   2.993   7.641  0.4619  1.1391  0.8239
  114OSM     OF11840   2.188   2.969   7.631 -0.1311  0.2589  0.8544
  114OSM    C2F11841   1.993   3.103   7.571 -0.3971 -0.2697  0.1796
  114OSM    H2F11842   1.978   3.186   7.644 -1.0307 -1.1218  1.0359
  114OSM    H2G11843   1.894   3.065   7.539  0.2908 -3.4079  1.4219
  114OSM    C3F11844   2.054   3.146   7.436 -0.5277 -0.2000  0.5319
  114OSM    H3F11845   2.155   3.180   7.467 -1.4037  0.0552  3.3864
  114OSM    H3G11846   2.000   3.233   7.392 -0.1687 -1.0389 -1.6605
  114OSM    C4F11847   2.060   3.043   7.319  0.2304 -0.5134  0.3371
  114OSM    H4F11848   1.961   2.993   7.307  0.0193 -0.4016  1.4507
  114OSM    H4G11849   2.140   2.976   7.357  2.9482  2.5526  0.4859
  114OSM    C5F11850   2.102   3.091   7.171 -0.5474 -0.0108 -0.3999
  114OSM    H5F11851   2.182   3.166   7.187  0.9256 -1.9061  1.6855
  114OSM    H5G11852   2.013   3.135   7.119 -1.3369 -0.1531  0.7916
  114OSM    C6F11853   2.136   2.976   7.077 -0.6245  0.5296 -0.3852
  114OSM    H6F11854   2.041   2.920   7.060  0.1981 -1.8575  2.1610
  114OSM    H6G11855   2.204   2.911   7.135 -0.2031  0.2919 -1.1365
  114OSM    C7F11856   2.213   3.021   6.945  0.0246 -0.5053 -0.5545
  114OSM    H7F11857   2.313   3.045   6.988 -0.1178 -0.9678  0.0304
  114OSM    H7G11858   2.156   3.110   6.909  0.0992 -0.8172 -1.4701
  114OSM    C8F11859   2.202   2.921   6.833 -0.0751 -0.1235 -0.5795
  114OSM    H8F11860   2.101   2.875   6.846 -1.5788  2.9274 -0.3947
  114OSM    H8G11861   2.271   2.836   6.850  1.9257  1.8484  1.9086
  114OSM    C9F11862   2.236   2.983   6.704 -0.4166  0.0885  0.0668
  114OSM    H9F11863   2.342   2.985   6.675  0.0128  1.1758  1.5590
  114OSM   C10F11864   2.147   3.049   6.625  0.0700 -0.2186 -1.1592
  114OSM   H10F11865   2.183   3.087   6.529  0.4081  1.0667 -0.5440
  114OSM   C11F11866   1.999   3.055   6.652 -0.1038 -0.3234  0.0266
  114OSM   H11F11867   1.967   3.158   6.623  0.5822 -0.0133  0.3426
  114OSM   H11G11868   1.977   3.036   6.759 -1.4882 -1.9700 -0.5039
  114OSM   C12F11869   1.922   2.960   6.562  0.0757  0.7998 -0.1935
  114OSM   H12F11870   1.817   2.937   6.591  0.9372 -1.0727  1.7454
  114OSM   H12G11871   1.967   2.860   6.580 -0.8214  0.7670  2.1612
  114OSM   C13F11872   1.929   2.999   6.416  0.6283  0.0798 -0.1432
  114OSM   H13F11873   2.030   3.032   6.384  0.2181 -1.2310 -3.0836
  114OSM   H13G11874   1.849   3.070   6.384  1.4273  0.2641 -1.8936
  114OSM   C14F11875   1.910   2.869   6.325  1.1713  0.4168 -0.3523
  114OSM   H14F11876   1.819   2.816   6.361  0.6973  0.1688 -1.8597
  114OSM   H14G11877   1.995   2.800   6.343 -1.7597 -3.5122 -0.1727
  114OSM   C15F11878   1.891   2.927   6.180 -0.1981  0.6465  0.1476
  114OSM   H15F11879   1.843   3.027   6.184 -2.5115 -0.3716 -0.5521
  114OSM   H15G11880   1.821   2.861   6.125 -0.7217  2.1974 -1.1217
  114OSM   C16F11881   2.019   2.940   6.106  0.6134  0.0997  0.0988
  114OSM   H16F11882   2.060   2.839   6.087 -0.1014  0.0655 -1.3988
  114OSM   H16G11883   2.080   2.996   6.180 -1.7266 -1.0236  3.0631
  114OSM   C17F11884   2.018   3.022   5.974 -0.4850 -0.2995  0.0598
  114OSM   H17F11885   2.116   3.073   5.959 -1.2979  1.0618 -0.9530
  114OSM   H17G11886   1.943   3.103   5.988  1.2114  1.0798  1.7965
  114OSM   C18F11887   1.992   2.946   5.843  0.8765  0.3772 -0.6668
  114OSM   H18F11888   1.907   2.875   5.853  0.0386  1.4888  0.4762
  114OSM   H18G11889   2.080   2.889   5.807  0.0163 -2.8137  1.8174
  114OSM   H18H11890   1.948   3.013   5.767  0.3518  2.9630  1.7439
  115OSM      N11891   6.773   0.263   8.066 -0.4069  0.1215 -0.0838
  115OSM    C1511892   6.721   0.196   8.190  0.6402 -0.2316 -0.7994
  115OSM   H15A11893   6.627   0.232   8.229  0.8229  0.0807 -0.6460
  115OSM   H15B11894   6.793   0.189   8.271 -0.0079 -0.5057 -0.2377
  115OSM   H15C11895   6.712   0.089   8.176  2.2242 -0.2416 -2.0105
  115OSM    C1411896   6.667   0.272   7.964 -0.8229 -0.7264 -0.1731
  115OSM   H14A11897   6.632   0.176   7.927 -0.9405 -0.9084  0.4006
  115OSM   H14B11898   6.705   0.324   7.877 -1.7862  0.3600  0.0178
  115OSM   H14C11899   6.580   0.331   7.990 -0.2507 -0.0511  0.2176
  115OSM    C1311900   6.823   0.403   8.097 -1.0202  0.2233  0.2297
  115OSM   H13A11901   6.860   0.452   8.009  1.3966 -0.9302  0.5376
  115OSM   H13B11902   6.910   0.397   8.160 -1.6135 -0.1487  1.0308
  115OSM   H13C11903   6.747   0.464   8.143 -1.4077 -0.6224  0.7367
  115OSM    C1211904   6.894   0.183   8.020  0.4815 -0.4101 -0.0628
  115OSM   H12A11905   6.960   0.190   8.105 -1.7812  2.3831  1.6467
  115OSM   H12B11906   6.944   0.231   7.937  0.1054 -1.2152 -0.7618
  115OSM    C1111907   6.872   0.038   7.984  0.5943  1.0869 -0.1755
  115OSM   H11A11908   6.956   0.005   7.919  1.5711  0.1459  1.5023
  115OSM   H11B11909   6.774   0.030   7.933 -0.5595 -1.5957  2.2127
  115OSM      P11910   6.857  -0.202   8.084 -0.2285 -0.1165 -0.0986
  115OSM    O1311911   6.997  -0.244   8.110  0.5176  0.1315 -0.5762
  115OSM    O1411912   6.747  -0.252   8.169 -0.3267  0.4514 -0.3245
  115OSM    O1111913   6.824  -0.236   7.932  0.2335  0.8263  0.5241
  115OSM    O1211914   6.859  -0.047   8.100 -0.3282  0.2186 -0.3934
  115OSM    C1S11915   6.782  -0.374   7.921  0.3413 -0.2124  0.1299
  115OSM    H1S11916   6.683  -0.388   7.971 -0.7629  3.2072 -0.8088
  115OSM    H1T11917   6.866  -0.434   7.961  0.7952  0.1722 -0.2391
  115OSM     NF11918   6.748  -0.541   7.744  0.9366  0.3301  0.0077
  115OSM    HNF11919   6.817  -0.606   7.716  2.0641  1.2512  0.5886
  115OSM    C2S11920   6.779  -0.402   7.770 -0.3565 -0.3029  0.3455
  115OSM    H2S11921   6.702  -0.348   7.711 -0.3909  0.4294  1.0440
  115OSM    C3S11922   6.912  -0.370   7.696 -0.3100  0.0761 -1.0097
  115OSM    H3S11923   6.982  -0.445   7.738 -2.5545 -2.0661 -0.8891
  115OSM     O311924   6.969  -0.241   7.722 -0.5876  1.0319 -0.5247
  115OSM    HO311925   6.928  -0.210   7.803  3.9266  0.3669  2.3422
  115OSM    C4S11926   6.899  -0.398   7.548 -0.1688 -0.2264  0.0320
  115OSM    H4S11927   6.930  -0.499   7.516  0.9445  0.7118 -2.1000
  115OSM    C5S11928   6.838  -0.321   7.451  0.0548  0.3667 -0.9873
  115OSM    H5S11929   6.798  -0.224   7.483  2.7046  0.7216  1.6575
  115OSM    C6S11930   6.815  -0.353   7.308  0.2396  0.7173 -0.3001
  115OSM    H6S11931   6.871  -0.444   7.277  0.4372 -0.0452  2.1352
  115OSM    H6T11932   6.857  -0.271   7.246  1.8248 -0.7853 -1.3071
  115OSM    C7S11933   6.671  -0.367   7.273 -0.4130  0.1439  0.0406
  115OSM    H7S11934   6.611  -0.275   7.289 -0.5118  0.4333 -1.8162
  115OSM    H7T11935   6.637  -0.455   7.332 -1.1500 -0.2869 -0.9963
  115OSM    C8S11936   6.645  -0.381   7.122  0.1988  0.6001 -0.2342
  115OSM    H8S11937   6.543  -0.418   7.098  1.0878 -2.1155 -0.1574
  115OSM    H8T11938   6.713  -0.462   7.090 -1.5758 -1.2148  0.3930
  115OSM    C9S11939   6.673  -0.257   7.029 -0.1435 -0.1457 -0.0482
  115OSM    H9S11940   6.781  -0.235   7.019 -0.3234  0.9134  0.2249
  115OSM    H9T11941   6.638  -0.165   7.079  2.4755  0.8969 -0.0070
  115OSM   C10S11942   6.619  -0.274   6.888  0.1499 -0.1527 -0.6029
  115OSM   H10S11943   6.609  -0.167   6.860  1.2994  0.1298  0.0159
  115OSM   H10T11944   6.517  -0.318   6.895  0.0060  0.3554  1.0235
  115OSM   C11S11945   6.713  -0.348   6.798  0.5507  0.6889  0.5353
  115OSM   H11S11946   6.757  -0.431   6.858 -1.8574 -2.5092 -1.8125
  115OSM   H11T11947   6.800  -0.289   6.761  0.3057 -0.2344 -1.6269
  115OSM   C12S11948   6.637  -0.404   6.677  0.0373 -0.0005  0.2992
  115OSM   H12S11949   6.550  -0.454   6.725  0.8757 -0.8267  0.9792
  115OSM   H12T11950   6.700  -0.473   6.617 -1.0008  0.3373 -1.2678
  115OSM   C13S11951   6.580  -0.296   6.584 -0.0208 -0.0247  0.1801
  115OSM   H13S11952   6.522  -0.218   6.638 -3.4577 -0.9312 -1.8659
  115OSM   H13T11953   6.503  -0.341   6.518 -1.6254  2.4061  0.2579
  115OSM   C14S11954   6.697  -0.229   6.502  0.5566  0.2596  0.5081
  115OSM   H14S11955   6.756  -0.313   6.459 -1.9108 -0.1175 -2.4737
  115OSM   H14T11956   6.771  -0.169   6.561  0.7855  0.7140 -0.2260
  115OSM   C15S11957   6.647  -0.140   6.381  0.5804 -0.6133 -0.2970
  115OSM   H15S11958   6.555  -0.086   6.413  1.2941 -0.3208  1.3619
  115OSM   H15T11959   6.618  -0.216   6.305  2.2396 -0.9579 -0.6250
  115OSM   C16S11960   6.757  -0.058   6.322  0.4028  0.5354  0.0691
  115OSM   H16S11961   6.848  -0.085   6.380  0.6936 -0.0282 -0.6316
  115OSM   H16T11962   6.739   0.045   6.359 -1.4041  0.4116 -0.3821
  115OSM   C17S11963   6.775  -0.078   6.174 -0.1990 -1.1948  0.5720
  115OSM   H17S11964   6.732  -0.174   6.137  0.4390 -0.9366 -0.9056
  115OSM   H17T11965   6.874  -0.079   6.124 -0.8257 -1.3260 -0.7110
  115OSM   C18S11966   6.701   0.036   6.098 -0.1708  0.1478 -0.5283
  115OSM   H18S11967   6.609   0.067   6.153  0.5147 -0.4701  1.0386
  115OSM   H18T11968   6.672   0.020   5.992  1.1604  3.6405 -1.5580
  115OSM   H18U11969   6.767   0.126   6.102 -1.1229  0.8631 -0.4538
  115OSM    C1F11970   6.629  -0.587   7.776 -0.1683  0.4060 -0.5861
  115OSM     OF11971   6.542  -0.502   7.804  0.2293 -0.0391 -0.7782
  115OSM    C2F11972   6.606  -0.736   7.793  0.0347 -0.0332  0.1000
  115OSM    H2F11973   6.576  -0.770   7.894 -0.6130 -2.5812 -0.8645
  115OSM    H2G11974   6.697  -0.796   7.772  1.3074  2.1543 -1.0648
  115OSM    C3F11975   6.502  -0.775   7.682  0.1532 -0.0155 -0.1474
  115OSM    H3F11976   6.415  -0.706   7.691  0.2477  0.2857 -1.3117
  115OSM    H3G11977   6.469  -0.878   7.705 -0.5932  0.1707 -0.3476
  115OSM    C4F11978   6.552  -0.759   7.539  0.1908 -0.3459  1.1187
  115OSM    H4F11979   6.610  -0.664   7.529  2.1076 -1.7303 -4.1484
  115OSM    H4G11980   6.460  -0.747   7.477 -0.2810  0.0787  1.8805
  115OSM    C5F11981   6.643  -0.868   7.492  0.3546  0.1322  0.0044
  115OSM    H5F11982   6.584  -0.961   7.489  0.3090  0.1720 -1.6349
  115OSM    H5G11983   6.723  -0.874   7.569  2.1922 -0.0863 -1.8116
  115OSM    C6F11984   6.706  -0.872   7.359  0.7924 -0.2799  0.4661
  115OSM    H6F11985   6.739  -0.769   7.332  1.3582 -0.3710  0.7865
  115OSM    H6G11986   6.632  -0.906   7.284  0.2638  0.8907  0.4253
  115OSM    C7F11987   6.830  -0.963   7.357  0.8777  0.4181 -0.4248
  115OSM    H7F11988   6.814  -1.063   7.402 -1.5233  0.9310 -0.0527
  115OSM    H7G11989   6.917  -0.927   7.417  1.7761  0.8272 -1.9061
  115OSM    C8F11990   6.905  -0.980   7.225 -0.4138 -0.1812  0.2675
  115OSM    H8F11991   6.841  -1.016   7.140 -0.3818  2.4852 -0.9849
  115OSM    H8G11992   6.983  -1.058   7.233  0.0035 -0.4774 -4.1780
  115OSM    C9F11993   6.975  -0.856   7.175  0.5561 -0.5614  0.1316
  115OSM    H9F11994   7.058  -0.818   7.236 -0.7265  1.6360  0.6524
  115OSM   C10F11995   6.955  -0.777   7.066 -0.1521  0.4230 -0.3501
  115OSM   H10F11996   7.014  -0.686   7.045 -0.5082  0.6273 -0.4738
  115OSM   C11F11997   6.840  -0.789   6.970 -0.8641  0.0653  0.4803
  115OSM   H11F11998   6.789  -0.690   6.974  0.7386  0.9695 -0.4118
  115OSM   H11G11999   6.770  -0.869   7.004 -1.6709  1.0278  1.1276
  115OSM   C12F12000   6.875  -0.830   6.821 -0.5040 -0.0369 -0.4400
  115OSM   H12F12001   6.785  -0.865   6.766  0.0022  1.0451 -2.0080
  115OSM   H12G12002   6.947  -0.914   6.826  0.1816  0.5909  3.1050
  115OSM   C13F12003   6.927  -0.719   6.732 -0.2259  0.1008  0.5991
  115OSM   H13F12004   7.033  -0.699   6.760  0.7319 -1.7585 -1.4378
  115OSM   H13G12005   6.875  -0.622   6.748 -0.5506 -0.5805  4.8317
  115OSM   C14F12006   6.918  -0.757   6.585  0.0290 -0.1648  0.0323
  115OSM   H14F12007   6.816  -0.761   6.542 -0.8899 -0.7710  2.1592
  115OSM   H14G12008   6.956  -0.861   6.585 -0.2901 -0.3541 -2.8243
  115OSM   C15F12009   7.011  -0.664   6.508 -0.1492 -0.3529  0.4058
  115OSM   H15F12010   7.114  -0.672   6.548  0.5932  2.0982 -0.8024
  115OSM   H15G12011   6.981  -0.557   6.512 -1.1554 -0.4452 -2.4046
  115OSM   C16F12012   7.026  -0.686   6.354  0.4113 -0.1636  0.2600
  115OSM   H16F12013   6.927  -0.697   6.306  1.6856  0.7337 -2.7735
  115OSM   H16G12014   7.074  -0.784   6.338 -0.1533 -0.3728 -0.1762
  115OSM   C17F12015   7.108  -0.583   6.275 -0.8374  0.2915 -0.2134
  115OSM   H17F12016   7.060  -0.483   6.279  1.0828  1.2682 -0.5374
  115OSM   H17G12017   7.099  -0.615   6.169  2.0691  0.5082 -0.5935
  115OSM   C18F12018   7.255  -0.582   6.312  0.1305  0.9224 -0.6129
  115OSM   H18F12019   7.263  -0.544   6.416  0.6954 -0.4213 -0.1500
  115OSM   H18G12020   7.301  -0.499   6.254 -3.4541  2.2361 -1.8482
  115OSM   H18H12021   7.309  -0.678   6.296 -0.2077  0.4160  1.1188
  116OSM      N12022   2.470   4.984   7.874  0.6397 -0.2978  0.1826
  116OSM    C1512023   2.601   5.026   7.935 -0.2423  0.3066  0.1655
  116OSM   H15A12024   2.680   4.970   7.886 -1.7928 -0.7541 -1.2289
  116OSM   H15B12025   2.604   4.984   8.034  1.3997 -0.2984 -0.1040
  116OSM   H15C12026   2.607   5.134   7.941 -1.1221  0.3932 -0.3276
  116OSM    C1412027   2.355   5.039   7.954 -0.0728 -0.0920  0.5199
  116OSM   H14A12028   2.341   4.994   8.051 -0.8850 -0.6724  0.1395
  116OSM   H14B12029   2.260   5.004   7.915 -0.5466  0.4319  1.1755
  116OSM   H14C12030   2.346   5.146   7.950 -1.3026 -0.2023 -0.0520
  116OSM    C1312031   2.464   5.035   7.734  0.1467  0.1034 -0.1196
  116OSM   H13A12032   2.466   5.143   7.731  0.4185  0.1069  0.2212
  116OSM   H13B12033   2.373   5.003   7.685  1.0403 -1.8036 -0.6136
  116OSM   H13C12034   2.540   4.995   7.669 -0.1041  0.2255 -0.4909
  116OSM    C1212035   2.458   4.834   7.861  0.7897  0.5541  0.3976
  116OSM   H12A12036   2.521   4.804   7.779 -1.0317  0.5812 -1.0952
  116OSM   H12B12037   2.361   4.803   7.825  2.1224 -2.0177 -1.2430
  116OSM    C1112038   2.480   4.751   7.994 -0.7742  0.2489  0.2244
  116OSM   H11A12039   2.422   4.657   7.986  1.8063 -1.5975  1.6353
  116OSM   H11B12040   2.429   4.806   8.076 -0.3949 -0.7731  1.1728
  116OSM      P12041   2.721   4.662   7.941 -0.3784 -0.0669 -0.3100
  116OSM    O1312042   2.721   4.724   7.810 -0.5997  0.9037  0.3337
  116OSM    O1412043   2.844   4.666   8.017 -0.4174  0.1704 -0.1722
  116OSM    O1112044   2.673   4.515   7.940 -0.1060 -0.1315  0.0852
  116OSM    O1212045   2.615   4.733   8.029  0.4454  0.0529 -0.1665
  116OSM    C1S12046   2.569   4.475   7.845  0.1871  0.9546 -0.5243
  116OSM    H1S12047   2.504   4.546   7.789 -0.2021 -0.3321 -1.7769
  116OSM    H1T12048   2.496   4.415   7.902  0.8467 -1.7899 -2.3955
  116OSM     NF12049   2.532   4.362   7.632 -0.3545  0.0048  0.4449
  116OSM    HNF12050   2.473   4.282   7.635  1.4170 -1.3084  2.1547
  116OSM    C2S12051   2.629   4.379   7.738 -0.1812  0.0176  0.0677
  116OSM    H2S12052   2.727   4.425   7.713 -0.4260  1.8168  2.1084
  116OSM    C3S12053   2.670   4.244   7.806 -0.0883  0.0343 -0.5893
  116OSM    H3S12054   2.577   4.200   7.847 -0.5758  0.7786 -0.8827
  116OSM     O312055   2.761   4.264   7.921 -0.6516  0.2868  0.1819
  116OSM    HO312056   2.733   4.347   7.961  0.5694  0.2839  1.1169
  116OSM    C4S12057   2.733   4.142   7.713 -0.0052 -0.0265 -0.3212
  116OSM    H4S12058   2.665   4.057   7.706 -1.0817  0.9546 -3.5690
  116OSM    C5S12059   2.855   4.155   7.652 -0.3221  0.2146  0.1094
  116OSM    H5S12060   2.915   4.246   7.665 -0.6719  0.5496 -0.5897
  116OSM    C6S12061   2.921   4.044   7.570  0.4730  0.6954 -0.0449
  116OSM    H6S12062   2.969   3.982   7.649 -0.2376  1.4980  1.0374
  116OSM    H6T12063   3.007   4.091   7.517  0.4179  1.3687  0.4647
  116OSM    C7S12064   2.827   3.964   7.478 -0.2596  0.0722 -0.4317
  116OSM    H7S12065   2.737   3.941   7.538 -0.9777  0.8524 -1.1787
  116OSM    H7T12066   2.889   3.879   7.443 -0.8931  0.0519 -1.5405
  116OSM    C8S12067   2.776   4.034   7.347  0.4533 -0.4387  0.6489
  116OSM    H8S12068   2.723   4.127   7.376 -0.9976 -0.9402 -0.2748
  116OSM    H8T12069   2.701   3.968   7.299 -0.9103  0.5700  1.3040
  116OSM    C9S12070   2.890   4.075   7.247 -0.0406  0.6855  0.2198
  116OSM    H9S12071   2.964   3.993   7.233 -0.4361  0.4508 -0.5778
  116OSM    H9T12072   2.955   4.153   7.293  2.7428  1.0162 -3.7133
  116OSM   C10S12073   2.844   4.125   7.109 -0.2429 -0.1113  0.3489
  116OSM   H10S12074   2.795   4.222   7.128  0.1222  0.3901 -1.1429
  116OSM   H10T12075   2.766   4.056   7.068 -0.9007  0.6839  0.2443
  116OSM   C11S12076   2.954   4.138   7.007 -0.4813  0.3604  0.4878
  116OSM   H11S12077   3.013   4.044   7.010  1.3350  1.4018 -0.4548
  116OSM   H11T12078   3.030   4.214   7.036  0.6204 -1.1699  1.7630
  116OSM   C12S12079   2.904   4.167   6.862  0.4241 -0.1000  0.1468
  116OSM   H12S12080   2.865   4.271   6.867  1.3473  0.2380  0.4115
  116OSM   H12T12081   2.825   4.093   6.837  1.4109 -0.5283 -1.9247
  116OSM   C13S12082   3.019   4.139   6.761  0.6050  0.4204 -0.1716
  116OSM   H13S12083   3.045   4.031   6.752 -0.9361  0.1824 -3.1191
  116OSM   H13T12084   3.106   4.203   6.785  0.2841  0.8779 -0.2358
  116OSM   C14S12085   2.960   4.164   6.623 -0.7851 -0.2568  0.5797
  116OSM   H14S12086   2.925   4.268   6.606  0.1021  0.0492  0.5582
  116OSM   H14T12087   2.873   4.094   6.621  0.3651 -1.7592 -1.7367
  116OSM   C15S12088   3.051   4.120   6.500 -0.4393 -0.1446  0.1654
  116OSM   H15S12089   3.076   4.012   6.515  1.4937  0.3188  0.5454
  116OSM   H15T12090   3.148   4.173   6.512 -0.3056 -0.5849  1.1538
  116OSM   C16S12091   2.983   4.157   6.369 -0.4790  0.0853  0.2473
  116OSM   H16S12092   2.977   4.266   6.346 -1.6628 -0.3075 -1.5522
  116OSM   H16T12093   2.877   4.124   6.374 -0.2139 -0.6317  3.5715
  116OSM   C17S12094   3.053   4.092   6.248  0.2409  0.0890  0.0829
  116OSM   H17S12095   2.990   4.127   6.163 -1.7512  1.4445  2.0250
  116OSM   H17T12096   3.040   3.982   6.260  0.1557  0.0856 -0.0376
  116OSM   C18S12097   3.200   4.124   6.224  0.1335  0.3703 -0.4746
  116OSM   H18S12098   3.197   4.228   6.185 -1.6495  0.0430 -1.3196
  116OSM   H18T12099   3.246   4.056   6.150 -0.7453  1.2269 -1.8633
  116OSM   H18U12100   3.257   4.110   6.318  0.2203 -1.1724 -0.7372
  116OSM    C1F12101   2.510   4.455   7.546  0.0873  0.6842 -0.2548
  116OSM     OF12102   2.591   4.547   7.530  0.0317  0.3931  0.0949
  116OSM    C2F12103   2.389   4.447   7.457 -0.6055 -1.3267 -0.2283
  116OSM    H2F12104   2.322   4.526   7.498  1.3379 -0.0188  0.6191
  116OSM    H2G12105   2.334   4.352   7.471  0.1440 -1.7195  0.0778
  116OSM    C3F12106   2.425   4.461   7.304  0.2527 -0.3949  0.5844
  116OSM    H3F12107   2.526   4.416   7.294  0.2011 -1.5624  4.0865
  116OSM    H3G12108   2.420   4.569   7.277 -1.8699  0.0616  2.5527
  116OSM    C4F12109   2.319   4.400   7.218 -0.2035  0.5123  0.3141
  116OSM    H4F12110   2.295   4.298   7.256 -2.4198  0.8512 -0.0370
  116OSM    H4G12111   2.347   4.391   7.111  0.4207  1.8766  0.3439
  116OSM    C5F12112   2.178   4.467   7.216  0.1390  0.1127 -0.4351
  116OSM    H5F12113   2.185   4.574   7.189  1.3750 -0.4894 -2.8494
  116OSM    H5G12114   2.137   4.463   7.319  0.2982 -2.2237 -0.3995
  116OSM    C6F12115   2.071   4.414   7.119  0.8026 -0.1946 -1.0357
  116OSM    H6F12116   1.974   4.456   7.154  1.3080  1.0146 -1.0555
  116OSM    H6G12117   2.060   4.303   7.125 -0.6173 -0.0529 -0.4873
  116OSM    C7F12118   2.092   4.453   6.971  0.5518  0.7142  0.1845
  116OSM    H7F12119   2.188   4.409   6.936  0.0807 -1.2590  1.2340
  116OSM    H7G12120   2.083   4.562   6.955 -3.6777  0.7496  1.5911
  116OSM    C8F12121   1.976   4.387   6.893  0.3721 -0.3202  0.9597
  116OSM    H8F12122   1.887   4.412   6.954 -0.4790  2.2395 -1.1621
  116OSM    H8G12123   1.980   4.276   6.898  1.4248 -0.3910 -0.8069
  116OSM    C9F12124   1.957   4.433   6.751 -0.1552 -0.0277 -0.4406
  116OSM    H9F12125   1.986   4.538   6.737  3.1678 -0.8673 -0.5539
  116OSM   C10F12126   1.930   4.365   6.638 -0.3123 -0.1520  0.4650
  116OSM   H10F12127   1.899   4.426   6.552 -0.9446 -1.1195 -0.0022
  116OSM   C11F12128   1.877   4.222   6.634 -0.5059  0.0708 -0.2193
  116OSM   H11F12129   1.770   4.218   6.608 -0.0362  1.0851 -2.6120
  116OSM   H11G12130   1.887   4.169   6.731  0.6894  0.4740 -0.1046
  116OSM   C12F12131   1.957   4.138   6.530  0.1604 -0.0087  0.0670
  116OSM   H12F12132   1.938   4.031   6.553 -3.6619  0.1635 -1.5791
  116OSM   H12G12133   2.068   4.145   6.540  0.1935  0.0728 -0.3118
  116OSM   C13F12134   1.921   4.170   6.383  0.1937 -0.2757  0.2260
  116OSM   H13F12135   1.955   4.272   6.357  6.5492 -2.5877 -2.6620
  116OSM   H13G12136   1.812   4.184   6.367 -0.1723 -2.5115  0.3135
  116OSM   C14F12137   1.989   4.078   6.285 -0.3191  0.3497 -0.3014
  116OSM   H14F12138   2.079   4.044   6.338 -1.3981  0.2690  1.5560
  116OSM   H14G12139   2.021   4.143   6.201 -0.8972  1.3299  0.2182
  116OSM   C15F12140   1.915   3.952   6.238  0.1902 -0.3093 -0.3022
  116OSM   H15F12141   1.851   3.993   6.157 -0.0999 -0.2384 -0.0408
  116OSM   H15G12142   1.851   3.917   6.322  2.4853 -0.0545  1.6845
  116OSM   C16F12143   2.017   3.851   6.175  0.2228 -0.7066 -0.3514
  116OSM   H16F12144   2.038   3.777   6.256 -2.7096 -1.6922 -0.3661
  116OSM   H16G12145   2.110   3.906   6.151 -1.2216  1.5641 -1.1319
  116OSM   C17F12146   1.957   3.791   6.047  0.1619 -0.4498  0.6949
  116OSM   H17F12147   1.860   3.744   6.074 -0.2982  0.8903  1.4801
  116OSM   H17G12148   2.013   3.704   6.007  1.7575  0.4090  0.9754
  116OSM   C18F12149   1.935   3.891   5.936 -0.4036  0.5657 -0.6411
  116OSM   H18F12150   2.037   3.930   5.912  1.1276 -3.2835 -1.0175
  116OSM   H18G12151   1.876   3.983   5.959 -0.6831  0.5834 -1.3899
  116OSM   H18H12152   1.883   3.851   5.846  1.9514 -0.1989 -1.7504
  117OSM      N12153   0.241   4.573   8.375 -0.1799  0.3382 -0.1513
  117OSM    C1512154   0.348   4.673   8.351  0.1458 -0.1106  0.3536
  117OSM   H15A12155   0.334   4.728   8.258 -0.0501  2.2276  1.6823
  117OSM   H15B12156   0.448   4.636   8.334  0.3978  1.4110 -2.1392
  117OSM   H15C12157   0.356   4.757   8.419 -0.8488  1.0734 -0.9144
  117OSM    C1412158   0.286   4.471   8.473  0.0095  0.0469 -0.1326
  117OSM   H14A12159   0.371   4.416   8.436  0.4097  1.4918 -1.4793
  117OSM   H14B12160   0.211   4.397   8.497  1.5756 -1.4424  0.3706
  117OSM   H14C12161   0.315   4.512   8.569 -1.3864  0.0465  0.3160
  117OSM    C1312162   0.122   4.654   8.416 -0.6842  0.2715  0.0756
  117OSM   H13A12163   0.092   4.720   8.335 -1.8895 -2.0173 -1.4755
  117OSM   H13B12164   0.134   4.713   8.505 -1.5709  0.4768  0.0747
  117OSM   H13C12165   0.035   4.593   8.436 -2.3343  3.1817  2.4548
  117OSM    C1212166   0.232   4.511   8.238 -0.2147 -0.4167  0.6708
  117OSM   H12A12167   0.188   4.412   8.245 -2.6140  0.5390  0.1795
  117OSM   H12B12168   0.323   4.480   8.189 -1.4019 -1.8707 -0.7782
  117OSM    C1112169   0.146   4.586   8.138  0.0893  0.3769  0.1255
  117OSM   H11A12170   0.039   4.595   8.166 -0.5673  0.5079 -2.1885
  117OSM   H11B12171   0.139   4.527   8.044  0.7830 -0.7227  0.7317
  117OSM      P12172   0.280   4.761   8.001 -0.1678 -0.4189  0.0974
  117OSM    O1312173   0.327   4.897   8.040 -0.0103  0.1768  0.4462
  117OSM    O1412174   0.381   4.656   7.977 -0.2752 -0.0187 -0.2025
  117OSM    O1112175   0.187   4.759   7.883  0.1506  0.1676  0.5944
  117OSM    O1212176   0.189   4.714   8.116  0.6695 -0.4471 -0.5885
  117OSM    C1S12177   0.056   4.813   7.884  0.7479  0.4497  0.8327
  117OSM    H1S12178   0.054   4.922   7.902 -0.7687  0.6223 -0.2450
  117OSM    H1T12179   0.008   4.770   7.975  3.3851 -1.4149  1.4771
  117OSM     NF12180  -0.153   4.840   7.734  0.8519 -0.3992  0.2549
  117OSM    HNF12181  -0.235   4.785   7.735 -0.1151  0.9619  2.0831
  117OSM    C2S12182  -0.031   4.759   7.756 -0.8541 -0.0306  0.0222
  117OSM    H2S12183   0.032   4.783   7.669  0.2797  1.7755  1.2778
  117OSM    C3S12184  -0.045   4.612   7.753 -0.3457 -0.4180  0.0939
  117OSM    H3S12185  -0.114   4.586   7.836 -0.1238  2.6754  1.3544
  117OSM     O312186   0.068   4.533   7.788 -0.0820  0.1160  0.1934
  117OSM    HO312187   0.127   4.595   7.832  0.4975  1.4061 -2.1882
  117OSM    C4S12188  -0.100   4.563   7.622  0.9441 -0.3086 -0.1165
  117OSM    H4S12189  -0.208   4.550   7.612  0.9549 -0.7674  0.3242
  117OSM    C5S12190  -0.029   4.545   7.511  0.2796  0.3751  0.6233
  117OSM    H5S12191   0.080   4.551   7.505  0.5542 -0.2304  3.6926
  117OSM    C6S12192  -0.085   4.501   7.378 -0.3545 -0.1929  0.7011
  117OSM    H6S12193  -0.191   4.473   7.393 -0.4659 -0.1868 -0.0292
  117OSM    H6T12194  -0.031   4.413   7.335 -0.1314  0.5108 -0.5086
  117OSM    C7S12195  -0.083   4.613   7.270 -0.0555 -0.1945  0.2528
  117OSM    H7S12196   0.020   4.656   7.276 -0.5527  1.2018 -0.7237
  117OSM    H7T12197  -0.157   4.689   7.302 -0.3394 -0.4407  0.1794
  117OSM    C8S12198  -0.101   4.579   7.129  0.2130 -0.2610  0.6331
  117OSM    H8S12199  -0.205   4.543   7.115 -0.4040  1.7587 -0.3086
  117OSM    H8T12200  -0.034   4.501   7.086 -3.0561 -3.0498  0.1665
  117OSM    C9S12201  -0.074   4.699   7.036  0.2500  0.4202 -0.0754
  117OSM    H9S12202   0.022   4.745   7.065  0.6914 -1.5469  1.9228
  117OSM    H9T12203  -0.158   4.769   7.056 -0.0871  0.4858 -1.5962
  117OSM   C10S12204  -0.063   4.666   6.889  0.0354 -0.2664  0.3144
  117OSM   H10S12205  -0.140   4.592   6.857 -1.5182  1.3784  0.0882
  117OSM   H10T12206   0.039   4.623   6.880  1.1087  2.1370  0.1873
  117OSM   C11S12207  -0.075   4.793   6.800 -0.6758  0.4443 -0.3020
  117OSM   H11S12208  -0.013   4.868   6.854  0.0492 -0.2054 -0.2078
  117OSM   H11T12209  -0.180   4.830   6.807 -1.6736 -2.0443 -1.0159
  117OSM   C12S12210  -0.036   4.768   6.650 -0.1275  0.0220 -0.4586
  117OSM   H12S12211  -0.077   4.668   6.622  1.6324 -1.4056  1.7617
  117OSM   H12T12212   0.074   4.772   6.658 -0.2452  3.2089  1.0777
  117OSM   C13S12213  -0.061   4.876   6.542  0.0735  0.8846  0.5609
  117OSM   H13S12214  -0.025   4.973   6.584 -0.7611  2.0687 -1.3282
  117OSM   H13T12215  -0.172   4.887   6.537 -0.3525 -2.7626 -1.1045
  117OSM   C14S12216   0.014   4.850   6.409  0.3180 -0.9739 -0.2450
  117OSM   H14S12217  -0.040   4.769   6.356 -0.2031 -1.4682  1.0091
  117OSM   H14T12218   0.121   4.822   6.422  1.2637  1.8490 -1.1421
  117OSM   C15S12219   0.010   4.984   6.324  0.0335 -0.1481 -1.0160
  117OSM   H15S12220   0.064   5.063   6.380 -0.3947 -1.3656  1.2361
  117OSM   H15T12221  -0.097   5.016   6.323  0.2684  0.8122  0.5214
  117OSM   C16S12222   0.075   4.974   6.180  0.0188 -0.4770 -0.8275
  117OSM   H16S12223   0.038   4.882   6.131  1.1616 -1.0317 -0.6858
  117OSM   H16T12224   0.185   4.967   6.197 -0.0386  1.1761  0.5451
  117OSM   C17S12225   0.038   5.106   6.096  0.0652  0.2705 -0.6500
  117OSM   H17S12226   0.084   5.198   6.138  1.6540 -1.2819  1.1962
  117OSM   H17T12227  -0.071   5.118   6.112 -0.0198 -0.7463 -0.3907
  117OSM   C18S12228   0.066   5.096   5.952 -0.0014  0.2445 -1.1340
  117OSM   H18S12229   0.049   5.196   5.905 -1.4778 -0.6120 -2.5032
  117OSM   H18T12230  -0.004   5.034   5.893 -0.9660  0.3537 -0.1357
  117OSM   H18U12231   0.171   5.059   5.945  0.3042  0.8827 -0.1526
  117OSM    C1F12232  -0.163   4.976   7.728 -0.1070 -0.9894 -0.0816
  117OSM     OF12233  -0.059   5.044   7.727  0.0265 -0.3332 -0.6642
  117OSM    C2F12234  -0.297   5.045   7.730 -0.2544  0.3997  0.2648
  117OSM    H2F12235  -0.286   5.154   7.711  0.7477 -0.1707 -3.0680
  117OSM    H2G12236  -0.356   5.025   7.823  1.6685  3.0826  2.2157
  117OSM    C3F12237  -0.378   4.996   7.603  1.1076  0.0713 -0.5042
  117OSM    H3F12238  -0.488   5.010   7.617  0.6145 -0.6331 -3.1701
  117OSM    H3G12239  -0.382   4.887   7.586  0.7561  0.1166 -0.7377
  117OSM    C4F12240  -0.350   5.065   7.472 -1.0304  0.1097 -0.0522
  117OSM    H4F12241  -0.323   5.171   7.494 -0.3267  0.0225 -0.4554
  117OSM    H4G12242  -0.436   5.059   7.402  0.7156 -0.3063 -2.2698
  117OSM    C5F12243  -0.234   5.004   7.398 -0.9782 -0.0137  0.0426
  117OSM    H5F12244  -0.255   4.903   7.356 -1.0259  0.2091 -0.4787
  117OSM    H5G12245  -0.147   4.980   7.463  1.2360 -1.3182 -3.1108
  117OSM    C6F12246  -0.179   5.092   7.287 -0.5294 -0.2305  0.2962
  117OSM    H6F12247  -0.090   5.051   7.236 -0.7962 -1.3613  0.7230
  117OSM    H6G12248  -0.142   5.187   7.333  1.4238  0.4047 -2.3236
  117OSM    C7F12249  -0.293   5.127   7.190 -0.3303  0.0791 -0.0667
  117OSM    H7F12250  -0.377   5.165   7.253 -0.1229 -2.1486  1.7053
  117OSM    H7G12251  -0.330   5.033   7.146  0.3059  0.4426 -1.4100
  117OSM    C8F12252  -0.253   5.238   7.088  0.3403  0.2696 -0.0952
  117OSM    H8F12253  -0.232   5.327   7.151  0.2923 -0.4095  0.8952
  117OSM    H8G12254  -0.336   5.281   7.027  0.0346  0.4516  0.4386
  117OSM    C9F12255  -0.130   5.211   7.007 -0.1830 -0.1303  0.2073
  117OSM    H9F12256  -0.039   5.231   7.065  1.0551 -3.5720 -0.3385
  117OSM   C10F12257  -0.132   5.160   6.880 -0.6183 -0.1834 -0.5238
  117OSM   H10F12258  -0.032   5.149   6.834 -0.5113 -0.5956 -0.1981
  117OSM   C11F12259  -0.254   5.145   6.793  0.7114 -0.4292  0.4366
  117OSM   H11F12260  -0.347   5.164   6.850  0.3637 -0.6123 -0.0677
  117OSM   H11G12261  -0.260   5.044   6.748  1.9878  0.0714 -0.9051
  117OSM   C12F12262  -0.255   5.236   6.664 -0.0937 -0.3308  0.4419
  117OSM   H12F12263  -0.155   5.221   6.617  0.9816  0.7050  2.3087
  117OSM   H12G12264  -0.277   5.340   6.696  0.6338  0.5345 -1.6948
  117OSM   C13F12265  -0.358   5.180   6.566  0.4644  0.6725  0.4902
  117OSM   H13F12266  -0.451   5.165   6.624  1.6921 -1.5920  2.0023
  117OSM   H13G12267  -0.323   5.076   6.549  1.2574  0.3008  3.7513
  117OSM   C14F12268  -0.380   5.257   6.435 -0.3789  0.9566 -0.3351
  117OSM   H14F12269  -0.417   5.359   6.459  0.8011  1.4008 -0.3717
  117OSM   H14G12270  -0.457   5.199   6.379 -0.0048  0.5133 -0.3935
  117OSM   C15F12271  -0.256   5.284   6.347 -0.4866  0.4916 -0.9068
  117OSM   H15F12272  -0.207   5.189   6.318 -0.0217  0.1338  0.9666
  117OSM   H15G12273  -0.175   5.341   6.397  0.0741  1.2804 -2.6415
  117OSM   C16F12274  -0.306   5.376   6.227  0.6023 -0.2698  0.4856
  117OSM   H16F12275  -0.338   5.475   6.267 -3.2507 -1.1843  0.0485
  117OSM   H16G12276  -0.396   5.324   6.190  1.7103 -0.3145 -2.3973
  117OSM   C17F12277  -0.206   5.392   6.107 -0.3861  0.2750  0.1614
  117OSM   H17F12278  -0.201   5.295   6.053 -1.9777 -0.4718  1.3032
  117OSM   H17G12279  -0.107   5.426   6.144 -0.3568  0.3090  0.0549
  117OSM   C18F12280  -0.250   5.498   6.003 -0.8786  0.3299 -0.3423
  117OSM   H18F12281  -0.253   5.600   6.048  1.0064 -0.1998  1.0942
  117OSM   H18G12282  -0.350   5.473   5.961 -0.8964 -4.2563  1.8897
  117OSM   H18H12283  -0.190   5.499   5.909  1.1770 -1.0401  0.9032
  118OSM      N12284   1.475   5.213   0.021 -0.0738 -0.0096  0.3845
  118OSM    C1512285   1.478   5.289   0.154  0.2804  0.4007 -0.2139
  118OSM   H15A12286   1.570   5.303   0.208 -0.2271  0.4419  0.6686
  118OSM   H15B12287   1.409   5.249   0.228  0.4687  0.1173 -0.1887
  118OSM   H15C12288   1.433   5.386   0.138 -2.9369 -0.8168  0.4957
  118OSM    C1412289   1.534   5.075   0.029 -0.4686  0.6540  0.6607
  118OSM   H14A12290   1.630   5.088   0.078  0.3363 -1.3409 -0.2597
  118OSM   H14B12291   1.553   5.023  -0.063 -1.2861  0.2698  0.7021
  118OSM   H14C12292   1.475   5.009   0.091 -0.0577 -2.4256 -1.9765
  118OSM    C1312293   1.334   5.195  -0.009  0.2141  0.0782  0.3676
  118OSM   H13A12294   1.292   5.124   0.061 -1.0324  0.1860 -0.2504
  118OSM   H13B12295   1.323   5.149  -0.106 -1.8988 -1.7105  1.3876
  118OSM   H13C12296   1.275   5.286  -0.005 -2.1291 -1.3598  0.2041
  118OSM    C1212297   1.541   5.305  -0.083 -0.1729 -0.0870 -0.6947
  118OSM   H12A12298   1.637   5.344  -0.056  0.0961 -0.0661 -1.6470
  118OSM   H12B12299   1.477   5.391  -0.095 -0.1986 -0.0599 -0.3499
  118OSM    C1112300   1.564   5.253  -0.219 -0.4442 -0.1644  0.6819
  118OSM   H11A12301   1.621   5.160  -0.204  1.0135  0.7114  0.7602
  118OSM   H11B12302   1.625   5.329  -0.273 -2.7649  1.4386  0.1285
  118OSM      P12303   1.376   5.324  -0.393  0.1793  0.1466 -0.3175
  118OSM    O1312304   1.270   5.250  -0.467  0.0936 -0.2273  0.1417
  118OSM    O1412305   1.339   5.443  -0.310 -0.4323 -0.6846 -0.2336
  118OSM    O1112306   1.490   5.372  -0.488  0.5546 -0.2916 -0.1160
  118OSM    O1212307   1.446   5.223  -0.293 -0.4653 -0.3618 -0.0497
  118OSM    C1S12308   1.562   5.279  -0.573  0.7925 -0.3242  0.3230
  118OSM    H1S12309   1.558   5.185  -0.513  0.1573  0.1113  0.9797
  118OSM    H1T12310   1.666   5.318  -0.578  0.9241 -0.2624  2.5554
  118OSM     NF12311   1.577   5.160  -0.785 -0.9049 -0.6431  1.4457
  118OSM    HNF12312   1.651   5.193  -0.844  0.1815 -0.6108  2.7773
  118OSM    C2S12313   1.498   5.256  -0.717  0.1490 -1.0283  0.2818
  118OSM    H2S12314   1.393   5.220  -0.711 -0.9583  1.9746  0.3346
  118OSM    C3S12315   1.482   5.391  -0.797  0.3359  0.0555  0.1734
  118OSM    H3S12316   1.581   5.441  -0.801 -0.5304  2.0343  1.8612
  118OSM     O312317   1.399   5.490  -0.725  0.2591  0.3552 -0.1984
  118OSM    HO312318   1.390   5.464  -0.633 -1.9435  2.2828  0.2331
  118OSM    C4S12319   1.441   5.374  -0.943 -0.6315  0.2900 -0.3911
  118OSM    H4S12320   1.529   5.371  -1.009  0.0743  0.3098  0.5321
  118OSM    C5S12321   1.318   5.365  -0.986 -0.4731 -0.2584  0.1279
  118OSM    H5S12322   1.233   5.394  -0.923  1.0231  1.1544  1.5726
  118OSM    C6S12323   1.279   5.352  -1.132 -0.1055 -0.0907 -0.0872
  118OSM    H6S12324   1.218   5.260  -1.148  0.2022 -0.5372  1.1679
  118OSM    H6T12325   1.371   5.341  -1.194  0.3092  1.8167  0.1506
  118OSM    C7S12326   1.218   5.474  -1.192 -0.0028 -0.0763 -0.4117
  118OSM    H7S12327   1.275   5.568  -1.178 -1.6102  1.1102 -1.4774
  118OSM    H7T12328   1.121   5.509  -1.151  0.5687 -0.5169  1.4110
  118OSM    C8S12329   1.204   5.454  -1.346  0.2383  0.3818  0.3612
  118OSM    H8S12330   1.126   5.375  -1.349 -1.8294  2.3343 -0.6190
  118OSM    H8T12331   1.302   5.422  -1.387 -0.4309 -2.0469  0.5220
  118OSM    C9S12332   1.161   5.570  -1.429 -0.2463 -0.2595  0.4519
  118OSM    H9S12333   1.235   5.652  -1.427 -0.8344  0.3011 -0.0587
  118OSM    H9T12334   1.066   5.612  -1.389  0.8845  1.2424  1.6677
  118OSM   C10S12335   1.145   5.528  -1.575  0.1866 -0.5440 -0.8738
  118OSM   H10S12336   1.059   5.459  -1.590 -2.0078  1.7466  0.4542
  118OSM   H10T12337   1.237   5.475  -1.608 -0.1595 -0.3380 -2.2263
  118OSM   C11S12338   1.144   5.650  -1.676 -0.2446  0.7717 -0.9049
  118OSM   H11S12339   1.228   5.718  -1.651 -0.7226  0.4373  2.0544
  118OSM   H11T12340   1.058   5.719  -1.664  0.5858  1.5577  1.0474
  118OSM   C12S12341   1.166   5.613  -1.816  0.2104  0.5440  0.6796
  118OSM   H12S12342   1.115   5.524  -1.859  0.7309  1.3422 -1.7789
  118OSM   H12T12343   1.273   5.586  -1.830 -0.3753 -1.3209 -0.6484
  118OSM   C13S12344   1.143   5.723  -1.923 -0.2589 -0.5727  0.5078
  118OSM   H13S12345   1.186   5.815  -1.878 -0.4614 -0.4769  0.5070
  118OSM   H13T12346   1.038   5.752  -1.947 -0.1406 -0.1004  0.5492
  118OSM   C14S12347   1.218   5.700  -2.052  0.2195 -0.5799 -0.0915
  118OSM   H14S12348   1.179   5.614  -2.112 -0.5150 -1.0914  1.0872
  118OSM   H14T12349   1.327   5.707  -2.031  0.4135 -0.4805 -1.0882
  118OSM   C15S12350   1.195   5.817  -2.153 -0.0361 -0.2840  0.4193
  118OSM   H15S12351   1.209   5.915  -2.101  1.8701  0.9566 -2.1864
  118OSM   H15T12352   1.091   5.813  -2.191  0.0719  2.6060 -0.4926
  118OSM   C16S12353   1.292   5.810  -2.278  0.5373  0.2747 -0.9526
  118OSM   H16S12354   1.395   5.789  -2.243  0.6023  1.4470 -0.3917
  118OSM   H16T12355   1.276   5.904  -2.336 -1.4438  0.3992 -0.2750
  118OSM   C17S12356   1.239   5.705  -2.379 -0.2196  0.3801  0.7392
  118OSM   H17S12357   1.226   5.610  -2.324 -1.4962 -0.7691 -1.4120
  118OSM   H17T12358   1.316   5.673  -2.452 -1.0022  0.2453 -0.0474
  118OSM   C18S12359   1.110   5.739  -2.451  0.1182 -0.0642  0.1138
  118OSM   H18S12360   1.137   5.825  -2.516  1.6530  0.1695  1.0087
  118OSM   H18T12361   1.025   5.763  -2.383  0.3757  0.7438  0.1563
  118OSM   H18U12362   1.070   5.662  -2.520  1.7677 -0.1919 -0.7477
  118OSM    C1F12363   1.573   5.030  -0.761  0.1695  0.0448 -0.4111
  118OSM     OF12364   1.494   4.989  -0.675  0.2447  0.3173  0.2668
  118OSM    C2F12365   1.659   4.933  -0.838 -0.5494  0.2680  0.1114
  118OSM    H2F12366   1.721   4.866  -0.775  0.0776  1.2292  0.5345
  118OSM    H2G12367   1.734   4.988  -0.899  0.4322 -0.8030  0.3012
  118OSM    C3F12368   1.569   4.845  -0.928 -0.1200 -0.4594 -0.2390
  118OSM    H3F12369   1.492   4.905  -0.983  0.8460 -0.9253 -2.1758
  118OSM    H3G12370   1.521   4.772  -0.859  1.0012 -0.1437  0.8954
  118OSM    C4F12371   1.647   4.762  -1.031 -0.3001 -0.3251 -0.2494
  118OSM    H4F12372   1.582   4.695  -1.091 -0.5660  0.5724 -0.9950
  118OSM    H4G12373   1.711   4.687  -0.980 -1.0950 -0.8943 -0.0790
  118OSM    C5F12374   1.728   4.846  -1.131  0.0161  0.4972  0.9390
  118OSM    H5F12375   1.794   4.912  -1.070 -1.3911 -0.0158  3.1544
  118OSM    H5G12376   1.657   4.910  -1.188 -0.9581  0.6197  2.2130
  118OSM    C6F12377   1.798   4.760  -1.230  0.3467 -0.2757  1.0269
  118OSM    H6F12378   1.724   4.708  -1.294  0.2740  0.6614  0.3196
  118OSM    H6G12379   1.869   4.686  -1.189  0.1319 -0.0845  1.7467
  118OSM    C7F12380   1.882   4.854  -1.324 -0.2607 -0.3191  0.1164
  118OSM    H7F12381   1.971   4.885  -1.265 -0.0708 -0.4064 -0.1264
  118OSM    H7G12382   1.818   4.938  -1.359  0.4660  0.5809  0.9091
  118OSM    C8F12383   1.939   4.770  -1.449 -0.2139  0.2871 -0.5556
  118OSM    H8F12384   2.007   4.693  -1.407  0.9774  1.3879 -0.4229
  118OSM    H8G12385   2.008   4.839  -1.500 -0.7685  0.0963 -1.6044
  118OSM    C9F12386   1.830   4.712  -1.541  0.0829 -0.4511  0.0776
  118OSM    H9F12387   1.778   4.625  -1.498  0.3888 -0.4766  0.4085
  118OSM   C10F12388   1.804   4.751  -1.670  0.1925 -0.3053 -0.1033
  118OSM   H10F12389   1.720   4.713  -1.731 -0.2661  1.3326 -0.5680
  118OSM   C11F12390   1.875   4.864  -1.737  0.0485 -0.3535  0.3549
  118OSM   H11F12391   1.855   4.847  -1.845 -1.6688 -0.0701  0.5957
  118OSM   H11G12392   1.986   4.860  -1.732  0.1920 -0.3022 -1.8589
  118OSM   C12F12393   1.835   5.004  -1.699  0.0566 -0.0042 -0.1346
  118OSM   H12F12394   1.874   5.030  -1.598  1.5468  1.8385 -1.1246
  118OSM   H12G12395   1.725   5.005  -1.711  0.2601 -0.4442 -2.4633
  118OSM   C13F12396   1.890   5.115  -1.782 -0.0914 -0.1966  0.0985
  118OSM   H13F12397   1.998   5.089  -1.789  0.5600  1.5037  2.4490
  118OSM   H13G12398   1.895   5.202  -1.712 -2.0407 -1.9139  2.5297
  118OSM   C14F12399   1.836   5.141  -1.918  0.0133 -0.3983  0.9721
  118OSM   H14F12400   1.772   5.229  -1.897 -0.3020 -0.8064  1.7467
  118OSM   H14G12401   1.773   5.057  -1.955 -2.5919  0.1593  3.7713
  118OSM   C15F12402   1.941   5.176  -2.031  0.1497 -0.1072  0.8619
  118OSM   H15F12403   2.007   5.090  -2.057  0.9610  1.0184 -0.9788
  118OSM   H15G12404   2.013   5.252  -1.995  0.3329  0.6609 -0.9804
  118OSM   C16F12405   1.883   5.231  -2.163  0.0395 -0.3219 -0.3373
  118OSM   H16F12406   1.855   5.335  -2.137 -2.7919 -1.5683  2.2289
  118OSM   H16G12407   1.789   5.174  -2.178 -0.1711  0.0008 -0.2573
  118OSM   C17F12408   1.968   5.230  -2.291  0.8161 -0.1523 -0.4485
  118OSM   H17F12409   2.001   5.127  -2.317  5.2353  0.9842 -0.2204
  118OSM   H17G12410   2.059   5.292  -2.279  0.4760  0.5153 -1.1862
  118OSM   C18F12411   1.894   5.307  -2.402  0.0769 -0.0552 -0.4642
  118OSM   H18F12412   1.788   5.283  -2.421  0.9779 -1.8896 -4.1129
  118OSM   H18G12413   1.959   5.294  -2.492 -0.3691  0.4384 -0.8677
  118OSM   H18H12414   1.912   5.416  -2.385  2.6792 -0.4587 -0.1751
  119OSM      N12415   4.167   2.330   8.158 -0.4138  0.2397  0.1283
  119OSM    C1512416   4.306   2.381   8.197  0.3358  0.1923 -0.0974
  119OSM   H15A12417   4.386   2.333   8.142  0.7369  0.8553 -0.0976
  119OSM   H15B12418   4.322   2.391   8.303  1.4451  1.3787 -0.3469
  119OSM   H15C12419   4.318   2.484   8.167  1.3378 -0.6855 -3.0808
  119OSM    C1412420   4.137   2.197   8.211 -0.3619  0.1897  0.4250
  119OSM   H14A12421   4.034   2.164   8.203 -0.9859  2.2861 -0.7728
  119OSM   H14B12422   4.169   2.200   8.314  1.6318 -2.9267  0.0523
  119OSM   H14C12423   4.201   2.121   8.168  1.8441  2.4123 -0.4416
  119OSM    C1312424   4.070   2.426   8.224 -0.1795 -0.6863 -0.0497
  119OSM   H13A12425   4.108   2.528   8.226  1.3226 -1.2249  1.3317
  119OSM   H13B12426   4.048   2.386   8.322 -0.2668  0.1578  0.2839
  119OSM   H13C12427   3.975   2.416   8.173 -0.7376  0.2523  0.7651
  119OSM    C1212428   4.155   2.332   8.009 -0.0399 -0.4990  0.0132
  119OSM   H12A12429   4.228   2.261   7.973  0.7163 -0.2897  1.0725
  119OSM   H12B12430   4.185   2.429   7.973 -0.5169 -0.7723 -1.1579
  119OSM    C1112431   4.019   2.297   7.946  0.1938  0.5290  0.6194
  119OSM   H11A12432   3.969   2.224   8.014  0.0395 -0.2821 -0.3436
  119OSM   H11B12433   4.031   2.250   7.846 -0.0975  2.5089 -0.3949
  119OSM      P12434   3.792   2.409   7.874 -0.0235  0.1558 -0.3212
  119OSM    O1312435   3.721   2.297   7.932  0.2490  0.1562 -0.1874
  119OSM    O1412436   3.726   2.543   7.876 -0.0581 -0.3394  0.4424
  119OSM    O1112437   3.816   2.367   7.729  0.1044 -0.3230 -0.0622
  119OSM    O1212438   3.944   2.412   7.921 -0.3976 -0.0137  0.3229
  119OSM    C1S12439   3.912   2.420   7.641 -0.0954  0.4855 -0.1597
  119OSM    H1S12440   4.005   2.360   7.654 -1.3576 -1.1510  1.9398
  119OSM    H1T12441   3.946   2.523   7.662  0.0174  0.2490  0.8344
  119OSM     NF12442   3.981   2.456   7.408 -0.8364  0.2953  0.4311
  119OSM    HNF12443   3.978   2.540   7.355  1.9213 -0.7383 -1.6117
  119OSM    C2S12444   3.869   2.420   7.494 -0.4864  0.1909 -0.4736
  119OSM    H2S12445   3.827   2.318   7.484  1.1264 -0.5213 -0.2902
  119OSM    C3S12446   3.755   2.523   7.470  0.5711 -0.5578  0.6697
  119OSM    H3S12447   3.789   2.627   7.490 -0.6904  0.0699 -0.3140
  119OSM     O312448   3.643   2.513   7.552 -0.1534 -0.1576 -0.1880
  119OSM    HO312449   3.673   2.434   7.597 -0.6413  0.4820  1.3181
  119OSM    C4S12450   3.717   2.521   7.323  0.0398  0.1237 -0.3071
  119OSM    H4S12451   3.793   2.571   7.260  1.2989 -1.9266 -0.5058
  119OSM    C5S12452   3.611   2.459   7.273  0.4884  0.1255  0.3064
  119OSM    H5S12453   3.537   2.418   7.344 -1.7291  1.5300 -1.0859
  119OSM    C6S12454   3.593   2.448   7.125  0.2918 -0.2294 -0.0467
  119OSM    H6S12455   3.653   2.361   7.092 -0.7804 -1.7431  1.8369
  119OSM    H6T12456   3.645   2.531   7.072  0.5791  0.5438  1.3943
  119OSM    C7S12457   3.440   2.420   7.100 -0.9127  0.4043  0.0839
  119OSM    H7S12458   3.374   2.487   7.160 -2.5567 -0.0111 -1.1904
  119OSM    H7T12459   3.419   2.321   7.146 -1.4747 -0.1182 -1.2712
  119OSM    C8S12460   3.400   2.422   6.953 -0.0190  0.1685  0.0439
  119OSM    H8S12461   3.442   2.511   6.902  0.8478 -0.3632 -0.1927
  119OSM    H8T12462   3.289   2.430   6.945  0.1160  0.5774 -2.0116
  119OSM    C9S12463   3.431   2.300   6.862 -0.1965 -0.3918  0.0817
  119OSM    H9S12464   3.387   2.204   6.897  0.4316 -0.8656 -0.4096
  119OSM    H9T12465   3.540   2.279   6.858 -0.3224 -0.8916 -0.8204
  119OSM   C10S12466   3.394   2.326   6.711 -0.6674  0.5966 -0.3801
  119OSM   H10S12467   3.443   2.419   6.675  1.3016  0.9605  2.8026
  119OSM   H10T12468   3.283   2.334   6.716 -0.8956 -2.0629  1.2385
  119OSM   C11S12469   3.426   2.214   6.605 -0.7445 -0.5355 -0.3672
  119OSM   H11S12470   3.395   2.115   6.644 -0.6974 -0.0664  0.9258
  119OSM   H11T12471   3.535   2.203   6.590 -0.8467 -1.7076 -0.2822
  119OSM   C12S12472   3.382   2.236   6.460  0.7743  0.0895 -0.2880
  119OSM   H12S12473   3.417   2.337   6.430  4.4100 -1.3147 -1.2993
  119OSM   H12T12474   3.271   2.238   6.464  0.7978 -0.3643  2.0439
  119OSM   C13S12475   3.435   2.142   6.353 -0.1536 -0.2718  0.3416
  119OSM   H13S12476   3.377   2.049   6.376  0.1470 -0.6545 -0.4127
  119OSM   H13T12477   3.540   2.109   6.367  0.8273  2.3213 -0.3767
  119OSM   C14S12478   3.404   2.186   6.210  0.1927 -0.4782  1.0161
  119OSM   H14S12479   3.448   2.117   6.135  0.9645  2.4184 -1.3827
  119OSM   H14T12480   3.443   2.288   6.194 -1.5970  0.4384  2.1788
  119OSM   C15S12481   3.249   2.199   6.190  0.3037 -0.3664  0.1652
  119OSM   H15S12482   3.208   2.286   6.246 -0.7858  0.5024 -1.8604
  119OSM   H15T12483   3.200   2.104   6.222 -1.4095  0.0798 -0.9790
  119OSM   C16S12484   3.214   2.204   6.041 -0.3949 -0.5503 -0.3508
  119OSM   H16S12485   3.268   2.296   6.011 -0.9267  0.3821  1.4388
  119OSM   H16T12486   3.105   2.217   6.026 -0.4537 -1.5536 -0.8664
  119OSM   C17S12487   3.259   2.088   5.948 -0.1298 -1.0189  0.8154
  119OSM   H17S12488   3.194   2.003   5.978 -1.1243 -0.3882  0.4727
  119OSM   H17T12489   3.367   2.061   5.955  1.1018  2.3539 -2.0757
  119OSM   C18S12490   3.224   2.116   5.802 -0.2977  0.5562  0.5710
  119OSM   H18S12491   3.116   2.140   5.792 -0.2383  0.2389 -1.3284
  119OSM   H18T12492   3.256   2.026   5.744  2.3400  0.4807  2.0198
  119OSM   H18U12493   3.283   2.204   5.769  1.4399 -0.5381  0.6007
  119OSM    C1F12494   4.091   2.381   7.391  1.2882  0.0395  0.0602
  119OSM     OF12495   4.095   2.276   7.456  0.3348  0.3482  0.3153
  119OSM    C2F12496   4.198   2.429   7.297 -0.0348  0.0592 -0.3286
  119OSM    H2F12497   4.288   2.434   7.361  0.7083 -0.2938 -1.3143
  119OSM    H2G12498   4.171   2.530   7.261  0.3757  1.3301  2.6495
  119OSM    C3F12499   4.230   2.328   7.185 -0.3273  0.6924  1.6846
  119OSM    H3F12500   4.258   2.229   7.227  0.6728  0.1393 -0.1826
  119OSM    H3G12501   4.313   2.367   7.122 -0.7741  0.2180  0.7793
  119OSM    C4F12502   4.108   2.296   7.089  0.0788 -0.0683  0.3880
  119OSM    H4F12503   4.029   2.248   7.152 -0.4589 -1.1229 -1.0378
  119OSM    H4G12504   4.134   2.226   7.007 -0.0798  1.4533 -0.9864
  119OSM    C5F12505   4.060   2.414   7.006 -0.1986  0.7206 -0.0961
  119OSM    H5F12506   4.146   2.472   6.966  1.0643  0.4678  2.0710
  119OSM    H5G12507   4.005   2.484   7.074 -0.9256  2.0863 -2.0057
  119OSM    C6F12508   3.968   2.364   6.892 -0.9092 -0.0264 -0.0005
  119OSM    H6F12509   3.891   2.294   6.931 -0.8602 -1.1076 -1.7639
  119OSM    H6G12510   4.020   2.309   6.811  2.0773  3.0585 -0.4253
  119OSM    C7F12511   3.895   2.484   6.829 -0.1390  0.6111  0.1451
  119OSM    H7F12512   3.960   2.574   6.822 -0.1722  0.5469 -1.2822
  119OSM    H7G12513   3.831   2.511   6.916  0.7550  0.2388  0.9353
  119OSM    C8F12514   3.815   2.434   6.707  0.2401  0.0329 -0.3478
  119OSM    H8F12515   3.754   2.352   6.750  0.0043  1.4519  2.2630
  119OSM    H8G12516   3.876   2.369   6.641  0.0188 -2.5015  1.7680
  119OSM    C9F12517   3.730   2.536   6.640  0.0061  0.0064 -0.5796
  119OSM    H9F12518   3.705   2.625   6.701 -0.5725 -0.6960  0.2398
  119OSM   C10F12519   3.691   2.533   6.508 -0.1106 -0.5665 -0.3405
  119OSM   H10F12520   3.625   2.614   6.473 -1.4691 -1.6263 -0.3494
  119OSM   C11F12521   3.722   2.429   6.407 -0.1946 -0.0721 -0.3972
  119OSM   H11F12522   3.629   2.385   6.365  1.4588 -3.2887 -0.9808
  119OSM   H11G12523   3.764   2.338   6.454 -2.9859  0.5540  3.8658
  119OSM   C12F12524   3.797   2.481   6.285 -0.1763 -0.0326  0.2715
  119OSM   H12F12525   3.889   2.534   6.316 -0.2473 -0.4158  1.1852
  119OSM   H12G12526   3.738   2.558   6.230 -0.4620  0.1557  0.8287
  119OSM   C13F12527   3.815   2.373   6.187 -0.2264 -0.3816  0.1138
  119OSM   H13F12528   3.716   2.324   6.180 -0.5330  0.3634 -1.1465
  119OSM   H13G12529   3.877   2.287   6.219 -0.4208 -1.2574 -1.7303
  119OSM   C14F12530   3.867   2.421   6.047  0.4388 -0.3298 -0.6006
  119OSM   H14F12531   3.971   2.458   6.052 -0.1082  1.6579 -2.1598
  119OSM   H14G12532   3.825   2.514   6.002  0.3854 -0.6949 -1.3187
  119OSM   C15F12533   3.861   2.316   5.937 -1.2553  0.0586  0.4641
  119OSM   H15F12534   3.932   2.238   5.973 -0.6586  1.3390  2.2282
  119OSM   H15G12535   3.903   2.357   5.842 -2.0532 -0.6377 -0.2104
  119OSM   C16F12536   3.732   2.239   5.907  0.5425 -0.3775  0.0645
  119OSM   H16F12537   3.695   2.190   5.999  0.3341  2.1882  1.4327
  119OSM   H16G12538   3.754   2.157   5.835  0.1272 -0.0792 -0.4116
  119OSM   C17F12539   3.621   2.333   5.850  0.8342  0.4127  0.1871
  119OSM   H17F12540   3.617   2.419   5.920  1.0504 -0.8165  1.7646
  119OSM   H17G12541   3.524   2.279   5.860  1.5867 -1.1134 -0.3595
  119OSM   C18F12542   3.643   2.365   5.706 -0.1591 -0.1079 -0.5508
  119OSM   H18F12543   3.660   2.266   5.657 -1.5531 -0.0257 -1.2787
  119OSM   H18G12544   3.724   2.437   5.684 -1.2064  1.4556  0.4891
  119OSM   H18H12545   3.547   2.407   5.668 -0.4170  0.2222  0.4361
  120OSM      N12546   5.113   2.234   8.203  1.0344  0.8721  0.3449
  120OSM    C1512547   5.106   2.177   8.340  0.7019 -0.2104  0.8980
  120OSM   H15A12548   5.006   2.141   8.357 -0.1986  0.7714 -1.7797
  120OSM   H15B12549   5.136   2.248   8.415  1.1200 -0.5064  1.0125
  120OSM   H15C12550   5.163   2.085   8.344  2.1708  0.5878 -0.5046
  120OSM    C1412551   5.031   2.360   8.194 -0.2705  0.1862 -0.1400
  120OSM   H14A12552   5.052   2.418   8.105  1.1026 -1.4621 -0.9675
  120OSM   H14B12553   5.057   2.426   8.275 -1.0525 -1.8759  1.8959
  120OSM   H14C12554   4.925   2.338   8.196 -0.2867  0.0629 -1.3662
  120OSM    C1312555   5.258   2.268   8.179 -0.4482  0.3814  0.3728
  120OSM   H13A12556   5.269   2.340   8.100 -0.4207  2.6403  2.3177
  120OSM   H13B12557   5.321   2.182   8.159  0.6703  1.1148  0.6598
  120OSM   H13C12558   5.299   2.309   8.270  0.6898 -3.1280  1.6278
  120OSM    C1212559   5.059   2.130   8.108  0.2704 -0.0193 -0.3927
  120OSM   H12A12560   4.954   2.136   8.131  0.3063 -1.7713  0.3794
  120OSM   H12B12561   5.101   2.033   8.131 -1.8769 -0.6719  1.0414
  120OSM    C1112562   5.080   2.144   7.957 -0.0087  0.1172  0.4671
  120OSM   H11A12563   5.067   2.251   7.929  1.6529  0.3120  0.3472
  120OSM   H11B12564   4.996   2.089   7.910 -1.2110  0.8278  1.7381
  120OSM      P12565   5.254   1.956   7.901 -0.0091 -0.2815  0.1383
  120OSM    O1312566   5.382   1.941   7.832  0.3175  0.2726  0.5221
  120OSM    O1412567   5.259   1.907   8.045 -0.0838 -0.0951 -0.6914
  120OSM    O1112568   5.135   1.876   7.829 -0.3927  0.2529 -0.4152
  120OSM    O1212569   5.212   2.112   7.905  0.4062 -0.0578 -0.4281
  120OSM    C1S12570   5.115   1.902   7.685 -0.3149  1.0930 -0.3167
  120OSM    H1S12571   5.160   1.999   7.657  1.5230  1.2944  2.8918
  120OSM    H1T12572   5.005   1.912   7.672 -0.3653  0.5227 -0.3329
  120OSM     NF12573   5.170   1.828   7.463 -0.0502 -0.0445  0.3081
  120OSM    HNF12574   5.110   1.782   7.398 -0.7643 -0.3197  1.1383
  120OSM    C2S12575   5.168   1.784   7.603  0.4135  0.2191 -0.5364
  120OSM    H2S12576   5.273   1.756   7.625  1.8863  2.7991 -3.5663
  120OSM    C3S12577   5.073   1.665   7.636 -0.6434 -0.2361  0.9869
  120OSM    H3S12578   4.971   1.702   7.615  0.2930  1.6230 -0.5957
  120OSM     O312579   5.071   1.628   7.773  0.8363 -0.0705  0.5465
  120OSM    HO312580   5.111   1.705   7.813  0.6390  1.1439 -1.5136
  120OSM    C4S12581   5.108   1.546   7.550 -0.3103 -1.0076 -0.4237
  120OSM    H4S12582   5.195   1.486   7.578  0.8774  0.2166 -1.3774
  120OSM    C5S12583   5.030   1.486   7.457  0.4622 -0.2392 -0.1767
  120OSM    H5S12584   4.934   1.531   7.429  0.5952  0.6348  0.7308
  120OSM    C6S12585   5.056   1.352   7.406  0.5371  0.2835  0.2329
  120OSM    H6S12586   4.961   1.297   7.390  0.3489  0.2416  1.4329
  120OSM    H6T12587   5.121   1.304   7.483  2.2126 -1.3472 -2.0538
  120OSM    C7S12588   5.132   1.346   7.277 -0.0227  0.3489  0.4307
  120OSM    H7S12589   5.216   1.418   7.277  0.5303 -0.2594  1.7806
  120OSM    H7T12590   5.066   1.377   7.194  0.2785  1.5825  0.6346
  120OSM    C8S12591   5.185   1.203   7.254 -0.6527  0.3392  0.3256
  120OSM    H8S12592   5.104   1.129   7.275  0.6808 -2.0900 -2.2998
  120OSM    H8T12593   5.260   1.183   7.333 -1.2737  1.8809  1.3433
  120OSM    C9S12594   5.237   1.160   7.111 -0.4912  0.3655 -0.2461
  120OSM    H9S12595   5.261   1.052   7.104  0.5991  0.6178 -0.6436
  120OSM    H9T12596   5.338   1.207   7.106 -0.3918  0.0310 -1.7127
  120OSM   C10S12597   5.153   1.210   6.993  0.8255  0.0108  0.1007
  120OSM   H10S12598   5.150   1.320   7.005 -0.6378  0.1189 -1.0339
  120OSM   H10T12599   5.050   1.168   6.987  0.3453  1.2515 -0.5490
  120OSM   C11S12600   5.226   1.183   6.863 -0.1450 -0.1456  0.1209
  120OSM   H11S12601   5.253   1.075   6.871  2.1043  0.4064  0.8856
  120OSM   H11T12602   5.321   1.241   6.859  0.4065 -0.9827  0.5703
  120OSM   C12S12603   5.148   1.212   6.731 -0.2099  0.1860 -0.1544
  120OSM   H12S12604   5.083   1.299   6.754  0.2423  0.8043 -1.1489
  120OSM   H12T12605   5.078   1.129   6.707 -0.0468  0.4823 -1.7609
  120OSM   C13S12606   5.240   1.227   6.609  0.3112  0.4362 -0.1850
  120OSM   H13S12607   5.301   1.135   6.597 -1.9461 -1.1142 -0.2953
  120OSM   H13T12608   5.310   1.310   6.631 -0.7761  1.6063 -0.9966
  120OSM   C14S12609   5.156   1.236   6.478  0.4419 -0.3405 -0.6191
  120OSM   H14S12610   5.112   1.338   6.471  1.6439  0.0539 -3.3587
  120OSM   H14T12611   5.073   1.163   6.475 -3.2811  2.9087  4.7091
  120OSM   C15S12612   5.245   1.227   6.353 -0.5997  0.7030 -0.4812
  120OSM   H15S12613   5.218   1.128   6.312  0.1921  0.9809 -1.7292
  120OSM   H15T12614   5.354   1.227   6.375 -0.4162 -0.5754 -1.2982
  120OSM   C16S12615   5.217   1.333   6.252 -0.5228  0.8970 -0.8386
  120OSM   H16S12616   5.221   1.437   6.291 -1.2413 -0.3208  2.7921
  120OSM   H16T12617   5.111   1.331   6.219 -0.7289 -1.7131 -0.2062
  120OSM   C17S12618   5.302   1.319   6.126 -0.2487  0.2424 -0.0505
  120OSM   H17S12619   5.408   1.306   6.156  0.1267 -1.5070 -1.9252
  120OSM   H17T12620   5.296   1.409   6.061 -1.7710 -1.4151 -2.3398
  120OSM   C18S12621   5.266   1.193   6.041  0.4395 -0.5335 -0.3126
  120OSM   H18S12622   5.223   1.111   6.102 -1.7883  1.3107  0.7284
  120OSM   H18T12623   5.359   1.168   5.986  0.2646  0.1184 -0.9136
  120OSM   H18U12624   5.186   1.213   5.967  0.2432 -3.2195 -0.9110
  120OSM    C1F12625   5.268   1.908   7.426 -1.2438  0.3179 -1.3079
  120OSM     OF12626   5.345   1.966   7.506 -0.2268  0.1034  0.3105
  120OSM    C2F12627   5.299   1.916   7.275 -0.5542 -0.6339 -1.3371
  120OSM    H2F12628   5.230   1.982   7.219  0.5832  0.3008 -1.6960
  120OSM    H2G12629   5.290   1.812   7.237  2.3875 -0.0394 -4.0914
  120OSM    C3F12630   5.440   1.981   7.248 -0.3636  0.1069 -0.1315
  120OSM    H3F12631   5.515   1.926   7.309 -0.1867  0.6291  0.1274
  120OSM    H3G12632   5.443   2.088   7.277 -0.6142 -0.1124  0.7333
  120OSM    C4F12633   5.484   1.987   7.101 -0.1185  0.5523  0.6369
  120OSM    H4F12634   5.572   2.054   7.093 -0.6409  1.0925 -1.2667
  120OSM    H4G12635   5.397   2.017   7.038  0.8732 -0.9376 -1.5696
  120OSM    C5F12636   5.535   1.850   7.059 -0.4749  0.0900 -0.3115
  120OSM    H5F12637   5.461   1.770   7.082  0.7750 -0.8297  0.6653
  120OSM    H5G12638   5.614   1.821   7.132  0.1508 -1.6883 -1.6213
  120OSM    C6F12639   5.587   1.845   6.908 -0.0387  0.4908  0.5050
  120OSM    H6F12640   5.498   1.861   6.844  0.7149  2.4972 -0.1411
  120OSM    H6G12641   5.631   1.745   6.888  0.7055  1.1008 -1.0863
  120OSM    C7F12642   5.688   1.957   6.868 -0.2997 -0.5750 -0.9015
  120OSM    H7F12643   5.772   1.966   6.941 -0.4788 -0.9757 -0.6384
  120OSM    H7G12644   5.640   2.057   6.864  1.1239  0.1561 -0.5276
  120OSM    C8F12645   5.739   1.942   6.718 -0.2004 -0.6955 -0.7514
  120OSM    H8F12646   5.790   2.036   6.688  1.7744 -0.1438  3.5853
  120OSM    H8G12647   5.649   1.934   6.654 -0.9875  2.7033 -0.2731
  120OSM    C9F12648   5.818   1.822   6.693  0.4580  0.0033 -0.0373
  120OSM    H9F12649   5.824   1.757   6.782  1.4740 -0.4104 -0.3904
  120OSM   C10F12650   5.892   1.796   6.582 -0.6462 -0.2560 -0.6425
  120OSM   H10F12651   5.941   1.698   6.584  0.2199  0.1691 -0.4006
  120OSM   C11F12652   5.912   1.884   6.462 -0.5345  0.9358  0.8020
  120OSM   H11F12653   6.006   1.860   6.408 -1.9839  0.7392 -1.7594
  120OSM   H11G12654   5.910   1.991   6.492  2.9224  1.7196 -1.1413
  120OSM   C12F12655   5.797   1.874   6.354 -1.0356 -0.9219  0.6408
  120OSM   H12F12656   5.704   1.840   6.404 -1.3905 -0.1878  0.4871
  120OSM   H12G12657   5.824   1.788   6.290 -2.1954 -0.3842 -0.6348
  120OSM   C13F12658   5.761   1.999   6.265  0.6286 -0.0343 -0.4405
  120OSM   H13F12659   5.747   2.086   6.333  0.6516  0.1614 -0.6895
  120OSM   H13G12660   5.671   1.985   6.201  1.1717  1.9251 -1.7006
  120OSM   C14F12661   5.869   2.039   6.169  0.1497 -0.5812  0.1044
  120OSM   H14F12662   5.856   1.959   6.092 -0.1754  1.5093 -2.1452
  120OSM   H14G12663   5.966   2.044   6.222 -0.2692  0.5915  0.7937
  120OSM   C15F12664   5.839   2.173   6.107 -0.0060  0.3637  0.8983
  120OSM   H15F12665   5.849   2.253   6.184  0.0989  1.1122  0.1199
  120OSM   H15G12666   5.735   2.177   6.067  0.5856 -1.4644 -0.9708
  120OSM   C16F12667   5.919   2.202   5.985  0.2292 -0.7469 -0.6639
  120OSM   H16F12668   5.917   2.110   5.922  0.1016 -1.3155  0.1373
  120OSM   H16G12669   6.023   2.227   6.015  0.5581 -2.5549 -0.1064
  120OSM   C17F12670   5.876   2.326   5.905  0.2398  0.2385  0.1831
  120OSM   H17F12671   5.870   2.416   5.970 -3.4727  0.3501 -0.1290
  120OSM   H17G12672   5.775   2.318   5.861  1.0465  1.8508 -2.2252
  120OSM   C18F12673   5.976   2.362   5.796  0.3189  0.4049 -0.1617
  120OSM   H18F12674   5.978   2.284   5.717 -2.8255 -1.1836  1.1356
  120OSM   H18G12675   6.077   2.376   5.841  0.7339  0.1869 -1.0109
  120OSM   H18H12676   5.948   2.454   5.742 -0.8448  0.4322  0.4450
  121OSM      N12677   0.814   1.671   7.945  0.0423 -0.0297 -0.4442
  121OSM    C1512678   0.676   1.621   7.910  0.0552  0.1147 -0.3900
  121OSM   H15A12679   0.602   1.696   7.936  1.4965  0.7191  2.3866
  121OSM   H15B12680   0.658   1.528   7.962  1.3565 -0.4881 -0.9829
  121OSM   H15C12681   0.677   1.601   7.804 -0.6381  0.5889 -0.4944
  121OSM    C1412682   0.807   1.701   8.091 -0.2914  0.4525 -0.0160
  121OSM   H14A12683   0.791   1.612   8.152  0.7177  0.4702  0.3032
  121OSM   H14B12684   0.719   1.760   8.107 -1.1878 -1.1360  1.3292
  121OSM   H14C12685   0.891   1.759   8.128  0.3362  0.7045 -1.7378
  121OSM    C1312686   0.917   1.567   7.924 -0.0448 -0.4665 -0.0428
  121OSM   H13A12687   0.894   1.470   7.965 -1.1056 -0.7355 -1.2173
  121OSM   H13B12688   1.010   1.598   7.970 -0.0444 -2.8064  1.7161
  121OSM   H13C12689   0.923   1.560   7.817 -1.3430  0.5628 -0.2070
  121OSM    C1212690   0.851   1.795   7.868  0.2585  0.4675  0.0806
  121OSM   H12A12691   0.781   1.877   7.877  1.2947  1.1795  2.4119
  121OSM   H12B12692   0.866   1.764   7.765  1.1191 -1.3930  0.7312
  121OSM    C1112693   0.987   1.865   7.918  0.4279 -0.0938  0.2467
  121OSM   H11A12694   1.015   1.943   7.844  0.8566 -0.1230  0.3814
  121OSM   H11B12695   1.071   1.793   7.909  0.3188 -0.2268  0.2722
  121OSM      P12696   0.903   2.066   8.069  0.5026 -0.0286 -0.1580
  121OSM    O1312697   0.758   2.035   8.072  0.6514  0.6715  0.4356
  121OSM    O1412698   0.955   2.137   8.186 -0.1215 -0.1918 -0.5467
  121OSM    O1112699   0.945   2.145   7.940  0.0331 -0.4680 -0.2239
  121OSM    O1212700   0.980   1.928   8.050  0.5200  0.5049 -0.0585
  121OSM    C1S12701   1.082   2.196   7.927  0.0716  0.3105  0.2294
  121OSM    H1S12702   1.158   2.126   7.966 -0.0226  1.2126  2.1281
  121OSM    H1T12703   1.103   2.286   7.989  1.2605  0.1706  0.0470
  121OSM     NF12704   1.263   2.265   7.772 -0.5718  0.0521 -0.1827
  121OSM    HNF12705   1.300   2.351   7.738  0.3511 -0.5897 -0.8229
  121OSM    C2S12706   1.123   2.243   7.779  0.1167 -0.0136 -0.0031
  121OSM    H2S12707   1.101   2.161   7.708  0.7252  0.1303 -0.3617
  121OSM    C3S12708   1.036   2.366   7.740  0.3443  0.3008 -0.4990
  121OSM    H3S12709   1.063   2.445   7.813  1.2493 -0.9282  0.5449
  121OSM     O312710   0.899   2.343   7.751  0.8038 -0.2362  0.2782
  121OSM    HO312711   0.895   2.271   7.814  0.1780  0.7908  1.4689
  121OSM    C4S12712   1.068   2.416   7.598 -0.4004 -0.1547 -0.3075
  121OSM    H4S12713   1.097   2.522   7.590 -0.9721 -0.0431 -0.9756
  121OSM    C5S12714   1.067   2.350   7.489  0.1889 -0.4663  0.7852
  121OSM    H5S12715   1.028   2.247   7.485 -0.4213 -0.2051 -0.7452
  121OSM    C6S12716   1.099   2.407   7.351 -0.0840  0.4195 -0.6975
  121OSM    H6S12717   1.015   2.411   7.278  1.1051  2.5069 -2.0651
  121OSM    H6T12718   1.168   2.335   7.302 -0.1099 -0.2172  0.1876
  121OSM    C7S12719   1.165   2.545   7.356  0.1196 -0.7674  0.0425
  121OSM    H7S12720   1.249   2.562   7.427  1.1404 -0.5240 -1.1821
  121OSM    H7T12721   1.079   2.608   7.387  1.8743  2.9775 -1.9184
  121OSM    C8S12722   1.196   2.598   7.214 -0.3743 -0.4278 -0.1818
  121OSM    H8S12723   1.239   2.700   7.211  1.3537 -0.9411  2.8809
  121OSM    H8T12724   1.102   2.602   7.155  1.7706 -0.7911 -3.9259
  121OSM    C9S12725   1.284   2.511   7.131  0.7474  0.1970  0.3529
  121OSM    H9S12726   1.251   2.405   7.132 -1.7925  0.7551 -3.2480
  121OSM    H9T12727   1.388   2.512   7.171  0.7831  0.4219  0.2540
  121OSM   C10S12728   1.284   2.558   6.982 -0.4583 -0.5064  0.4257
  121OSM   H10S12729   1.338   2.654   6.980  0.1882 -0.8734  0.0721
  121OSM   H10T12730   1.182   2.578   6.942 -0.1842  0.4831  0.2071
  121OSM   C11S12731   1.350   2.463   6.892  0.1970 -0.0714 -0.2667
  121OSM   H11S12732   1.291   2.369   6.894 -0.3948  0.3126  0.9911
  121OSM   H11T12733   1.448   2.443   6.939 -0.4658  0.6663  1.5000
  121OSM   C12S12734   1.359   2.514   6.752 -0.0199  0.4183 -0.4237
  121OSM   H12S12735   1.425   2.604   6.750 -1.2977  1.5014  2.3062
  121OSM   H12T12736   1.254   2.535   6.721 -1.5680 -3.5228  1.5138
  121OSM   C13S12737   1.407   2.413   6.643 -0.0829  0.1666  1.3182
  121OSM   H13S12738   1.349   2.318   6.637  0.2450 -0.0017 -4.0817
  121OSM   H13T12739   1.512   2.389   6.670  0.4624 -0.2342 -0.9638
  121OSM   C14S12740   1.404   2.471   6.494 -0.0531 -0.1152 -0.4712
  121OSM   H14S12741   1.426   2.579   6.510  0.1611 -0.1985 -0.1951
  121OSM   H14T12742   1.304   2.451   6.451 -0.1953  3.0441 -1.9346
  121OSM   C15S12743   1.513   2.401   6.413  0.6008  0.3657 -0.2500
  121OSM   H15S12744   1.492   2.292   6.412  0.2734  0.4264  0.1906
  121OSM   H15T12745   1.611   2.414   6.463 -0.2105 -0.1528  1.5379
  121OSM   C16S12746   1.523   2.444   6.267 -0.3745 -1.0928 -0.8222
  121OSM   H16S12747   1.422   2.448   6.221 -0.7995  1.6987  0.1216
  121OSM   H16T12748   1.582   2.369   6.211  1.7925  1.0080 -1.5279
  121OSM   C17S12749   1.598   2.583   6.267  0.4211  0.2494 -0.0168
  121OSM   H17S12750   1.706   2.557   6.265  0.2962 -0.6000  1.9404
  121OSM   H17T12751   1.591   2.632   6.366  3.3234  0.4670  0.1823
  121OSM   C18S12752   1.551   2.665   6.142 -0.0456  0.4308  0.5950
  121OSM   H18S12753   1.603   2.763   6.137 -0.0308  0.3572 -1.5074
  121OSM   H18T12754   1.440   2.662   6.143 -0.1877 -3.1379 -2.6550
  121OSM   H18U12755   1.584   2.607   6.053  1.2478  0.0800  1.2763
  121OSM    C1F12756   1.345   2.158   7.773 -0.3129  0.4251 -0.0236
  121OSM     OF12757   1.293   2.044   7.780 -0.1209 -0.2752  0.2053
  121OSM    C2F12758   1.492   2.182   7.748  0.2226 -0.2990 -0.2892
  121OSM    H2F12759   1.544   2.170   7.845 -0.0452 -2.9107 -0.3978
  121OSM    H2G12760   1.525   2.287   7.738  1.5459 -0.7890 -1.5346
  121OSM    C3F12761   1.547   2.090   7.634  0.5981  0.4654  0.2780
  121OSM    H3F12762   1.530   1.985   7.666 -1.2176  0.7011  0.2319
  121OSM    H3G12763   1.656   2.098   7.616  0.8346 -3.7635 -1.2793
  121OSM    C4F12764   1.474   2.111   7.498  0.2038  0.1715 -0.1107
  121OSM    H4F12765   1.522   2.204   7.460  0.7269 -0.5310 -1.2286
  121OSM    H4G12766   1.363   2.119   7.497  0.1375 -0.5516  0.2188
  121OSM    C5F12767   1.504   2.003   7.391 -0.4099 -0.1050  0.5905
  121OSM    H5F12768   1.458   1.904   7.410 -0.4679 -0.6443 -2.0109
  121OSM    H5G12769   1.612   1.989   7.368  0.2922  0.3134  3.2579
  121OSM    C6F12770   1.440   2.039   7.249 -0.3721 -0.1938  0.7971
  121OSM    H6F12771   1.480   1.955   7.189 -0.7236 -0.8993  1.5377
  121OSM    H6G12772   1.490   2.128   7.203 -2.4445  0.0784 -1.0944
  121OSM    C7F12773   1.290   2.046   7.246  0.3117  0.8489 -0.5041
  121OSM    H7F12774   1.257   2.119   7.322  1.6244  1.4753 -0.5117
  121OSM    H7G12775   1.254   1.944   7.269  1.7274 -0.1862 -2.4829
  121OSM    C8F12776   1.239   2.090   7.106  0.6566 -0.2101 -0.2273
  121OSM    H8F12777   1.308   2.165   7.060  1.5135  0.5252  2.0932
  121OSM    H8G12778   1.141   2.139   7.125 -0.3634 -1.5389 -1.8240
  121OSM    C9F12779   1.213   1.971   7.012  0.4023  0.6973 -0.1629
  121OSM    H9F12780   1.131   1.906   7.043  1.2258 -0.7519 -0.9307
  121OSM   C10F12781   1.280   1.936   6.905 -0.5317  0.1165  0.2899
  121OSM   H10F12782   1.246   1.852   6.842 -2.1616  0.9858 -0.0475
  121OSM   C11F12783   1.373   2.036   6.841 -0.2831  0.0234 -0.9067
  121OSM   H11F12784   1.455   2.042   6.915 -1.5899 -2.9283  0.9951
  121OSM   H11G12785   1.329   2.137   6.828  2.6730  1.3344 -1.4315
  121OSM   C12F12786   1.409   1.979   6.705  0.0249  0.2852 -0.2749
  121OSM   H12F12787   1.453   1.878   6.714  0.3004  0.4524  0.2952
  121OSM   H12G12788   1.490   2.051   6.677  1.1576 -0.7076  0.3691
  121OSM   C13F12789   1.299   1.979   6.602 -0.0177 -0.4274 -0.0472
  121OSM   H13F12790   1.270   2.084   6.581 -2.5394 -1.3595 -1.7362
  121OSM   H13G12791   1.210   1.930   6.647 -0.3307 -0.9517 -1.1990
  121OSM   C14F12792   1.330   1.925   6.462 -0.1501 -0.0300  0.1051
  121OSM   H14F12793   1.371   1.822   6.463 -0.8708 -0.3173  0.3499
  121OSM   H14G12794   1.419   1.981   6.427 -0.3599  1.3136  1.6127
  121OSM   C15F12795   1.219   1.951   6.359 -0.2163  0.3936 -0.1492
  121OSM   H15F12796   1.123   1.953   6.415  0.0683  1.5909  0.3173
  121OSM   H15G12797   1.209   1.869   6.284  0.4981  2.1526 -2.2725
  121OSM   C16F12798   1.245   2.089   6.296 -0.2109 -0.0183  0.1665
  121OSM   H16F12799   1.334   2.076   6.231  0.2158  0.1180  0.7102
  121OSM   H16G12800   1.271   2.154   6.383  0.5864 -0.9011  0.6106
  121OSM   C17F12801   1.129   2.159   6.213  0.4560 -0.2304 -0.0832
  121OSM   H17F12802   1.044   2.167   6.285  0.3249  0.3148 -0.2925
  121OSM   H17G12803   1.102   2.102   6.122  0.8145 -0.2139 -0.1998
  121OSM   C18F12804   1.171   2.295   6.164 -0.4908 -0.2331 -0.4028
  121OSM   H18F12805   1.083   2.341   6.115 -1.6314 -1.8531  0.0625
  121OSM   H18G12806   1.257   2.285   6.094  1.4498 -1.2297  1.9623
  121OSM   H18H12807   1.200   2.358   6.251 -0.1050 -1.0867  0.0905
  122OSM      N12808   1.242   3.544   8.270 -0.3884 -0.1684 -0.4869
  122OSM    C1512809   1.333   3.631   8.353 -0.0201  0.3019 -0.4116
  122OSM   H15A12810   1.363   3.592   8.449  0.3236  2.0334  0.2144
  122OSM   H15B12811   1.279   3.725   8.362 -1.0112 -0.3012  0.1559
  122OSM   H15C12812   1.419   3.664   8.296  0.5048 -2.2568 -1.2120
  122OSM    C1412813   1.319   3.415   8.247 -0.3951  0.1553 -0.2855
  122OSM   H14A12814   1.260   3.331   8.216 -0.3776  0.5207 -1.3223
  122OSM   H14B12815   1.366   3.376   8.337 -0.9280 -3.7752 -1.5303
  122OSM   H14C12816   1.394   3.419   8.170  0.0379 -2.4518 -0.1160
  122OSM    C1312817   1.114   3.510   8.337  0.5267  0.1350 -0.2282
  122OSM   H13A12818   1.058   3.601   8.350  1.2514  0.5765 -0.1612
  122OSM   H13B12819   1.134   3.468   8.435  1.2402 -0.5988 -0.6662
  122OSM   H13C12820   1.059   3.433   8.285 -1.4363 -0.1508  2.1107
  122OSM    C1212821   1.214   3.602   8.137  0.6212  0.0891 -0.4830
  122OSM   H12A12822   1.162   3.523   8.085  0.1671  0.6094 -0.8283
  122OSM   H12B12823   1.307   3.617   8.083  1.8777  0.4407  1.6511
  122OSM    C1112824   1.135   3.735   8.116  0.6940 -0.4040 -0.6502
  122OSM   H11A12825   1.140   3.774   8.012 -1.7839  0.5172 -0.4970
  122OSM   H11B12826   1.203   3.810   8.163  0.0482 -1.6634  2.4615
  122OSM      P12827   0.886   3.659   8.091  0.4529 -0.0090  0.1952
  122OSM    O1312828   0.924   3.525   8.054 -0.2507  0.4956 -0.1100
  122OSM    O1412829   0.759   3.677   8.166 -0.0768 -0.0354  0.0568
  122OSM    O1112830   0.877   3.737   7.960  0.7762  0.1975  0.5818
  122OSM    O1212831   0.999   3.735   8.171 -0.2419 -0.6967 -0.1667
  122OSM    C1S12832   0.862   3.876   7.954  0.1851 -0.3980  0.7056
  122OSM    H1S12833   0.963   3.919   7.966  1.3475 -2.4095 -1.0975
  122OSM    H1T12834   0.804   3.912   8.042 -1.6282  0.3560 -0.7160
  122OSM     NF12835   0.826   4.057   7.788 -0.0258  0.3260  0.4947
  122OSM    HNF12836   0.733   4.093   7.797 -0.5717 -1.4229  3.0519
  122OSM    C2S12837   0.822   3.913   7.807  0.8771  0.4487 -0.6758
  122OSM    H2S12838   0.907   3.869   7.751  1.7100  0.3103  0.6471
  122OSM    C3S12839   0.696   3.840   7.762  0.2674  0.2334 -0.0682
  122OSM    H3S12840   0.603   3.872   7.814  0.5664  1.4556 -0.2527
  122OSM     O312841   0.702   3.698   7.762 -0.2703  0.2746  1.1597
  122OSM    HO312842   0.780   3.678   7.814  0.6147 -2.9833 -1.1004
  122OSM    C4S12843   0.678   3.877   7.619 -0.3466 -0.3027 -0.8138
  122OSM    H4S12844   0.768   3.857   7.560 -1.0145 -0.7709 -1.7027
  122OSM    C5S12845   0.577   3.947   7.560  0.1265  0.5297  0.0952
  122OSM    H5S12846   0.495   3.986   7.621  2.5927  2.3425  2.4871
  122OSM    C6S12847   0.571   4.006   7.421 -0.2325  0.0591 -0.2830
  122OSM    H6S12848   0.548   4.114   7.431  0.0007  0.1898 -1.0507
  122OSM    H6T12849   0.483   3.950   7.380 -0.0557 -1.5556  1.4196
  122OSM    C7S12850   0.693   3.975   7.338 -0.2630 -0.0337 -0.1152
  122OSM    H7S12851   0.699   3.865   7.318 -1.9156 -0.0305 -0.8036
  122OSM    H7T12852   0.792   4.007   7.378 -0.4984  3.2214 -1.8588
  122OSM    C8S12853   0.677   4.031   7.191  0.7897 -0.2759  0.2913
  122OSM    H8S12854   0.702   4.139   7.190 -0.1042 -0.0546 -0.0140
  122OSM    H8T12855   0.567   4.025   7.170  0.2137  3.2705  1.5671
  122OSM    C9S12856   0.750   3.958   7.081  0.2528  0.0493 -0.4327
  122OSM    H9S12857   0.721   3.850   7.084 -1.4671  0.4910 -0.2842
  122OSM    H9T12858   0.857   3.974   7.105  0.5486 -1.4172 -0.6177
  122OSM   C10S12859   0.725   4.002   6.940 -0.4727  0.2848 -0.5844
  122OSM   H10S12860   0.796   3.948   6.874  0.3051 -1.4919  1.5707
  122OSM   H10T12861   0.755   4.108   6.928  1.8735 -0.4855 -2.1928
  122OSM   C11S12862   0.578   3.993   6.902  0.2747  0.3376  0.2705
  122OSM   H11S12863   0.527   4.073   6.961  2.4034  0.4095  2.1333
  122OSM   H11T12864   0.540   3.893   6.933 -1.4739  1.3471  1.6513
  122OSM   C12S12865   0.573   4.008   6.753  0.5996  0.1618  0.2600
  122OSM   H12S12866   0.651   3.951   6.698  0.0952  1.3711 -1.8608
  122OSM   H12T12867   0.591   4.112   6.717  1.4006 -0.2692 -0.6438
  122OSM   C13S12868   0.427   3.960   6.705 -0.1767  0.2112 -0.3938
  122OSM   H13S12869   0.355   3.991   6.783  1.7768  1.1808  1.1089
  122OSM   H13T12870   0.426   3.849   6.711 -0.2238  0.1319 -1.6163
  122OSM   C14S12871   0.377   4.012   6.573  0.9409 -0.0273  0.3560
  122OSM   H14S12872   0.386   4.123   6.578 -2.1151  0.2792  2.1422
  122OSM   H14T12873   0.269   3.987   6.564  0.3599  2.5854 -0.9883
  122OSM   C15S12874   0.447   3.972   6.445 -0.0459  0.6494 -1.0417
  122OSM   H15S12875   0.558   3.968   6.454 -0.1938  0.7466  2.5056
  122OSM   H15T12876   0.417   4.041   6.364  1.0813  3.3987  0.7022
  122OSM   C16S12877   0.421   3.834   6.391  0.1956  0.7567 -0.1261
  122OSM   H16S12878   0.313   3.812   6.378  0.6459 -1.3375 -0.6329
  122OSM   H16T12879   0.454   3.756   6.464 -0.2544  2.0232  1.5048
  122OSM   C17S12880   0.490   3.810   6.256 -0.0861  0.1903  0.1230
  122OSM   H17S12881   0.591   3.856   6.254  0.1150 -0.2508 -0.0819
  122OSM   H17T12882   0.427   3.872   6.188 -2.4074  2.4366  3.9596
  122OSM   C18S12883   0.506   3.662   6.213  0.3670  0.6311  0.3698
  122OSM   H18S12884   0.499   3.638   6.104 -3.8222 -0.7228  0.7602
  122OSM   H18T12885   0.426   3.599   6.258 -0.2997 -1.1208 -2.9159
  122OSM   H18U12886   0.609   3.633   6.244  1.0700  1.5115 -1.0542
  122OSM    C1F12887   0.937   4.129   7.779  0.5326 -0.1706 -0.2135
  122OSM     OF12888   1.051   4.084   7.793 -0.8728  0.4299 -0.2364
  122OSM    C2F12889   0.907   4.277   7.748  0.0554 -0.3069 -0.4639
  122OSM    H2F12890   0.917   4.344   7.836 -0.5263  0.7008 -1.1516
  122OSM    H2G12891   0.802   4.284   7.713 -0.3130  1.0544  0.8218
  122OSM    C3F12892   0.993   4.328   7.626  0.0662 -0.0468  0.4199
  122OSM    H3F12893   1.102   4.334   7.647  0.1892 -0.3694 -0.0893
  122OSM    H3G12894   0.956   4.432   7.613 -2.3666 -0.3229  3.9271
  122OSM    C4F12895   0.980   4.248   7.495 -1.1114 -0.0873  0.1467
  122OSM    H4F12896   0.872   4.233   7.473 -0.4983 -2.6626 -1.5902
  122OSM    H4G12897   1.029   4.149   7.509 -0.4017  0.0829 -1.0244
  122OSM    C5F12898   1.046   4.324   7.379  0.0251  0.0628  1.1131
  122OSM    H5F12899   1.155   4.342   7.395  0.8603 -0.1688 -3.0395
  122OSM    H5G12900   0.997   4.423   7.367  0.1275 -0.0279 -0.2393
  122OSM    C6F12901   1.029   4.241   7.247 -0.1746 -0.1934 -0.2837
  122OSM    H6F12902   0.919   4.238   7.232 -0.3067  1.4493  0.1305
  122OSM    H6G12903   1.073   4.140   7.238 -1.0243 -0.4693 -1.6911
  122OSM    C7F12904   1.091   4.317   7.127  0.0349  0.0709 -0.3691
  122OSM    H7F12905   1.202   4.305   7.123  0.3790  2.6125 -0.2408
  122OSM    H7G12906   1.079   4.426   7.143  1.0000  0.3033 -1.0816
  122OSM    C8F12907   1.027   4.286   6.994 -0.0379  0.5940 -0.2840
  122OSM    H8F12908   0.921   4.311   7.017 -0.0845 -0.4241  0.7038
  122OSM    H8G12909   1.019   4.179   6.966 -1.0343  1.4144 -3.5948
  122OSM    C9F12910   1.093   4.375   6.892 -0.1639 -0.6743 -0.0934
  122OSM    H9F12911   1.146   4.456   6.944  1.1939 -0.5791 -1.5634
  122OSM   C10F12912   1.118   4.346   6.762 -0.0314  0.0492 -0.3460
  122OSM   H10F12913   1.175   4.414   6.696  1.0460  0.5838  1.0786
  122OSM   C11F12914   1.052   4.236   6.690 -0.2420 -0.0881 -0.3232
  122OSM   H11F12915   0.942   4.247   6.703 -0.3617 -0.0180 -1.2773
  122OSM   H11G12916   1.075   4.140   6.741  0.7967 -0.1687 -0.9042
  122OSM   C12F12917   1.087   4.232   6.540 -0.1675 -0.0447  0.2349
  122OSM   H12F12918   1.197   4.216   6.534 -0.1290  0.0125  0.8040
  122OSM   H12G12919   1.061   4.324   6.482  2.2201  0.0594 -0.7976
  122OSM   C13F12920   1.014   4.119   6.469  0.2917 -0.0784  0.8345
  122OSM   H13F12921   0.946   4.070   6.541  0.7525 -0.2457  1.1605
  122OSM   H13G12922   1.089   4.039   6.448  1.6490  1.2550  0.3988
  122OSM   C14F12923   0.931   4.144   6.338 -0.5302  0.8483  0.6895
  122OSM   H14F12924   0.965   4.225   6.270  1.4964  1.1008  1.9051
  122OSM   H14G12925   0.827   4.167   6.369 -0.5105  0.9941  0.6489
  122OSM   C15F12926   0.905   4.016   6.260  0.1558 -1.0479  0.1321
  122OSM   H15F12927   0.864   3.937   6.327  1.3616 -1.5122  0.3636
  122OSM   H15G12928   1.001   3.985   6.213 -0.0809  0.2341 -1.2562
  122OSM   C16F12929   0.810   4.029   6.145 -0.3462  0.2277 -0.6867
  122OSM   H16F12930   0.838   4.128   6.104 -1.3536  0.7755 -0.1088
  122OSM   H16G12931   0.701   4.046   6.164 -0.7818 -0.0381 -2.7601
  122OSM   C17F12932   0.816   3.902   6.058 -0.0784 -0.5401  0.0429
  122OSM   H17F12933   0.812   3.814   6.126  2.0233 -0.4076  0.4114
  122OSM   H17G12934   0.918   3.902   6.014 -0.2969 -1.8019 -0.5042
  122OSM   C18F12935   0.717   3.902   5.933 -0.2309 -0.2826 -0.6179
  122OSM   H18F12936   0.737   3.809   5.875  3.8214  1.1246 -1.8055
  122OSM   H18G12937   0.725   3.997   5.875 -1.2631  0.0604 -0.2132
  122OSM   H18H12938   0.609   3.899   5.957 -0.2649 -0.9589 -0.8194
  123OSM      N12939   1.726   4.537   3.616  0.4277  0.2859 -0.0151
  123OSM    C1512940   1.717   4.430   3.508 -0.3735  0.1380  0.5774
  123OSM   H15A12941   1.748   4.468   3.412 -0.6625 -0.3670  0.2831
  123OSM   H15B12942   1.616   4.396   3.498 -0.9731  1.3406  2.0801
  123OSM   H15C12943   1.771   4.349   3.554 -0.5113  0.0655  0.6093
  123OSM    C1412944   1.648   4.656   3.576  0.8634  0.4569  0.3866
  123OSM   H14A12945   1.695   4.709   3.494 -0.4881  1.8664  0.4891
  123OSM   H14B12946   1.617   4.717   3.659  0.2608  0.7256 -0.0320
  123OSM   H14C12947   1.550   4.619   3.549 -0.0255  1.9044  1.5396
  123OSM    C1312948   1.672   4.472   3.734  0.6220 -0.2856 -0.9451
  123OSM   H13A12949   1.720   4.380   3.763  1.5624  0.0902 -1.2715
  123OSM   H13B12950   1.566   4.451   3.734  0.6921 -0.9213  1.3321
  123OSM   H13C12951   1.672   4.547   3.811  0.9659 -0.3097 -0.9204
  123OSM    C1212952   1.870   4.580   3.638 -0.4901  0.0423 -0.7718
  123OSM   H12A12953   1.922   4.495   3.680  0.2172  1.2470  0.8894
  123OSM   H12B12954   1.875   4.654   3.716  0.8451 -0.0592 -0.7488
  123OSM    C1112955   1.960   4.627   3.515  0.0448 -0.2722 -0.2428
  123OSM   H11A12956   1.964   4.535   3.452 -0.8593  0.3793 -1.2928
  123OSM   H11B12957   2.059   4.656   3.555 -0.2550  2.0677 -1.0527
  123OSM      P12958   1.967   4.880   3.447 -0.0747  0.1869 -0.2174
  123OSM    O1312959   2.081   4.882   3.357  0.1852 -0.1435  0.0345
  123OSM    O1412960   1.861   4.979   3.420  0.1126  0.1409  0.5164
  123OSM    O1112961   2.007   4.899   3.600  0.5407  0.4084  0.0573
  123OSM    O1212962   1.897   4.733   3.441  0.1609 -0.1820 -0.5275
  123OSM    C1S12963   1.895   4.913   3.695 -0.2949  0.2123 -0.6104
  123OSM    H1S12964   1.830   4.822   3.700  0.4512 -0.3017 -0.0626
  123OSM    H1T12965   1.830   4.998   3.665  0.0610 -0.2839 -3.0373
  123OSM     NF12966   1.833   4.925   3.942 -0.2477 -0.3821 -0.5913
  123OSM    HNF12967   1.785   5.006   3.976  1.1698  1.1111 -1.9771
  123OSM    C2S12968   1.947   4.946   3.846 -0.1207  0.5444  0.2189
  123OSM    H2S12969   2.022   4.871   3.878 -1.0429  0.2957  1.9412
  123OSM    C3S12970   2.016   5.082   3.857 -0.1328 -0.3953 -0.5298
  123OSM    H3S12971   1.933   5.155   3.843 -1.0131 -0.9974  1.2528
  123OSM     O312972   2.112   5.090   3.759 -0.4970 -0.5014  0.5830
  123OSM    HO312973   2.109   5.019   3.694  1.4459 -0.5557  0.4745
  123OSM    C4S12974   2.085   5.106   3.986 -0.2795  0.0803 -0.2516
  123OSM    H4S12975   2.157   5.030   4.018 -1.0385  0.1984  1.9325
  123OSM    C5S12976   2.076   5.207   4.075  0.2508 -0.1814 -0.1049
  123OSM    H5S12977   1.993   5.275   4.052 -0.3548 -1.3994 -1.7345
  123OSM    C6S12978   2.150   5.202   4.205  0.5844 -0.4297 -0.4393
  123OSM    H6S12979   2.219   5.289   4.201  1.3184 -1.0381 -1.9400
  123OSM    H6T12980   2.207   5.107   4.200  0.2785 -0.5587 -2.3345
  123OSM    C7S12981   2.070   5.202   4.333 -0.3619  0.6218  0.5513
  123OSM    H7S12982   2.006   5.111   4.332  0.6631 -0.1228 -1.5777
  123OSM    H7T12983   2.004   5.292   4.341  0.9328  1.5417  1.2325
  123OSM    C8S12984   2.159   5.210   4.466 -0.4380  0.4814 -0.4893
  123OSM    H8S12985   2.226   5.298   4.470  0.6549 -0.3548  3.1575
  123OSM    H8T12986   2.210   5.111   4.465 -0.6904  0.3503 -0.6318
  123OSM    C9S12987   2.073   5.209   4.594  0.1460 -0.2569 -0.6139
  123OSM    H9S12988   1.977   5.158   4.574 -0.9299 -0.1553  3.4918
  123OSM    H9T12989   2.046   5.312   4.624 -0.2706 -0.3581 -0.6407
  123OSM   C10S12990   2.141   5.135   4.701  0.1359  0.4200 -0.5511
  123OSM   H10S12991   2.230   5.190   4.739  0.8090  0.0080 -1.4778
  123OSM   H10T12992   2.187   5.042   4.662 -1.0355 -0.1955 -0.5180
  123OSM   C11S12993   2.052   5.100   4.823  0.1792 -0.4429 -0.1167
  123OSM   H11S12994   1.979   5.024   4.790 -0.8906  0.3654  0.3469
  123OSM   H11T12995   1.987   5.186   4.846  0.4644 -0.8534  2.5665
  123OSM   C12S12996   2.125   5.063   4.954 -0.6559  0.2285  0.0911
  123OSM   H12S12997   2.184   5.154   4.978 -0.0148  0.1596 -1.1323
  123OSM   H12T12998   2.194   4.975   4.949  0.2835  0.9295  0.4681
  123OSM   C13S12999   2.031   5.058   5.068  0.0427 -0.7532 -0.1770
  123OSM   H13S13000   1.948   4.991   5.041 -0.9615  0.0447  0.8296
  123OSM   H13T13001   1.989   5.160   5.086  1.0731 -0.1783 -0.8631
  123OSM   C14S13002   2.102   5.021   5.197  0.8265  0.2861 -0.2915
  123OSM   H14S13003   2.178   5.093   5.235  2.6659 -1.7412  0.0318
  123OSM   H14T13004   2.159   4.926   5.196 -0.1627 -0.3448  0.9263
  123OSM   C15S13005   2.002   5.026   5.320 -0.8228 -0.2929 -0.0718
  123OSM   H15S13006   1.944   4.931   5.309  0.2660 -1.0892  0.8195
  123OSM   H15T13007   1.936   5.113   5.302 -0.2505 -0.1150 -1.3776
  123OSM   C16S13008   2.066   5.024   5.455  0.1188 -0.0527 -0.5020
  123OSM   H16S13009   2.113   5.120   5.485 -0.7269  0.5887 -1.1868
  123OSM   H16T13010   2.146   4.949   5.474  0.0812  0.2189  0.7923
  123OSM   C17S13011   1.958   5.006   5.559  0.8187 -0.3584 -0.0215
  123OSM   H17S13012   1.921   4.901   5.558  0.8332 -0.3928  1.1578
  123OSM   H17T13013   1.869   5.071   5.545  1.7542  0.8099 -0.7136
  123OSM   C18S13014   1.999   5.036   5.704  0.1759 -0.3421 -0.5272
  123OSM   H18S13015   2.083   4.965   5.722  2.6307  2.3307 -0.6556
  123OSM   H18T13016   1.913   5.018   5.771 -0.3199 -1.0779 -1.3405
  123OSM   H18U13017   2.042   5.138   5.718  2.6562 -1.5059  1.0735
  123OSM    C1F13018   1.789   4.799   3.973  0.4437 -0.9199 -0.0650
  123OSM     OF13019   1.841   4.710   3.911 -0.0686  0.1595  0.3866
  123OSM    C2F13020   1.691   4.772   4.085 -0.6152  0.8684  0.4291
  123OSM    H2F13021   1.615   4.852   4.074 -2.6630 -0.8871  1.0695
  123OSM    H2G13022   1.744   4.780   4.183 -1.1287 -3.0116  1.1721
  123OSM    C3F13023   1.623   4.637   4.059 -0.3530  0.9713 -0.1156
  123OSM    H3F13024   1.700   4.557   4.062  0.5973  1.8842  1.9751
  123OSM    H3G13025   1.572   4.655   3.962 -0.9987 -0.5544 -0.0834
  123OSM    C4F13026   1.507   4.608   4.157 -0.2234  0.2441  0.2974
  123OSM    H4F13027   1.456   4.525   4.103 -1.5560  0.9684  0.3999
  123OSM    H4G13028   1.431   4.688   4.158  0.5065  0.9367  1.3702
  123OSM    C5F13029   1.551   4.570   4.296  0.4345 -0.2320  0.1831
  123OSM    H5F13030   1.613   4.648   4.345  0.4416 -1.6115  2.5202
  123OSM    H5G13031   1.614   4.479   4.284  0.2913 -0.0717 -2.0808
  123OSM    C6F13032   1.434   4.557   4.392  0.8233  0.6571 -0.0076
  123OSM    H6F13033   1.369   4.474   4.359 -1.1764  2.5316 -1.0618
  123OSM    H6G13034   1.373   4.649   4.383 -0.7209 -0.3374  0.0040
  123OSM    C7F13035   1.477   4.540   4.546 -0.2141  0.7579  0.0936
  123OSM    H7F13036   1.390   4.539   4.616  0.3624 -0.4479  0.8158
  123OSM    H7G13037   1.540   4.629   4.569 -1.5324  1.9658 -0.7378
  123OSM    C8F13038   1.572   4.426   4.571 -0.0585 -0.1111 -0.1772
  123OSM    H8F13039   1.615   4.455   4.669 -0.1638  0.6950 -0.3618
  123OSM    H8G13040   1.645   4.408   4.490 -0.7858 -0.5056 -0.7556
  123OSM    C9F13041   1.487   4.300   4.566 -0.4300 -0.3780 -0.6319
  123OSM    H9F13042   1.414   4.291   4.485 -1.7458 -0.8609  0.5536
  123OSM   C10F13043   1.483   4.194   4.655  0.2802 -0.4721  0.0340
  123OSM   H10F13044   1.436   4.103   4.616 -1.7361  0.8127 -0.6838
  123OSM   C11F13045   1.562   4.182   4.782 -0.6425  0.5114  0.0655
  123OSM   H11F13046   1.654   4.242   4.767 -0.3115  0.3186  1.2132
  123OSM   H11G13047   1.587   4.077   4.809 -0.2872  0.6582  0.3150
  123OSM   C12F13048   1.483   4.226   4.908 -0.5795  0.1944  0.5911
  123OSM   H12F13049   1.389   4.167   4.902 -1.0708  0.9898  0.2855
  123OSM   H12G13050   1.464   4.335   4.897 -1.1589 -0.0909 -1.9992
  123OSM   C13F13051   1.559   4.189   5.031  0.1509 -0.5316  0.3540
  123OSM   H13F13052   1.668   4.208   5.020 -0.0455  0.1596 -0.4582
  123OSM   H13G13053   1.550   4.078   5.044 -0.4462 -0.4530  0.6645
  123OSM   C14F13054   1.496   4.260   5.150  0.3873  0.0210  0.3796
  123OSM   H14F13055   1.386   4.241   5.143  0.5505 -0.3459 -2.1268
  123OSM   H14G13056   1.504   4.370   5.136 -1.4200  0.2564  0.9444
  123OSM   C15F13057   1.539   4.204   5.283  0.6540 -0.4706 -0.1491
  123OSM   H15F13058   1.547   4.093   5.285  1.6113 -0.4093  1.0892
  123OSM   H15G13059   1.461   4.228   5.359 -1.7892 -0.3855 -2.5420
  123OSM   C16F13060   1.676   4.256   5.329 -0.9615 -0.1155  0.8984
  123OSM   H16F13061   1.682   4.367   5.326  1.1069 -0.1806  0.9816
  123OSM   H16G13062   1.747   4.216   5.253 -0.6225  1.0535  0.5623
  123OSM   C17F13063   1.709   4.205   5.466  0.2738  0.0422  0.0956
  123OSM   H17F13064   1.707   4.094   5.460  1.2903  0.0476 -0.8674
  123OSM   H17G13065   1.634   4.244   5.538  0.5285 -0.8209  0.8356
  123OSM   C18F13066   1.844   4.265   5.511  0.1401  0.1226 -0.2211
  123OSM   H18F13067   1.837   4.375   5.525  2.6627  0.4722 -1.2492
  123OSM   H18G13068   1.928   4.242   5.442  0.7014  1.4410  0.0039
  123OSM   H18H13069   1.877   4.228   5.611  2.1651  0.7675 -0.6121
  124OSM      N13070   2.589   6.281   3.665  0.5735  0.1249  0.6948
  124OSM    C1513071   2.721   6.296   3.593  0.4391  0.7177 -0.1432
  124OSM   H15A13072   2.703   6.310   3.487 -1.6794  0.9444  0.2007
  124OSM   H15B13073   2.770   6.200   3.604  0.8334  1.1578  2.3249
  124OSM   H15C13074   2.789   6.363   3.643  1.6461 -0.9857  0.6111
  124OSM    C1413075   2.517   6.168   3.598 -0.0622  0.6010  0.1409
  124OSM   H14A13076   2.429   6.144   3.655  1.8185 -1.3494  2.3974
  124OSM   H14B13077   2.577   6.079   3.597 -2.7723 -1.3528 -0.5089
  124OSM   H14C13078   2.493   6.186   3.494 -1.1973 -0.2132  0.2488
  124OSM    C1313079   2.617   6.251   3.805 -0.4035 -0.3358 -0.2102
  124OSM   H13A13080   2.682   6.165   3.817 -0.6142 -0.4202  0.3189
  124OSM   H13B13081   2.525   6.232   3.858  0.0195  1.9275  1.4453
  124OSM   H13C13082   2.664   6.332   3.859  0.0600 -0.7359 -0.0054
  124OSM    C1213083   2.511   6.409   3.646  0.3676 -0.6944  0.4032
  124OSM   H12A13084   2.488   6.442   3.546 -1.8470  2.4056  1.7353
  124OSM   H12B13085   2.563   6.490   3.695  0.4643 -0.7183  0.3405
  124OSM    C1113086   2.375   6.416   3.724 -0.4485  0.0207  0.0032
  124OSM   H11A13087   2.335   6.520   3.716  2.6546  1.2761 -0.9314
  124OSM   H11B13088   2.396   6.406   3.833 -2.4106 -0.6237  0.3678
  124OSM      P13089   2.172   6.306   3.581  0.0239  0.1653 -0.1097
  124OSM    O1313090   2.130   6.436   3.533  0.0512 -1.2481  0.3120
  124OSM    O1413091   2.219   6.211   3.476 -0.1429 -0.4911 -0.8438
  124OSM    O1113092   2.058   6.248   3.670  0.5325  0.1710  0.1827
  124OSM    O1213093   2.289   6.309   3.686  0.3556 -0.6273 -0.1309
  124OSM    C1S13094   2.072   6.167   3.789  0.2097  0.2443 -0.5747
  124OSM    H1S13095   2.160   6.100   3.778  1.5500  2.0119 -1.1085
  124OSM    H1T13096   1.991   6.092   3.784  0.8965 -0.5772  0.3742
  124OSM     NF13097   2.109   6.151   4.036  1.0466  0.1746 -0.5002
  124OSM    HNF13098   2.024   6.113   4.071  0.4852 -1.6255 -3.4473
  124OSM    C2S13099   2.095   6.247   3.923  0.5103  0.2140 -0.0148
  124OSM    H2S13100   2.194   6.296   3.914  0.6845 -0.4663 -2.6904
  124OSM    C3S13101   1.986   6.349   3.958  0.0759  0.0250  0.2656
  124OSM    H3S13102   1.906   6.289   4.006 -0.3071  0.1639 -0.1928
  124OSM     O313103   1.939   6.424   3.850  0.0306 -0.1121  0.4099
  124OSM    HO313104   1.982   6.386   3.773 -0.1698 -2.9902  1.5682
  124OSM    C4S13105   2.016   6.441   4.071  0.2226 -0.2186 -0.3649
  124OSM    H4S13106   1.957   6.414   4.160 -1.0819 -1.0765 -1.4492
  124OSM    C5S13107   2.109   6.544   4.074  0.4027  0.6537  0.5368
  124OSM    H5S13108   2.161   6.566   3.980  2.9982 -0.9043  1.4922
  124OSM    C6S13109   2.131   6.632   4.196 -0.1272  0.3099 -0.0328
  124OSM    H6S13110   2.125   6.737   4.163 -1.3884  0.1654 -0.3074
  124OSM    H6T13111   2.234   6.616   4.236  0.1073  0.8499 -0.4139
  124OSM    C7S13112   2.040   6.622   4.320  0.6992 -0.5550 -0.7968
  124OSM    H7S13113   2.048   6.515   4.350  0.3281 -0.5177 -0.5650
  124OSM    H7T13114   1.935   6.649   4.299  0.4087 -1.1303 -0.1011
  124OSM    C8S13115   2.079   6.714   4.438  0.4875  0.3171  0.4934
  124OSM    H8S13116   2.060   6.822   4.420 -1.5190  0.3494  2.3397
  124OSM    H8T13117   2.189   6.705   4.444  0.5303 -1.4207 -1.4988
  124OSM    C9S13118   2.022   6.670   4.573 -0.8108  0.3724  0.2855
  124OSM    H9S13119   2.067   6.572   4.598  0.6925  0.5642 -1.4344
  124OSM    H9T13120   1.912   6.661   4.557 -1.1942 -0.1117  2.8287
  124OSM   C10S13121   2.064   6.768   4.693 -0.3111  0.5233  0.5179
  124OSM   H10S13122   1.996   6.855   4.682  2.7129  3.1480  1.1292
  124OSM   H10T13123   2.170   6.801   4.688  0.1171 -0.9292 -0.9018
  124OSM   C11S13124   2.060   6.697   4.831 -0.0055 -0.1925 -0.4374
  124OSM   H11S13125   2.129   6.611   4.813  0.4528  0.7176 -3.7798
  124OSM   H11T13126   1.962   6.652   4.857 -0.1703 -1.1884 -2.5934
  124OSM   C12S13127   2.098   6.806   4.932 -0.1009  0.0951 -0.7586
  124OSM   H12S13128   2.032   6.893   4.914  1.2484  1.1314 -0.8753
  124OSM   H12T13129   2.196   6.849   4.901 -0.5598  0.6856 -1.4435
  124OSM   C13S13130   2.105   6.763   5.076 -0.4287 -0.0901 -0.9538
  124OSM   H13S13131   2.014   6.705   5.103 -0.1506  0.1508  0.6572
  124OSM   H13T13132   2.112   6.841   5.155  0.4123 -1.3868  0.3013
  124OSM   C14S13133   2.218   6.660   5.102  0.2119  0.3947 -0.2329
  124OSM   H14S13134   2.316   6.709   5.088  0.2648  0.0894 -0.9813
  124OSM   H14T13135   2.209   6.569   5.038 -0.3892  0.3772 -0.1332
  124OSM   C15S13136   2.196   6.598   5.242 -0.1190 -0.5757  0.0200
  124OSM   H15S13137   2.094   6.558   5.259  0.1615 -1.1050  0.5020
  124OSM   H15T13138   2.213   6.682   5.313  1.5725  2.1722 -3.3138
  124OSM   C16S13139   2.299   6.490   5.264  0.3330 -0.5417  0.1855
  124OSM   H16S13140   2.396   6.542   5.247 -0.6789  0.7627 -2.0041
  124OSM   H16T13141   2.299   6.405   5.193  2.6156 -1.5572  1.2960
  124OSM   C17S13142   2.293   6.426   5.407  0.7311 -0.1756 -0.8029
  124OSM   H17S13143   2.351   6.332   5.396  2.8281  0.9435  0.2629
  124OSM   H17T13144   2.188   6.397   5.432  1.8093 -3.1226  0.7575
  124OSM   C18S13145   2.347   6.509   5.518  0.4713 -0.5776  0.2066
  124OSM   H18S13146   2.283   6.595   5.545 -0.0113 -0.6561 -0.6662
  124OSM   H18T13147   2.450   6.544   5.495  0.6275 -0.6843  0.7245
  124OSM   H18U13148   2.343   6.452   5.613 -0.3014 -0.2352  0.3839
  124OSM    C1F13149   2.226   6.087   4.048  0.2089  0.2914 -0.0456
  124OSM     OF13150   2.322   6.108   3.972  0.4995  0.9029  0.1220
  124OSM    C2F13151   2.239   5.991   4.166 -0.5852 -0.0086 -0.3705
  124OSM    H2F13152   2.220   6.054   4.256  1.9649 -0.5653  0.6518
  124OSM    H2G13153   2.348   5.971   4.173 -0.6588 -0.2341  0.2439
  124OSM    C3F13154   2.164   5.865   4.142  0.4545 -1.1199 -0.2360
  124OSM    H3F13155   2.166   5.824   4.038 -2.7585 -1.9616 -0.0460
  124OSM    H3G13156   2.058   5.894   4.154  0.3964 -0.8312 -1.3421
  124OSM    C4F13157   2.198   5.761   4.250 -0.0706  0.3558  0.3273
  124OSM    H4F13158   2.306   5.735   4.237 -0.0273  1.0392 -0.8866
  124OSM    H4G13159   2.140   5.668   4.237 -0.5328  0.7635 -0.6216
  124OSM    C5F13160   2.172   5.810   4.394 -0.0139 -0.6590 -0.4168
  124OSM    H5F13161   2.065   5.841   4.398  0.7174  2.1297 -0.7612
  124OSM    H5G13162   2.235   5.899   4.413 -0.7922 -0.5082  1.6509
  124OSM    C6F13163   2.198   5.705   4.507 -0.2507  0.1783  0.0245
  124OSM    H6F13164   2.299   5.662   4.491 -0.0683 -0.8561  3.1680
  124OSM    H6G13165   2.126   5.621   4.502  0.4630 -0.4550  0.1488
  124OSM    C7F13166   2.182   5.772   4.645 -0.0781 -0.1764 -0.5254
  124OSM    H7F13167   2.073   5.786   4.661  0.2617  0.8434  1.0712
  124OSM    H7G13168   2.217   5.877   4.644  2.1473 -0.8527  0.4196
  124OSM    C8F13169   2.230   5.689   4.768 -0.1844  0.5158  0.0916
  124OSM    H8F13170   2.216   5.751   4.859 -2.5729 -0.8991  0.7696
  124OSM    H8G13171   2.337   5.679   4.741 -0.6096 -1.6781 -1.0763
  124OSM    C9F13172   2.180   5.548   4.781 -0.9364 -0.1990 -0.5371
  124OSM    H9F13173   2.209   5.475   4.705 -0.1350  1.5768 -2.0103
  124OSM   C10F13174   2.105   5.499   4.883 -0.0544  0.8077  0.5181
  124OSM   H10F13175   2.085   5.391   4.882  0.5550  0.6700 -0.9379
  124OSM   C11F13176   2.058   5.559   5.014  0.0684  0.0406  0.4700
  124OSM   H11F13177   1.952   5.587   5.000 -0.4300 -1.6295  0.6092
  124OSM   H11G13178   2.112   5.650   5.048 -0.5045  0.1560  1.0749
  124OSM   C12F13179   2.066   5.457   5.126  1.3623 -0.3067  0.3644
  124OSM   H12F13180   2.169   5.414   5.129  1.6141  0.1220 -1.2673
  124OSM   H12G13181   1.988   5.379   5.114  1.0222 -0.0162  0.6477
  124OSM   C13F13182   2.044   5.519   5.260 -0.5892  0.0458 -0.4915
  124OSM   H13F13183   1.934   5.503   5.266 -0.8858 -0.6096 -4.7585
  124OSM   H13G13184   2.075   5.625   5.270 -0.9127  0.1864 -0.9776
  124OSM   C14F13185   2.104   5.446   5.379  0.7869  0.1096 -0.5500
  124OSM   H14F13186   2.204   5.490   5.401  1.7553 -2.7692  1.5628
  124OSM   H14G13187   2.114   5.335   5.383  2.3546  0.2789  1.8794
  124OSM   C15F13188   2.019   5.472   5.502  0.2520 -0.1915 -0.7445
  124OSM   H15F13189   1.989   5.579   5.493  2.3217  0.4478 -0.4447
  124OSM   H15G13190   2.071   5.462   5.600  0.6162 -1.7797 -1.0742
  124OSM   C16F13191   1.885   5.391   5.521 -0.6449 -0.4572 -0.2422
  124OSM   H16F13192   1.925   5.287   5.518  2.6479  0.6924 -0.0259
  124OSM   H16G13193   1.826   5.397   5.427  0.6107  2.7698 -0.9456
  124OSM   C17F13194   1.809   5.412   5.647 -0.1300 -0.0314 -0.6144
  124OSM   H17F13195   1.794   5.522   5.651  2.6520  0.5171 -2.6009
  124OSM   H17G13196   1.865   5.398   5.742  0.3582 -1.4762 -1.0870
  124OSM   C18F13197   1.683   5.332   5.650  0.3317 -0.1507  0.0242
  124OSM   H18F13198   1.607   5.368   5.578 -2.1009 -0.2359  2.3759
  124OSM   H18G13199   1.645   5.349   5.753 -0.1865  2.5814 -0.5555
  124OSM   H18H13200   1.690   5.225   5.622  2.6840 -0.3003  0.9888
  125OSM      N13201   1.026   0.595   3.392  0.1125 -0.2777 -0.2965
  125OSM    C1513202   0.941   0.716   3.370  0.8567  0.3090 -0.1760
  125OSM   H15A13203   0.886   0.746   3.458  1.5385 -0.0824  0.3897
  125OSM   H15B13204   0.854   0.676   3.320  1.0902  0.6124 -0.8329
  125OSM   H15C13205   0.980   0.796   3.309 -0.1764  1.0396  0.0809
  125OSM    C1413206   0.953   0.481   3.460  0.0804 -0.5444 -0.7352
  125OSM   H14A13207   1.018   0.396   3.475 -1.4019 -1.8813 -1.5553
  125OSM   H14B13208   0.885   0.438   3.388  1.4464 -2.3105 -1.0356
  125OSM   H14C13209   0.905   0.514   3.551 -0.4519 -0.9542 -0.8595
  125OSM    C1313210   1.085   0.543   3.262  0.5242 -0.5033 -0.1664
  125OSM   H13A13211   1.145   0.455   3.276  0.0681 -1.0806 -1.6248
  125OSM   H13B13212   1.150   0.619   3.220 -0.2726  0.6883  0.7034
  125OSM   H13C13213   1.002   0.520   3.197 -1.1269 -2.1916  2.3898
  125OSM    C1213214   1.144   0.631   3.484 -0.2454  1.1827 -0.0492
  125OSM   H12A13215   1.203   0.542   3.500  2.2710  2.4666 -1.5608
  125OSM   H12B13216   1.107   0.652   3.583 -1.7621 -0.4932 -0.2249
  125OSM    C1113217   1.256   0.723   3.431 -0.3691 -0.3324  0.0948
  125OSM   H11A13218   1.315   0.679   3.348  0.7173  1.0170  0.1021
  125OSM   H11B13219   1.327   0.723   3.517 -0.7257 -0.3436  0.3949
  125OSM      P13220   1.292   0.979   3.399  0.3898 -0.2229 -0.0401
  125OSM    O1313221   1.423   0.957   3.335  0.1868 -0.3586  0.3464
  125OSM    O1413222   1.218   1.099   3.357  0.8135 -0.7019  0.0071
  125OSM    O1113223   1.323   0.999   3.557  0.1294  0.2488  0.5326
  125OSM    O1213224   1.203   0.853   3.400 -0.2477  1.1325 -0.1253
  125OSM    C1S13225   1.212   0.992   3.651  0.7926  0.5368 -0.0172
  125OSM    H1S13226   1.219   0.904   3.719  1.2361  1.2842  0.9143
  125OSM    H1T13227   1.115   0.988   3.597 -0.1858 -1.3313  1.7460
  125OSM     NF13228   1.073   1.097   3.831 -0.0582  0.0247 -0.2197
  125OSM    HNF13229   1.001   1.161   3.805 -1.5112 -0.5856  1.9568
  125OSM    C2S13230   1.199   1.106   3.763 -0.3492 -0.2131  0.0602
  125OSM    H2S13231   1.280   1.074   3.833 -0.2967 -0.8979 -0.3022
  125OSM    C3S13232   1.236   1.246   3.696  0.5532  0.1639 -0.2060
  125OSM    H3S13233   1.171   1.268   3.609  0.7795 -0.2935 -0.4953
  125OSM     O313234   1.371   1.243   3.643  0.6118 -0.1917  0.3760
  125OSM    HO313235   1.393   1.158   3.603  1.2805  0.1723 -0.0455
  125OSM    C4S13236   1.225   1.355   3.801 -0.4622 -0.0396 -0.1610
  125OSM    H4S13237   1.144   1.423   3.774  0.2283  0.8345 -0.0811
  125OSM    C5S13238   1.299   1.372   3.918  0.3685  0.2949  0.2385
  125OSM    H5S13239   1.379   1.303   3.950  0.4400  1.2962  2.3522
  125OSM    C6S13240   1.268   1.467   4.034  0.2272  0.1224  0.6997
  125OSM    H6S13241   1.190   1.542   4.010 -2.3855 -2.6637  0.0286
  125OSM    H6T13242   1.360   1.527   4.056 -0.2757  1.0368  0.3535
  125OSM    C7S13243   1.232   1.391   4.156 -0.7015 -0.3830 -0.5929
  125OSM    H7S13244   1.315   1.321   4.179 -3.0642 -2.3373  3.0605
  125OSM    H7T13245   1.140   1.329   4.150 -0.5447 -0.8038  0.8092
  125OSM    C8S13246   1.224   1.479   4.283 -0.4591  0.1164  0.0102
  125OSM    H8S13247   1.151   1.558   4.253 -1.9143 -0.5336  1.6947
  125OSM    H8T13248   1.323   1.526   4.299 -0.0544  0.3371 -2.6356
  125OSM    C9S13249   1.180   1.403   4.410 -0.2758 -0.1905 -0.1108
  125OSM    H9S13250   1.261   1.334   4.440 -0.8120 -0.5464  0.5424
  125OSM    H9T13251   1.092   1.338   4.389  0.0299 -0.6287 -0.0516
  125OSM   C10S13252   1.144   1.493   4.528 -0.3343  0.6675 -0.5916
  125OSM   H10S13253   1.064   1.569   4.511  0.3311  1.5290  0.0189
  125OSM   H10T13254   1.238   1.548   4.552  0.6595 -0.3000 -2.1057
  125OSM   C11S13255   1.103   1.405   4.648  0.6034 -0.1214 -0.6452
  125OSM   H11S13256   1.175   1.323   4.667  1.2458  1.0330  2.5144
  125OSM   H11T13257   1.005   1.354   4.633 -0.0849  0.9492  0.0531
  125OSM   C12S13258   1.086   1.496   4.770 -0.1144  0.2332  0.3750
  125OSM   H12S13259   1.021   1.580   4.738  0.9968  0.7254 -0.6780
  125OSM   H12T13260   1.183   1.543   4.797  0.2422 -1.3944  2.0936
  125OSM   C13S13261   1.027   1.422   4.887 -0.1824  0.6369  0.4769
  125OSM   H13S13262   1.082   1.326   4.904  1.2587  0.9605 -1.9340
  125OSM   H13T13263   0.921   1.398   4.865 -0.1547 -0.8744  1.7635
  125OSM   C14S13264   1.021   1.497   5.020  0.3370  0.2820 -0.2545
  125OSM   H14S13265   0.949   1.580   5.010  1.1350  0.7954 -2.2607
  125OSM   H14T13266   1.116   1.543   5.054 -0.8960  0.8599  2.7399
  125OSM   C15S13267   0.953   1.401   5.121  0.3552 -0.0905 -0.7303
  125OSM   H15S13268   1.022   1.318   5.148  0.3247  0.2175  0.3366
  125OSM   H15T13269   0.857   1.355   5.088  0.4855 -1.5684  0.8114
  125OSM   C16S13270   0.915   1.480   5.251  0.3839 -0.2345 -0.3715
  125OSM   H16S13271   0.825   1.541   5.230 -0.9328 -0.3976  3.8123
  125OSM   H16T13272   1.003   1.543   5.277 -0.7339  0.8140  1.0337
  125OSM   C17S13273   0.909   1.387   5.374  0.4489  0.3528  0.2123
  125OSM   H17S13274   0.895   1.442   5.470  3.4047  2.4337 -0.4170
  125OSM   H17T13275   1.011   1.348   5.394  0.4846  0.6669  0.6738
  125OSM   C18S13276   0.807   1.282   5.347  0.3294  0.0486 -0.0654
  125OSM   H18S13277   0.795   1.256   5.240  0.1249  3.3285 -0.9255
  125OSM   H18T13278   0.716   1.343   5.363  0.1243 -0.4948  0.9324
  125OSM   H18U13279   0.812   1.194   5.415 -0.4433  0.3347  0.3755
  125OSM    C1F13280   1.050   0.995   3.924  0.4111 -0.0887 -0.3859
  125OSM     OF13281   1.140   0.926   3.966  0.5033  0.5159  0.7553
  125OSM    C2F13282   0.917   0.988   3.987 -0.5427 -0.0485  0.1498
  125OSM    H2F13283   0.873   0.886   3.987 -1.2175  0.2345 -0.3761
  125OSM    H2G13284   0.845   1.047   3.927  0.2412 -1.7308 -2.5787
  125OSM    C3F13285   0.921   1.025   4.133  0.0535 -0.3702  0.4737
  125OSM    H3F13286   0.987   1.113   4.145 -2.3573  1.6414  0.0056
  125OSM    H3G13287   0.969   0.939   4.185  0.6660  0.2723  0.9875
  125OSM    C4F13288   0.786   1.063   4.183 -0.6414  0.0470 -0.9944
  125OSM    H4F13289   0.718   0.977   4.162 -1.8071  0.7639 -0.2557
  125OSM    H4G13290   0.750   1.155   4.133 -2.7453 -0.7712 -1.0892
  125OSM    C5F13291   0.800   1.084   4.335 -0.2457  0.3679 -0.0279
  125OSM    H5F13292   0.870   1.170   4.336  0.3492 -0.0921  1.8546
  125OSM    H5G13293   0.855   1.016   4.404 -2.7464 -0.6404  1.1006
  125OSM    C6F13294   0.660   1.121   4.395 -0.4159 -0.3057  0.0994
  125OSM    H6F13295   0.592   1.033   4.394  1.1903 -1.6076  0.7628
  125OSM    H6G13296   0.613   1.194   4.327  2.7762  1.0541 -0.8177
  125OSM    C7F13297   0.675   1.185   4.531 -0.3992  0.2429 -0.3184
  125OSM    H7F13298   0.586   1.247   4.555 -0.7205  0.3084 -1.6184
  125OSM    H7G13299   0.757   1.260   4.536  1.6377 -1.7999 -1.2856
  125OSM    C8F13300   0.698   1.082   4.648 -0.3406  0.8651  0.1269
  125OSM    H8F13301   0.799   1.040   4.630  0.0319  1.4155  0.8509
  125OSM    H8G13302   0.618   1.006   4.658  1.6358 -1.0811  2.3693
  125OSM    C9F13303   0.717   1.156   4.783  0.0922 -0.1942  0.2660
  125OSM    H9F13304   0.799   1.230   4.781 -1.6854  1.8441 -0.2659
  125OSM   C10F13305   0.635   1.147   4.895  0.2190  0.0517  0.3489
  125OSM   H10F13306   0.685   1.177   4.989  1.3671  2.2178 -0.8633
  125OSM   C11F13307   0.507   1.072   4.907  1.0397  0.1081  0.3382
  125OSM   H11F13308   0.511   0.966   4.938  1.7049 -0.1087 -0.4660
  125OSM   H11G13309   0.460   1.067   4.806  1.7123 -3.4086  0.0890
  125OSM   C12F13310   0.394   1.132   4.990  0.9981  0.1817 -0.1543
  125OSM   H12F13311   0.295   1.083   4.976  0.9605  0.0185  0.6800
  125OSM   H12G13312   0.386   1.239   4.958  0.1010  0.2068  0.1251
  125OSM   C13F13313   0.422   1.135   5.143  0.2816  0.8480  0.2636
  125OSM   H13F13314   0.532   1.149   5.153  0.2716  0.3165  1.2257
  125OSM   H13G13315   0.398   1.035   5.185 -0.9301 -0.2994 -2.9082
  125OSM   C14F13316   0.337   1.242   5.209 -0.2083  0.3141  0.5376
  125OSM   H14F13317   0.232   1.240   5.172  0.6129 -2.5125 -2.1696
  125OSM   H14G13318   0.382   1.340   5.184  2.1248 -0.7819  0.1147
  125OSM   C15F13319   0.332   1.218   5.362 -0.2452  0.2637  0.5400
  125OSM   H15F13320   0.433   1.223   5.408  0.4571  1.2441 -1.0339
  125OSM   H15G13321   0.305   1.111   5.366  0.7941 -0.0838 -0.7640
  125OSM   C16F13322   0.231   1.297   5.440 -0.3721  1.2553  0.3124
  125OSM   H16F13323   0.188   1.238   5.524  0.4459 -1.1320 -0.8695
  125OSM   H16G13324   0.148   1.327   5.373 -0.9029  2.6994  1.5687
  125OSM   C17F13325   0.296   1.424   5.493  0.1904 -0.2336  0.5698
  125OSM   H17F13326   0.337   1.470   5.400  2.3678  2.9019  2.8536
  125OSM   H17G13327   0.383   1.402   5.558 -0.7362  0.9160  2.2606
  125OSM   C18F13328   0.202   1.523   5.562  0.2127  0.4278  0.1724
  125OSM   H18F13329   0.174   1.485   5.663 -1.1452 -1.4293 -0.8263
  125OSM   H18G13330   0.114   1.542   5.497 -0.3209 -1.1851  0.3571
  125OSM   H18H13331   0.251   1.621   5.578  0.0316  0.3967  0.9249
  126OSM      N13332   0.148   2.896   3.488 -0.5011 -0.3095 -0.2689
  126OSM    C1513333   0.216   2.930   3.358 -1.3426  0.1901 -0.6133
  126OSM   H15A13334   0.317   2.965   3.375 -2.1017  2.0430  0.3257
  126OSM   H15B13335   0.160   3.003   3.302 -0.5263 -0.1541 -1.9241
  126OSM   H15C13336   0.219   2.837   3.302 -1.9937  0.0041 -0.3519
  126OSM    C1413337   0.002   2.881   3.456  0.6647  0.0385 -0.5626
  126OSM   H14A13338  -0.057   2.880   3.546 -0.6265 -1.3680 -1.3665
  126OSM   H14B13339  -0.005   2.788   3.401 -1.6675 -0.4300  0.4037
  126OSM   H14C13340  -0.045   2.961   3.401 -1.3597  0.5349  1.6931
  126OSM    C1313341   0.196   2.770   3.545 -0.2335 -1.2091  0.3045
  126OSM   H13A13342   0.292   2.794   3.589  0.3718  0.5869 -1.8372
  126OSM   H13B13343   0.214   2.695   3.469 -0.9577 -1.2690  0.1882
  126OSM   H13C13344   0.131   2.727   3.620 -0.9311  0.8303  0.9058
  126OSM    C1213345   0.163   3.009   3.582  0.0687 -0.0288 -0.1261
  126OSM   H12A13346   0.133   2.968   3.678 -0.1159  0.7599  0.1561
  126OSM   H12B13347   0.093   3.080   3.542  1.6456  0.0222 -3.0825
  126OSM    C1113348   0.298   3.079   3.590 -0.7272  0.1268  0.6202
  126OSM   H11A13349   0.364   2.990   3.599  1.7419  1.6884 -0.9283
  126OSM   H11B13350   0.300   3.136   3.685  0.4260  0.7614  0.2279
  126OSM      P13351   0.262   3.289   3.427  0.1778 -0.1300  0.1572
  126OSM    O1313352   0.333   3.338   3.310 -0.0121  0.2920  0.4376
  126OSM    O1413353   0.113   3.265   3.410  0.4155 -0.0440 -0.0762
  126OSM    O1113354   0.289   3.395   3.543  0.1793 -0.3766  0.3344
  126OSM    O1213355   0.335   3.159   3.472  0.3428  0.0875 -1.0457
  126OSM    C1S13356   0.201   3.415   3.653 -0.0243 -0.2840  0.2432
  126OSM    H1S13357   0.181   3.314   3.694 -0.5360 -0.5579 -0.6556
  126OSM    H1T13358   0.111   3.475   3.626  1.3374  1.9057  0.3274
  126OSM     NF13359   0.201   3.503   3.881 -0.6315 -0.2351  0.8607
  126OSM    HNF13360   0.130   3.570   3.901  1.5520  2.4050  0.4223
  126OSM    C2S13361   0.265   3.515   3.746 -0.3670 -0.0077 -0.2848
  126OSM    H2S13362   0.372   3.493   3.762 -0.9120 -2.1797  0.8198
  126OSM    C3S13363   0.263   3.658   3.689  0.0184 -0.2104  0.9227
  126OSM    H3S13364   0.163   3.680   3.646 -0.1724 -0.0604  1.4266
  126OSM     O313365   0.344   3.680   3.573  0.6020 -0.4628 -0.4483
  126OSM    HO313366   0.373   3.592   3.545  3.4088  0.3206 -0.3227
  126OSM    C4S13367   0.303   3.768   3.789  0.7097  0.1691 -0.2335
  126OSM    H4S13368   0.390   3.756   3.856  0.8161  0.6832 -0.2762
  126OSM    C5S13369   0.227   3.872   3.812 -0.0703 -0.5608 -0.5032
  126OSM    H5S13370   0.137   3.887   3.751  0.7531 -0.0856 -1.6225
  126OSM    C6S13371   0.262   3.978   3.910  0.4000  0.2218 -1.1714
  126OSM    H6S13372   0.182   4.056   3.912  1.6857  1.5882 -0.9036
  126OSM    H6T13373   0.346   4.033   3.863 -0.1139  1.9029 -0.2180
  126OSM    C7S13374   0.307   3.936   4.056 -0.6153 -0.0113  0.1508
  126OSM    H7S13375   0.348   4.024   4.111  0.7225 -1.8729  2.3086
  126OSM    H7T13376   0.385   3.858   4.066  0.7626  1.5446  2.8388
  126OSM    C8S13377   0.193   3.892   4.149  0.9214  0.2292  0.5264
  126OSM    H8S13378   0.155   3.796   4.107  3.2292 -0.4058 -0.2601
  126OSM    H8T13379   0.114   3.971   4.149  1.1022  0.4097  0.3046
  126OSM    C9S13380   0.225   3.867   4.295  0.8280  0.0720  0.3925
  126OSM    H9S13381   0.251   3.966   4.339 -2.0670  1.4378 -0.7359
  126OSM    H9T13382   0.319   3.807   4.303  0.3630 -0.6689  0.4197
  126OSM   C10S13383   0.110   3.820   4.378  1.3156 -0.3712  0.2281
  126OSM   H10S13384   0.092   3.713   4.353  1.7600 -0.1804 -0.9417
  126OSM   H10T13385   0.024   3.879   4.339  1.2596 -1.1388 -0.8529
  126OSM   C11S13386   0.142   3.841   4.528  0.2300  0.4927  0.5814
  126OSM   H11S13387   0.195   3.938   4.542 -1.0624  1.2899  0.1902
  126OSM   H11T13388   0.213   3.760   4.554 -0.5851 -0.6641 -0.6606
  126OSM   C12S13389   0.016   3.834   4.609  0.3018  0.1641  0.5215
  126OSM   H12S13390  -0.062   3.768   4.567 -2.1664  3.9407 -1.4187
  126OSM   H12T13391  -0.039   3.930   4.603 -3.6398 -1.9412  0.1414
  126OSM   C13S13392   0.031   3.811   4.756  0.3064  0.1693  0.8138
  126OSM   H13S13393   0.073   3.901   4.805 -0.0299  0.5859  0.3461
  126OSM   H13T13394   0.102   3.731   4.784  0.5642  0.4961  1.0978
  126OSM   C14S13395  -0.103   3.770   4.823 -0.1820  0.2079  0.1189
  126OSM   H14S13396  -0.135   3.687   4.756  1.7788 -0.4382 -0.0920
  126OSM   H14T13397  -0.171   3.858   4.812  0.8274  1.0274  0.3165
  126OSM   C15S13398  -0.086   3.739   4.970 -0.2494 -0.3700  0.2051
  126OSM   H15S13399  -0.031   3.826   5.014  1.6303 -0.5671 -1.5990
  126OSM   H15T13400  -0.030   3.645   4.990  0.8266 -0.1715 -1.6698
  126OSM   C16S13401  -0.217   3.714   5.044  0.1923 -0.0585  0.7150
  126OSM   H16S13402  -0.242   3.611   5.011 -2.9142  1.1196 -1.0727
  126OSM   H16T13403  -0.298   3.782   5.010  0.1662 -0.6787 -0.5444
  126OSM   C17S13404  -0.186   3.710   5.192  0.2614  0.5316 -0.2196
  126OSM   H17S13405  -0.150   3.808   5.232  0.4446 -0.7282  2.9942
  126OSM   H17T13406  -0.104   3.637   5.207  1.6566  1.8737 -0.9448
  126OSM   C18S13407  -0.307   3.657   5.278 -0.0155  0.3280  0.1819
  126OSM   H18S13408  -0.382   3.739   5.287  0.0824  0.3190  1.2729
  126OSM   H18T13409  -0.270   3.632   5.380  2.0159  0.2147 -0.5501
  126OSM   H18U13410  -0.355   3.569   5.230 -1.4235  1.4835 -0.6192
  126OSM    C1F13411   0.225   3.400   3.960  0.4558  0.3341 -0.8269
  126OSM     OF13412   0.281   3.306   3.915 -0.1894  0.0211  0.8617
  126OSM    C2F13413   0.171   3.401   4.100  0.1133  0.3710  0.5447
  126OSM    H2F13414   0.111   3.309   4.113 -0.9467  0.9497 -0.1587
  126OSM    H2G13415   0.111   3.493   4.117 -2.3086 -0.9689 -0.3765
  126OSM    C3F13416   0.285   3.413   4.204  0.7594  0.4968  1.0540
  126OSM    H3F13417   0.311   3.521   4.197 -0.3789  0.6659 -1.5992
  126OSM    H3G13418   0.381   3.359   4.188  0.2768  0.0077 -0.2748
  126OSM    C4F13419   0.246   3.363   4.335 -0.1396 -0.2716 -0.3004
  126OSM    H4F13420   0.220   3.255   4.331  1.3853 -0.7277  1.0914
  126OSM    H4G13421   0.156   3.424   4.359 -0.2009 -0.0326 -1.1027
  126OSM    C5F13422   0.343   3.413   4.445 -0.4551 -0.1499  0.2356
  126OSM    H5F13423   0.362   3.517   4.412  1.4328 -1.5533 -3.7114
  126OSM    H5G13424   0.430   3.344   4.443 -1.4128 -1.4144  1.0003
  126OSM    C6F13425   0.282   3.386   4.586 -0.0896  0.1097  0.0002
  126OSM    H6F13426   0.228   3.288   4.581  0.5322 -0.2085 -0.6587
  126OSM    H6G13427   0.200   3.460   4.600  0.1324  0.6220 -1.3011
  126OSM    C7F13428   0.373   3.401   4.709 -0.3044 -0.3822 -0.0400
  126OSM    H7F13429   0.459   3.331   4.702 -0.0914  0.0521 -2.4021
  126OSM    H7G13430   0.318   3.367   4.800 -0.5326  2.5934  1.0235
  126OSM    C8F13431   0.422   3.544   4.728 -0.2566 -0.2764  0.4901
  126OSM    H8F13432   0.332   3.609   4.726  0.3189  0.6197 -2.7659
  126OSM    H8G13433   0.491   3.577   4.647  1.0831 -0.5348  1.4892
  126OSM    C9F13434   0.480   3.539   4.865  0.0580  1.0471 -0.5558
  126OSM    H9F13435   0.583   3.500   4.870 -0.0765  0.6882 -0.5514
  126OSM   C10F13436   0.432   3.571   4.987  0.3132  0.6228  0.1975
  126OSM   H10F13437   0.470   3.543   5.086  0.1618  1.4248  0.4877
  126OSM   C11F13438   0.295   3.637   4.998 -0.3454 -0.1526  0.0713
  126OSM   H11F13439   0.222   3.566   4.953  0.2236 -0.3134 -0.6192
  126OSM   H11G13440   0.286   3.736   4.950 -0.7922 -0.1622  0.1273
  126OSM   C12F13441   0.244   3.651   5.147  0.3245  0.1776  0.5962
  126OSM   H12F13442   0.298   3.576   5.209  1.9648  1.0624  0.3123
  126OSM   H12G13443   0.136   3.627   5.144  0.0941  1.2837 -1.8899
  126OSM   C13F13444   0.261   3.786   5.211 -0.0195 -0.0508  0.3386
  126OSM   H13F13445   0.187   3.854   5.164  0.1182 -1.1719 -1.6430
  126OSM   H13G13446   0.366   3.812   5.186 -0.6949  2.4372 -0.1986
  126OSM   C14F13447   0.251   3.789   5.359  0.2587 -0.4022 -0.2649
  126OSM   H14F13448   0.245   3.895   5.389  2.4514 -0.5573  0.9273
  126OSM   H14G13449   0.338   3.735   5.404  0.3841  0.6212  0.7621
  126OSM   C15F13450   0.118   3.727   5.418  0.1031  0.1598  0.4829
  126OSM   H15F13451   0.130   3.617   5.406  1.0841  0.3110 -0.0500
  126OSM   H15G13452   0.031   3.750   5.353  0.4958 -0.7443 -0.3873
  126OSM   C16F13453   0.107   3.758   5.564 -0.2762 -0.5210 -0.6439
  126OSM   H16F13454   0.096   3.868   5.565  2.3187 -0.2245  0.1771
  126OSM   H16G13455   0.198   3.730   5.621 -2.1853 -0.0134  2.9423
  126OSM   C17F13456  -0.011   3.688   5.636  0.1739  0.0656 -0.3662
  126OSM   H17F13457  -0.007   3.578   5.624 -1.1129 -0.2246  1.4117
  126OSM   H17G13458  -0.107   3.719   5.591 -0.2521  0.1548  0.5924
  126OSM   C18F13459  -0.028   3.718   5.787 -1.0511  0.7354  0.1337
  126OSM   H18F13460  -0.052   3.824   5.810  0.1112  1.2281 -0.8246
  126OSM   H18G13461   0.062   3.694   5.848 -0.9275 -1.4238 -0.8009
  126OSM   H18H13462  -0.115   3.663   5.828 -1.5181  0.7715 -0.7846
  127OSM      N13463   6.607   6.093   3.177  0.0168  0.0693 -0.2916
  127OSM    C1513464   6.621   6.244   3.152  0.6575 -0.3998  0.1822
  127OSM   H15A13465   6.638   6.286   3.250 -2.7678  1.5556  0.1170
  127OSM   H15B13466   6.529   6.287   3.112  0.1233 -1.1345  0.6083
  127OSM   H15C13467   6.688   6.265   3.070  1.2604 -1.2258  0.4533
  127OSM    C1413468   6.543   6.032   3.057  0.1894 -0.0009  0.3699
  127OSM   H14A13469   6.592   6.049   2.962 -0.6483  0.8546  0.0693
  127OSM   H14B13470   6.439   6.058   3.044 -0.7204 -2.1625  2.4958
  127OSM   H14C13471   6.547   5.925   3.072  3.4117 -0.0760 -0.2622
  127OSM    C1313472   6.740   6.020   3.193  0.1723  0.3010 -0.2462
  127OSM   H13A13473   6.778   6.060   3.286 -1.8838  1.3650  0.1954
  127OSM   H13B13474   6.804   6.032   3.106  0.1033 -0.6968 -0.4409
  127OSM   H13C13475   6.724   5.914   3.201 -1.5352  0.6038  0.8105
  127OSM    C1213476   6.518   6.058   3.297 -0.2480  0.0218 -0.1515
  127OSM   H12A13477   6.499   5.952   3.293  0.4014 -0.1147  0.2045
  127OSM   H12B13478   6.426   6.115   3.292 -0.2849 -0.0253 -0.0002
  127OSM    C1113479   6.571   6.080   3.445  0.1248  0.8251  0.5027
  127OSM   H11A13480   6.678   6.050   3.449 -0.5169 -1.8207  0.1367
  127OSM   H11B13481   6.514   6.011   3.511  2.3849 -2.3168 -0.5579
  127OSM      P13482   6.669   6.322   3.511 -0.2695 -0.3380  0.3337
  127OSM    O1313483   6.805   6.285   3.456 -0.6309  0.2319 -0.3742
  127OSM    O1413484   6.614   6.448   3.473  0.5456 -0.3068 -0.3762
  127OSM    O1113485   6.675   6.313   3.671  1.1902 -0.4313  0.1969
  127OSM    O1213486   6.563   6.213   3.485  0.8969  0.1375  0.3519
  127OSM    C1S13487   6.735   6.206   3.737  0.0975  0.0010 -0.3900
  127OSM    H1S13488   6.844   6.224   3.743  0.1701 -0.7291  0.8640
  127OSM    H1T13489   6.724   6.105   3.691  1.7726 -0.3423 -0.0927
  127OSM     NF13490   6.779   6.127   3.969 -0.7218  0.5517 -0.0587
  127OSM    HNF13491   6.764   6.030   3.988 -1.7000  1.0151  1.8387
  127OSM    C2S13492   6.684   6.193   3.884  0.0312  0.1157  0.0395
  127OSM    H2S13493   6.660   6.291   3.931  0.3966 -0.0121  0.5080
  127OSM    C3S13494   6.538   6.128   3.889 -0.1971  0.1220 -0.3366
  127OSM    H3S13495   6.552   6.025   3.848  0.1814  0.6746 -1.6432
  127OSM     O313496   6.446   6.189   3.803  0.0236  0.2470 -0.1375
  127OSM    HO313497   6.495   6.226   3.729 -1.1968 -1.0007 -1.6388
  127OSM    C4S13498   6.494   6.104   4.028 -0.1546  0.4615 -0.3155
  127OSM    H4S13499   6.536   6.011   4.067 -1.7084 -0.2111 -0.1982
  127OSM    C5S13500   6.422   6.180   4.113  0.1906  0.9736  0.2667
  127OSM    H5S13501   6.387   6.275   4.068 -1.1711 -0.3039 -1.5341
  127OSM    C6S13502   6.390   6.147   4.257  0.9524 -0.0721  0.2875
  127OSM    H6S13503   6.419   6.040   4.274 -0.0686 -0.2191  1.1575
  127OSM    H6T13504   6.280   6.136   4.265  0.7428 -1.7181 -3.0185
  127OSM    C7S13505   6.447   6.237   4.364 -0.3214  0.8596 -0.3280
  127OSM    H7S13506   6.399   6.335   4.341 -0.3434  0.8730 -0.2226
  127OSM    H7T13507   6.556   6.255   4.354 -0.1076 -1.0913 -2.5227
  127OSM    C8S13508   6.409   6.193   4.510  0.0151  0.1866  0.5907
  127OSM    H8S13509   6.453   6.095   4.536  0.3518 -0.2019 -1.3381
  127OSM    H8T13510   6.299   6.183   4.510  0.1258 -1.1817  0.9493
  127OSM    C9S13511   6.450   6.303   4.609 -0.2001  0.2320  0.3838
  127OSM    H9S13512   6.415   6.398   4.563 -0.2092 -0.4484 -1.0687
  127OSM    H9T13513   6.561   6.305   4.601 -0.2660  1.0596 -0.7100
  127OSM   C10S13514   6.401   6.274   4.752 -0.4459 -0.4464 -0.2203
  127OSM   H10S13515   6.436   6.177   4.792 -0.3537  0.5973  2.4055
  127OSM   H10T13516   6.290   6.274   4.750 -0.4677  1.0959 -1.3270
  127OSM   C11S13517   6.438   6.391   4.844 -0.5744 -0.0999 -0.2064
  127OSM   H11S13518   6.409   6.485   4.794 -2.0390 -1.0171 -1.1694
  127OSM   H11T13519   6.546   6.390   4.870 -0.9533  0.1392  1.4996
  127OSM   C12S13520   6.369   6.377   4.987  0.0243 -0.3844 -0.6627
  127OSM   H12S13521   6.394   6.276   5.028  3.2609  1.0677  1.2855
  127OSM   H12T13522   6.259   6.390   4.983 -0.0434  0.1283  1.5365
  127OSM   C13S13523   6.406   6.484   5.086 -0.2327 -0.0045 -0.0370
  127OSM   H13S13524   6.398   6.590   5.053 -0.7436  0.5142  1.5973
  127OSM   H13T13525   6.513   6.473   5.113  0.0875  2.4350 -0.1172
  127OSM   C14S13526   6.324   6.458   5.212 -0.1819 -0.3878  0.9243
  127OSM   H14S13527   6.315   6.349   5.229 -0.2154 -0.8455 -1.6817
  127OSM   H14T13528   6.224   6.506   5.203 -0.6935 -1.5808  0.0833
  127OSM   C15S13529   6.406   6.522   5.328 -0.1675 -0.0418 -0.0074
  127OSM   H15S13530   6.396   6.631   5.310 -0.4981 -0.0103  0.3488
  127OSM   H15T13531   6.512   6.489   5.318  0.1106  0.4161  1.2171
  127OSM   C16S13532   6.350   6.473   5.457  0.4899  0.0701  0.3342
  127OSM   H16S13533   6.359   6.362   5.465  0.8003  0.1415  1.0871
  127OSM   H16T13534   6.246   6.513   5.461  1.1361  1.7594  1.0555
  127OSM   C17S13535   6.429   6.535   5.575  0.3228  0.1334  0.4632
  127OSM   H17S13536   6.538   6.534   5.557  0.4396  4.7302 -0.2494
  127OSM   H17T13537   6.434   6.482   5.672  1.4933 -0.4279  0.1130
  127OSM   C18S13538   6.391   6.684   5.599 -0.3760 -0.4612  0.4208
  127OSM   H18S13539   6.451   6.739   5.675  0.1889 -1.8596  1.0130
  127OSM   H18T13540   6.286   6.692   5.635  0.6259  2.5060  3.1333
  127OSM   H18U13541   6.391   6.744   5.505 -0.7913  1.0963  1.3897
  127OSM    C1F13542   6.894   6.177   4.012  0.5425  0.2340 -0.2988
  127OSM     OF13543   6.931   6.291   3.980  0.8359 -0.4418 -0.4676
  127OSM    C2F13544   6.991   6.084   4.079  0.6064 -0.1633 -0.3037
  127OSM    H2F13545   7.090   6.100   4.031  0.9586 -1.8421 -0.2048
  127OSM    H2G13546   6.946   5.985   4.060 -2.3034  0.6151  1.9396
  127OSM    C3F13547   6.999   6.100   4.228 -0.3593  0.2022  0.5854
  127OSM    H3F13548   7.027   6.202   4.261  0.3871  1.4187 -3.2539
  127OSM    H3G13549   7.084   6.031   4.247  0.4862  0.7863 -0.8724
  127OSM    C4F13550   6.877   6.035   4.295  0.0524  0.1131  0.3583
  127OSM    H4F13551   6.849   5.940   4.243  4.5705  0.3384 -3.0641
  127OSM    H4G13552   6.790   6.103   4.285  0.7813  1.3752  2.1601
  127OSM    C5F13553   6.896   6.001   4.436 -0.9974  0.1925  0.0023
  127OSM    H5F13554   6.991   5.945   4.446  0.4574  2.3002 -1.0651
  127OSM    H5G13555   6.813   5.934   4.466 -1.6461  0.1290 -1.8229
  127OSM    C6F13556   6.901   6.119   4.534  0.7697 -0.0987  0.5053
  127OSM    H6F13557   6.828   6.199   4.507 -0.9792 -1.1505  1.8860
  127OSM    H6G13558   7.001   6.166   4.527  1.3541 -1.4670 -0.7771
  127OSM    C7F13559   6.881   6.077   4.680  0.5193 -0.0280  0.4524
  127OSM    H7F13560   6.945   5.988   4.695  1.8593  0.7997 -0.0530
  127OSM    H7G13561   6.780   6.032   4.684  1.0368 -1.1529  1.3419
  127OSM    C8F13562   6.902   6.198   4.773  0.5085 -0.1526 -0.3356
  127OSM    H8F13563   6.814   6.265   4.768  1.5730  1.2248 -1.3094
  127OSM    H8G13564   6.988   6.258   4.738 -1.4762  2.6309 -0.8070
  127OSM    C9F13565   6.919   6.133   4.910 -0.9860 -0.2046 -0.3665
  127OSM    H9F13566   7.021   6.097   4.930  0.5458  3.3370 -1.0968
  127OSM   C10F13567   6.829   6.125   5.009 -0.3352 -0.3578 -0.3827
  127OSM   H10F13568   6.861   6.071   5.100 -0.6651  0.0468 -0.0190
  127OSM   C11F13569   6.685   6.170   5.018 -0.7413  0.4847  0.1788
  127OSM   H11F13570   6.644   6.187   4.917  1.0607  0.6069 -0.5621
  127OSM   H11G13571   6.667   6.262   5.078  0.0453 -0.4449  1.9500
  127OSM   C12F13572   6.599   6.068   5.094 -0.1265  0.0097 -0.5141
  127OSM   H12F13573   6.593   5.976   5.031 -1.9211 -0.3733  0.1511
  127OSM   H12G13574   6.497   6.113   5.097  0.0667  0.5879 -1.9042
  127OSM   C13F13575   6.643   6.040   5.239 -0.2920 -0.6489 -0.5769
  127OSM   H13F13576   6.722   6.115   5.264  1.5378 -2.7077  0.1257
  127OSM   H13G13577   6.701   5.946   5.245  0.2259 -0.2840  0.4319
  127OSM   C14F13578   6.527   6.033   5.346 -0.3558  0.2419  0.1645
  127OSM   H14F13579   6.484   5.931   5.360  0.8506 -0.0053  2.6196
  127OSM   H14G13580   6.443   6.094   5.307  0.4018 -0.0285 -1.9934
  127OSM   C15F13581   6.572   6.080   5.486  0.1085  0.1902 -0.3889
  127OSM   H15F13582   6.624   6.178   5.488  0.3238  0.0906 -0.8725
  127OSM   H15G13583   6.629   5.993   5.524 -0.9118 -1.3765 -2.2378
  127OSM   C16F13584   6.457   6.096   5.586 -0.3454 -0.0251 -0.3525
  127OSM   H16F13585   6.390   6.009   5.569  0.9477 -1.5880  1.9988
  127OSM   H16G13586   6.397   6.188   5.573  2.7853  2.7004  2.4645
  127OSM   C17F13587   6.508   6.087   5.734  0.8219 -0.8656  0.1162
  127OSM   H17F13588   6.583   6.166   5.754 -1.1563  1.2369 -0.3805
  127OSM   H17G13589   6.558   5.988   5.746  2.8193  0.1676  0.7830
  127OSM   C18F13590   6.389   6.107   5.828 -0.8969 -0.3531  0.0583
  127OSM   H18F13591   6.317   6.023   5.834 -0.1750 -0.8872  1.7655
  127OSM   H18G13592   6.329   6.196   5.799 -0.7888 -0.1858  0.3439
  127OSM   H18H13593   6.414   6.123   5.935 -4.2865  0.4423  0.8237
  128OSM      N13594   1.737   6.202   3.566  0.7192 -0.0021  0.0538
  128OSM    C1513595   1.833   6.100   3.533 -0.9730  1.1202 -0.7587
  128OSM   H15A13596   1.795   6.007   3.572  0.0361  0.5434 -1.0939
  128OSM   H15B13597   1.920   6.116   3.595 -1.6818  1.6274  0.1221
  128OSM   H15C13598   1.846   6.085   3.427  0.9371 -0.8376 -0.3407
  128OSM    C1413599   1.790   6.333   3.527 -0.6671  0.1007 -0.1602
  128OSM   H14A13600   1.718   6.409   3.555 -0.0610  0.4325  0.5330
  128OSM   H14B13601   1.806   6.344   3.420 -0.7625 -0.0828 -0.1935
  128OSM   H14C13602   1.889   6.341   3.569  0.2705 -0.5439 -2.1280
  128OSM    C1313603   1.616   6.180   3.493  0.4337  0.1130  0.0393
  128OSM   H13A13604   1.640   6.164   3.389  0.1482 -1.2826  0.1623
  128OSM   H13B13605   1.538   6.255   3.497  0.2074 -0.1720  1.9382
  128OSM   H13C13606   1.571   6.084   3.514 -1.7773  1.0279 -0.1847
  128OSM    C1213607   1.715   6.210   3.721 -0.1641 -0.3799  0.4079
  128OSM   H12A13608   1.623   6.265   3.738  0.5936  1.6480 -1.5428
  128OSM   H12B13609   1.798   6.272   3.750 -0.8234  0.7748 -0.0997
  128OSM    C1113610   1.692   6.079   3.797 -0.1877 -0.7149  0.1183
  128OSM   H11A13611   1.684   6.091   3.908  0.4373 -2.7829  0.4343
  128OSM   H11B13612   1.784   6.020   3.776  1.5402  1.5262  0.9282
  128OSM      P13613   1.432   6.044   3.795 -0.0060  0.3726 -0.0017
  128OSM    O1313614   1.408   6.188   3.772 -0.1137  0.0669  0.4265
  128OSM    O1413615   1.338   5.945   3.728 -0.2269 -0.2142  0.7212
  128OSM    O1113616   1.449   6.013   3.959 -0.2813 -0.3085  1.0518
  128OSM    O1213617   1.579   6.013   3.746 -0.1525 -0.0224 -0.2968
  128OSM    C1S13618   1.504   5.889   3.999 -0.2792  0.3334  0.3501
  128OSM    H1S13619   1.604   5.883   3.951 -0.3086  0.2296  0.3006
  128OSM    H1T13620   1.440   5.799   3.984  2.9483 -2.5456  2.3439
  128OSM     NF13621   1.603   5.787   4.197 -0.1319  0.8458  0.3539
  128OSM    HNF13622   1.546   5.709   4.221 -0.0401  1.1092  1.4715
  128OSM    C2S13623   1.513   5.890   4.154  0.3400 -0.1176  0.3881
  128OSM    H2S13624   1.557   5.987   4.185 -1.8534  1.2020 -0.3921
  128OSM    C3S13625   1.373   5.890   4.228  0.4955 -0.5956 -1.1841
  128OSM    H3S13626   1.312   5.803   4.198 -3.1071  0.3798  2.4599
  128OSM     O313627   1.285   5.995   4.192 -0.0700 -0.5775  0.2246
  128OSM    HO313628   1.326   6.026   4.111 -1.5189 -2.3688 -1.2808
  128OSM    C4S13629   1.392   5.902   4.375 -0.2782 -0.5234  0.3026
  128OSM    H4S13630   1.400   6.004   4.415 -1.8579 -1.2078  2.5925
  128OSM    C5S13631   1.394   5.805   4.469  0.4132 -0.0015 -0.0390
  128OSM    H5S13632   1.391   5.698   4.442  2.6191 -0.1552  0.1622
  128OSM    C6S13633   1.394   5.834   4.617 -0.4942 -0.3223  0.1283
  128OSM    H6S13634   1.294   5.797   4.648 -0.4360 -1.1655 -0.6379
  128OSM    H6T13635   1.399   5.940   4.651 -0.7218  0.5873 -2.4487
  128OSM    C7S13636   1.499   5.753   4.695 -0.3623  1.5623 -0.3173
  128OSM    H7S13637   1.608   5.770   4.677 -0.1822  1.2611  0.4134
  128OSM    H7T13638   1.472   5.646   4.693  1.8250  0.9646 -1.1873
  128OSM    C8S13639   1.490   5.786   4.842  0.3550  0.2646  0.9627
  128OSM    H8S13640   1.393   5.741   4.875  1.2507 -2.8859 -0.3356
  128OSM    H8T13641   1.488   5.897   4.851 -0.5268  0.4582 -1.1628
  128OSM    C9S13642   1.599   5.721   4.929 -0.2212 -0.5047  0.4410
  128OSM    H9S13643   1.693   5.775   4.905  0.7198 -0.8278  3.0437
  128OSM    H9T13644   1.601   5.614   4.899 -0.3185 -1.1961  2.6853
  128OSM   C10S13645   1.572   5.755   5.076 -0.4734  0.2276  0.8277
  128OSM   H10S13646   1.480   5.700   5.106  0.3805 -0.0460  3.1750
  128OSM   H10T13647   1.544   5.862   5.091 -1.1013  0.4623 -1.6103
  128OSM   C11S13648   1.680   5.704   5.169  0.0610 -0.1380 -0.7250
  128OSM   H11S13649   1.778   5.752   5.147  0.9448 -0.8988  1.2957
  128OSM   H11T13650   1.698   5.594   5.164  2.4973  0.1715 -0.2154
  128OSM   C12S13651   1.654   5.753   5.316 -0.3006 -0.0998 -0.7176
  128OSM   H12S13652   1.670   5.863   5.317 -1.0115  0.0128  0.6705
  128OSM   H12T13653   1.736   5.712   5.380  1.3823  1.4994 -1.7372
  128OSM   C13S13654   1.523   5.703   5.378 -0.0493 -0.6063  0.2977
  128OSM   H13S13655   1.494   5.602   5.341 -0.9820  0.1051 -1.0094
  128OSM   H13T13656   1.437   5.767   5.349 -1.0731 -0.3210  3.5344
  128OSM   C14S13657   1.539   5.685   5.531 -0.0979 -0.3085  0.0368
  128OSM   H14S13658   1.637   5.647   5.566  0.3592  2.5422  2.2519
  128OSM   H14T13659   1.468   5.604   5.559 -1.4990  0.3448 -1.4792
  128OSM   C15S13660   1.503   5.819   5.588  0.6412  0.2850 -0.3996
  128OSM   H15S13661   1.403   5.851   5.551  0.8668 -0.2870 -1.5518
  128OSM   H15T13662   1.584   5.890   5.561  0.1393  1.2056  0.4488
  128OSM   C16S13663   1.484   5.811   5.738  0.2107 -0.2868  0.0683
  128OSM   H16S13664   1.575   5.754   5.768 -0.9238 -2.1989  0.0568
  128OSM   H16T13665   1.395   5.748   5.757 -1.9311  2.3874 -0.4889
  128OSM   C17S13666   1.474   5.948   5.811  0.1309  0.3090  0.1067
  128OSM   H17S13667   1.386   6.002   5.769  0.6263  0.9913 -0.0691
  128OSM   H17T13668   1.563   6.009   5.788 -0.0167  0.2466 -0.6618
  128OSM   C18S13669   1.459   5.938   5.961  0.4549 -0.0601  0.2373
  128OSM   H18S13670   1.484   6.040   5.997 -2.5809  0.4295  1.2531
  128OSM   H18T13671   1.532   5.868   6.006  0.9102  1.6630  2.3331
  128OSM   H18U13672   1.357   5.911   5.996  0.0632 -0.8035 -1.4067
  128OSM    C1F13673   1.735   5.769   4.172  0.1035  0.1470  0.1386
  128OSM     OF13674   1.789   5.866   4.124  0.0329 -0.3883 -0.2015
  128OSM    C2F13675   1.793   5.633   4.189 -0.2199 -0.5129 -0.1201
  128OSM    H2F13676   1.874   5.628   4.113 -0.8019  2.0518 -0.9999
  128OSM    H2G13677   1.724   5.546   4.186 -3.1699  1.7211 -0.6731
  128OSM    C3F13678   1.855   5.615   4.331  0.5682  0.0291 -0.3879
  128OSM    H3F13679   1.899   5.715   4.355  0.7536 -0.5099  1.6600
  128OSM    H3G13680   1.928   5.533   4.314 -0.0207 -0.1621 -2.1588
  128OSM    C4F13681   1.755   5.577   4.439 -0.3925 -0.4360 -0.4985
  128OSM    H4F13682   1.677   5.509   4.398 -1.3560  1.2076 -1.4732
  128OSM    H4G13683   1.695   5.664   4.474  0.2267 -0.7708  1.5345
  128OSM    C5F13684   1.834   5.515   4.561 -0.0949  0.9657  0.3978
  128OSM    H5F13685   1.920   5.575   4.598 -0.2522  1.1715  0.4333
  128OSM    H5G13686   1.870   5.413   4.538 -4.0500 -0.6075  0.4141
  128OSM    C6F13687   1.738   5.489   4.675 -0.2789 -0.9518  0.2346
  128OSM    H6F13688   1.640   5.474   4.624  0.8222 -0.7647 -2.0416
  128OSM    H6G13689   1.732   5.574   4.747 -0.7514 -0.3553 -0.4887
  128OSM    C7F13690   1.767   5.360   4.750 -0.6467  0.4856  0.6353
  128OSM    H7F13691   1.858   5.377   4.812  0.5155 -1.7146 -0.3674
  128OSM    H7G13692   1.791   5.279   4.678 -2.4031  0.3744  0.1200
  128OSM    C8F13693   1.655   5.304   4.845  0.2204 -0.7856  0.7896
  128OSM    H8F13694   1.569   5.266   4.785  1.0958  0.8043 -1.6512
  128OSM    H8G13695   1.629   5.395   4.903  1.8181  1.1242 -1.2757
  128OSM    C9F13696   1.709   5.194   4.932 -0.0426 -0.1931 -0.0207
  128OSM    H9F13697   1.779   5.117   4.895  0.9022  0.3673  0.5439
  128OSM   C10F13698   1.682   5.187   5.066  0.1202  0.3560 -0.1527
  128OSM   H10F13699   1.709   5.094   5.117 -0.5607  0.2145 -0.0401
  128OSM   C11F13700   1.613   5.282   5.159  0.2103  0.6769 -0.2889
  128OSM   H11F13701   1.526   5.334   5.114 -0.9788  0.9164  2.1108
  128OSM   H11G13702   1.678   5.367   5.186 -1.1633  2.0284 -1.0673
  128OSM   C12F13703   1.552   5.212   5.281  0.7022 -0.8508  0.5747
  128OSM   H12F13704   1.519   5.287   5.356 -0.4616 -1.2285  0.4654
  128OSM   H12G13705   1.626   5.145   5.329  1.3434  0.5645  1.6286
  128OSM   C13F13706   1.438   5.119   5.246  0.3756  0.3001 -0.1923
  128OSM   H13F13707   1.481   5.041   5.179 -0.6237 -0.1506 -0.3264
  128OSM   H13G13708   1.381   5.193   5.187  0.3028  2.2117  2.1077
  128OSM   C14F13709   1.359   5.067   5.365 -0.2581  0.7744 -0.5128
  128OSM   H14F13710   1.300   5.143   5.420 -0.0286 -0.6883  1.9278
  128OSM   H14G13711   1.441   5.038   5.435 -1.0781 -1.2708 -0.3320
  128OSM   C15F13712   1.266   4.955   5.323 -0.8738  0.0036  0.5476
  128OSM   H15F13713   1.317   4.902   5.240 -0.6530  2.9131 -1.3060
  128OSM   H15G13714   1.176   5.003   5.280 -0.5908 -0.3312 -0.4434
  128OSM   C16F13715   1.215   4.873   5.446  0.7040  0.2775 -0.4909
  128OSM   H16F13716   1.171   4.947   5.517  0.9759  1.9183 -1.9728
  128OSM   H16G13717   1.300   4.814   5.488  1.7182  0.0065 -2.7811
  128OSM   C17F13718   1.109   4.771   5.424  0.0939  1.0255  0.5954
  128OSM   H17F13719   1.049   4.739   5.512 -0.1251 -1.7303 -0.4405
  128OSM   H17G13720   1.154   4.669   5.419 -4.1020 -0.9874 -3.5686
  128OSM   C18F13721   1.018   4.776   5.298 -0.5680  0.5282 -0.6072
  128OSM   H18F13722   1.087   4.782   5.211 -0.6409  1.9998 -0.5814
  128OSM   H18G13723   0.954   4.867   5.293 -0.1012  1.4250  4.5901
  128OSM   H18H13724   0.957   4.684   5.288  0.3139 -0.0460 -0.8313
  129OSM      N13725   2.020   3.697   3.578 -0.3133  0.4721  0.0440
  129OSM    C1513726   1.918   3.802   3.586 -0.1456 -0.8496  0.1856
  129OSM   H15A13727   1.838   3.777   3.517  0.7139 -2.2330 -0.3361
  129OSM   H15B13728   1.960   3.894   3.549 -0.5977 -0.4211  0.7117
  129OSM   H15C13729   1.892   3.811   3.690  1.6773 -2.3798  0.8277
  129OSM    C1413730   2.123   3.721   3.688  0.6059 -1.0551  0.5154
  129OSM   H14A13731   2.178   3.808   3.655 -3.2015  0.3842 -2.9020
  129OSM   H14B13732   2.205   3.652   3.697  1.2005 -0.3958  0.3122
  129OSM   H14C13733   2.078   3.739   3.785  0.7571  3.6957 -0.0358
  129OSM    C1313734   1.950   3.574   3.608 -0.0995  0.3169 -0.0080
  129OSM   H13A13735   1.859   3.576   3.550 -0.3166 -0.6918  0.2782
  129OSM   H13B13736   1.915   3.557   3.709 -3.5136 -1.6321 -1.3372
  129OSM   H13C13737   2.016   3.489   3.599  2.2340  2.1545 -1.1889
  129OSM    C1213738   2.087   3.698   3.446  0.8837 -0.3584  0.0478
  129OSM   H12A13739   2.120   3.797   3.421 -0.0357 -0.3148 -1.0728
  129OSM   H12B13740   2.012   3.682   3.370 -2.1308  2.1317  2.1947
  129OSM    C1113741   2.197   3.601   3.414 -0.4812  0.5934 -0.3482
  129OSM   H11A13742   2.234   3.629   3.313  2.3417  0.8078  0.6705
  129OSM   H11B13743   2.144   3.503   3.410  1.6862 -0.7125  1.0219
  129OSM      P13744   2.443   3.551   3.514 -0.1880  0.5430 -0.1594
  129OSM    O1313745   2.442   3.409   3.516  0.1905  0.8127  0.0955
  129OSM    O1413746   2.525   3.609   3.403  0.3994 -0.1177  0.5320
  129OSM    O1113747   2.500   3.597   3.652 -0.0797 -0.1547 -0.7242
  129OSM    O1213748   2.298   3.599   3.511  0.7060 -0.6116  0.3167
  129OSM    C1S13749   2.506   3.739   3.682  0.1270  0.2285  0.3606
  129OSM    H1S13750   2.401   3.772   3.664 -0.4428 -2.2190 -1.2095
  129OSM    H1T13751   2.581   3.783   3.614  0.2584 -0.6719 -0.0864
  129OSM     NF13752   2.569   3.905   3.863 -0.4000 -0.1626 -0.1647
  129OSM    HNF13753   2.654   3.953   3.885 -0.3218 -0.0046 -0.7874
  129OSM    C2S13754   2.564   3.761   3.827 -0.6895  0.0566 -0.5141
  129OSM    H2S13755   2.488   3.718   3.896 -1.2885  0.3337 -0.9853
  129OSM    C3S13756   2.703   3.686   3.842 -0.2322 -0.1033  0.4259
  129OSM    H3S13757   2.766   3.734   3.764 -0.2884 -0.6582  0.0339
  129OSM     O313758   2.705   3.547   3.799  0.7378 -0.8616  0.1043
  129OSM    HO313759   2.620   3.541   3.754  0.8871  1.2708 -0.5476
  129OSM    C4S13760   2.764   3.696   3.976  0.3339  0.3360 -0.0669
  129OSM    H4S13761   2.687   3.690   4.054 -0.9259 -0.1872 -1.3070
  129OSM    C5S13762   2.889   3.734   4.007  0.2889 -0.2349  0.0263
  129OSM    H5S13763   2.961   3.760   3.928 -0.0249  0.1220 -0.1452
  129OSM    C6S13764   2.957   3.742   4.140  0.0094  0.3410  0.0065
  129OSM    H6S13765   2.884   3.758   4.223 -1.5913 -1.1757 -1.0271
  129OSM    H6T13766   3.019   3.834   4.145  0.9057 -0.1278 -1.7770
  129OSM    C7S13767   3.046   3.624   4.174  0.4880 -0.3668 -0.6792
  129OSM    H7S13768   2.990   3.529   4.163  0.5409 -0.3213 -1.4021
  129OSM    H7T13769   3.067   3.626   4.283 -0.3382 -0.6142 -0.5064
  129OSM    C8S13770   3.173   3.625   4.095  0.6256 -0.6488  0.3242
  129OSM    H8S13771   3.159   3.622   3.985  2.3818  1.5871 -0.0319
  129OSM    H8T13772   3.229   3.532   4.118  0.2415 -1.5400 -2.0607
  129OSM    C9S13773   3.270   3.739   4.121  0.3445  0.6726  0.3236
  129OSM    H9S13774   3.237   3.830   4.067 -0.3860 -0.0946 -0.5729
  129OSM    H9T13775   3.369   3.706   4.081 -0.2344 -2.4253  1.1541
  129OSM   C10S13776   3.288   3.784   4.267  1.3981  0.1916  0.8583
  129OSM   H10S13777   3.192   3.801   4.319  1.0852 -1.9729  1.0914
  129OSM   H10T13778   3.344   3.880   4.276 -0.0165  1.1336 -0.0324
  129OSM   C11S13779   3.360   3.683   4.351 -0.3133  0.6009 -0.7115
  129OSM   H11S13780   3.453   3.668   4.291 -1.0233  0.9374 -1.9375
  129OSM   H11T13781   3.308   3.586   4.336 -2.6451  1.8348 -0.9709
  129OSM   C12S13782   3.383   3.720   4.491 -0.2653 -0.2115 -0.0469
  129OSM   H12S13783   3.289   3.750   4.541 -1.7024 -1.3407 -1.9215
  129OSM   H12T13784   3.445   3.812   4.491 -0.4533 -0.0810 -0.3178
  129OSM   C13S13785   3.459   3.608   4.567  0.3170  0.2346 -0.1339
  129OSM   H13S13786   3.502   3.539   4.491 -0.1329  1.0811 -1.1868
  129OSM   H13T13787   3.383   3.540   4.611 -1.2867  1.7751 -0.4414
  129OSM   C14S13788   3.543   3.643   4.689 -0.7067  0.4773 -0.5266
  129OSM   H14S13789   3.609   3.731   4.675 -1.2280  0.8563 -0.6312
  129OSM   H14T13790   3.619   3.565   4.710 -0.3027  1.2025  0.8053
  129OSM   C15S13791   3.462   3.660   4.820 -0.8761 -0.0786 -0.5027
  129OSM   H15S13792   3.406   3.569   4.850  0.2257 -0.5547  0.1447
  129OSM   H15T13793   3.384   3.734   4.791  1.8361  2.9284 -0.7248
  129OSM   C16S13794   3.547   3.713   4.939  0.1133 -0.4655  0.3530
  129OSM   H16S13795   3.588   3.814   4.920  1.8548 -1.2051  0.0478
  129OSM   H16T13796   3.627   3.640   4.962 -0.1297 -0.6692  0.5698
  129OSM   C17S13797   3.452   3.734   5.056  0.8822  0.2643  0.7521
  129OSM   H17S13798   3.381   3.652   5.080  1.6910 -1.0412 -1.0623
  129OSM   H17T13799   3.391   3.822   5.024 -0.8409 -2.0192 -3.0216
  129OSM   C18S13800   3.531   3.765   5.184 -0.4400 -0.7672  1.0307
  129OSM   H18S13801   3.588   3.860   5.187  1.2011 -1.7538  2.7341
  129OSM   H18T13802   3.605   3.684   5.195  0.0110 -0.6471 -0.7484
  129OSM   H18U13803   3.465   3.771   5.273 -0.5871 -0.6740  0.9176
  129OSM    C1F13804   2.457   3.974   3.871  0.7757  0.0552  0.1504
  129OSM     OF13805   2.352   3.928   3.840  0.3752  0.1752  0.6825
  129OSM    C2F13806   2.472   4.112   3.923 -0.0234 -0.5906  0.2924
  129OSM    H2F13807   2.447   4.176   3.835 -1.6114 -0.5420  0.7635
  129OSM    H2G13808   2.579   4.129   3.949 -0.5799  2.0751  1.2223
  129OSM    C3F13809   2.377   4.155   4.037 -0.6761 -0.0310 -0.0792
  129OSM    H3F13810   2.408   4.104   4.130  0.8824  2.7599  1.0568
  129OSM    H3G13811   2.270   4.135   4.014 -0.6784 -1.1129  0.8002
  129OSM    C4F13812   2.400   4.298   4.079  0.1205 -0.1714  0.5129
  129OSM    H4F13813   2.360   4.361   3.996  1.7877 -0.2077 -0.3648
  129OSM    H4G13814   2.506   4.325   4.097  0.0626  2.0763 -1.8443
  129OSM    C5F13815   2.329   4.324   4.211 -0.8561  0.5649  0.1271
  129OSM    H5F13816   2.245   4.251   4.205 -0.8481  0.6309 -0.9012
  129OSM    H5G13817   2.282   4.425   4.207 -1.4957  0.2250 -2.5400
  129OSM    C6F13818   2.420   4.312   4.331 -0.0329 -0.3674 -0.3341
  129OSM    H6F13819   2.496   4.391   4.315  0.9429 -0.8943  1.4885
  129OSM    H6G13820   2.475   4.215   4.337  1.1887  0.0353 -3.3579
  129OSM    C7F13821   2.335   4.334   4.451 -0.6130  0.0212 -0.5387
  129OSM    H7F13822   2.251   4.262   4.448 -1.0162  0.4893 -0.5297
  129OSM    H7G13823   2.304   4.440   4.462  2.9483  1.1688 -0.3691
  129OSM    C8F13824   2.410   4.295   4.585  0.2255 -0.1738 -0.6505
  129OSM    H8F13825   2.332   4.310   4.662 -0.5376  0.5732 -1.5334
  129OSM    H8G13826   2.489   4.370   4.608 -0.9161  0.6882  0.5875
  129OSM    C9F13827   2.466   4.159   4.597 -0.0366  0.8699  0.0668
  129OSM    H9F13828   2.389   4.090   4.559 -1.5409  2.2713  0.4571
  129OSM   C10F13829   2.587   4.118   4.639 -0.7289 -0.2678 -0.2512
  129OSM   H10F13830   2.607   4.010   4.641  1.1823  0.0646  0.0894
  129OSM   C11F13831   2.703   4.203   4.678  0.5969  0.3667  0.5165
  129OSM   H11F13832   2.710   4.289   4.608 -0.3401 -0.5137 -0.6881
  129OSM   H11G13833   2.794   4.144   4.654  0.3298 -0.2416  0.9848
  129OSM   C12F13834   2.688   4.242   4.825 -0.3826 -0.8901  0.9531
  129OSM   H12F13835   2.592   4.295   4.840 -0.5225 -1.2020  1.1907
  129OSM   H12G13836   2.769   4.312   4.858  0.5227 -0.6982 -1.4945
  129OSM   C13F13837   2.690   4.127   4.921 -0.0246  0.3238  0.0016
  129OSM   H13F13838   2.772   4.056   4.899  1.0928  0.5474  2.9717
  129OSM   H13G13839   2.595   4.071   4.908  1.1399 -1.9234  0.7032
  129OSM   C14F13840   2.705   4.165   5.069 -0.8596  0.1979 -0.3334
  129OSM   H14F13841   2.647   4.260   5.074  0.5936  1.0863  0.1703
  129OSM   H14G13842   2.811   4.191   5.090 -1.7007  1.7854  2.5001
  129OSM   C15F13843   2.663   4.054   5.162 -0.2130  0.3702  0.1527
  129OSM   H15F13844   2.724   3.967   5.128 -1.1294 -0.6731  1.0521
  129OSM   H15G13845   2.555   4.027   5.166  0.1192 -1.2358 -0.6528
  129OSM   C16F13846   2.707   4.092   5.309 -0.2716 -0.2906  0.3102
  129OSM   H16F13847   2.671   4.195   5.331 -1.2881 -0.6279  0.2727
  129OSM   H16G13848   2.817   4.109   5.316 -0.2222 -0.6784  0.4923
  129OSM   C17F13849   2.626   4.000   5.416  0.4401 -0.2405 -0.4634
  129OSM   H17F13850   2.664   3.896   5.429  0.7882 -0.1489 -0.7167
  129OSM   H17G13851   2.517   4.005   5.395  0.2028 -2.7881 -0.1079
  129OSM   C18F13852   2.649   4.063   5.561 -0.0437  0.6105  0.5301
  129OSM   H18F13853   2.598   4.161   5.559 -1.8562 -0.2709 -2.6904
  129OSM   H18G13854   2.755   4.062   5.597  0.2959  1.1377 -0.4218
  129OSM   H18H13855   2.585   4.009   5.634 -2.2449  1.7808 -0.4707
  130OSM      N13856   2.741   5.086   3.552 -0.3498 -0.8682 -0.3915
  130OSM    C1513857   2.787   4.981   3.641  0.7842 -0.0289  0.6355
  130OSM   H15A13858   2.815   5.025   3.736  2.5727 -0.3785  0.3069
  130OSM   H15B13859   2.886   4.954   3.607  1.7849  2.8785  0.9609
  130OSM   H15C13860   2.717   4.899   3.641 -1.9559  2.0903 -1.3533
  130OSM    C1413861   2.698   5.029   3.419 -0.2699 -0.3335 -0.0722
  130OSM   H14A13862   2.659   4.929   3.436 -0.1894 -0.2067  0.9357
  130OSM   H14B13863   2.785   5.005   3.360  0.2798  1.8504 -0.2112
  130OSM   H14C13864   2.629   5.089   3.362 -2.3506 -2.2665  0.2484
  130OSM    C1313865   2.612   5.137   3.609 -0.0521 -0.3986  0.4905
  130OSM   H13A13866   2.572   5.222   3.555  1.2123 -0.3971 -0.4970
  130OSM   H13B13867   2.624   5.166   3.712  0.0400 -2.0860  0.9843
  130OSM   H13C13868   2.533   5.063   3.606  0.6356 -1.1683  1.2349
  130OSM    C1213869   2.843   5.192   3.534 -0.0742  0.1680 -1.1343
  130OSM   H12A13870   2.933   5.155   3.488  1.5645  1.2649  1.0344
  130OSM   H12B13871   2.861   5.224   3.636 -1.2963 -0.1615 -0.7888
  130OSM    C1113872   2.796   5.322   3.465  0.1786 -0.1592  0.9552
  130OSM   H11A13873   2.696   5.355   3.500 -0.1012 -1.0676  1.0514
  130OSM   H11B13874   2.786   5.299   3.357  0.4226  2.0866  0.4180
  130OSM      P13875   2.881   5.576   3.453  0.0112 -0.0094  0.3777
  130OSM    O1313876   3.007   5.635   3.404 -0.1546 -0.5359 -0.2584
  130OSM    O1413877   2.757   5.609   3.379 -0.4108 -0.2924 -0.0835
  130OSM    O1113878   2.860   5.644   3.585 -0.3129 -0.3448  0.4732
  130OSM    O1213879   2.895   5.425   3.487 -0.2038  0.6661  0.3157
  130OSM    C1S13880   2.784   5.576   3.687 -0.0416  0.1104 -0.1459
  130OSM    H1S13881   2.845   5.492   3.725  0.4866 -0.0902 -1.3591
  130OSM    H1T13882   2.687   5.544   3.645  1.0075 -0.3886 -2.3760
  130OSM     NF13883   2.683   5.586   3.918 -0.4841 -0.8847  0.0892
  130OSM    HNF13884   2.585   5.602   3.923 -0.2274  0.9023  0.0188
  130OSM    C2S13885   2.753   5.663   3.814  0.3251  0.1563 -0.5761
  130OSM    H2S13886   2.858   5.682   3.847  0.1557 -1.5422  1.1045
  130OSM    C3S13887   2.691   5.805   3.773  0.0908  0.4167 -0.4778
  130OSM    H3S13888   2.585   5.789   3.745 -0.1408 -0.3066  0.7307
  130OSM     O313889   2.752   5.873   3.662  0.2589  0.2635  0.0207
  130OSM    HO313890   2.802   5.798   3.630  1.7218  0.1453  2.3692
  130OSM    C4S13891   2.687   5.885   3.900  0.0324 -0.2063 -0.4487
  130OSM    H4S13892   2.601   5.863   3.965  1.6904 -1.3410  1.4963
  130OSM    C5S13893   2.788   5.967   3.954 -0.5140 -0.1249  0.1976
  130OSM    H5S13894   2.884   5.987   3.904 -0.4639  1.3258  0.8177
  130OSM    C6S13895   2.765   6.011   4.098 -0.1012  0.2221  0.2375
  130OSM    H6S13896   2.728   6.116   4.092  0.9134  0.5712 -0.1430
  130OSM    H6T13897   2.866   6.004   4.141  0.2695 -1.8539 -0.8560
  130OSM    C7S13898   2.673   5.931   4.191  0.7353  0.1908 -0.5669
  130OSM    H7S13899   2.695   5.822   4.186  1.8752  0.4025 -0.3289
  130OSM    H7T13900   2.563   5.947   4.179  0.5200 -0.7446  0.0779
  130OSM    C8S13901   2.701   5.970   4.337  0.4586  0.2951  0.1896
  130OSM    H8S13902   2.672   6.076   4.353  0.6641  0.4581 -0.4641
  130OSM    H8T13903   2.811   5.966   4.344  0.5604  1.4396 -0.4604
  130OSM    C9S13904   2.629   5.884   4.433  0.0745  0.0686 -0.5538
  130OSM    H9S13905   2.626   5.775   4.413 -1.6358  0.2160 -1.2355
  130OSM    H9T13906   2.525   5.924   4.431  0.7294  1.9262  0.3607
  130OSM   C10S13907   2.700   5.902   4.567  0.1709  0.8852  0.4759
  130OSM   H10S13908   2.651   5.992   4.611 -0.2752  0.6896  0.3846
  130OSM   H10T13909   2.807   5.930   4.557  0.1457  1.2675  1.1952
  130OSM   C11S13910   2.687   5.792   4.672 -0.5957 -0.0351 -0.7502
  130OSM   H11S13911   2.760   5.712   4.650  0.9294  0.7385  1.1932
  130OSM   H11T13912   2.582   5.754   4.664 -0.9543  1.1795 -2.3941
  130OSM   C12S13913   2.691   5.847   4.820 -0.0236 -0.0249  0.0949
  130OSM   H12S13914   2.631   5.939   4.841 -0.5448 -0.3504  0.0459
  130OSM   H12T13915   2.798   5.872   4.839 -0.3906  1.6156  0.2163
  130OSM   C13S13916   2.651   5.746   4.924  0.2208  0.1718  0.0929
  130OSM   H13S13917   2.722   5.663   4.900  0.9946  1.1747 -1.1663
  130OSM   H13T13918   2.544   5.718   4.916  0.3110  0.1264 -1.1647
  130OSM   C14S13919   2.692   5.797   5.062  0.5021  0.0182  0.3841
  130OSM   H14S13920   2.660   5.903   5.071  1.0985  0.0565  3.1968
  130OSM   H14T13921   2.803   5.786   5.066  0.5068 -0.2927 -0.5114
  130OSM   C15S13922   2.631   5.720   5.179 -0.4445 -0.0698  0.5110
  130OSM   H15S13923   2.684   5.623   5.185  1.3830  0.8290 -0.2665
  130OSM   H15T13924   2.522   5.703   5.163 -0.5988 -0.5963  1.9179
  130OSM   C16S13925   2.656   5.790   5.315 -0.2101  0.0255 -0.1431
  130OSM   H16S13926   2.602   5.723   5.386  0.0160 -1.7640 -1.5856
  130OSM   H16T13927   2.626   5.897   5.312  1.7924  0.6220 -0.6348
  130OSM   C17S13928   2.798   5.787   5.363 -0.5363  0.4154  0.6927
  130OSM   H17S13929   2.860   5.834   5.284 -0.2425  0.8728  1.1844
  130OSM   H17T13930   2.845   5.687   5.367 -0.1866  0.5015 -0.7443
  130OSM   C18S13931   2.822   5.857   5.494 -0.0221  1.1445 -0.2695
  130OSM   H18S13932   2.924   5.837   5.534 -0.5237 -1.2590 -0.0203
  130OSM   H18T13933   2.748   5.843   5.576  0.3337 -0.8428 -0.2417
  130OSM   H18U13934   2.827   5.967   5.478  1.3149  0.9299 -1.6067
  130OSM    C1F13935   2.741   5.498   3.999  0.7815  0.6414 -0.5606
  130OSM     OF13936   2.859   5.469   3.991 -0.3143  0.1197 -0.0841
  130OSM    C2F13937   2.646   5.425   4.093  0.0614  0.9256  0.5897
  130OSM    H2F13938   2.612   5.338   4.033  2.5978  0.7130 -0.6609
  130OSM    H2G13939   2.560   5.493   4.108  0.7271  1.5324  1.7969
  130OSM    C3F13940   2.705   5.394   4.235  0.2101 -0.1520  0.6713
  130OSM    H3F13941   2.732   5.491   4.280 -1.1556  0.3010  0.5390
  130OSM    H3G13942   2.802   5.344   4.212  0.8622  2.3123 -2.5918
  130OSM    C4F13943   2.613   5.293   4.309 -0.0095  0.7035 -0.0011
  130OSM    H4F13944   2.683   5.224   4.361  1.3001  1.4714 -0.6950
  130OSM    H4G13945   2.557   5.238   4.231  2.7279 -1.6931 -0.4661
  130OSM    C5F13946   2.516   5.355   4.407 -0.1025 -0.6236 -0.4827
  130OSM    H5F13947   2.439   5.279   4.432 -0.3337  0.0710  1.0959
  130OSM    H5G13948   2.453   5.431   4.357 -0.9026  0.2913  1.7693
  130OSM    C6F13949   2.572   5.404   4.545  0.1968 -0.6427  0.2236
  130OSM    H6F13950   2.482   5.437   4.600 -0.2568 -2.8725  0.9259
  130OSM    H6G13951   2.631   5.498   4.535  1.0681 -1.1922  0.0870
  130OSM    C7F13952   2.641   5.290   4.624  0.3843 -0.0239  0.0390
  130OSM    H7F13953   2.733   5.268   4.566  0.2579  0.3459 -0.3098
  130OSM    H7G13954   2.579   5.198   4.629  1.3080 -0.7093 -0.7003
  130OSM    C8F13955   2.693   5.316   4.773 -0.1569 -0.1419  0.7338
  130OSM    H8F13956   2.793   5.364   4.779  0.6175 -1.7958  2.0147
  130OSM    H8G13957   2.701   5.220   4.829  0.2497  0.7324  2.2505
  130OSM    C9F13958   2.599   5.400   4.851  0.0816  0.3327  0.3074
  130OSM    H9F13959   2.594   5.504   4.815 -0.3315  0.4430  0.6785
  130OSM   C10F13960   2.503   5.362   4.934 -0.6064  0.4665 -0.2296
  130OSM   H10F13961   2.440   5.443   4.974  0.2077  0.5714  0.8750
  130OSM   C11F13962   2.504   5.224   4.994  0.2780  0.2216  0.0821
  130OSM   H11F13963   2.557   5.144   4.937 -1.3725 -1.5537  0.9213
  130OSM   H11G13964   2.401   5.185   5.005 -0.0249  0.7126 -0.8836
  130OSM   C12F13965   2.571   5.214   5.135 -0.7173  0.4342 -0.4077
  130OSM   H12F13966   2.678   5.241   5.127 -0.7410  0.0661 -2.5457
  130OSM   H12G13967   2.579   5.110   5.173  1.4333  1.3607  1.9975
  130OSM   C13F13968   2.485   5.289   5.235 -0.5262 -0.5282 -0.1614
  130OSM   H13F13969   2.378   5.259   5.228 -1.2808  1.7613  0.7042
  130OSM   H13G13970   2.497   5.397   5.211  0.5001 -1.1110 -2.4777
  130OSM   C14F13971   2.520   5.271   5.381  0.5690  0.6884 -0.4968
  130OSM   H14F13972   2.478   5.174   5.417 -1.3089  1.7740  0.3337
  130OSM   H14G13973   2.461   5.342   5.442  0.4458 -1.0205  1.5102
  130OSM   C15F13974   2.666   5.264   5.427  0.2721 -0.3826  1.1013
  130OSM   H15F13975   2.707   5.173   5.379  0.4388  0.0164  0.4804
  130OSM   H15G13976   2.674   5.251   5.537  0.8527 -1.7362  0.9134
  130OSM   C16F13977   2.751   5.383   5.385  0.0178 -0.1773  0.7643
  130OSM   H16F13978   2.704   5.480   5.411  1.0913 -0.3911  3.8818
  130OSM   H16G13979   2.774   5.384   5.276 -2.9195  1.1239  0.0456
  130OSM   C17F13980   2.887   5.390   5.456  0.5134  0.0424  0.1081
  130OSM   H17F13981   2.864   5.384   5.565  1.2065  0.1046  0.2622
  130OSM   H17G13982   2.931   5.489   5.435 -1.7009  0.5795 -2.5527
  130OSM   C18F13983   2.993   5.285   5.410  0.7442 -0.4189 -0.0763
  130OSM   H18F13984   3.003   5.292   5.300 -1.7701 -0.2842 -0.3586
  130OSM   H18G13985   2.957   5.185   5.441 -0.3617 -0.0980 -0.2710
  130OSM   H18H13986   3.097   5.301   5.446  1.9042 -3.9723 -1.4799
  131OSM      N13987   0.046   3.544   3.141 -0.1021 -0.0408  0.7924
  131OSM    C1513988   0.193   3.575   3.118  0.5253  0.0166  0.7156
  131OSM   H15A13989   0.213   3.587   3.013 -0.4884  4.1838  0.8467
  131OSM   H15B13990   0.264   3.520   3.178  1.5805  0.9523  0.3507
  131OSM   H15C13991   0.208   3.676   3.153 -1.5319  0.5098  0.3185
  131OSM    C1413992  -0.033   3.662   3.092  0.2256 -0.9028 -0.1363
  131OSM   H14A13993  -0.133   3.664   3.132  0.6055 -0.6729  0.8202
  131OSM   H14B13994  -0.036   3.683   2.986  0.4560 -0.7708 -0.1194
  131OSM   H14C13995   0.005   3.750   3.142 -0.7982 -1.3070  1.4031
  131OSM    C1313996   0.014   3.426   3.054 -0.1592  0.7015 -0.3538
  131OSM   H13A13997   0.080   3.349   3.092 -0.1024  1.9159  2.1927
  131OSM   H13B13998   0.030   3.442   2.948  0.6123  0.0693 -0.3381
  131OSM   H13C13999  -0.089   3.396   3.066 -0.6299  1.0299 -2.9899
  131OSM    C1214000   0.013   3.516   3.286 -0.6042  0.1725 -0.6023
  131OSM   H12A14001   0.077   3.433   3.315  0.5453  1.4069  0.5359
  131OSM   H12B14002  -0.088   3.479   3.285 -1.1429  1.5971  0.2463
  131OSM    C1114003   0.034   3.630   3.390  0.6371 -1.0301  0.5487
  131OSM   H11A14004   0.124   3.691   3.365 -1.1678  1.7864  0.4576
  131OSM   H11B14005   0.043   3.591   3.494  0.4061  0.0880  1.0055
  131OSM      P14006  -0.092   3.855   3.462 -0.9035  0.0256  0.2302
  131OSM    O1314007   0.011   3.946   3.400  0.0630 -0.0630  0.1202
  131OSM    O1414008  -0.230   3.895   3.441  0.6507  0.2400 -0.5610
  131OSM    O1114009  -0.066   3.833   3.618  0.5903 -0.4133  0.4317
  131OSM    O1214010  -0.075   3.713   3.394  0.7674 -0.3544  0.1554
  131OSM    C1S14011  -0.162   3.786   3.707 -0.4862  1.0200  0.4793
  131OSM    H1S14012  -0.154   3.675   3.715  1.0917  1.0455 -0.5230
  131OSM    H1T14013  -0.268   3.799   3.675 -0.7727 -1.3490  0.2905
  131OSM     NF14014  -0.231   3.760   3.937 -0.0510 -0.1993  0.7381
  131OSM    HNF14015  -0.313   3.801   3.977  0.5910  3.3913 -1.2374
  131OSM    C2S14016  -0.151   3.846   3.848  0.0155 -0.3308 -0.4110
  131OSM    H2S14017  -0.044   3.839   3.877  1.0369  1.4519 -3.3753
  131OSM    C3S14018  -0.189   3.999   3.856  0.3440 -0.3272  0.0951
  131OSM    H3S14019  -0.298   4.011   3.844  0.6449  2.1268 -0.8301
  131OSM     O314020  -0.127   4.075   3.753  0.1538 -0.3310 -0.2071
  131OSM    HO314021  -0.081   4.012   3.696 -0.0098  1.7084 -2.7745
  131OSM    C4S14022  -0.150   4.052   3.988 -0.0255 -0.1446 -0.2320
  131OSM    H4S14023  -0.041   4.061   4.000  0.1051  0.9854 -2.0066
  131OSM    C5S14024  -0.233   4.072   4.088  0.6615 -0.2477  0.0849
  131OSM    H5S14025  -0.334   4.029   4.084 -0.0155  1.3614 -0.7490
  131OSM    C6S14026  -0.189   4.135   4.212  0.2201 -0.2719 -0.3569
  131OSM    H6S14027  -0.207   4.243   4.199 -2.7896 -0.4270  1.4947
  131OSM    H6T14028  -0.082   4.116   4.236  0.2489 -0.6862 -0.7868
  131OSM    C7S14029  -0.265   4.082   4.337  0.4841 -0.0653 -0.5910
  131OSM    H7S14030  -0.264   3.970   4.339  2.4340 -0.0604  0.7196
  131OSM    H7T14031  -0.376   4.093   4.329  0.3641  0.4215  1.3247
  131OSM    C8S14032  -0.218   4.148   4.473  0.7444 -0.1457  0.1047
  131OSM    H8S14033  -0.235   4.257   4.478 -0.4517 -0.3780  2.9491
  131OSM    H8T14034  -0.110   4.123   4.475  0.2770 -2.7508 -1.5178
  131OSM    C9S14035  -0.298   4.083   4.591  0.0309  0.3648 -0.0171
  131OSM    H9S14036  -0.294   3.972   4.593 -0.3885  0.3477 -0.0366
  131OSM    H9T14037  -0.401   4.125   4.581  0.4218  1.7514  1.4652
  131OSM   C10S14038  -0.246   4.122   4.730 -0.3672 -0.1136  0.0700
  131OSM   H10S14039  -0.221   4.230   4.738 -0.4174 -0.1066  0.1286
  131OSM   H10T14040  -0.154   4.063   4.747  1.8479  2.6347 -1.4401
  131OSM   C11S14041  -0.349   4.095   4.842 -0.0005  0.1843  0.0409
  131OSM   H11S14042  -0.324   3.991   4.875  0.8440  0.4513  0.2622
  131OSM   H11T14043  -0.452   4.087   4.801  0.8964 -2.1056 -2.0185
  131OSM   C12S14044  -0.334   4.189   4.963 -0.3573  0.4900  0.1441
  131OSM   H12S14045  -0.362   4.293   4.936  0.0201  0.2195 -1.3387
  131OSM   H12T14046  -0.225   4.194   4.984 -0.0774 -2.1455 -0.2928
  131OSM   C13S14047  -0.403   4.133   5.086  0.3129 -0.4718 -0.1933
  131OSM   H13S14048  -0.376   4.029   5.115 -0.2762 -0.9719 -1.3691
  131OSM   H13T14049  -0.513   4.130   5.067  0.3844 -0.7117 -0.5737
  131OSM   C14S14050  -0.393   4.223   5.208 -0.4000  0.1612 -0.8402
  131OSM   H14S14051  -0.386   4.327   5.169  2.5071  0.1381 -0.6097
  131OSM   H14T14052  -0.292   4.204   5.252 -0.7540 -2.6462 -1.0849
  131OSM   C15S14053  -0.521   4.208   5.297  0.0407 -0.1454  0.1394
  131OSM   H15S14054  -0.605   4.213   5.225  0.0966 -3.0360 -0.2262
  131OSM   H15T14055  -0.520   4.289   5.373 -0.8105 -0.1287  0.1358
  131OSM   C16S14056  -0.524   4.072   5.365 -0.4278 -0.0965 -0.0894
  131OSM   H16S14057  -0.489   3.996   5.292  1.6223  0.7767 -0.0915
  131OSM   H16T14058  -0.624   4.034   5.396 -1.8109  0.4282 -3.4765
  131OSM   C17S14059  -0.435   4.061   5.491  0.5028 -0.0653 -0.3203
  131OSM   H17S14060  -0.482   4.116   5.575 -0.3776 -1.3886  0.0823
  131OSM   H17T14061  -0.334   4.103   5.469  1.0848 -1.2854 -0.0654
  131OSM   C18S14062  -0.408   3.919   5.538 -0.0630 -0.4125 -0.1300
  131OSM   H18S14063  -0.381   3.871   5.441  0.8179  0.5194 -0.3688
  131OSM   H18T14064  -0.496   3.865   5.578 -0.4193 -1.4791 -2.1673
  131OSM   H18U14065  -0.319   3.899   5.601  0.5501  0.1212 -0.8066
  131OSM    C1F14066  -0.201   3.627   3.972 -0.5897 -0.6983  0.4035
  131OSM     OF14067  -0.099   3.573   3.922  0.0008 -0.9113  0.5149
  131OSM    C2F14068  -0.301   3.558   4.064  0.0652 -0.0588 -0.1327
  131OSM    H2F14069  -0.318   3.460   4.014  0.2610  0.2315 -0.7813
  131OSM    H2G14070  -0.397   3.614   4.062  1.6493  2.8836  0.2350
  131OSM    C3F14071  -0.249   3.531   4.204 -0.5923 -0.3372 -0.5825
  131OSM    H3F14072  -0.205   3.621   4.253 -1.9061 -0.1968  0.4104
  131OSM    H3G14073  -0.156   3.473   4.185  0.6627  1.8542 -1.5144
  131OSM    C4F14074  -0.337   3.456   4.304 -0.0725 -0.6428  0.7656
  131OSM    H4F14075  -0.365   3.359   4.257  0.6019 -0.1139 -0.7821
  131OSM    H4G14076  -0.427   3.518   4.323  0.0045 -0.2739 -0.0529
  131OSM    C5F14077  -0.262   3.441   4.433  1.1379  0.1336 -0.0214
  131OSM    H5F14078  -0.246   3.541   4.479  3.9556 -0.1232 -0.2886
  131OSM    H5G14079  -0.164   3.391   4.420  0.6143 -0.9806  0.2484
  131OSM    C6F14080  -0.343   3.348   4.528 -0.3676  0.0763  0.1226
  131OSM    H6F14081  -0.335   3.246   4.485  0.1157  0.8336 -1.7070
  131OSM    H6G14082  -0.448   3.385   4.531  0.2272  1.8590  0.2064
  131OSM    C7F14083  -0.273   3.345   4.666 -0.1968 -0.2373  0.4386
  131OSM    H7F14084  -0.300   3.445   4.707  2.0584  0.9495 -0.7386
  131OSM    H7G14085  -0.162   3.354   4.656 -0.2062 -0.5747  0.0162
  131OSM    C8F14086  -0.314   3.239   4.766 -0.8901 -0.4643 -0.2717
  131OSM    H8F14087  -0.286   3.138   4.730 -0.3863 -0.1778 -0.6854
  131OSM    H8G14088  -0.425   3.236   4.766 -1.0186  2.2019 -0.0688
  131OSM    C9F14089  -0.264   3.271   4.910 -0.0885 -0.5511  0.2215
  131OSM    H9F14090  -0.154   3.276   4.920 -0.1069  2.4215 -0.1904
  131OSM   C10F14091  -0.336   3.293   5.021  0.3090  0.2007  0.3561
  131OSM   H10F14092  -0.289   3.318   5.117 -0.1109 -0.6575  0.7968
  131OSM   C11F14093  -0.487   3.268   5.023  0.3624  0.1503  0.4435
  131OSM   H11F14094  -0.538   3.301   4.930 -2.0310 -0.4798  1.4508
  131OSM   H11G14095  -0.530   3.331   5.103  1.3390  1.7598 -0.2559
  131OSM   C12F14096  -0.521   3.117   5.046  0.4093 -0.2847 -0.2239
  131OSM   H12F14097  -0.459   3.049   5.108  0.3663 -1.0097 -0.9522
  131OSM   H12G14098  -0.526   3.066   4.948 -0.7348 -1.3928  0.3776
  131OSM   C13F14099  -0.661   3.111   5.115  0.3968 -0.7975  0.1580
  131OSM   H13F14100  -0.726   3.167   5.045  1.8895  1.6760  0.5967
  131OSM   H13G14101  -0.668   3.160   5.214  0.3814 -0.2085 -0.1325
  131OSM   C14F14102  -0.730   2.969   5.111  0.5036 -0.3574  0.3723
  131OSM   H14F14103  -0.725   2.946   5.003  3.0192  1.3044  0.0619
  131OSM   H14G14104  -0.838   2.972   5.139 -0.5055 -0.5771 -3.0525
  131OSM   C15F14105  -0.662   2.867   5.201  0.0996 -0.5794  0.3160
  131OSM   H15F14106  -0.567   2.838   5.150  1.2616  1.1013  1.4039
  131OSM   H15G14107  -0.729   2.779   5.203  0.4756 -0.8613  0.7573
  131OSM   C16F14108  -0.652   2.924   5.340 -0.0397 -0.3171 -0.2908
  131OSM   H16F14109  -0.741   2.987   5.362  0.3179  0.1776 -0.2519
  131OSM   H16G14110  -0.562   2.988   5.345  0.0197 -0.4396  0.3425
  131OSM   C17F14111  -0.654   2.810   5.439  0.2466  0.5711 -0.5571
  131OSM   H17F14112  -0.562   2.751   5.418 -0.5291 -0.9350  0.1278
  131OSM   H17G14113  -0.739   2.742   5.417 -0.0921  0.3283  1.2691
  131OSM   C18F14114  -0.666   2.849   5.587 -0.0724 -0.5930  0.2127
  131OSM   H18F14115  -0.575   2.901   5.624 -0.7405 -0.0959  1.2086
  131OSM   H18G14116  -0.681   2.761   5.653  1.3622 -1.3678 -0.4523
  131OSM   H18H14117  -0.758   2.908   5.606 -0.6476 -1.2800 -0.3949
  132OSM      N14118   5.773   1.423   2.885 -0.0130 -0.7932  0.1651
  132OSM    C1514119   5.766   1.486   2.744 -0.2099  0.1173 -0.9238
  132OSM   H15A14120   5.724   1.414   2.676  0.1727  0.9999 -2.1344
  132OSM   H15B14121   5.859   1.522   2.702 -0.1771  0.2489 -0.7388
  132OSM   H15C14122   5.684   1.556   2.734 -1.0551 -0.5849  0.7283
  132OSM    C1414123   5.637   1.372   2.930  0.4914  0.2191 -0.8985
  132OSM   H14A14124   5.592   1.292   2.874  0.6717 -1.1230  0.7971
  132OSM   H14B14125   5.561   1.449   2.938  0.7665  0.4572 -0.4873
  132OSM   H14C14126   5.640   1.330   3.029 -0.3579  1.4571 -0.3223
  132OSM    C1314127   5.864   1.305   2.890 -0.1622  0.3124 -0.0852
  132OSM   H13A14128   5.916   1.287   2.983  0.8188 -1.5752 -0.9531
  132OSM   H13B14129   5.942   1.317   2.816  0.2079 -0.5391  0.1510
  132OSM   H13C14130   5.816   1.210   2.872  0.4635 -0.6389  2.7337
  132OSM    C1214131   5.819   1.529   2.985 -0.1216 -0.5154 -0.2801
  132OSM   H12A14132   5.768   1.624   2.970  2.4180  1.5489  2.8677
  132OSM   H12B14133   5.917   1.557   2.950 -0.0296 -2.0461 -1.3236
  132OSM    C1114134   5.809   1.496   3.132 -0.0801  0.2420  0.4325
  132OSM   H11A14135   5.703   1.473   3.154  0.1832  0.4714  2.0253
  132OSM   H11B14136   5.833   1.592   3.183  1.5242  0.3533 -0.4493
  132OSM      P14137   6.015   1.393   3.257  0.4676 -0.3745 -0.0642
  132OSM    O1314138   6.050   1.257   3.301  0.6165 -0.0298 -0.0267
  132OSM    O1414139   6.127   1.461   3.185 -0.3278 -0.7369  0.5078
  132OSM    O1114140   5.964   1.474   3.387 -0.5336  0.2528 -0.1590
  132OSM    O1214141   5.892   1.385   3.167 -0.2982  0.2286  0.3876
  132OSM    C1S14142   5.887   1.423   3.497 -0.5407 -0.4678  0.7857
  132OSM    H1S14143   5.929   1.326   3.534 -1.5290 -0.8366  0.9673
  132OSM    H1T14144   5.781   1.405   3.471 -0.3057 -1.6434  0.5782
  132OSM     NF14145   5.807   1.458   3.718  0.5937  0.1761  0.5391
  132OSM    HNF14146   5.708   1.474   3.717  0.4334 -0.8072 -0.3276
  132OSM    C2S14147   5.878   1.526   3.613  0.1709  1.2242  0.3842
  132OSM    H2S14148   5.986   1.526   3.641  0.5611 -1.1161 -0.8274
  132OSM    C3S14149   5.827   1.664   3.575  0.3641 -0.6002 -0.3521
  132OSM    H3S14150   5.723   1.659   3.534 -0.0418 -1.7713  0.7688
  132OSM     O314151   5.905   1.723   3.469  0.2366  0.1260  0.0687
  132OSM    HO314152   5.958   1.649   3.440  0.3201  0.3580 -0.3800
  132OSM    C4S14153   5.823   1.758   3.692 -0.6976 -0.0463  0.4885
  132OSM    H4S14154   5.895   1.735   3.773 -0.1359  1.2922  0.3984
  132OSM    C5S14155   5.730   1.858   3.714 -0.4054  0.2260 -0.4355
  132OSM    H5S14156   5.660   1.892   3.637  0.0090  0.5157 -0.6864
  132OSM    C6S14157   5.725   1.929   3.846 -0.2524  0.1411  0.0762
  132OSM    H6S14158   5.636   1.994   3.859 -0.4719 -0.3744  1.3128
  132OSM    H6T14159   5.815   1.994   3.851 -0.7662  0.8209  0.6792
  132OSM    C7S14160   5.724   1.844   3.981 -0.9190  0.7020  0.6870
  132OSM    H7S14161   5.734   1.917   4.064 -2.1289  2.4790 -0.6491
  132OSM    H7T14162   5.819   1.786   3.974 -2.0161 -1.1067  0.2238
  132OSM    C8S14163   5.615   1.738   4.003  0.1168 -0.0254  0.4218
  132OSM    H8S14164   5.632   1.656   3.930  3.2907  0.2688  0.7132
  132OSM    H8T14165   5.519   1.793   3.992  0.1769  0.6436  2.7631
  132OSM    C9S14166   5.615   1.693   4.149 -0.0255 -0.1157 -0.0070
  132OSM    H9S14167   5.639   1.771   4.224 -0.6527 -1.0788  1.2311
  132OSM    H9T14168   5.700   1.622   4.158  1.4026  1.3065 -1.6482
  132OSM   C10S14169   5.487   1.636   4.194 -0.0766  0.3762 -0.1189
  132OSM   H10S14170   5.466   1.557   4.120  2.7609 -1.2183  0.6253
  132OSM   H10T14171   5.399   1.704   4.198 -1.0065 -0.5924 -2.6195
  132OSM   C11S14172   5.487   1.581   4.340 -0.9817  0.4585 -0.2806
  132OSM   H11S14173   5.485   1.671   4.406  3.8464  0.0790  0.7624
  132OSM   H11T14174   5.575   1.515   4.356 -1.6115 -0.7697 -1.6595
  132OSM   C12S14175   5.356   1.498   4.361  0.3592  0.2400  0.2475
  132OSM   H12S14176   5.324   1.430   4.279 -2.6912  0.2335  1.3071
  132OSM   H12T14177   5.275   1.574   4.369  0.1192  0.0244 -0.1584
  132OSM   C13S14178   5.370   1.407   4.486  0.3817 -0.4519  0.2464
  132OSM   H13S14179   5.462   1.347   4.476 -1.0085 -2.6754  0.0777
  132OSM   H13T14180   5.279   1.343   4.480 -2.1531  2.9995 -1.1472
  132OSM   C14S14181   5.363   1.491   4.618 -1.1634  0.1340  0.4432
  132OSM   H14S14182   5.335   1.598   4.602 -0.8632  0.1352 -0.0892
  132OSM   H14T14183   5.467   1.504   4.654 -0.7204 -0.0402 -0.7446
  132OSM   C15S14184   5.280   1.412   4.718  0.4309 -0.0368  0.4437
  132OSM   H15S14185   5.311   1.306   4.719 -0.2939 -0.2474  1.1156
  132OSM   H15T14186   5.175   1.403   4.682 -0.7484  0.0201  3.5707
  132OSM   C16S14187   5.271   1.472   4.864  0.0569 -0.1253  0.0233
  132OSM   H16S14188   5.233   1.574   4.842 -1.0395 -1.1668 -3.7586
  132OSM   H16T14189   5.375   1.483   4.902  0.6348 -0.2507 -1.4470
  132OSM   C17S14190   5.173   1.403   4.962 -0.5310 -0.2627  0.2553
  132OSM   H17S14191   5.073   1.412   4.914 -1.5679  1.1398  2.4998
  132OSM   H17T14192   5.163   1.467   5.052 -2.3711  3.5573 -2.3618
  132OSM   C18S14193   5.200   1.254   4.982 -0.2464  0.0439 -0.3166
  132OSM   H18S14194   5.109   1.212   5.030  0.7731 -0.2788  1.4526
  132OSM   H18T14195   5.294   1.230   5.037 -1.6529 -1.8588  1.4112
  132OSM   H18U14196   5.201   1.202   4.884 -1.3807  0.2708 -0.4688
  132OSM    C1F14197   5.857   1.363   3.791 -0.2228  0.9255 -0.2207
  132OSM     OF14198   5.975   1.324   3.786 -0.3054 -0.5124  0.3443
  132OSM    C2F14199   5.754   1.290   3.875  0.0780  0.4042 -0.0110
  132OSM    H2F14200   5.688   1.233   3.808  0.3792  2.1756 -1.9226
  132OSM    H2G14201   5.708   1.372   3.935  0.6621  0.2953  0.5996
  132OSM    C3F14202   5.826   1.187   3.972  0.1600  0.3242 -0.4778
  132OSM    H3F14203   5.914   1.243   4.010  1.8923 -1.8074 -1.1795
  132OSM    H3G14204   5.855   1.104   3.905  0.3115 -1.0215  1.1930
  132OSM    C4F14205   5.732   1.138   4.085 -0.1252 -0.1556 -1.0653
  132OSM    H4F14206   5.717   1.225   4.152  0.0681 -1.4423  0.7370
  132OSM    H4G14207   5.789   1.070   4.152  0.9012  0.8171 -0.9261
  132OSM    C5F14208   5.598   1.081   4.035  0.3238 -0.3135  0.6077
  132OSM    H5F14209   5.615   0.991   3.973  1.1152  1.7993 -2.4844
  132OSM    H5G14210   5.538   1.165   3.994  0.9955  1.0618  2.3303
  132OSM    C6F14211   5.511   1.030   4.151  0.0452 -0.0252 -0.0051
  132OSM    H6F14212   5.566   0.943   4.191 -0.5059 -0.1183  0.5691
  132OSM    H6G14213   5.415   0.984   4.118  0.7519 -1.9846  0.5602
  132OSM    C7F14214   5.481   1.134   4.260 -0.2458 -0.2391  0.0528
  132OSM    H7F14215   5.412   1.216   4.230  1.6347  1.6933  0.7852
  132OSM    H7G14216   5.576   1.181   4.292  0.4391 -0.5661 -1.4094
  132OSM    C8F14217   5.426   1.066   4.392 -0.3871 -0.7884 -0.2597
  132OSM    H8F14218   5.333   1.008   4.377 -1.5855  0.8388  0.5514
  132OSM    H8G14219   5.401   1.147   4.464  1.7411 -0.7106  0.4752
  132OSM    C9F14220   5.530   0.993   4.466 -0.0772  1.1552 -0.4607
  132OSM    H9F14221   5.618   1.051   4.498 -1.3176  2.0356  1.5443
  132OSM   C10F14222   5.532   0.863   4.497 -0.6191 -0.0939 -0.0995
  132OSM   H10F14223   5.615   0.826   4.560 -0.4109  2.1289  1.0541
  132OSM   C11F14224   5.433   0.754   4.456  0.0312  0.5185  0.0014
  132OSM   H11F14225   5.476   0.709   4.364  2.2904  1.6802  0.4296
  132OSM   H11G14226   5.332   0.794   4.431 -0.4883 -0.3863  0.5919
  132OSM   C12F14227   5.415   0.650   4.573  0.9140  0.5050  0.2461
  132OSM   H12F14228   5.521   0.622   4.594  1.2087 -0.0747 -1.7659
  132OSM   H12G14229   5.358   0.560   4.540 -0.1424  0.8410  1.0963
  132OSM   C13F14230   5.344   0.700   4.702  0.0450 -0.9434  0.4348
  132OSM   H13F14231   5.240   0.729   4.672 -0.8429 -4.0820  0.1771
  132OSM   H13G14232   5.390   0.800   4.719  1.4210 -1.8103  2.0985
  132OSM   C14F14233   5.351   0.614   4.836 -0.4542  0.6468  0.0295
  132OSM   H14F14234   5.448   0.562   4.852 -0.3074  0.7797 -0.4049
  132OSM   H14G14235   5.269   0.541   4.820 -1.3069  2.0611 -2.8112
  132OSM   C15F14236   5.336   0.718   4.941  0.0732 -0.0200 -0.0870
  132OSM   H15F14237   5.242   0.774   4.921 -0.1363 -0.8348 -1.4225
  132OSM   H15G14238   5.413   0.796   4.920  0.1021 -0.3990 -1.4814
  132OSM   C16F14239   5.332   0.671   5.087 -0.6649 -0.3787  0.3763
  132OSM   H16F14240   5.374   0.749   5.154  1.3520 -0.3643 -0.8174
  132OSM   H16G14241   5.399   0.583   5.099  0.3077  0.3529  0.4021
  132OSM   C17F14242   5.189   0.631   5.131 -0.6414 -0.2442  0.4052
  132OSM   H17F14243   5.162   0.548   5.062  0.6750 -0.0248 -0.4097
  132OSM   H17G14244   5.129   0.720   5.106 -0.4883 -0.6328 -1.5288
  132OSM   C18F14245   5.190   0.598   5.278 -0.3602 -0.7264  0.4154
  132OSM   H18F14246   5.099   0.558   5.327  0.1135 -2.2438  0.1180
  132OSM   H18G14247   5.215   0.694   5.328  1.4322 -1.2675  0.6259
  132OSM   H18H14248   5.264   0.518   5.303 -1.1580 -0.8179  2.6446
  133OSM      N14249   3.453   3.472   3.302 -1.4398  0.2693 -0.3039
  133OSM    C1514250   3.347   3.433   3.399  0.3698  0.5694  0.6070
  133OSM   H15A14251   3.387   3.365   3.472  1.3119  0.1511 -0.2820
  133OSM   H15B14252   3.260   3.395   3.348  0.1960  1.3820  0.2694
  133OSM   H15C14253   3.305   3.514   3.458 -0.9590  0.6176 -0.3484
  133OSM    C1414254   3.410   3.567   3.203 -0.3215 -0.4086  0.8685
  133OSM   H14A14255   3.498   3.587   3.144 -0.0180 -1.5283  0.9171
  133OSM   H14B14256   3.368   3.657   3.246  0.3384 -0.2815  1.2616
  133OSM   H14C14257   3.333   3.525   3.139 -0.6683  0.1782  0.8916
  133OSM    C1314258   3.565   3.532   3.379  0.0538  0.7035 -0.0005
  133OSM   H13A14259   3.642   3.563   3.311 -2.3707  1.7013 -2.4507
  133OSM   H13B14260   3.612   3.464   3.449 -0.0147 -1.0475 -1.5890
  133OSM   H13C14261   3.527   3.622   3.424  0.5875  0.6052  0.6635
  133OSM    C1214262   3.514   3.344   3.231 -0.3076  0.5058 -0.0152
  133OSM   H12A14263   3.559   3.283   3.308  2.0170  2.0737 -0.0178
  133OSM   H12B14264   3.599   3.367   3.168  0.1040 -0.6849  0.0706
  133OSM    C1114265   3.414   3.266   3.152 -0.1475  1.2116  1.1730
  133OSM   H11A14266   3.436   3.257   3.044 -0.4255 -1.7203  1.2953
  133OSM   H11B14267   3.308   3.298   3.158 -0.1513  1.4099  0.1704
  133OSM      P14268   3.331   3.080   3.311 -0.7887  0.0374  0.4464
  133OSM    O1314269   3.192   3.142   3.305 -0.0522  0.4963 -0.0683
  133OSM    O1414270   3.333   2.933   3.315 -0.0859 -0.1036 -0.2880
  133OSM    O1114271   3.395   3.142   3.441 -0.2811 -0.3886  0.1347
  133OSM    O1214272   3.420   3.132   3.188 -0.1035  0.3799  0.3334
  133OSM    C1S14273   3.339   3.149   3.572  0.5937 -0.3983 -0.5816
  133OSM    H1S14274   3.228   3.150   3.567  0.6230  1.2335 -1.5637
  133OSM    H1T14275   3.357   3.252   3.609 -1.4466 -1.0975  2.7635
  133OSM     NF14276   3.317   3.051   3.802 -0.3219  0.2112 -0.2253
  133OSM    HNF14277   3.341   3.127   3.862  1.3769 -0.3602 -0.1237
  133OSM    C2S14278   3.395   3.045   3.676  0.0723 -0.3278  0.0971
  133OSM    H2S14279   3.378   2.947   3.625  0.8303  1.1497 -3.2422
  133OSM    C3S14280   3.542   3.066   3.697 -0.3958 -0.4641 -0.3101
  133OSM    H3S14281   3.543   3.172   3.732 -0.7131 -1.7354  4.0856
  133OSM     O314282   3.625   3.077   3.578  1.1231  0.2484  0.7486
  133OSM    HO314283   3.562   3.074   3.505  0.8822 -0.0496  0.9695
  133OSM    C4S14284   3.597   2.988   3.813 -0.3653 -0.4267 -0.2051
  133OSM    H4S14285   3.562   3.028   3.909 -0.7252  0.5681 -0.7400
  133OSM    C5S14286   3.678   2.884   3.801  1.1439  0.4849  0.2084
  133OSM    H5S14287   3.705   2.853   3.699 -0.6732  0.5008 -0.3136
  133OSM    C6S14288   3.742   2.808   3.914  0.6665  0.2913  0.2928
  133OSM    H6S14289   3.851   2.824   3.899  1.1354 -3.1819 -1.1375
  133OSM    H6T14290   3.747   2.698   3.899  0.7128  0.1034  1.5585
  133OSM    C7S14291   3.684   2.839   4.051 -0.0364 -0.0135 -0.4062
  133OSM    H7S14292   3.576   2.815   4.042 -0.0972  0.7405 -2.1723
  133OSM    H7T14293   3.708   2.945   4.073 -1.3830  0.7311 -2.2219
  133OSM    C8S14294   3.741   2.733   4.146 -0.0593 -0.0314 -0.9406
  133OSM    H8S14295   3.851   2.735   4.161 -0.3351 -0.3058  1.4468
  133OSM    H8T14296   3.711   2.629   4.121  0.6098 -0.8869  1.6167
  133OSM    C9S14297   3.678   2.764   4.279  1.0071 -0.2108 -0.0116
  133OSM    H9S14298   3.568   2.754   4.265  1.1522 -0.2427 -1.2907
  133OSM    H9T14299   3.697   2.867   4.316  1.3288 -0.6773  1.1680
  133OSM   C10S14300   3.727   2.675   4.395  0.3981 -0.3904 -0.6980
  133OSM   H10S14301   3.830   2.702   4.426 -0.0183  2.2494 -1.3418
  133OSM   H10T14302   3.729   2.572   4.353  1.2622 -1.2843  1.3767
  133OSM   C11S14303   3.623   2.673   4.510 -0.3488 -0.1940 -0.1090
  133OSM   H11S14304   3.525   2.624   4.490 -1.7636  0.9644  3.2028
  133OSM   H11T14305   3.609   2.780   4.536  1.6401 -0.3626  1.9495
  133OSM   C12S14306   3.670   2.590   4.633 -0.2273  0.2062  0.4169
  133OSM   H12S14307   3.772   2.630   4.650  0.1578 -0.4351 -0.3376
  133OSM   H12T14308   3.686   2.489   4.590 -2.9405 -0.6279  1.1695
  133OSM   C13S14309   3.582   2.610   4.754 -0.0513 -0.3530  0.1080
  133OSM   H13S14310   3.476   2.586   4.729 -0.0230 -1.3706  0.9175
  133OSM   H13T14311   3.587   2.720   4.766  1.1754 -0.2883 -0.7455
  133OSM   C14S14312   3.613   2.535   4.886 -0.1300  0.3821  0.5828
  133OSM   H14S14313   3.722   2.530   4.905 -0.2091 -2.7421  0.6086
  133OSM   H14T14314   3.583   2.428   4.883  2.0182 -0.2998  1.9813
  133OSM   C15S14315   3.561   2.611   5.009 -0.6481  0.3342  0.6420
  133OSM   H15S14316   3.453   2.596   5.029 -0.4873 -2.0087  0.0899
  133OSM   H15T14317   3.579   2.719   4.990 -0.5386  0.0066 -1.2835
  133OSM   C16S14318   3.641   2.567   5.135  0.1246  0.0282 -0.5344
  133OSM   H16S14319   3.607   2.636   5.216  0.8448  0.0148 -0.2186
  133OSM   H16T14320   3.748   2.582   5.112  0.3348 -1.3959 -0.6013
  133OSM   C17S14321   3.617   2.422   5.189  0.5630 -0.3428  0.1192
  133OSM   H17S14322   3.666   2.342   5.129 -2.8604 -1.7291 -1.0783
  133OSM   H17T14323   3.507   2.405   5.187  0.7419 -1.5267 -1.4463
  133OSM   C18S14324   3.666   2.415   5.340 -0.3400  0.3426 -1.0630
  133OSM   H18S14325   3.772   2.447   5.348  0.1729 -1.7886  2.7938
  133OSM   H18T14326   3.662   2.313   5.384 -0.8568  1.6853  2.2614
  133OSM   H18U14327   3.603   2.472   5.411 -1.0305 -0.5780 -0.9059
  133OSM    C1F14328   3.195   2.998   3.814 -0.4854  0.1925 -0.2792
  133OSM     OF14329   3.157   2.911   3.736 -0.3097 -0.0263 -0.7642
  133OSM    C2F14330   3.104   3.047   3.923  0.4967 -0.5521  0.0536
  133OSM    H2F14331   3.095   2.962   3.994  1.0069 -1.7095 -1.2307
  133OSM    H2G14332   3.002   3.060   3.880  0.1550 -4.5297 -0.7537
  133OSM    C3F14333   3.146   3.174   4.011 -0.5997  1.6775  0.1700
  133OSM    H3F14334   3.136   3.263   3.945  1.6616  2.2661  0.5608
  133OSM    H3G14335   3.254   3.171   4.036 -0.5772 -0.7328 -0.0241
  133OSM    C4F14336   3.078   3.177   4.146 -0.0682 -0.4661 -0.4986
  133OSM    H4F14337   3.095   3.076   4.191  1.7093  0.9447  2.3122
  133OSM    H4G14338   2.968   3.173   4.135 -0.1336  2.2431 -1.4063
  133OSM    C5F14339   3.134   3.275   4.241  0.7207 -0.3024  0.3551
  133OSM    H5F14340   3.115   3.381   4.215  3.2672  0.8090  2.5713
  133OSM    H5G14341   3.244   3.261   4.256  0.3117 -1.1964  3.0800
  133OSM    C6F14342   3.075   3.250   4.378 -1.0123  0.1572 -0.4546
  133OSM    H6F14343   3.081   3.141   4.396  2.2920  0.0120 -1.7353
  133OSM    H6G14344   2.965   3.264   4.391 -1.1135 -1.5172  0.8376
  133OSM    C7F14345   3.142   3.337   4.486 -0.3735  0.1038  0.2120
  133OSM    H7F14346   3.138   3.445   4.461 -1.5019 -0.1725 -0.9281
  133OSM    H7G14347   3.251   3.318   4.497 -0.4725  0.2018  1.4872
  133OSM    C8F14348   3.082   3.314   4.621  0.5871  0.0400 -0.3504
  133OSM    H8F14349   2.971   3.324   4.618  0.4575 -0.9367  0.6295
  133OSM    H8G14350   3.112   3.398   4.687 -2.3976  2.3183 -1.6484
  133OSM    C9F14351   3.118   3.187   4.694 -0.7635 -0.2216 -0.0425
  133OSM    H9F14352   3.142   3.114   4.615  0.9748  1.1182 -0.7993
  133OSM   C10F14353   3.122   3.156   4.821 -0.1429 -0.3156  0.3315
  133OSM   H10F14354   3.145   3.052   4.848 -1.4047 -0.3119  1.5424
  133OSM   C11F14355   3.104   3.255   4.939 -0.2899  0.2827  0.7918
  133OSM   H11F14356   3.085   3.356   4.896  1.2605 -0.2002 -1.1828
  133OSM   H11G14357   3.196   3.256   5.000 -0.4710 -1.7915  1.1985
  133OSM   C12F14358   2.982   3.221   5.015  0.3776  0.3437 -0.9049
  133OSM   H12F14359   2.892   3.221   4.950 -0.8646  1.5635  0.7108
  133OSM   H12G14360   2.967   3.315   5.074 -0.0405  0.8865 -1.8544
  133OSM   C13F14361   2.999   3.107   5.114  0.7878  0.5053 -0.5153
  133OSM   H13F14362   2.925   3.114   5.196  0.5339  1.1265 -0.7868
  133OSM   H13G14363   3.102   3.121   5.153  0.7410  0.3309 -0.3316
  133OSM   C14F14364   2.966   2.964   5.061 -0.4401 -0.0456 -0.0695
  133OSM   H14F14365   3.041   2.927   4.988 -1.0647  0.2201 -0.8670
  133OSM   H14G14366   2.866   2.968   5.012 -1.3804  1.8146  1.8487
  133OSM   C15F14367   2.958   2.856   5.167  0.4868  0.4273 -0.0802
  133OSM   H15F14368   2.918   2.757   5.135 -0.3872  1.8751 -3.9934
  133OSM   H15G14369   2.878   2.895   5.234 -0.0674 -1.3289  0.3466
  133OSM   C16F14370   3.089   2.848   5.252  0.7060 -0.2056  0.0425
  133OSM   H16F14371   3.114   2.944   5.300  2.6526 -0.7028  0.1049
  133OSM   H16G14372   3.182   2.819   5.198  1.1359  1.2283 -0.0099
  133OSM   C17F14373   3.063   2.741   5.360 -0.2900 -0.6089 -0.1807
  133OSM   H17F14374   3.052   2.639   5.318 -0.6917 -2.1140  3.2477
  133OSM   H17G14375   2.969   2.763   5.414 -0.3024 -1.8032  0.3200
  133OSM   C18F14376   3.181   2.735   5.455  0.0006  0.5126  0.1446
  133OSM   H18F14377   3.271   2.718   5.392  0.5534 -0.8663  1.2425
  133OSM   H18G14378   3.163   2.657   5.532 -2.6037  2.3520  1.5300
  133OSM   H18H14379   3.200   2.829   5.510 -0.5555  1.2781 -0.9363
  134OSM      N14380   2.972   4.568   3.379  0.1279  0.0292 -0.0151
  134OSM    C1514381   3.048   4.449   3.321  0.2064 -0.8075  1.3709
  134OSM   H15A14382   3.098   4.403   3.405  0.0005 -0.7750  1.5145
  134OSM   H15B14383   3.126   4.465   3.249  1.0182 -4.2124  1.3331
  134OSM   H15C14384   2.973   4.384   3.278  1.5680 -1.4711 -0.0851
  134OSM    C1414385   2.928   4.649   3.262  0.2223 -0.1719 -0.9212
  134OSM   H14A14386   2.862   4.733   3.281  2.6399  1.9317 -1.3144
  134OSM   H14B14387   2.875   4.594   3.186 -0.8641  1.7149 -1.5922
  134OSM   H14C14388   3.019   4.677   3.213  0.5215 -1.3814 -1.0886
  134OSM    C1314389   2.850   4.514   3.457  0.8527 -0.1246  0.7559
  134OSM   H13A14390   2.813   4.591   3.524  1.7009  1.3102 -0.3579
  134OSM   H13B14391   2.883   4.431   3.518  0.0535  0.9790  2.7709
  134OSM   H13C14392   2.770   4.482   3.393  1.0187  0.3872  0.2845
  134OSM    C1214393   3.060   4.645   3.473 -0.3984  0.4456 -0.1483
  134OSM   H12A14394   3.153   4.672   3.423 -0.3153  0.5481  0.0613
  134OSM   H12B14395   3.080   4.574   3.551 -1.7679  0.0106 -0.1807
  134OSM    C1114396   3.004   4.765   3.539 -0.7044 -0.5420 -0.6844
  134OSM   H11A14397   3.080   4.783   3.618 -0.2499 -3.5317 -0.3392
  134OSM   H11B14398   2.917   4.743   3.604  1.4227  0.7302  2.9149
  134OSM      P14399   3.120   4.955   3.386 -0.3410  0.4626 -0.1671
  134OSM    O1314400   3.184   4.860   3.291  0.7748 -0.0453 -0.4363
  134OSM    O1414401   3.081   5.086   3.337  0.7783  0.1307  0.0733
  134OSM    O1114402   3.220   4.979   3.506 -0.1577 -0.0488  0.6927
  134OSM    O1214403   2.995   4.880   3.452 -0.3037 -0.2285 -0.0301
  134OSM    C1S14404   3.178   5.057   3.616 -0.1224 -0.7878  0.9468
  134OSM    H1S14405   3.072   5.037   3.639  0.2674 -3.3523  0.8128
  134OSM    H1T14406   3.178   5.166   3.593 -2.3427 -0.8513  0.4636
  134OSM     NF14407   3.204   5.072   3.868 -0.5067  0.3299 -0.2084
  134OSM    HNF14408   3.227   5.160   3.910 -1.3158  0.0760  0.7902
  134OSM    C2S14409   3.269   5.026   3.743  0.0315  0.4748  0.0598
  134OSM    H2S14410   3.285   4.916   3.749 -0.2538  0.4056 -0.3817
  134OSM    C3S14411   3.415   5.085   3.719  0.3105  0.9280 -0.7786
  134OSM    H3S14412   3.409   5.195   3.707  0.3623  1.5478  3.4007
  134OSM     O314413   3.479   5.037   3.604  0.3040 -0.1763 -0.5952
  134OSM    HO314414   3.400   5.002   3.562 -1.7728  0.6769  2.2849
  134OSM    C4S14415   3.500   5.057   3.838  0.9880  0.1195  0.5784
  134OSM    H4S14416   3.496   4.953   3.874  4.0335 -0.1361  0.4109
  134OSM    C5S14417   3.569   5.143   3.904 -0.5169 -0.1999 -0.0256
  134OSM    H5S14418   3.577   5.242   3.857 -1.8109 -0.3901 -0.6936
  134OSM    C6S14419   3.666   5.113   4.013  0.6701 -0.5133  0.7266
  134OSM    H6S14420   3.767   5.146   3.982 -0.3019  1.4766 -0.5343
  134OSM    H6T14421   3.667   5.003   4.028 -3.8857 -1.3174 -2.4675
  134OSM    C7S14422   3.626   5.177   4.152 -0.2397  0.2037 -0.4255
  134OSM    H7S14423   3.520   5.146   4.163  0.1282 -1.5694 -1.4327
  134OSM    H7T14424   3.624   5.287   4.137 -2.5811  0.2358 -0.2905
  134OSM    C8S14425   3.709   5.122   4.266  0.2691 -0.3847  0.4352
  134OSM    H8S14426   3.812   5.163   4.267 -0.8538  2.9212 -1.9604
  134OSM    H8T14427   3.733   5.014   4.254  1.2793 -0.1717  0.4546
  134OSM    C9S14428   3.657   5.152   4.405 -0.2288  0.4681  0.0069
  134OSM    H9S14429   3.553   5.113   4.390  0.3485 -0.3654 -2.1861
  134OSM    H9T14430   3.656   5.260   4.428 -1.9119  0.5202 -0.1331
  134OSM   C10S14431   3.742   5.091   4.514  0.2242  0.2515 -0.8710
  134OSM   H10S14432   3.846   5.127   4.501  0.1087  0.5995 -0.8355
  134OSM   H10T14433   3.736   4.980   4.507 -0.2880  0.1754  0.5041
  134OSM   C11S14434   3.697   5.129   4.650 -0.1030 -0.2314  0.5021
  134OSM   H11S14435   3.595   5.091   4.669 -0.5934  0.9264  0.2715
  134OSM   H11T14436   3.679   5.239   4.644 -1.9150 -0.4968  0.5087
  134OSM   C12S14437   3.796   5.086   4.761 -0.0765 -0.4368 -0.6509
  134OSM   H12S14438   3.898   5.127   4.753  0.1312 -0.7862  0.1325
  134OSM   H12T14439   3.798   4.975   4.756 -1.0834 -0.4239 -2.7114
  134OSM   C13S14440   3.732   5.133   4.901 -0.2885 -0.4054  0.1613
  134OSM   H13S14441   3.626   5.104   4.918 -0.5544  0.4771  0.0321
  134OSM   H13T14442   3.739   5.244   4.897  1.6101 -0.5124 -1.0859
  134OSM   C14S14443   3.828   5.088   5.007 -0.0003 -0.1943 -0.2320
  134OSM   H14S14444   3.912   5.161   5.010 -0.8399  0.7704  1.1929
  134OSM   H14T14445   3.879   4.996   4.971 -1.4048 -0.7047 -0.9926
  134OSM   C15S14446   3.779   5.069   5.152  0.0032  0.5685  0.7571
  134OSM   H15S14447   3.684   5.012   5.145  0.1610  0.5015 -2.1527
  134OSM   H15T14448   3.738   5.166   5.188  0.6391  1.0946  0.1170
  134OSM   C16S14449   3.892   5.010   5.243 -0.3778 -0.2190  0.9167
  134OSM   H16S14450   3.981   5.073   5.226 -0.6745  0.0918  0.5016
  134OSM   H16T14451   3.913   4.909   5.201  0.3378  0.3215 -0.0735
  134OSM   C17S14452   3.854   5.002   5.390 -0.4386 -0.1387  0.7963
  134OSM   H17S14453   3.791   5.092   5.410 -2.6612 -1.5545  0.5265
  134OSM   H17T14454   3.935   5.020   5.464 -1.1756 -3.4125  2.5729
  134OSM   C18S14455   3.784   4.872   5.436 -0.3097 -0.0136  0.6018
  134OSM   H18S14456   3.857   4.790   5.424  1.1120  1.4552 -1.2713
  134OSM   H18T14457   3.701   4.854   5.365  0.4901  1.8478 -0.8752
  134OSM   H18U14458   3.750   4.886   5.541  1.0630 -1.7860  1.3284
  134OSM    C1F14459   3.093   5.015   3.916  0.3181 -0.0941  0.1059
  134OSM     OF14460   3.046   4.918   3.863  0.3221  0.3068  0.5136
  134OSM    C2F14461   3.035   5.076   4.036  0.0590 -0.1122  0.1498
  134OSM    H2F14462   2.924   5.072   4.039  0.0676 -3.9898  1.3297
  134OSM    H2G14463   3.068   5.181   4.049  2.9494 -0.8891 -0.3275
  134OSM    C3F14464   3.085   5.004   4.163  0.6115  0.0961 -0.3108
  134OSM    H3F14465   3.189   4.964   4.161  0.5538 -0.0370 -0.7178
  134OSM    H3G14466   3.025   4.914   4.187  1.2039 -1.1471 -3.0609
  134OSM    C4F14467   3.071   5.103   4.280 -0.0505  0.4107 -0.0774
  134OSM    H4F14468   2.966   5.139   4.278  0.1706  1.1418  0.8400
  134OSM    H4G14469   3.137   5.192   4.274  1.0970 -0.4505 -0.8746
  134OSM    C5F14470   3.111   5.038   4.416  0.6307  0.1394  0.2995
  134OSM    H5F14471   3.211   4.990   4.409  0.7818  0.4413  0.3570
  134OSM    H5G14472   3.036   4.961   4.444 -0.7442  1.1931 -0.3980
  134OSM    C6F14473   3.099   5.135   4.536  0.6880  0.2095  0.0236
  134OSM    H6F14474   2.993   5.155   4.564  0.2536  1.0686 -2.0863
  134OSM    H6G14475   3.148   5.234   4.529 -1.5560  1.3048 -1.5516
  134OSM    C7F14476   3.166   5.063   4.657 -0.4590  0.2339  0.7862
  134OSM    H7F14477   3.275   5.082   4.658 -0.2450 -0.7944 -0.4267
  134OSM    H7G14478   3.150   4.955   4.639  0.2668  0.5390 -2.1514
  134OSM    C8F14479   3.120   5.105   4.798  0.3705 -0.0657  0.6073
  134OSM    H8F14480   3.117   5.216   4.801  2.4692  0.0245  0.9558
  134OSM    H8G14481   3.195   5.063   4.869  1.5000  1.0452  0.1164
  134OSM    C9F14482   2.973   5.066   4.822 -0.1977  0.8479 -0.0673
  134OSM    H9F14483   2.896   5.113   4.759 -1.2833  0.7661  1.1749
  134OSM   C10F14484   2.932   4.984   4.918  0.1176  0.0617 -0.1062
  134OSM   H10F14485   2.825   4.960   4.923  0.4481 -1.6778 -0.5555
  134OSM   C11F14486   3.018   4.918   5.018  0.4814 -0.0653  0.3854
  134OSM   H11F14487   3.116   4.893   4.971 -0.6099 -1.2236 -1.4160
  134OSM   H11G14488   2.978   4.818   5.048  0.8273  0.1988  1.8065
  134OSM   C12F14489   3.057   4.989   5.149 -0.5215 -0.4341  0.5338
  134OSM   H12F14490   2.967   5.004   5.213 -0.4319 -1.1808  0.8380
  134OSM   H12G14491   3.097   5.089   5.119 -1.7820  0.6752  2.3540
  134OSM   C13F14492   3.165   4.915   5.225 -0.3488  0.0462 -0.1211
  134OSM   H13F14493   3.242   4.884   5.151 -0.3401 -1.8406  0.6339
  134OSM   H13G14494   3.123   4.825   5.274 -1.3286 -0.2589 -1.4716
  134OSM   C14F14495   3.240   4.998   5.332  0.5547 -0.1611 -0.4592
  134OSM   H14F14496   3.301   4.934   5.399 -0.7016 -0.4949  0.4043
  134OSM   H14G14497   3.163   5.046   5.397  0.4750  0.5699 -1.0763
  134OSM   C15F14498   3.330   5.107   5.280  0.8732  0.2261  0.2310
  134OSM   H15F14499   3.268   5.189   5.237  0.2156 -0.5999 -0.4176
  134OSM   H15G14500   3.389   5.058   5.199  0.8088  0.8171 -0.1812
  134OSM   C16F14501   3.434   5.160   5.381  0.0524  0.0352 -0.0383
  134OSM   H16F14502   3.505   5.228   5.329 -0.5904 -0.4475 -1.5996
  134OSM   H16G14503   3.498   5.080   5.425 -0.2559 -0.6471 -0.8150
  134OSM   C17F14504   3.375   5.220   5.505  0.3786  0.5546  0.0938
  134OSM   H17F14505   3.338   5.131   5.560  0.1531  0.8533  0.4275
  134OSM   H17G14506   3.286   5.283   5.482  0.3742  0.2878 -0.6221
  134OSM   C18F14507   3.473   5.298   5.596  0.0410  0.2423  0.1367
  134OSM   H18F14508   3.491   5.403   5.564  0.6789  0.5894  1.5593
  134OSM   H18G14509   3.571   5.247   5.594 -0.7761 -1.3590 -0.9797
  134OSM   H18H14510   3.424   5.302   5.696 -2.5843  1.4634 -1.0937
  135OSM      N14511   6.050   3.482   3.372 -0.2708 -0.3424  0.1502
  135OSM    C1514512   5.934   3.425   3.446 -0.5175  0.3742 -0.3213
  135OSM   H15A14513   5.930   3.454   3.550  0.5799 -0.0404 -0.1449
  135OSM   H15B14514   5.942   3.318   3.449  1.2637  0.4760 -0.2576
  135OSM   H15C14515   5.838   3.445   3.401 -0.2854  2.8615  0.1558
  135OSM    C1414516   6.178   3.428   3.425 -0.2694  0.1745  0.0967
  135OSM   H14A14517   6.197   3.473   3.521  0.1588 -1.3849  0.7718
  135OSM   H14B14518   6.263   3.451   3.362 -1.1186 -0.9732 -1.5659
  135OSM   H14C14519   6.177   3.321   3.434  1.1916  0.0346 -0.9469
  135OSM    C1314520   6.034   3.439   3.222 -0.0612 -0.5621 -0.0762
  135OSM   H13A14521   5.936   3.465   3.184 -0.8055 -0.9553  1.4705
  135OSM   H13B14522   6.054   3.334   3.208  1.7502 -0.3622  0.8106
  135OSM   H13C14523   6.109   3.493   3.167  1.4417 -0.2948  2.1081
  135OSM    C1214524   6.039   3.633   3.384 -0.3192  0.1015  0.1799
  135OSM   H12A14525   5.953   3.660   3.324  1.3355  2.1406 -1.4085
  135OSM   H12B14526   6.125   3.674   3.333  1.5624 -1.3158  2.0899
  135OSM    C1114527   6.038   3.709   3.516 -0.0030  0.3966 -0.4512
  135OSM   H11A14528   5.949   3.678   3.575  0.7299 -0.9550 -0.0041
  135OSM   H11B14529   6.037   3.818   3.494 -0.1257  0.3050 -0.8983
  135OSM      P14530   6.295   3.757   3.540  0.4001 -0.2311 -0.0971
  135OSM    O1314531   6.411   3.657   3.550  0.1829  0.3126  0.1127
  135OSM    O1414532   6.286   3.816   3.405 -0.0138 -0.0083 -0.0921
  135OSM    O1114533   6.299   3.873   3.654  0.1508 -0.2916  0.7576
  135OSM    O1214534   6.164   3.674   3.583 -0.0747 -0.1338 -0.0077
  135OSM    C1S14535   6.259   3.841   3.793 -0.0524 -0.0490  0.5051
  135OSM    H1S14536   6.325   3.763   3.838 -2.4480 -2.1573  0.6343
  135OSM    H1T14537   6.155   3.803   3.803 -0.4552  0.4129 -1.5545
  135OSM     NF14538   6.205   3.932   4.015 -0.0242  0.3734  0.3086
  135OSM    HNF14539   6.113   3.957   4.045  0.8377 -1.7317  5.7958
  135OSM    C2S14540   6.259   3.976   3.883 -0.1676  0.0143 -0.0278
  135OSM    H2S14541   6.367   3.999   3.888 -0.1711  0.9545 -2.5277
  135OSM    C3S14542   6.189   4.096   3.813 -0.5437 -0.5548  0.5359
  135OSM    H3S14543   6.085   4.067   3.791  0.0108 -0.3050 -3.0201
  135OSM     O314544   6.240   4.132   3.685  0.4564 -0.6643 -0.3665
  135OSM    HO314545   6.308   4.067   3.666 -1.1964 -1.9851 -2.2008
  135OSM    C4S14546   6.192   4.214   3.909 -0.4063  0.0172  0.3043
  135OSM    H4S14547   6.109   4.209   3.980  0.7090  0.9703  1.7266
  135OSM    C5S14548   6.286   4.312   3.922  0.3887 -0.0427 -0.1380
  135OSM    H5S14549   6.365   4.316   3.846  1.7351 -0.7248  1.1778
  135OSM    C6S14550   6.287   4.422   4.021  0.0245 -0.3170  0.9784
  135OSM    H6S14551   6.184   4.452   4.050 -0.2773  1.3339 -1.4543
  135OSM    H6T14552   6.334   4.512   3.976 -1.2511  0.3206  0.8708
  135OSM    C7S14553   6.347   4.394   4.162 -0.1221  0.0030  0.6860
  135OSM    H7S14554   6.376   4.488   4.214  3.0334  0.1327 -1.1184
  135OSM    H7T14555   6.441   4.336   4.152 -0.2659 -0.5688  2.2996
  135OSM    C8S14556   6.253   4.305   4.242  0.1248 -0.1285 -0.4044
  135OSM    H8S14557   6.258   4.197   4.218 -0.0788 -0.3027  0.3333
  135OSM    H8T14558   6.151   4.346   4.224 -0.0449 -1.1453 -1.9826
  135OSM    C9S14559   6.287   4.306   4.393 -0.1787 -0.5380 -0.2713
  135OSM    H9S14560   6.320   4.406   4.428 -0.4201 -0.1649 -1.0894
  135OSM    H9T14561   6.381   4.247   4.390  1.0182  1.3067 -1.2800
  135OSM   C10S14562   6.181   4.251   4.486  1.2882 -0.2212  0.7519
  135OSM   H10S14563   6.157   4.143   4.480  0.0098  0.0128  1.2233
  135OSM   H10T14564   6.089   4.305   4.454  0.0888 -2.1527  0.7711
  135OSM   C11S14565   6.214   4.284   4.633  0.2459  1.2817  0.2158
  135OSM   H11S14566   6.197   4.392   4.653  1.2461  1.3077  1.0009
  135OSM   H11T14567   6.320   4.255   4.654  0.7170  2.0181 -1.0569
  135OSM   C12S14568   6.121   4.202   4.716 -0.4208 -0.6199  0.5733
  135OSM   H12S14569   6.146   4.093   4.713  0.6672 -0.3899  0.8468
  135OSM   H12T14570   6.019   4.226   4.679 -0.3425 -2.0662 -0.7215
  135OSM   C13S14571   6.129   4.241   4.863 -0.2274 -0.3050 -0.5064
  135OSM   H13S14572   6.138   4.352   4.874  0.2014 -0.5675  3.1124
  135OSM   H13T14573   6.222   4.194   4.900  0.0500 -1.4248 -2.5210
  135OSM   C14S14574   6.009   4.185   4.947  0.6623 -0.6295 -0.6037
  135OSM   H14S14575   5.998   4.074   4.939  2.1998 -1.0461  2.0386
  135OSM   H14T14576   5.916   4.238   4.919  2.2628  3.4769  1.1110
  135OSM   C15S14577   6.025   4.215   5.096 -0.5318 -0.0389 -0.0500
  135OSM   H15S14578   6.075   4.315   5.097 -1.0204  0.2196 -0.7000
  135OSM   H15T14579   6.090   4.142   5.148  0.0412  1.7536  1.9257
  135OSM   C16S14580   5.886   4.232   5.161  0.3441  0.4079  0.0651
  135OSM   H16S14581   5.846   4.131   5.137 -1.2717  1.1367 -0.3993
  135OSM   H16T14582   5.830   4.311   5.108  0.2760  0.4175  0.1515
  135OSM   C17S14583   5.906   4.249   5.312  0.0700 -0.0299  0.2022
  135OSM   H17S14584   5.997   4.197   5.350 -0.0707 -0.5194 -0.1177
  135OSM   H17T14585   5.819   4.208   5.367  0.2050 -0.0037  0.4408
  135OSM   C18S14586   5.929   4.393   5.349  0.2551 -0.0170  0.0208
  135OSM   H18S14587   6.022   4.436   5.305  0.0580 -2.4132 -3.0646
  135OSM   H18T14588   5.947   4.401   5.459  2.0235  2.4928 -0.3511
  135OSM   H18U14589   5.850   4.467   5.324 -0.7322 -1.3359 -0.9040
  135OSM    C1F14590   6.273   3.858   4.099  0.0222  0.3751  0.5834
  135OSM     OF14591   6.393   3.840   4.081  0.3268  0.5781 -0.0775
  135OSM    C2F14592   6.203   3.805   4.219 -0.2028 -0.4260  0.2363
  135OSM    H2F14593   6.201   3.695   4.233 -2.0054 -0.2783  1.5401
  135OSM    H2G14594   6.095   3.832   4.217 -0.0499  0.2922  1.0775
  135OSM    C3F14595   6.261   3.852   4.353 -0.9364 -0.2243 -1.0948
  135OSM    H3F14596   6.246   3.962   4.358 -0.9607 -0.2505 -0.5986
  135OSM    H3G14597   6.370   3.841   4.373 -1.4056 -0.8758  1.4786
  135OSM    C4F14598   6.196   3.772   4.461 -0.4911 -0.4068 -0.3161
  135OSM    H4F14599   6.245   3.673   4.465 -0.2830 -0.2697  0.8621
  135OSM    H4G14600   6.087   3.756   4.445 -0.8439  1.0679  0.4111
  135OSM    C5F14601   6.208   3.831   4.606 -0.0011 -0.0128 -0.1731
  135OSM    H5F14602   6.141   3.919   4.620  3.5224  2.9251 -0.1557
  135OSM    H5G14603   6.315   3.863   4.608  0.1454 -0.4742 -0.3426
  135OSM    C6F14604   6.185   3.730   4.714  0.3868  0.4114 -0.0186
  135OSM    H6F14605   6.241   3.634   4.702  1.1205  0.7066  0.8840
  135OSM    H6G14606   6.076   3.713   4.712  0.4579 -0.0298 -2.2183
  135OSM    C7F14607   6.222   3.792   4.845  0.5243  0.2086 -0.1252
  135OSM    H7F14608   6.161   3.880   4.874  1.1052 -0.0185  1.9152
  135OSM    H7G14609   6.329   3.820   4.839  0.0613  1.7875 -2.1822
  135OSM    C8F14610   6.220   3.702   4.973  0.4262  0.4709 -0.6708
  135OSM    H8F14611   6.264   3.756   5.060  0.0549  2.6971 -1.7844
  135OSM    H8G14612   6.283   3.613   4.954  0.0964  0.1119 -0.0853
  135OSM    C9F14613   6.074   3.682   4.988 -0.4687  0.8710 -0.0670
  135OSM    H9F14614   6.035   3.610   4.915  2.1342  1.0499 -1.7912
  135OSM   C10F14615   5.996   3.741   5.079  0.2443  0.6325  0.1645
  135OSM   H10F14616   5.888   3.722   5.068  0.7448 -1.5786 -1.8271
  135OSM   C11F14617   6.026   3.842   5.186 -0.0594  0.1322 -0.1787
  135OSM   H11F14618   5.944   3.914   5.168 -1.4562 -1.1677  0.7747
  135OSM   H11G14619   6.121   3.896   5.164  0.1068 -0.2172 -0.3391
  135OSM   C12F14620   6.023   3.799   5.328 -0.5290 -0.5978  0.1462
  135OSM   H12F14621   6.055   3.889   5.385  0.1312 -0.8740  0.2270
  135OSM   H12G14622   6.092   3.715   5.351 -1.8832 -1.9009 -0.3635
  135OSM   C13F14623   5.881   3.769   5.384  0.5274 -0.2235 -0.4523
  135OSM   H13F14624   5.881   3.726   5.486 -0.7653  0.9593  0.0678
  135OSM   H13G14625   5.842   3.697   5.308 -0.1433 -2.0800  1.5336
  135OSM   C14F14626   5.800   3.898   5.396 -0.2151  0.3089 -0.2965
  135OSM   H14F14627   5.789   3.956   5.301 -1.7457 -0.6884 -0.7580
  135OSM   H14G14628   5.868   3.957   5.461 -1.7835  3.2963 -1.1615
  135OSM   C15F14629   5.664   3.873   5.454  0.6848  0.3208 -0.4980
  135OSM   H15F14630   5.619   3.972   5.476  0.1336 -0.4399  2.0590
  135OSM   H15G14631   5.676   3.824   5.553 -0.4930 -0.2761 -0.6430
  135OSM   C16F14632   5.575   3.792   5.366  0.4962  0.1250  0.5677
  135OSM   H16F14633   5.625   3.697   5.341 -2.3823 -0.9565 -1.6358
  135OSM   H16G14634   5.563   3.841   5.267 -0.9319  1.6822  1.4463
  135OSM   C17F14635   5.433   3.766   5.427 -0.3692 -0.6999 -0.4602
  135OSM   H17F14636   5.392   3.868   5.446 -0.5829 -0.5572 -1.5813
  135OSM   H17G14637   5.441   3.723   5.529  0.0483  0.1475 -0.1212
  135OSM   C18F14638   5.334   3.689   5.338  0.0706 -0.7987  0.0902
  135OSM   H18F14639   5.356   3.581   5.351 -1.0325 -1.1003 -0.4599
  135OSM   H18G14640   5.351   3.720   5.232  1.4125 -0.5206  0.3663
  135OSM   H18H14641   5.229   3.714   5.363 -0.3113 -1.4813 -0.7757
  136OSM      N14642   2.365   6.792   3.417 -0.1860 -0.4781  0.3012
  136OSM    C1514643   2.314   6.935   3.390 -0.3751  0.1743 -0.1061
  136OSM   H15A14644   2.218   6.948   3.438 -0.4127 -3.2457  1.0713
  136OSM   H15B14645   2.300   6.936   3.283  2.3128  0.7171 -0.5213
  136OSM   H15C14646   2.392   7.005   3.415  2.2622 -2.1275 -1.3186
  136OSM    C1414647   2.374   6.769   3.556  0.2870 -0.3826 -0.6233
  136OSM   H14A14648   2.445   6.838   3.599 -0.6317 -0.2676  0.8089
  136OSM   H14B14649   2.407   6.667   3.572 -0.4382 -0.9533 -2.4890
  136OSM   H14C14650   2.277   6.767   3.604  0.2666  1.9568 -0.4304
  136OSM    C1314651   2.275   6.689   3.350 -0.2526 -0.2211  0.0399
  136OSM   H13A14652   2.171   6.709   3.372 -0.3258  0.8018 -1.1190
  136OSM   H13B14653   2.304   6.592   3.388  1.9077  1.1378  2.1823
  136OSM   H13C14654   2.295   6.694   3.244  0.3812  1.0049  0.1958
  136OSM    C1214655   2.510   6.780   3.357  0.5388 -0.4510  0.9717
  136OSM   H12A14656   2.560   6.866   3.399 -1.5048  0.6231  1.3312
  136OSM   H12B14657   2.502   6.788   3.249  0.1705 -2.1079  0.8482
  136OSM    C1114658   2.596   6.657   3.381  0.0493  0.3314 -1.2452
  136OSM   H11A14659   2.691   6.653   3.324  0.2574  2.1438 -1.0954
  136OSM   H11B14660   2.525   6.577   3.349 -0.4417 -0.1436  0.8890
  136OSM      P14661   2.722   6.720   3.619 -0.3089 -0.1953 -0.0182
  136OSM    O1314662   2.858   6.720   3.559 -0.1911 -0.0383 -0.1953
  136OSM    O1414663   2.670   6.851   3.650  0.0786  0.1076 -0.1673
  136OSM    O1114664   2.725   6.633   3.751 -0.4791 -0.1320 -0.6227
  136OSM    O1214665   2.614   6.640   3.528 -0.4514 -0.7398  0.4604
  136OSM    C1S14666   2.637   6.661   3.861 -0.2537  0.0070  0.4980
  136OSM    H1S14667   2.559   6.583   3.869 -1.7673  1.5864  1.8308
  136OSM    H1T14668   2.575   6.753   3.854  2.2919  1.7019 -1.1654
  136OSM     NF14669   2.614   6.629   4.115  0.1258  0.2686 -0.0569
  136OSM    HNF14670   2.593   6.698   4.184  2.0444 -2.4838  3.6248
  136OSM    C2S14671   2.708   6.661   4.009 -0.1997 -0.2213  0.8908
  136OSM    H2S14672   2.788   6.584   4.009  1.4021  1.3562  0.7944
  136OSM    C3S14673   2.783   6.802   4.021  0.1611  0.2401 -0.2499
  136OSM    H3S14674   2.707   6.875   4.056 -0.2539 -0.2354 -0.1494
  136OSM     O314675   2.844   6.840   3.898 -0.1358 -0.1820 -0.1644
  136OSM    HO314676   2.835   6.762   3.843  2.0146 -0.7674  0.2024
  136OSM    C4S14677   2.882   6.797   4.136  0.5751 -0.6401 -0.7011
  136OSM    H4S14678   2.826   6.814   4.229  0.7321  1.6289 -0.9611
  136OSM    C5S14679   3.010   6.782   4.138 -0.1885  0.6380  0.6659
  136OSM    H5S14680   3.059   6.770   4.041  0.4553 -3.0222  1.2949
  136OSM    C6S14681   3.091   6.758   4.267 -0.5793  0.0937  0.0535
  136OSM    H6S14682   3.182   6.821   4.268 -1.3625  1.3748  3.1296
  136OSM    H6T14683   3.125   6.652   4.265 -1.6218 -0.2672 -2.8339
  136OSM    C7S14684   3.032   6.782   4.411 -0.2349  0.8200  0.3082
  136OSM    H7S14685   2.936   6.726   4.424  0.5031 -0.8218 -0.9569
  136OSM    H7T14686   3.005   6.890   4.414 -0.9861  0.6328  0.6267
  136OSM    C8S14687   3.133   6.762   4.527 -0.2936 -0.2797 -0.2539
  136OSM    H8S14688   3.232   6.804   4.500 -0.1186 -0.7891 -0.4077
  136OSM    H8T14689   3.150   6.653   4.541  0.0733 -0.2770 -0.6746
  136OSM    C9S14690   3.072   6.822   4.660  0.1323  0.5405  0.0582
  136OSM    H9S14691   2.973   6.773   4.669 -0.8177  1.2254 -4.2163
  136OSM    H9T14692   3.043   6.929   4.647 -2.7565 -0.1730  0.0636
  136OSM   C10S14693   3.163   6.802   4.782 -0.0255  0.6413  0.4434
  136OSM   H10S14694   3.126   6.857   4.871 -2.1344 -1.4224  0.9303
  136OSM   H10T14695   3.268   6.838   4.774  0.6027 -1.4628 -2.7524
  136OSM   C11S14696   3.176   6.654   4.821  0.8153 -0.0196  0.2710
  136OSM   H11S14697   3.257   6.610   4.758 -0.3342  1.3459 -2.3216
  136OSM   H11T14698   3.076   6.614   4.793  1.8285 -1.8209 -0.9688
  136OSM   C12S14699   3.222   6.638   4.967 -0.1454 -0.8555 -0.1093
  136OSM   H12S14700   3.323   6.683   4.975 -0.4906 -0.3511  2.8875
  136OSM   H12T14701   3.250   6.532   4.985  1.1069 -0.7356 -1.2053
  136OSM   C13S14702   3.124   6.704   5.077  0.2476 -0.1998 -0.0484
  136OSM   H13S14703   3.020   6.681   5.047 -0.7458  2.3245  1.2204
  136OSM   H13T14704   3.147   6.812   5.069  0.4599 -0.0533  2.0873
  136OSM   C14S14705   3.137   6.649   5.224  0.1582 -0.7755  0.6291
  136OSM   H14S14706   3.243   6.646   5.258  0.3736 -1.9067 -0.0780
  136OSM   H14T14707   3.115   6.540   5.216 -2.8595 -0.2861  0.9980
  136OSM   C15S14708   3.049   6.713   5.331 -0.2207 -0.0899 -0.0982
  136OSM   H15S14709   3.068   6.658   5.426  0.4257  1.2572  0.5772
  136OSM   H15T14710   2.944   6.696   5.299 -0.2520  0.4381 -0.2913
  136OSM   C16S14711   3.055   6.865   5.367 -0.1000 -0.4349 -0.1024
  136OSM   H16S14712   2.959   6.878   5.420 -1.1080 -0.0326 -1.9207
  136OSM   H16T14713   3.048   6.926   5.275 -1.8410 -0.7974 -0.2331
  136OSM   C17S14714   3.164   6.916   5.451 -0.0463 -0.3279 -0.3434
  136OSM   H17S14715   3.267   6.898   5.414 -0.0439  0.9858 -1.0029
  136OSM   H17T14716   3.155   6.859   5.547 -1.7667  0.1551 -0.1881
  136OSM   C18S14717   3.156   7.068   5.470 -0.0424  0.7231  0.5241
  136OSM   H18S14718   3.050   7.100   5.479 -0.8100 -0.6991 -2.3554
  136OSM   H18T14719   3.193   7.113   5.376 -0.6430  0.2666  0.0633
  136OSM   H18U14720   3.206   7.103   5.563  0.4317 -0.7211  0.8491
  136OSM    C1F14721   2.564   6.510   4.139 -0.1843  0.1916  0.2172
  136OSM     OF14722   2.574   6.421   4.056  0.3216  0.1666 -0.7400
  136OSM    C2F14723   2.513   6.486   4.279  0.1645  0.2783  0.1728
  136OSM    H2F14724   2.460   6.576   4.317  0.4576  0.0476  1.1438
  136OSM    H2G14725   2.603   6.472   4.342 -1.1104 -1.6031  1.6828
  136OSM    C3F14726   2.429   6.361   4.289  0.7113 -0.2084  0.1260
  136OSM    H3F14727   2.486   6.268   4.267  0.0982 -0.3543 -0.8709
  136OSM    H3G14728   2.345   6.363   4.217  1.3871 -0.0244 -0.6662
  136OSM    C4F14729   2.361   6.353   4.433  0.3935  0.0171 -0.1240
  136OSM    H4F14730   2.275   6.283   4.428  0.5107 -0.3271  1.9195
  136OSM    H4G14731   2.332   6.458   4.452 -0.4351  0.0974 -1.6176
  136OSM    C5F14732   2.450   6.285   4.532  0.8378  1.0449 -0.2498
  136OSM    H5F14733   2.521   6.362   4.568  0.9349  0.8748 -0.0769
  136OSM    H5G14734   2.500   6.196   4.488  1.5935  1.8268 -1.0110
  136OSM    C6F14735   2.367   6.236   4.662 -0.0340  0.1063  0.0492
  136OSM    H6F14736   2.301   6.159   4.617  0.5546  0.0992 -0.8225
  136OSM    H6G14737   2.305   6.316   4.708  2.1975  1.1221  1.4528
  136OSM    C7F14738   2.448   6.171   4.779 -0.3716 -0.2886  0.3519
  136OSM    H7F14739   2.544   6.227   4.771 -0.3170 -0.0380  2.2407
  136OSM    H7G14740   2.461   6.064   4.753 -0.2756  0.3626 -2.7387
  136OSM    C8F14741   2.396   6.192   4.921 -0.3682  0.0905 -0.1129
  136OSM    H8F14742   2.383   6.301   4.939 -2.7706  0.0855 -1.3228
  136OSM    H8G14743   2.470   6.143   4.989  0.1758  2.3389  1.0206
  136OSM    C9F14744   2.253   6.137   4.946  0.0478 -0.6979  0.2297
  136OSM    H9F14745   2.163   6.176   4.895 -0.7029 -2.4636  0.1052
  136OSM   C10F14746   2.220   6.019   5.009 -0.0279 -0.0376 -0.3024
  136OSM   H10F14747   2.115   5.989   5.004  0.1005 -0.4329 -0.6722
  136OSM   C11F14748   2.322   5.933   5.077 -0.0622  0.2500 -1.0480
  136OSM   H11F14749   2.422   5.942   5.029 -0.7193 -2.9192 -3.3785
  136OSM   H11G14750   2.302   5.830   5.040 -0.2671  0.6487 -2.0964
  136OSM   C12F14751   2.309   5.943   5.222 -0.1659  0.4004 -0.6698
  136OSM   H12F14752   2.348   6.041   5.257 -1.5072  1.0185 -0.8350
  136OSM   H12G14753   2.371   5.863   5.268 -1.1070 -0.2141 -0.4299
  136OSM   C13F14754   2.168   5.923   5.273  0.4942 -0.2877 -0.1053
  136OSM   H13F14755   2.116   5.839   5.222  0.4690 -0.4673  0.2165
  136OSM   H13G14756   2.113   6.018   5.253  2.1825  0.3815 -1.8683
  136OSM   C14F14757   2.161   5.888   5.429  0.3733 -1.3149  0.2737
  136OSM   H14F14758   2.213   5.969   5.484  0.9400 -1.6696  0.2765
  136OSM   H14G14759   2.194   5.783   5.446  0.9843 -0.8018  2.6099
  136OSM   C15F14760   2.019   5.888   5.487 -0.3232  0.2175  0.6070
  136OSM   H15F14761   1.951   5.816   5.436 -0.6817  1.4627 -0.7536
  136OSM   H15G14762   1.975   5.988   5.465  2.1046  1.2024 -0.0798
  136OSM   C16F14763   2.009   5.850   5.632 -0.4911  1.2220 -0.2977
  136OSM   H16F14764   2.089   5.905   5.686  0.3049 -1.4381  1.3994
  136OSM   H16G14765   2.032   5.744   5.652 -2.2839  0.8430 -0.0956
  136OSM   C17F14766   1.864   5.871   5.684 -0.2622 -0.4773 -0.1161
  136OSM   H17F14767   1.796   5.793   5.645  1.2644 -1.9946  0.1117
  136OSM   H17G14768   1.824   5.973   5.668  2.0526  0.6656  0.8040
  136OSM   C18F14769   1.861   5.867   5.838 -0.6207  0.9160  0.5588
  136OSM   H18F14770   1.895   5.966   5.876 -2.3855  1.9695 -0.4790
  136OSM   H18G14771   1.925   5.790   5.886 -1.0218  1.0247  1.2742
  136OSM   H18H14772   1.758   5.846   5.874 -0.2683 -1.3305  0.4284
  137OSM      N14773   6.746   5.103   3.042  0.2716  0.0320 -0.1823
  137OSM    C1514774   6.687   5.102   2.907  1.0452  0.0001  0.2618
  137OSM   H15A14775   6.609   5.175   2.889  0.8841 -0.4345 -0.9013
  137OSM   H15B14776   6.636   5.010   2.885 -0.4473  0.7898  0.2693
  137OSM   H15C14777   6.754   5.097   2.822 -0.7125  4.4826 -1.7102
  137OSM    C1414778   6.855   5.004   3.039 -0.3414 -0.3565 -0.1903
  137OSM   H14A14779   6.900   4.998   3.137 -0.6107 -4.6427 -0.1178
  137OSM   H14B14780   6.934   5.026   2.969 -0.9374 -0.8485 -1.0480
  137OSM   H14C14781   6.812   4.907   3.020  0.7375 -0.8422 -0.2459
  137OSM    C1314782   6.811   5.235   3.070 -0.1067  0.1763 -0.5390
  137OSM   H13A14783   6.870   5.274   2.988 -0.9064  0.0370 -1.1931
  137OSM   H13B14784   6.871   5.225   3.159  1.1850  0.2655 -1.3613
  137OSM   H13C14785   6.750   5.320   3.095  0.2644  0.3564 -0.2314
  137OSM    C1214786   6.633   5.061   3.139  0.1253  0.4502 -0.0133
  137OSM   H12A14787   6.593   4.965   3.109 -0.5611  1.5165 -2.7404
  137OSM   H12B14788   6.554   5.134   3.130 -2.8098 -2.5026 -0.1134
  137OSM    C1114789   6.657   5.047   3.295 -0.1291 -0.6843  0.7705
  137OSM   H11A14790   6.563   5.000   3.333 -1.0130  0.0962 -0.3938
  137OSM   H11B14791   6.672   5.151   3.333 -0.1342 -0.6259  0.6121
  137OSM      P14792   6.879   5.012   3.427 -0.1209  0.5575 -0.5833
  137OSM    O1314793   6.960   4.889   3.449  0.5693  0.0113 -0.1181
  137OSM    O1414794   6.946   5.136   3.391 -0.4329  0.5092  0.8017
  137OSM    O1114795   6.792   5.050   3.550  0.5664  0.2562 -0.5476
  137OSM    O1214796   6.772   4.968   3.320  0.8262  0.3720  0.0670
  137OSM    C1S14797   6.724   4.942   3.613  1.0363  1.0077  0.0924
  137OSM    H1S14798   6.794   4.862   3.643 -1.3475 -1.8405 -1.4816
  137OSM    H1T14799   6.654   4.889   3.545  1.2981 -0.9550  1.2983
  137OSM     NF14800   6.610   4.888   3.822  0.4030  0.1475  0.9337
  137OSM    HNF14801   6.512   4.868   3.824 -0.1141  2.5044  2.3787
  137OSM    C2S14802   6.647   4.997   3.738 -0.4490  0.3949 -0.3917
  137OSM    H2S14803   6.722   5.057   3.794 -1.7211  1.2028  0.4928
  137OSM    C3S14804   6.534   5.092   3.690  0.2558 -0.2843 -0.1915
  137OSM    H3S14805   6.463   5.030   3.631  0.8871  0.2297 -1.5331
  137OSM     O314806   6.576   5.189   3.593 -0.2212 -0.2795  0.3998
  137OSM    HO314807   6.662   5.164   3.559 -1.1194 -0.2811 -2.1086
  137OSM    C4S14808   6.469   5.153   3.814  0.2017  0.4142 -0.6308
  137OSM    H4S14809   6.388   5.098   3.863 -1.7367  2.9892 -0.7573
  137OSM    C5S14810   6.517   5.261   3.891 -0.3995  0.0614  0.5107
  137OSM    H5S14811   6.609   5.312   3.859 -0.3150  0.5917  1.5504
  137OSM    C6S14812   6.447   5.313   4.015  1.4235 -0.5925 -0.4973
  137OSM    H6S14813   6.345   5.272   4.027  1.6694 -1.4601 -1.2420
  137OSM    H6T14814   6.446   5.424   4.018  0.5195 -0.6079  0.1575
  137OSM    C7S14815   6.526   5.278   4.143 -0.7290  0.5414  1.2038
  137OSM    H7S14816   6.634   5.299   4.128 -0.8821  2.5854  2.4939
  137OSM    H7T14817   6.519   5.168   4.150 -0.7411  0.6090  2.4869
  137OSM    C8S14818   6.470   5.345   4.267 -0.1287 -0.1387  0.5682
  137OSM    H8S14819   6.366   5.316   4.294 -0.1329  0.5421  1.3095
  137OSM    H8T14820   6.463   5.452   4.240 -0.9220 -0.4653 -0.6067
  137OSM    C9S14821   6.542   5.321   4.397 -0.4591  0.5866  0.0405
  137OSM    H9S14822   6.644   5.367   4.399  0.5078 -1.3559  3.2908
  137OSM    H9T14823   6.550   5.211   4.412 -1.6652  0.4640 -0.1646
  137OSM   C10S14824   6.472   5.379   4.522 -0.8311 -0.2985 -0.1546
  137OSM   H10S14825   6.363   5.396   4.517 -0.5732  1.5678 -0.2977
  137OSM   H10T14826   6.520   5.478   4.541 -1.3429 -0.5300  2.7312
  137OSM   C11S14827   6.514   5.304   4.650  0.4736  0.1751 -0.8097
  137OSM   H11S14828   6.625   5.296   4.642  0.6278  0.4044  0.7400
  137OSM   H11T14829   6.475   5.201   4.650  0.1109  0.2951  0.4885
  137OSM   C12S14830   6.464   5.373   4.779  0.1439 -0.6917  0.0041
  137OSM   H12S14831   6.368   5.427   4.760 -0.0170 -0.5920  1.0682
  137OSM   H12T14832   6.538   5.450   4.808 -0.1473 -0.7576  0.9328
  137OSM   C13S14833   6.437   5.276   4.895 -0.0123  0.0074  0.1061
  137OSM   H13S14834   6.527   5.216   4.919 -1.1334 -1.6875  0.2358
  137OSM   H13T14835   6.350   5.211   4.872 -0.0845  0.4348 -0.8476
  137OSM   C14S14836   6.404   5.357   5.027  0.1271 -0.3225 -0.3535
  137OSM   H14S14837   6.301   5.398   5.031 -0.2638 -1.3555  1.3428
  137OSM   H14T14838   6.485   5.432   5.039 -0.3412  0.4749 -1.9007
  137OSM   C15S14839   6.426   5.264   5.154 -0.3227 -0.3592  0.4484
  137OSM   H15S14840   6.518   5.204   5.134  0.1770  0.5753 -0.1211
  137OSM   H15T14841   6.336   5.202   5.133  0.1401  0.2324 -4.7718
  137OSM   C16S14842   6.441   5.348   5.273 -0.1671 -0.3125  0.1899
  137OSM   H16S14843   6.354   5.406   5.309  1.0718  2.7476 -1.4101
  137OSM   H16T14844   6.521   5.423   5.258  0.1405  0.3394  4.1411
  137OSM   C17S14845   6.495   5.252   5.386 -0.9984 -0.7341 -0.3668
  137OSM   H17S14846   6.515   5.300   5.484 -1.6953  2.0769 -1.5032
  137OSM   H17T14847   6.595   5.213   5.355 -1.1589  0.1780 -2.1571
  137OSM   C18S14848   6.398   5.135   5.421  0.6614  0.7200  0.3122
  137OSM   H18S14849   6.444   5.072   5.500  0.8751  1.3219  0.6753
  137OSM   H18T14850   6.385   5.068   5.333 -1.5041  1.4234  0.0404
  137OSM   H18U14851   6.303   5.183   5.452  2.4713  3.5705  1.8218
  137OSM    C1F14852   6.691   4.807   3.884  0.6505 -0.1274 -0.8493
  137OSM     OF14853   6.808   4.839   3.901 -0.3777  0.4105  0.2311
  137OSM    C2F14854   6.633   4.679   3.937 -0.0534 -0.0317 -0.8625
  137OSM    H2F14855   6.587   4.627   3.850  0.1797 -2.3260  0.3374
  137OSM    H2G14856   6.548   4.700   4.005 -0.6871 -0.2134 -1.5866
  137OSM    C3F14857   6.718   4.576   4.010  0.3910 -0.4256  1.0512
  137OSM    H3F14858   6.805   4.550   3.946  1.5395  3.2951  0.8814
  137OSM    H3G14859   6.659   4.482   4.006 -0.8011  0.3222 -0.0152
  137OSM    C4F14860   6.752   4.598   4.157  0.1122  0.0238 -0.5398
  137OSM    H4F14861   6.812   4.691   4.166  2.4934 -1.3216 -1.7247
  137OSM    H4G14862   6.822   4.517   4.185 -0.7196 -0.9984 -1.3426
  137OSM    C5F14863   6.630   4.596   4.241  0.1244 -0.0388 -0.7302
  137OSM    H5F14864   6.580   4.497   4.232 -4.4713  1.8758  0.5072
  137OSM    H5G14865   6.548   4.670   4.229  0.2232  0.8343  2.7351
  137OSM    C6F14866   6.670   4.599   4.392  0.0203 -0.0222  0.4551
  137OSM    H6F14867   6.690   4.706   4.412 -0.7102 -0.0955  1.6720
  137OSM    H6G14868   6.751   4.527   4.418 -0.9603 -1.0720  0.6908
  137OSM    C7F14869   6.561   4.551   4.486  0.3019 -0.5964  0.2138
  137OSM    H7F14870   6.529   4.446   4.467  1.0081 -1.0553  1.4683
  137OSM    H7G14871   6.478   4.625   4.487  0.8352  0.0386 -0.6356
  137OSM    C8F14872   6.615   4.567   4.630 -0.5975 -0.1865  0.1971
  137OSM    H8F14873   6.620   4.677   4.642  0.4239 -0.0620 -1.1000
  137OSM    H8G14874   6.718   4.529   4.648 -0.5564  0.0988  0.5698
  137OSM    C9F14875   6.526   4.508   4.734 -0.4556 -0.3207 -0.1235
  137OSM    H9F14876   6.513   4.399   4.730  0.7782 -0.7807  3.6464
  137OSM   C10F14877   6.495   4.565   4.851 -0.1817 -0.3409  0.2405
  137OSM   H10F14878   6.413   4.521   4.910 -1.0455  0.3921 -0.3964
  137OSM   C11F14879   6.539   4.704   4.896  0.0741 -0.8021  0.0742
  137OSM   H11F14880   6.455   4.748   4.954  0.4281 -1.7190  1.3312
  137OSM   H11G14881   6.561   4.770   4.810  0.7517  1.1471  1.6662
  137OSM   C12F14882   6.665   4.708   4.985 -0.1819 -0.0034 -0.2093
  137OSM   H12F14883   6.700   4.802   5.031 -1.2297 -0.4896  1.6719
  137OSM   H12G14884   6.756   4.680   4.926  1.1734  0.3466  1.6257
  137OSM   C13F14885   6.653   4.616   5.107  0.0131  0.2530  0.7242
  137OSM   H13F14886   6.758   4.596   5.139 -0.0053 -0.1801  0.5267
  137OSM   H13G14887   6.610   4.517   5.081  0.8010  0.3755 -1.1749
  137OSM   C14F14888   6.590   4.682   5.231  0.1287 -0.9416  0.1391
  137OSM   H14F14889   6.596   4.609   5.314  1.3511 -0.3731  0.5742
  137OSM   H14G14890   6.481   4.699   5.217  0.0030  0.2897  2.2161
  137OSM   C15F14891   6.653   4.817   5.281  0.1168  0.4284 -0.2734
  137OSM   H15F14892   6.624   4.901   5.215  0.3473  0.6229 -0.1246
  137OSM   H15G14893   6.764   4.820   5.280  0.1378 -0.1204 -1.7005
  137OSM   C16F14894   6.610   4.839   5.426 -0.9931  0.4501  0.5968
  137OSM   H16F14895   6.503   4.812   5.436 -1.9724  2.2003 -3.3010
  137OSM   H16G14896   6.624   4.947   5.449  1.4313 -0.0998  2.1950
  137OSM   C17F14897   6.695   4.772   5.531 -0.0255  0.2883 -0.7297
  137OSM   H17F14898   6.791   4.826   5.539 -0.0591  0.0807  1.5377
  137OSM   H17G14899   6.715   4.664   5.510  1.1602  0.3852 -0.1515
  137OSM   C18F14900   6.627   4.770   5.676  0.4797 -0.1451  0.1030
  137OSM   H18F14901   6.688   4.725   5.757  0.8995  1.5545  0.7763
  137OSM   H18G14902   6.539   4.702   5.679  2.5101 -2.8903  1.5863
  137OSM   H18H14903   6.589   4.870   5.707  0.4097  0.3070 -1.3725
  138OSM      N14904   5.189   0.252   2.685  0.1002 -0.4994  0.3066
  138OSM    C1514905   5.080   0.149   2.693  0.1041  0.7404  1.1856
  138OSM   H15A14906   5.006   0.155   2.772 -2.0234 -0.5473 -0.5901
  138OSM   H15B14907   5.115   0.047   2.692 -3.1416 -0.4986  1.0485
  138OSM   H15C14908   5.013   0.159   2.609 -0.9631  3.5551  2.2605
  138OSM    C1414909   5.287   0.208   2.578 -0.2267  0.1029  0.8133
  138OSM   H14A14910   5.355   0.289   2.557  0.6303 -0.5580  0.9924
  138OSM   H14B14911   5.233   0.191   2.486  0.4484  0.6324  0.3095
  138OSM   H14C14912   5.328   0.112   2.606  1.1719  0.1865 -0.7620
  138OSM    C1314913   5.125   0.381   2.646 -0.4149 -0.5074 -0.5432
  138OSM   H13A14914   5.186   0.467   2.671 -2.1768  0.3365  1.1378
  138OSM   H13B14915   5.034   0.397   2.703  0.7464  1.8613  0.8101
  138OSM   H13C14916   5.114   0.382   2.539  0.8640  0.4572 -0.6981
  138OSM    C1214917   5.267   0.266   2.814 -0.4741 -0.0527 -0.0362
  138OSM   H12A14918   5.367   0.308   2.809  0.7214 -2.6536  0.2059
  138OSM   H12B14919   5.303   0.169   2.845  0.5757  0.5523  0.7226
  138OSM    C1114920   5.197   0.327   2.942  0.1039 -0.2421  0.0740
  138OSM   H11A14921   5.160   0.429   2.915  2.4174  0.1661 -1.9131
  138OSM   H11B14922   5.275   0.338   3.020 -0.8999  2.4177  0.8136
  138OSM      P14923   5.108   0.111   3.073 -0.2486  0.0288  0.3796
  138OSM    O1314924   4.972   0.062   3.102  0.2600  0.1036 -0.1550
  138OSM    O1414925   5.194   0.021   2.987 -0.3440 -0.5566 -0.0046
  138OSM    O1114926   5.186   0.140   3.208 -0.7775  0.2831 -0.1118
  138OSM    O1214927   5.083   0.248   2.995  0.1489  0.1386  0.0992
  138OSM    C1S14928   5.162   0.273   3.271  0.6626 -0.2589 -0.2446
  138OSM    H1S14929   5.098   0.338   3.208 -1.4167 -1.1443  0.8776
  138OSM    H1T14930   5.258   0.329   3.282  0.8611 -0.4080 -1.1283
  138OSM     NF14931   5.060   0.394   3.465  0.0226  0.1719  0.2454
  138OSM    HNF14932   5.128   0.452   3.510  0.3423  0.9742 -1.1756
  138OSM    C2S14933   5.104   0.264   3.416 -0.4062 -0.1889 -0.5478
  138OSM    H2S14934   5.009   0.206   3.413 -0.4620 -0.1697  0.5746
  138OSM    C3S14935   5.214   0.199   3.507  0.3530 -0.4328  0.4946
  138OSM    H3S14936   5.303   0.262   3.526  1.2490 -1.5062 -0.0636
  138OSM     O314937   5.285   0.087   3.446  0.4120  0.3578  0.2309
  138OSM    HO314938   5.247   0.095   3.358  0.4103  0.2731  0.2245
  138OSM    C4S14939   5.142   0.165   3.636 -0.4201  0.2545  0.0923
  138OSM    H4S14940   5.103   0.063   3.627  2.7492 -1.1041  0.3076
  138OSM    C5S14941   5.141   0.241   3.744 -0.5766 -0.6676 -0.2619
  138OSM    H5S14942   5.189   0.339   3.755 -2.0026  0.1958 -1.2898
  138OSM    C6S14943   5.068   0.200   3.869  0.4989 -0.3496  0.5064
  138OSM    H6S14944   4.997   0.285   3.876  0.2235 -0.7087  2.7929
  138OSM    H6T14945   5.137   0.204   3.956  2.2149 -2.2804 -0.6865
  138OSM    C7S14946   4.978   0.076   3.882  0.1988 -0.5249 -0.1945
  138OSM    H7S14947   5.059   0.000   3.871  2.1240  1.1596  1.3673
  138OSM    H7T14948   4.902   0.057   3.803 -0.8223 -0.6479  0.7991
  138OSM    C8S14949   4.901   0.074   4.018 -0.1960 -0.0703  0.4973
  138OSM    H8S14950   4.849  -0.024   4.023  0.7583 -0.5341  1.9180
  138OSM    H8T14951   4.818   0.147   4.019  0.4326  0.6740 -0.2669
  138OSM    C9S14952   4.987   0.079   4.150 -0.4852  0.1802  0.3050
  138OSM    H9S14953   5.033   0.179   4.162 -1.0319  0.6475 -1.2128
  138OSM    H9T14954   5.072   0.012   4.127 -1.7386 -0.4400 -3.1738
  138OSM   C10S14955   4.906   0.044   4.269 -0.2229 -0.1693  0.1158
  138OSM   H10S14956   4.876  -0.061   4.251  0.8802 -0.4561 -0.1498
  138OSM   H10T14957   4.812   0.102   4.270 -0.0071  0.2359 -1.0829
  138OSM   C11S14958   4.967   0.062   4.407 -0.4409 -0.5428 -0.7752
  138OSM   H11S14959   4.982   0.166   4.442 -3.0952 -0.7769  1.4140
  138OSM   H11T14960   5.063   0.007   4.422 -0.6724 -0.8153 -0.2520
  138OSM   C12S14961   4.871  -0.000   4.518 -0.3219 -0.0009 -0.5854
  138OSM   H12S14962   4.851  -0.104   4.484 -0.4440  0.1824 -1.0909
  138OSM   H12T14963   4.775   0.055   4.513 -0.3615  0.1339  1.1564
  138OSM   C13S14964   4.933   0.000   4.659  0.2129 -0.0462 -0.1221
  138OSM   H13S14965   5.000   0.088   4.658 -0.8200  0.7641 -0.3401
  138OSM   H13T14966   4.985  -0.097   4.675  0.5493  0.4881  2.5387
  138OSM   C14S14967   4.844   0.015   4.780  0.4078 -0.7475 -0.7705
  138OSM   H14S14968   4.790  -0.081   4.794 -0.8291  0.1477  0.9934
  138OSM   H14T14969   4.774   0.096   4.751 -0.1605 -1.2895 -0.9195
  138OSM   C15S14970   4.926   0.041   4.914  0.1228  0.0310 -0.2678
  138OSM   H15S14971   5.000   0.122   4.900  0.5952 -0.2421  0.6238
  138OSM   H15T14972   4.986  -0.049   4.939 -1.4572 -1.4706 -1.6254
  138OSM   C16S14973   4.844   0.085   5.031 -0.0349  0.7640  0.1985
  138OSM   H16S14974   4.786  -0.001   5.069 -1.5140  1.1374 -1.1211
  138OSM   H16T14975   4.776   0.165   4.995 -1.3104 -0.7916 -1.0257
  138OSM   C17S14976   4.940   0.153   5.132  0.0398 -0.5787 -0.1270
  138OSM   H17S14977   5.006   0.224   5.079  0.6052 -0.5023  0.6657
  138OSM   H17T14978   4.999   0.071   5.178  1.2212  0.0451 -0.4895
  138OSM   C18S14979   4.852   0.225   5.242 -0.1859  0.2655  0.4597
  138OSM   H18S14980   4.919   0.268   5.319  2.5066 -1.1301 -0.9507
  138OSM   H18T14981   4.793   0.147   5.295 -0.1811  0.5579  0.8981
  138OSM   H18U14982   4.785   0.299   5.194 -1.1697 -1.2925 -0.6767
  138OSM    C1F14983   4.946   0.459   3.434  0.4037  0.6890  0.0398
  138OSM     OF14984   4.870   0.406   3.353  0.4974  0.1069 -0.7812
  138OSM    C2F14985   4.913   0.599   3.490 -0.3897  0.7060  0.4088
  138OSM    H2F14986   4.886   0.670   3.410 -2.3070  3.8544  3.5584
  138OSM    H2G14987   5.008   0.638   3.533  0.1409  0.2536 -0.3349
  138OSM    C3F14988   4.798   0.614   3.587  0.2940 -0.1065 -0.4445
  138OSM    H3F14989   4.706   0.587   3.531 -0.1125  2.1104 -0.9231
  138OSM    H3G14990   4.794   0.721   3.617  2.8020  0.4758 -1.9456
  138OSM    C4F14991   4.821   0.524   3.708 -0.5858 -0.1898 -0.1908
  138OSM    H4F14992   4.912   0.552   3.765 -2.0994 -1.5986  3.1747
  138OSM    H4G14993   4.819   0.418   3.675  2.0649 -0.6878  1.0305
  138OSM    C5F14994   4.702   0.521   3.811  0.5662  0.3193 -0.0304
  138OSM    H5F14995   4.606   0.491   3.764 -0.5007  0.5933  1.8558
  138OSM    H5G14996   4.679   0.627   3.832  0.3742 -0.0493  1.8326
  138OSM    C6F14997   4.730   0.442   3.933  0.3161 -0.4320 -0.8290
  138OSM    H6F14998   4.794   0.507   3.996 -0.5032 -1.0619  0.7291
  138OSM    H6G14999   4.780   0.346   3.909  1.8585  0.6034 -1.8775
  138OSM    C7F15000   4.597   0.416   4.013  0.0011  0.2759 -0.0600
  138OSM    H7F15001   4.551   0.321   3.979  1.5378 -0.4136 -0.2855
  138OSM    H7G15002   4.519   0.487   3.978  0.3281  0.2846 -0.7693
  138OSM    C8F15003   4.625   0.423   4.163 -0.2639  0.0315  0.3822
  138OSM    H8F15004   4.682   0.515   4.185  0.6604 -0.4828  0.1979
  138OSM    H8G15005   4.688   0.338   4.195 -0.5986 -1.6415 -2.8846
  138OSM    C9F15006   4.489   0.403   4.238 -0.1642 -0.7869 -0.0340
  138OSM    H9F15007   4.395   0.418   4.182  0.2303  0.0936 -0.4931
  138OSM   C10F15008   4.476   0.345   4.356  0.4852 -0.4109 -0.8333
  138OSM   H10F15009   4.375   0.351   4.400  0.4030  0.6652 -1.1218
  138OSM   C11F15010   4.596   0.320   4.451  0.2605 -0.0308 -0.0232
  138OSM   H11F15011   4.683   0.374   4.409 -1.0011 -0.8463 -4.1501
  138OSM   H11G15012   4.619   0.211   4.455 -1.3046 -0.3533  1.2939
  138OSM   C12F15013   4.572   0.370   4.592 -0.0523 -0.3060  0.8585
  138OSM   H12F15014   4.554   0.480   4.590  1.0727 -0.0882 -1.2967
  138OSM   H12G15015   4.673   0.355   4.637  0.0086 -1.4221  0.3889
  138OSM   C13F15016   4.477   0.294   4.675 -0.8875  0.2140 -0.4261
  138OSM   H13F15017   4.503   0.187   4.659  1.1846  1.1417 -4.4999
  138OSM   H13G15018   4.375   0.311   4.634 -1.4046  2.1102  1.4673
  138OSM   C14F15019   4.475   0.318   4.831 -0.3869 -0.1771  0.3591
  138OSM   H14F15020   4.422   0.413   4.854 -2.2928 -1.0184 -0.3538
  138OSM   H14G15021   4.584   0.327   4.853 -0.4768  0.2372  0.6570
  138OSM   C15F15022   4.415   0.201   4.915  0.7694 -0.4839 -1.1202
  138OSM   H15F15023   4.443   0.102   4.874 -2.3867 -1.5450 -1.0030
  138OSM   H15G15024   4.306   0.219   4.929  0.7955 -1.5765  0.9708
  138OSM   C16F15025   4.473   0.210   5.061 -0.4413 -0.8528 -0.2120
  138OSM   H16F15026   4.584   0.221   5.059 -0.3511 -1.5168 -2.6803
  138OSM   H16G15027   4.444   0.119   5.118 -3.3942  1.0144  1.5157
  138OSM   C17F15028   4.421   0.327   5.140 -0.1525 -0.2017  0.2199
  138OSM   H17F15029   4.311   0.319   5.146 -0.2157 -0.6183 -1.0508
  138OSM   H17G15030   4.440   0.419   5.079  0.3390  0.0209  0.7024
  138OSM   C18F15031   4.478   0.347   5.279  0.1424  0.7812  0.1213
  138OSM   H18F15032   4.514   0.245   5.306 -0.4914  0.3268 -0.6944
  138OSM   H18G15033   4.400   0.376   5.353 -0.1665 -0.7629  0.4419
  138OSM   H18H15034   4.570   0.409   5.274  0.9674 -0.4066  0.2057
  139OSM      N15035   0.597   6.136   3.314  0.2098 -0.3149 -0.2536
  139OSM    C1515036   0.485   6.143   3.206 -0.3528 -0.0002 -0.2846
  139OSM   H15A15037   0.522   6.102   3.113 -0.4416 -0.6523 -0.0325
  139OSM   H15B15038   0.446   6.243   3.193  0.4622  0.1252 -2.1583
  139OSM   H15C15039   0.401   6.083   3.237  1.4825 -1.3337  2.4577
  139OSM    C1415040   0.544   6.198   3.440  0.3711  0.1082 -0.7490
  139OSM   H14A15041   0.503   6.298   3.425 -1.4378 -0.2118  1.4005
  139OSM   H14B15042   0.616   6.203   3.520 -0.6627 -1.0090  0.2955
  139OSM   H14C15043   0.469   6.126   3.468  0.8169 -0.7178 -1.6234
  139OSM    C1315044   0.632   5.993   3.344 -0.3958  0.8148 -0.0782
  139OSM   H13A15045   0.652   5.933   3.257  1.5204 -0.2073  1.0008
  139OSM   H13B15046   0.558   5.932   3.393  0.8709  1.4913  2.9047
  139OSM   H13C15047   0.719   5.991   3.407 -1.7055 -2.7813  1.8943
  139OSM    C1215048   0.722   6.202   3.275 -0.3577 -0.3128 -0.0735
  139OSM   H12A15049   0.707   6.305   3.246  1.4403  0.1285  0.4396
  139OSM   H12B15050   0.753   6.165   3.178  1.3213 -2.6061  1.2515
  139OSM    C1115051   0.852   6.184   3.363  0.0041  0.3064  0.0020
  139OSM   H11A15052   0.824   6.203   3.469 -0.2530 -1.6044  0.3065
  139OSM   H11B15053   0.914   6.272   3.335  0.4305  0.1567  0.4608
  139OSM      P15054   1.007   5.986   3.448  0.4856  0.1302 -0.2250
  139OSM    O1315055   1.006   5.839   3.414 -0.0105  0.1044  0.0939
  139OSM    O1415056   1.135   6.055   3.450  0.1897 -0.7848  0.5591
  139OSM    O1115057   0.920   6.015   3.574  0.1527  0.2890  0.2595
  139OSM    O1215058   0.917   6.057   3.342 -0.3287 -0.2740  0.3700
  139OSM    C1S15059   0.980   6.045   3.696 -0.8655 -0.1398 -0.2479
  139OSM    H1S15060   1.010   6.152   3.697  4.0335 -1.1711 -2.6704
  139OSM    H1T15061   1.071   5.989   3.726 -0.7015  1.0846  1.7220
  139OSM     NF15062   0.929   6.078   3.934 -0.4564 -0.1970  0.4197
  139OSM    HNF15063   0.972   6.005   3.987  0.6607  0.9855  1.1863
  139OSM    C2S15064   0.882   6.026   3.807  0.2487 -0.7374  0.3825
  139OSM    H2S15065   0.799   6.094   3.779  1.6244  0.3748 -1.2675
  139OSM    C3S15066   0.825   5.881   3.805  0.6406  0.0356 -0.3199
  139OSM    H3S15067   0.905   5.804   3.813  1.4033  0.9023  0.5688
  139OSM     O315068   0.760   5.845   3.680 -0.0127 -0.0052 -0.2413
  139OSM    HO315069   0.817   5.895   3.621  0.7487 -1.4878 -0.7939
  139OSM    C4S15070   0.735   5.850   3.920 -0.1911 -0.4442 -0.3735
  139OSM    H4S15071   0.794   5.792   3.992  3.5809  1.7633 -1.3944
  139OSM    C5S15072   0.613   5.907   3.951 -0.0720  0.1566  0.2885
  139OSM    H5S15073   0.566   5.979   3.883  1.7207  1.2980  0.1849
  139OSM    C6S15074   0.546   5.895   4.082  0.5781 -0.5446 -0.5441
  139OSM    H6S15075   0.454   5.833   4.079  0.0324  0.2715 -1.5812
  139OSM    H6T15076   0.529   5.991   4.136 -0.3044 -2.4158  2.8285
  139OSM    C7S15077   0.626   5.808   4.188  0.4242  0.0143  0.4334
  139OSM    H7S15078   0.727   5.846   4.214  2.6619 -4.9648  0.0184
  139OSM    H7T15079   0.644   5.709   4.142  1.4230  0.3620  0.0494
  139OSM    C8S15080   0.547   5.783   4.323  0.2630 -0.1860 -0.4949
  139OSM    H8S15081   0.604   5.701   4.371 -0.3375  1.7614  4.0705
  139OSM    H8T15082   0.439   5.762   4.313  0.1155  0.5714 -0.5667
  139OSM    C9S15083   0.574   5.900   4.423 -0.3795 -0.0279 -0.2548
  139OSM    H9S15084   0.516   5.991   4.398  2.5254  2.1497  0.4648
  139OSM    H9T15085   0.682   5.926   4.425 -0.8933  2.2372  1.7367
  139OSM   C10S15086   0.520   5.850   4.560 -0.5224  0.0126 -0.2614
  139OSM   H10S15087   0.519   5.740   4.573  0.9629 -0.2695 -2.1930
  139OSM   H10T15088   0.418   5.893   4.571 -0.0160  1.7637 -1.7972
  139OSM   C11S15089   0.591   5.908   4.682  0.7520  0.0821  0.1227
  139OSM   H11S15090   0.627   6.007   4.649 -1.3665 -0.0466 -3.0259
  139OSM   H11T15091   0.672   5.844   4.724  0.4458  0.7280  1.7671
  139OSM   C12S15092   0.496   5.937   4.799 -0.6441  0.1318  0.7963
  139OSM   H12S15093   0.459   5.838   4.833 -1.8107 -0.8437 -2.7841
  139OSM   H12T15094   0.413   6.000   4.760  1.1647  1.7918 -0.5099
  139OSM   C13S15095   0.561   6.036   4.900  0.3942 -0.6636  0.2210
  139OSM   H13S15096   0.474   6.060   4.966  0.3748  0.6037 -0.2359
  139OSM   H13T15097   0.586   6.125   4.838 -0.7692  1.1259  2.1676
  139OSM   C14S15098   0.677   5.990   4.991  0.7678 -0.8093 -0.2049
  139OSM   H14S15099   0.695   6.082   5.050 -0.7738 -0.8522  0.3855
  139OSM   H14T15100   0.769   5.974   4.931 -0.7481 -0.3921 -2.8017
  139OSM   C15S15101   0.646   5.871   5.081 -0.0115 -0.2792 -0.4588
  139OSM   H15S15102   0.741   5.818   5.101  1.1074  1.6701 -0.3320
  139OSM   H15T15103   0.583   5.803   5.020  1.1020 -0.7100 -1.1406
  139OSM   C16S15104   0.562   5.904   5.199  0.3303  0.2036 -0.1467
  139OSM   H16S15105   0.517   5.808   5.233  1.0675 -0.4959 -1.0877
  139OSM   H16T15106   0.478   5.972   5.176 -1.0809 -1.3397  0.2293
  139OSM   C17S15107   0.639   5.960   5.309  0.0724 -0.4733 -0.5384
  139OSM   H17S15108   0.648   6.066   5.275 -0.8048 -0.4559 -0.7208
  139OSM   H17T15109   0.736   5.910   5.330  0.4893  1.0392  1.4467
  139OSM   C18S15110   0.566   5.956   5.442 -0.7788  0.5586  0.0594
  139OSM   H18S15111   0.628   6.008   5.518 -1.1366 -0.7637  1.2840
  139OSM   H18T15112   0.551   5.850   5.469  0.2511 -0.6751 -3.6256
  139OSM   H18U15113   0.469   6.011   5.439 -0.5391  0.9554 -1.3172
  139OSM    C1F15114   0.949   6.200   3.977  0.1114 -0.0272  0.4291
  139OSM     OF15115   0.927   6.302   3.914 -0.5994 -0.8927 -0.3115
  139OSM    C2F15116   0.995   6.216   4.118  0.3162  0.4769  0.6062
  139OSM    H2F15117   1.013   6.322   4.147 -0.4747  1.6808 -2.8407
  139OSM    H2G15118   1.094   6.166   4.127  0.6651  1.3005  1.5312
  139OSM    C3F15119   0.902   6.153   4.222  1.0700 -0.0453  0.3121
  139OSM    H3F15120   0.897   6.043   4.208  0.4424 -0.0203  0.3341
  139OSM    H3G15121   0.797   6.188   4.213  0.8896 -0.2882  1.3701
  139OSM    C4F15122   0.949   6.189   4.365 -0.5401  0.2054  0.2991
  139OSM    H4F15123   0.976   6.296   4.377  1.5714 -0.1762 -0.6213
  139OSM    H4G15124   1.042   6.130   4.378 -1.2100 -0.8138  0.5995
  139OSM    C5F15125   0.860   6.127   4.477 -0.2652  0.0140  0.0788
  139OSM    H5F15126   0.862   6.016   4.477  0.5505  0.0221  0.4306
  139OSM    H5G15127   0.756   6.157   4.452 -0.6752 -1.2084  0.2415
  139OSM    C6F15128   0.906   6.170   4.618  0.1952 -0.0922 -0.5515
  139OSM    H6F15129   0.820   6.160   4.687  0.7123  1.7863  0.4108
  139OSM    H6G15130   0.917   6.280   4.614 -2.2933  0.2176 -0.6991
  139OSM    C7F15131   1.017   6.077   4.674 -0.5943  0.8522  0.5377
  139OSM    H7F15132   1.110   6.106   4.621 -0.4391  1.8958  1.3515
  139OSM    H7G15133   1.001   5.968   4.655  1.3181  0.2408  2.0722
  139OSM    C8F15134   1.047   6.098   4.829  0.5411 -0.4759  1.2199
  139OSM    H8F15135   0.953   6.074   4.882 -1.2638  2.2441 -0.4627
  139OSM    H8G15136   1.059   6.208   4.829 -1.3941 -0.1112 -2.1361
  139OSM    C9F15137   1.156   6.022   4.895 -0.1636  0.4205  0.3466
  139OSM    H9F15138   1.194   5.937   4.836 -0.2487  1.3166 -1.0303
  139OSM   C10F15139   1.217   6.062   5.009 -0.1102 -0.2442 -0.0449
  139OSM   H10F15140   1.280   5.981   5.050 -0.7908 -2.0548 -2.3329
  139OSM   C11F15141   1.178   6.181   5.097 -0.1260  0.5374  0.7288
  139OSM   H11F15142   1.111   6.249   5.040  1.0531  0.8632 -0.2884
  139OSM   H11G15143   1.270   6.231   5.132  0.3336  0.2273 -0.0170
  139OSM   C12F15144   1.104   6.133   5.218  0.2259 -0.3477 -0.1858
  139OSM   H12F15145   1.025   6.057   5.201 -2.2544  1.9675  0.2649
  139OSM   H12G15146   1.046   6.219   5.257  0.3926 -0.4340  0.2612
  139OSM   C13F15147   1.204   6.089   5.330  0.0764  0.1895  0.4188
  139OSM   H13F15148   1.289   6.159   5.336  0.9399 -0.5817 -1.8058
  139OSM   H13G15149   1.252   5.995   5.296 -0.7413 -0.7468  1.7589
  139OSM   C14F15150   1.143   6.058   5.465 -0.0208  0.5870  0.1058
  139OSM   H14F15151   1.096   6.151   5.504 -1.1105  0.2095 -0.2575
  139OSM   H14G15152   1.226   6.034   5.534  0.3965  0.9158 -0.2762
  139OSM   C15F15153   1.038   5.948   5.463 -0.2735  0.2081  0.5886
  139OSM   H15F15154   1.080   5.849   5.434  0.8514  1.3394 -1.8342
  139OSM   H15G15155   0.954   5.967   5.393  0.9867  0.2147 -0.9860
  139OSM   C16F15156   0.972   5.937   5.600  0.6444 -0.2315  0.0468
  139OSM   H16F15157   0.886   5.867   5.606  0.5937 -0.1395  0.4413
  139OSM   H16G15158   0.936   6.040   5.625  2.1527  0.2369  0.3972
  139OSM   C17F15159   1.064   5.880   5.712 -0.6560  0.1277  0.1736
  139OSM   H17F15160   1.157   5.941   5.707 -1.3053  1.3422  1.8145
  139OSM   H17G15161   1.092   5.778   5.680  0.4953  0.1178  1.1628
  139OSM   C18F15162   0.996   5.875   5.850 -0.3095  0.2990 -0.1843
  139OSM   H18F15163   1.069   5.831   5.922  1.1703 -0.3779 -1.9990
  139OSM   H18G15164   0.904   5.813   5.846 -0.2652  0.2443 -0.3436
  139OSM   H18H15165   0.981   5.981   5.880  2.3391  2.1502 -4.4910
  140OSM      N15166   4.038   1.529   3.050  0.3315  0.0987  1.1891
  140OSM    C1515167   4.057   1.435   3.166  0.9435  0.4966 -0.8053
  140OSM   H15A15168   4.058   1.487   3.260  1.5604 -1.8453  0.5536
  140OSM   H15B15169   4.136   1.363   3.153 -0.3503 -0.9480 -0.9354
  140OSM   H15C15170   3.970   1.371   3.171  1.3519 -0.0849 -0.9794
  140OSM    C1415171   4.167   1.604   3.047  0.4335  0.2600  0.9991
  140OSM   H14A15172   4.186   1.664   3.135 -0.6240 -0.5814  1.8392
  140OSM   H14B15173   4.160   1.672   2.964  2.7299 -1.1146 -0.4138
  140OSM   H14C15174   4.247   1.533   3.034  0.6479  0.3992  1.5335
  140OSM    C1315175   4.023   1.453   2.917 -0.0753  0.6262 -0.2193
  140OSM   H13A15176   4.045   1.517   2.832  0.6038  0.3844 -0.2305
  140OSM   H13B15177   3.928   1.402   2.919  0.5999 -0.7307 -1.0179
  140OSM   H13C15178   4.098   1.376   2.911 -0.6841 -0.0281  0.5315
  140OSM    C1215179   3.918   1.616   3.065 -0.6929  0.0084  0.1488
  140OSM   H12A15180   3.926   1.689   2.985  3.6330 -3.7357 -3.3627
  140OSM   H12B15181   3.940   1.676   3.152  1.5647 -1.5424  0.7251
  140OSM    C1115182   3.774   1.563   3.067 -0.4859 -0.1056  0.0034
  140OSM   H11A15183   3.772   1.475   3.000 -0.9255  0.9283 -1.3777
  140OSM   H11B15184   3.710   1.646   3.030  0.8332  0.4199 -1.1749
  140OSM      P15185   3.608   1.482   3.258 -0.2880  0.0566 -0.0900
  140OSM    O1315186   3.583   1.551   3.389  0.1293 -0.3780  0.1288
  140OSM    O1415187   3.503   1.488   3.154 -0.3292  0.1762  0.2048
  140OSM    O1115188   3.630   1.332   3.297  0.4755  0.2604 -0.1283
  140OSM    O1215189   3.743   1.535   3.204 -0.0154  0.7226 -0.6204
  140OSM    C1S15190   3.721   1.294   3.395  0.3018 -0.3941 -0.5316
  140OSM    H1S15191   3.808   1.363   3.401 -0.5235  0.6832 -0.5065
  140OSM    H1T15192   3.758   1.196   3.360 -0.2774 -0.6049 -0.5727
  140OSM     NF15193   3.779   1.248   3.638 -0.1569 -0.3494  0.0028
  140OSM    HNF15194   3.784   1.164   3.691  3.6292 -0.0178  0.4639
  140OSM    C2S15195   3.667   1.270   3.540 -0.4351 -0.3511  0.7171
  140OSM    H2S15196   3.609   1.354   3.582 -4.1159 -2.4937  0.4419
  140OSM    C3S15197   3.552   1.165   3.515 -0.0091  0.5319 -0.1687
  140OSM    H3S15198   3.610   1.079   3.475 -0.3951  0.7465 -1.2397
  140OSM     O315199   3.438   1.207   3.442 -0.3200 -0.6854  0.2228
  140OSM    HO315200   3.476   1.272   3.384 -0.8800 -0.1583  0.4279
  140OSM    C4S15201   3.495   1.125   3.648  0.3152 -0.5626 -0.4143
  140OSM    H4S15202   3.540   1.030   3.683  1.9190  0.5026  0.5430
  140OSM    C5S15203   3.405   1.198   3.721 -0.3543  0.3475  0.1331
  140OSM    H5S15204   3.378   1.299   3.685  0.3193 -0.6899 -3.6161
  140OSM    C6S15205   3.360   1.164   3.855  0.2659  0.3083 -0.3485
  140OSM    H6S15206   3.254   1.193   3.874 -0.0627 -0.0617 -1.5470
  140OSM    H6T15207   3.406   1.223   3.937  1.2552 -0.6082 -0.2263
  140OSM    C7S15208   3.354   1.005   3.887 -0.1884 -0.2229 -0.1770
  140OSM    H7S15209   3.457   0.965   3.894  0.7108  2.1243  0.8124
  140OSM    H7T15210   3.282   0.967   3.811 -2.1638  1.2924  0.8545
  140OSM    C8S15211   3.282   0.977   4.021  0.5595  0.0923  0.4026
  140OSM    H8S15212   3.259   0.869   4.033 -2.0597  0.3298 -1.5001
  140OSM    H8T15213   3.185   1.032   4.024 -0.5953 -1.6445 -2.1145
  140OSM    C9S15214   3.368   1.021   4.146  0.4359 -0.3304 -0.2783
  140OSM    H9S15215   3.377   1.131   4.135  1.2339 -0.6587 -3.8288
  140OSM    H9T15216   3.465   0.968   4.138 -0.1915 -2.1099  2.2436
  140OSM   C10S15217   3.293   0.978   4.278  0.4195 -0.0761  0.6676
  140OSM   H10S15218   3.274   0.869   4.277  0.5704 -0.1007  0.4069
  140OSM   H10T15219   3.196   1.032   4.286 -0.5295 -1.9513  2.6723
  140OSM   C11S15220   3.375   1.014   4.404 -0.5811 -0.1890  1.0243
  140OSM   H11S15221   3.407   1.121   4.397  0.1442 -0.3771  1.3221
  140OSM   H11T15222   3.463   0.945   4.399  0.5015  1.2048 -1.1382
  140OSM   C12S15223   3.293   0.993   4.527  0.5899 -0.7224 -1.0393
  140OSM   H12S15224   3.261   0.887   4.541  0.1574 -0.2703  2.5242
  140OSM   H12T15225   3.206   1.062   4.529  0.0805 -1.3511  0.2952
  140OSM   C13S15226   3.378   1.032   4.649 -0.6891  0.1510  0.7683
  140OSM   H13S15227   3.421   1.134   4.647 -1.1371  0.3385  0.0956
  140OSM   H13T15228   3.468   0.966   4.648 -1.2466 -0.6479 -0.5100
  140OSM   C14S15229   3.309   1.004   4.782  0.7475  0.1356  0.1904
  140OSM   H14S15230   3.259   0.905   4.778  2.2461 -0.7789  2.4299
  140OSM   H14T15231   3.225   1.076   4.794  0.2121  0.2028 -2.9557
  140OSM   C15S15232   3.384   1.028   4.917  0.1803  0.4324 -0.0620
  140OSM   H15S15233   3.398   1.138   4.928 -0.9415  0.4860  1.0703
  140OSM   H15T15234   3.477   0.972   4.896 -1.2731 -1.1304 -3.0261
  140OSM   C16S15235   3.314   0.977   5.038  0.4608 -0.6681  0.1159
  140OSM   H16S15236   3.388   0.993   5.119  0.5163 -1.5735  0.2637
  140OSM   H16T15237   3.299   0.867   5.036  0.1906 -0.6321 -1.5190
  140OSM   C17S15238   3.191   1.054   5.082  0.4633 -0.3723 -0.2499
  140OSM   H17S15239   3.119   1.060   4.998  0.9578 -1.4036 -0.7695
  140OSM   H17T15240   3.217   1.156   5.120 -0.1697 -1.0878  2.2666
  140OSM   C18S15241   3.132   0.997   5.203 -0.0504  0.0694  0.3318
  140OSM   H18S15242   3.213   0.997   5.279 -0.3507  0.6982  0.6620
  140OSM   H18T15243   3.088   0.897   5.182  0.1329  0.2362 -0.9314
  140OSM   H18U15244   3.051   1.069   5.229  0.8737  0.7508  1.4141
  140OSM    C1F15245   3.865   1.347   3.669  0.1158  0.5409  0.0179
  140OSM     OF15246   3.845   1.454   3.623  0.0110 -0.7354 -0.5535
  140OSM    C2F15247   3.971   1.316   3.769 -0.8047 -0.7254 -0.1918
  140OSM    H2F15248   4.054   1.274   3.708  0.4803  1.7672 -0.2667
  140OSM    H2G15249   3.938   1.239   3.842 -0.0325 -2.1164 -1.2421
  140OSM    C3F15250   4.022   1.445   3.839  0.0819  0.0663  0.9233
  140OSM    H3F15251   3.938   1.492   3.894  0.3718  0.8529  0.7058
  140OSM    H3G15252   4.052   1.510   3.754 -0.9813 -1.9429 -1.0968
  140OSM    C4F15253   4.147   1.414   3.919  0.5968 -0.2369  0.2226
  140OSM    H4F15254   4.192   1.506   3.963  1.0163 -0.4261  0.1922
  140OSM    H4G15255   4.222   1.369   3.851  1.9204  2.4201 -0.2120
  140OSM    C5F15256   4.125   1.318   4.041  1.3014  0.4079 -0.2794
  140OSM    H5F15257   4.100   1.212   4.018  1.0620 -0.1907  2.4510
  140OSM    H5G15258   4.040   1.354   4.103  0.6163  0.2482 -1.0973
  140OSM    C6F15259   4.243   1.317   4.130  0.4998  0.8339  0.0351
  140OSM    H6F15260   4.286   1.414   4.164  1.1036 -0.0336  1.8595
  140OSM    H6G15261   4.317   1.258   4.072 -1.1203 -2.6046  1.1746
  140OSM    C7F15262   4.199   1.239   4.257  0.1473  0.4975  0.5187
  140OSM    H7F15263   4.182   1.132   4.230 -1.2864  0.9864 -0.6258
  140OSM    H7G15264   4.105   1.283   4.297 -0.6703 -1.7596  1.2483
  140OSM    C8F15265   4.294   1.235   4.371  0.2380  0.1446 -0.9472
  140OSM    H8F15266   4.309   1.339   4.405 -0.6876 -0.1097  0.2881
  140OSM    H8G15267   4.391   1.191   4.339 -0.4318 -1.7909 -0.4845
  140OSM    C9F15268   4.244   1.149   4.485 -0.1126 -1.5866 -0.4476
  140OSM    H9F15269   4.205   1.051   4.454 -2.0726 -0.6183 -1.1895
  140OSM   C10F15270   4.237   1.193   4.611 -0.5897  0.5803 -0.2914
  140OSM   H10F15271   4.190   1.116   4.674  1.9321 -2.8570 -2.2332
  140OSM   C11F15272   4.277   1.317   4.686 -0.1916 -0.3480  0.0014
  140OSM   H11F15273   4.190   1.384   4.699 -0.4985 -0.9119  1.0029
  140OSM   H11G15274   4.351   1.382   4.635  0.5877  0.2246  1.7988
  140OSM   C12F15275   4.342   1.284   4.823 -0.3558 -0.3282 -0.0350
  140OSM   H12F15276   4.390   1.374   4.867  1.3039 -1.2137  0.0747
  140OSM   H12G15277   4.431   1.217   4.814  0.1366  0.1546  1.0793
  140OSM   C13F15278   4.244   1.222   4.926 -0.5698  0.0163  0.0162
  140OSM   H13F15279   4.207   1.129   4.877  1.2496 -0.9459  0.3730
  140OSM   H13G15280   4.163   1.296   4.948  0.4908  1.0992  0.3816
  140OSM   C14F15281   4.314   1.194   5.063  0.4137 -0.7950  0.0132
  140OSM   H14F15282   4.403   1.128   5.052  0.7435 -0.3316 -0.1693
  140OSM   H14G15283   4.232   1.163   5.131  0.4986  1.1902  1.1182
  140OSM   C15F15284   4.359   1.326   5.134  0.0443  0.0462 -0.1805
  140OSM   H15F15285   4.264   1.376   5.160  0.0327 -0.5737  1.0199
  140OSM   H15G15286   4.422   1.390   5.068  0.2073 -0.9151 -0.9850
  140OSM   C16F15287   4.450   1.301   5.256 -0.5044 -0.1733 -0.4353
  140OSM   H16F15288   4.484   1.400   5.292  1.2962 -0.1039 -2.1877
  140OSM   H16G15289   4.541   1.257   5.210  0.3475  1.0918 -0.0217
  140OSM   C17F15290   4.393   1.206   5.354  0.3292  0.7645  0.1001
  140OSM   H17F15291   4.390   1.103   5.314  1.1202  0.6463  0.3464
  140OSM   H17G15292   4.288   1.234   5.378  0.2148  0.8490 -0.4769
  140OSM   C18F15293   4.473   1.214   5.486  0.4474  0.1677  0.2099
  140OSM   H18F15294   4.478   1.319   5.524  0.1412 -0.2423  1.4212
  140OSM   H18G15295   4.573   1.166   5.483  0.2152 -0.3005  0.0129
  140OSM   H18H15296   4.411   1.155   5.556  0.3464 -0.9007 -0.7476
  141OSM      N15297   0.247   6.856   3.368 -0.6542 -0.2638 -0.0967
  141OSM    C1515298   0.131   6.951   3.333  0.5426  0.0337 -0.1855
  141OSM   H15A15299   0.098   7.009   3.417  1.8780  0.0277  0.3760
  141OSM   H15B15300   0.047   6.901   3.286  0.7478 -0.4122 -0.0899
  141OSM   H15C15301   0.167   7.027   3.266  0.4061 -0.7305 -1.1540
  141OSM    C1415302   0.194   6.717   3.352 -0.4988 -0.2011 -0.1383
  141OSM   H14A15303   0.107   6.705   3.414 -0.9545  0.5059 -0.6312
  141OSM   H14B15304   0.279   6.651   3.365  0.5639  1.2019  0.2941
  141OSM   H14C15305   0.162   6.709   3.249  1.3276 -0.4263 -0.7291
  141OSM    C1315306   0.365   6.885   3.286 -0.4483  0.3838  0.0019
  141OSM   H13A15307   0.354   6.852   3.184  1.8403  2.8109 -1.1329
  141OSM   H13B15308   0.451   6.828   3.320 -0.8229  0.3530  0.9376
  141OSM   H13C15309   0.396   6.988   3.291 -0.3675  0.3978 -0.7896
  141OSM    C1215310   0.288   6.882   3.513  0.3782 -0.5404 -0.3864
  141OSM   H12A15311   0.199   6.904   3.570  0.4579 -1.3062  0.0360
  141OSM   H12B15312   0.337   6.978   3.514 -1.6748  0.5855 -0.8100
  141OSM    C1115313   0.371   6.773   3.578 -0.3427 -0.5042  0.4574
  141OSM   H11A15314   0.295   6.697   3.606 -1.2867  0.1265 -0.3639
  141OSM   H11B15315   0.400   6.819   3.675 -2.4358  1.0782  0.3834
  141OSM      P15316   0.513   6.573   3.484  0.8760 -0.1807 -0.3197
  141OSM    O1315317   0.390   6.509   3.430 -0.4458  0.3282  0.2291
  141OSM    O1415318   0.632   6.548   3.403 -0.3425  0.3760 -0.5679
  141OSM    O1115319   0.522   6.508   3.628  0.6974 -0.3525 -0.0549
  141OSM    O1215320   0.483   6.726   3.505  0.3131  0.0085 -0.3118
  141OSM    C1S15321   0.637   6.530   3.713 -0.3733  0.8404  0.5255
  141OSM    H1S15322   0.657   6.639   3.717 -0.1054  0.9068 -1.5095
  141OSM    H1T15323   0.719   6.470   3.670 -2.3640 -0.2783 -1.9679
  141OSM     NF15324   0.721   6.516   3.939 -0.1199  0.0342  0.3178
  141OSM    HNF15325   0.779   6.437   3.959  1.4458  0.8706 -0.7133
  141OSM    C2S15326   0.609   6.482   3.851  0.6337 -0.3163 -0.8476
  141OSM    H2S15327   0.523   6.538   3.895  1.3922 -0.4940  0.9513
  141OSM    C3S15328   0.571   6.334   3.857  0.0893  0.8994  0.1046
  141OSM    H3S15329   0.654   6.275   3.813 -1.5186 -0.6784 -1.0027
  141OSM     O315330   0.457   6.290   3.785 -0.3014 -0.5568  0.2018
  141OSM    HO315331   0.448   6.359   3.718  3.8091 -0.9577 -1.0421
  141OSM    C4S15332   0.567   6.282   4.000 -0.4861  0.4366  0.0022
  141OSM    H4S15333   0.663   6.252   4.044 -0.9107 -0.7729  0.1475
  141OSM    C5S15334   0.465   6.281   4.092 -0.2375 -0.7986  0.7475
  141OSM    H5S15335   0.366   6.304   4.050  0.0464  0.1038  0.5388
  141OSM    C6S15336   0.475   6.228   4.229  0.3997 -0.4441 -0.1898
  141OSM    H6S15337   0.580   6.199   4.249 -0.0199 -2.5421 -0.8558
  141OSM    H6T15338   0.406   6.141   4.239 -0.1071  0.0733  1.0821
  141OSM    C7S15339   0.429   6.341   4.314 -0.1797  0.2893 -0.1768
  141OSM    H7S15340   0.321   6.368   4.302 -0.3675  0.1700  1.0982
  141OSM    H7T15341   0.484   6.437   4.307 -1.4143  1.1842  1.5422
  141OSM    C8S15342   0.448   6.294   4.454 -0.0217  0.2455  0.2277
  141OSM    H8S15343   0.555   6.271   4.472 -0.1539  1.1956  2.7336
  141OSM    H8T15344   0.382   6.207   4.475 -2.2958  1.2913 -2.1224
  141OSM    C9S15345   0.411   6.406   4.556 -0.2224 -0.9119  0.1629
  141OSM    H9S15346   0.312   6.441   4.522  0.2353 -2.3998 -3.0336
  141OSM    H9T15347   0.479   6.493   4.541 -2.1205  0.6275  0.1459
  141OSM   C10S15348   0.428   6.353   4.696 -0.9502  0.1451  0.1484
  141OSM   H10S15349   0.534   6.343   4.729 -0.2780  0.9442 -1.6399
  141OSM   H10T15350   0.393   6.249   4.682  0.4838 -0.2494 -0.7165
  141OSM   C11S15351   0.346   6.423   4.802 -0.0261 -0.6264  0.7181
  141OSM   H11S15352   0.241   6.436   4.768  0.0382  0.3460  0.8629
  141OSM   H11T15353   0.381   6.527   4.816 -1.0829 -0.0933 -0.3817
  141OSM   C12S15354   0.362   6.358   4.942  0.6835 -0.2915  0.0421
  141OSM   H12S15355   0.467   6.325   4.959  1.1450  1.4009  0.7571
  141OSM   H12T15356   0.310   6.261   4.954  0.8978 -0.4038  0.0763
  141OSM   C13S15357   0.292   6.447   5.050 -0.4379 -0.2267 -1.0537
  141OSM   H13S15358   0.181   6.451   5.042 -0.8099 -0.7031  2.3435
  141OSM   H13T15359   0.332   6.550   5.057 -1.7620  0.1967  2.9095
  141OSM   C14S15360   0.322   6.387   5.191  0.0457  0.3362  0.0411
  141OSM   H14S15361   0.371   6.459   5.261  0.8748 -0.3284  0.1606
  141OSM   H14T15362   0.401   6.310   5.180 -0.3259 -0.1773  0.8959
  141OSM   C15S15363   0.213   6.304   5.241 -0.0112  0.3239  0.1028
  141OSM   H15S15364   0.196   6.221   5.169 -0.9521  0.5787  0.0232
  141OSM   H15T15365   0.124   6.368   5.255 -0.4911 -0.4374  0.6403
  141OSM   C16S15366   0.236   6.256   5.388  0.0897  0.5532 -0.0215
  141OSM   H16S15367   0.246   6.351   5.445 -0.3635  1.7519 -1.8674
  141OSM   H16T15368   0.330   6.197   5.391 -1.1373 -1.4684  0.1592
  141OSM   C17S15369   0.116   6.184   5.436  0.4321 -0.0126  0.4684
  141OSM   H17S15370   0.029   6.242   5.398 -0.2810 -0.3879  1.5006
  141OSM   H17T15371   0.118   6.182   5.547  0.2619  0.7790  0.4945
  141OSM   C18S15372   0.107   6.042   5.391  0.2833 -0.4583 -0.5239
  141OSM   H18S15373   0.185   5.980   5.440  0.0381 -1.2890 -1.1503
  141OSM   H18T15374   0.113   6.023   5.281  0.5046  1.7022 -0.9330
  141OSM   H18U15375   0.013   5.995   5.427  1.3492 -1.0688  1.6015
  141OSM    C1F15376   0.767   6.639   3.963 -0.7434 -0.1094 -0.4335
  141OSM     OF15377   0.703   6.735   3.927  0.3990 -0.1722 -0.7210
  141OSM    C2F15378   0.916   6.654   4.005  0.1345  0.1431  0.1131
  141OSM    H2F15379   0.963   6.740   3.952 -1.6167  1.0857  0.0325
  141OSM    H2G15380   0.982   6.569   3.979  0.4568  0.7516 -1.1568
  141OSM    C3F15381   0.930   6.670   4.158 -0.0320  0.4438  0.9262
  141OSM    H3F15382   0.888   6.769   4.182 -1.7411 -0.0041 -0.0448
  141OSM    H3G15383   1.038   6.661   4.185 -0.4324 -0.3554  2.3324
  141OSM    C4F15384   0.854   6.573   4.244  0.0765  0.2352  0.3500
  141OSM    H4F15385   0.888   6.468   4.227 -0.3568  0.4791 -2.3926
  141OSM    H4G15386   0.744   6.574   4.232  0.0685 -0.7450  0.2517
  141OSM    C5F15387   0.879   6.611   4.388  0.2918  0.6130 -0.2205
  141OSM    H5F15388   0.853   6.717   4.402 -0.1568  0.8305 -2.3829
  141OSM    H5G15389   0.985   6.585   4.410 -0.4901 -0.7828  2.4182
  141OSM    C6F15390   0.786   6.556   4.496 -0.0521 -0.3331  0.2011
  141OSM    H6F15391   0.797   6.445   4.496 -0.7846 -0.4217  1.1391
  141OSM    H6G15392   0.680   6.579   4.471  0.1269 -0.2721 -0.5344
  141OSM    C7F15393   0.817   6.612   4.638 -0.4794 -0.1236  0.1538
  141OSM    H7F15394   0.822   6.722   4.626 -2.9119  0.0128 -0.1381
  141OSM    H7G15395   0.924   6.585   4.650  0.1601  1.6719 -1.2218
  141OSM    C8F15396   0.728   6.564   4.749 -0.4630  0.6686 -0.1198
  141OSM    H8F15397   0.712   6.455   4.735 -1.4247  0.4434  2.2256
  141OSM    H8G15398   0.626   6.608   4.751 -0.6502  0.2535  2.2993
  141OSM    C9F15399   0.800   6.604   4.871 -0.2462 -0.2015 -0.3860
  141OSM    H9F15400   0.854   6.700   4.870  3.7543 -2.1855  1.0954
  141OSM   C10F15401   0.823   6.536   4.981 -0.3608 -0.5411  0.1543
  141OSM   H10F15402   0.885   6.581   5.061 -0.2288  0.6234 -0.5818
  141OSM   C11F15403   0.787   6.386   5.008  0.2986 -0.7625  0.3536
  141OSM   H11F15404   0.874   6.318   5.022  1.2059  0.2222 -0.4024
  141OSM   H11G15405   0.741   6.350   4.914 -0.9758 -1.2891  1.1468
  141OSM   C12F15406   0.696   6.370   5.134  1.0791  0.4345 -0.2319
  141OSM   H12F15407   0.648   6.270   5.136 -1.3394  1.3874 -3.1388
  141OSM   H12G15408   0.612   6.443   5.137  0.5076 -0.2498  0.7833
  141OSM   C13F15409   0.774   6.390   5.261 -0.0505  0.6483  0.1128
  141OSM   H13F15410   0.830   6.485   5.255 -0.8521  1.4392  3.3531
  141OSM   H13G15411   0.838   6.300   5.275 -1.2314 -0.0983  0.9261
  141OSM   C14F15412   0.690   6.408   5.388  0.5947  0.2720 -0.0696
  141OSM   H14F15413   0.633   6.324   5.433 -0.4143  1.4744  0.9721
  141OSM   H14G15414   0.619   6.493   5.382 -1.1558 -0.9917  1.5525
  141OSM   C15F15415   0.781   6.447   5.507 -0.2591  0.3678  0.7465
  141OSM   H15F15416   0.718   6.478   5.593  1.2765  1.6227  1.4674
  141OSM   H15G15417   0.854   6.527   5.483  0.3337 -1.4626 -4.9971
  141OSM   C16F15418   0.850   6.322   5.573 -0.2529  0.7070  0.1405
  141OSM   H16F15419   0.911   6.279   5.492  0.2636  0.1939  0.7916
  141OSM   H16G15420   0.772   6.255   5.615 -0.4826  2.2175  2.3326
  141OSM   C17F15421   0.957   6.355   5.683 -0.7391  0.1910  0.4042
  141OSM   H17F15422   0.998   6.258   5.718 -0.1910  0.5325  0.7208
  141OSM   H17G15423   0.905   6.401   5.770 -1.2826  0.3758 -0.0147
  141OSM   C18F15424   1.069   6.439   5.622 -0.5160  0.1924 -1.6241
  141OSM   H18F15425   1.026   6.536   5.589 -4.0125 -0.6103  0.0923
  141OSM   H18G15426   1.118   6.389   5.536  0.8471 -0.5641 -0.4528
  141OSM   H18H15427   1.152   6.448   5.694 -0.8033  0.1788 -1.2869
  142OSM      N15428   0.967   2.831   3.568 -0.2153 -0.1808 -0.1321
  142OSM    C1515429   1.072   2.858   3.465 -0.0347 -0.3992 -0.3823
  142OSM   H15A15430   1.167   2.834   3.511 -0.9498  1.2598  2.6732
  142OSM   H15B15431   1.066   2.960   3.431 -0.2203 -0.9431 -2.0942
  142OSM   H15C15432   1.069   2.788   3.383 -0.6003  0.2544 -0.9229
  142OSM    C1415433   0.992   2.921   3.687 -0.0231  0.5779  0.2812
  142OSM   H14A15434   0.995   3.025   3.657 -0.5378  0.5184  0.0060
  142OSM   H14B15435   1.087   2.907   3.737 -0.2349  0.8697  0.7693
  142OSM   H14C15436   0.911   2.908   3.757 -0.1769 -2.4162 -0.3416
  142OSM    C1315437   0.844   2.872   3.507  1.0680 -0.1375 -0.1864
  142OSM   H13A15438   0.823   2.813   3.419 -2.3098  0.3005  0.1706
  142OSM   H13B15439   0.848   2.976   3.476 -2.4496  0.3204  0.4404
  142OSM   H13C15440   0.758   2.866   3.573  1.2654  1.9504  0.3521
  142OSM    C1215441   0.962   2.692   3.622  0.2396 -0.0014 -0.5885
  142OSM   H12A15442   0.865   2.676   3.666 -0.4862  1.3451 -1.5854
  142OSM   H12B15443   1.034   2.684   3.702 -0.0013  0.8287 -0.2712
  142OSM    C1115444   0.992   2.571   3.529 -0.0706  0.5148 -0.0459
  142OSM   H11A15445   1.085   2.595   3.473 -1.3443  2.5721 -1.4283
  142OSM   H11B15446   0.916   2.572   3.448 -0.5358 -0.8968  0.3410
  142OSM      P15447   0.879   2.360   3.646 -0.3326 -0.3157 -0.3789
  142OSM    O1315448   0.786   2.375   3.538 -0.4351 -0.3432  0.4921
  142OSM    O1415449   0.917   2.220   3.678 -0.2317 -0.0544 -0.5178
  142OSM    O1115450   0.831   2.423   3.780  0.3410 -0.6407  0.5998
  142OSM    O1215451   1.006   2.453   3.604 -0.2280 -0.4635 -0.0220
  142OSM    C1S15452   0.693   2.418   3.817  0.8965 -0.1286  0.2024
  142OSM    H1S15453   0.654   2.316   3.798 -0.2834  0.2726  0.3642
  142OSM    H1T15454   0.636   2.483   3.747  2.1255 -0.9807 -1.6413
  142OSM     NF15455   0.544   2.421   4.022  0.0981 -0.2434 -0.3778
  142OSM    HNF15456   0.473   2.490   4.019 -0.1163 -0.4831 -1.1167
  142OSM    C2S15457   0.677   2.466   3.966 -0.4615 -0.0866 -0.3613
  142OSM    H2S15458   0.760   2.416   4.020 -0.0760  0.1253 -0.7523
  142OSM    C3S15459   0.701   2.616   3.973 -0.4531 -0.8776  0.2966
  142OSM    H3S15460   0.629   2.675   3.912  0.1376 -0.6145 -0.1595
  142OSM     O315461   0.817   2.659   3.914 -0.1311  0.2040 -0.0811
  142OSM    HO315462   0.847   2.576   3.876  1.3277  1.4288 -1.7684
  142OSM    C4S15463   0.702   2.672   4.117 -0.4724 -0.0999 -0.1022
  142OSM    H4S15464   0.600   2.674   4.159 -0.1595 -0.6383  0.7016
  142OSM    C5S15465   0.807   2.677   4.206 -0.5822  0.3623 -0.7361
  142OSM    H5S15466   0.909   2.672   4.165 -0.5537  1.8366 -0.8982
  142OSM    C6S15467   0.799   2.696   4.352 -0.2783 -0.2530  0.3086
  142OSM    H6S15468   0.693   2.686   4.386 -1.4778 -1.3979 -3.2408
  142OSM    H6T15469   0.824   2.803   4.368 -1.5565 -0.1964  2.2762
  142OSM    C7S15470   0.893   2.614   4.446 -0.3623 -0.2016  0.2549
  142OSM    H7S15471   0.913   2.675   4.537 -0.6583  2.3264 -1.2820
  142OSM    H7T15472   0.990   2.608   4.393 -0.0909 -2.3794  0.9243
  142OSM    C8S15473   0.826   2.484   4.489 -0.0293 -0.1125 -0.0703
  142OSM    H8S15474   0.774   2.438   4.403  1.1332 -0.2190 -0.7331
  142OSM    H8T15475   0.746   2.506   4.563 -0.8925  3.6354 -1.8680
  142OSM    C9S15476   0.919   2.373   4.546  0.1183  0.3824  0.7384
  142OSM    H9S15477   0.994   2.338   4.472  0.5091  1.2845  0.6846
  142OSM    H9T15478   0.854   2.291   4.582 -3.0787  1.5863 -1.7638
  142OSM   C10S15479   1.001   2.402   4.672  0.1935 -0.1109  0.0114
  142OSM   H10S15480   1.093   2.455   4.637  0.0571 -0.3874 -0.7832
  142OSM   H10T15481   1.032   2.303   4.712 -0.3791 -0.9493 -1.5448
  142OSM   C11S15482   0.921   2.474   4.777 -0.3751 -0.1775  0.7178
  142OSM   H11S15483   0.812   2.450   4.774 -0.6282  0.7267  1.7082
  142OSM   H11T15484   0.927   2.583   4.756  0.6437 -0.9820 -4.4575
  142OSM   C12S15485   0.983   2.452   4.913 -0.2700 -0.5426 -0.1606
  142OSM   H12S15486   1.090   2.478   4.897 -0.4537  0.1044 -0.3546
  142OSM   H12T15487   0.973   2.350   4.955  0.5631 -0.3138  0.6235
  142OSM   C13S15488   0.935   2.548   5.021  0.0795 -0.1736 -0.1084
  142OSM   H13S15489   0.825   2.549   5.033 -0.1571  0.3512 -1.9177
  142OSM   H13T15490   0.963   2.649   4.982 -0.9834 -0.1390 -0.8065
  142OSM   C14S15491   1.012   2.539   5.153  0.1380 -0.1601  0.3590
  142OSM   H14S15492   1.118   2.543   5.122 -0.5017  1.2557 -1.9429
  142OSM   H14T15493   0.992   2.440   5.199  0.1933  0.7630  2.5063
  142OSM   C15S15494   0.993   2.660   5.249 -0.2046  0.5669 -0.3931
  142OSM   H15S15495   0.888   2.668   5.286 -1.2363  3.4327 -3.3886
  142OSM   H15T15496   1.000   2.754   5.191 -1.1137 -1.1722 -3.5739
  142OSM   C16S15497   1.097   2.674   5.367 -0.1988  0.0892  0.1395
  142OSM   H16S15498   1.074   2.777   5.403 -2.3132 -0.2588 -0.1227
  142OSM   H16T15499   1.203   2.674   5.332 -0.5361  1.0138 -0.9436
  142OSM   C17S15500   1.071   2.586   5.485 -0.3709 -0.4188 -0.0629
  142OSM   H17S15501   1.150   2.509   5.495 -0.3585 -0.5397 -1.0250
  142OSM   H17T15502   0.974   2.541   5.453 -0.3688  0.7368 -1.8085
  142OSM   C18S15503   1.036   2.660   5.610 -0.2264  0.7314  0.2542
  142OSM   H18S15504   1.138   2.686   5.646  1.6850 -1.9138 -2.6828
  142OSM   H18T15505   0.985   2.590   5.678  2.4444 -1.9284 -0.2610
  142OSM   H18U15506   0.981   2.755   5.594  0.2071  0.6834 -1.9213
  142OSM    C1F15507   0.520   2.293   4.050 -0.3380  0.9273  0.1122
  142OSM     OF15508   0.607   2.212   4.039 -0.0373 -0.3739 -0.1169
  142OSM    C2F15509   0.380   2.254   4.064  0.6233  0.4895 -0.1806
  142OSM    H2F15510   0.324   2.287   3.974 -0.9507 -0.9369  0.2273
  142OSM    H2G15511   0.336   2.300   4.156 -0.5263 -0.9641  0.0296
  142OSM    C3F15512   0.374   2.106   4.099  0.2620  0.0614 -0.7444
  142OSM    H3F15513   0.458   2.043   4.063  1.1002  0.7641 -0.0576
  142OSM    H3G15514   0.280   2.073   4.050  0.2475 -1.0149 -0.0218
  142OSM    C4F15515   0.368   2.082   4.253 -1.1030 -0.3183  0.4660
  142OSM    H4F15516   0.380   1.973   4.268 -0.3818 -0.1138  1.4420
  142OSM    H4G15517   0.272   2.117   4.296 -0.4198  1.7997  0.4218
  142OSM    C5F15518   0.486   2.141   4.328 -0.4600 -0.5064 -0.0193
  142OSM    H5F15519   0.482   2.252   4.322  1.2630 -0.3976  0.2606
  142OSM    H5G15520   0.579   2.106   4.278  0.1807  0.6415  0.3337
  142OSM    C6F15521   0.483   2.097   4.483  0.1868 -0.3036  0.1560
  142OSM    H6F15522   0.561   2.022   4.510 -0.4836 -0.4390  1.8726
  142OSM    H6G15523   0.386   2.046   4.503 -0.4224  1.4372  2.0014
  142OSM    C7F15524   0.511   2.211   4.584  0.2838 -0.0258  0.0005
  142OSM    H7F15525   0.577   2.290   4.544  0.1205  0.1327  0.0419
  142OSM    H7G15526   0.560   2.171   4.676  0.8238  0.7484  0.0508
  142OSM    C8F15527   0.385   2.279   4.637 -0.0046  0.1243  0.3717
  142OSM    H8F15528   0.319   2.330   4.562  0.1361 -0.1811  0.0391
  142OSM    H8G15529   0.418   2.364   4.701  1.0992  1.2636 -1.6131
  142OSM    C9F15530   0.304   2.182   4.715 -0.1751 -0.0722 -0.0210
  142OSM    H9F15531   0.237   2.126   4.648  0.5751  1.4463 -2.1246
  142OSM   C10F15532   0.324   2.159   4.849  0.3409 -0.6817  0.5175
  142OSM   H10F15533   0.268   2.080   4.901  0.5630 -0.4228  1.1669
  142OSM   C11F15534   0.420   2.241   4.936 -0.1196 -0.7325  0.6873
  142OSM   H11F15535   0.513   2.250   4.876  0.9497  0.0999  2.4203
  142OSM   H11G15536   0.440   2.177   5.025 -1.7159 -0.3683  1.3493
  142OSM   C12F15537   0.370   2.381   4.978  0.0279  0.1592  0.2725
  142OSM   H12F15538   0.289   2.424   4.916  2.7942 -1.1370 -4.7907
  142OSM   H12G15539   0.454   2.454   4.971 -0.5444  0.9786  1.5058
  142OSM   C13F15540   0.318   2.379   5.124 -0.3155  0.2373  0.1328
  142OSM   H13F15541   0.390   2.326   5.190 -0.4828 -1.0118 -0.6608
  142OSM   H13G15542   0.229   2.313   5.124  0.7789 -1.3098 -0.9252
  142OSM   C14F15543   0.296   2.521   5.178  0.1614  0.1942 -0.0908
  142OSM   H14F15544   0.229   2.586   5.117 -0.3823  0.5829  0.8925
  142OSM   H14G15545   0.390   2.577   5.195  1.1721 -2.2106  3.2240
  142OSM   C15F15546   0.225   2.509   5.313 -0.0951  0.3083  0.1385
  142OSM   H15F15547   0.261   2.413   5.355  1.6237  0.1961 -1.4517
  142OSM   H15G15548   0.116   2.504   5.296 -0.8126  1.0926  3.6809
  142OSM   C16F15549   0.268   2.621   5.414  0.8962  0.4029 -0.2066
  142OSM   H16F15550   0.243   2.716   5.363  1.5070  0.1313 -1.0249
  142OSM   H16G15551   0.378   2.619   5.428  0.7044 -1.4514  1.7015
  142OSM   C17F15552   0.195   2.612   5.550 -0.5941 -0.5071 -0.0186
  142OSM   H17F15553   0.252   2.676   5.620 -1.2877  0.9573 -0.7460
  142OSM   H17G15554   0.202   2.504   5.574  0.3783 -0.4504 -0.0171
  142OSM   C18F15555   0.046   2.654   5.559 -0.1535 -0.5053  0.2026
  142OSM   H18F15556   0.030   2.761   5.537 -1.5824 -0.8084 -0.3131
  142OSM   H18G15557   0.007   2.634   5.662 -1.8918  0.0595 -0.3192
  142OSM   H18H15558  -0.016   2.591   5.492 -2.3680  0.2558  1.4301
  143OSM      N15559   0.337   0.705   3.110 -0.2507  0.4986 -0.0093
  143OSM    C1515560   0.328   0.789   3.235  0.5093 -0.3199 -0.1412
  143OSM   H15A15561   0.377   0.738   3.316 -1.7464 -3.3611 -0.5014
  143OSM   H15B15562   0.225   0.787   3.268  0.9438  0.5028  1.3426
  143OSM   H15C15563   0.361   0.890   3.216  0.5240 -0.1594  0.7200
  143OSM    C1415564   0.249   0.772   3.019 -0.2741 -0.0512  0.0037
  143OSM   H14A15565   0.151   0.764   3.062  0.7073  0.0277  2.3991
  143OSM   H14B15566   0.245   0.729   2.920 -0.6306  2.3615 -1.1087
  143OSM   H14C15567   0.275   0.877   3.013 -0.0356 -0.1691 -1.3880
  143OSM    C1315568   0.477   0.705   3.052  0.2020  0.4264 -0.1021
  143OSM   H13A15569   0.485   0.636   2.970  0.0429 -0.1971  0.3949
  143OSM   H13B15570   0.555   0.678   3.122  0.4563  2.5183  0.4929
  143OSM   H13C15571   0.506   0.806   3.027 -0.0246  0.7710  0.9774
  143OSM    C1215572   0.281   0.558   3.139  0.2200 -0.2061  0.2305
  143OSM   H12A15573   0.285   0.496   3.051 -1.1174  0.1197 -0.0846
  143OSM   H12B15574   0.180   0.570   3.177  0.7006  0.0914  1.4559
  143OSM    C1115575   0.354   0.481   3.251  0.0045 -0.1292  0.5627
  143OSM   H11A15576   0.294   0.388   3.251  0.7128 -0.7150  3.8132
  143OSM   H11B15577   0.351   0.539   3.346  0.2698  1.2694 -0.2535
  143OSM      P15578   0.620   0.480   3.302  0.0736 -0.5076  0.0231
  143OSM    O1315579   0.721   0.377   3.279  0.2965 -0.4967 -0.4212
  143OSM    O1415580   0.668   0.617   3.290 -0.2669  0.0650  0.1402
  143OSM    O1115581   0.541   0.457   3.436  0.7197 -0.5822  0.0737
  143OSM    O1215582   0.493   0.449   3.207  0.0226  0.2306 -0.6868
  143OSM    C1S15583   0.607   0.390   3.546 -0.7510 -0.4749  0.3400
  143OSM    H1S15584   0.705   0.438   3.562 -1.3522  0.2487  2.1302
  143OSM    H1T15585   0.628   0.282   3.528  1.9026 -0.1077  0.8412
  143OSM     NF15586   0.616   0.376   3.791  0.0345  0.1552  0.0488
  143OSM    HNF15587   0.637   0.281   3.812  2.6600  0.4953 -0.7284
  143OSM    C2S15588   0.526   0.399   3.678 -1.3215 -0.2919  0.2258
  143OSM    H2S15589   0.491   0.505   3.681  1.8560  0.8876 -0.7611
  143OSM    C3S15590   0.400   0.307   3.669 -0.1708  0.0047  0.2403
  143OSM    H3S15591   0.424   0.198   3.669  1.3823  0.3183  1.0121
  143OSM     O315592   0.324   0.313   3.551 -0.0807 -0.5980 -0.3525
  143OSM    HO315593   0.371   0.367   3.487 -1.8364  0.8306 -0.5071
  143OSM    C4S15594   0.307   0.329   3.785  0.9073  0.4187 -1.3023
  143OSM    H4S15595   0.311   0.250   3.861  0.8124  1.8479  0.2260
  143OSM    C5S15596   0.221   0.427   3.799  0.3177 -0.1681 -0.3118
  143OSM    H5S15597   0.223   0.510   3.726  1.0719 -0.8557 -1.0935
  143OSM    C6S15598   0.120   0.446   3.907 -0.4617 -0.3264 -0.9278
  143OSM    H6S15599   0.019   0.469   3.867 -1.0108 -0.6742  0.2275
  143OSM    H6T15600   0.135   0.537   3.968 -1.9797 -0.3308 -0.5215
  143OSM    C7S15601   0.092   0.326   3.998  0.2822 -0.5158  0.5016
  143OSM    H7S15602   0.185   0.299   4.052 -0.2126 -0.6198  1.3239
  143OSM    H7T15603   0.054   0.239   3.939  1.4602 -1.7444  1.4864
  143OSM    C8S15604  -0.005   0.370   4.110  0.2909  0.7211 -0.5340
  143OSM    H8S15605  -0.065   0.278   4.125  1.0131 -0.2849 -3.2340
  143OSM    H8T15606  -0.074   0.451   4.077  0.1599  0.7682 -0.1468
  143OSM    C9S15607   0.047   0.414   4.244 -0.5822  0.0025 -0.0017
  143OSM    H9S15608   0.125   0.493   4.233 -0.6352 -0.1547 -1.7689
  143OSM    H9T15609   0.097   0.328   4.294  0.4935  0.9315  0.5841
  143OSM   C10S15610  -0.060   0.463   4.344  0.2401  0.0027 -0.3133
  143OSM   H10S15611  -0.140   0.386   4.353  3.0797 -2.9886  1.6765
  143OSM   H10T15612  -0.101   0.555   4.297  0.3952  0.9167  1.2837
  143OSM   C11S15613  -0.000   0.495   4.487 -0.1089 -0.3799  0.7742
  143OSM   H11S15614   0.064   0.585   4.481 -0.0442 -0.5053 -1.6966
  143OSM   H11T15615   0.067   0.416   4.526  0.8779  0.8390  1.5891
  143OSM   C12S15616  -0.112   0.502   4.585 -0.1052  1.1123 -0.1364
  143OSM   H12S15617  -0.158   0.401   4.584  0.3355  0.8587 -2.9159
  143OSM   H12T15618  -0.185   0.574   4.542 -0.5490 -0.7314 -2.7429
  143OSM   C13S15619  -0.062   0.540   4.726 -0.5157 -0.4089 -0.0552
  143OSM   H13S15620  -0.029   0.646   4.738  3.5233 -1.4416 -0.7968
  143OSM   H13T15621   0.024   0.472   4.742 -1.2919 -1.3138  0.3731
  143OSM   C14S15622  -0.167   0.517   4.841  0.4694  0.1243 -0.6018
  143OSM   H14S15623  -0.214   0.421   4.811 -0.9578  0.2566  1.0578
  143OSM   H14T15624  -0.243   0.599   4.846  0.7533  0.5242 -2.2744
  143OSM   C15S15625  -0.094   0.496   4.982  0.8557  0.1182 -0.0689
  143OSM   H15S15626  -0.052   0.582   5.038  2.6389 -0.1312 -0.9507
  143OSM   H15T15627  -0.016   0.417   4.980 -1.8455 -2.8644  2.1372
  143OSM   C16S15628  -0.200   0.433   5.076  0.7324  0.6492 -0.6964
  143OSM   H16S15629  -0.268   0.366   5.018 -0.9975  1.3923  0.3839
  143OSM   H16T15630  -0.264   0.519   5.106  1.8433  1.1763  0.2075
  143OSM   C17S15631  -0.143   0.369   5.199 -0.6963 -0.4599 -0.0873
  143OSM   H17S15632  -0.075   0.285   5.171 -2.2810 -1.8718  0.1414
  143OSM   H17T15633  -0.232   0.332   5.255 -1.1730  1.6225  0.6131
  143OSM   C18S15634  -0.048   0.473   5.276  0.1723  0.5995  0.5854
  143OSM   H18S15635  -0.029   0.443   5.382 -0.3279 -0.9400  0.2567
  143OSM   H18T15636  -0.100   0.570   5.290 -2.1885 -0.4666 -0.2693
  143OSM   H18U15637   0.046   0.481   5.217  0.0782  0.3818  0.4041
  143OSM    C1F15638   0.696   0.470   3.839 -0.3813  0.8836 -0.5740
  143OSM     OF15639   0.696   0.579   3.806  0.5003 -0.2130  0.5863
  143OSM    C2F15640   0.797   0.426   3.941  0.1970 -0.4179 -0.2157
  143OSM    H2F15641   0.886   0.373   3.901  0.9168  1.5607 -1.4018
  143OSM    H2G15642   0.754   0.354   4.013  0.2337 -0.4918 -0.2671
  143OSM    C3F15643   0.835   0.543   4.032  0.7679  0.0709 -0.6865
  143OSM    H3F15644   0.737   0.559   4.081  0.2475  0.6753 -1.8840
  143OSM    H3G15645   0.878   0.634   3.985 -0.9519  1.8043  0.9196
  143OSM    C4F15646   0.929   0.503   4.149 -0.2538 -0.2685 -0.6908
  143OSM    H4F15647   1.014   0.453   4.098  0.3315 -1.8102  1.6472
  143OSM    H4G15648   0.880   0.438   4.225  0.1138 -0.7511 -0.8591
  143OSM    C5F15649   0.981   0.627   4.226  0.2681  0.9893  0.5572
  143OSM    H5F15650   1.025   0.698   4.154 -0.8343  0.6106 -0.5326
  143OSM    H5G15651   1.064   0.588   4.290 -0.5329  0.6544  1.4277
  143OSM    C6F15652   0.871   0.681   4.312  0.1294 -0.4616 -0.1456
  143OSM    H6F15653   0.780   0.703   4.253 -0.4525 -0.9924  0.5488
  143OSM    H6G15654   0.915   0.776   4.351  1.6857 -0.8170 -0.9389
  143OSM    C7F15655   0.843   0.598   4.439  0.0993 -0.0232 -0.3263
  143OSM    H7F15656   0.942   0.567   4.479  0.3641  0.6481 -0.4403
  143OSM    H7G15657   0.784   0.510   4.407 -0.0648  0.9371 -2.9319
  143OSM    C8F15658   0.771   0.675   4.553 -0.5334 -0.6076 -0.0043
  143OSM    H8F15659   0.695   0.746   4.514  1.9877  2.8418  0.9260
  143OSM    H8G15660   0.836   0.750   4.602 -1.1399  0.7482 -1.1946
  143OSM    C9F15661   0.724   0.581   4.659  0.3703  0.5128 -0.2872
  143OSM    H9F15662   0.704   0.481   4.617 -0.2622  0.2220  0.6704
  143OSM   C10F15663   0.711   0.599   4.793 -0.1366 -0.5038 -0.5715
  143OSM   H10F15664   0.670   0.521   4.859  0.8010 -0.0566  0.5787
  143OSM   C11F15665   0.738   0.720   4.869 -0.0717 -0.8803 -1.0454
  143OSM   H11F15666   0.643   0.769   4.898  0.8351  2.8337 -3.6096
  143OSM   H11G15667   0.781   0.802   4.807  0.1018  0.5788  0.8942
  143OSM   C12F15668   0.832   0.716   4.992 -0.1641  0.5982  0.4880
  143OSM   H12F15669   0.854   0.817   5.033  3.5586 -0.2921  1.0308
  143OSM   H12G15670   0.928   0.679   4.951 -0.1917  0.8763  0.1652
  143OSM   C13F15671   0.776   0.619   5.103 -0.2224  0.4460 -0.4028
  143OSM   H13F15672   0.778   0.517   5.060  1.3441 -0.1008  0.8698
  143OSM   H13G15673   0.671   0.655   5.113 -0.7648 -0.6908 -1.7594
  143OSM   C14F15674   0.849   0.636   5.238 -0.1454  0.2767 -0.2596
  143OSM   H14F15675   0.877   0.743   5.253  0.7573 -0.0107  0.1831
  143OSM   H14G15676   0.943   0.576   5.233 -0.1529  0.0378  1.5922
  143OSM   C15F15677   0.753   0.598   5.349 -0.0376 -0.2416  0.1926
  143OSM   H15F15678   0.686   0.516   5.314 -1.6525  1.1935 -0.2209
  143OSM   H15G15679   0.678   0.677   5.371 -1.0861 -0.7378 -1.3567
  143OSM   C16F15680   0.821   0.546   5.480 -0.7722  0.6563 -0.1232
  143OSM   H16F15681   0.911   0.601   5.514 -0.5630  0.9985 -1.2201
  143OSM   H16G15682   0.855   0.444   5.453  2.4972  1.5948  0.1225
  143OSM   C17F15683   0.719   0.524   5.595  0.1882 -0.7571 -0.0316
  143OSM   H17F15684   0.637   0.462   5.553 -1.4799 -0.7398  2.9621
  143OSM   H17G15685   0.677   0.623   5.625  1.0456  0.2364 -1.9087
  143OSM   C18F15686   0.761   0.456   5.719  0.4979 -0.5937 -0.5138
  143OSM   H18F15687   0.841   0.520   5.764 -1.7837  0.9161  1.6864
  143OSM   H18G15688   0.813   0.360   5.699 -0.7403 -1.1068 -1.3633
  143OSM   H18H15689   0.674   0.447   5.788  1.4905 -0.3420  0.8186
  144OSM      N15690   1.071   1.615   3.466 -0.1237  0.4236  0.1907
  144OSM    C1515691   0.969   1.553   3.558 -0.6151 -0.2703  0.2240
  144OSM   H15A15692   1.007   1.460   3.599  1.0305 -0.2642 -1.1646
  144OSM   H15B15693   0.882   1.534   3.497 -0.1144  0.4392 -0.7442
  144OSM   H15C15694   0.936   1.614   3.640  1.5800  1.0404  0.2198
  144OSM    C1415695   1.086   1.528   3.340  0.1646 -0.0029  0.4929
  144OSM   H14A15696   0.987   1.512   3.299  0.6305  1.6626 -1.4083
  144OSM   H14B15697   1.125   1.429   3.360 -0.5646 -0.4136 -0.0506
  144OSM   H14C15698   1.161   1.563   3.271  1.0947 -1.2572  0.8341
  144OSM    C1315699   1.019   1.749   3.425  0.4520  0.2188 -0.8865
  144OSM   H13A15700   1.086   1.806   3.363 -0.3170 -0.1635 -2.1097
  144OSM   H13B15701   0.998   1.805   3.515 -0.5558 -0.4084 -0.7198
  144OSM   H13C15702   0.936   1.729   3.358  0.7696  2.5645 -2.0699
  144OSM    C1215703   1.208   1.634   3.532  0.1153  0.0482  0.4868
  144OSM   H12A15704   1.272   1.702   3.479 -0.9488  0.7758  0.1087
  144OSM   H12B15705   1.254   1.536   3.540 -0.5547 -0.5468 -2.1765
  144OSM    C1115706   1.215   1.703   3.671 -0.3456  0.2710  0.3706
  144OSM   H11A15707   1.316   1.685   3.714 -0.1419  1.1486  0.2735
  144OSM   H11B15708   1.145   1.655   3.744  0.0817 -3.2397 -1.3038
  144OSM      P15709   1.294   1.954   3.648 -0.6331  0.2505  0.2729
  144OSM    O1315710   1.364   1.926   3.519  0.1168 -0.2418  0.0270
  144OSM    O1415711   1.233   2.087   3.675 -0.1706  0.0621  0.1978
  144OSM    O1115712   1.393   1.924   3.770 -0.0643  0.4500 -0.5255
  144OSM    O1215713   1.182   1.844   3.650  0.1697  0.4508  0.6645
  144OSM    C1S15714   1.337   1.950   3.897  0.5144 -0.2535 -0.0584
  144OSM    H1S15715   1.232   1.915   3.906  1.2062 -2.7436 -0.7612
  144OSM    H1T15716   1.344   2.059   3.914  2.9870  0.0700 -2.4413
  144OSM     NF15717   1.380   1.930   4.143  0.0287 -0.5552  0.0108
  144OSM    HNF15718   1.442   1.995   4.187  0.7831  0.0657 -1.8394
  144OSM    C2S15719   1.419   1.874   4.012 -0.0268 -0.2437  0.8279
  144OSM    H2S15720   1.396   1.766   3.996  0.5561 -0.0992 -1.2764
  144OSM    C3S15721   1.570   1.889   3.989 -0.4388  0.0318 -0.6090
  144OSM    H3S15722   1.606   1.989   4.024 -0.9361 -0.0630  0.1865
  144OSM     O315723   1.621   1.866   3.859  0.2086  0.1935 -0.1182
  144OSM    HO315724   1.546   1.833   3.809 -0.5506  0.0900  1.0462
  144OSM    C4S15725   1.630   1.785   4.081  0.9975  0.4256 -0.5175
  144OSM    H4S15726   1.674   1.834   4.169 -0.7959 -0.3830  0.8945
  144OSM    C5S15727   1.620   1.648   4.075  0.5427  0.4843 -0.5082
  144OSM    H5S15728   1.567   1.594   3.995  3.4216  0.0857 -2.3009
  144OSM    C6S15729   1.671   1.547   4.182 -0.5452  0.7163  0.4823
  144OSM    H6S15730   1.774   1.517   4.155 -2.0939 -1.5167 -3.8992
  144OSM    H6T15731   1.615   1.451   4.176  3.1874 -1.5418 -1.7498
  144OSM    C7S15732   1.662   1.590   4.325 -0.1373 -0.1422  0.0467
  144OSM    H7S15733   1.555   1.619   4.336 -0.6636 -2.4072  2.0541
  144OSM    H7T15734   1.730   1.677   4.330  0.2779 -0.3309 -1.8024
  144OSM    C8S15735   1.694   1.486   4.430 -0.0493 -0.1897 -0.1708
  144OSM    H8S15736   1.780   1.418   4.416 -1.2458 -1.7767 -0.0497
  144OSM    H8T15737   1.610   1.415   4.438  0.9620 -1.4099 -0.1083
  144OSM    C9S15738   1.714   1.560   4.567 -0.1928 -0.4171  0.2096
  144OSM    H9S15739   1.796   1.628   4.535  1.6443 -2.7269 -0.3567
  144OSM    H9T15740   1.756   1.491   4.644 -0.6204  0.5681  1.3431
  144OSM   C10S15741   1.595   1.644   4.617  0.1015  0.1922  0.0643
  144OSM   H10S15742   1.504   1.582   4.622 -0.7612  1.3695 -0.5391
  144OSM   H10T15743   1.567   1.728   4.549 -3.0822 -0.7173  0.0975
  144OSM   C11S15744   1.622   1.715   4.750  0.3490 -0.3839 -0.3701
  144OSM   H11S15745   1.694   1.797   4.730  0.9390 -0.9601 -0.6220
  144OSM   H11T15746   1.672   1.639   4.813 -0.2966  0.8812  1.7725
  144OSM   C12S15747   1.493   1.772   4.810  0.2906 -0.0748  0.4100
  144OSM   H12S15748   1.421   1.689   4.798 -0.1934  0.2596  0.9362
  144OSM   H12T15749   1.449   1.862   4.763  2.3696  1.0435  0.4672
  144OSM   C13S15750   1.517   1.817   4.955 -0.0191  0.2472 -0.2416
  144OSM   H13S15751   1.605   1.882   4.975 -1.3569  1.8066  0.9008
  144OSM   H13T15752   1.541   1.721   5.007 -3.1292 -1.8071 -2.2614
  144OSM   C14S15753   1.389   1.853   5.035 -0.1015  0.4650 -0.0608
  144OSM   H14S15754   1.329   1.760   5.023  1.4418 -0.5432 -0.1034
  144OSM   H14T15755   1.336   1.938   4.987 -1.1877  0.8722  1.7408
  144OSM   C15S15756   1.412   1.885   5.182  0.0712  0.1480 -0.1188
  144OSM   H15S15757   1.478   1.974   5.194 -1.5612  1.0574  3.2143
  144OSM   H15T15758   1.470   1.807   5.236  1.4273 -2.3946 -4.6169
  144OSM   C16S15759   1.287   1.932   5.258  0.2093  0.1815 -0.6604
  144OSM   H16S15760   1.230   1.991   5.183 -1.7568 -1.8232 -0.8386
  144OSM   H16T15761   1.315   1.994   5.345  0.7096 -0.6549 -0.2106
  144OSM   C17S15762   1.191   1.818   5.298 -0.4423 -0.1068 -0.1726
  144OSM   H17S15763   1.211   1.727   5.238  1.1964 -1.9486  2.8941
  144OSM   H17T15764   1.086   1.845   5.275 -0.8114  0.0346  1.5226
  144OSM   C18S15765   1.199   1.774   5.440  0.2677 -0.7824 -0.1760
  144OSM   H18S15766   1.121   1.696   5.458 -2.7632  2.0416 -0.0485
  144OSM   H18T15767   1.201   1.853   5.519  0.4264 -0.0463 -0.9083
  144OSM   H18U15768   1.298   1.727   5.457  1.5941  1.3977 -1.5449
  144OSM    C1F15769   1.260   1.910   4.187  0.6801  0.2934  0.3312
  144OSM     OF15770   1.190   1.817   4.146 -0.0843  0.1153 -0.7285
  144OSM    C2F15771   1.205   2.016   4.271  0.2912 -0.1072 -0.2579
  144OSM    H2F15772   1.126   2.075   4.219 -0.2454 -0.5904 -0.0008
  144OSM    H2G15773   1.277   2.099   4.290 -0.2258  0.1431  0.7326
  144OSM    C3F15774   1.127   1.960   4.389 -0.6587  0.3364  0.1544
  144OSM    H3F15775   1.042   1.912   4.338 -1.3207 -0.2623  1.7723
  144OSM    H3G15776   1.092   2.049   4.446 -0.0303  1.9512 -1.8322
  144OSM    C4F15777   1.214   1.864   4.476 -0.0544 -0.4835 -0.4551
  144OSM    H4F15778   1.311   1.916   4.490 -0.4273  0.1407 -0.1413
  144OSM    H4G15779   1.228   1.769   4.420 -1.6278 -0.3039 -1.2312
  144OSM    C5F15780   1.154   1.825   4.618  0.1676 -0.0602 -0.8050
  144OSM    H5F15781   1.194   1.731   4.661 -0.2741 -0.1654 -0.6220
  144OSM    H5G15782   1.051   1.809   4.581 -0.2529  1.3015 -0.2861
  144OSM    C6F15783   1.161   1.938   4.724  0.3158 -0.7510 -0.5813
  144OSM    H6F15784   1.115   2.030   4.682  0.9704  0.2630  0.8045
  144OSM    H6G15785   1.266   1.969   4.745  0.2479  0.9632 -2.4818
  144OSM    C7F15786   1.088   1.903   4.851 -0.0856  0.7516 -1.0560
  144OSM    H7F15787   1.129   1.968   4.931  2.1486 -0.5020 -1.1158
  144OSM    H7G15788   1.121   1.803   4.887 -0.3981  2.0757  3.4417
  144OSM    C8F15789   0.930   1.899   4.836  0.4398  0.5472  0.2573
  144OSM    H8F15790   0.876   1.848   4.918 -3.4331  2.1288 -1.0730
  144OSM    H8G15791   0.913   1.830   4.750  0.4839 -2.4363  2.4926
  144OSM    C9F15792   0.861   2.038   4.828 -0.1962 -0.6968 -0.7449
  144OSM    H9F15793   0.866   2.096   4.735  1.0833 -1.4431 -1.1675
  144OSM   C10F15794   0.806   2.100   4.935 -0.2972 -0.7077  0.5924
  144OSM   H10F15795   0.759   2.195   4.908 -1.1103 -0.9191  1.2338
  144OSM   C11F15796   0.789   2.048   5.073  0.0163  0.2173 -0.2035
  144OSM   H11F15797   0.788   1.937   5.081 -0.9446  0.3359  3.4578
  144OSM   H11G15798   0.684   2.078   5.094 -0.5884 -1.0150 -1.3190
  144OSM   C12F15799   0.893   2.111   5.167 -0.8975 -0.0483 -0.2855
  144OSM   H12F15800   0.874   2.220   5.157 -0.4709  0.0910  0.3439
  144OSM   H12G15801   0.999   2.086   5.148  0.2219  2.2983  2.1449
  144OSM   C13F15802   0.867   2.078   5.313  0.4436 -0.1647  0.3722
  144OSM   H13F15803   0.868   1.967   5.314  0.5990 -0.1855  2.6475
  144OSM   H13G15804   0.767   2.121   5.336  0.3061 -0.0706 -0.3755
  144OSM   C14F15805   0.967   2.128   5.417 -0.4928 -0.4973 -0.1866
  144OSM   H14F15806   0.990   2.233   5.388  0.5959 -1.0872 -1.5968
  144OSM   H14G15807   1.067   2.078   5.411  0.0054  0.5178 -0.5779
  144OSM   C15F15808   0.920   2.106   5.564 -0.4602 -0.5058  0.3051
  144OSM   H15F15809   0.818   2.143   5.585 -0.7387 -1.5284  0.8074
  144OSM   H15G15810   0.999   2.164   5.616 -0.0554  1.2598 -2.1043
  144OSM   C16F15811   0.928   1.963   5.614 -0.1375  0.3293 -0.6826
  144OSM   H16F15812   1.033   1.931   5.596 -0.6247 -1.1445 -1.0590
  144OSM   H16G15813   0.861   1.898   5.554 -0.6977 -0.3109  0.5832
  144OSM   C17F15814   0.900   1.957   5.766  0.0608 -0.0455  0.1115
  144OSM   H17F15815   0.965   2.034   5.813  0.7484  0.6693 -1.9383
  144OSM   H17G15816   0.935   1.857   5.800 -0.8163 -1.0273 -1.7585
  144OSM   C18F15817   0.745   1.966   5.803 -1.0804  0.6596  0.3011
  144OSM   H18F15818   0.705   1.869   5.766  0.4156  0.1635 -0.0943
  144OSM   H18G15819   0.708   2.054   5.745 -0.9100  0.2217 -0.4927
  144OSM   H18H15820   0.738   1.977   5.913 -0.3441  1.5661  0.2657
  145SAPE     N15821   3.219   4.097   8.065 -0.0540  0.1737 -0.7203
  145SAPE   HN115822   3.277   4.182   8.081 -1.1310  0.6490  0.8265
  145SAPE   HN215823   3.127   4.127   8.103  1.1170 -0.1508  2.6466
  145SAPE   HN315824   3.250   4.014   8.118 -4.6338  0.6154  3.2850
  145SAPE   C1215825   3.227   4.076   7.916  0.0663  0.2215  0.9601
  145SAPE  H12A15826   3.332   4.045   7.893  0.2562  1.3366  0.2420
  145SAPE  H12B15827   3.201   4.165   7.855  1.2681 -0.5897 -0.8349
  145SAPE   C1115828   3.134   3.958   7.876  0.6499 -0.4086 -0.5743
  145SAPE  H11A15829   3.136   3.928   7.769  0.7122  0.9403 -0.9664
  145SAPE  H11B15830   3.029   3.989   7.889 -0.1163 -2.5892 -1.0214
  145SAPE     P15831   3.043   3.735   7.997  0.1248  0.0583  0.1198
  145SAPE   O1315832   3.103   3.622   8.073 -0.0479  0.1075  0.2047
  145SAPE   O1415833   2.937   3.812   8.058  0.1055 -0.2422 -0.6570
  145SAPE   O1215834   3.154   3.845   7.962 -0.4994 -0.3585 -0.1715
  145SAPE   O1115835   3.008   3.687   7.849  0.0412 -0.1814 -0.0770
  145SAPE    C115836   3.017   3.559   7.798 -0.0056  0.3182  0.0196
  145SAPE    HA15837   3.099   3.505   7.850 -1.9868 -0.4505  2.5566
  145SAPE    HB15838   2.929   3.502   7.832  1.1869 -2.1858 -0.8408
  145SAPE    C215839   3.011   3.559   7.643 -0.6452 -0.1224  0.4983
  145SAPE    HS15840   3.034   3.457   7.606  0.7323  0.8252 -1.4363
  145SAPE   O2115841   3.117   3.639   7.590 -0.2416 -0.6193  0.5204
  145SAPE   C2115842   3.242   3.608   7.626 -0.7619 -0.1821  0.5094
  145SAPE   O2215843   3.275   3.501   7.677 -0.2246  0.1243 -0.5745
  145SAPE   C2215844   3.339   3.723   7.583  0.2591 -0.1431  0.0278
  145SAPE   H2R15845   3.284   3.817   7.602 -0.0565 -0.9336  3.7890
  145SAPE   H2S15846   3.417   3.729   7.663  1.0788  0.2128 -0.7791
  145SAPE    C315847   2.874   3.607   7.585  0.3381  0.3442  0.7225
  145SAPE    HX15848   2.874   3.718   7.598  0.1146  0.7241 -1.9456
  145SAPE    HY15849   2.806   3.550   7.652 -1.0357  0.4976 -0.5024
  145SAPE   O3115850   2.837   3.567   7.446 -0.5423  0.1180  0.6059
  145SAPE   C3115851   2.711   3.575   7.412  0.2834  0.2588 -1.0633
  145SAPE   O3215852   2.623   3.605   7.495 -0.0469  0.0147 -0.3233
  145SAPE   C3215853   2.686   3.541   7.263 -0.1487  0.2086  0.4597
  145SAPE   H2X15854   2.577   3.544   7.240 -0.3244 -1.5298  0.9229
  145SAPE   H2Y15855   2.700   3.431   7.263 -2.9733 -0.2347  0.1445
  145SAPE   C2315856   3.401   3.713   7.443 -0.0821  0.8659  0.7024
  145SAPE   H3R15857   3.424   3.609   7.412 -0.4169  1.4692 -1.7774
  145SAPE   H3S15858   3.497   3.769   7.445 -0.7326  2.0025  1.0419
  145SAPE   C2415859   3.299   3.777   7.342 -0.4477  0.2046  0.5594
  145SAPE   H4R15860   3.373   3.819   7.270 -1.6977  1.8458  0.1700
  145SAPE   H4S15861   3.244   3.853   7.402 -0.1497  1.1993 -0.3923
  145SAPE   C2515862   3.197   3.689   7.274 -0.5629 -0.1926  0.0211
  145SAPE   H5R15863   3.124   3.647   7.344 -0.9977 -2.0559 -1.4760
  145SAPE   C2615864   3.185   3.669   7.143 -0.3604  0.9851 -0.2323
  145SAPE   H6R15865   3.109   3.602   7.103 -1.9122  0.9738  2.5295
  145SAPE   C2715866   3.276   3.721   7.031  0.0248 -0.4672  0.4170
  145SAPE   H7R15867   3.364   3.774   7.071 -0.6340  1.6493 -0.7589
  145SAPE   H7S15868   3.222   3.799   6.972 -1.3939 -0.2556  1.9251
  145SAPE   C2815869   3.334   3.602   6.944 -0.0129 -0.2444 -0.8466
  145SAPE   H8R15870   3.375   3.516   6.999 -1.7834 -0.1020  0.8016
  145SAPE   C2915871   3.327   3.585   6.813  0.0756 -0.5094 -0.1733
  145SAPE   H9R15872   3.377   3.495   6.774 -0.1603 -2.1370  2.9930
  145SAPE  C21015873   3.267   3.665   6.703  0.4572  0.0105  0.2165
  145SAPE  H10R15874   3.220   3.751   6.756 -2.2675 -0.2956 -1.4705
  145SAPE  H10S15875   3.176   3.612   6.668  0.7068 -0.5829  0.4554
  145SAPE  C21115876   3.359   3.709   6.588  0.4968 -0.4722 -0.3911
  145SAPE  H11R15877   3.454   3.760   6.609 -0.1428  0.8403 -0.6128
  145SAPE  C21215878   3.339   3.685   6.456 -0.3641 -0.7020 -0.2310
  145SAPE  H12R15879   3.420   3.715   6.388  0.7865  0.6748  1.6619
  145SAPE  C21315880   3.221   3.617   6.388 -0.0247  0.4734  0.6420
  145SAPE  H13R15881   3.156   3.567   6.464 -0.0932 -2.9764 -1.4775
  145SAPE  H13S15882   3.244   3.533   6.320 -2.8759 -0.9117  1.2217
  145SAPE  C21415883   3.137   3.717   6.310  0.7470  0.1833  0.2241
  145SAPE  H14R15884   3.100   3.795   6.379 -2.0546 -0.2527 -0.6568
  145SAPE  C21515885   3.120   3.741   6.176  0.0089 -0.7974  0.4074
  145SAPE  H15R15886   3.043   3.816   6.151  1.2455  1.4517  2.8723
  145SAPE  C21615887   3.172   3.677   6.051 -0.2952 -0.2917 -0.3647
  145SAPE  H16R15888   3.105   3.706   5.967 -0.0306 -0.2047 -0.5456
  145SAPE  H16S15889   3.160   3.569   6.074 -0.1471  0.2383  2.5587
  145SAPE  C21715890   3.317   3.690   6.018 -0.7764  0.1708 -0.0529
  145SAPE  H17R15891   3.378   3.633   6.091 -4.0340 -1.7264  1.4165
  145SAPE  H17S15892   3.352   3.794   6.033  3.1966 -0.5795 -2.7545
  145SAPE  C21815893   3.350   3.636   5.880  0.0804  0.5194  0.0047
  145SAPE  H18R15894   3.280   3.676   5.804 -0.5755  0.6038  0.6394
  145SAPE  H18S15895   3.334   3.526   5.880 -3.5318  0.9145  1.2779
  145SAPE  C21915896   3.483   3.662   5.821  0.1397 -0.4482  0.4668
  145SAPE  H19R15897   3.501   3.771   5.814  1.4779 -0.6737 -0.0417
  145SAPE  H19S15898   3.467   3.635   5.714 -0.7100  0.2842  0.3973
  145SAPE  C22015899   3.606   3.592   5.881 -0.1825 -0.3290 -0.5571
  145SAPE  H20R15900   3.588   3.483   5.896 -2.5651 -0.0618 -1.0326
  145SAPE  H20S15901   3.640   3.624   5.982 -2.5921  0.7971 -0.0179
  145SAPE  H20T15902   3.694   3.614   5.819  0.2479 -0.6692 -0.0781
  145SAPE   C3315903   2.769   3.626   7.161 -0.1320  0.0951  0.2910
  145SAPE   H3X15904   2.875   3.600   7.178  0.4039  1.8163 -0.2577
  145SAPE   H3Y15905   2.746   3.733   7.179  0.2553  1.0803 -3.9754
  145SAPE   C3415906   2.740   3.603   7.012  0.7594 -0.1518 -1.3959
  145SAPE   H4X15907   2.630   3.603   6.999  0.5405  2.1536 -0.1762
  145SAPE   H4Y15908   2.783   3.509   6.971  1.9368  0.8951 -2.7069
  145SAPE   C3515909   2.802   3.719   6.930  0.4499  0.2054  0.1561
  145SAPE   H5X15910   2.912   3.726   6.941  0.5978 -0.7292 -0.6222
  145SAPE   H5Y15911   2.778   3.823   6.962 -0.1369  0.6056 -1.4937
  145SAPE   C3615912   2.780   3.697   6.783 -0.7399 -0.8076  1.3197
  145SAPE   H6X15913   2.675   3.726   6.761 -1.7291 -3.5023  2.0509
  145SAPE   H6Y15914   2.799   3.590   6.759  1.0769  0.0415 -1.5350
  145SAPE   C3715915   2.881   3.777   6.703 -0.3041 -0.2409  0.1622
  145SAPE   H7X15916   2.983   3.740   6.727 -1.0430 -1.2237  1.9775
  145SAPE   H7Y15917   2.896   3.884   6.729  1.9417 -0.2759 -0.8436
  145SAPE   C3815918   2.858   3.783   6.550 -0.1642  0.2127  0.6226
  145SAPE   H8X15919   2.884   3.693   6.491 -1.8461  0.7109 -0.9900
  145SAPE   H8Y15920   2.906   3.877   6.514  2.0921 -0.5000  1.6424
  145SAPE   C3915921   2.704   3.810   6.509 -0.0727  0.1712 -0.7354
  145SAPE   H9X15922   2.662   3.869   6.593  1.1096  1.3290 -0.9205
  145SAPE   H9Y15923   2.665   3.706   6.510  1.5300 -0.6219  3.9209
  145SAPE  C31015924   2.693   3.862   6.372 -0.0522  0.2388 -0.7828
  145SAPE  H10X15925   2.734   3.785   6.304  1.6158 -0.1240  0.5589
  145SAPE  H10Y15926   2.761   3.951   6.365  1.4442 -0.7450  0.5479
  145SAPE  C31115927   2.553   3.890   6.339  0.0006 -0.5717  0.7562
  145SAPE  H11X15928   2.507   3.952   6.419  0.3458 -0.2962  0.7457
  145SAPE  H11Y15929   2.486   3.802   6.337  0.4309 -0.9393  1.7048
  145SAPE  C31215930   2.563   3.966   6.202  0.6482 -0.7119 -0.2065
  145SAPE  H12X15931   2.589   3.890   6.125  1.9986 -0.6655  0.1773
  145SAPE  H12Y15932   2.643   4.043   6.204  0.1598 -0.2038 -0.0660
  145SAPE  C31315933   2.417   4.006   6.161  0.3852  0.1586 -0.3796
  145SAPE  H13X15934   2.362   4.068   6.235 -0.1057  1.5574 -1.8569
  145SAPE  H13Y15935   2.354   3.914   6.168 -2.8496  2.0323 -2.2564
  145SAPE  C31415936   2.400   4.062   6.016  0.3805  0.2521  0.1372
  145SAPE  H14X15937   2.292   4.067   5.992  0.0936  1.6207  1.5691
  145SAPE  H14Y15938   2.446   3.997   5.938 -0.6410 -0.5261  0.1686
  145SAPE  C31515939   2.457   4.197   5.999  0.4015 -0.3190  0.6139
  145SAPE  H15X15940   2.568   4.190   5.997  0.4147 -0.0011 -0.0943
  145SAPE  H15Y15941   2.408   4.258   6.079 -2.6015 -0.3365 -1.0898
  145SAPE  C31615942   2.415   4.275   5.867 -0.5912  0.1100  0.0938
  145SAPE  H16X15943   2.304   4.276   5.867 -0.6131 -0.9631  1.1914
  145SAPE  H16Y15944   2.443   4.206   5.785  0.6142  0.9861 -0.2672
  145SAPE  C31715945   2.470   4.415   5.855 -0.1744 -0.0686 -0.1625
  145SAPE  H17X15946   2.456   4.448   5.750  1.3784  0.7446 -0.1458
  145SAPE  H17Y15947   2.581   4.411   5.868 -0.0988  1.5157 -0.1715
  145SAPE  C31815948   2.409   4.520   5.941 -0.1581 -0.3761  0.4711
  145SAPE  H18X15949   2.307   4.554   5.911 -0.2505 -0.2292  0.9429
  145SAPE  H18Y15950   2.468   4.613   5.926  0.7293 -0.7774  1.4048
  145SAPE  H18Z15951   2.406   4.483   6.046 -0.2687  0.3338  0.7227
  146SAPE     N15952   0.376   3.407   8.067 -0.3139 -0.4481 -0.0504
  146SAPE   HN115953   0.322   3.495   8.080  1.4603  0.6033  0.6298
  146SAPE   HN215954   0.453   3.389   8.134 -0.0442  0.5049 -0.0832
  146SAPE   HN315955   0.430   3.417   7.979 -0.0740 -2.5902 -0.1874
  146SAPE   C1215956   0.295   3.283   8.068  0.2328 -0.0266  0.5998
  146SAPE  H12A15957   0.203   3.307   8.011  1.0738 -0.5210 -1.0565
  146SAPE  H12B15958   0.264   3.271   8.174 -1.9168 -2.0542 -0.1899
  146SAPE   C1115959   0.374   3.177   7.994  0.2403 -0.3793  0.3916
  146SAPE  H11A15960   0.374   3.202   7.885  2.3852 -0.7036  0.2656
  146SAPE  H11B15961   0.319   3.081   8.006  0.8271 -0.4482  3.0700
  146SAPE     P15962   0.564   3.036   8.090  0.4037 -0.4266 -0.2846
  146SAPE   O1315963   0.707   3.038   8.112  0.0881 -0.5007 -0.4786
  146SAPE   O1415964   0.489   2.990   8.210  0.5905  0.3544  0.1278
  146SAPE   O1215965   0.507   3.169   8.036 -0.9493  0.1943 -0.1808
  146SAPE   O1115966   0.517   2.941   7.971 -0.0662 -0.6932  0.5233
  146SAPE    C115967   0.587   2.960   7.847 -0.0637  0.2826  0.0559
  146SAPE    HA15968   0.640   3.056   7.832 -2.3967  1.8328  1.0894
  146SAPE    HB15969   0.663   2.879   7.852 -0.8300 -0.5927 -1.5405
  146SAPE    C215970   0.494   2.962   7.718  0.9012 -0.0389 -0.1418
  146SAPE    HS15971   0.411   3.035   7.734 -0.7810 -1.6521 -1.1246
  146SAPE   O2115972   0.457   2.822   7.701  0.4940 -0.2808 -0.3428
  146SAPE   C2115973   0.332   2.792   7.647 -1.0298  0.1266 -0.1141
  146SAPE   O2215974   0.264   2.879   7.604  0.0090 -0.7061 -0.2636
  146SAPE   C2215975   0.309   2.640   7.640  0.2767 -0.0813 -0.0080
  146SAPE   H2R15976   0.339   2.608   7.742  1.2073 -0.1418 -0.2958
  146SAPE   H2S15977   0.199   2.628   7.628  0.3077  1.0654 -1.7272
  146SAPE    C315978   0.574   3.020   7.592 -0.1896  0.7397  0.2945
  146SAPE    HX15979   0.654   2.943   7.600 -3.0534 -2.5516 -0.4922
  146SAPE    HY15980   0.626   3.117   7.612  1.9052 -0.2769  0.0754
  146SAPE   O3115981   0.498   3.006   7.468  0.8327  0.5586 -0.5329
  146SAPE   C3115982   0.405   3.100   7.446  0.4421  0.3136 -0.0798
  146SAPE   O3215983   0.384   3.194   7.519  0.2293 -0.6806 -0.4801
  146SAPE   C3215984   0.316   3.060   7.323  0.1773  0.2589 -0.4115
  146SAPE   H2X15985   0.254   3.150   7.303  1.6132  1.7316  1.3067
  146SAPE   H2Y15986   0.246   2.983   7.361  0.4965  0.8644  1.5574
  146SAPE   C2315987   0.379   2.581   7.517  0.4247  0.5503 -0.3590
  146SAPE   H3R15988   0.371   2.471   7.520  1.8680  0.4171 -0.5359
  146SAPE   H3S15989   0.488   2.600   7.520  0.4698  0.1586  0.5527
  146SAPE   C2415990   0.319   2.638   7.382  0.1170 -0.1316 -0.0350
  146SAPE   H4R15991   0.322   2.748   7.391  0.4906 -0.1774  0.4750
  146SAPE   H4S15992   0.210   2.617   7.388  0.4599 -1.6635  3.8518
  146SAPE   C2515993   0.380   2.591   7.249 -0.3748 -0.2659  0.8869
  146SAPE   H5R15994   0.488   2.573   7.239 -0.4958 -0.3309 -0.6090
  146SAPE   C2615995   0.314   2.574   7.128 -1.0859  0.5596  0.2706
  146SAPE   H6R15996   0.376   2.553   7.040  0.3921 -0.4630  1.5142
  146SAPE   C2715997   0.173   2.602   7.102  0.2423 -0.2288 -0.2666
  146SAPE   H7R15998   0.166   2.641   6.998 -0.7221 -0.3706 -0.2660
  146SAPE   H7S15999   0.136   2.688   7.162  2.9674 -0.0839  1.3901
  146SAPE   C2816000   0.080   2.485   7.141 -0.3279 -0.5526 -0.0620
  146SAPE   H8R16001   0.058   2.471   7.248  1.8510  0.2789  0.5378
  146SAPE   C2916002   0.023   2.406   7.052  0.8360 -0.2064 -0.1602
  146SAPE   H9R16003  -0.038   2.325   7.096  0.0483  1.2629  1.6168
  146SAPE  C21016004   0.031   2.421   6.903 -0.3354 -0.2053 -0.6190
  146SAPE  H10R16005   0.026   2.319   6.857 -0.0705 -0.8166  0.6561
  146SAPE  H10S16006   0.124   2.470   6.866 -0.0457  1.3022  1.8662
  146SAPE  C21116007  -0.086   2.494   6.849 -0.0761 -0.2409 -0.2040
  146SAPE  H11R16008  -0.151   2.548   6.919 -0.5340 -0.2639 -0.6050
  146SAPE  C21216009  -0.113   2.506   6.717  0.1643 -0.1157  0.3843
  146SAPE  H12R16010  -0.208   2.550   6.683  0.1486 -1.0527 -0.8824
  146SAPE  C21316011  -0.036   2.446   6.602 -0.0919  0.3576 -0.3505
  146SAPE  H13R16012  -0.095   2.358   6.568  1.4402 -0.0940 -1.9929
  146SAPE  H13S16013   0.055   2.403   6.648  1.2125  1.3770 -1.8794
  146SAPE  C21416014   0.006   2.540   6.489 -0.4569 -1.0369 -0.3661
  146SAPE  H14R16015   0.047   2.633   6.531 -1.0440 -1.6346  1.6542
  146SAPE  C21516016  -0.009   2.529   6.353 -0.4556  0.9038 -0.7694
  146SAPE  H15R16017   0.020   2.617   6.294 -0.0863  0.2731 -1.5440
  146SAPE  C21616018  -0.066   2.422   6.271  0.5836  0.2630 -0.8027
  146SAPE  H16R16019  -0.171   2.447   6.244 -0.2823 -1.1585  1.0299
  146SAPE  H16S16020  -0.066   2.332   6.335 -1.3757  1.3368  0.8522
  146SAPE  C21716021   0.023   2.379   6.155  0.5916  0.2490 -0.2325
  146SAPE  H17R16022   0.114   2.331   6.198 -1.3703 -3.5824  0.0692
  146SAPE  H17S16023   0.048   2.471   6.097 -0.3372  1.0508  0.6007
  146SAPE  C21816024  -0.069   2.293   6.056 -1.0235 -0.4727 -0.4156
  146SAPE  H18R16025  -0.146   2.234   6.110 -0.9817 -0.0989  0.0645
  146SAPE  H18S16026   0.002   2.220   6.012  0.0384  0.4410 -0.2822
  146SAPE  C21916027  -0.137   2.372   5.946  0.0721  0.0852 -0.1571
  146SAPE  H19R16028  -0.064   2.408   5.870 -1.1374  0.4920 -1.1595
  146SAPE  H19S16029  -0.183   2.465   5.986 -2.1709 -0.5888 -1.0112
  146SAPE  C22016030  -0.243   2.297   5.864 -0.3243 -0.3511 -0.3879
  146SAPE  H20R16031  -0.325   2.264   5.930  0.6587 -2.0589  0.0534
  146SAPE  H20S16032  -0.194   2.205   5.824  2.0850  1.3589 -1.6693
  146SAPE  H20T16033  -0.272   2.353   5.772  0.8085  0.0843 -0.5075
  146SAPE   C3316034   0.385   3.011   7.194  0.1123 -0.3782  0.0049
  146SAPE   H3X16035   0.447   2.923   7.221 -0.0127 -0.3774  0.2889
  146SAPE   H3Y16036   0.447   3.095   7.154 -0.4069 -0.5578 -1.2357
  146SAPE   C3416037   0.298   2.960   7.077  0.3972 -0.3258  1.1604
  146SAPE   H4X16038   0.232   3.044   7.047  0.4106 -0.8980 -0.5948
  146SAPE   H4Y16039   0.232   2.876   7.106 -0.7811  0.4156  0.7007
  146SAPE   C3516040   0.384   2.946   6.947  0.5078  0.1254 -0.7568
  146SAPE   H5X16041   0.473   2.882   6.968  1.1242  1.2695  0.2079
  146SAPE   H5Y16042   0.424   3.048   6.926 -1.3319  1.3893  1.4847
  146SAPE   C3616043   0.307   2.876   6.841 -1.0476 -0.2224  0.4812
  146SAPE   H6X16044   0.211   2.922   6.811 -2.4680 -3.0279  0.3553
  146SAPE   H6Y16045   0.275   2.770   6.849  1.3391 -0.9868  0.9625
  146SAPE   C3716046   0.393   2.871   6.708 -0.9813  0.1619  0.7314
  146SAPE   H7X16047   0.489   2.822   6.736 -1.2262 -1.1516 -0.6055
  146SAPE   H7Y16048   0.408   2.977   6.681 -1.9709  0.7605  2.3902
  146SAPE   C3816049   0.326   2.795   6.596 -0.1503  0.2905  0.4247
  146SAPE   H8X16050   0.227   2.842   6.578 -0.4147 -0.6858 -0.7759
  146SAPE   H8Y16051   0.325   2.688   6.623  0.3239  0.3028  0.5138
  146SAPE   C3916052   0.392   2.819   6.457 -0.7195  0.1816  0.2800
  146SAPE   H9X16053   0.498   2.787   6.463  0.3060  2.2959 -3.3645
  146SAPE   H9Y16054   0.389   2.926   6.425  2.0609 -0.3439 -2.0703
  146SAPE  C31016055   0.318   2.734   6.349  0.8965  0.0172 -0.2582
  146SAPE  H10X16056   0.215   2.774   6.339  0.6503 -0.5272  0.0534
  146SAPE  H10Y16057   0.292   2.637   6.396 -2.9788  0.4396 -1.1870
  146SAPE  C31116058   0.385   2.709   6.215 -0.9225 -0.4047 -0.6317
  146SAPE  H11X16059   0.337   2.622   6.166  0.1872 -1.3685 -0.0411
  146SAPE  H11Y16060   0.489   2.681   6.241 -1.4457 -1.3118  0.5759
  146SAPE  C31216061   0.389   2.814   6.114  0.4448 -0.6124  0.0648
  146SAPE  H12X16062   0.424   2.909   6.161  1.2520 -0.5912 -0.5593
  146SAPE  H12Y16063   0.290   2.843   6.073  0.7509 -0.9551 -0.9223
  146SAPE  C31316064   0.484   2.782   5.999  0.5534  0.2754  0.3550
  146SAPE  H13X16065   0.503   2.677   5.969 -0.2489 -0.0913  1.0676
  146SAPE  H13Y16066   0.579   2.826   6.035 -0.1765  1.6872  0.6526
  146SAPE  C31416067   0.435   2.855   5.881 -0.2154 -0.6096  0.4057
  146SAPE  H14X16068   0.430   2.964   5.901 -3.4620 -0.3676 -1.0826
  146SAPE  H14Y16069   0.333   2.824   5.851 -0.3384 -0.5872  0.7922
  146SAPE  C31516070   0.520   2.838   5.755  0.0863 -0.3654  0.3865
  146SAPE  H15X16071   0.495   2.734   5.724  0.5973 -0.9907  1.9514
  146SAPE  H15Y16072   0.627   2.835   5.783  0.2333  3.1909  0.5643
  146SAPE  C31616073   0.505   2.943   5.647 -0.2154  0.4078 -0.3367
  146SAPE  H16X16074   0.496   3.045   5.691  1.1385  0.3525  0.1223
  146SAPE  H16Y16075   0.406   2.927   5.600 -0.9109  3.1412  0.0198
  146SAPE  C31716076   0.619   2.945   5.547  0.2616  0.9297 -0.2126
  146SAPE  H17X16077   0.710   2.954   5.610  0.4093 -1.0043 -0.1073
  146SAPE  H17Y16078   0.614   3.029   5.474  1.2951 -0.2208 -1.6585
  146SAPE  C31816079   0.624   2.816   5.466 -0.4628 -0.5621 -0.4493
  146SAPE  H18X16080   0.540   2.800   5.396 -0.9323 -0.3794  0.0688
  146SAPE  H18Y16081   0.644   2.726   5.528  1.2706  0.3298  0.3618
  146SAPE  H18Z16082   0.703   2.829   5.389  0.2217  3.1006  0.6427
  147SAPE     N16083   4.810   0.571   8.301 -0.1576  0.4196  0.5547
  147SAPE   HN116084   4.865   0.601   8.219 -1.4874  0.4992 -0.3306
  147SAPE   HN216085   4.730   0.507   8.281  1.9748 -1.9834 -0.9951
  147SAPE   HN316086   4.773   0.656   8.348 -0.6183 -0.6269  2.1766
  147SAPE   C1216087   4.908   0.484   8.389 -0.0939  0.0293 -0.2800
  147SAPE  H12A16088   4.843   0.433   8.464 -1.9090  0.6773 -1.3574
  147SAPE  H12B16089   4.975   0.561   8.433  0.0868  0.3696 -1.1334
  147SAPE   C1116090   4.970   0.370   8.310  0.3255 -0.1947 -0.5859
  147SAPE  H11A16091   4.896   0.306   8.258 -3.3331  2.5041  0.8723
  147SAPE  H11B16092   5.021   0.300   8.380 -1.0817  0.9619  1.7338
  147SAPE     P16093   5.213   0.414   8.214  0.3751  0.3726 -0.0208
  147SAPE   O1316094   5.276   0.538   8.271  0.1302  0.9399  0.4286
  147SAPE   O1416095   5.253   0.281   8.264  0.4290 -0.1716  0.3163
  147SAPE   O1216096   5.060   0.427   8.221 -0.0416  0.1196 -0.2683
  147SAPE   O1116097   5.242   0.410   8.058  0.7388  0.2032  0.0986
  147SAPE    C116098   5.205   0.523   7.979 -0.3308  0.0278 -0.0211
  147SAPE    HA16099   5.110   0.503   7.924  0.0043 -0.3668 -0.4654
  147SAPE    HB16100   5.193   0.616   8.039  1.8314 -0.8758  1.9825
  147SAPE    C216101   5.317   0.553   7.868  0.1193 -0.2010 -0.0030
  147SAPE    HS16102   5.280   0.639   7.808 -1.2665  0.6300  1.9368
  147SAPE   O2116103   5.326   0.439   7.787  0.3110  0.5014  0.4818
  147SAPE   C2116104   5.235   0.438   7.683 -0.3009 -0.7298  0.1453
  147SAPE   O2216105   5.147   0.519   7.669  0.0992  0.1937  0.1803
  147SAPE   C2216106   5.269   0.307   7.613 -0.2894 -0.2276  0.8835
  147SAPE   H2R16107   5.258   0.224   7.686 -0.5147 -1.7582 -0.8252
  147SAPE   H2S16108   5.195   0.287   7.533 -1.8917  1.0202  1.9866
  147SAPE    C316109   5.451   0.598   7.930  0.2722 -0.3145  0.6027
  147SAPE    HX16110   5.494   0.512   7.985 -0.4640  0.3297  2.2666
  147SAPE    HY16111   5.444   0.683   8.001 -0.1689  0.4551 -0.3278
  147SAPE   O3116112   5.531   0.632   7.815 -0.0670 -0.1144 -0.5256
  147SAPE   C3116113   5.665   0.608   7.823 -0.0528 -0.3238  0.2907
  147SAPE   O3216114   5.726   0.563   7.917 -0.0198  0.0129 -0.3585
  147SAPE   C3216115   5.727   0.649   7.685  0.2141  0.5360  0.4066
  147SAPE   H2X16116   5.809   0.711   7.729  0.6375 -0.4157  0.9950
  147SAPE   H2Y16117   5.656   0.697   7.615  0.8380 -2.2932 -2.3843
  147SAPE   C2316118   5.408   0.286   7.554 -0.1407 -0.1184  0.0776
  147SAPE   H3R16119   5.420   0.179   7.525 -0.6006  0.2868 -1.7118
  147SAPE   H3S16120   5.486   0.306   7.631  0.6358 -1.4520 -0.3102
  147SAPE   C2416121   5.437   0.376   7.435 -0.1029 -0.2586  0.3057
  147SAPE   H4R16122   5.362   0.346   7.359 -1.6088  2.0093  0.7904
  147SAPE   H4S16123   5.540   0.354   7.400 -0.8154 -0.3900 -1.8445
  147SAPE   C2516124   5.429   0.531   7.467  0.2291  0.2614 -0.1132
  147SAPE   H5R16125   5.502   0.559   7.545  1.1132 -0.8668 -0.5068
  147SAPE   C2616126   5.352   0.624   7.408 -0.1244 -0.1411  0.1504
  147SAPE   H6R16127   5.353   0.728   7.441 -2.1082 -0.1421  0.3437
  147SAPE   C2716128   5.254   0.595   7.301  0.0630  0.1443  0.4189
  147SAPE   H7R16129   5.190   0.685   7.295 -0.9680 -0.4605  1.8867
  147SAPE   H7S16130   5.188   0.510   7.330 -1.6159  0.4097 -2.2671
  147SAPE   C2816131   5.321   0.572   7.170  0.2520  0.8258 -0.2522
  147SAPE   H8R16132   5.426   0.539   7.165  0.0144 -0.2430  1.4081
  147SAPE   C2916133   5.256   0.588   7.050  0.2566 -0.1459  0.4183
  147SAPE   H9R16134   5.308   0.570   6.955 -1.9231 -2.1276 -0.4735
  147SAPE  C21016135   5.113   0.617   7.028 -0.0284  0.4233  0.3674
  147SAPE  H10R16136   5.055   0.607   7.122 -0.4631  1.6039  0.2337
  147SAPE  H10S16137   5.068   0.534   6.970  0.1134  0.4674  0.1953
  147SAPE  C21116138   5.108   0.758   6.973  0.2147 -0.0492 -0.1777
  147SAPE  H11R16139   5.085   0.832   7.051 -0.6064  0.2680 -0.7001
  147SAPE  C21216140   5.112   0.796   6.842  0.0232 -0.2863 -0.0385
  147SAPE  H12R16141   5.100   0.902   6.815 -2.8000 -0.7102 -0.7360
  147SAPE  C21316142   5.145   0.707   6.724  0.8124 -0.3501  0.1389
  147SAPE  H13R16143   5.068   0.627   6.719  0.5640 -0.0974 -0.0817
  147SAPE  H13S16144   5.238   0.650   6.742  0.7431 -1.2795 -2.0751
  147SAPE  C21416145   5.168   0.787   6.601  0.3186 -0.0782 -0.5133
  147SAPE  H14R16146   5.204   0.889   6.621 -1.8065  0.6021  0.0162
  147SAPE  C21516147   5.151   0.747   6.476 -0.9860  0.1299  0.7244
  147SAPE  H15R16148   5.154   0.825   6.399  2.5234 -0.5361  0.0522
  147SAPE  C21616149   5.120   0.609   6.419 -0.4733 -0.3126  0.0279
  147SAPE  H16R16150   5.021   0.600   6.369  0.4124 -1.8573 -1.5847
  147SAPE  H16S16151   5.130   0.530   6.496 -0.4906  1.6704  2.1566
  147SAPE  C21716152   5.217   0.579   6.297 -0.2904  0.0735  0.0513
  147SAPE  H17R16153   5.205   0.473   6.263 -1.2600 -0.0598  0.7680
  147SAPE  H17S16154   5.322   0.590   6.331 -0.0018  0.3882 -0.9207
  147SAPE  C21816155   5.179   0.663   6.174 -0.2048 -0.0277  0.1239
  147SAPE  H18R16156   5.189   0.771   6.194  1.1830  0.3097 -2.0910
  147SAPE  H18S16157   5.075   0.639   6.144 -0.8157  1.5118  0.8906
  147SAPE  C21916158   5.276   0.640   6.051 -0.5403  0.0754 -0.1913
  147SAPE  H19R16159   5.379   0.661   6.088  1.2687  0.9144 -4.8826
  147SAPE  H19S16160   5.257   0.720   5.976 -4.0990  0.6700  1.1348
  147SAPE  C22016161   5.276   0.498   5.991  0.6253 -0.5532  0.4491
  147SAPE  H20R16162   5.175   0.474   5.951 -1.3843  1.4282  3.8530
  147SAPE  H20S16163   5.307   0.423   6.066  1.3373 -0.6888  0.0284
  147SAPE  H20T16164   5.354   0.500   5.912  0.4721  0.0193  0.3073
  147SAPE   C3316165   5.795   0.533   7.603  0.2581 -0.3592  0.7142
  147SAPE   H3X16166   5.736   0.444   7.571 -1.2901  0.7062  0.4714
  147SAPE   H3Y16167   5.871   0.488   7.670 -0.4167 -0.4947  1.4055
  147SAPE   C3416168   5.866   0.584   7.474 -0.3568  0.0416  0.0060
  147SAPE   H4X16169   5.945   0.513   7.442  0.2379  1.0228 -0.7412
  147SAPE   H4Y16170   5.907   0.686   7.489  0.3673 -0.5221  2.3993
  147SAPE   C3516171   5.765   0.579   7.356  0.2229 -0.0128 -0.0923
  147SAPE   H5X16172   5.678   0.644   7.380  0.6520  0.5304  0.0112
  147SAPE   H5Y16173   5.729   0.474   7.348 -1.4216  0.6509 -3.4111
  147SAPE   C3616174   5.816   0.621   7.217 -0.0697  0.2962 -0.8136
  147SAPE   H6X16175   5.916   0.574   7.205  0.8987  2.1529 -0.3956
  147SAPE   H6Y16176   5.839   0.729   7.213 -0.5338  0.3849 -1.4747
  147SAPE   C3716177   5.722   0.583   7.094  0.0878 -0.4198  1.4307
  147SAPE   H7X16178   5.619   0.625   7.083  0.5242 -0.0804 -2.5235
  147SAPE   H7Y16179   5.714   0.473   7.085 -0.9496 -0.2113 -0.8849
  147SAPE   C3816180   5.782   0.622   6.965  0.1404 -0.3397  0.4164
  147SAPE   H8X16181   5.880   0.571   6.954  0.4570 -0.0612  1.7437
  147SAPE   H8Y16182   5.799   0.732   6.968  2.0862 -0.5618 -0.7042
  147SAPE   C3916183   5.700   0.574   6.845  0.9932 -0.2219  0.1928
  147SAPE   H9X16184   5.597   0.617   6.839  0.1779 -2.0094  0.6502
  147SAPE   H9Y16185   5.698   0.463   6.852  0.3379 -0.1435  1.5057
  147SAPE  C31016186   5.760   0.595   6.711 -0.2782 -0.4743  0.4738
  147SAPE  H10X16187   5.859   0.547   6.697  0.8618  1.4230  1.6509
  147SAPE  H10Y16188   5.782   0.703   6.720 -3.0985  0.2040  0.4043
  147SAPE  C31116189   5.667   0.568   6.595 -0.0397  0.2522 -0.1145
  147SAPE  H11X16190   5.603   0.659   6.593 -0.7136 -0.2232 -0.2875
  147SAPE  H11Y16191   5.613   0.472   6.610  0.1423  0.5558  3.1416
  147SAPE  C31216192   5.747   0.555   6.468 -0.3707  0.1621  0.0295
  147SAPE  H12X16193   5.809   0.463   6.478 -1.2996 -0.4164  0.7506
  147SAPE  H12Y16194   5.821   0.637   6.461  0.6618 -0.7636 -0.1354
  147SAPE  C31316195   5.669   0.548   6.332 -0.2501 -0.4360  0.4983
  147SAPE  H13X16196   5.646   0.650   6.297 -0.8921 -0.8017 -0.1559
  147SAPE  H13Y16197   5.580   0.483   6.328 -2.7723  2.6086  2.4116
  147SAPE  C31416198   5.762   0.493   6.212  0.2746 -0.4778  0.1602
  147SAPE  H14X16199   5.817   0.403   6.248  0.2081  0.1847  2.0389
  147SAPE  H14Y16200   5.838   0.572   6.191  0.2355  0.3648  2.7540
  147SAPE  C31516201   5.675   0.468   6.091  0.5387  0.4923 -0.8711
  147SAPE  H15X16202   5.611   0.558   6.081  2.4447  1.9473 -0.3990
  147SAPE  H15Y16203   5.604   0.383   6.104 -1.5994  2.2390 -0.4422
  147SAPE  C31616204   5.760   0.453   5.965 -0.7811 -0.7199 -0.0722
  147SAPE  H16X16205   5.794   0.348   5.976  0.6653 -0.2105  0.6167
  147SAPE  H16Y16206   5.840   0.530   5.970  0.2347 -1.8394  1.7972
  147SAPE  C31716207   5.675   0.459   5.834  0.0564  0.5191  0.4012
  147SAPE  H17X16208   5.626   0.558   5.838 -1.1057 -0.0842  2.1933
  147SAPE  H17Y16209   5.603   0.375   5.827  0.8118 -0.1690  0.7058
  147SAPE  C31816210   5.774   0.453   5.710  0.1783 -0.4530 -0.5948
  147SAPE  H18X16211   5.711   0.479   5.622  0.1996 -0.1214 -0.5134
  147SAPE  H18Y16212   5.817   0.351   5.706  1.5764  0.0453  0.8039
  147SAPE  H18Z16213   5.853   0.529   5.725 -1.5281  0.9786  1.9774
  148SAPE     N16214   2.640   6.571   7.916  0.8326 -0.1902 -0.0323
  148SAPE   HN116215   2.699   6.488   7.892  0.1923 -0.4235 -0.8242
  148SAPE   HN216216   2.690   6.615   7.997 -2.0758  1.2062  1.1267
  148SAPE   HN316217   2.547   6.533   7.942  1.2742 -2.5226 -1.5520
  148SAPE   C1216218   2.621   6.678   7.815 -0.6700 -0.2606 -0.8150
  148SAPE  H12A16219   2.605   6.644   7.711 -0.7508 -1.1341 -0.5266
  148SAPE  H12B16220   2.705   6.751   7.819 -0.1082 -0.9174 -0.5195
  148SAPE   C1116221   2.484   6.745   7.858  0.7909 -0.1707  0.1282
  148SAPE  H11A16222   2.400   6.675   7.843  1.9257 -1.6911  0.5908
  148SAPE  H11B16223   2.458   6.821   7.781  2.3174  0.3943  0.1185
  148SAPE     P16224   2.523   6.938   8.029 -0.1463  0.0443 -0.4410
  148SAPE   O1316225   2.444   6.959   8.153 -0.0228 -0.3166  0.6960
  148SAPE   O1416226   2.668   6.973   8.035 -0.0700  0.0621 -0.1886
  148SAPE   O1216227   2.495   6.789   7.990 -0.2988 -0.4599 -0.5520
  148SAPE   O1116228   2.461   7.014   7.904  0.5175 -0.2242 -0.3708
  148SAPE    C116229   2.479   7.160   7.914 -0.7132 -0.1094  0.2043
  148SAPE    HA16230   2.381   7.212   7.918 -1.2977 -1.1685  0.1403
  148SAPE    HB16231   2.539   7.189   8.002 -2.0082  0.0245  1.0682
  148SAPE    C216232   2.544   7.212   7.786 -0.0633 -0.5000  0.0088
  148SAPE    HS16233   2.542   7.323   7.786 -1.1408 -0.5084 -0.3164
  148SAPE   O2116234   2.484   7.171   7.669 -0.2921 -0.1359 -0.7254
  148SAPE   C2116235   2.356   7.195   7.648 -0.2845 -0.2753 -0.4910
  148SAPE   O2216236   2.291   7.276   7.713  0.1106  1.0929 -0.1440
  148SAPE   C2216237   2.311   7.118   7.529  0.4281  0.0502  0.3587
  148SAPE   H2R16238   2.304   7.009   7.546 -3.9497  0.0476 -0.2700
  148SAPE   H2S16239   2.208   7.148   7.500  0.4927 -0.5105 -0.4914
  148SAPE    C316240   2.689   7.171   7.780 -0.6126 -0.5637 -0.7628
  148SAPE    HX16241   2.691   7.060   7.767  0.2144 -0.4416 -1.8228
  148SAPE    HY16242   2.737   7.192   7.877  1.0319 -0.8923 -1.4632
  148SAPE   O3116243   2.763   7.239   7.677 -0.0916  0.2825  0.0589
  148SAPE   C3116244   2.775   7.168   7.566 -0.4266  0.5162 -0.0401
  148SAPE   O3216245   2.754   7.051   7.553  0.3134 -0.0756 -0.3545
  148SAPE   C3216246   2.830   7.256   7.449  0.1430 -1.1520 -0.5735
  148SAPE   H2X16247   2.939   7.251   7.470 -0.2311  1.2549  2.8415
  148SAPE   H2Y16248   2.793   7.359   7.467  1.1313 -1.0238  0.9646
  148SAPE   C2316249   2.400   7.156   7.411 -0.8162 -0.5479  0.3299
  148SAPE   H3R16250   2.370   7.091   7.326  1.4491 -1.1047 -0.1204
  148SAPE   H3S16251   2.509   7.143   7.431 -0.3335  1.5843 -0.5858
  148SAPE   C2416252   2.370   7.304   7.369  0.0580 -0.0879 -0.4227
  148SAPE   H4R16253   2.397   7.365   7.457 -1.0708  0.1181 -0.1970
  148SAPE   H4S16254   2.261   7.320   7.352  0.5805  2.8050 -1.5628
  148SAPE   C2516255   2.446   7.350   7.246  0.2593 -0.1056 -0.5272
  148SAPE   H5R16256   2.552   7.346   7.275  0.0843  2.0523  0.6353
  148SAPE   C2616257   2.416   7.401   7.128 -0.1626 -0.0772  0.5185
  148SAPE   H6R16258   2.500   7.417   7.058 -0.3125 -1.8692 -0.1279
  148SAPE   C2716259   2.274   7.442   7.080 -0.4178 -0.8839  0.0604
  148SAPE   H7R16260   2.257   7.541   7.126  0.9174 -0.2073 -0.8368
  148SAPE   H7S16261   2.200   7.384   7.139  0.2254 -1.1696  0.6046
  148SAPE   C2816262   2.246   7.426   6.932  0.1493  0.0489  0.1983
  148SAPE   H8R16263   2.225   7.320   6.909  2.4770 -0.4234 -0.0315
  148SAPE   C2916264   2.247   7.536   6.852 -0.0982 -0.3930  0.2431
  148SAPE   H9R16265   2.212   7.525   6.748  1.7666  1.1427 -0.6123
  148SAPE  C21016266   2.289   7.680   6.876  0.3527 -0.0759  0.1403
  148SAPE  H10R16267   2.344   7.718   6.788  0.1321 -1.1900 -0.5077
  148SAPE  H10S16268   2.377   7.676   6.943 -0.0058 -1.1324  0.5708
  148SAPE  C21116269   2.175   7.767   6.928  0.2445 -0.3225  0.1945
  148SAPE  H11R16270   2.079   7.728   6.965 -0.5546  2.0782  0.7763
  148SAPE  C21216271   2.186   7.899   6.933  0.5485  0.1277  0.1273
  148SAPE  H12R16272   2.103   7.948   6.984 -0.4548  0.0839 -1.4059
  148SAPE  C21316273   2.305   7.985   6.907 -0.1929  0.0895  0.4456
  148SAPE  H13R16274   2.273   8.055   6.826  1.9078  0.7020  0.0668
  148SAPE  H13S16275   2.382   7.924   6.855  1.0208  2.1413 -0.3105
  148SAPE  C21416276   2.355   8.059   7.029  0.4336 -0.1050 -0.2824
  148SAPE  H14R16277   2.338   8.004   7.123  0.5642 -0.4221 -0.4436
  148SAPE  C21516278   2.422   8.177   7.027  0.7171 -0.6966  0.6158
  148SAPE  H15R16279   2.452   8.228   7.119 -1.5044  3.0185 -0.5179
  148SAPE  C21616280   2.446   8.257   6.903 -0.1493  0.0426 -0.4944
  148SAPE  H16R16281   2.471   8.183   6.823 -0.3515 -0.6820  0.1028
  148SAPE  H16S16282   2.535   8.321   6.924 -0.9473  0.1893  2.9146
  148SAPE  C21716283   2.337   8.351   6.851  0.7880  0.4768 -0.0441
  148SAPE  H17R16284   2.255   8.291   6.806 -0.4625  1.3435  0.9932
  148SAPE  H17S16285   2.387   8.413   6.774  1.9101  0.5545  0.7251
  148SAPE  C21816286   2.278   8.431   6.969  0.4660  0.7505 -1.2208
  148SAPE  H18R16287   2.363   8.489   7.013  0.1715  0.8544 -0.7850
  148SAPE  H18S16288   2.232   8.372   7.051  2.1627  2.6566  1.2425
  148SAPE  C21916289   2.169   8.529   6.926  0.7684 -0.4942  0.1503
  148SAPE  H19R16290   2.080   8.466   6.901 -0.8801  1.3450  1.1388
  148SAPE  H19S16291   2.194   8.589   6.836  3.4805 -1.4627  0.1675
  148SAPE  C22016292   2.124   8.616   7.043  0.0725  0.5294  0.3888
  148SAPE  H20R16293   2.036   8.662   6.994  0.1433 -0.7824 -1.0720
  148SAPE  H20S16294   2.209   8.685   7.063  1.3323 -0.1821 -2.0437
  148SAPE  H20T16295   2.092   8.552   7.127  0.2444 -1.1000 -0.7332
  148SAPE   C3316296   2.806   7.201   7.304 -0.3640  0.9034 -0.4757
  148SAPE   H3X16297   2.700   7.169   7.297 -0.4516  1.4991 -2.5632
  148SAPE   H3Y16298   2.870   7.112   7.286  0.3589  1.1380  0.8173
  148SAPE   C3416299   2.834   7.304   7.186 -0.0412  0.7670 -0.1929
  148SAPE   H4X16300   2.944   7.320   7.181 -0.0032  1.5358  2.0619
  148SAPE   H4Y16301   2.788   7.400   7.220 -0.6916 -0.1643  1.7057
  148SAPE   C3516302   2.772   7.262   7.052 -0.1722  0.2317  0.2458
  148SAPE   H5X16303   2.661   7.256   7.057 -0.1217 -0.0589  1.2802
  148SAPE   H5Y16304   2.803   7.160   7.024  0.7525 -0.9135  4.6046
  148SAPE   C3616305   2.818   7.347   6.932  0.3628 -0.0959  0.3995
  148SAPE   H6X16306   2.922   7.326   6.898 -0.1583 -1.1810 -0.6233
  148SAPE   H6Y16307   2.813   7.453   6.965 -0.7935 -0.2088  0.6100
  148SAPE   C3716308   2.746   7.333   6.802  0.5179 -0.0794  0.2510
  148SAPE   H7X16309   2.635   7.332   6.801  0.4653 -2.6545  1.4622
  148SAPE   H7Y16310   2.781   7.245   6.744  1.4310 -0.5005  1.3995
  148SAPE   C3816311   2.783   7.444   6.703  0.6358 -0.1619 -0.0810
  148SAPE   H8X16312   2.739   7.395   6.614  2.3711 -1.4038 -0.3162
  148SAPE   H8Y16313   2.892   7.461   6.690  0.5224  1.6271  0.9012
  148SAPE   C3916314   2.717   7.582   6.725  0.2133  0.5951  0.1202
  148SAPE   H9X16315   2.777   7.646   6.793  1.0436  0.2906 -0.3187
  148SAPE   H9Y16316   2.615   7.564   6.767  1.0631 -0.9016  1.6708
  148SAPE  C31016317   2.709   7.667   6.595  0.6455 -0.2690 -0.8917
  148SAPE  H10X16318   2.657   7.615   6.513  0.8015 -0.9360 -0.5733
  148SAPE  H10Y16319   2.810   7.684   6.552  0.2700  1.2326 -1.2298
  148SAPE  C31116320   2.638   7.797   6.619 -0.0214 -0.2723 -0.1247
  148SAPE  H11X16321   2.695   7.856   6.693  0.0667 -0.3606 -0.1212
  148SAPE  H11Y16322   2.541   7.784   6.672 -0.8368  0.0732 -1.5118
  148SAPE  C31216323   2.591   7.860   6.486 -0.2235  0.1475 -0.1834
  148SAPE  H12X16324   2.544   7.782   6.423 -0.8861  1.7044 -1.6978
  148SAPE  H12Y16325   2.674   7.910   6.430  0.9250 -1.9553 -0.4718
  148SAPE  C31316326   2.491   7.980   6.488  0.5656 -1.0416 -0.4470
  148SAPE  H13X16327   2.535   8.075   6.526  1.5599 -1.6436 -0.0472
  148SAPE  H13Y16328   2.423   7.945   6.569  1.5806 -2.8835 -0.3278
  148SAPE  C31416329   2.411   8.005   6.360  0.3770  0.3252 -0.1003
  148SAPE  H14X16330   2.346   7.915   6.358 -1.9204  1.8761 -0.2617
  148SAPE  H14Y16331   2.474   7.990   6.270 -0.8474 -1.1635 -0.7660
  148SAPE  C31516332   2.330   8.137   6.357 -0.1391 -0.1279  0.0233
  148SAPE  H15X16333   2.410   8.212   6.341 -0.8697  1.4803  3.0471
  148SAPE  H15Y16334   2.293   8.140   6.462  2.1473  1.7618  0.8585
  148SAPE  C31616335   2.221   8.141   6.260 -1.0575  0.0910 -0.0467
  148SAPE  H16X16336   2.144   8.074   6.303 -1.1579 -0.2535 -0.7426
  148SAPE  H16Y16337   2.264   8.097   6.167 -2.7796 -1.1174 -0.3292
  148SAPE  C31716338   2.176   8.284   6.251  0.3117  0.8645  0.2967
  148SAPE  H17X16339   2.086   8.292   6.186  0.6424 -2.9751 -0.8749
  148SAPE  H17Y16340   2.251   8.354   6.209 -2.7752  3.1986 -1.7640
  148SAPE  C31816341   2.130   8.337   6.383  0.1560  0.3808  0.7331
  148SAPE  H18X16342   2.080   8.255   6.439 -1.8556  1.0187 -0.0416
  148SAPE  H18Y16343   2.053   8.414   6.363  1.3871  2.1014  2.2562
  148SAPE  H18Z16344   2.209   8.382   6.446  0.8421  0.0408  0.1358
  149SAPE     N16345   4.272   4.535   7.972 -0.2305 -0.1366 -0.5972
  149SAPE   HN116346   4.219   4.622   7.989  0.2000  0.0951 -0.4293
  149SAPE   HN216347   4.221   4.460   8.023  1.1532 -0.4833  0.3257
  149SAPE   HN316348   4.370   4.543   8.007 -0.4114 -0.5895  0.0365
  149SAPE   C1216349   4.275   4.506   7.825 -0.1645  0.0194  0.2138
  149SAPE  H12A16350   4.332   4.415   7.799 -1.9112 -1.5247  1.4984
  149SAPE  H12B16351   4.312   4.598   7.774 -0.3360  0.5408  1.0033
  149SAPE   C1116352   4.131   4.479   7.776 -0.4338 -0.7056  0.0534
  149SAPE  H11A16353   4.124   4.475   7.665 -0.9745 -0.7407  0.0874
  149SAPE  H11B16354   4.065   4.565   7.799  0.6067  0.5329 -1.3573
  149SAPE     P16355   4.077   4.225   7.770  0.1399  0.0242  0.0769
  149SAPE   O1316356   4.218   4.185   7.749  0.6639  0.2994  0.0486
  149SAPE   O1416357   3.995   4.131   7.848 -0.2714 -0.6586  0.0934
  149SAPE   O1216358   4.076   4.363   7.835 -0.1522 -0.4624 -0.5510
  149SAPE   O1116359   4.013   4.257   7.628 -0.1483  0.3002 -0.3189
  149SAPE    C116360   3.879   4.306   7.614 -0.4211 -0.0070 -0.4150
  149SAPE    HA16361   3.808   4.252   7.680 -0.2576  0.6071  0.2732
  149SAPE    HB16362   3.886   4.409   7.654  1.0102 -0.1429 -0.2740
  149SAPE    C216363   3.836   4.309   7.468  0.2611 -0.6432 -0.3327
  149SAPE    HS16364   3.725   4.317   7.469  0.3248  0.3976 -0.4082
  149SAPE   O2116365   3.868   4.193   7.397 -0.0102 -0.0244  0.2145
  149SAPE   C2116366   3.817   4.078   7.438 -0.2635 -0.1509  0.3468
  149SAPE   O2216367   3.738   4.056   7.525  0.0749  0.0883 -0.0807
  149SAPE   C2216368   3.890   3.969   7.353 -1.1800 -0.3067  0.0284
  149SAPE   H2R16369   3.944   4.018   7.270 -0.6845 -0.6256  0.1609
  149SAPE   H2S16370   3.971   3.923   7.414  0.0224 -0.4442 -1.6061
  149SAPE    C316371   3.890   4.434   7.388 -0.7056  0.1313 -0.1119
  149SAPE    HX16372   4.001   4.443   7.385 -0.7485  0.9574  0.4392
  149SAPE    HY16373   3.860   4.516   7.457 -1.7886 -2.1194  2.2576
  149SAPE   O3116374   3.823   4.447   7.261  0.0042 -0.2435  0.0014
  149SAPE   C3116375   3.890   4.387   7.161  0.5448 -0.6493  0.2743
  149SAPE   O3216376   4.009   4.364   7.155  0.0625  0.0987  0.4234
  149SAPE   C3216377   3.791   4.369   7.046 -0.5615 -0.3154  0.7056
  149SAPE   H2X16378   3.750   4.471   7.033  0.4089 -0.0742 -0.5592
  149SAPE   H2Y16379   3.724   4.284   7.073 -2.7487  1.1284  0.0192
  149SAPE   C2316380   3.809   3.852   7.295  1.1073  0.1677  0.1705
  149SAPE   H3R16381   3.726   3.829   7.364  1.8918 -1.2343  0.6897
  149SAPE   H3S16382   3.874   3.762   7.300  1.3911  0.4347  1.6658
  149SAPE   C2416383   3.761   3.871   7.150 -0.6640  0.1954  0.0729
  149SAPE   H4R16384   3.844   3.902   7.083  0.1354  1.7971  1.7417
  149SAPE   H4S16385   3.690   3.956   7.140  0.0247  0.8463  0.6171
  149SAPE   C2516386   3.707   3.734   7.103 -0.2556 -0.2893  0.3478
  149SAPE   H5R16387   3.609   3.713   7.148 -0.6623  1.2944  0.2790
  149SAPE   C2616388   3.761   3.642   7.020 -0.2377 -0.1173  0.1255
  149SAPE   H6R16389   3.704   3.548   7.008  0.6184 -0.3366 -2.8917
  149SAPE   C2716390   3.902   3.638   6.955  0.0617  0.6332 -0.1203
  149SAPE   H7R16391   3.982   3.669   7.025 -1.6529 -1.4469  3.0281
  149SAPE   H7S16392   3.910   3.707   6.868  1.0563  0.4571 -0.1744
  149SAPE   C2816393   3.936   3.492   6.917  0.7989  0.4170  0.0945
  149SAPE   H8R16394   3.944   3.421   7.002 -0.2567 -0.1472 -0.2552
  149SAPE   C2916395   3.979   3.443   6.800  0.4224 -0.0556  0.4402
  149SAPE   H9R16396   4.000   3.336   6.787 -0.6183 -0.0150 -2.0282
  149SAPE  C21016397   4.002   3.527   6.673  0.5925  0.3214  0.1374
  149SAPE  H10R16398   3.911   3.590   6.662  0.0492 -0.2733  1.1533
  149SAPE  H10S16399   3.999   3.460   6.585  0.3360  0.6876 -0.1335
  149SAPE  C21116400   4.119   3.621   6.671 -0.1306  0.1613 -0.0552
  149SAPE  H11R16401   4.176   3.639   6.763  1.1726  1.0602 -0.9975
  149SAPE  C21216402   4.168   3.688   6.563 -0.2618 -0.7244 -0.2506
  149SAPE  H12R16403   4.275   3.716   6.569 -0.1700 -0.9921 -0.5983
  149SAPE  C21316404   4.118   3.686   6.417  0.3424  0.6833 -0.1824
  149SAPE  H13R16405   4.138   3.775   6.354  0.6336 -1.3417 -3.1987
  149SAPE  H13S16406   4.010   3.667   6.431  0.3792 -0.7977 -1.5857
  149SAPE  C21416407   4.173   3.566   6.351 -0.1445  0.2307 -0.1508
  149SAPE  H14R16408   4.157   3.480   6.417 -2.8530  2.0225  1.7465
  149SAPE  C21516409   4.224   3.557   6.227 -0.5015 -0.0735 -0.2703
  149SAPE  H15R16410   4.274   3.463   6.201 -0.4346  0.1773 -1.0578
  149SAPE  C21616411   4.246   3.675   6.135 -0.1796 -0.0249 -0.3755
  149SAPE  H16R16412   4.292   3.752   6.201 -1.1754  0.3193 -0.0746
  149SAPE  H16S16413   4.149   3.720   6.105 -0.6268  0.0014  1.0687
  149SAPE  C21716414   4.312   3.630   6.004 -0.1939 -0.5545  0.1723
  149SAPE  H17R16415   4.247   3.555   5.953 -1.0779 -0.1761  0.7100
  149SAPE  H17S16416   4.411   3.586   6.027  0.4669  0.1822 -1.1449
  149SAPE  C21816417   4.340   3.756   5.922 -0.3698 -0.4604  0.0288
  149SAPE  H18R16418   4.252   3.824   5.917  1.9878  2.7773 -1.8578
  149SAPE  H18S16419   4.364   3.735   5.815  0.7595  1.9954 -0.2873
  149SAPE  C21916420   4.461   3.843   5.970  0.1025  1.0069 -0.4704
  149SAPE  H19R16421   4.554   3.788   5.995  0.4632  2.4922  1.7154
  149SAPE  H19S16422   4.437   3.880   6.072  2.2841  0.7198  0.2103
  149SAPE  C22016423   4.488   3.956   5.882  0.5270 -0.8843 -0.1427
  149SAPE  H20R16424   4.401   4.017   5.851  0.7546 -0.8752 -0.7745
  149SAPE  H20S16425   4.534   3.922   5.787  1.0507  0.9846 -0.5889
  149SAPE  H20T16426   4.561   4.022   5.934 -1.4881 -0.6264  2.5786
  149SAPE   C3316427   3.858   4.331   6.909  0.2687 -0.1946 -0.2590
  149SAPE   H3X16428   3.857   4.220   6.917  0.3970 -0.1461  0.5728
  149SAPE   H3Y16429   3.966   4.358   6.902  0.2186  0.0766  0.0404
  149SAPE   C3416430   3.793   4.389   6.786 -0.0329  0.1009  0.1847
  149SAPE   H4X16431   3.750   4.490   6.806  1.7955  0.7707  0.9222
  149SAPE   H4Y16432   3.701   4.328   6.776  1.6955 -2.3641 -2.3421
  149SAPE   C3516433   3.878   4.377   6.667 -0.5982 -0.8097  1.2852
  149SAPE   H5X16434   3.907   4.271   6.650 -0.5693 -0.7085  0.6893
  149SAPE   H5Y16435   3.975   4.426   6.691 -1.9807  2.1463  1.3186
  149SAPE   C3616436   3.816   4.429   6.535 -0.4048 -0.1436 -0.0334
  149SAPE   H6X16437   3.892   4.436   6.455 -1.3373 -3.0767 -1.2983
  149SAPE   H6Y16438   3.771   4.529   6.553 -2.4468 -0.9976 -0.1251
  149SAPE   C3716439   3.705   4.346   6.471 -0.3587 -0.4351  0.8705
  149SAPE   H7X16440   3.627   4.310   6.541  0.7992 -1.4742  1.6906
  149SAPE   H7Y16441   3.759   4.255   6.435 -1.6325 -1.1944  0.8065
  149SAPE   C3816442   3.641   4.400   6.340 -0.4494  0.3332  0.2881
  149SAPE   H8X16443   3.585   4.496   6.353 -0.0448  0.9741 -2.1401
  149SAPE   H8Y16444   3.567   4.330   6.293 -0.0033 -0.9003  1.3789
  149SAPE   C3916445   3.747   4.424   6.228 -0.1377  0.3355 -0.6620
  149SAPE   H9X16446   3.808   4.333   6.212 -2.1148 -1.0643 -0.5545
  149SAPE   H9Y16447   3.810   4.512   6.256  0.8691  0.3078 -2.7207
  149SAPE  C31016448   3.680   4.456   6.097  0.1856  0.1620  0.2565
  149SAPE  H10X16449   3.642   4.560   6.093  1.5363  0.6400 -3.1261
  149SAPE  H10Y16450   3.600   4.382   6.073 -0.7460  1.9568 -2.7140
  149SAPE  C31116451   3.783   4.467   5.989  0.2662 -0.1836  0.2282
  149SAPE  H11X16452   3.836   4.370   5.984  0.3147 -0.1283 -0.4408
  149SAPE  H11Y16453   3.856   4.549   6.010  0.4729 -1.0149  3.0204
  149SAPE  C31216454   3.723   4.500   5.852 -0.1005  0.1551  0.3543
  149SAPE  H12X16455   3.673   4.599   5.852 -0.0145  0.1986  0.2885
  149SAPE  H12Y16456   3.643   4.424   5.838  1.0670 -1.3020  1.2815
  149SAPE  C31316457   3.831   4.477   5.741 -0.8387  0.2590  0.2184
  149SAPE  H13X16458   3.780   4.477   5.643  1.5374 -0.7448 -1.1093
  149SAPE  H13Y16459   3.886   4.381   5.754  0.3354  0.8202 -0.4523
  149SAPE  C31416460   3.927   4.595   5.721  0.3387 -0.8198 -0.7868
  149SAPE  H14X16461   3.988   4.598   5.814  2.1766  2.4368 -1.9515
  149SAPE  H14Y16462   3.861   4.684   5.724 -1.5264 -2.1569  1.4916
  149SAPE  C31516463   4.007   4.607   5.593 -0.0842 -0.0736 -0.5359
  149SAPE  H15X16464   3.935   4.598   5.509 -0.2887 -1.4580 -0.2319
  149SAPE  H15Y16465   4.081   4.525   5.580  0.7010  0.2201  1.7262
  149SAPE  C31616466   4.071   4.749   5.577  0.4292  0.0903  0.2998
  149SAPE  H16X16467   3.993   4.828   5.581 -0.6155 -0.9466  1.8591
  149SAPE  H16Y16468   4.106   4.753   5.472  0.7596 -2.9573  0.2171
  149SAPE  C31716469   4.189   4.774   5.676 -1.2013 -1.2444 -0.4297
  149SAPE  H17X16470   4.272   4.700   5.670 -0.5986 -1.1752  4.0447
  149SAPE  H17Y16471   4.148   4.756   5.778  0.2174 -0.2559  0.3417
  149SAPE  C31816472   4.238   4.917   5.685 -0.1054 -0.3330  0.4001
  149SAPE  H18X16473   4.318   4.930   5.762  0.1752 -1.3843  0.3027
  149SAPE  H18Y16474   4.152   4.981   5.713 -0.3385 -0.5932  0.2763
  149SAPE  H18Z16475   4.280   4.953   5.588 -0.6466 -0.4267  0.1302
  150SAPE     N16476   6.441   3.149   8.258 -0.3091 -0.3903  0.0549
  150SAPE   HN116477   6.406   3.093   8.337  0.8125 -0.9844  0.1522
  150SAPE   HN216478   6.503   3.227   8.290 -0.3354 -0.4670  0.2923
  150SAPE   HN316479   6.349   3.192   8.236 -1.3384 -0.9448  2.9576
  150SAPE   C1216480   6.504   3.070   8.145  0.3042  0.1647  0.4609
  150SAPE  H12A16481   6.607   3.038   8.172  1.7871  1.7031 -2.8139
  150SAPE  H12B16482   6.521   3.149   8.069  1.1013 -0.3825  0.0647
  150SAPE   C1116483   6.418   2.956   8.090  0.5770  0.2185 -0.4368
  150SAPE  H11A16484   6.471   2.880   8.029  0.0469 -1.3468  0.9433
  150SAPE  H11B16485   6.350   2.997   8.012  1.9384  0.3989 -1.5560
  150SAPE     P16486   6.204   2.818   8.191  0.0633 -0.2763  0.2153
  150SAPE   O1316487   6.213   2.671   8.213 -0.3427 -0.3936 -0.7574
  150SAPE   O1416488   6.121   2.894   8.288 -0.4653 -0.0201 -0.4012
  150SAPE   O1216489   6.345   2.888   8.198 -0.1827 -0.0266  0.1071
  150SAPE   O1116490   6.165   2.852   8.041  0.3326 -0.4758  0.2087
  150SAPE    C116491   6.180   2.745   7.937 -0.4235 -0.2343 -0.0073
  150SAPE    HA16492   6.285   2.710   7.930 -0.9214 -1.3747 -2.7413
  150SAPE    HB16493   6.114   2.660   7.963  0.4594 -1.1860 -0.7869
  150SAPE    C216494   6.153   2.792   7.795  0.1303 -0.0063 -0.0328
  150SAPE    HS16495   6.230   2.869   7.772  0.1837  0.2783  1.0607
  150SAPE   O2116496   6.018   2.843   7.785  0.4273  0.0453 -0.3686
  150SAPE   C2116497   5.993   2.926   7.692 -0.2287 -0.4659 -0.2154
  150SAPE   O2216498   6.073   2.985   7.621 -0.6328 -0.2659 -0.0895
  150SAPE   C2216499   5.848   2.946   7.673 -0.3249 -0.4679  0.3551
  150SAPE   H2R16500   5.818   2.871   7.597  0.0675  0.5146 -0.7837
  150SAPE   H2S16501   5.793   2.920   7.766 -3.1763  2.8638 -0.2169
  150SAPE    C316502   6.162   2.679   7.694  0.2029 -0.0215  0.0915
  150SAPE    HX16503   6.070   2.619   7.707  0.4092 -0.7402 -1.5551
  150SAPE    HY16504   6.249   2.615   7.718 -2.1294 -3.3688  0.2767
  150SAPE   O3116505   6.166   2.727   7.561 -0.4516 -0.6207 -0.1338
  150SAPE   C3116506   6.212   2.641   7.474 -0.0052  0.0531 -0.5042
  150SAPE   O3216507   6.220   2.522   7.490  0.0956  0.0755 -0.0480
  150SAPE   C3216508   6.212   2.707   7.340 -0.1684 -0.2934 -0.6425
  150SAPE   H2X16509   6.292   2.658   7.281  0.3391  0.6387 -0.7503
  150SAPE   H2Y16510   6.238   2.815   7.342  1.8634 -0.7518 -0.0939
  150SAPE   C2316511   5.814   3.083   7.625 -0.0724 -0.6952 -0.5389
  150SAPE   H3R16512   5.875   3.171   7.653  0.7673 -1.1009 -1.0293
  150SAPE   H3S16513   5.717   3.111   7.670  0.0316 -2.0521  0.6168
  150SAPE   C2416514   5.812   3.096   7.471  0.9066  0.2291 -0.2260
  150SAPE   H4R16515   5.777   3.001   7.424 -2.4743  1.1482  0.2103
  150SAPE   H4S16516   5.917   3.114   7.441  1.0346 -1.3237 -0.8268
  150SAPE   C2516517   5.729   3.213   7.426  0.0670 -0.4430 -0.1077
  150SAPE   H5R16518   5.759   3.305   7.478 -0.0861 -1.1914  1.3490
  150SAPE   C2616519   5.629   3.208   7.333  0.2168  0.0590  0.4720
  150SAPE   H6R16520   5.587   3.304   7.298 -1.6652 -1.4690 -1.7647
  150SAPE   C2716521   5.575   3.093   7.257  0.5342  0.2862 -1.0752
  150SAPE   H7R16522   5.470   3.126   7.242  1.0433  1.5746 -1.9993
  150SAPE   H7S16523   5.580   3.009   7.330 -0.1930  0.1582 -1.1628
  150SAPE   C2816524   5.655   3.061   7.132 -0.2638  0.2478 -0.3279
  150SAPE   H8R16525   5.739   3.131   7.122 -0.8799  0.9304 -0.8164
  150SAPE   C2916526   5.626   2.969   7.041 -0.5255 -0.5812  0.1451
  150SAPE   H9R16527   5.688   2.959   6.951 -2.1831  1.2694 -1.2756
  150SAPE  C21016528   5.515   2.867   7.035  0.9042 -0.0170  0.0710
  150SAPE  H10R16529   5.512   2.812   7.132  0.1587  1.6392  1.0507
  150SAPE  H10S16530   5.539   2.785   6.965 -1.0171  0.1956 -0.9069
  150SAPE  C21116531   5.373   2.920   7.010 -0.1918 -0.3640 -0.8714
  150SAPE  H11R16532   5.319   2.938   7.104  1.7068 -0.0770  0.2107
  150SAPE  C21216533   5.321   2.956   6.892  0.2775  0.1290  0.0957
  150SAPE  H12R16534   5.219   2.995   6.889  0.0803 -0.0697  2.5063
  150SAPE  C21316535   5.394   2.949   6.756 -0.7383 -0.8554  0.4439
  150SAPE  H13R16536   5.318   2.913   6.683 -0.3547  0.7515 -0.8048
  150SAPE  H13S16537   5.471   2.869   6.760  1.1344  0.8856  0.6987
  150SAPE  C21416538   5.469   3.080   6.724  0.5698 -0.5282 -0.2939
  150SAPE  H14R16539   5.552   3.106   6.791  0.4797  0.0994 -0.4134
  150SAPE  C21516540   5.434   3.178   6.631  0.6763  0.1523 -0.7566
  150SAPE  H15R16541   5.495   3.270   6.625 -1.2599  1.5691  0.0633
  150SAPE  C21616542   5.327   3.165   6.527 -0.1035 -0.1812 -0.1976
  150SAPE  H16R16543   5.235   3.224   6.548 -1.0192  0.1748 -4.3561
  150SAPE  H16S16544   5.291   3.059   6.522  0.8021 -0.4880 -0.5098
  150SAPE  C21716545   5.379   3.200   6.385 -0.0524 -0.1023  0.4505
  150SAPE  H17R16546   5.405   3.307   6.373 -2.1224  0.0870 -5.0841
  150SAPE  H17S16547   5.312   3.170   6.302 -0.1365 -0.7721  0.7517
  150SAPE  C21816548   5.495   3.104   6.341  0.2617 -0.1896 -0.1307
  150SAPE  H18R16549   5.588   3.113   6.402  1.0178 -0.3900 -1.2217
  150SAPE  H18S16550   5.527   3.160   6.251 -0.9154  1.7707  0.6150
  150SAPE  C21916551   5.452   2.960   6.322  0.2942  0.3528 -0.1038
  150SAPE  H19R16552   5.376   2.950   6.241 -0.1312 -4.5778  0.6236
  150SAPE  H19S16553   5.406   2.922   6.416  0.2193  2.5861  0.8306
  150SAPE  C22016554   5.571   2.873   6.289  0.0332 -0.2093  0.1026
  150SAPE  H20R16555   5.663   2.919   6.248  1.3674 -1.7261  1.2485
  150SAPE  H20S16556   5.545   2.790   6.220  2.0020 -3.0985  2.5699
  150SAPE  H20T16557   5.613   2.826   6.381  0.1395  0.9772  0.6763
  150SAPE   C3316558   6.076   2.702   7.273 -0.0529  0.0223 -0.8328
  150SAPE   H3X16559   6.020   2.797   7.287  1.8596  0.8300  2.1687
  150SAPE   H3Y16560   6.007   2.626   7.317  0.8432  0.0182  0.6091
  150SAPE   C3416561   6.075   2.674   7.123  0.0836  0.5383 -0.3809
  150SAPE   H4X16562   6.107   2.570   7.103 -1.6971  0.0369 -0.8520
  150SAPE   H4Y16563   6.136   2.755   7.078  1.5577 -0.5064 -0.3071
  150SAPE   C3516564   5.932   2.684   7.067  0.5283  0.6898  0.0355
  150SAPE   H5X16565   5.887   2.782   7.092  0.6291  0.0847  2.9132
  150SAPE   H5Y16566   5.865   2.612   7.118  2.2687  0.2927  1.9060
  150SAPE   C3616567   5.940   2.686   6.911 -1.0964  0.1689 -0.3073
  150SAPE   H6X16568   6.008   2.606   6.876 -0.0524 -0.4995  2.9028
  150SAPE   H6Y16569   5.987   2.786   6.896 -0.6731  0.2717  1.4279
  150SAPE   C3716570   5.811   2.673   6.833 -0.8155  0.0417 -0.0251
  150SAPE   H7X16571   5.726   2.717   6.889 -2.3273 -1.8425 -0.7389
  150SAPE   H7Y16572   5.781   2.566   6.839 -0.5629  0.0071  0.7363
  150SAPE   C3816573   5.826   2.693   6.679  0.5485  0.5982 -0.0683
  150SAPE   H8X16574   5.853   2.801   6.671 -0.3060  0.6855 -2.3936
  150SAPE   H8Y16575   5.724   2.680   6.638  1.2618 -0.0779 -1.7186
  150SAPE   C3916576   5.934   2.612   6.610 -0.1959  0.0202  0.7119
  150SAPE   H9X16577   5.916   2.502   6.613 -0.4881 -0.0580 -1.7817
  150SAPE   H9Y16578   6.033   2.636   6.655  1.1833 -0.0204 -2.1168
  150SAPE  C31016579   5.951   2.647   6.458 -0.3333  0.5648  0.6143
  150SAPE  H10X16580   5.869   2.596   6.403 -2.9091  1.3713  3.3976
  150SAPE  H10Y16581   6.044   2.601   6.419 -1.7213 -0.4902 -1.6408
  150SAPE  C31116582   5.947   2.791   6.419 -0.1888 -0.2110 -1.2057
  150SAPE  H11X16583   6.019   2.842   6.486  0.0572 -0.1103 -1.5434
  150SAPE  H11Y16584   5.845   2.834   6.433 -0.1979 -0.5482 -0.1106
  150SAPE  C31216585   6.003   2.821   6.276 -0.5352  0.5404  0.1899
  150SAPE  H12X16586   6.095   2.760   6.272 -2.4026 -2.5365  0.8509
  150SAPE  H12Y16587   6.025   2.930   6.264  0.1956  0.3430 -0.2939
  150SAPE  C31316588   5.918   2.765   6.167  0.4176 -0.8320 -0.3496
  150SAPE  H13X16589   5.821   2.819   6.158  0.9543  0.3303  0.5492
  150SAPE  H13Y16590   5.892   2.662   6.200 -2.5737  0.2323  0.9153
  150SAPE  C31416591   5.981   2.767   6.020  0.5281  0.0078 -0.5093
  150SAPE  H14X16592   6.060   2.691   6.038  0.8065  0.7316  1.6643
  150SAPE  H14Y16593   6.033   2.863   6.003 -1.3692  1.1709 -0.1062
  150SAPE  C31516594   5.878   2.723   5.912 -0.1854  0.3698 -0.7204
  150SAPE  H15X16595   5.786   2.785   5.920  0.0273  0.4804  1.6385
  150SAPE  H15Y16596   5.861   2.613   5.911  1.1525  0.1444 -0.4312
  150SAPE  C31616597   5.925   2.745   5.769  0.2412 -0.1461 -0.3939
  150SAPE  H16X16598   6.018   2.693   5.737 -0.4082 -0.6654 -1.5283
  150SAPE  H16Y16599   5.949   2.854   5.767  1.1911 -0.2852  1.5422
  150SAPE  C31716600   5.818   2.719   5.668 -1.0038 -0.5800  0.3079
  150SAPE  H17X16601   5.732   2.786   5.687  0.4753  1.9178 -1.1973
  150SAPE  H17Y16602   5.774   2.618   5.684 -2.5385 -0.6105 -3.1224
  150SAPE  C31816603   5.848   2.717   5.515  0.7672 -0.0475  0.6984
  150SAPE  H18X16604   5.878   2.813   5.467  0.3557 -0.8146 -1.1991
  150SAPE  H18Y16605   5.746   2.698   5.476  0.4683 -0.3845  1.6295
  150SAPE  H18Z16606   5.919   2.638   5.480  0.4591 -0.3147  0.6758
  151SAPE     N16607   6.460   1.774   7.769  0.3373  0.0904 -0.1780
  151SAPE   HN116608   6.520   1.835   7.828  2.0498  1.3671 -3.0313
  151SAPE   HN216609   6.385   1.730   7.826 -0.5148 -0.1635 -1.4568
  151SAPE   HN316610   6.532   1.707   7.735 -0.9627 -0.7041 -1.4614
  151SAPE   C1216611   6.406   1.855   7.656 -0.0763 -0.1626 -0.4143
  151SAPE  H12A16612   6.365   1.785   7.581  0.5118 -0.5765 -0.3514
  151SAPE  H12B16613   6.493   1.910   7.613  1.0526 -1.3112  0.3277
  151SAPE   C1116614   6.298   1.951   7.716 -0.5913  0.1572  0.7038
  151SAPE  H11A16615   6.264   2.016   7.633  0.3876  0.3896  0.4717
  151SAPE  H11B16616   6.351   2.023   7.781 -1.3126  1.7478 -0.4283
  151SAPE     P16617   6.074   1.825   7.746 -0.4763 -0.0935  0.0579
  151SAPE   O1316618   6.061   1.690   7.802 -0.0801  0.5050 -0.1505
  151SAPE   O1416619   5.960   1.915   7.770  0.1176  0.4365 -0.1404
  151SAPE   O1216620   6.203   1.883   7.802 -0.0891 -0.1483  0.5508
  151SAPE   O1116621   6.086   1.815   7.589 -0.3156  0.0015 -0.0189
  151SAPE    C116622   5.960   1.777   7.521 -0.0260  0.4157  0.3722
  151SAPE    HA16623   5.974   1.671   7.488 -0.5140  0.7053 -0.8322
  151SAPE    HB16624   5.873   1.761   7.588  0.2097 -1.6841  0.2347
  151SAPE    C216625   5.917   1.879   7.409 -0.4611  0.4906  0.5047
  151SAPE    HS16626   5.808   1.868   7.388 -0.3160 -0.0612  0.0421
  151SAPE   O2116627   5.995   1.853   7.289  0.3425 -0.7381  0.2075
  151SAPE   C2116628   5.978   1.736   7.228  0.1979 -0.1196 -0.5396
  151SAPE   O2216629   5.891   1.652   7.252  0.2634 -0.1076 -0.1412
  151SAPE   C2216630   6.082   1.723   7.113 -0.0079 -0.1769  0.4507
  151SAPE   H2R16631   6.098   1.824   7.070  0.5862  0.1146  1.3245
  151SAPE   H2S16632   6.184   1.706   7.154 -0.6848 -2.2774  1.4171
  151SAPE    C316633   5.935   2.023   7.459  0.0129  0.3956 -0.3581
  151SAPE    HX16634   6.046   2.030   7.458  0.2541 -1.9425  1.4138
  151SAPE    HY16635   5.906   2.034   7.565 -0.3686  1.1978 -0.5353
  151SAPE   O3116636   5.873   2.122   7.371  0.5247  0.2068  0.2598
  151SAPE   C3116637   5.746   2.136   7.392 -0.4004 -0.4018 -0.7454
  151SAPE   O3216638   5.675   2.059   7.454 -0.1034  0.2697  0.1795
  151SAPE   C3216639   5.703   2.268   7.320  0.3871  0.5567  0.6851
  151SAPE   H2X16640   5.673   2.339   7.400 -0.4649  3.5015 -2.0285
  151SAPE   H2Y16641   5.614   2.249   7.258 -0.0960 -1.5305  1.9301
  151SAPE   C2316642   6.047   1.615   7.005  0.8247  0.0636 -0.4673
  151SAPE   H3R16643   5.936   1.609   7.000  0.6899  0.0953  1.4921
  151SAPE   H3S16644   6.089   1.517   7.035  1.3836  0.2906 -0.4907
  151SAPE   C2416645   6.090   1.653   6.867 -0.0529 -0.1885 -0.1979
  151SAPE   H4R16646   6.049   1.755   6.849  0.8383  0.4220  1.0565
  151SAPE   H4S16647   6.037   1.586   6.797 -0.1812 -2.8272  2.2287
  151SAPE   C2516648   6.241   1.654   6.857 -0.7796 -0.3604 -0.8509
  151SAPE   H5R16649   6.282   1.552   6.865  1.5028  0.5183 -0.6644
  151SAPE   C2616650   6.328   1.755   6.829  0.0109  0.1365  0.2804
  151SAPE   H6R16651   6.434   1.729   6.838  0.0316  0.1754  0.1355
  151SAPE   C2716652   6.297   1.896   6.814  0.6916 -0.1318 -0.8855
  151SAPE   H7R16653   6.194   1.916   6.778  0.4234  0.9537  0.3958
  151SAPE   H7S16654   6.365   1.946   6.742  1.0505  1.8949  0.7474
  151SAPE   C2816655   6.317   1.976   6.950 -0.3671  0.7336  0.1947
  151SAPE   H8R16656   6.257   1.941   7.035  0.2989  1.1856  0.8604
  151SAPE   C2916657   6.397   2.082   6.972  0.1524  0.4295  0.4395
  151SAPE   H9R16658   6.396   2.137   7.067 -1.5277  0.5440  0.3809
  151SAPE  C21016659   6.483   2.139   6.862 -0.8605 -0.1445 -0.0766
  151SAPE  H10R16660   6.502   2.245   6.887 -1.3173  0.0500 -0.5399
  151SAPE  H10S16661   6.417   2.147   6.772 -2.8626  1.9995  1.4599
  151SAPE  C21116662   6.616   2.068   6.838  0.0383 -0.3065  0.6483
  151SAPE  H11R16663   6.670   2.053   6.932  1.3554  4.3468  0.8518
  151SAPE  C21216664   6.650   2.025   6.715  0.2343  0.3505 -0.5596
  151SAPE  H12R16665   6.748   1.975   6.709  0.3391  0.7544 -3.2476
  151SAPE  C21316666   6.577   2.031   6.582 -0.8443 -0.1573 -0.2940
  151SAPE  H13R16667   6.493   2.103   6.586 -0.0290  0.8005  2.6384
  151SAPE  H13S16668   6.526   1.935   6.560 -1.7857 -0.3082  2.2032
  151SAPE  C21416669   6.665   2.062   6.459  0.7216  0.3387  0.2628
  151SAPE  H14R16670   6.662   2.167   6.426 -1.0946  0.0720 -0.5754
  151SAPE  C21516671   6.749   1.976   6.403 -0.3860  0.0370  0.5486
  151SAPE  H15R16672   6.806   2.006   6.313 -2.0048 -2.9809 -1.6742
  151SAPE  C21616673   6.777   1.831   6.437 -0.0289 -0.8903  0.2944
  151SAPE  H16R16674   6.735   1.794   6.533  2.0791 -0.4886  1.4250
  151SAPE  H16S16675   6.886   1.842   6.455  0.0632  2.5535 -1.5362
  151SAPE  C21716676   6.748   1.726   6.318  0.0996 -0.8891  0.0057
  151SAPE  H17R16677   6.639   1.725   6.298  0.2176  0.6871 -0.9189
  151SAPE  H17S16678   6.781   1.631   6.365  0.4758 -0.7905 -0.0539
  151SAPE  C21816679   6.831   1.730   6.190  0.3150  0.1627  1.5275
  151SAPE  H18R16680   6.936   1.728   6.225  1.0838  3.7620 -0.0796
  151SAPE  H18S16681   6.802   1.824   6.137 -0.3444 -0.1768  1.2706
  151SAPE  C21916682   6.823   1.599   6.105  0.2708  0.0416  0.3952
  151SAPE  H19R16683   6.725   1.601   6.053  0.9357  2.2508 -0.9058
  151SAPE  H19S16684   6.828   1.516   6.179 -1.8768  0.1052  0.6794
  151SAPE  C22016685   6.930   1.580   5.996 -0.1136  0.1759 -0.8377
  151SAPE  H20R16686   6.924   1.481   5.945 -1.1188  0.1321 -0.6542
  151SAPE  H20S16687   7.035   1.573   6.031 -1.1052 -1.5986  2.2201
  151SAPE  H20T16688   6.911   1.661   5.923 -2.2345 -0.3176 -0.9090
  151SAPE   C3316689   5.808   2.341   7.231  0.3922  0.1467  0.4201
  151SAPE   H3X16690   5.901   2.364   7.288  0.0160  0.4542  0.9166
  151SAPE   H3Y16691   5.770   2.441   7.202 -2.3501 -1.0307 -0.3149
  151SAPE   C3416692   5.819   2.268   7.095 -0.0116 -0.6830  0.3983
  151SAPE   H4X16693   5.730   2.301   7.037  1.5196  0.9035 -1.1360
  151SAPE   H4Y16694   5.821   2.159   7.115 -0.4817 -0.8152 -0.2663
  151SAPE   C3516695   5.942   2.311   7.013 -0.1601  0.6575  0.2814
  151SAPE   H5X16696   6.036   2.266   7.053 -0.3393  1.8543  2.1490
  151SAPE   H5Y16697   5.958   2.421   7.010  2.3261  0.3467 -1.7323
  151SAPE   C3616698   5.924   2.249   6.870  0.0821  0.5193  0.3749
  151SAPE   H6X16699   5.844   2.301   6.813  1.6580  0.5324 -1.9619
  151SAPE   H6Y16700   5.898   2.141   6.874 -0.8333  0.7636  1.7597
  151SAPE   C3716701   6.055   2.270   6.790 -0.7531  0.1404  0.7483
  151SAPE   H7X16702   6.137   2.226   6.850 -1.6557  0.0155  1.9403
  151SAPE   H7Y16703   6.078   2.378   6.799 -0.2748  0.4034 -2.5335
  151SAPE   C3816704   6.050   2.221   6.647 -0.3180 -0.4487  0.5716
  151SAPE   H8X16705   5.982   2.288   6.591 -0.5796 -0.5143  0.8121
  151SAPE   H8Y16706   6.002   2.121   6.640 -1.8237  0.2029  1.2880
  151SAPE   C3916707   6.191   2.223   6.590  0.0972  0.5541  0.2604
  151SAPE   H9X16708   6.254   2.140   6.628  0.7186 -1.1285 -3.8822
  151SAPE   H9Y16709   6.250   2.314   6.614 -0.7607  1.2998 -0.3876
  151SAPE  C31016710   6.183   2.234   6.438 -0.6454 -0.0358  0.0358
  151SAPE  H10X16711   6.127   2.327   6.417  0.3327  1.1272  2.2982
  151SAPE  H10Y16712   6.112   2.155   6.404  0.8110 -2.1938  1.7105
  151SAPE  C31116713   6.317   2.241   6.361 -0.2936 -0.1884  0.0895
  151SAPE  H11X16714   6.371   2.144   6.363  0.9470  0.2618 -3.6436
  151SAPE  H11Y16715   6.383   2.313   6.413 -0.1868  0.8014 -1.3518
  151SAPE  C31216716   6.305   2.287   6.213  0.4013 -0.6295 -0.6100
  151SAPE  H12X16717   6.201   2.267   6.178 -0.6541 -0.0665  1.9394
  151SAPE  H12Y16718   6.382   2.228   6.158  3.3368  2.4102 -0.0500
  151SAPE  C31316719   6.323   2.437   6.198  0.4584  0.0573 -0.7348
  151SAPE  H13X16720   6.409   2.489   6.246 -1.1937  1.7557  0.5321
  151SAPE  H13Y16721   6.242   2.483   6.258  1.3726  0.1172  0.4915
  151SAPE  C31416722   6.303   2.481   6.048  0.5488  0.7047  0.4822
  151SAPE  H14X16723   6.194   2.479   6.029  0.3874  2.3786  1.0010
  151SAPE  H14Y16724   6.348   2.402   5.985 -1.1359  0.1720 -0.0878
  151SAPE  C31516725   6.351   2.618   6.010  0.0433  0.3678 -0.2437
  151SAPE  H15X16726   6.462   2.614   6.015  0.1388  0.6207 -1.6364
  151SAPE  H15Y16727   6.315   2.693   6.084  0.4447 -0.0325  0.3613
  151SAPE  C31616728   6.317   2.652   5.863 -0.1211  0.2424  1.0749
  151SAPE  H16X16729   6.317   2.761   5.843  2.3510 -0.1835 -1.9608
  151SAPE  H16Y16730   6.213   2.619   5.841  0.2146  0.1263 -0.4110
  151SAPE  C31716731   6.417   2.593   5.768 -0.1710  0.2317  0.3679
  151SAPE  H17X16732   6.358   2.565   5.678 -1.5308 -0.1511  1.3393
  151SAPE  H17Y16733   6.463   2.508   5.823 -0.7051  0.3106  0.9485
  151SAPE  C31816734   6.542   2.686   5.736 -0.5314  0.9439  0.3394
  151SAPE  H18X16735   6.626   2.659   5.803 -0.6746 -2.8771 -0.7603
  151SAPE  H18Y16736   6.512   2.792   5.730  0.8459  1.2782 -1.3612
  151SAPE  H18Z16737   6.586   2.662   5.637  0.1841  0.9934  0.6453
  152SAPE     N16738   1.219   4.950   8.043  0.5437  0.3356  0.2290
  152SAPE   HN116739   1.320   4.971   8.054  0.5493 -0.2599  1.3829
  152SAPE   HN216740   1.186   4.975   7.947  0.8597 -1.6131 -0.4354
  152SAPE   HN316741   1.159   5.012   8.101 -0.4976 -2.2251  2.0940
  152SAPE   C1216742   1.194   4.802   8.075 -0.0357 -0.3931 -0.1562
  152SAPE  H12A16743   1.101   4.773   8.020  0.4788  0.0795 -1.3080
  152SAPE  H12B16744   1.189   4.795   8.186 -1.1841 -0.9415 -0.2241
  152SAPE   C1116745   1.306   4.716   8.007  0.0495 -0.5366 -0.3139
  152SAPE  H11A16746   1.409   4.745   8.038  0.2373  0.5920 -1.8555
  152SAPE  H11B16747   1.298   4.722   7.896  0.8057 -3.1373 -0.5950
  152SAPE     P16748   1.208   4.476   7.952 -0.5825 -0.3977  0.0516
  152SAPE   O1316749   1.180   4.361   8.040  1.1960  0.5195  0.4913
  152SAPE   O1416750   1.100   4.550   7.877 -0.3539  0.2650 -0.3243
  152SAPE   O1216751   1.288   4.579   8.044  0.5174  0.0757  0.0916
  152SAPE   O1116752   1.317   4.442   7.840  0.5450 -0.0280  0.0469
  152SAPE    C116753   1.439   4.365   7.874 -0.2342  0.6121  0.1085
  152SAPE    HA16754   1.506   4.430   7.934  1.7296  1.4651 -2.7856
  152SAPE    HB16755   1.413   4.267   7.920 -1.4583  1.3809  1.1153
  152SAPE    C216756   1.530   4.335   7.748  0.0825 -0.1565  0.1977
  152SAPE    HS16757   1.516   4.226   7.731 -0.8925  0.0181 -0.1747
  152SAPE   O2116758   1.659   4.386   7.762 -0.0358  0.0460  0.1541
  152SAPE   C2116759   1.761   4.302   7.761 -0.2909 -0.7543 -0.3043
  152SAPE   O2216760   1.751   4.179   7.777 -0.5845 -0.5356  0.3129
  152SAPE   C2216761   1.887   4.389   7.732  0.3094  0.4324  0.3726
  152SAPE   H2R16762   1.850   4.470   7.666  1.6945  0.0059 -0.9913
  152SAPE   H2S16763   1.931   4.425   7.827  1.5871 -0.1708  0.0354
  152SAPE    C316764   1.470   4.398   7.616 -0.0081 -0.3730 -0.3046
  152SAPE    HX16765   1.470   4.509   7.623  1.1275 -0.4812  2.3285
  152SAPE    HY16766   1.363   4.366   7.617  0.3795 -1.7904  1.9152
  152SAPE   O3116767   1.540   4.355   7.502  0.3119  0.8148  0.5161
  152SAPE   C3116768   1.490   4.408   7.390 -0.3009  0.5435  0.2609
  152SAPE   O3216769   1.392   4.477   7.384  0.4336 -0.4601 -0.1749
  152SAPE   C3216770   1.590   4.377   7.273 -0.5756 -0.9137 -0.0713
  152SAPE   H2X16771   1.600   4.266   7.277 -0.6250 -0.9294 -0.3594
  152SAPE   H2Y16772   1.681   4.433   7.300 -0.1639 -1.0465 -1.1221
  152SAPE   C2316773   1.983   4.305   7.649 -0.2898 -0.8436 -0.4010
  152SAPE   H3R16774   1.998   4.207   7.700 -1.3937 -0.1941  1.2507
  152SAPE   H3S16775   2.082   4.353   7.664 -0.7250  0.0308 -0.2696
  152SAPE   C2416776   1.968   4.289   7.499 -0.0257  0.3447  0.4424
  152SAPE   H4R16777   2.061   4.247   7.456 -0.5677  1.3070 -1.8144
  152SAPE   H4S16778   1.954   4.391   7.456  0.4527  0.4404  0.5108
  152SAPE   C2516779   1.851   4.205   7.460  0.0763  0.1176  1.3846
  152SAPE   H5R16780   1.748   4.235   7.482 -0.3138 -0.0182 -0.1722
  152SAPE   C2616781   1.858   4.078   7.408 -0.3064  0.7295 -0.3373
  152SAPE   H6R16782   1.768   4.014   7.410  0.4216 -0.2877  0.5430
  152SAPE   C2716783   1.984   4.023   7.351 -0.4828 -0.5415 -0.9642
  152SAPE   H7R16784   2.052   4.025   7.439 -3.0991 -1.8466  1.2362
  152SAPE   H7S16785   2.034   4.085   7.273  1.7054 -0.3481  0.4954
  152SAPE   C2816786   1.993   3.882   7.301 -0.0680  0.0720 -0.1800
  152SAPE   H8R16787   2.020   3.805   7.375  1.8386 -0.0970 -0.9953
  152SAPE   C2916788   1.946   3.848   7.177  0.2395  0.2358 -0.8756
  152SAPE   H9R16789   1.947   3.748   7.133 -2.7514  0.7236 -2.3306
  152SAPE  C21016790   1.908   3.945   7.074  0.1855  0.2304 -0.0221
  152SAPE  H10R16791   1.939   3.906   6.975  1.4047  0.8640  0.0951
  152SAPE  H10S16792   1.963   4.042   7.082 -0.5497  0.5749  1.2205
  152SAPE  C21116793   1.764   3.971   7.075  0.1031 -0.6746 -0.2583
  152SAPE  H11R16794   1.722   4.049   7.140 -1.0243 -1.5328  0.0633
  152SAPE  C21216795   1.659   3.906   7.006 -1.0156  0.0030 -0.5271
  152SAPE  H12R16796   1.557   3.910   7.047  0.3053  1.2617  3.0217
  152SAPE  C21316797   1.677   3.795   6.906 -0.2141 -0.6207 -0.0770
  152SAPE  H13R16798   1.570   3.774   6.884 -0.8293 -0.1843  2.2328
  152SAPE  H13S16799   1.706   3.699   6.952  1.5820 -0.2462 -0.3544
  152SAPE  C21416800   1.753   3.832   6.779  0.8450  0.1883  0.9195
  152SAPE  H14R16801   1.862   3.846   6.785  0.9037  1.1895 -1.3160
  152SAPE  C21516802   1.707   3.866   6.658  0.4177 -0.2552  0.8904
  152SAPE  H15R16803   1.783   3.871   6.578 -0.6858  0.7729 -0.1439
  152SAPE  C21616804   1.559   3.870   6.618  0.2207  0.7637 -0.3812
  152SAPE  H16R16805   1.515   3.964   6.657  1.2821 -0.0506  3.0572
  152SAPE  H16S16806   1.498   3.789   6.663  1.3280 -0.2489 -0.6643
  152SAPE  C21716807   1.553   3.865   6.462  1.7428 -0.2325 -0.0605
  152SAPE  H17R16808   1.454   3.821   6.438  0.8179  2.0027 -0.6623
  152SAPE  H17S16809   1.641   3.811   6.421  1.3859 -0.5047 -0.4811
  152SAPE  C21816810   1.537   4.002   6.401  0.3390 -0.1880  0.0395
  152SAPE  H18R16811   1.611   4.078   6.435  0.0300  0.4428 -0.6892
  152SAPE  H18S16812   1.438   4.044   6.430  1.0504  1.7247 -0.1153
  152SAPE  C21916813   1.532   3.994   6.243 -0.5298 -0.1958  0.3801
  152SAPE  H19R16814   1.623   3.949   6.199 -0.4831  0.2902 -0.0332
  152SAPE  H19S16815   1.516   4.095   6.200  2.0146  1.1622  2.3111
  152SAPE  C22016816   1.410   3.922   6.196  0.0442 -0.3131 -0.2630
  152SAPE  H20R16817   1.385   3.947   6.092 -0.3380  2.7827  0.4980
  152SAPE  H20S16818   1.317   3.939   6.253 -0.7780 -1.5218 -1.1888
  152SAPE  H20T16819   1.435   3.813   6.193  0.3394 -0.2304 -0.9037
  152SAPE   C3316820   1.527   4.416   7.137 -0.1387  1.2392  0.6443
  152SAPE   H3X16821   1.534   4.527   7.142  0.1501  1.2020  1.1436
  152SAPE   H3Y16822   1.425   4.380   7.115 -0.1315  1.4376  0.2762
  152SAPE   C3416823   1.589   4.358   7.011  0.1863  0.0368 -0.2956
  152SAPE   H4X16824   1.578   4.247   7.014 -0.6615  0.1410  1.5767
  152SAPE   H4Y16825   1.698   4.380   7.005  0.5349 -0.9690  1.5245
  152SAPE   C3516826   1.511   4.394   6.878  0.2677  0.5516  0.0793
  152SAPE   H5X16827   1.494   4.503   6.861  1.2135  0.6224 -0.4670
  152SAPE   H5Y16828   1.408   4.355   6.888  0.7484 -0.7580  0.0336
  152SAPE   C3616829   1.571   4.326   6.755 -0.5760  0.3156  0.4295
  152SAPE   H6X16830   1.552   4.216   6.755 -1.2498  0.4259 -0.3295
  152SAPE   H6Y16831   1.680   4.346   6.768 -0.9369  3.3457 -0.3938
  152SAPE   C3716832   1.507   4.400   6.630 -0.0592  0.2246  0.9579
  152SAPE   H7X16833   1.519   4.510   6.639  1.8972  0.3019 -1.7304
  152SAPE   H7Y16834   1.407   4.352   6.638 -0.1110  0.1110 -0.2848
  152SAPE   C3816835   1.560   4.365   6.492 -0.1894 -0.3006 -0.4272
  152SAPE   H8X16836   1.543   4.256   6.480  1.7708 -1.0213  2.3991
  152SAPE   H8Y16837   1.667   4.393   6.481 -0.4264  0.2953 -1.3570
  152SAPE   C3916838   1.490   4.436   6.367 -0.3481 -0.2251 -0.2092
  152SAPE   H9X16839   1.568   4.436   6.288  1.6933 -0.0147  1.6995
  152SAPE   H9Y16840   1.472   4.542   6.397 -0.6644 -0.1251 -0.7408
  152SAPE  C31016841   1.369   4.369   6.299 -0.8213 -0.4101  0.7799
  152SAPE  H10X16842   1.281   4.362   6.367  0.8104 -0.7254  2.9769
  152SAPE  H10Y16843   1.396   4.267   6.266  1.4035  0.1245  0.7890
  152SAPE  C31116844   1.330   4.458   6.175 -0.7847  0.1758 -0.3207
  152SAPE  H11X16845   1.256   4.407   6.109 -0.5261  0.3778 -0.7648
  152SAPE  H11Y16846   1.417   4.477   6.110  0.9123  0.5881  1.9645
  152SAPE  C31216847   1.254   4.575   6.227 -0.0367  0.2381  0.2941
  152SAPE  H12X16848   1.300   4.625   6.316  1.6905  1.8544 -1.4230
  152SAPE  H12Y16849   1.150   4.550   6.257 -0.1993  0.5286 -0.0243
  152SAPE  C31316850   1.232   4.679   6.116 -0.3908 -0.6428  0.4941
  152SAPE  H13X16851   1.164   4.632   6.041  0.9152 -1.3069 -0.3217
  152SAPE  H13Y16852   1.326   4.712   6.066 -1.8522  1.0896 -1.3027
  152SAPE  C31416853   1.185   4.811   6.170  0.3366 -0.3514 -0.6189
  152SAPE  H14X16854   1.259   4.843   6.247  1.2849 -1.3737 -1.0722
  152SAPE  H14Y16855   1.089   4.807   6.225  1.4060  0.2219  1.4003
  152SAPE  C31516856   1.184   4.923   6.067  0.1150  0.3609  0.6315
  152SAPE  H15X16857   1.121   4.891   5.981 -0.0407 -0.1768  0.9414
  152SAPE  H15Y16858   1.286   4.939   6.025 -0.0741 -2.1240 -1.0138
  152SAPE  C31616859   1.134   5.058   6.132 -0.2526 -0.2471  0.4191
  152SAPE  H16X16860   1.146   5.048   6.242  0.5777 -0.0749  0.3486
  152SAPE  H16Y16861   1.025   5.062   6.111  0.2246  2.1184 -2.1836
  152SAPE  C31716862   1.190   5.191   6.079  0.5873 -0.4122 -0.2384
  152SAPE  H17X16863   1.210   5.180   5.971 -0.4594  0.7425 -0.5674
  152SAPE  H17Y16864   1.290   5.210   6.122  1.0183 -1.5338 -0.7028
  152SAPE  C31816865   1.106   5.318   6.113 -0.0768  0.3962  0.7691
  152SAPE  H18X16866   1.149   5.406   6.059 -0.5101 -0.0572 -0.3506
  152SAPE  H18Y16867   1.103   5.344   6.221  0.6602 -2.6454  1.5980
  152SAPE  H18Z16868   1.003   5.310   6.071  0.4388  0.4398 -0.5650
  153SAPE     N16869   1.633   3.988   7.908 -0.0759  0.4955  0.4137
  153SAPE   HN116870   1.599   4.061   7.974  0.9888  2.3669 -0.9982
  153SAPE   HN216871   1.699   3.928   7.962  0.0550 -0.9881 -1.3022
  153SAPE   HN316872   1.688   4.045   7.840  1.9962  2.3695  3.4356
  153SAPE   C1216873   1.521   3.911   7.851 -0.5306  0.1523 -0.3850
  153SAPE  H12A16874   1.559   3.849   7.767  3.0032  1.1303  0.3293
  153SAPE  H12B16875   1.450   3.983   7.807  0.1995  1.1101 -0.0211
  153SAPE   C1116876   1.439   3.838   7.963 -0.1939  0.1436  0.5016
  153SAPE  H11A16877   1.352   3.783   7.920  0.7379 -0.7487 -0.2831
  153SAPE  H11B16878   1.401   3.912   8.037  1.1539  0.5426  0.8059
  153SAPE     P16879   1.543   3.597   7.983 -0.3053 -0.3853 -0.6483
  153SAPE   O1316880   1.657   3.585   7.886  0.5221  0.4395  0.1923
  153SAPE   O1416881   1.552   3.516   8.103 -0.0096 -0.6153  0.5732
  153SAPE   O1216882   1.521   3.745   8.032 -0.4432  0.3431  0.0391
  153SAPE   O1116883   1.418   3.566   7.902  0.2807  0.8668 -0.6293
  153SAPE    C116884   1.386   3.433   7.856 -0.8192 -0.2527  0.5047
  153SAPE    HA16885   1.473   3.380   7.811  0.4090  1.8817  0.2247
  153SAPE    HB16886   1.339   3.367   7.932 -1.0423 -0.2854  0.3399
  153SAPE    C216887   1.268   3.426   7.750  0.5723  0.1358 -0.2465
  153SAPE    HS16888   1.216   3.328   7.752  1.6391 -0.4786 -1.3655
  153SAPE   O2116889   1.292   3.448   7.608 -1.0934  0.1032  0.2960
  153SAPE   C2116890   1.375   3.352   7.565  0.1548 -0.4080  0.3184
  153SAPE   O2216891   1.406   3.250   7.623 -0.3685  0.1752 -0.5978
  153SAPE   C2216892   1.411   3.379   7.423  0.1638  0.1016  0.1284
  153SAPE   H2R16893   1.317   3.368   7.365 -0.2645 -1.9337  1.1527
  153SAPE   H2S16894   1.440   3.486   7.412 -1.2763  0.3094 -2.3680
  153SAPE    C316895   1.163   3.528   7.798  0.5336 -0.7039  0.0044
  153SAPE    HX16896   1.203   3.631   7.806  1.3753 -1.0322  0.1767
  153SAPE    HY16897   1.136   3.493   7.900 -0.3430 -1.2281 -0.4026
  153SAPE   O3116898   1.048   3.525   7.711 -0.1481 -0.7371  0.1452
  153SAPE   C3116899   1.047   3.605   7.611  0.2314 -0.2346 -0.3642
  153SAPE   O3216900   1.104   3.710   7.597  0.3169 -0.1564 -0.0407
  153SAPE   C3216901   0.926   3.561   7.517 -0.0050  1.2587 -0.3200
  153SAPE   H2X16902   0.925   3.643   7.442  2.2339 -0.6453 -2.6030
  153SAPE   H2Y16903   0.831   3.553   7.573  0.5666 -0.5005  0.4907
  153SAPE   C2316904   1.519   3.290   7.361 -0.2997 -0.4266  0.4969
  153SAPE   H3R16905   1.496   3.182   7.378 -0.8425 -0.2566  0.8712
  153SAPE   H3S16906   1.610   3.318   7.417 -2.2726  2.8202  2.3945
  153SAPE   C2416907   1.547   3.320   7.211 -0.6910  0.0738  0.1173
  153SAPE   H4R16908   1.451   3.325   7.155 -1.0367 -0.0222  0.6930
  153SAPE   H4S16909   1.611   3.243   7.165  0.2625 -0.1500  1.7307
  153SAPE   C2516910   1.617   3.454   7.197  0.5785  0.2526 -0.4348
  153SAPE   H5R16911   1.559   3.543   7.228 -2.5150 -1.2199 -1.6043
  153SAPE   C2616912   1.745   3.472   7.169 -0.3591  0.7289  0.9600
  153SAPE   H6R16913   1.785   3.573   7.151 -0.0179  0.1549 -2.1714
  153SAPE   C2716914   1.848   3.363   7.128 -0.0770 -0.1729 -0.1526
  153SAPE   H7R16915   1.795   3.268   7.107  1.2758 -0.8755 -0.5124
  153SAPE   H7S16916   1.919   3.346   7.212 -2.4753  1.9292  2.5145
  153SAPE   C2816917   1.914   3.396   6.997 -1.0184  0.1000  0.9371
  153SAPE   H8R16918   2.008   3.453   6.999 -0.7406 -0.2943 -0.2506
  153SAPE   C2916919   1.864   3.370   6.876 -0.7585  0.3596 -0.1556
  153SAPE   H9R16920   1.932   3.390   6.792  0.1579 -0.4060  0.3859
  153SAPE  C21016921   1.733   3.301   6.835 -0.1763 -0.4567  0.3269
  153SAPE  H10R16922   1.705   3.226   6.912 -1.5834  0.6469  0.9372
  153SAPE  H10S16923   1.743   3.238   6.744 -1.1743  1.5689 -1.2737
  153SAPE  C21116924   1.613   3.396   6.814  0.0317  0.2490  0.1179
  153SAPE  H11R16925   1.600   3.454   6.906  3.9280 -0.0107  0.9912
  153SAPE  C21216926   1.543   3.421   6.703 -0.0579 -0.1623 -0.2664
  153SAPE  H12R16927   1.460   3.489   6.725  0.9856  0.2332  3.0234
  153SAPE  C21316928   1.562   3.380   6.560 -0.2317  1.1689 -0.2606
  153SAPE  H13R16929   1.476   3.312   6.537  0.4704 -0.2064  1.0155
  153SAPE  H13S16930   1.652   3.315   6.555 -0.2824  1.1553 -3.2726
  153SAPE  C21416931   1.573   3.471   6.454 -0.7147  0.2485  0.6365
  153SAPE  H14R16932   1.539   3.574   6.472  2.0323  1.0911  1.4461
  153SAPE  C21516933   1.610   3.453   6.328  0.2408 -0.6054 -0.6818
  153SAPE  H15R16934   1.594   3.535   6.256  0.4297 -0.6215 -0.7423
  153SAPE  C21616935   1.662   3.327   6.270  0.0033 -0.3623  0.1097
  153SAPE  H16R16936   1.583   3.254   6.241 -0.3379 -0.5731  1.4992
  153SAPE  H16S16937   1.725   3.276   6.345  0.2579 -0.8720 -0.4409
  153SAPE  C21716938   1.754   3.349   6.154  0.0426 -0.6728  0.0405
  153SAPE  H17R16939   1.794   3.249   6.127  1.8229  0.7576 -3.1315
  153SAPE  H17S16940   1.837   3.418   6.179  1.4790 -2.7564  1.3492
  153SAPE  C21816941   1.683   3.428   6.036 -0.7493 -0.6987 -0.4876
  153SAPE  H18R16942   1.689   3.537   6.059 -0.3904 -0.9381  0.6319
  153SAPE  H18S16943   1.577   3.395   6.036 -0.6379 -1.0592 -0.4583
  153SAPE  C21916944   1.758   3.394   5.902 -0.2991 -0.4619  0.3450
  153SAPE  H19R16945   1.868   3.409   5.908 -0.2226 -0.3848 -0.8281
  153SAPE  H19S16946   1.713   3.461   5.825 -1.6784  2.2433  3.2936
  153SAPE  C22016947   1.721   3.252   5.856 -0.5460 -0.1548 -0.1852
  153SAPE  H20R16948   1.733   3.171   5.932  1.1874 -0.3304 -0.5926
  153SAPE  H20S16949   1.788   3.222   5.772  0.8245  1.1398  0.3959
  153SAPE  H20T16950   1.619   3.260   5.812 -0.2753 -3.4737 -1.7706
  153SAPE   C3316951   0.955   3.437   7.433  0.3621  0.1840  0.1896
  153SAPE   H3X16952   1.017   3.365   7.491 -2.2555 -0.8994  1.8022
  153SAPE   H3Y16953   1.018   3.477   7.351  0.4797  1.6431  0.9726
  153SAPE   C3416954   0.827   3.383   7.363  0.1098 -0.4016 -0.3641
  153SAPE   H4X16955   0.779   3.462   7.301 -1.0591 -1.4068 -0.7927
  153SAPE   H4Y16956   0.748   3.343   7.430 -2.1375  1.0255 -2.0004
  153SAPE   C3516957   0.854   3.279   7.255 -0.6051  1.1868 -0.1244
  153SAPE   H5X16958   0.909   3.190   7.292 -1.7113 -0.1990 -1.6761
  153SAPE   H5Y16959   0.921   3.323   7.178  1.5957 -0.1652  0.9272
  153SAPE   C3616960   0.734   3.226   7.173  0.3319 -0.6486 -0.6667
  153SAPE   H6X16961   0.660   3.307   7.155  1.1897  0.7366  1.5434
  153SAPE   H6Y16962   0.684   3.149   7.234  0.3347  0.4010  0.7071
  153SAPE   C3716963   0.785   3.166   7.040  1.1235 -0.3293 -0.2377
  153SAPE   H7X16964   0.869   3.094   7.056  1.3377 -1.1989 -4.2138
  153SAPE   H7Y16965   0.827   3.251   6.982  0.3372  0.6781  0.6463
  153SAPE   C3816966   0.683   3.093   6.946 -0.9624 -0.2764  0.2015
  153SAPE   H8X16967   0.596   3.156   6.918 -1.0853 -0.9092 -0.9006
  153SAPE   H8Y16968   0.638   3.017   7.014  1.2369  0.5664  2.7650
  153SAPE   C3916969   0.750   3.025   6.827 -0.2691  0.1701  0.9805
  153SAPE   H9X16970   0.688   2.935   6.804  0.9938 -0.0921 -1.7870
  153SAPE   H9Y16971   0.852   2.992   6.856  0.6012  1.2045 -0.7277
  153SAPE  C31016972   0.756   3.108   6.699 -0.4119  0.5216  0.5744
  153SAPE  H10X16973   0.816   3.200   6.710 -1.5926  1.3959 -0.0316
  153SAPE  H10Y16974   0.656   3.140   6.663 -1.1624 -1.8199  0.3508
  153SAPE  C31116975   0.831   3.038   6.578 -0.5368 -0.5672 -0.2724
  153SAPE  H11X16976   0.930   3.011   6.622  0.3274  0.5006 -1.4727
  153SAPE  H11Y16977   0.855   3.116   6.502  1.0061  0.5536  1.2761
  153SAPE  C31216978   0.743   2.928   6.526 -0.2774 -0.3186 -0.3381
  153SAPE  H12X16979   0.657   2.973   6.472 -0.2786 -2.0750 -1.8797
  153SAPE  H12Y16980   0.707   2.864   6.609  0.1094  0.2123  0.2488
  153SAPE  C31316981   0.817   2.832   6.431  0.2220 -0.0491 -0.1148
  153SAPE  H13X16982   0.750   2.744   6.425 -0.3406  0.4265 -0.9928
  153SAPE  H13Y16983   0.913   2.812   6.484  0.9148 -1.0169 -1.6376
  153SAPE  C31416984   0.852   2.888   6.292 -0.3691 -0.2905 -0.3115
  153SAPE  H14X16985   0.921   2.974   6.306  0.7505 -1.3433  0.9541
  153SAPE  H14Y16986   0.761   2.924   6.240 -0.4946 -0.2701 -0.0820
  153SAPE  C31516987   0.920   2.784   6.206  0.1836 -0.2852 -0.1458
  153SAPE  H15X16988   0.864   2.688   6.214  0.8705 -0.6397  0.5271
  153SAPE  H15Y16989   1.017   2.753   6.250  0.5935  1.5242  0.3202
  153SAPE  C31616990   0.957   2.837   6.066 -0.0723 -0.5718  0.4414
  153SAPE  H16X16991   1.034   2.914   6.088 -1.5453  1.2527 -0.4534
  153SAPE  H16Y16992   0.861   2.881   6.031 -0.0659  0.0436  1.1768
  153SAPE  C31716993   0.997   2.728   5.972  0.6484  0.4039 -0.4516
  153SAPE  H17X16994   1.012   2.763   5.868 -2.0783  0.2779 -0.9552
  153SAPE  H17Y16995   0.905   2.668   5.958  0.1560  0.9920  0.1817
  153SAPE  C31816996   1.106   2.633   6.018  0.5057 -0.4407  0.1053
  153SAPE  H18X16997   1.054   2.560   6.083 -2.6617  1.2986 -0.2896
  153SAPE  H18Y16998   1.191   2.688   6.063  0.9954 -2.2562  1.5547
  153SAPE  H18Z16999   1.142   2.573   5.931 -0.2591 -0.3072 -0.3105
  154SAPE     N17000   5.154   4.133   8.165  0.0118 -0.3364  0.3294
  154SAPE   HN117001   5.225   4.103   8.235  0.5228  0.0757 -0.0037
  154SAPE   HN217002   5.178   4.234   8.158 -0.3466 -0.3488 -2.0801
  154SAPE   HN317003   5.056   4.126   8.197 -0.7942 -0.3773 -1.9463
  154SAPE   C1217004   5.176   4.054   8.031  0.0424  0.8824  0.9969
  154SAPE  H12A17005   5.277   4.086   7.997 -0.1435 -0.4006 -0.9082
  154SAPE  H12B17006   5.110   4.100   7.955  1.3790  1.8819  0.3832
  154SAPE   C1117007   5.154   3.904   8.049  0.1093 -0.1599  0.1521
  154SAPE  H11A17008   5.223   3.884   8.134 -0.0779 -0.5075  0.2278
  154SAPE  H11B17009   5.186   3.848   7.958  0.3975 -1.1449  0.8371
  154SAPE     P17010   4.895   3.889   7.967  0.2826 -0.7941 -0.1416
  154SAPE   O1317011   4.804   3.780   8.004 -0.2931  0.1768  0.5280
  154SAPE   O1417012   4.841   4.027   7.969 -0.2931 -0.1391  0.0605
  154SAPE   O1217013   5.014   3.886   8.077 -0.2229  0.3386  0.0415
  154SAPE   O1117014   4.958   3.845   7.833  0.0048 -0.3105  0.7088
  154SAPE    C117015   5.017   3.714   7.822 -0.5412 -0.1481  0.7524
  154SAPE    HA17016   5.125   3.725   7.800 -0.4448 -1.9836  0.0803
  154SAPE    HB17017   5.019   3.659   7.919  0.9141 -0.4187  0.5868
  154SAPE    C217018   4.957   3.640   7.703 -0.6938 -0.2511 -0.3263
  154SAPE    HS17019   5.012   3.548   7.676  1.1286  0.3916  1.0073
  154SAPE   O2117020   4.945   3.732   7.592  0.1918 -0.3652 -0.1760
  154SAPE   C2117021   5.060   3.752   7.531  0.0772  0.0923 -0.0075
  154SAPE   O2217022   5.165   3.691   7.549 -0.2222 -0.2512  0.4975
  154SAPE   C2217023   5.044   3.872   7.439 -0.0652 -0.5649  0.2627
  154SAPE   H2R17024   4.939   3.889   7.406 -0.2570  0.8767  1.5383
  154SAPE   H2S17025   5.078   3.963   7.492  0.2596 -0.3668 -0.2839
  154SAPE    C317026   4.821   3.587   7.750 -0.4108 -0.4920 -0.3256
  154SAPE    HX17027   4.766   3.679   7.780  1.8243 -0.2372  3.7114
  154SAPE    HY17028   4.833   3.527   7.842 -2.2181 -1.6254 -0.7831
  154SAPE   O3117029   4.755   3.506   7.654 -0.0683  0.4756 -0.1157
  154SAPE   C3117030   4.690   3.563   7.553  0.4008 -0.6038 -0.5426
  154SAPE   O3217031   4.676   3.681   7.532 -0.0107  0.1624 -0.3451
  154SAPE   C3217032   4.628   3.446   7.471  0.8729  0.1246  0.3115
  154SAPE   H2X17033   4.560   3.494   7.397 -0.9456  0.4194  2.0760
  154SAPE   H2Y17034   4.571   3.384   7.544 -0.3473 -0.3942 -1.0365
  154SAPE   C2317035   5.130   3.856   7.312 -0.1487  0.1420  0.2283
  154SAPE   H3R17036   5.229   3.829   7.353 -1.2118 -2.5789  1.2392
  154SAPE   H3S17037   5.133   3.955   7.263 -1.6667 -1.0207 -2.4476
  154SAPE   C2417038   5.083   3.765   7.203 -0.0531  0.2135  0.1917
  154SAPE   H4R17039   4.984   3.798   7.164  0.4103 -1.0693 -2.2771
  154SAPE   H4S17040   5.058   3.668   7.251 -1.4129 -0.2895 -1.4400
  154SAPE   C2517041   5.185   3.748   7.084 -0.3232  0.5294 -0.1052
  154SAPE   H5R17042   5.282   3.712   7.121  0.2298  1.8979 -0.1558
  154SAPE   C2617043   5.168   3.779   6.952  0.2766  0.4926 -0.3561
  154SAPE   H6R17044   5.246   3.766   6.875  0.0402  2.1255 -0.9132
  154SAPE   C2717045   5.040   3.826   6.896  0.1053 -0.1199  0.4047
  154SAPE   H7R17046   4.951   3.809   6.959 -0.6268 -0.4720 -0.6981
  154SAPE   H7S17047   5.027   3.762   6.806 -0.6595 -3.6789  2.8335
  154SAPE   C2817048   5.047   3.972   6.863 -0.5019 -0.5361 -0.6061
  154SAPE   H8R17049   5.057   4.038   6.951 -0.4381 -1.4916  0.1156
  154SAPE   C2917050   5.056   4.029   6.746  0.2029 -0.1682  0.8247
  154SAPE   H9R17051   5.057   4.138   6.734 -1.1173 -0.2157  0.1360
  154SAPE  C21017052   5.055   3.956   6.617  0.1324 -0.9211  0.5984
  154SAPE  H10R17053   5.002   4.011   6.536  2.0973 -1.7997 -1.3637
  154SAPE  H10S17054   5.005   3.857   6.618  1.1052 -1.4158  0.6903
  154SAPE  C21117055   5.196   3.925   6.566  0.2115  0.0478 -0.4365
  154SAPE  H11R17056   5.272   3.899   6.641 -0.4654 -0.4553  0.0862
  154SAPE  C21217057   5.241   3.923   6.441  0.0850 -0.6310 -1.0442
  154SAPE  H12R17058   5.347   3.906   6.418  0.1683 -1.1409 -0.3043
  154SAPE  C21317059   5.157   3.955   6.317  0.0328  0.2942  0.6480
  154SAPE  H13R17060   5.053   3.924   6.341  0.2072  0.5492  1.7803
  154SAPE  H13S17061   5.180   3.895   6.227 -0.6308  1.5502 -0.3983
  154SAPE  C21417062   5.182   4.100   6.285 -0.0782  0.5391  0.1635
  154SAPE  H14R17063   5.146   4.169   6.363 -0.0697 -1.2792  1.8780
  154SAPE  C21517064   5.243   4.145   6.172 -0.4078  0.5709  0.5284
  154SAPE  H15R17065   5.249   4.253   6.152 -0.4209  0.9229  2.2250
  154SAPE  C21617066   5.311   4.059   6.064  0.3754  0.0461 -0.0792
  154SAPE  H16R17067   5.242   3.986   6.015 -0.4446  0.8244 -0.1075
  154SAPE  H16S17068   5.389   3.995   6.111 -0.4629  0.1568  1.5042
  154SAPE  C21717069   5.379   4.135   5.945 -0.3436  0.5218 -0.5139
  154SAPE  H17R17070   5.436   4.226   5.975 -1.6739  0.8128  1.3543
  154SAPE  H17S17071   5.310   4.173   5.867  0.5195  1.3724 -0.8814
  154SAPE  C21817072   5.477   4.047   5.876  0.0199 -0.2373  0.1158
  154SAPE  H18R17073   5.421   3.973   5.814  0.0416 -1.0513  1.0438
  154SAPE  H18S17074   5.534   3.991   5.953 -1.1846 -0.2609  1.0181
  154SAPE  C21917075   5.566   4.132   5.777 -0.0888 -0.6471  0.0979
  154SAPE  H19R17076   5.634   4.061   5.726 -1.3851 -1.3682 -0.6880
  154SAPE  H19S17077   5.630   4.195   5.843 -0.8174 -2.2085  2.3914
  154SAPE  C22017078   5.502   4.216   5.663  0.5443 -0.3172 -0.4606
  154SAPE  H20R17079   5.450   4.144   5.596  1.1943 -0.9786 -0.2553
  154SAPE  H20S17080   5.581   4.258   5.598  1.5647 -2.8667 -0.9794
  154SAPE  H20T17081   5.441   4.300   5.703  1.8945  0.2341  0.5099
  154SAPE   C3317082   4.723   3.362   7.380 -0.3019  0.1440 -0.2279
  154SAPE   H3X17083   4.785   3.296   7.445 -3.7725 -2.8857  0.3355
  154SAPE   H3Y17084   4.788   3.429   7.320 -2.7452  0.9191 -2.1945
  154SAPE   C3417085   4.644   3.280   7.277  0.3499 -0.4074  0.2010
  154SAPE   H4X17086   4.619   3.355   7.198 -0.2152 -0.1858  0.5868
  154SAPE   H4Y17087   4.549   3.247   7.323 -0.6899  1.3352 -0.5970
  154SAPE   C3517088   4.714   3.170   7.198  0.9041  0.1983 -0.4977
  154SAPE   H5X17089   4.783   3.103   7.255 -0.5980 -1.9622 -1.0837
  154SAPE   H5Y17090   4.780   3.210   7.118  2.4249  2.1809  1.6017
  154SAPE   C3617091   4.606   3.083   7.134  0.3378 -0.1306 -0.1339
  154SAPE   H6X17092   4.510   3.138   7.122  0.5000  0.4390  0.9926
  154SAPE   H6Y17093   4.568   3.010   7.209 -0.0731 -1.2915 -1.4222
  154SAPE   C3717094   4.637   3.024   6.997  0.1609 -0.2685 -1.0867
  154SAPE   H7X17095   4.558   2.949   6.974 -1.0941  1.2427 -1.9779
  154SAPE   H7Y17096   4.740   2.987   7.013 -0.0359 -0.2675  0.2771
  154SAPE   C3817097   4.624   3.134   6.892 -0.2254 -0.2488 -0.0061
  154SAPE   H8X17098   4.703   3.212   6.901  0.1699 -0.8595  2.6658
  154SAPE   H8Y17099   4.519   3.170   6.897 -1.3692 -3.1867 -0.8459
  154SAPE   C3917100   4.640   3.084   6.751  0.6244 -0.1586 -0.6714
  154SAPE   H9X17101   4.557   3.012   6.735 -0.8773  1.0912  1.0520
  154SAPE   H9Y17102   4.735   3.026   6.742  0.6162 -0.6681  1.7189
  154SAPE  C31017103   4.620   3.179   6.636  0.2149 -0.3053  0.5672
  154SAPE  H10X17104   4.676   3.275   6.645 -0.5025  0.0162  1.8995
  154SAPE  H10Y17105   4.512   3.205   6.636  0.4063  0.5387 -0.1149
  154SAPE  C31117106   4.651   3.117   6.505  0.3183 -0.0044  0.9059
  154SAPE  H11X17107   4.587   3.026   6.500 -0.6800  0.7379 -0.2444
  154SAPE  H11Y17108   4.756   3.100   6.473 -0.0023  3.0157 -2.3173
  154SAPE  C31217109   4.602   3.218   6.399  0.1010 -0.0285  0.2752
  154SAPE  H12X17110   4.652   3.316   6.414  2.9899 -1.1664 -1.2051
  154SAPE  H12Y17111   4.491   3.224   6.405  0.0942 -0.6236  0.7467
  154SAPE  C31317112   4.638   3.178   6.254 -0.2045  0.3748 -0.2277
  154SAPE  H13X17113   4.577   3.088   6.231 -1.8764  1.9159 -2.2417
  154SAPE  H13Y17114   4.746   3.163   6.231 -0.6381 -0.3246 -1.9880
  154SAPE  C31417115   4.602   3.290   6.164 -0.0924  0.5796  0.4117
  154SAPE  H14X17116   4.671   3.374   6.187 -0.3287  0.7661  0.4464
  154SAPE  H14Y17117   4.496   3.321   6.182 -0.7899 -1.9887  1.1087
  154SAPE  C31517118   4.625   3.249   6.016 -0.3221  0.5626 -0.1309
  154SAPE  H15X17119   4.540   3.186   5.983 -0.8895  0.9121  0.6313
  154SAPE  H15Y17120   4.713   3.182   6.007 -1.3562 -0.5463 -3.4445
  154SAPE  C31617121   4.637   3.372   5.934  0.1029 -0.5584  0.2351
  154SAPE  H16X17122   4.727   3.427   5.971 -0.0313 -1.7990  2.5501
  154SAPE  H16Y17123   4.541   3.427   5.946 -0.1704 -0.9410 -0.1589
  154SAPE  C31717124   4.669   3.343   5.787  0.6298 -0.2311  0.2702
  154SAPE  H17X17125   4.587   3.281   5.744 -0.3983  1.2362  0.0473
  154SAPE  H17Y17126   4.761   3.281   5.782 -0.8756 -2.5054 -1.3506
  154SAPE  C31817127   4.688   3.461   5.694  0.7809  0.4909  0.3141
  154SAPE  H18X17128   4.619   3.545   5.717  0.8426 -0.0261  2.6490
  154SAPE  H18Y17129   4.670   3.428   5.589  4.6221  0.6575 -0.5536
  154SAPE  H18Z17130   4.791   3.502   5.699  0.9899  0.8026 -3.4120
  155SAPE     N17131   0.023   1.278   7.486  0.2381 -0.3933  0.2080
  155SAPE   HN117132  -0.011   1.180   7.493  0.7765 -0.6607 -0.7825
  155SAPE   HN217133   0.117   1.277   7.442 -0.3865  1.4931 -1.3455
  155SAPE   HN317134   0.024   1.308   7.586  0.5356  0.3537 -0.0075
  155SAPE   C1217135  -0.052   1.373   7.402  1.2287 -0.1411  0.3053
  155SAPE  H12A17136  -0.163   1.363   7.412  1.2654 -0.3316  0.5333
  155SAPE  H12B17137  -0.022   1.361   7.296  1.5969  0.3955  0.3432
  155SAPE   C1117138   0.001   1.515   7.432 -0.6046 -0.2953 -0.4409
  155SAPE  H11A17139  -0.004   1.590   7.350  3.2410 -1.5220 -2.0157
  155SAPE  H11B17140   0.112   1.511   7.444 -0.5857  0.5131 -0.2591
  155SAPE     P17141  -0.178   1.627   7.583 -0.0325  0.1247  0.3097
  155SAPE   O1317142  -0.252   1.558   7.691  0.6344  0.1510 -0.3631
  155SAPE   O1417143  -0.167   1.773   7.599 -0.0907 -0.2035 -0.2743
  155SAPE   O1217144  -0.039   1.561   7.559  0.4129  0.6158 -0.2171
  155SAPE   O1117145  -0.248   1.593   7.445  0.2915 -0.5457  0.4854
  155SAPE    C117146  -0.274   1.694   7.356  0.5034 -0.6498 -0.0925
  155SAPE    HA17147  -0.351   1.766   7.393  0.3379 -0.2293 -1.2028
  155SAPE    HB17148  -0.183   1.747   7.321  1.0120 -1.4584  0.0014
  155SAPE    C217149  -0.339   1.646   7.232  0.2894  0.1530 -0.5581
  155SAPE    HS17150  -0.450   1.645   7.241  0.4426 -0.4000  1.9807
  155SAPE   O2117151  -0.300   1.506   7.200  0.6753 -0.3244 -0.0679
  155SAPE   C2117152  -0.396   1.422   7.222  0.3925  0.6982  0.1502
  155SAPE   O2217153  -0.503   1.448   7.264 -0.4951  0.2917 -0.2217
  155SAPE   C2217154  -0.351   1.281   7.165  0.1911  0.5222  0.2324
  155SAPE   H2R17155  -0.259   1.298   7.104 -0.0149  3.1207  0.5101
  155SAPE   H2S17156  -0.335   1.219   7.256 -0.0509  2.3594  1.5945
  155SAPE    C317157  -0.317   1.729   7.108 -0.2391 -0.2428 -0.1721
  155SAPE    HX17158  -0.373   1.824   7.123  0.1936 -0.0639  0.3167
  155SAPE    HY17159  -0.354   1.672   7.020  0.7265 -2.8054  0.9800
  155SAPE   O3117160  -0.182   1.754   7.089 -0.6788  0.0613 -0.4751
  155SAPE   C3117161  -0.117   1.663   7.018 -0.2241  0.7948 -0.0148
  155SAPE   O3217162  -0.169   1.568   6.966 -0.2254  0.4806  0.0202
  155SAPE   C3217163   0.035   1.701   7.027  0.0278 -0.1786  0.0837
  155SAPE   H2X17164   0.066   1.654   7.123  0.1613 -3.3679 -1.4135
  155SAPE   H2Y17165   0.056   1.810   7.029 -0.2139 -0.1354  1.3323
  155SAPE   C2317166  -0.474   1.221   7.083 -1.6094 -0.4026 -0.3664
  155SAPE   H3R17167  -0.553   1.203   7.159  0.3255 -2.1195  1.3645
  155SAPE   H3S17168  -0.459   1.123   7.033  1.4737 -1.1445  1.7584
  155SAPE   C2417169  -0.521   1.307   6.970 -0.5965 -0.2345  0.0760
  155SAPE   H4R17170  -0.564   1.404   7.002 -0.1626  0.0055 -0.0523
  155SAPE   H4S17171  -0.607   1.256   6.924 -1.2102  0.3049  0.6054
  155SAPE   C2517172  -0.424   1.341   6.855 -0.5215  0.3394  0.3316
  155SAPE   H5R17173  -0.320   1.347   6.890  0.2367  0.7643 -1.8187
  155SAPE   C2617174  -0.444   1.329   6.721  0.3371  0.3062 -0.1050
  155SAPE   H6R17175  -0.355   1.339   6.658 -1.1322  1.9047 -2.0754
  155SAPE   C2717176  -0.571   1.279   6.657  0.2954  0.7737  0.0772
  155SAPE   H7R17177  -0.615   1.192   6.710  0.3218  1.3873  1.1411
  155SAPE   H7S17178  -0.552   1.251   6.551 -3.0263  0.6789 -0.6109
  155SAPE   C2817179  -0.681   1.382   6.649 -0.8551 -0.7122 -0.2331
  155SAPE   H8R17180  -0.765   1.367   6.720 -1.7893 -1.9141 -1.5217
  155SAPE   C2917181  -0.681   1.483   6.563 -0.4704 -0.0124 -0.0296
  155SAPE   H9R17182  -0.768   1.551   6.561  0.2261  0.9705  1.2928
  155SAPE  C21017183  -0.581   1.527   6.458  0.3342  0.3761  0.3059
  155SAPE  H10R17184  -0.639   1.519   6.363  0.5670 -3.0562  0.3096
  155SAPE  H10S17185  -0.490   1.464   6.456  1.9390  2.6150 -0.0265
  155SAPE  C21117186  -0.520   1.665   6.471 -0.5629 -0.6137 -1.0009
  155SAPE  H11R17187  -0.465   1.680   6.565  1.6164  0.0678 -2.3082
  155SAPE  C21217188  -0.527   1.774   6.386 -0.4118  0.2302 -0.5766
  155SAPE  H12R17189  -0.478   1.868   6.416 -1.7219  0.3491  1.3459
  155SAPE  C21317190  -0.600   1.772   6.249 -0.3647  0.2365 -0.2877
  155SAPE  H13R17191  -0.701   1.725   6.252 -0.0133 -0.5642 -0.6034
  155SAPE  H13S17192  -0.548   1.695   6.188 -2.4629 -1.2575 -0.3129
  155SAPE  C21417193  -0.608   1.906   6.190 -0.8807 -0.7697  0.3656
  155SAPE  H14R17194  -0.675   1.981   6.235  0.7233 -1.3584  4.0537
  155SAPE  C21517195  -0.547   1.930   6.075 -0.7132 -0.1673  0.5792
  155SAPE  H15R17196  -0.562   2.029   6.028  0.9579  0.0616  0.4622
  155SAPE  C21617197  -0.485   1.826   5.977 -0.2390 -0.7601  0.1599
  155SAPE  H16R17198  -0.566   1.754   5.950 -1.1630  0.0942  0.5656
  155SAPE  H16S17199  -0.405   1.767   6.026 -1.5761 -2.8180  0.0094
  155SAPE  C21717200  -0.427   1.886   5.846 -1.4357  0.5577  0.2368
  155SAPE  H17R17201  -0.361   1.974   5.860  1.9287 -1.6831 -0.5169
  155SAPE  H17S17202  -0.514   1.927   5.789 -1.5440  0.9771  0.6937
  155SAPE  C21817203  -0.351   1.786   5.757 -0.2836 -0.1632  0.1637
  155SAPE  H18R17204  -0.426   1.732   5.695 -0.1647 -0.4144  0.2365
  155SAPE  H18S17205  -0.307   1.711   5.826 -2.8397 -1.4089  0.5478
  155SAPE  C21917206  -0.252   1.855   5.671 -0.4737 -0.2421  0.0753
  155SAPE  H19R17207  -0.185   1.922   5.729  0.5688 -0.1890 -1.1377
  155SAPE  H19S17208  -0.290   1.922   5.592  0.8619  0.6957  0.1924
  155SAPE  C22017209  -0.169   1.754   5.584  0.4645  0.2836  0.2689
  155SAPE  H20R17210  -0.233   1.716   5.501  0.4154 -0.1007  0.4819
  155SAPE  H20S17211  -0.139   1.665   5.643  2.2103  0.6290 -0.0346
  155SAPE  H20T17212  -0.071   1.794   5.551  0.7855  1.4946  2.4806
  155SAPE   C3317213   0.122   1.624   6.923 -0.0475  0.9091  0.0834
  155SAPE   H3X17214   0.096   1.516   6.920  2.0483  0.3922 -0.6887
  155SAPE   H3Y17215   0.230   1.629   6.945 -0.1017  0.4673  0.4627
  155SAPE   C3417216   0.100   1.672   6.779 -0.2227  0.7883  0.2447
  155SAPE   H4X17217   0.155   1.766   6.759  0.5914 -0.3373 -3.5586
  155SAPE   H4Y17218  -0.006   1.706   6.768 -0.7972 -1.0425 -0.2672
  155SAPE   C3517219   0.142   1.574   6.663  0.0148  0.1261 -0.7972
  155SAPE   H5X17220   0.095   1.615   6.571  0.0941  1.9399 -0.0717
  155SAPE   H5Y17221   0.091   1.478   6.683 -1.1070  0.9424  0.4005
  155SAPE   C3617222   0.299   1.554   6.660 -0.5616  0.2107  0.2290
  155SAPE   H6X17223   0.336   1.467   6.600 -2.2761 -1.6101  1.6914
  155SAPE   H6Y17224   0.345   1.530   6.758 -0.1402 -3.2504 -0.6744
  155SAPE   C3717225   0.374   1.686   6.603  0.7656  0.7319 -0.3699
  155SAPE   H7X17226   0.484   1.673   6.593  0.8691  0.5424  0.9214
  155SAPE   H7Y17227   0.356   1.766   6.678  0.3186 -1.8389  2.4538
  155SAPE   C3817228   0.324   1.714   6.465  0.7926 -0.2469  0.3187
  155SAPE   H8X17229   0.217   1.743   6.466  1.1230  1.6321 -3.1516
  155SAPE   H8Y17230   0.339   1.622   6.406  0.6395 -0.3224  0.3970
  155SAPE   C3917231   0.401   1.823   6.394  0.2338  0.1077  0.7734
  155SAPE   H9X17232   0.513   1.822   6.397  0.2543 -0.5101  0.0677
  155SAPE   H9Y17233   0.360   1.918   6.435 -0.6341  1.1355 -2.2234
  155SAPE  C31017234   0.354   1.834   6.251  0.7527  0.1152  0.1353
  155SAPE  H10X17235   0.307   1.935   6.243  0.2656 -0.2361 -1.7474
  155SAPE  H10Y17236   0.275   1.759   6.228  1.7404 -0.6414 -0.8591
  155SAPE  C31117237   0.462   1.829   6.147  0.5063 -0.0588 -0.2187
  155SAPE  H11X17238   0.522   1.737   6.164  2.4227  0.4165 -3.4914
  155SAPE  H11Y17239   0.529   1.915   6.168  1.1699 -0.8489  1.0299
  155SAPE  C31217240   0.408   1.838   6.004  0.2346 -0.0541  0.2147
  155SAPE  H12X17241   0.320   1.774   5.984  0.0409  0.3145 -0.1214
  155SAPE  H12Y17242   0.493   1.801   5.943  0.3443  0.0177  0.3216
  155SAPE  C31317243   0.395   1.987   5.959  0.3840 -0.7156  0.6001
  155SAPE  H13X17244   0.497   2.023   5.933 -0.2163  1.6687  1.2707
  155SAPE  H13Y17245   0.345   2.045   6.039 -3.2177 -3.0149  0.2870
  155SAPE  C31417246   0.304   2.009   5.835 -0.0856  0.3764  0.4024
  155SAPE  H14X17247   0.219   1.942   5.860  2.4554 -3.2143  0.1771
  155SAPE  H14Y17248   0.345   1.961   5.744 -1.7010  0.7799 -0.5802
  155SAPE  C31517249   0.246   2.156   5.806  0.6941 -0.1881  0.9177
  155SAPE  H15X17250   0.328   2.199   5.744 -0.7351 -0.3439 -1.2126
  155SAPE  H15Y17251   0.229   2.219   5.896  0.6356 -0.1898  0.9080
  155SAPE  C31617252   0.112   2.153   5.733 -0.0195  0.3451  0.2330
  155SAPE  H16X17253   0.075   2.257   5.742  0.5162  0.5475  0.1758
  155SAPE  H16Y17254   0.032   2.098   5.786 -1.1064  1.4687 -0.1928
  155SAPE  C31717255   0.138   2.100   5.600  1.1517 -0.1357 -0.3472
  155SAPE  H17X17256   0.167   1.994   5.610 -2.0017 -1.1295 -0.6268
  155SAPE  H17Y17257   0.225   2.152   5.554  0.6498 -0.0879 -1.2560
  155SAPE  C31817258   0.011   2.114   5.501 -0.3790  0.1388  0.2512
  155SAPE  H18X17259  -0.071   2.045   5.532  2.0638 -3.2111 -0.1992
  155SAPE  H18Y17260   0.039   2.094   5.395  1.1571  1.0996  0.4494
  155SAPE  H18Z17261  -0.028   2.217   5.512 -1.2767  0.0379 -1.5649
  156SAPE     N17262   0.806   3.281   7.991 -0.2145  0.2516 -0.2347
  156SAPE   HN117263   0.877   3.348   8.025 -1.5712  1.6062  0.0255
  156SAPE   HN217264   0.716   3.298   8.040 -0.7620  0.7415 -1.3650
  156SAPE   HN317265   0.828   3.182   8.012  2.2195  1.2899  2.8446
  156SAPE   C1217266   0.778   3.320   7.846 -0.2457  0.0912  0.2353
  156SAPE  H12A17267   0.806   3.428   7.852  0.9889 -0.1753 -0.4245
  156SAPE  H12B17268   0.676   3.289   7.815 -1.1196  2.9464 -0.0804
  156SAPE   C1117269   0.877   3.259   7.747 -0.7244  0.4717 -0.3801
  156SAPE  H11A17270   0.983   3.280   7.775 -1.2681 -0.9705  3.4496
  156SAPE  H11B17271   0.849   3.301   7.648 -4.4610  1.2278  0.8402
  156SAPE     P17272   0.959   3.014   7.798 -0.1249 -0.6229 -0.2827
  156SAPE   O1317273   0.987   3.061   7.936 -0.3517 -0.1007 -0.8507
  156SAPE   O1417274   0.899   2.877   7.775 -0.4229  0.1668 -0.0852
  156SAPE   O1217275   0.864   3.120   7.739  0.2641  0.2094  0.4198
  156SAPE   O1117276   1.090   3.037   7.718  0.3287 -0.0469  0.3854
  156SAPE    C117277   1.084   3.048   7.576  0.0193 -0.4003  0.2626
  156SAPE    HA17278   0.997   2.994   7.533 -0.9856  1.0742  0.3744
  156SAPE    HB17279   1.071   3.155   7.549 -1.9182 -0.6735 -0.0550
  156SAPE    C217280   1.202   2.985   7.495  0.6265  0.0509  0.5690
  156SAPE    HS17281   1.296   3.044   7.495  0.2447  0.6676  0.8146
  156SAPE   O2117282   1.154   2.959   7.363 -0.5097 -0.5107  0.5865
  156SAPE   C2117283   1.202   3.050   7.267 -0.3528  0.5414 -0.8498
  156SAPE   O2217284   1.285   3.132   7.295 -0.5224 -0.0309 -0.6261
  156SAPE   C2217285   1.150   3.023   7.126 -0.5818 -0.2810 -0.5752
  156SAPE   H2R17286   1.131   2.913   7.121 -4.5120  0.1257  1.5599
  156SAPE   H2S17287   1.051   3.070   7.113  0.1869  1.3357 -0.7718
  156SAPE    C317288   1.238   2.846   7.563 -0.1232 -0.0760  0.4330
  156SAPE    HX17289   1.146   2.782   7.561  0.5144 -1.0121 -1.4244
  156SAPE    HY17290   1.270   2.859   7.668  0.6878  0.3309  0.1378
  156SAPE   O3117291   1.335   2.771   7.482  1.0639  1.0604  0.6517
  156SAPE   C3117292   1.455   2.824   7.474  0.3700 -0.0581 -0.2131
  156SAPE   O3217293   1.503   2.908   7.551  0.4600 -0.2043 -0.0103
  156SAPE   C3217294   1.534   2.769   7.356 -0.4743 -0.0019 -0.2895
  156SAPE   H2X17295   1.459   2.734   7.282  0.0460  0.4713 -1.0511
  156SAPE   H2Y17296   1.587   2.680   7.398  1.3030  2.3458  2.9076
  156SAPE   C2317297   1.237   3.082   7.011 -0.2335  0.9168  0.0240
  156SAPE   H3R17298   1.330   3.021   7.000 -0.0518  1.2687 -0.4377
  156SAPE   H3S17299   1.262   3.189   7.021  0.1897  1.0842 -2.1608
  156SAPE   C2417300   1.176   3.068   6.875  0.9440  0.2304 -0.4073
  156SAPE   H4R17301   1.230   3.135   6.804  2.1892 -1.8777 -1.5270
  156SAPE   H4S17302   1.070   3.101   6.884  0.6566 -1.1699  2.1760
  156SAPE   C2517303   1.180   2.927   6.830 -0.0115  0.0503  0.3531
  156SAPE   H5R17304   1.132   2.852   6.894  0.4842 -1.3278 -0.8370
  156SAPE   C2617305   1.254   2.873   6.730  0.1293 -0.2073  0.1574
  156SAPE   H6R17306   1.227   2.766   6.723  1.9359 -0.6997  0.1991
  156SAPE   C2717307   1.339   2.930   6.615  1.1091  0.7379 -0.4247
  156SAPE   H7R17308   1.448   2.925   6.638  1.4191 -2.5535 -2.1483
  156SAPE   H7S17309   1.310   3.035   6.592  2.8035  1.0682 -1.1698
  156SAPE   C2817310   1.308   2.849   6.489  0.1318  0.1474 -0.0701
  156SAPE   H8R17311   1.244   2.760   6.502  3.2517 -2.5268 -1.4406
  156SAPE   C2917312   1.353   2.878   6.360  0.6977  0.5286  0.2508
  156SAPE   H9R17313   1.334   2.807   6.278  2.2493  0.7737 -0.3555
  156SAPE  C21017314   1.447   2.988   6.338 -0.3389  0.8412 -0.7424
  156SAPE  H10R17315   1.511   2.960   6.252  1.0244  0.5965  0.3279
  156SAPE  H10S17316   1.520   2.996   6.421 -0.0563  2.8842 -1.1292
  156SAPE  C21117317   1.372   3.114   6.317  0.1088  0.2424  0.5532
  156SAPE  H11R17318   1.334   3.179   6.397 -2.8471  0.5079 -0.9198
  156SAPE  C21217319   1.332   3.155   6.190 -0.3924  0.8643  0.1087
  156SAPE  H12R17320   1.301   3.258   6.165 -1.7220  0.3493 -0.4988
  156SAPE  C21317321   1.393   3.079   6.072  0.5936  0.7384 -0.1247
  156SAPE  H13R17322   1.414   2.971   6.092 -0.4234  0.7526  1.1443
  156SAPE  H13S17323   1.480   3.133   6.028 -0.9892  1.7859 -2.1389
  156SAPE  C21417324   1.293   3.090   5.954 -0.2193  0.2372  0.3667
  156SAPE  H14R17325   1.224   3.175   5.955 -0.8702 -0.2238 -1.3789
  156SAPE  C21517326   1.271   3.003   5.849 -0.1406 -0.1134 -0.2632
  156SAPE  H15R17327   1.187   3.016   5.779  0.1821  0.6873 -0.5175
  156SAPE  C21617328   1.360   2.892   5.808 -0.5317  0.8111 -0.1600
  156SAPE  H16R17329   1.308   2.794   5.813 -0.8724  0.9786 -0.4439
  156SAPE  H16S17330   1.444   2.890   5.882  0.1249 -2.0264 -0.8482
  156SAPE  C21717331   1.425   2.924   5.673 -0.0826 -0.6464  0.4848
  156SAPE  H17R17332   1.440   3.034   5.671  0.3077 -0.5703  3.4164
  156SAPE  H17S17333   1.359   2.891   5.589 -1.1258 -0.8283  1.3596
  156SAPE  C21817334   1.561   2.863   5.647  0.0271  0.0178  0.2525
  156SAPE  H18R17335   1.556   2.754   5.625 -2.1274  0.2849 -0.9244
  156SAPE  H18S17336   1.623   2.865   5.738  1.0430 -0.9095 -0.3951
  156SAPE  C21917337   1.652   2.921   5.539 -0.5993  0.3618 -0.3486
  156SAPE  H19R17338   1.687   3.021   5.572 -0.7405  0.0643  0.7178
  156SAPE  H19S17339   1.589   2.932   5.448 -1.3941  0.3574  0.1993
  156SAPE  C22017340   1.766   2.829   5.502  0.0271  0.2253 -0.0388
  156SAPE  H20R17341   1.826   2.785   5.585  0.4351 -0.9824 -0.9389
  156SAPE  H20S17342   1.831   2.877   5.426 -0.6762  2.1049  0.4969
  156SAPE  H20T17343   1.725   2.736   5.455 -1.0160  0.1757  0.9154
  156SAPE   C3317344   1.626   2.879   7.297 -0.3912  0.5046 -1.5922
  156SAPE   H3X17345   1.712   2.898   7.365 -0.4047 -0.6310 -1.2291
  156SAPE   H3Y17346   1.571   2.974   7.284  0.8018  1.7291  1.2732
  156SAPE   C3417347   1.685   2.836   7.165  0.6743  0.3101  0.1858
  156SAPE   H4X17348   1.727   2.733   7.174  1.3871  0.6457  0.7143
  156SAPE   H4Y17349   1.767   2.907   7.146 -0.5520  2.1554  1.4668
  156SAPE   C3517350   1.589   2.862   7.049  0.1977  0.0107 -0.2364
  156SAPE   H5X17351   1.554   2.967   7.043  1.6895  0.5111 -0.7488
  156SAPE   H5Y17352   1.500   2.797   7.058 -1.8067  2.7826  2.3768
  156SAPE   C3617353   1.659   2.833   6.909 -0.3998  0.3472 -0.7815
  156SAPE   H6X17354   1.751   2.895   6.903 -0.2751  0.5929  2.2646
  156SAPE   H6Y17355   1.580   2.877   6.844 -1.5428  0.5662  0.6950
  156SAPE   C3717356   1.698   2.684   6.897  0.2736  0.8352 -0.4788
  156SAPE   H7X17357   1.623   2.604   6.916  2.2908 -1.7783 -2.6247
  156SAPE   H7Y17358   1.780   2.662   6.968 -0.2473 -0.1450 -0.1620
  156SAPE   C3817359   1.740   2.655   6.754 -0.0635 -0.8877  0.1567
  156SAPE   H8X17360   1.825   2.720   6.723 -1.0280  0.1803 -0.3164
  156SAPE   H8Y17361   1.652   2.669   6.688  0.2018 -1.8423 -0.4207
  156SAPE   C3917362   1.797   2.519   6.725 -0.5166 -0.4084  0.4649
  156SAPE   H9X17363   1.715   2.448   6.748 -1.3955  0.8739  1.5211
  156SAPE   H9Y17364   1.873   2.495   6.802 -0.6635 -0.2324  0.6675
  156SAPE  C31017365   1.845   2.504   6.581 -0.5547 -0.5924 -0.5901
  156SAPE  H10X17366   1.934   2.568   6.563 -1.6459  0.6424 -1.8676
  156SAPE  H10Y17367   1.768   2.540   6.509 -0.3018 -1.4126 -1.2990
  156SAPE  C31117368   1.879   2.364   6.548 -0.2739 -0.0014  0.2497
  156SAPE  H11X17369   1.791   2.301   6.573 -0.0905 -0.5452 -0.4455
  156SAPE  H11Y17370   1.966   2.336   6.611  0.8893  1.6476 -0.5390
  156SAPE  C31217371   1.916   2.354   6.400 -0.2875  0.4020 -0.5932
  156SAPE  H12X17372   2.021   2.387   6.387 -0.7240  1.8653 -0.5763
  156SAPE  H12Y17373   1.859   2.417   6.329 -0.3638  0.3691 -0.5618
  156SAPE  C31317374   1.913   2.208   6.342  0.3501 -0.8871 -0.0913
  156SAPE  H13X17375   1.811   2.167   6.360  0.1999 -0.0069  1.1648
  156SAPE  H13Y17376   1.989   2.142   6.390  0.4899  0.0667  1.0184
  156SAPE  C31417377   1.945   2.213   6.189  0.0460  0.2539  0.1864
  156SAPE  H14X17378   2.052   2.241   6.180  0.3672 -0.6389  1.0460
  156SAPE  H14Y17379   1.886   2.297   6.147 -3.0791 -1.2786  1.2280
  156SAPE  C31517380   1.915   2.092   6.097  0.2467 -0.0489  0.5294
  156SAPE  H15X17381   1.806   2.074   6.093  0.1444  0.5475 -4.0169
  156SAPE  H15Y17382   1.952   1.997   6.142 -0.3270 -0.8842 -0.7097
  156SAPE  C31617383   1.962   2.111   5.947 -0.0174 -0.7448 -0.3486
  156SAPE  H16X17384   1.910   2.203   5.914  0.2071  0.2480  1.8523
  156SAPE  H16Y17385   1.925   2.027   5.885 -1.5130 -0.6605  0.3985
  156SAPE  C31717386   2.115   2.095   5.916 -0.1466  1.1477  0.1472
  156SAPE  H17X17387   2.147   1.992   5.943 -1.8645  0.3516 -0.6859
  156SAPE  H17Y17388   2.179   2.164   5.974  1.9365 -1.4199  1.1142
  156SAPE  C31817389   2.169   2.113   5.767 -0.2271  0.0927 -0.0762
  156SAPE  H18X17390   2.133   2.032   5.700 -1.0061  0.1919  0.2041
  156SAPE  H18Y17391   2.280   2.111   5.773 -0.2406 -0.6496  0.0372
  156SAPE  H18Z17392   2.133   2.212   5.733 -1.5339 -0.4540 -0.3576
  157SAPE     N17393   2.567   1.522   7.871  0.2642  0.3931  0.3949
  157SAPE   HN117394   2.577   1.601   7.937  1.7600  1.1835 -0.7355
  157SAPE   HN217395   2.506   1.445   7.906  4.2879 -3.2005  0.4191
  157SAPE   HN317396   2.664   1.484   7.862 -0.1319 -0.7881  0.8722
  157SAPE   C1217397   2.509   1.572   7.744  0.1907 -0.4112 -0.2096
  157SAPE  H12A17398   2.506   1.478   7.684 -3.9406  0.0777 -1.0426
  157SAPE  H12B17399   2.571   1.662   7.723 -0.3075 -0.1427 -0.5627
  157SAPE   C1117400   2.362   1.621   7.760 -0.7342 -0.7762  0.0818
  157SAPE  H11A17401   2.317   1.655   7.665  0.7245 -0.2717 -0.4638
  157SAPE  H11B17402   2.376   1.715   7.818 -0.3490 -0.2413 -0.8677
  157SAPE     P17403   2.200   1.426   7.782  0.0384  0.2071  0.5383
  157SAPE   O1317404   2.296   1.315   7.763  0.1932  0.1241  0.0635
  157SAPE   O1417405   2.082   1.399   7.872 -0.2911  0.3982 -0.5908
  157SAPE   O1217406   2.278   1.546   7.839  0.3258 -0.0790 -0.3194
  157SAPE   O1117407   2.149   1.475   7.645  0.0908  0.5044  0.3694
  157SAPE    C117408   2.135   1.381   7.531 -1.0000 -0.9750 -0.4638
  157SAPE    HA17409   2.237   1.341   7.516  0.6077  1.2320  3.1742
  157SAPE    HB17410   2.073   1.291   7.552  0.0545 -1.8723 -1.1095
  157SAPE    C217411   2.080   1.462   7.414 -0.2308  0.9785 -0.6155
  157SAPE    HS17412   2.088   1.389   7.331 -3.6948 -3.4935  2.4986
  157SAPE   O2117413   2.151   1.587   7.388 -0.1117  0.2612  0.4591
  157SAPE   C2117414   2.272   1.570   7.359 -0.0906  0.5829  0.3544
  157SAPE   O2217415   2.334   1.464   7.342 -0.1014 -0.6196  0.3255
  157SAPE   C2217416   2.342   1.702   7.329  0.7050  0.3503 -0.8325
  157SAPE   H2R17417   2.318   1.703   7.221 -0.9798 -4.0340 -0.7269
  157SAPE   H2S17418   2.285   1.780   7.384  2.9694  1.0071  0.7327
  157SAPE    C317419   1.929   1.484   7.424  0.3317 -0.3044  0.5450
  157SAPE    HX17420   1.916   1.520   7.529 -0.3189 -1.5668  0.9154
  157SAPE    HY17421   1.888   1.382   7.414  1.7529 -0.8793  0.4343
  157SAPE   O3117422   1.877   1.576   7.324 -0.2405  0.1276 -0.4987
  157SAPE   C3117423   1.772   1.647   7.371 -0.2077 -0.1902  0.0979
  157SAPE   O3217424   1.736   1.651   7.484 -0.0962  0.0320 -0.1025
  157SAPE   C3217425   1.729   1.747   7.265  0.5020  0.0042 -0.0021
  157SAPE   H2X17426   1.808   1.825   7.262  0.1464  0.3456 -0.9224
  157SAPE   H2Y17427   1.629   1.792   7.282  0.0788 -2.1401  5.1636
  157SAPE   C2317428   2.494   1.705   7.356 -0.1822  0.2836  1.1973
  157SAPE   H3R17429   2.514   1.665   7.457  0.4949  1.3392  1.5067
  157SAPE   H3S17430   2.513   1.815   7.360  0.9240  0.0889  1.7141
  157SAPE   C2417431   2.568   1.652   7.234 -0.5417 -0.2267 -0.3237
  157SAPE   H4R17432   2.542   1.697   7.136  0.4732  0.7654 -0.1530
  157SAPE   H4S17433   2.543   1.544   7.224 -0.4850 -0.1919 -0.8648
  157SAPE   C2517434   2.714   1.666   7.268 -0.0929  0.1613 -0.0212
  157SAPE   H5R17435   2.753   1.572   7.311  0.3502  0.1583 -0.4147
  157SAPE   C2617436   2.795   1.777   7.256 -0.0694  0.4010  0.1301
  157SAPE   H6R17437   2.894   1.778   7.303  0.5111 -1.0350 -0.9667
  157SAPE   C2717438   2.747   1.911   7.213  0.4170 -0.2981  0.9681
  157SAPE   H7R17439   2.653   1.917   7.153  1.1625  3.2734 -0.1240
  157SAPE   H7S17440   2.821   1.950   7.140 -0.8740 -0.5491 -0.5423
  157SAPE   C2817441   2.737   2.002   7.332  0.5112  0.1757 -0.4255
  157SAPE   H8R17442   2.712   1.949   7.425  0.6863 -0.5041 -0.7537
  157SAPE   C2917443   2.747   2.140   7.337  0.0839  0.6973 -0.0944
  157SAPE   H9R17444   2.752   2.190   7.434  0.8606 -0.3019  0.4033
  157SAPE  C21017445   2.781   2.240   7.233 -0.2379 -0.2885  0.7223
  157SAPE  H10R17446   2.729   2.210   7.139 -2.1438 -0.2739  1.7109
  157SAPE  H10S17447   2.889   2.238   7.210 -0.7249 -0.1794 -1.9782
  157SAPE  C21117448   2.740   2.384   7.269  1.4591 -0.2249  0.2531
  157SAPE  H11R17449   2.698   2.408   7.367  0.7169 -2.0661  0.4389
  157SAPE  C21217450   2.748   2.484   7.182 -0.0651 -0.1963 -0.3927
  157SAPE  H12R17451   2.709   2.584   7.205 -0.7519 -0.1589 -1.6550
  157SAPE  C21317452   2.801   2.478   7.044  0.2146  0.2128  0.1440
  157SAPE  H13R17453   2.868   2.390   7.033 -0.5998 -0.6149  1.5692
  157SAPE  H13S17454   2.877   2.558   7.029 -0.8706  1.5358  1.4010
  157SAPE  C21417455   2.701   2.460   6.934 -0.2685 -0.5806 -1.0336
  157SAPE  H14R17456   2.596   2.456   6.967 -0.0709 -1.5820 -0.4835
  157SAPE  C21517457   2.733   2.448   6.806 -0.6277 -0.9918 -0.1874
  157SAPE  H15R17458   2.656   2.429   6.731  0.8270  1.6949 -2.5732
  157SAPE  C21617459   2.882   2.463   6.753 -0.0750  0.2221  0.2504
  157SAPE  H16R17460   2.964   2.497   6.820 -2.5100  3.2411  1.9752
  157SAPE  H16S17461   2.876   2.549   6.683 -2.5016 -0.1195 -0.0489
  157SAPE  C21717462   2.932   2.336   6.678  0.1167 -0.5397 -0.0240
  157SAPE  H17R17463   3.015   2.371   6.613  0.5111  0.9472  1.2215
  157SAPE  H17S17464   2.857   2.291   6.609  0.3588 -0.7847 -0.1302
  157SAPE  C21817465   2.973   2.230   6.782  0.6749  0.4460  0.9114
  157SAPE  H18R17466   2.907   2.217   6.871 -0.6910  0.3717 -0.0796
  157SAPE  H18S17467   3.076   2.253   6.816  0.6655  0.0274  1.2409
  157SAPE  C21917468   2.984   2.090   6.714  0.0499 -0.5217  0.4875
  157SAPE  H19R17469   3.059   2.094   6.632  0.8953  0.8225  1.2959
  157SAPE  H19S17470   2.883   2.065   6.675 -0.6528 -0.9243  2.4654
  157SAPE  C22017471   3.043   1.986   6.809  0.3732  0.2147 -0.1998
  157SAPE  H20R17472   3.056   1.888   6.757  0.8040  0.5788 -0.7981
  157SAPE  H20S17473   2.978   1.960   6.895 -1.3147 -1.5812 -1.9260
  157SAPE  H20T17474   3.144   2.021   6.838 -0.1885  1.1274  0.7037
  157SAPE   C3317475   1.722   1.677   7.126  0.0169  0.5984  0.6171
  157SAPE   H3X17476   1.650   1.593   7.133 -2.0973  2.2145 -0.6131
  157SAPE   H3Y17477   1.827   1.641   7.117  0.3161  1.4017  0.8146
  157SAPE   C3417478   1.678   1.777   7.019  0.3607  0.4117  0.4160
  157SAPE   H4X17479   1.737   1.868   7.046 -1.4803  2.0396 -0.7357
  157SAPE   H4Y17480   1.570   1.800   7.032  0.4088  1.7411 -1.1300
  157SAPE   C3517481   1.705   1.744   6.870  0.4901 -0.0730 -1.1375
  157SAPE   H5X17482   1.815   1.746   6.855  0.6245 -0.8746 -0.3306
  157SAPE   H5Y17483   1.651   1.809   6.798 -2.2253 -1.5345 -0.5550
  157SAPE   C3617484   1.648   1.603   6.831 -0.2336  0.0796  0.1583
  157SAPE   H6X17485   1.555   1.592   6.891 -0.1523  0.8756  0.4407
  157SAPE   H6Y17486   1.713   1.523   6.872 -1.4870 -0.3004  1.4885
  157SAPE   C3717487   1.620   1.594   6.683 -0.7946  0.0148 -0.1393
  157SAPE   H7X17488   1.544   1.670   6.656  1.6464  3.4062  1.7587
  157SAPE   H7Y17489   1.584   1.491   6.661  0.7999 -0.2343 -1.9006
  157SAPE   C3817490   1.752   1.611   6.605 -0.1892  0.3657  1.1242
  157SAPE   H8X17491   1.836   1.546   6.639  2.4764  2.7359 -0.5164
  157SAPE   H8Y17492   1.793   1.713   6.622  1.0165 -0.0823  0.9940
  157SAPE   C3917493   1.732   1.588   6.449  0.5575 -0.3334 -0.0485
  157SAPE   H9X17494   1.713   1.486   6.408 -2.1601  0.3955 -0.8158
  157SAPE   H9Y17495   1.823   1.627   6.400  0.2631 -0.3409 -0.6143
  157SAPE  C31017496   1.616   1.675   6.397 -0.4887  0.7777  0.3456
  157SAPE  H10X17497   1.632   1.777   6.437 -2.4232  0.6764  1.4670
  157SAPE  H10Y17498   1.517   1.636   6.428 -0.0756 -1.4807 -0.9627
  157SAPE  C31117499   1.614   1.681   6.244  0.4846  0.2940 -0.0989
  157SAPE  H11X17500   1.659   1.588   6.203  0.4320  0.6235 -0.9264
  157SAPE  H11Y17501   1.685   1.762   6.219  2.3203 -1.0093  0.6821
  157SAPE  C31217502   1.468   1.703   6.194  0.3262 -0.2788 -0.6673
  157SAPE  H12X17503   1.424   1.801   6.222  3.4900  0.7726  1.1121
  157SAPE  H12Y17504   1.411   1.624   6.246 -0.0741 -0.2898 -1.1150
  157SAPE  C31317505   1.464   1.676   6.038 -0.0556 -0.2168 -0.5923
  157SAPE  H13X17506   1.494   1.569   6.028 -0.2208 -0.4123  0.8064
  157SAPE  H13Y17507   1.538   1.738   5.982 -1.3179  0.9414 -1.0158
  157SAPE  C31417508   1.324   1.709   5.973 -0.4829 -0.0952  0.0742
  157SAPE  H14X17509   1.339   1.692   5.864 -1.8066  1.2172 -0.3560
  157SAPE  H14Y17510   1.307   1.819   5.981 -0.5045 -0.1187  0.3357
  157SAPE  C31517511   1.214   1.613   6.028  0.4063  0.1501 -0.1475
  157SAPE  H15X17512   1.200   1.637   6.135  2.5741  0.3611  0.1402
  157SAPE  H15Y17513   1.253   1.508   6.022 -0.0141  0.0521 -1.9021
  157SAPE  C31617514   1.081   1.638   5.962 -0.1260  0.3297  0.7206
  157SAPE  H16X17515   1.057   1.745   5.981  0.3015  0.4570  0.5562
  157SAPE  H16Y17516   1.004   1.579   6.016 -1.8083 -0.0004 -1.8741
  157SAPE  C31717517   1.088   1.612   5.810  0.3759  0.3466  0.1549
  157SAPE  H17X17518   1.165   1.678   5.765 -2.3443  2.9019 -1.0748
  157SAPE  H17Y17519   0.992   1.656   5.773 -0.5606 -0.1200  1.9351
  157SAPE  C31817520   1.111   1.464   5.768  0.0416  0.0517  0.2736
  157SAPE  H18X17521   1.210   1.434   5.808  1.1689  0.8115 -1.8130
  157SAPE  H18Y17522   1.107   1.451   5.658  0.9616  1.0047  0.1156
  157SAPE  H18Z17523   1.037   1.397   5.818 -1.7165  1.8639  0.1972
  158SAPE     N17524   4.704   1.603   7.974  0.3115  0.7035 -0.1112
  158SAPE   HN117525   4.729   1.703   7.961 -1.1090  0.8961 -1.7158
  158SAPE   HN217526   4.647   1.590   8.059  1.2750  0.3914  0.5069
  158SAPE   HN317527   4.798   1.558   7.982  0.3925  1.1821  1.8992
  158SAPE   C1217528   4.632   1.541   7.861 -0.1160  0.3753 -0.0438
  158SAPE  H12A17529   4.524   1.566   7.864 -0.4148 -0.4302 -2.3773
  158SAPE  H12B17530   4.638   1.431   7.877 -0.6395  0.2031 -0.9751
  158SAPE   C1117531   4.692   1.594   7.731 -0.0721 -0.0232  0.2519
  158SAPE  H11A17532   4.617   1.569   7.653 -2.0883  1.8107  1.5019
  158SAPE  H11B17533   4.793   1.550   7.718 -0.4025 -0.8986  0.6115
  158SAPE     P17534   4.676   1.833   7.613 -0.1901  0.3121 -0.0960
  158SAPE   O1317535   4.714   1.767   7.485  0.2043 -0.1266  0.0287
  158SAPE   O1417536   4.532   1.878   7.620 -0.5380  0.1861 -0.0646
  158SAPE   O1217537   4.707   1.740   7.732  0.2361  0.2320 -0.3050
  158SAPE   O1117538   4.771   1.948   7.632  0.2976 -0.9514 -0.8077
  158SAPE    C117539   4.741   2.078   7.684  0.0918  0.1975 -0.0436
  158SAPE    HA17540   4.645   2.088   7.740 -0.4738 -0.4074 -0.8894
  158SAPE    HB17541   4.820   2.107   7.757  0.1212  0.8601 -0.3308
  158SAPE    C217542   4.748   2.175   7.562  0.0979  1.4119  0.4917
  158SAPE    HS17543   4.708   2.276   7.587 -3.1219  0.4411 -0.2733
  158SAPE   O2117544   4.668   2.124   7.452 -0.8843 -0.3396  0.1659
  158SAPE   C2117545   4.539   2.133   7.461  0.2988 -0.9005 -0.2817
  158SAPE   O2217546   4.483   2.190   7.556 -0.3444  0.5364  0.4297
  158SAPE   C2217547   4.459   2.076   7.339 -0.1236 -0.1105  0.5141
  158SAPE   H2R17548   4.466   1.965   7.347 -1.2525 -0.1742  0.8565
  158SAPE   H2S17549   4.350   2.098   7.345 -0.2311 -0.8278  1.6948
  158SAPE    C317550   4.901   2.188   7.509  0.0533 -0.1726 -1.0390
  158SAPE    HX17551   4.958   2.093   7.512  2.0710  0.9939 -0.2262
  158SAPE    HY17552   4.947   2.241   7.596 -2.8405 -0.2972  0.7051
  158SAPE   O3117553   4.898   2.265   7.388  0.0278 -0.1893 -0.4212
  158SAPE   C3117554   4.929   2.194   7.275  0.1266 -0.3488 -0.4552
  158SAPE   O3217555   4.974   2.079   7.271  0.4606 -0.1765  0.0201
  158SAPE   C3217556   4.906   2.289   7.159 -0.2782 -0.1909  0.6712
  158SAPE   H2X17557   4.937   2.391   7.186 -0.2365 -0.2429  0.8180
  158SAPE   H2Y17558   4.795   2.286   7.147 -0.2372 -2.0866  0.3953
  158SAPE   C2317559   4.520   2.108   7.196  0.3911  0.2190  0.2907
  158SAPE   H3R17560   4.624   2.070   7.190 -0.7346 -3.3042  0.6746
  158SAPE   H3S17561   4.515   2.218   7.187 -1.6065  0.2206  0.9022
  158SAPE   C2417562   4.443   2.033   7.090 -0.0685 -0.4043  0.0682
  158SAPE   H4R17563   4.339   2.065   7.069  0.0952  0.2366  0.2138
  158SAPE   H4S17564   4.434   1.933   7.138 -0.1885  0.8613  2.9309
  158SAPE   C2517565   4.524   2.016   6.967  0.1352 -0.5009 -0.2297
  158SAPE   H5R17566   4.589   1.927   6.972 -1.0716 -1.3534  1.3421
  158SAPE   C2617567   4.524   2.085   6.853 -0.0534 -0.3395  0.3379
  158SAPE   H6R17568   4.587   2.050   6.770 -2.4382 -1.6493 -1.0234
  158SAPE   C2717569   4.444   2.205   6.806  0.1622 -0.1953 -0.1277
  158SAPE   H7R17570   4.506   2.275   6.746 -0.9701  0.4014 -0.6437
  158SAPE   H7S17571   4.408   2.262   6.895  0.9138 -2.3654  1.6326
  158SAPE   C2817572   4.319   2.167   6.725 -0.4417 -0.6646 -0.4692
  158SAPE   H8R17573   4.277   2.066   6.738 -0.2898 -0.7005 -0.2532
  158SAPE   C2917574   4.243   2.245   6.647 -0.2931 -0.2143  0.5846
  158SAPE   H9R17575   4.159   2.196   6.595  1.5674 -0.9541 -1.8518
  158SAPE  C21017576   4.271   2.390   6.614  0.0305  0.3239  0.3770
  158SAPE  H10R17577   4.379   2.396   6.589  0.2878 -0.3487  1.2905
  158SAPE  H10S17578   4.248   2.444   6.708 -0.4286 -0.9112  1.0014
  158SAPE  C21117579   4.175   2.442   6.504  0.0699  0.1311 -0.2365
  158SAPE  H11R17580   4.073   2.464   6.539  0.3439  2.7432 -0.8819
  158SAPE  C21217581   4.197   2.462   6.370 -0.0378  0.0087  0.0034
  158SAPE  H12R17582   4.121   2.495   6.297 -0.6438  1.0004  1.0628
  158SAPE  C21317583   4.333   2.464   6.311 -1.1601  0.5911 -0.3035
  158SAPE  H13R17584   4.410   2.494   6.385 -1.4238 -0.1064  0.2629
  158SAPE  H13S17585   4.339   2.538   6.229  2.6793 -0.1434 -0.8785
  158SAPE  C21417586   4.363   2.324   6.260 -0.4854 -0.3368  0.3887
  158SAPE  H14R17587   4.413   2.261   6.335  0.1154  0.9334  1.0885
  158SAPE  C21517588   4.353   2.272   6.138  0.9619  0.1315 -0.3304
  158SAPE  H15R17589   4.377   2.166   6.119 -0.2707 -0.5473  1.6173
  158SAPE  C21617590   4.303   2.344   6.019 -0.1663  0.4618 -0.1421
  158SAPE  H16R17591   4.234   2.428   6.043 -0.3946  1.3958 -3.5312
  158SAPE  H16S17592   4.248   2.279   5.948  0.6036 -2.5438  1.8412
  158SAPE  C21717593   4.415   2.413   5.938 -0.1144 -0.1850  0.1387
  158SAPE  H17R17594   4.435   2.373   5.836  1.8886  0.7644  0.1215
  158SAPE  H17S17595   4.504   2.418   6.003 -1.3426 -0.5905  1.9260
  158SAPE  C21817596   4.367   2.565   5.895 -1.0559 -0.2472  0.5399
  158SAPE  H18R17597   4.454   2.621   5.854 -0.5725 -0.7302  0.8947
  158SAPE  H18S17598   4.345   2.617   5.991 -0.2731 -0.1537  0.6747
  158SAPE  C21917599   4.240   2.561   5.805  0.3911  0.1635  0.4662
  158SAPE  H19R17600   4.158   2.490   5.829  0.1869  0.3524  0.3368
  158SAPE  H19S17601   4.272   2.525   5.704 -2.1500 -2.5118  0.4978
  158SAPE  C22017602   4.182   2.699   5.797  0.4910  0.5318  0.3808
  158SAPE  H20R17603   4.138   2.713   5.898  0.4056  0.3585  0.3701
  158SAPE  H20S17604   4.102   2.703   5.720  1.3645 -0.6499 -0.6321
  158SAPE  H20T17605   4.256   2.778   5.777  0.2871  0.5589 -0.2864
  158SAPE   C3317606   4.974   2.252   7.020 -0.4171  0.1584 -0.3295
  158SAPE   H3X17607   4.954   2.145   6.994 -0.4959 -0.3799  1.7663
  158SAPE   H3Y17608   5.084   2.257   7.031 -0.3569 -0.6662 -0.4690
  158SAPE   C3417609   4.913   2.320   6.896 -0.2539  0.3911  0.0262
  158SAPE   H4X17610   4.891   2.429   6.904  0.6526  0.6257 -0.5183
  158SAPE   H4Y17611   4.819   2.266   6.871  0.5227 -0.0803 -2.0695
  158SAPE   C3517612   5.010   2.311   6.775 -0.0860 -0.2288  0.0306
  158SAPE   H5X17613   5.052   2.208   6.772 -0.2327 -0.2706 -1.6003
  158SAPE   H5Y17614   5.098   2.369   6.811  0.7388 -0.7767 -1.0293
  158SAPE   C3617615   4.945   2.357   6.638 -0.0406  1.1382 -0.0123
  158SAPE   H6X17616   4.891   2.453   6.650  2.1873  2.2597  1.8181
  158SAPE   H6Y17617   4.868   2.281   6.615 -1.0585  1.7462  1.2453
  158SAPE   C3717618   5.051   2.365   6.521 -0.0975 -0.0777 -0.8589
  158SAPE   H7X17619   5.085   2.260   6.505  1.8910  0.2472  0.8524
  158SAPE   H7Y17620   5.146   2.411   6.553  0.3788 -0.6561 -1.4069
  158SAPE   C3817621   5.005   2.437   6.397  0.7444 -0.5160  0.2213
  158SAPE   H8X17622   5.010   2.547   6.412  1.1811 -0.1850 -2.1075
  158SAPE   H8Y17623   4.901   2.401   6.381  0.4466 -1.2340  3.1592
  158SAPE   C3917624   5.087   2.412   6.277  0.8966 -0.8734 -0.1594
  158SAPE   H9X17625   5.053   2.315   6.232  1.0946 -1.1677  0.3194
  158SAPE   H9Y17626   5.193   2.396   6.306  0.9993  0.4829  0.2493
  158SAPE  C31017627   5.081   2.525   6.166 -0.4428  0.2158 -0.1699
  158SAPE  H10X17628   5.181   2.556   6.128 -0.3019  0.1763  0.1649
  158SAPE  H10Y17629   5.038   2.617   6.213  2.4576  2.1715 -1.1171
  158SAPE  C31117630   5.001   2.483   6.043 -0.7995 -0.4735 -0.4278
  158SAPE  H11X17631   4.902   2.448   6.078 -0.5156 -0.6346  0.2313
  158SAPE  H11Y17632   5.052   2.396   5.997 -0.5322  0.0449 -1.1372
  158SAPE  C31217633   4.974   2.596   5.938  1.0258  0.6972  1.3735
  158SAPE  H12X17634   5.064   2.661   5.933  0.0154  2.0132 -1.5532
  158SAPE  H12Y17635   4.890   2.647   5.990  0.6191  0.3120  1.1059
  158SAPE  C31317636   4.942   2.548   5.792 -0.3500  0.0620 -0.7356
  158SAPE  H13X17637   5.002   2.461   5.757 -2.4713 -1.0736 -1.7457
  158SAPE  H13Y17638   4.976   2.634   5.730  0.6029  1.1978  1.2925
  158SAPE  C31417639   4.795   2.524   5.757 -0.2980 -0.2998  0.1144
  158SAPE  H14X17640   4.732   2.611   5.785 -1.8811 -1.4763  0.3887
  158SAPE  H14Y17641   4.773   2.428   5.808  2.8763 -0.4801  1.3412
  158SAPE  C31517642   4.783   2.492   5.614  0.3221 -0.3299 -0.7408
  158SAPE  H15X17643   4.812   2.387   5.594  0.6807 -0.2551 -0.6136
  158SAPE  H15Y17644   4.855   2.566   5.573  0.1763  1.3169  1.7467
  158SAPE  C31617645   4.632   2.492   5.573  0.7171 -0.1755 -0.1233
  158SAPE  H16X17646   4.586   2.593   5.562  0.0147 -0.5087 -0.3650
  158SAPE  H16Y17647   4.572   2.436   5.647 -0.2119  0.9864  0.0396
  158SAPE  C31717648   4.587   2.421   5.439 -0.2226 -0.6369  0.2241
  158SAPE  H17X17649   4.479   2.439   5.422  0.1557  2.3336  0.3542
  158SAPE  H17Y17650   4.620   2.315   5.441 -1.4128 -1.0110  1.9760
  158SAPE  C31817651   4.646   2.493   5.316 -0.2285 -0.6734 -0.6263
  158SAPE  H18X17652   4.608   2.451   5.220 -0.6793 -3.8759  0.8113
  158SAPE  H18Y17653   4.756   2.478   5.315  0.1855  1.8248  0.1064
  158SAPE  H18Z17654   4.630   2.603   5.322 -0.6504 -0.7618 -0.0577
  159SAPE     N17655   5.610   4.422   3.307 -0.2564 -0.1208  0.0583
  159SAPE   HN117656   5.706   4.383   3.310 -1.2337 -2.6899  1.4149
  159SAPE   HN217657   5.568   4.393   3.216 -0.5351 -2.0997  0.7786
  159SAPE   HN317658   5.606   4.526   3.315 -0.6412 -0.1834  0.8292
  159SAPE   C1217659   5.537   4.366   3.418  0.0811 -0.4713  0.2075
  159SAPE  H12A17660   5.429   4.389   3.406  0.7978  2.5171 -1.5714
  159SAPE  H12B17661   5.571   4.398   3.519  1.2409 -2.3227  0.4453
  159SAPE   C1117662   5.554   4.214   3.422 -0.3937  0.1426 -0.2751
  159SAPE  H11A17663   5.483   4.177   3.344 -1.7538  0.4270  0.7798
  159SAPE  H11B17664   5.510   4.178   3.518  2.1042 -0.0241  0.8988
  159SAPE     P17665   5.748   4.042   3.434 -0.3229 -0.1754  0.2121
  159SAPE   O1317666   5.672   3.948   3.351 -0.5664 -0.4251 -0.3954
  159SAPE   O1417667   5.893   4.046   3.432  0.2101  0.5098  0.2979
  159SAPE   O1217668   5.694   4.190   3.412  1.0825  0.1855 -0.5372
  159SAPE   O1117669   5.701   4.020   3.580 -0.1799  0.1900 -0.0325
  159SAPE    C117670   5.774   4.080   3.684 -0.1802  0.4178 -1.3576
  159SAPE    HA17671   5.876   4.038   3.696  0.9493  2.4893 -2.9569
  159SAPE    HB17672   5.800   4.187   3.668  0.1522  0.6594  0.5374
  159SAPE    C217673   5.689   4.073   3.810  0.5824 -0.6051  0.3773
  159SAPE    HS17674   5.729   4.148   3.881  4.1290 -1.1410 -0.8679
  159SAPE   O2117675   5.690   3.942   3.875 -0.5601  0.4556  0.0201
  159SAPE   C2117676   5.806   3.910   3.938 -0.2148  0.0145 -0.4139
  159SAPE   O2217677   5.902   3.987   3.946 -0.1700 -0.8244  0.0557
  159SAPE   C2217678   5.798   3.762   3.990 -0.1230  0.3492 -0.0898
  159SAPE   H2R17679   5.816   3.701   3.899  0.4088  2.4812 -1.5138
  159SAPE   H2S17680   5.883   3.743   4.059 -0.4116 -0.2323  0.1082
  159SAPE    C317681   5.540   4.107   3.788 -0.1391  0.5318 -0.3841
  159SAPE    HX17682   5.498   4.024   3.727  0.8993 -0.1738 -0.1482
  159SAPE    HY17683   5.548   4.195   3.720  0.8341  1.1817  0.5428
  159SAPE   O3117684   5.485   4.141   3.914 -0.2143  0.2772 -0.4711
  159SAPE   C3117685   5.422   4.047   3.984 -0.1377  0.0994 -0.6153
  159SAPE   O3217686   5.393   3.937   3.952  0.3677 -0.4166  0.2405
  159SAPE   C3217687   5.390   4.109   4.121 -0.6555  1.2342  0.2541
  159SAPE   H2X17688   5.297   4.166   4.101 -0.9504  0.8040  0.3869
  159SAPE   H2Y17689   5.470   4.181   4.150 -0.0781 -0.1982  2.5491
  159SAPE   C2317690   5.664   3.731   4.062 -0.3062 -0.2949 -0.3679
  159SAPE   H3R17691   5.579   3.746   3.993  1.0739  3.5425 -1.5079
  159SAPE   H3S17692   5.652   3.808   4.142 -2.8787 -1.8016  0.8109
  159SAPE   C2417693   5.679   3.594   4.123  0.2936 -0.6058 -0.8048
  159SAPE   H4R17694   5.761   3.580   4.197 -1.7169 -1.7698  1.3314
  159SAPE   H4S17695   5.706   3.518   4.047 -0.1694 -0.5319 -1.0424
  159SAPE   C2517696   5.543   3.569   4.190  0.2165 -0.2718  0.0021
  159SAPE   H5R17697   5.452   3.561   4.130 -1.3144  0.2641  2.1245
  159SAPE   C2617698   5.524   3.590   4.323  0.1667  0.3397  0.0987
  159SAPE   H6R17699   5.422   3.573   4.360  0.2866 -0.7603 -0.0391
  159SAPE   C2717700   5.625   3.640   4.427 -0.4689 -0.4623  0.0776
  159SAPE   H7R17701   5.583   3.729   4.479  1.4087 -0.7354  2.2204
  159SAPE   H7S17702   5.716   3.679   4.377 -0.3489  1.6622  1.8433
  159SAPE   C2817703   5.653   3.539   4.537  0.0618 -0.4189  0.2844
  159SAPE   H8R17704   5.561   3.502   4.586 -2.1486  0.0182 -3.1700
  159SAPE   C2917705   5.780   3.494   4.571 -0.0439  0.2433 -0.1736
  159SAPE   H9R17706   5.776   3.421   4.653  0.2928 -0.9564 -1.1909
  159SAPE  C21017707   5.916   3.536   4.511  0.0293 -0.2958 -0.1024
  159SAPE  H10R17708   5.953   3.603   4.592 -2.0365 -0.9337  1.4436
  159SAPE  H10S17709   5.899   3.584   4.412 -0.6267  2.9851  1.4546
  159SAPE  C21117710   6.013   3.422   4.487  0.2704  0.4680  0.2061
  159SAPE  H11R17711   6.031   3.392   4.383  2.5835 -0.4837  0.8198
  159SAPE  C21217712   6.071   3.350   4.585 -0.1297  0.2296  0.1602
  159SAPE  H12R17713   6.146   3.275   4.556  1.6047  1.8087  0.3488
  159SAPE  C21317714   6.039   3.354   4.735 -0.2531 -0.2169 -0.2537
  159SAPE  H13R17715   5.983   3.446   4.762  2.4922  0.9085  2.1777
  159SAPE  H13S17716   6.133   3.364   4.793 -1.7577  0.4647  2.2413
  159SAPE  C21417717   5.977   3.236   4.802 -0.2401  0.1873  0.1610
  159SAPE  H14R17718   5.980   3.138   4.752  0.4331  0.0500  0.4538
  159SAPE  C21517719   5.896   3.240   4.913 -0.6983  0.0232 -0.0177
  159SAPE  H15R17720   5.858   3.143   4.950 -0.5278 -0.1383 -0.2628
  159SAPE  C21617721   5.845   3.361   4.997 -0.4579  0.2836 -0.5719
  159SAPE  H16R17722   5.740   3.376   4.963 -1.1071 -1.9831  0.3165
  159SAPE  H16S17723   5.905   3.448   4.961  0.5374  0.3827  1.2040
  159SAPE  C21717724   5.862   3.381   5.150 -0.5974 -0.7838  0.1870
  159SAPE  H17R17725   5.817   3.480   5.173 -0.9632 -0.7967 -0.4853
  159SAPE  H17S17726   5.971   3.393   5.173 -0.9608  3.5738  0.6156
  159SAPE  C21817727   5.783   3.283   5.240 -0.0251 -1.1216  0.7245
  159SAPE  H18R17728   5.807   3.184   5.196  5.0896  0.3041 -0.3730
  159SAPE  H18S17729   5.673   3.297   5.242  0.0564 -0.5256  2.1942
  159SAPE  C21917730   5.836   3.299   5.383  0.5371  0.5868 -0.3675
  159SAPE  H19R17731   5.753   3.340   5.444 -0.0249  1.4027 -1.6404
  159SAPE  H19S17732   5.928   3.361   5.390  0.2031  1.2590 -1.7420
  159SAPE  C22017733   5.862   3.157   5.430 -0.0166  1.0102  0.0900
  159SAPE  H20R17734   5.883   3.154   5.539  1.8506  1.4666 -0.2307
  159SAPE  H20S17735   5.945   3.116   5.369 -1.2691 -1.7562  0.0611
  159SAPE  H20T17736   5.771   3.095   5.411 -0.0957  1.7008 -1.9859
  159SAPE   C3317737   5.355   4.007   4.231  0.6018  0.1840  0.1221
  159SAPE   H3X17738   5.439   3.941   4.260  1.2498  0.2390 -1.5423
  159SAPE   H3Y17739   5.261   3.968   4.187 -0.8292  3.7390 -0.3226
  159SAPE   C3417740   5.305   4.072   4.368 -0.3965 -0.3155  0.4748
  159SAPE   H4X17741   5.220   4.140   4.348 -0.9533 -1.4064 -1.0665
  159SAPE   H4Y17742   5.390   4.121   4.421  0.1084 -0.0925 -0.5213
  159SAPE   C3517743   5.232   3.966   4.457  0.0467  0.0269 -0.1290
  159SAPE   H5X17744   5.292   3.873   4.446  0.0882  0.1664 -1.2814
  159SAPE   H5Y17745   5.134   3.950   4.407  0.5471 -0.0549 -1.1129
  159SAPE   C3617746   5.209   4.007   4.600 -0.6311 -0.1894 -0.0108
  159SAPE   H6X17747   5.142   4.096   4.605  0.2280  0.4842 -0.1565
  159SAPE   H6Y17748   5.302   4.040   4.651 -0.5957 -1.3253  0.6829
  159SAPE   C3717749   5.155   3.898   4.679 -0.0238  0.2192 -0.5393
  159SAPE   H7X17750   5.233   3.823   4.705  0.6663  0.6707 -1.2420
  159SAPE   H7Y17751   5.069   3.844   4.635 -3.1636  3.0654  1.6089
  159SAPE   C3817752   5.090   3.942   4.820  0.1805  0.5845  0.5953
  159SAPE   H8X17753   5.014   4.020   4.795  2.4652  2.4922 -0.8071
  159SAPE   H8Y17754   5.168   3.997   4.876 -0.0517  0.1162  1.3979
  159SAPE   C3917755   5.023   3.826   4.897 -0.2010 -0.1934  0.1992
  159SAPE   H9X17756   5.100   3.751   4.924 -1.4059 -1.4252  0.3205
  159SAPE   H9Y17757   4.949   3.767   4.838  1.1440 -0.5902 -1.1614
  159SAPE  C31017758   4.958   3.881   5.021 -0.2688  0.7393  0.1739
  159SAPE  H10X17759   4.888   3.803   5.058  1.6439 -0.5096  1.3587
  159SAPE  H10Y17760   4.880   3.956   4.996 -2.8877 -1.5246  1.0630
  159SAPE  C31117761   5.055   3.937   5.121  0.5469  0.4912 -0.6003
  159SAPE  H11X17762   5.117   4.017   5.076  1.1110 -1.7508 -4.1443
  159SAPE  H11Y17763   5.120   3.859   5.167 -0.2121  0.6411  0.7845
  159SAPE  C31217764   4.983   3.998   5.246  0.1710  0.2171 -0.2561
  159SAPE  H12X17765   4.923   3.924   5.303 -1.8065  1.9309  0.0367
  159SAPE  H12Y17766   4.917   4.081   5.213 -1.6084 -0.6282  1.0010
  159SAPE  C31317767   5.082   4.059   5.342 -0.0022 -0.3119  0.3924
  159SAPE  H13X17768   5.177   4.002   5.352  0.6784 -0.5078 -4.4785
  159SAPE  H13Y17769   5.027   4.060   5.438  0.9672 -0.6602  0.9632
  159SAPE  C31417770   5.125   4.197   5.304 -0.3702  0.8128 -0.7372
  159SAPE  H14X17771   5.045   4.259   5.348 -1.6599 -1.9865  1.0863
  159SAPE  H14Y17772   5.127   4.213   5.194  1.5628 -0.5649 -0.9517
  159SAPE  C31517773   5.261   4.239   5.356 -0.3425 -0.1630  0.0479
  159SAPE  H15X17774   5.327   4.165   5.306  0.2640  0.3486  0.0679
  159SAPE  H15Y17775   5.272   4.218   5.465  0.8364  0.5240  0.0786
  159SAPE  C31617776   5.301   4.384   5.308  0.1960  0.2498  0.3237
  159SAPE  H16X17777   5.226   4.456   5.348  0.0889  0.1377  0.3282
  159SAPE  H16Y17778   5.287   4.378   5.198 -1.5399 -0.9394  0.5641
  159SAPE  C31717779   5.435   4.421   5.356  0.0435  0.0251  0.3699
  159SAPE  H17X17780   5.452   4.367   5.452 -1.8605  2.0170  1.9199
  159SAPE  H17Y17781   5.446   4.531   5.370 -0.7029  0.3930 -1.6090
  159SAPE  C31817782   5.532   4.375   5.252 -0.1376  0.3617 -0.0801
  159SAPE  H18X17783   5.631   4.415   5.284  0.3854  2.0364 -3.3818
  159SAPE  H18Y17784   5.501   4.403   5.150  2.7142  0.4444 -1.0167
  159SAPE  H18Z17785   5.539   4.264   5.249  1.5844  0.4189  0.2209
  160SAPE     N17786   2.384   1.807   3.253  0.8211  0.5864  0.7066
  160SAPE   HN117787   2.434   1.851   3.173 -0.4057 -0.8227 -0.8970
  160SAPE   HN217788   2.334   1.878   3.311  2.5791  2.6337 -0.1488
  160SAPE   HN317789   2.447   1.764   3.323 -0.6141 -2.7085  0.1526
  160SAPE   C1217790   2.285   1.709   3.201  0.2298  0.1056  0.1813
  160SAPE  H12A17791   2.351   1.645   3.137  1.6324  0.2945  1.3981
  160SAPE  H12B17792   2.205   1.764   3.148 -0.5543 -0.2121  1.0225
  160SAPE   C1117793   2.225   1.631   3.319  0.4371 -0.0312 -0.5560
  160SAPE  H11A17794   2.304   1.600   3.390  0.2883 -1.6453 -1.0391
  160SAPE  H11B17795   2.171   1.539   3.288 -0.6241  0.0861  0.8446
  160SAPE     P17796   2.036   1.663   3.499 -0.1419  0.0695 -0.3382
  160SAPE   O1317797   2.019   1.762   3.610  0.7936  0.1618 -0.3231
  160SAPE   O1417798   1.914   1.630   3.426  0.0966 -1.1903  0.0378
  160SAPE   O1217799   2.140   1.716   3.393  0.4664  0.0387 -0.4686
  160SAPE   O1117800   2.099   1.533   3.551  0.1359 -0.0460  0.2571
  160SAPE    C117801   2.027   1.405   3.525 -0.1719 -0.0494  0.1348
  160SAPE    HA17802   1.919   1.412   3.502 -0.0589  0.5786 -0.2111
  160SAPE    HB17803   2.065   1.364   3.429  1.8262 -2.2507  1.7183
  160SAPE    C217804   2.046   1.304   3.642 -0.4034 -0.7385  0.3244
  160SAPE    HS17805   1.942   1.286   3.677 -1.3727  0.0389 -1.9695
  160SAPE   O2117806   2.125   1.362   3.747 -0.5373  0.3131 -0.1225
  160SAPE   C2117807   2.077   1.361   3.870 -0.2656  0.4728 -0.7148
  160SAPE   O2217808   1.966   1.328   3.907 -0.2278 -0.0305 -0.2624
  160SAPE   C2217809   2.187   1.414   3.965  0.2381 -0.3022  0.7126
  160SAPE   H2R17810   2.269   1.461   3.906  1.2078 -1.1463  1.3393
  160SAPE   H2S17811   2.139   1.496   4.021 -0.8672 -0.7626  0.4654
  160SAPE    C317812   2.107   1.173   3.589  0.2514 -0.0342 -0.1381
  160SAPE    HX17813   2.214   1.195   3.567  0.2295 -0.0237 -0.2307
  160SAPE    HY17814   2.040   1.146   3.505 -1.9997  2.8440  0.5540
  160SAPE   O3117815   2.109   1.076   3.695 -0.3224 -0.6965 -0.4588
  160SAPE   C3117816   1.997   1.009   3.727 -0.3386  0.3500  0.1887
  160SAPE   O3217817   1.891   1.029   3.673 -0.3360 -0.9162 -0.0622
  160SAPE   C3217818   2.024   0.922   3.849  0.0100 -0.4912 -0.4029
  160SAPE   H2X17819   2.088   0.974   3.924  2.6445 -0.9240 -2.2108
  160SAPE   H2Y17820   2.100   0.850   3.811  1.8132  1.1514 -0.0898
  160SAPE   C2317821   2.232   1.309   4.074 -0.4227 -0.3327  0.1341
  160SAPE   H3R17822   2.272   1.214   4.032  4.0501  0.7049  1.4264
  160SAPE   H3S17823   2.146   1.284   4.140 -1.4200  0.7024 -0.7439
  160SAPE   C2417824   2.367   1.348   4.159  0.0063  0.3002  0.2878
  160SAPE   H4R17825   2.438   1.370   4.076  0.3903  0.4916  0.6610
  160SAPE   H4S17826   2.376   1.249   4.209  1.0710  1.2743  2.1672
  160SAPE   C2517827   2.353   1.465   4.258 -0.2378 -0.0517  0.2186
  160SAPE   H5R17828   2.349   1.566   4.215  0.9922 -0.0980 -0.0529
  160SAPE   C2617829   2.343   1.454   4.386 -0.2869 -0.6124 -0.1784
  160SAPE   H6R17830   2.342   1.552   4.436  0.3635 -0.9338  0.4866
  160SAPE   C2717831   2.327   1.333   4.472 -0.5872 -0.0115 -0.1575
  160SAPE   H7R17832   2.424   1.320   4.524  0.5223 -0.5793 -2.2470
  160SAPE   H7S17833   2.321   1.232   4.425  2.1895 -1.7095  2.7590
  160SAPE   C2817834   2.201   1.342   4.553 -0.6626 -0.0813 -0.2880
  160SAPE   H8R17835   2.110   1.323   4.495 -1.0400 -0.4473  0.4064
  160SAPE   C2917836   2.181   1.349   4.685 -0.1282  0.0242 -0.2672
  160SAPE   H9R17837   2.077   1.368   4.715  0.1399  2.3762 -0.6337
  160SAPE  C21017838   2.295   1.346   4.788  0.2402 -0.3514 -0.2813
  160SAPE  H10R17839   2.303   1.449   4.827 -1.8945  0.2301 -1.1906
  160SAPE  H10S17840   2.387   1.333   4.727  0.4351  0.5047 -0.1750
  160SAPE  C21117841   2.295   1.232   4.890  0.4652 -0.1415 -0.2962
  160SAPE  H11R17842   2.287   1.134   4.842  1.4512  0.0773 -0.9454
  160SAPE  C21217843   2.288   1.239   5.026  1.0261 -0.2972  0.0889
  160SAPE  H12R17844   2.290   1.150   5.091 -0.0009 -0.9187 -0.6943
  160SAPE  C21317845   2.302   1.366   5.101  0.2749 -0.3535  0.0315
  160SAPE  H13R17846   2.369   1.438   5.051  0.0682  0.4401  0.8638
  160SAPE  H13S17847   2.356   1.341   5.196  0.9795 -1.4129 -0.6282
  160SAPE  C21417848   2.167   1.439   5.126 -0.4357  0.8889  0.3496
  160SAPE  H14R17849   2.149   1.499   5.035 -1.5719 -0.1295 -0.1258
  160SAPE  C21517850   2.085   1.429   5.230 -0.8957 -0.6971 -0.4312
  160SAPE  H15R17851   1.994   1.490   5.220 -0.6899 -0.3623 -0.2848
  160SAPE  C21617852   2.115   1.344   5.352  1.2798  0.4340 -0.1790
  160SAPE  H16R17853   2.155   1.410   5.432  2.1720 -0.1165 -0.1634
  160SAPE  H16S17854   2.196   1.270   5.340 -0.7234 -1.6925 -1.3890
  160SAPE  C21717855   1.995   1.268   5.416 -0.0839 -0.0422  0.1433
  160SAPE  H17R17856   2.045   1.198   5.487 -0.0537 -0.5434 -0.3681
  160SAPE  H17S17857   1.943   1.210   5.337  1.2118 -0.8621 -0.1523
  160SAPE  C21817858   1.901   1.353   5.507  0.4424 -0.1714  0.4287
  160SAPE  H18R17859   1.874   1.449   5.457 -1.1441 -1.3582 -1.1084
  160SAPE  H18S17860   1.962   1.379   5.597  0.7851  2.2787 -0.4229
  160SAPE  C21917861   1.790   1.264   5.547 -0.3134 -0.4277 -0.0412
  160SAPE  H19R17862   1.832   1.167   5.583 -0.3297 -0.6204 -0.5463
  160SAPE  H19S17863   1.731   1.237   5.457 -0.1480  1.3666 -0.7065
  160SAPE  C22017864   1.702   1.313   5.660 -0.0280 -0.1117 -0.1453
  160SAPE  H20R17865   1.613   1.248   5.668 -2.4539  2.8169 -1.3920
  160SAPE  H20S17866   1.660   1.415   5.654 -1.4149 -0.3702  3.3472
  160SAPE  H20T17867   1.767   1.313   5.750 -0.1501  0.9709 -0.0492
  160SAPE   C3317868   1.902   0.840   3.908  0.0586 -1.0222 -0.5252
  160SAPE   H3X17869   1.949   0.752   3.958  2.5779  0.8081  0.5526
  160SAPE   H3Y17870   1.841   0.813   3.819 -2.7227 -2.1091  1.5598
  160SAPE   C3417871   1.814   0.920   4.010  0.1332  0.2651  0.5611
  160SAPE   H4X17872   1.725   0.857   4.028 -0.3759  0.0486 -2.1701
  160SAPE   H4Y17873   1.770   1.014   3.970  0.7503  0.2648 -0.1508
  160SAPE   C3517874   1.885   0.940   4.151 -0.1119  0.4471 -0.1798
  160SAPE   H5X17875   1.970   1.010   4.138 -0.1900  1.2497  2.9938
  160SAPE   H5Y17876   1.926   0.840   4.177 -1.1531 -0.5034 -1.9381
  160SAPE   C3617877   1.796   0.993   4.262  0.1117  1.3242  0.6044
  160SAPE   H6X17878   1.714   0.921   4.281  1.6338 -0.4535  0.6205
  160SAPE   H6Y17879   1.742   1.086   4.232  0.1863  1.0916 -0.2948
  160SAPE   C3717880   1.870   1.010   4.406  0.0969  0.5635 -0.2159
  160SAPE   H7X17881   1.962   1.069   4.390  0.8090 -0.8627 -1.7452
  160SAPE   H7Y17882   1.905   0.908   4.432 -2.6577 -1.0262 -2.1831
  160SAPE   C3817883   1.785   1.078   4.507 -1.1500 -0.3374  0.2218
  160SAPE   H8X17884   1.701   1.008   4.529  0.3058 -2.8743 -1.6782
  160SAPE   H8Y17885   1.741   1.168   4.459 -4.4640 -1.2394  1.3190
  160SAPE   C3917886   1.858   1.116   4.636  0.7144  0.3187  0.6145
  160SAPE   H9X17887   1.945   1.185   4.630  0.3011  0.9909  1.9829
  160SAPE   H9Y17888   1.889   1.020   4.683  0.9508  0.0572 -0.0672
  160SAPE  C31017889   1.756   1.177   4.736  0.4356 -0.0026 -0.1238
  160SAPE  H10X17890   1.665   1.113   4.743  0.4671 -0.0344  0.0048
  160SAPE  H10Y17891   1.730   1.279   4.703  0.1190  0.1586  0.5959
  160SAPE  C31117892   1.792   1.189   4.881 -0.0773 -0.1886 -0.2766
  160SAPE  H11X17893   1.878   1.259   4.882 -0.2017 -0.0431  0.2528
  160SAPE  H11Y17894   1.838   1.096   4.921 -1.9664 -0.2019  2.0760
  160SAPE  C31217895   1.675   1.244   4.969  0.0023 -0.2800  0.3615
  160SAPE  H12X17896   1.584   1.185   4.948  0.6556 -1.5290  0.9033
  160SAPE  H12Y17897   1.668   1.350   4.935  1.4967 -0.3118 -0.1507
  160SAPE  C31317898   1.713   1.259   5.117 -0.5091  0.4324  0.1657
  160SAPE  H13X17899   1.825   1.258   5.118 -0.4373  1.6424 -1.8896
  160SAPE  H13Y17900   1.694   1.160   5.163 -0.2486  0.2256 -0.1658
  160SAPE  C31417901   1.639   1.369   5.191  0.2514  0.0808 -1.4280
  160SAPE  H14X17902   1.630   1.468   5.141 -1.3690  1.2520  0.9679
  160SAPE  H14Y17903   1.698   1.393   5.282 -1.6176 -0.9518  0.1486
  160SAPE  C31517904   1.497   1.327   5.236 -0.2454 -0.0413  1.2120
  160SAPE  H15X17905   1.492   1.223   5.276 -0.3669 -0.0657  1.1334
  160SAPE  H15Y17906   1.433   1.339   5.146  1.4098  2.9775  0.3118
  160SAPE  C31617907   1.433   1.414   5.350 -0.6969  0.0437 -0.1448
  160SAPE  H16X17908   1.434   1.520   5.316  1.7821 -0.5671 -2.3035
  160SAPE  H16Y17909   1.493   1.411   5.443  2.3625  1.0929 -1.9244
  160SAPE  C31717910   1.290   1.373   5.380 -0.4209 -0.6583  0.0135
  160SAPE  H17X17911   1.233   1.350   5.288 -2.2002 -2.5234  1.4911
  160SAPE  H17Y17912   1.248   1.463   5.429  0.5004 -0.6451  0.8242
  160SAPE  C31817913   1.286   1.254   5.468  0.7488  0.5983  0.4726
  160SAPE  H18X17914   1.327   1.268   5.570  1.3403 -1.0996  0.4819
  160SAPE  H18Y17915   1.354   1.176   5.429  0.5255  1.7967 -2.6189
  160SAPE  H18Z17916   1.184   1.208   5.471  0.1973  1.5720 -1.4370
  161SAPE     N17917   2.779   4.125   3.528  0.1674  0.3327  0.0084
  161SAPE   HN117918   2.845   4.167   3.597  0.2782  0.6716 -0.3036
  161SAPE   HN217919   2.807   4.029   3.497  0.2363  0.4610 -0.3304
  161SAPE   HN317920   2.781   4.188   3.445 -1.4505  1.3606  0.7016
  161SAPE   C1217921   2.638   4.117   3.567  0.5011 -0.5088 -0.1587
  161SAPE  H12A17922   2.634   4.048   3.654  0.1024 -1.2560 -0.7686
  161SAPE  H12B17923   2.580   4.080   3.481 -2.7325  1.3708  1.0440
  161SAPE   C1117924   2.575   4.255   3.604  0.1741  0.1546 -0.0159
  161SAPE  H11A17925   2.631   4.284   3.695  0.4226  1.8598 -0.6722
  161SAPE  H11B17926   2.470   4.224   3.627 -1.1951  1.7617 -3.3660
  161SAPE     P17927   2.470   4.453   3.472 -0.0090 -0.3976  0.3516
  161SAPE   O1317928   2.522   4.567   3.391 -0.2614 -0.0185  0.4338
  161SAPE   O1417929   2.344   4.390   3.421  0.4126  0.1657  0.4879
  161SAPE   O1217930   2.579   4.343   3.493 -0.9966 -0.0475 -0.4416
  161SAPE   O1117931   2.453   4.499   3.619  0.2381 -0.5202 -0.3300
  161SAPE    C117932   2.338   4.498   3.702  0.1100 -1.0623  0.1862
  161SAPE    HA17933   2.249   4.484   3.637 -0.7356  0.7429  0.8668
  161SAPE    HB17934   2.344   4.422   3.783  2.5228 -0.0461  1.0559
  161SAPE    C217935   2.318   4.632   3.788  0.1067  0.2941 -0.4525
  161SAPE    HS17936   2.353   4.713   3.720  0.2210 -0.9113 -1.8805
  161SAPE   O2117937   2.402   4.622   3.908 -0.2794 -0.0679 -0.4546
  161SAPE   C2117938   2.418   4.732   3.984  0.9214 -0.2184  0.2142
  161SAPE   O2217939   2.380   4.845   3.952  0.1342  0.0187 -0.0219
  161SAPE   C2217940   2.465   4.701   4.135 -0.0418  0.2107 -0.2438
  161SAPE   H2R17941   2.379   4.675   4.200 -1.0676  0.9481 -1.2594
  161SAPE   H2S17942   2.533   4.614   4.135 -0.7489 -0.4043  2.0260
  161SAPE    C317943   2.170   4.651   3.830 -0.4164  0.2264 -0.6335
  161SAPE    HX17944   2.127   4.705   3.743  0.0234  0.3579 -0.7708
  161SAPE    HY17945   2.163   4.731   3.908  1.6400  0.1035 -0.2876
  161SAPE   O3117946   2.089   4.533   3.865  0.0958  0.9453 -0.8819
  161SAPE   C3117947   2.069   4.513   3.995 -0.0506  0.8964  0.5131
  161SAPE   O3217948   2.120   4.580   4.084 -0.3377 -0.1955  1.0366
  161SAPE   C3217949   1.974   4.390   4.016  0.1391  0.3980 -0.1123
  161SAPE   H2X17950   2.030   4.308   3.966  0.8741  1.1947 -0.6366
  161SAPE   H2Y17951   1.877   4.414   3.966 -0.0260  0.8208  0.4069
  161SAPE   C2317952   2.545   4.823   4.203  0.0199  0.3222  0.6681
  161SAPE   H3R17953   2.474   4.893   4.250  2.2402  3.6421 -0.5417
  161SAPE   H3S17954   2.601   4.874   4.122  1.1166 -1.0517  0.5202
  161SAPE   C2417955   2.649   4.778   4.311 -0.3722  0.6296  0.1730
  161SAPE   H4R17956   2.709   4.707   4.250  0.1947  0.5940  0.7647
  161SAPE   H4S17957   2.599   4.734   4.399  0.3968 -0.5703  0.0308
  161SAPE   C2517958   2.722   4.907   4.351  0.1704 -0.7317 -0.2253
  161SAPE   H5R17959   2.760   4.972   4.271 -2.0993  0.8581 -0.1115
  161SAPE   C2617960   2.739   4.962   4.472 -0.4290  0.3606 -1.2313
  161SAPE   H6R17961   2.791   5.059   4.484 -0.7704  0.5218 -1.0567
  161SAPE   C2717962   2.700   4.884   4.598 -0.7201 -0.7637 -0.4335
  161SAPE   H7R17963   2.769   4.924   4.675  1.0469 -1.4377 -1.6111
  161SAPE   H7S17964   2.734   4.779   4.586  2.0591  0.2289 -2.3163
  161SAPE   C2817965   2.555   4.893   4.641  0.4998  0.0235 -0.4149
  161SAPE   H8R17966   2.487   4.962   4.588 -0.2452  0.6581  1.2853
  161SAPE   C2917967   2.504   4.824   4.746 -0.2619  0.9041  0.3753
  161SAPE   H9R17968   2.398   4.826   4.776  0.2272  0.8900  2.1961
  161SAPE  C21017969   2.594   4.731   4.832 -0.2143 -0.5561 -0.2581
  161SAPE  H10R17970   2.637   4.794   4.913 -2.7068 -2.3549  2.6689
  161SAPE  H10S17971   2.678   4.681   4.780  1.0103  1.1496 -0.0108
  161SAPE  C21117972   2.514   4.624   4.909 -0.6508 -1.0451  0.1410
  161SAPE  H11R17973   2.500   4.532   4.851 -1.3126 -1.5200  1.0323
  161SAPE  C21217974   2.440   4.640   5.023 -0.2502  0.2543 -0.7848
  161SAPE  H12R17975   2.368   4.562   5.051 -0.8877  1.0430 -0.2049
  161SAPE  C21317976   2.440   4.769   5.098  0.0165 -0.4568 -0.4838
  161SAPE  H13R17977   2.408   4.855   5.036  1.7287  0.9525  0.4888
  161SAPE  H13S17978   2.545   4.800   5.118 -1.1386  2.3492  2.1209
  161SAPE  C21417979   2.363   4.774   5.231 -0.0003  0.8274  0.3657
  161SAPE  H14R17980   2.260   4.741   5.211  0.3223  0.7040 -1.1947
  161SAPE  C21517981   2.406   4.800   5.359  0.3948 -0.8474 -0.6361
  161SAPE  H15R17982   2.337   4.794   5.445  2.5722 -1.4488  1.1778
  161SAPE  C21617983   2.544   4.829   5.402 -0.4181  0.0727  0.3516
  161SAPE  H16R17984   2.557   4.937   5.422  1.0224 -0.1628  0.8142
  161SAPE  H16S17985   2.612   4.820   5.314 -2.1878 -0.3715 -1.0337
  161SAPE  C21717986   2.613   4.745   5.510 -1.5136  0.4597  0.2577
  161SAPE  H17R17987   2.559   4.731   5.606  1.1370 -1.3305  1.6149
  161SAPE  H17S17988   2.705   4.796   5.545 -1.1019  0.8779 -1.3437
  161SAPE  C21817989   2.647   4.590   5.469  0.9060 -0.0522 -0.0933
  161SAPE  H18R17990   2.553   4.531   5.467  0.7284  0.1476  1.1971
  161SAPE  H18S17991   2.698   4.551   5.560  0.7406 -0.5655 -0.2182
  161SAPE  C21917992   2.731   4.574   5.344 -0.7476 -0.5545  0.5231
  161SAPE  H19R17993   2.690   4.625   5.254  1.1705  2.5602  1.2287
  161SAPE  H19S17994   2.758   4.469   5.323 -1.8853 -0.8038  0.2353
  161SAPE  C22017995   2.857   4.660   5.361  0.6726  0.2410  0.2642
  161SAPE  H20R17996   2.856   4.758   5.310 -0.0639 -0.2510 -0.7040
  161SAPE  H20S17997   2.944   4.602   5.325  2.0032  0.8842  2.2651
  161SAPE  H20T17998   2.878   4.678   5.468 -0.8473 -2.4132  1.1213
  161SAPE   C3317999   1.939   4.364   4.169 -0.1815 -0.5896  0.0878
  161SAPE   H3X18000   1.872   4.448   4.196  2.0555  0.9131  1.2662
  161SAPE   H3Y18001   2.032   4.378   4.229 -1.6637  3.0553  1.8479
  161SAPE   C3418002   1.869   4.225   4.194  0.2695 -0.4745  0.3998
  161SAPE   H4X18003   1.944   4.152   4.157  0.1053  0.2980 -1.6079
  161SAPE   H4Y18004   1.773   4.212   4.139  0.3401 -0.0787  0.1761
  161SAPE   C3518005   1.840   4.177   4.333  0.2812 -0.1020 -0.0236
  161SAPE   H5X18006   1.784   4.081   4.338 -1.6487  0.9689  0.0076
  161SAPE   H5Y18007   1.761   4.245   4.370 -0.0156 -1.2036  1.4880
  161SAPE   C3618008   1.959   4.204   4.428  0.3951  0.4554 -0.0668
  161SAPE   H6X18009   1.988   4.311   4.420 -0.0602  0.6633  0.8701
  161SAPE   H6Y18010   2.036   4.139   4.382  3.6869  2.0580  2.6718
  161SAPE   C3718011   1.933   4.169   4.580 -0.6489  0.0793  0.2658
  161SAPE   H7X18012   1.906   4.061   4.579 -3.7179  0.6092 -4.2655
  161SAPE   H7Y18013   1.843   4.226   4.612 -1.0453 -1.1086  1.3545
  161SAPE   C3818014   2.055   4.203   4.675 -0.0644  0.1239 -0.0142
  161SAPE   H8X18015   2.096   4.303   4.651  0.9962  0.1948  1.8531
  161SAPE   H8Y18016   2.137   4.129   4.666 -2.1322 -2.3158  0.0668
  161SAPE   C3918017   2.043   4.207   4.830 -0.2233 -0.2126 -0.8308
  161SAPE   H9X18018   1.998   4.113   4.867  1.1407 -0.5157  0.1240
  161SAPE   H9Y18019   1.973   4.278   4.878  1.4370 -1.3132  3.6959
  161SAPE  C31018020   2.181   4.226   4.906 -1.5418 -0.5984 -0.3314
  161SAPE  H10X18021   2.221   4.329   4.892 -2.0089 -0.0642  1.8885
  161SAPE  H10Y18022   2.253   4.166   4.847 -1.3355  0.4260 -1.1580
  161SAPE  C31118023   2.176   4.212   5.060 -0.2808 -0.1747  1.1313
  161SAPE  H11X18024   2.146   4.110   5.092  2.0580 -1.8507 -1.5484
  161SAPE  H11Y18025   2.112   4.296   5.096 -0.6663  0.2079 -0.3852
  161SAPE  C31218026   2.317   4.243   5.125 -0.2280  0.2007 -0.3960
  161SAPE  H12X18027   2.356   4.336   5.078  0.3203  0.2850  0.2105
  161SAPE  H12Y18028   2.377   4.160   5.081 -2.5859  0.3254 -4.2977
  161SAPE  C31318029   2.304   4.259   5.280  0.5397 -0.0368 -0.0637
  161SAPE  H13X18030   2.402   4.230   5.324 -0.2337 -1.8148  0.5584
  161SAPE  H13Y18031   2.226   4.187   5.313 -1.1219  2.3893  1.6176
  161SAPE  C31418032   2.260   4.403   5.321  0.7511 -0.3613 -0.0252
  161SAPE  H14X18033   2.171   4.447   5.271  0.6864  0.1690  0.5399
  161SAPE  H14Y18034   2.348   4.466   5.296  1.5224 -0.8148  1.4048
  161SAPE  C31518035   2.222   4.407   5.474 -0.2816  0.0270  0.7036
  161SAPE  H15X18036   2.301   4.355   5.532 -1.5451 -1.3514  1.2467
  161SAPE  H15Y18037   2.137   4.336   5.479  0.9524 -2.0292 -3.4012
  161SAPE  C31618038   2.178   4.542   5.529  0.0946 -0.0970 -0.0612
  161SAPE  H16X18039   2.112   4.598   5.460 -1.1717 -0.4192  0.8475
  161SAPE  H16Y18040   2.274   4.595   5.543  1.3222 -2.6017  1.8237
  161SAPE  C31718041   2.109   4.532   5.661 -0.2514  0.0947 -0.7199
  161SAPE  H17X18042   2.169   4.465   5.727 -1.5573  0.1830  0.6191
  161SAPE  H17Y18043   2.019   4.473   5.632  0.9630 -1.7642 -0.8232
  161SAPE  C31818044   2.085   4.665   5.735 -0.2637 -0.3424 -0.1542
  161SAPE  H18X18045   2.017   4.730   5.676  0.9420  1.4639  0.3804
  161SAPE  H18Y18046   2.179   4.723   5.738 -0.0772 -0.5633 -1.1422
  161SAPE  H18Z18047   2.050   4.656   5.839  0.1912 -1.2989 -0.0693
  162SAPE     N18048   1.238   2.370   3.683  0.6006  0.4390 -0.0952
  162SAPE   HN118049   1.261   2.278   3.640 -0.3277  0.2512 -0.2215
  162SAPE   HN218050   1.143   2.404   3.657  1.2349  1.4593 -1.1557
  162SAPE   HN318051   1.300   2.427   3.622 -0.9490  0.6809 -1.5253
  162SAPE   C1218052   1.257   2.369   3.827  0.3368  0.1353  0.1018
  162SAPE  H12A18053   1.364   2.387   3.852  0.0576 -0.3237  1.7409
  162SAPE  H12B18054   1.230   2.268   3.865 -1.2735 -0.1243 -1.5865
  162SAPE   C1118055   1.171   2.486   3.889  0.0297  0.4648  0.6831
  162SAPE  H11A18056   1.189   2.499   3.998  0.2406  2.6001  0.4237
  162SAPE  H11B18057   1.069   2.443   3.879  0.1348  0.5542 -1.0892
  162SAPE     P18058   1.296   2.709   3.840 -0.2821  0.3180 -0.0732
  162SAPE   O1318059   1.417   2.627   3.811  0.2984  0.0658 -0.2802
  162SAPE   O1418060   1.276   2.834   3.768 -0.1872  0.2158  0.1980
  162SAPE   O1218061   1.180   2.613   3.818  0.0171  0.3958  0.0739
  162SAPE   O1118062   1.285   2.755   3.991  0.4486  0.0962  0.7469
  162SAPE    C118063   1.163   2.776   4.066 -1.0230  0.1722 -0.3389
  162SAPE    HA18064   1.112   2.873   4.046 -0.7604 -0.1568 -2.9808
  162SAPE    HB18065   1.083   2.701   4.046 -1.5684  0.1123  1.8227
  162SAPE    C218066   1.202   2.759   4.217 -1.1405 -0.0267 -0.1100
  162SAPE    HS18067   1.108   2.723   4.264  0.8512 -3.4714  1.6083
  162SAPE   O2118068   1.265   2.886   4.255 -0.3721 -0.1466  0.7528
  162SAPE   C2118069   1.210   2.935   4.367  0.0604 -0.8048 -0.0056
  162SAPE   O2218070   1.117   2.888   4.427 -0.1591 -0.1622  0.3322
  162SAPE   C2218071   1.273   3.072   4.386  0.0138  0.1658 -0.0081
  162SAPE   H2R18072   1.369   3.048   4.436  0.4947  1.7166 -0.1504
  162SAPE   H2S18073   1.274   3.125   4.288 -1.9093  1.3434  0.5533
  162SAPE    C318074   1.301   2.648   4.232 -0.1703 -0.1887  0.3070
  162SAPE    HX18075   1.403   2.675   4.198 -0.3169  2.2377  1.5925
  162SAPE    HY18076   1.268   2.563   4.169 -0.3538 -0.5216  0.8454
  162SAPE   O3118077   1.296   2.607   4.369  0.2787  0.8327  0.0172
  162SAPE   C3118078   1.406   2.631   4.443  0.6809 -0.0204 -0.4628
  162SAPE   O3218079   1.508   2.683   4.400  0.2216 -0.2580  0.4980
  162SAPE   C3218080   1.380   2.576   4.581 -0.4201  0.2979  0.1791
  162SAPE   H2X18081   1.468   2.513   4.605 -0.2999 -0.2286 -1.5223
  162SAPE   H2Y18082   1.293   2.508   4.592 -0.1406 -0.6854 -2.8401
  162SAPE   C2318083   1.198   3.167   4.492 -0.0755 -0.0904  0.4921
  162SAPE   H3R18084   1.197   3.113   4.589 -4.0279  2.0019  1.8231
  162SAPE   H3S18085   1.098   3.190   4.450 -0.3654  1.3915  1.8945
  162SAPE   C2418086   1.259   3.303   4.485  0.1135  0.5361  0.2550
  162SAPE   H4R18087   1.188   3.357   4.550  1.2566  2.7863 -0.2867
  162SAPE   H4S18088   1.259   3.347   4.384  1.9996 -0.5010 -0.2457
  162SAPE   C2518089   1.401   3.317   4.530  0.8965 -0.2660 -0.0794
  162SAPE   H5R18090   1.475   3.242   4.495 -0.2969 -1.8168  0.6120
  162SAPE   C2618091   1.434   3.411   4.623 -0.2527  0.2574  1.2699
  162SAPE   H6R18092   1.542   3.411   4.646  0.4195  0.4611 -1.4815
  162SAPE   C2718093   1.351   3.516   4.686  0.1767 -1.0167 -0.5724
  162SAPE   H7R18094   1.257   3.541   4.633  0.7416  1.1130 -0.6505
  162SAPE   H7S18095   1.402   3.615   4.680  0.2899 -0.8037  2.3285
  162SAPE   C2818096   1.315   3.468   4.824  0.2213  0.0968  0.2418
  162SAPE   H8R18097   1.265   3.370   4.818 -0.3683  0.2320  2.2872
  162SAPE   C2918098   1.318   3.525   4.941 -1.1206 -0.1725 -0.7516
  162SAPE   H9R18099   1.302   3.471   5.036  1.3891  1.6677  0.8480
  162SAPE  C21018100   1.354   3.666   4.972  0.3912 -0.3979  0.6765
  162SAPE  H10R18101   1.379   3.722   4.880 -2.2091  0.6270  0.5138
  162SAPE  H10S18102   1.447   3.662   5.033  0.2295 -0.3948  0.9282
  162SAPE  C21118103   1.243   3.737   5.043 -0.1788 -0.7879 -0.0617
  162SAPE  H11R18104   1.189   3.807   4.978  1.0900 -0.3174 -0.6390
  162SAPE  C21218105   1.234   3.752   5.176  0.4832 -0.0585 -0.3849
  162SAPE  H12R18106   1.155   3.824   5.201  0.2637 -0.7516  1.0156
  162SAPE  C21318107   1.311   3.682   5.287 -0.0977 -0.2010 -0.2665
  162SAPE  H13R18108   1.310   3.573   5.262  1.8922  0.2368 -2.6257
  162SAPE  H13S18109   1.240   3.696   5.371 -1.2175  0.0749 -1.2262
  162SAPE  C21418110   1.458   3.718   5.317  0.7958 -0.0045  0.2667
  162SAPE  H14R18111   1.518   3.711   5.225 -1.5793  0.9218 -1.4555
  162SAPE  C21518112   1.504   3.769   5.431  0.6928 -0.1331  0.2615
  162SAPE  H15R18113   1.605   3.807   5.448  0.1080  1.4264  0.3749
  162SAPE  C21618114   1.420   3.805   5.553  0.1470  0.2722  0.6644
  162SAPE  H16R18115   1.355   3.721   5.585  0.1601  0.1607  0.4019
  162SAPE  H16S18116   1.345   3.884   5.530 -0.1523 -0.6796 -1.9783
  162SAPE  C21718117   1.505   3.827   5.680  0.4184 -0.5130  0.6120
  162SAPE  H17R18118   1.584   3.750   5.691  2.4471  1.2908 -0.4969
  162SAPE  H17S18119   1.438   3.824   5.769 -1.6965 -0.2011 -0.9079
  162SAPE  C21818120   1.571   3.971   5.679  0.1909 -0.5268  0.1681
  162SAPE  H18R18121   1.518   4.048   5.619  0.2887 -0.1831  0.5282
  162SAPE  H18S18122   1.674   3.963   5.638 -0.4274 -0.7588 -1.4452
  162SAPE  C21918123   1.570   4.039   5.823  0.1631 -0.0458  0.1738
  162SAPE  H19R18124   1.643   4.123   5.826  2.0644 -1.6380  2.5392
  162SAPE  H19S18125   1.610   3.970   5.900 -0.2245  0.2055  0.6070
  162SAPE  C22018126   1.429   4.097   5.853  0.1411 -0.4618 -0.3930
  162SAPE  H20R18127   1.362   4.015   5.885  1.7138 -1.5138  0.3023
  162SAPE  H20S18128   1.388   4.136   5.757  0.4801 -1.8657 -1.1250
  162SAPE  H20T18129   1.438   4.181   5.926 -2.0111  0.1760 -0.7961
  162SAPE   C3318130   1.361   2.690   4.680  0.2003 -0.2786  0.6387
  162SAPE   H3X18131   1.299   2.650   4.763 -2.3804  1.3132 -0.3758
  162SAPE   H3Y18132   1.299   2.771   4.635 -1.6270 -0.6650  2.3094
  162SAPE   C3418133   1.500   2.751   4.723 -0.1569  0.1217 -0.8478
  162SAPE   H4X18134   1.553   2.799   4.637 -0.0009  3.5786  0.9917
  162SAPE   H4Y18135   1.562   2.672   4.769 -0.7271 -0.1032 -0.4574
  162SAPE   C3518136   1.477   2.862   4.832 -0.2362 -0.1616 -0.3170
  162SAPE   H5X18137   1.382   2.844   4.886 -0.7703  0.1980 -1.1100
  162SAPE   H5Y18138   1.450   2.956   4.779 -0.3227 -1.0629 -1.9470
  162SAPE   C3618139   1.603   2.869   4.926  0.1080  0.1694  0.0244
  162SAPE   H6X18140   1.691   2.885   4.860  0.7719 -2.7642  0.0941
  162SAPE   H6Y18141   1.633   2.772   4.971 -0.4237 -0.1770 -0.3472
  162SAPE   C3718142   1.589   2.974   5.037 -0.1511 -0.1542 -0.5745
  162SAPE   H7X18143   1.693   2.982   5.075 -0.1460 -2.5169  0.0701
  162SAPE   H7Y18144   1.518   2.946   5.118  1.4209  0.8288  1.2214
  162SAPE   C3818145   1.539   3.112   4.983  0.0225  0.0918 -0.0258
  162SAPE   H8X18146   1.428   3.121   4.974  0.1601  1.2121 -0.8365
  162SAPE   H8Y18147   1.579   3.126   4.880  0.0706  0.1560  0.0018
  162SAPE   C3918148   1.599   3.223   5.068  0.1723 -0.5340  0.1459
  162SAPE   H9X18149   1.558   3.321   5.034  0.8701  0.0135  0.8364
  162SAPE   H9Y18150   1.710   3.218   5.059  0.1485 -0.0072 -0.5530
  162SAPE  C31018151   1.565   3.206   5.216  0.3445  0.4580 -0.1231
  162SAPE  H10X18152   1.655   3.165   5.268  0.3533 -1.8063 -1.7634
  162SAPE  H10Y18153   1.494   3.125   5.243  0.8961  0.3536  1.0781
  162SAPE  C31118154   1.518   3.340   5.286 -0.3496  0.3193  0.7177
  162SAPE  H11X18155   1.420   3.363   5.238 -1.5940 -2.2934  1.8268
  162SAPE  H11Y18156   1.594   3.414   5.252 -1.5136  0.8822 -0.7963
  162SAPE  C31218157   1.507   3.337   5.434 -0.2746  0.1337  0.3258
  162SAPE  H12X18158   1.495   3.441   5.470 -0.5259 -0.3475  1.7230
  162SAPE  H12Y18159   1.597   3.300   5.488 -0.6710  0.8615  1.5299
  162SAPE  C31318160   1.382   3.265   5.479  0.0793  0.0378  1.3753
  162SAPE  H13X18161   1.392   3.158   5.448  0.7774  0.7477 -1.0679
  162SAPE  H13Y18162   1.294   3.309   5.429  1.2548  0.6938 -0.1947
  162SAPE  C31418163   1.351   3.286   5.628 -0.1181 -0.3524  0.1030
  162SAPE  H14X18164   1.441   3.269   5.691  0.7127 -0.8031 -1.1767
  162SAPE  H14Y18165   1.276   3.208   5.651  1.4135 -1.6958  0.8078
  162SAPE  C31518166   1.297   3.427   5.663  0.4615  0.3912  0.1426
  162SAPE  H15X18167   1.205   3.461   5.610  1.3957 -0.0012 -1.8151
  162SAPE  H15Y18168   1.374   3.506   5.650  0.9112 -0.2173 -0.9914
  162SAPE  C31618169   1.266   3.434   5.806  0.7576 -0.2010 -0.0616
  162SAPE  H16X18170   1.348   3.395   5.871  0.0042 -0.3181  0.8377
  162SAPE  H16Y18171   1.171   3.378   5.821  1.0154 -1.0089 -1.3429
  162SAPE  C31718172   1.250   3.575   5.861  0.0436 -0.6693  0.5807
  162SAPE  H17X18173   1.178   3.621   5.790  0.6451 -0.2740  0.2159
  162SAPE  H17Y18174   1.351   3.620   5.858  1.9359 -4.3350  2.2757
  162SAPE  C31818175   1.201   3.585   6.005 -0.7819 -0.1131  0.3151
  162SAPE  H18X18176   1.094   3.555   6.011 -1.5112  1.7136 -1.8958
  162SAPE  H18Y18177   1.211   3.689   6.044 -2.8779  0.0867  0.4550
  162SAPE  H18Z18178   1.268   3.516   6.061 -0.1671 -1.0315 -1.4693
  163SAPE     N18179   1.782   6.692   3.314 -1.0090 -0.2264  0.4451
  163SAPE   HN118180   1.832   6.632   3.246  0.1956  0.3298  0.8029
  163SAPE   HN218181   1.853   6.707   3.389  0.5350 -1.2036 -0.7533
  163SAPE   HN318182   1.701   6.642   3.358 -2.4629  0.1441 -1.6917
  163SAPE   C1218183   1.735   6.816   3.237  0.2324 -0.2801 -0.1764
  163SAPE  H12A18184   1.632   6.796   3.199  0.5685 -0.7064 -0.8749
  163SAPE  H12B18185   1.799   6.833   3.149  2.4074 -2.4775  0.8500
  163SAPE   C1118186   1.719   6.930   3.338 -0.0663  0.3684 -0.2694
  163SAPE  H11A18187   1.658   6.903   3.428  2.1003 -0.3983  1.0367
  163SAPE  H11B18188   1.664   7.016   3.295 -0.7833  1.9518  3.3781
  163SAPE     P18189   1.917   6.939   3.511 -0.3716  0.0819  0.0822
  163SAPE   O1318190   1.931   6.792   3.524  1.0755  0.2025 -0.3804
  163SAPE   O1418191   2.046   7.014   3.527  0.1234 -0.2526  1.1492
  163SAPE   O1218192   1.848   6.975   3.378  0.2726  0.7629 -0.2614
  163SAPE   O1118193   1.820   6.988   3.618  0.0072  0.0333  0.8089
  163SAPE    C118194   1.801   7.127   3.641  0.6288  0.3315 -0.0363
  163SAPE    HA18195   1.838   7.188   3.556 -0.6976 -2.0822 -2.5059
  163SAPE    HB18196   1.690   7.139   3.640  0.3269 -1.6506  1.9309
  163SAPE    C218197   1.845   7.176   3.779 -0.6289 -0.4766  0.1442
  163SAPE    HS18198   1.954   7.197   3.779 -0.5448 -0.9005 -0.5103
  163SAPE   O2118199   1.797   7.088   3.879  0.4632  0.1491  0.0878
  163SAPE   C2118200   1.874   7.031   3.965 -1.2511  0.3925 -0.5641
  163SAPE   O2218201   1.995   7.030   3.968  0.3510  0.3814  0.0061
  163SAPE   C2218202   1.792   6.976   4.079 -0.5794  0.1674  0.4270
  163SAPE   H2R18203   1.689   7.019   4.076 -2.0159 -2.7680  2.4011
  163SAPE   H2S18204   1.766   6.871   4.054  1.7133 -0.4973  0.6155
  163SAPE    C318205   1.767   7.314   3.800  0.6366  0.5532 -0.3089
  163SAPE    HX18206   1.657   7.304   3.793  0.6069  0.4680  0.2155
  163SAPE    HY18207   1.783   7.380   3.712 -2.6412  0.1030 -1.3870
  163SAPE   O3118208   1.816   7.365   3.925 -0.9390 -0.2676 -0.5349
  163SAPE   C3118209   1.737   7.333   4.032  0.4490 -0.6262 -0.5149
  163SAPE   O3218210   1.636   7.270   4.031 -0.0206 -0.2163 -0.2954
  163SAPE   C3218211   1.804   7.389   4.164 -0.0070 -0.2668 -0.0449
  163SAPE   H2X18212   1.900   7.439   4.137  0.2494 -0.2448  0.8865
  163SAPE   H2Y18213   1.834   7.297   4.217  1.7580  0.9505  1.1829
  163SAPE   C2318214   1.864   6.988   4.219  0.4188  0.5417  0.4747
  163SAPE   H3R18215   1.916   7.085   4.231 -1.5033  1.9066 -1.4555
  163SAPE   H3S18216   1.943   6.909   4.221  0.4745  0.4840 -1.6827
  163SAPE   C2418217   1.764   6.964   4.332 -0.4167  0.6837 -0.1864
  163SAPE   H4R18218   1.822   6.951   4.426  0.5593 -0.8272 -0.9692
  163SAPE   H4S18219   1.711   6.867   4.322  0.0974  0.1449  1.9067
  163SAPE   C2518220   1.668   7.082   4.339  0.3418  0.5431  0.0488
  163SAPE   H5R18221   1.642   7.128   4.242 -1.0945  2.7353  1.3730
  163SAPE   C2618222   1.632   7.139   4.455  0.1469 -0.0753 -0.4717
  163SAPE   H6R18223   1.562   7.224   4.450  0.0269 -0.2420 -2.1296
  163SAPE   C2718224   1.661   7.089   4.599 -0.1258  0.0894  0.4772
  163SAPE   H7R18225   1.712   6.991   4.593  1.5835  0.9863 -0.4280
  163SAPE   H7S18226   1.560   7.063   4.639 -0.5100  0.5611 -0.1597
  163SAPE   C2818227   1.737   7.187   4.689 -0.0519  0.7738  0.1814
  163SAPE   H8R18228   1.805   7.249   4.628  0.8952 -0.7014 -0.3340
  163SAPE   C2918229   1.714   7.211   4.816 -0.3862 -0.4227 -0.1326
  163SAPE   H9R18230   1.780   7.283   4.866  0.2187  1.0411 -2.8474
  163SAPE  C21018231   1.605   7.154   4.905  0.3362 -0.7294  0.5932
  163SAPE  H10R18232   1.640   7.099   4.995 -0.1443  1.2686  2.0849
  163SAPE  H10S18233   1.543   7.081   4.850  0.7290  0.3629 -1.4249
  163SAPE  C21118234   1.513   7.270   4.942 -0.5158 -0.1196 -0.5564
  163SAPE  H11R18235   1.477   7.332   4.858  2.4301  1.2011 -0.9538
  163SAPE  C21218236   1.467   7.306   5.065  0.3859  0.2716 -0.4408
  163SAPE  H12R18237   1.397   7.388   5.083 -0.7756 -1.0844  1.6252
  163SAPE  C21318238   1.505   7.233   5.195 -1.0208  0.1467 -0.1114
  163SAPE  H13R18239   1.609   7.193   5.200 -0.2571  2.1375  1.5639
  163SAPE  H13S18240   1.443   7.141   5.191 -1.1532  0.1831  0.9405
  163SAPE  C21418241   1.489   7.318   5.320  0.0139  0.7839  0.0311
  163SAPE  H14R18242   1.385   7.327   5.356  0.4456 -1.7188  2.2249
  163SAPE  C21518243   1.584   7.380   5.384  0.4275 -0.0259  0.0684
  163SAPE  H15R18244   1.558   7.423   5.482  0.3071  0.1577 -0.0436
  163SAPE  C21618245   1.736   7.382   5.356  0.3306 -0.7790 -0.4773
  163SAPE  H16R18246   1.756   7.461   5.280 -0.4069 -0.7948 -0.6914
  163SAPE  H16S18247   1.780   7.288   5.317 -0.4303 -1.7811  0.9630
  163SAPE  C21718248   1.817   7.412   5.485 -0.1815  0.6551  0.1031
  163SAPE  H17R18249   1.783   7.509   5.527  1.2317  0.1946  2.5126
  163SAPE  H17S18250   1.925   7.421   5.462  0.4017 -2.6663  1.0472
  163SAPE  C21818251   1.815   7.296   5.587  0.3509 -0.0843  0.3723
  163SAPE  H18R18252   1.814   7.197   5.536  0.3199 -0.2881  0.7692
  163SAPE  H18S18253   1.718   7.295   5.642  0.0554  1.5330 -0.0657
  163SAPE  C21918254   1.914   7.302   5.698 -0.7448  0.6148 -0.5536
  163SAPE  H19R18255   1.906   7.396   5.757 -0.8468  0.7846 -0.8347
  163SAPE  H19S18256   2.017   7.300   5.657  0.1556  2.7931  1.4066
  163SAPE  C22018257   1.917   7.178   5.798 -0.0593 -0.4719  0.2568
  163SAPE  H20R18258   2.008   7.155   5.858 -0.1775 -3.5410 -0.5705
  163SAPE  H20S18259   1.901   7.100   5.721  1.6029  0.5556 -1.2113
  163SAPE  H20T18260   1.831   7.175   5.868 -0.7323  0.5804 -0.4999
  163SAPE   C3318261   1.717   7.471   4.267 -0.5308 -0.0535 -0.0173
  163SAPE   H3X18262   1.623   7.413   4.275  0.8067 -2.3073  0.2313
  163SAPE   H3Y18263   1.693   7.569   4.220  0.1804 -0.3288 -0.9786
  163SAPE   C3418264   1.784   7.486   4.399  0.3294 -0.2604  0.4263
  163SAPE   H4X18265   1.870   7.554   4.384  1.2908 -0.9207  2.5359
  163SAPE   H4Y18266   1.827   7.388   4.427  0.3710 -0.8660 -1.6453
  163SAPE   C3518267   1.698   7.552   4.505  0.6223  0.1278  0.3455
  163SAPE   H5X18268   1.621   7.475   4.531  1.4856 -0.0641  2.5932
  163SAPE   H5Y18269   1.650   7.646   4.471  0.1911  0.1751  1.0771
  163SAPE   C3618270   1.784   7.590   4.624  0.2935 -1.0035  0.0440
  163SAPE   H6X18271   1.862   7.667   4.608  0.8127 -1.3815  0.6587
  163SAPE   H6Y18272   1.845   7.503   4.659  1.2492 -0.0455  0.8196
  163SAPE   C3718273   1.692   7.640   4.739 -0.4394  0.2336  0.8024
  163SAPE   H7X18274   1.607   7.571   4.762  0.7851 -0.8677  2.2227
  163SAPE   H7Y18275   1.648   7.733   4.698 -1.4264 -0.7424 -0.4234
  163SAPE   C3818276   1.761   7.674   4.871 -0.1424 -0.0120  0.0798
  163SAPE   H8X18277   1.809   7.774   4.863 -0.8948  0.3249 -0.3435
  163SAPE   H8Y18278   1.847   7.606   4.885  0.2778 -0.0321 -2.1961
  163SAPE   C3918279   1.663   7.671   4.991  0.1659 -0.1427 -0.0178
  163SAPE   H9X18280   1.628   7.566   5.005 -0.1533 -0.0359  0.0040
  163SAPE   H9Y18281   1.572   7.728   4.964 -0.5053 -1.6077 -1.0304
  163SAPE  C31018282   1.739   7.723   5.112 -0.2078 -0.1212 -0.1584
  163SAPE  H10X18283   1.787   7.817   5.078  2.0517 -0.6673  1.2314
  163SAPE  H10Y18284   1.819   7.649   5.135  0.0423 -0.5054 -2.1196
  163SAPE  C31118285   1.642   7.747   5.227  0.3005 -0.5557 -0.7777
  163SAPE  H11X18286   1.597   7.648   5.249  0.6515  0.0516  3.5479
  163SAPE  H11Y18287   1.556   7.815   5.208  0.2889 -0.0868  0.8242
  163SAPE  C31218288   1.713   7.779   5.361  0.1942 -0.4539 -0.5778
  163SAPE  H12X18289   1.724   7.888   5.380  1.7122 -1.1701  3.7853
  163SAPE  H12Y18290   1.805   7.722   5.384  0.4626  0.1225 -0.1860
  163SAPE  C31318291   1.614   7.738   5.471 -0.6470  0.9948  0.0793
  163SAPE  H13X18292   1.636   7.630   5.480  3.6841  1.4813 -1.8807
  163SAPE  H13Y18293   1.509   7.769   5.451 -0.9433 -0.2168 -0.3088
  163SAPE  C31418294   1.655   7.796   5.602 -0.4809  0.4732 -0.3875
  163SAPE  H14X18295   1.679   7.902   5.579  1.3033  0.3224  0.5152
  163SAPE  H14Y18296   1.747   7.743   5.636 -0.8236 -0.3762 -0.7748
  163SAPE  C31518297   1.541   7.792   5.713  0.4013 -0.7554 -0.6553
  163SAPE  H15X18298   1.451   7.853   5.688  1.5230  1.1833 -0.1999
  163SAPE  H15Y18299   1.567   7.832   5.813  1.6079 -0.5051 -1.0455
  163SAPE  C31618300   1.489   7.649   5.731 -0.2979 -0.0886 -0.2729
  163SAPE  H16X18301   1.471   7.599   5.634  0.1788 -1.5864  0.3878
  163SAPE  H16Y18302   1.394   7.648   5.787 -0.5359  0.9477 -0.6333
  163SAPE  C31718303   1.595   7.556   5.791 -0.1282 -0.0885 -0.0515
  163SAPE  H17X18304   1.635   7.591   5.889  1.0703 -2.4044  0.3709
  163SAPE  H17Y18305   1.682   7.549   5.723 -0.1785 -1.9911  0.0281
  163SAPE  C31818306   1.540   7.414   5.812 -0.1532 -0.6847  0.5436
  163SAPE  H18X18307   1.444   7.410   5.867 -1.3436  3.1271 -0.9241
  163SAPE  H18Y18308   1.619   7.352   5.859 -1.1511 -1.2873  1.4602
  163SAPE  H18Z18309   1.504   7.364   5.719 -0.7108  1.2800 -0.3440
  164SAPE     N18310   5.351   5.714   3.034  0.0072 -0.7129 -0.0765
  164SAPE   HN118311   5.372   5.635   2.970 -0.6587  0.2282 -1.5147
  164SAPE   HN218312   5.249   5.732   3.029  0.3721  1.2350 -3.3432
  164SAPE   HN318313   5.388   5.795   2.980  0.3297 -1.5541 -1.1717
  164SAPE   C1218314   5.417   5.691   3.166  0.0942 -0.5248  0.8526
  164SAPE  H12A18315   5.403   5.781   3.229 -1.6919 -0.8972  1.0352
  164SAPE  H12B18316   5.516   5.644   3.147 -1.6683 -4.5560  0.7291
  164SAPE   C1118317   5.347   5.578   3.247  0.1465  0.3920  0.2901
  164SAPE  H11A18318   5.398   5.565   3.345  2.5362  1.0024 -0.7935
  164SAPE  H11B18319   5.365   5.482   3.196  1.8050  0.2912  0.9672
  164SAPE     P18320   5.121   5.478   3.316  0.1648 -0.2369  0.2270
  164SAPE   O1318321   5.046   5.430   3.200  0.1825  0.2841 -0.1298
  164SAPE   O1418322   5.204   5.384   3.390  0.1589  0.4856 -0.4038
  164SAPE   O1218323   5.204   5.598   3.266  0.4314 -0.6178 -0.0735
  164SAPE   O1118324   5.006   5.537   3.410 -0.0640  0.0973  0.4814
  164SAPE    C118325   5.032   5.635   3.510 -0.6084  0.6227  0.4684
  164SAPE    HA18326   5.141   5.630   3.531 -0.0643 -3.7216 -2.1963
  164SAPE    HB18327   5.022   5.738   3.469  0.7855  0.8124  0.5670
  164SAPE    C218328   4.970   5.616   3.646  0.0508  0.0899  0.3943
  164SAPE    HS18329   4.862   5.642   3.634 -0.0298  0.3765  1.6102
  164SAPE   O2118330   5.030   5.714   3.727  0.3323 -0.1256 -0.4450
  164SAPE   C2118331   4.991   5.842   3.705  0.2089  0.0697  0.2701
  164SAPE   O2218332   4.890   5.871   3.642  0.7539  0.1388 -0.2576
  164SAPE   C2218333   5.105   5.938   3.753 -0.2286 -0.2407  0.0230
  164SAPE   H2R18334   5.126   5.928   3.862 -0.2614 -0.6049 -0.0020
  164SAPE   H2S18335   5.192   5.909   3.691 -0.4018  2.3811 -1.5639
  164SAPE    C318336   4.991   5.473   3.689  0.1275  0.0184  0.6362
  164SAPE    HX18337   5.100   5.455   3.677 -0.2648 -1.4453 -1.3003
  164SAPE    HY18338   4.945   5.405   3.615  0.3939  1.9380 -1.4049
  164SAPE   O3118339   4.947   5.453   3.825  0.1023  0.5622  0.3342
  164SAPE   C3118340   4.823   5.425   3.846  0.5455 -0.2827  0.0575
  164SAPE   O3218341   4.740   5.409   3.758  0.4959 -0.6201  0.1913
  164SAPE   C3218342   4.790   5.403   3.996  0.4665 -0.4264  0.0104
  164SAPE   H2X18343   4.711   5.327   4.016 -2.1856  2.6451  2.2609
  164SAPE   H2Y18344   4.754   5.498   4.040  1.7940 -0.3383  0.9594
  164SAPE   C2318345   5.062   6.084   3.729  0.2121 -0.5297  0.6236
  164SAPE   H3R18346   4.954   6.090   3.753 -0.2385 -0.9639 -1.1743
  164SAPE   H3S18347   5.075   6.111   3.622 -2.8924 -2.1986 -0.2804
  164SAPE   C2418348   5.140   6.174   3.818 -0.4767 -1.4103 -1.0440
  164SAPE   H4R18349   5.101   6.162   3.922  0.7510  0.7621 -0.2491
  164SAPE   H4S18350   5.119   6.279   3.786  2.7286 -0.1143  0.6634
  164SAPE   C2518351   5.291   6.147   3.811  0.6128  0.3727 -0.0034
  164SAPE   H5R18352   5.325   6.121   3.709  0.1080  1.4596 -0.4686
  164SAPE   C2618353   5.368   6.156   3.916 -0.0109  0.2928  0.3964
  164SAPE   H6R18354   5.472   6.119   3.911  0.5465  1.9079 -2.1959
  164SAPE   C2718355   5.324   6.201   4.054 -0.2041 -0.4459 -0.4358
  164SAPE   H7R18356   5.246   6.278   4.036 -0.7221 -0.7337  0.4929
  164SAPE   H7S18357   5.407   6.255   4.104 -0.9437 -0.1966  0.5611
  164SAPE   C2818358   5.267   6.089   4.146 -0.7113 -0.4628  0.3433
  164SAPE   H8R18359   5.237   5.999   4.090  2.7800 -0.5045 -1.7710
  164SAPE   C2918360   5.261   6.095   4.283  0.0000  0.5181  0.9887
  164SAPE   H9R18361   5.217   6.008   4.334 -0.1207  0.0631  0.1338
  164SAPE  C21018362   5.310   6.210   4.368  0.0016 -0.2684 -0.9546
  164SAPE  H10R18363   5.233   6.246   4.440  2.8683  2.0144  1.2454
  164SAPE  H10S18364   5.340   6.301   4.312  2.4137  0.0231  0.6331
  164SAPE  C21118365   5.434   6.174   4.445 -0.1079  0.0805 -0.1948
  164SAPE  H11R18366   5.509   6.131   4.377  1.0345 -1.0204  1.6951
  164SAPE  C21218367   5.466   6.186   4.573 -0.0237  0.8956 -0.2291
  164SAPE  H12R18368   5.565   6.160   4.614 -1.1956 -2.4377  0.8659
  164SAPE  C21318369   5.365   6.237   4.671 -0.2169  0.0638 -0.0326
  164SAPE  H13R18370   5.310   6.158   4.728 -1.8651  0.4607 -0.9856
  164SAPE  H13S18371   5.287   6.304   4.628 -0.8351 -1.0224 -0.6607
  164SAPE  C21418372   5.441   6.324   4.765  0.1930  0.1150 -0.1587
  164SAPE  H14R18373   5.462   6.423   4.720  0.3149  0.7602  1.2779
  164SAPE  C21518374   5.518   6.284   4.871 -0.8611 -0.6930 -0.5418
  164SAPE  H15R18375   5.571   6.361   4.929 -2.1523 -0.5650  0.5222
  164SAPE  C21618376   5.529   6.144   4.922 -0.4648 -0.3220 -0.3601
  164SAPE  H16R18377   5.617   6.090   4.879  0.6452 -0.5556  2.0227
  164SAPE  H16S18378   5.445   6.082   4.884  0.2930 -1.1336 -0.7676
  164SAPE  C21718379   5.553   6.151   5.073  0.8472 -0.1472 -0.3557
  164SAPE  H17R18380   5.631   6.226   5.098  1.5796 -0.9079 -0.3276
  164SAPE  H17S18381   5.583   6.048   5.099 -1.2677 -0.9614 -0.9263
  164SAPE  C21818382   5.428   6.162   5.165  0.4422  0.1340 -0.2506
  164SAPE  H18R18383   5.346   6.098   5.126  0.8069 -0.4840 -0.0199
  164SAPE  H18S18384   5.381   6.262   5.154 -0.5978 -0.5585 -2.7776
  164SAPE  C21918385   5.462   6.133   5.313 -0.2780 -0.3242 -0.4055
  164SAPE  H19R18386   5.539   6.053   5.315  0.6943  0.5621  1.9665
  164SAPE  H19S18387   5.384   6.096   5.383  1.0469 -2.1152  0.2101
  164SAPE  C22018388   5.530   6.247   5.386 -0.3187 -0.6879 -0.3577
  164SAPE  H20R18389   5.629   6.264   5.339 -0.8854  1.7428 -0.8170
  164SAPE  H20S18390   5.557   6.216   5.489 -1.5799  1.0850  0.5632
  164SAPE  H20T18391   5.477   6.345   5.394 -0.0061 -0.5779  0.5703
  164SAPE   C3318392   4.908   5.380   4.100  0.1357  0.1180 -0.1093
  164SAPE   H3X18393   4.987   5.458   4.090 -2.0906  2.5209  0.0949
  164SAPE   H3Y18394   4.957   5.283   4.075  0.6565 -0.0102  1.3258
  164SAPE   C3418395   4.852   5.382   4.241  1.0699 -0.0501  0.3232
  164SAPE   H4X18396   4.789   5.294   4.263  0.8293 -0.2437 -1.0596
  164SAPE   H4Y18397   4.761   5.446   4.247  0.4395 -1.0202  1.4257
  164SAPE   C3518398   4.951   5.410   4.352  0.0998  0.6557 -0.6915
  164SAPE   H5X18399   5.005   5.504   4.329 -1.1599  1.6948  0.4395
  164SAPE   H5Y18400   5.031   5.334   4.366  2.5578  3.4223  1.6114
  164SAPE   C3618401   4.885   5.442   4.491  0.9408  0.5239  0.0612
  164SAPE   H6X18402   4.816   5.357   4.509 -0.5406  1.3730 -1.3730
  164SAPE   H6Y18403   4.823   5.534   4.483 -1.2746 -0.8806  0.3991
  164SAPE   C3718404   4.978   5.452   4.610 -0.0157 -0.0046  0.3957
  164SAPE   H7X18405   5.053   5.534   4.602 -1.1086  1.4387  3.4201
  164SAPE   H7Y18406   5.030   5.355   4.625  0.0795 -0.0687 -0.3405
  164SAPE   C3818407   4.909   5.498   4.738  0.7599 -0.4550 -0.3260
  164SAPE   H8X18408   4.809   5.451   4.745  1.5286 -2.1196 -0.0207
  164SAPE   H8Y18409   4.903   5.607   4.759 -1.4576 -0.9833  2.3458
  164SAPE   C3918410   4.990   5.461   4.866 -0.0374  0.3661  0.3344
  164SAPE   H9X18411   5.084   5.520   4.862 -0.0769  0.3868 -0.6259
  164SAPE   H9Y18412   5.012   5.353   4.854  1.0606  0.5976  0.1838
  164SAPE  C31018413   4.917   5.510   4.996 -0.0547  0.0747  0.4104
  164SAPE  H10X18414   4.811   5.477   4.983  0.4431 -2.2133  1.6386
  164SAPE  H10Y18415   4.920   5.621   4.998 -1.3244  0.2036 -1.7512
  164SAPE  C31118416   4.960   5.450   5.125  0.1356  0.1309 -0.0150
  164SAPE  H11X18417   4.914   5.483   5.220  1.2306  0.3754  0.4473
  164SAPE  H11Y18418   5.066   5.475   5.150 -0.4797 -0.0569  3.2311
  164SAPE  C31218419   4.943   5.298   5.120  0.0295 -0.3712  0.2651
  164SAPE  H12X18420   5.012   5.256   5.044  0.2982 -0.8859  0.7856
  164SAPE  H12Y18421   4.836   5.277   5.099 -0.6186  1.5745  1.3754
  164SAPE  C31318422   4.979   5.228   5.255 -0.2638  0.3911 -0.0116
  164SAPE  H13X18423   4.929   5.282   5.338  0.4696 -0.6120  1.1127
  164SAPE  H13Y18424   5.086   5.254   5.257  0.0319 -0.5316 -1.6212
  164SAPE  C31418425   4.956   5.073   5.271 -0.1357 -0.9685  0.2590
  164SAPE  H14X18426   4.982   5.007   5.185 -0.4879 -0.4814 -0.2221
  164SAPE  H14Y18427   4.847   5.058   5.287 -0.2548  1.3748  2.0635
  164SAPE  C31518428   5.020   5.014   5.394  0.6022  0.3539  0.0255
  164SAPE  H15X18429   5.130   5.015   5.379  1.0118 -2.3292  2.0573
  164SAPE  H15Y18430   4.989   4.908   5.397  1.5568  0.0808  2.9164
  164SAPE  C31618431   5.017   5.081   5.529  0.4204 -0.2994 -0.4417
  164SAPE  H16X18432   4.911   5.108   5.548  0.4448  0.2488 -1.0479
  164SAPE  H16Y18433   5.067   5.179   5.544 -1.7193  0.7509  0.1067
  164SAPE  C31718434   5.046   4.984   5.643 -0.5646 -0.0857 -0.1940
  164SAPE  H17X18435   5.154   4.957   5.639 -1.0543 -2.1073 -1.0988
  164SAPE  H17Y18436   4.982   4.898   5.613 -0.7054 -1.0691  2.6247
  164SAPE  C31818437   5.007   5.043   5.773 -0.1028  0.1870  0.8280
  164SAPE  H18X18438   5.079   5.120   5.810  1.5496 -1.5218  1.3289
  164SAPE  H18Y18439   4.988   4.974   5.858 -0.7289  0.4424  0.9009
  164SAPE  H18Z18440   4.906   5.086   5.756  0.6599  0.9313 -2.4800
  165SAPE     N18441   3.686   5.411   3.552 -0.6101  0.3177  0.3969
  165SAPE   HN118442   3.657   5.451   3.460  0.2567  0.1041  0.0139
  165SAPE   HN218443   3.711   5.310   3.551  0.8310  0.6443  0.9720
  165SAPE   HN318444   3.599   5.428   3.605 -0.6313  3.2661 -0.4268
  165SAPE   C1218445   3.793   5.489   3.615  0.2518  0.2030  0.4590
  165SAPE  H12A18446   3.788   5.451   3.719 -0.4622 -0.5673  0.1483
  165SAPE  H12B18447   3.758   5.595   3.611  0.2322  0.2617  1.6403
  165SAPE   C1118448   3.933   5.468   3.556  0.2587 -1.0643  0.5641
  165SAPE  H11A18449   4.010   5.533   3.602 -0.7880  1.4005 -0.9280
  165SAPE  H11B18450   3.927   5.516   3.456  0.9815  2.1591  1.9475
  165SAPE     P18451   4.105   5.277   3.486 -0.3774  0.2693 -0.3379
  165SAPE   O1318452   4.065   5.237   3.345 -0.3103 -0.2797 -0.9816
  165SAPE   O1418453   4.213   5.372   3.503 -0.2074 -0.1599  0.3108
  165SAPE   O1218454   3.971   5.327   3.557 -0.3195 -0.1565 -0.0970
  165SAPE   O1118455   4.137   5.155   3.577 -0.4122  0.9136 -0.0335
  165SAPE    C118456   4.124   5.156   3.719 -0.4078 -0.1759 -0.7958
  165SAPE    HA18457   4.120   5.257   3.766 -1.2782 -0.7337  0.3847
  165SAPE    HB18458   4.030   5.104   3.748 -1.4521  1.7740 -0.5391
  165SAPE    C218459   4.236   5.065   3.788  0.1332 -0.4600  0.2481
  165SAPE    HS18460   4.337   5.103   3.763  0.4805 -2.2665 -1.3763
  165SAPE   O2118461   4.223   4.933   3.735 -0.0495  0.0575  0.3578
  165SAPE   C2118462   4.334   4.853   3.735 -0.0882 -0.4371 -0.2305
  165SAPE   O2218463   4.437   4.874   3.795  0.1481 -0.2197 -0.4794
  165SAPE   C2218464   4.307   4.721   3.652  0.0138  0.0907  0.8745
  165SAPE   H2R18465   4.197   4.710   3.645 -0.1843 -0.9874  3.9624
  165SAPE   H2S18466   4.368   4.732   3.560  0.3438 -0.7210  0.9853
  165SAPE    C318467   4.233   5.065   3.942 -0.3662  1.3609 -0.1369
  165SAPE    HX18468   4.311   4.994   3.975  0.0571  1.5130 -0.7854
  165SAPE    HY18469   4.135   5.023   3.975  0.1699  0.1044 -0.0768
  165SAPE   O3118470   4.241   5.195   3.995  0.2952 -0.1295  0.2364
  165SAPE   C3118471   4.365   5.242   4.008  0.2260  0.1868  0.0869
  165SAPE   O3218472   4.467   5.194   3.965 -0.0442 -0.1513  0.3941
  165SAPE   C3218473   4.372   5.379   4.082 -0.0356  0.0413 -0.1880
  165SAPE   H2X18474   4.283   5.445   4.084 -0.2936 -0.3143  1.5653
  165SAPE   H2Y18475   4.456   5.428   4.029  0.3120 -0.3498 -0.0013
  165SAPE   C2318476   4.363   4.594   3.719  0.3047  0.0816 -0.3566
  165SAPE   H3R18477   4.468   4.600   3.754  0.7373 -2.4860 -0.9938
  165SAPE   H3S18478   4.369   4.513   3.643  3.5951  0.8805 -1.1111
  165SAPE   C2418479   4.276   4.526   3.834  0.5621 -1.0048  0.0724
  165SAPE   H4R18480   4.177   4.498   3.792  0.3663 -0.4123  0.1307
  165SAPE   H4S18481   4.259   4.607   3.909 -1.1136 -1.7110  0.5009
  165SAPE   C2518482   4.337   4.400   3.891 -0.1122 -0.2424  1.1146
  165SAPE   H5R18483   4.322   4.316   3.822 -0.3946  2.5142 -2.5174
  165SAPE   C2618484   4.395   4.389   4.009 -0.6378 -0.7566 -0.0269
  165SAPE   H6R18485   4.438   4.293   4.042 -3.1336 -2.0429 -0.2739
  165SAPE   C2718486   4.407   4.510   4.097  0.1384 -0.3126  0.1887
  165SAPE   H7R18487   4.310   4.535   4.146  0.1894  2.7081 -0.9998
  165SAPE   H7S18488   4.430   4.602   4.038 -2.3874 -0.5166 -1.2665
  165SAPE   C2818489   4.513   4.485   4.195 -0.3203  0.4070 -0.5809
  165SAPE   H8R18490   4.580   4.399   4.178  0.9436  1.4244 -0.8582
  165SAPE   C2918491   4.528   4.571   4.301 -0.8571  1.3715 -0.7542
  165SAPE   H9R18492   4.612   4.550   4.369 -0.0412 -4.5790 -2.9474
  165SAPE  C21018493   4.450   4.691   4.324  0.5010 -0.0634 -0.1601
  165SAPE  H10R18494   4.430   4.687   4.434  1.2835  1.0800  0.0446
  165SAPE  H10S18495   4.347   4.676   4.284 -0.8596  2.5215  2.0034
  165SAPE  C21118496   4.513   4.818   4.272  0.3428  0.1444  0.9577
  165SAPE  H11R18497   4.478   4.847   4.172  0.4394 -1.7370  0.3302
  165SAPE  C21218498   4.596   4.897   4.335 -0.0644  0.0054 -0.1354
  165SAPE  H12R18499   4.626   4.989   4.283  1.1051 -0.0754  0.3672
  165SAPE  C21318500   4.661   4.884   4.473 -1.0791  0.0221  0.5207
  165SAPE  H13R18501   4.733   4.800   4.470  0.6548  1.4739 -1.2922
  165SAPE  H13S18502   4.595   4.862   4.559 -0.6275  1.9594  1.4209
  165SAPE  C21418503   4.737   5.014   4.500  0.6375 -0.7216  0.0381
  165SAPE  H14R18504   4.683   5.110   4.493  1.0914 -0.5262 -1.1238
  165SAPE  C21518505   4.871   5.027   4.524 -0.6888 -0.2820  0.1427
  165SAPE  H15R18506   4.916   5.126   4.539 -1.0570 -0.2093  0.8080
  165SAPE  C21618507   4.974   4.925   4.535 -0.4229  0.4534 -0.1724
  165SAPE  H16R18508   4.978   4.861   4.444  0.9544 -0.9086  0.7852
  165SAPE  H16S18509   4.939   4.849   4.608  1.7716  0.3906  0.8991
  165SAPE  C21718510   5.116   4.968   4.581 -0.2631  0.1771  0.5641
  165SAPE  H17R18511   5.177   4.877   4.595  0.8978  0.6041 -1.3393
  165SAPE  H17S18512   5.106   5.020   4.679  2.0342  1.8679 -0.0068
  165SAPE  C21818513   5.189   5.063   4.484 -0.6889 -0.0935 -0.0119
  165SAPE  H18R18514   5.275   5.104   4.542 -0.6111 -1.7530  1.1259
  165SAPE  H18S18515   5.125   5.147   4.450 -2.1961 -0.6228  1.3886
  165SAPE  C21918516   5.231   4.983   4.357 -1.0263 -0.2547 -0.2796
  165SAPE  H19R18517   5.145   4.934   4.307 -0.4557 -0.4430 -1.0925
  165SAPE  H19S18518   5.290   4.897   4.396 -0.2900  0.5171  0.3502
  165SAPE  C22018519   5.300   5.071   4.252 -0.0455  0.2499  0.2466
  165SAPE  H20R18520   5.326   5.008   4.165 -0.0370  0.5358  0.0428
  165SAPE  H20S18521   5.390   5.126   4.287  0.0867  1.1341 -1.3890
  165SAPE  H20T18522   5.228   5.149   4.216 -0.0580 -0.5687 -1.5963
  165SAPE   C3318523   4.398   5.330   4.227 -0.3282 -0.1217 -0.0139
  165SAPE   H3X18524   4.442   5.415   4.284 -1.0259  0.6519 -0.5928
  165SAPE   H3Y18525   4.483   5.259   4.227 -2.2689 -2.5893 -1.6564
  165SAPE   C3418526   4.282   5.285   4.310  0.7286  0.2482 -0.2553
  165SAPE   H4X18527   4.240   5.194   4.262 -0.7784  0.4579  0.5911
  165SAPE   H4Y18528   4.198   5.354   4.333 -0.2925 -1.4831  1.5479
  165SAPE   C3518529   4.332   5.247   4.454  0.3244  0.1363  0.4678
  165SAPE   H5X18530   4.355   5.337   4.514 -0.0300  1.7044 -1.6230
  165SAPE   H5Y18531   4.420   5.182   4.436  0.2375 -1.0253  3.5764
  165SAPE   C3618532   4.228   5.170   4.541  0.0102  0.7249  0.0942
  165SAPE   H6X18533   4.173   5.084   4.498 -1.8187  0.2652  3.0967
  165SAPE   H6Y18534   4.152   5.248   4.562 -1.4652 -0.7480  0.3930
  165SAPE   C3718535   4.292   5.130   4.679  0.1639 -0.2811 -0.0866
  165SAPE   H7X18536   4.360   5.211   4.712 -0.6150  0.7546 -0.9656
  165SAPE   H7Y18537   4.346   5.033   4.670  0.3606 -0.1155 -0.7172
  165SAPE   C3818538   4.181   5.127   4.784  0.0639 -0.2238  0.0417
  165SAPE   H8X18539   4.095   5.068   4.747 -3.4192  4.7556 -0.8338
  165SAPE   H8Y18540   4.129   5.225   4.784 -0.7389 -0.6438  0.9959
  165SAPE   C3918541   4.225   5.083   4.923 -0.5940 -0.6383 -0.2823
  165SAPE   H9X18542   4.307   5.007   4.919 -1.7714 -1.8750 -1.9014
  165SAPE   H9Y18543   4.137   5.033   4.970 -0.7598 -1.4189 -1.3995
  165SAPE  C31018544   4.269   5.204   5.000 -0.9675 -0.6718  0.5733
  165SAPE  H10X18545   4.185   5.276   5.006  1.2361  2.4743 -2.3661
  165SAPE  H10Y18546   4.344   5.258   4.939 -1.2936 -0.4680  0.3497
  165SAPE  C31118547   4.318   5.167   5.145  0.3121 -0.6067 -0.1466
  165SAPE  H11X18548   4.422   5.129   5.142  2.0074  3.1338  2.7907
  165SAPE  H11Y18549   4.245   5.099   5.195 -0.1203  1.0873  1.6214
  165SAPE  C31218550   4.324   5.292   5.241  1.0631 -0.2777  0.2042
  165SAPE  H12X18551   4.224   5.314   5.285  0.1638 -4.0734  0.3669
  165SAPE  H12Y18552   4.349   5.382   5.180 -2.5156 -0.1861 -1.3782
  165SAPE  C31318553   4.418   5.255   5.353  0.2604 -0.1642 -0.5076
  165SAPE  H13X18554   4.515   5.297   5.319 -0.3134  1.5324 -0.1620
  165SAPE  H13Y18555   4.436   5.148   5.375  1.1429  0.0896  0.0461
  165SAPE  C31418556   4.382   5.336   5.477 -0.1701 -0.1587  0.1471
  165SAPE  H14X18557   4.278   5.311   5.507 -0.1247  0.2350  0.6400
  165SAPE  H14Y18558   4.387   5.442   5.442  1.0643 -0.2052  0.1728
  165SAPE  C31518559   4.475   5.310   5.595  0.3709  0.8281 -0.5483
  165SAPE  H15X18560   4.490   5.200   5.598 -2.6154  0.3411  0.4848
  165SAPE  H15Y18561   4.435   5.339   5.695  0.5044  1.8819 -0.7900
  165SAPE  C31618562   4.610   5.382   5.602  0.8008  0.8592  0.3190
  165SAPE  H16X18563   4.596   5.487   5.638 -1.2467  0.5162  0.6445
  165SAPE  H16Y18564   4.663   5.391   5.505  1.7758 -0.0363  0.7573
  165SAPE  C31718565   4.709   5.303   5.692 -1.0714 -0.2768 -0.7247
  165SAPE  H17X18566   4.744   5.218   5.630  0.9348 -0.1294  0.1196
  165SAPE  H17Y18567   4.664   5.260   5.784 -1.9989  1.6710 -0.2095
  165SAPE  C31818568   4.824   5.393   5.732 -0.7289 -0.5016  0.2065
  165SAPE  H18X18569   4.876   5.431   5.641  0.6104  1.8810  1.8647
  165SAPE  H18Y18570   4.912   5.346   5.780  0.5065  0.6958 -0.7990
  165SAPE  H18Z18571   4.789   5.484   5.786 -1.3048 -0.5408 -0.0981
  166SAPE     N18572   0.211   1.332   3.751 -0.1148 -0.4700  0.0480
  166SAPE   HN118573   0.297   1.338   3.810 -0.2576  3.3988  0.1520
  166SAPE   HN218574   0.174   1.429   3.748  0.1654 -0.2677 -4.8161
  166SAPE   HN318575   0.144   1.278   3.809  1.6777 -0.6532  2.1030
  166SAPE   C1218576   0.220   1.283   3.606  0.7216 -0.1145  0.1155
  166SAPE  H12A18577   0.154   1.342   3.540 -0.3923 -0.4387  0.9115
  166SAPE  H12B18578   0.189   1.176   3.610  0.7926 -0.0968  1.6705
  166SAPE   C1118579   0.363   1.293   3.547 -0.4370  0.4612  0.4731
  166SAPE  H11A18580   0.382   1.401   3.562  2.1396 -0.0672  1.4813
  166SAPE  H11B18581   0.356   1.259   3.441 -1.7764  2.6646 -0.2024
  166SAPE     P18582   0.563   1.268   3.723  0.2901 -0.0097 -0.0181
  166SAPE   O1318583   0.693   1.285   3.652  0.8051 -0.1716  0.1186
  166SAPE   O1418584   0.501   1.374   3.809  0.5310 -0.2315  0.5407
  166SAPE   O1218585   0.454   1.213   3.620  0.0566 -0.2005  0.5077
  166SAPE   O1118586   0.575   1.145   3.819  0.0700 -0.4509 -0.0797
  166SAPE    C118587   0.463   1.049   3.828 -0.5946  0.0456 -0.2186
  166SAPE    HA18588   0.364   1.093   3.802  0.0457  1.7493  0.0901
  166SAPE    HB18589   0.473   0.964   3.758  1.0199 -1.1405  1.3634
  166SAPE    C218590   0.454   0.979   3.967 -0.3488 -0.3561  0.2073
  166SAPE    HS18591   0.349   0.942   3.980  0.1813 -2.4180 -0.8725
  166SAPE   O2118592   0.483   1.074   4.073  0.3319  0.6528  0.0406
  166SAPE   C2118593   0.384   1.164   4.080  0.0975  0.2237 -0.3400
  166SAPE   O2218594   0.270   1.150   4.038  0.7783  0.1822  0.7340
  166SAPE   C2218595   0.435   1.294   4.142 -0.0920  0.4606 -0.1613
  166SAPE   H2R18596   0.545   1.285   4.149 -0.2090  0.1730  2.3023
  166SAPE   H2S18597   0.413   1.382   4.079  2.8756 -0.4858 -2.7818
  166SAPE    C318598   0.545   0.855   3.971 -0.0452 -0.5480  0.3021
  166SAPE    HX18599   0.642   0.899   3.938 -1.4810  0.8785 -2.3111
  166SAPE    HY18600   0.507   0.788   3.890 -1.7861  0.8450 -0.0773
  166SAPE   O3118601   0.551   0.789   4.100 -0.6536  0.0461 -0.2668
  166SAPE   C3118602   0.437   0.723   4.134 -0.6693  0.2635 -0.1313
  166SAPE   O3218603   0.347   0.678   4.061  0.7348  0.1718  0.0656
  166SAPE   C3218604   0.464   0.680   4.283  0.5404  0.3917  0.3754
  166SAPE   H2X18605   0.535   0.753   4.329  2.7912  0.0832 -2.3180
  166SAPE   H2Y18606   0.506   0.578   4.294 -1.7313 -0.3965  2.4169
  166SAPE   C2318607   0.372   1.307   4.287 -0.4753 -0.3026  0.2384
  166SAPE   H3R18608   0.422   1.396   4.332 -0.3652  1.9484 -3.8489
  166SAPE   H3S18609   0.403   1.211   4.334 -1.2754 -0.5167  0.3412
  166SAPE   C2418610   0.223   1.329   4.272  0.2343 -0.1403  0.3074
  166SAPE   H4R18611   0.177   1.229   4.254 -0.8249  0.4651 -0.5306
  166SAPE   H4S18612   0.206   1.387   4.179  0.2499 -3.5185 -1.9717
  166SAPE   C2518613   0.153   1.393   4.389  0.0719  0.2778  0.6384
  166SAPE   H5R18614   0.075   1.464   4.357 -1.1671 -1.2958 -0.0221
  166SAPE   C2618615   0.161   1.369   4.518  0.0179  0.5394  0.4854
  166SAPE   H6R18616   0.100   1.436   4.580  1.4270  2.9272 -0.5598
  166SAPE   C2718617   0.248   1.270   4.592  0.0930  0.1372 -0.5996
  166SAPE   H7R18618   0.312   1.325   4.665 -0.0453 -1.1877  0.5600
  166SAPE   H7S18619   0.308   1.206   4.524  1.9133  1.4209 -0.2997
  166SAPE   C2818620   0.173   1.174   4.675  0.1480 -0.0979  1.0329
  166SAPE   H8R18621   0.179   1.068   4.644  2.4261 -0.3222  2.0076
  166SAPE   C2918622   0.096   1.200   4.778  0.1534  0.1522  0.2255
  166SAPE   H9R18623   0.044   1.112   4.819 -0.7306  0.1841 -0.7974
  166SAPE  C21018624   0.068   1.334   4.847  0.2853 -0.6020 -0.2773
  166SAPE  H10R18625   0.124   1.423   4.812 -1.0208  0.3606 -0.0119
  166SAPE  H10S18626   0.111   1.322   4.948 -0.6556 -2.6586 -0.0632
  166SAPE  C21118627  -0.074   1.369   4.870  0.4300 -0.9243 -0.7319
  166SAPE  H11R18628  -0.132   1.400   4.782 -0.7764  1.3714  0.7397
  166SAPE  C21218629  -0.145   1.371   4.988 -0.3179 -0.1669  0.1825
  166SAPE  H12R18630  -0.250   1.403   4.984 -0.1588  0.2789 -3.4562
  166SAPE  C21318631  -0.085   1.350   5.130  0.0442 -0.0163 -0.4859
  166SAPE  H13R18632   0.026   1.358   5.129 -0.0071  1.0303  0.3201
  166SAPE  H13S18633  -0.107   1.245   5.156  0.7228 -0.1895 -0.6017
  166SAPE  C21418634  -0.160   1.441   5.222  0.1296  1.5878 -0.5042
  166SAPE  H14R18635  -0.122   1.537   5.258 -0.1476  1.5295 -0.0480
  166SAPE  C21518636  -0.283   1.408   5.273 -0.3440 -0.5570 -0.0470
  166SAPE  H15R18637  -0.333   1.480   5.340 -0.3656  0.1133 -0.7636
  166SAPE  C21618638  -0.364   1.286   5.251  0.2665 -0.1843 -0.8380
  166SAPE  H16R18639  -0.366   1.223   5.343 -2.5134  2.2057  0.9195
  166SAPE  H16S18640  -0.318   1.217   5.177  0.2773  0.6149 -1.5923
  166SAPE  C21718641  -0.520   1.306   5.220  0.1904 -0.3722 -0.2771
  166SAPE  H17R18642  -0.538   1.382   5.141 -1.8617 -2.4870 -1.9875
  166SAPE  H17S18643  -0.574   1.339   5.311 -2.7784 -2.7364 -1.0021
  166SAPE  C21818644  -0.590   1.178   5.175  0.0709 -0.2494  0.0529
  166SAPE  H18R18645  -0.562   1.098   5.247  1.7717  0.1782 -0.0965
  166SAPE  H18S18646  -0.543   1.144   5.081  1.9272 -1.2159  1.2673
  166SAPE  C21918647  -0.735   1.178   5.143  0.0284  0.1372 -0.2534
  166SAPE  H19R18648  -0.781   1.239   5.224  0.4295  0.4175 -0.2305
  166SAPE  H19S18649  -0.776   1.076   5.160  3.0680 -1.1081  0.2823
  166SAPE  C22018650  -0.767   1.239   5.009  0.1911  0.5025  0.6369
  166SAPE  H20R18651  -0.708   1.189   4.930 -0.7737  2.3487 -1.3529
  166SAPE  H20S18652  -0.743   1.347   5.006  0.2409  0.5075  1.1188
  166SAPE  H20T18653  -0.875   1.242   4.981  0.6637  0.8475 -1.2666
  166SAPE   C3318654   0.341   0.695   4.377  0.3489 -0.4342  0.6429
  166SAPE   H3X18655   0.264   0.620   4.352 -0.2474  0.1533  0.6969
  166SAPE   H3Y18656   0.299   0.795   4.352  0.4431 -0.7607 -0.9468
  166SAPE   C3418657   0.386   0.701   4.524  0.4006  0.1602 -0.0552
  166SAPE   H4X18658   0.450   0.789   4.547  1.2052 -0.4924  0.2129
  166SAPE   H4Y18659   0.449   0.614   4.550  0.9788  0.2509 -1.1435
  166SAPE   C3518660   0.268   0.702   4.625  0.5137  0.3489  0.2784
  166SAPE   H5X18661   0.222   0.601   4.633 -1.1342  1.0163 -0.3960
  166SAPE   H5Y18662   0.193   0.772   4.583  0.9403  0.6129 -0.0526
  166SAPE   C3618663   0.308   0.733   4.774 -0.0398 -0.1036 -0.2793
  166SAPE   H6X18664   0.363   0.829   4.779  0.2483 -0.3371  2.0586
  166SAPE   H6Y18665   0.381   0.654   4.800 -0.7226 -1.2202 -1.5846
  166SAPE   C3718666   0.196   0.727   4.879  0.1190 -0.8103 -0.7663
  166SAPE   H7X18667   0.153   0.625   4.867  0.0616 -0.6800 -1.8034
  166SAPE   H7Y18668   0.122   0.805   4.851  2.0728  1.5417  0.3291
  166SAPE   C3818669   0.235   0.752   5.026  0.1127  0.2261  0.7293
  166SAPE   H8X18670   0.142   0.760   5.087  0.2668  2.1463  0.7775
  166SAPE   H8Y18671   0.302   0.841   5.026  1.0612 -0.4752  0.5543
  166SAPE   C3918672   0.311   0.636   5.093  0.2954  0.3698  0.5458
  166SAPE   H9X18673   0.379   0.575   5.030 -2.9568 -2.9646 -0.0781
  166SAPE   H9Y18674   0.239   0.557   5.122  0.5945 -0.4147 -0.7773
  166SAPE  C31018675   0.384   0.677   5.224 -0.0929  0.4797  0.6947
  166SAPE  H10X18676   0.450   0.764   5.202 -3.3713  2.5137 -2.1116
  166SAPE  H10Y18677   0.438   0.583   5.248  0.7143  0.8361  0.3006
  166SAPE  C31118678   0.299   0.711   5.343 -0.0274  0.4561  0.5410
  166SAPE  H11X18679   0.223   0.631   5.351  1.5279 -1.3735 -1.5954
  166SAPE  H11Y18680   0.245   0.805   5.322 -0.7532 -0.0345  0.1989
  166SAPE  C31218681   0.371   0.729   5.470  0.4137 -0.5316 -0.2953
  166SAPE  H12X18682   0.444   0.811   5.453  1.7297 -1.2334  1.5989
  166SAPE  H12Y18683   0.437   0.647   5.506  2.1185  1.8280  2.4256
  166SAPE  C31318684   0.280   0.780   5.583  0.4460 -0.2007  0.6649
  166SAPE  H13X18685   0.201   0.702   5.588  0.7361 -0.7584 -1.7615
  166SAPE  H13Y18686   0.234   0.875   5.546  2.4604 -0.1702 -2.0389
  166SAPE  C31418687   0.336   0.803   5.715 -0.4750  0.1070 -0.0855
  166SAPE  H14X18688   0.375   0.709   5.761 -0.9886 -0.0627  0.0070
  166SAPE  H14Y18689   0.254   0.822   5.787 -0.5323 -3.1401  0.8637
  166SAPE  C31518690   0.451   0.907   5.714 -0.5541 -0.5997  0.1058
  166SAPE  H15X18691   0.419   1.012   5.697 -0.2645 -0.3418  1.0901
  166SAPE  H15Y18692   0.526   0.872   5.639  1.1509  1.1159  0.9057
  166SAPE  C31618693   0.537   0.893   5.838 -0.1089  0.6205  0.4122
  166SAPE  H16X18694   0.546   0.788   5.874  2.3907 -0.1626 -2.0844
  166SAPE  H16Y18695   0.486   0.945   5.921 -6.0565  1.5856 -3.2678
  166SAPE  C31718696   0.686   0.938   5.804  0.4955  0.3328  0.2618
  166SAPE  H17X18697   0.673   1.047   5.786  0.8505  0.3931  0.3700
  166SAPE  H17Y18698   0.721   0.876   5.719  2.3579  1.1609  0.3645
  166SAPE  C31818699   0.782   0.915   5.921  0.0735 -0.2042 -0.3495
  166SAPE  H18X18700   0.710   0.919   6.005 -0.6627 -1.6870 -0.8807
  166SAPE  H18Y18701   0.863   0.991   5.919  0.8787 -1.0403 -2.1320
  166SAPE  H18Z18702   0.823   0.812   5.911 -0.4637 -0.5626  0.9642
  167SAPE     N18703   4.800   4.681   3.057  0.4553  0.3316 -1.0614
  167SAPE   HN118704   4.804   4.687   2.953 -2.3242 -0.1071 -1.2568
  167SAPE   HN218705   4.885   4.632   3.091  0.5229  1.0171 -0.2048
  167SAPE   HN318706   4.727   4.616   3.091  0.6080  0.1429 -1.0922
  167SAPE   C1218707   4.788   4.819   3.114  0.4348  0.0632 -0.0005
  167SAPE  H12A18708   4.697   4.862   3.067  1.1992 -0.6923 -2.3356
  167SAPE  H12B18709   4.881   4.874   3.087  0.1724  1.0521  1.0383
  167SAPE   C1118710   4.793   4.819   3.261 -1.0248 -0.2936 -0.1840
  167SAPE  H11A18711   4.700   4.779   3.308 -1.1374 -0.7441 -0.7813
  167SAPE  H11B18712   4.796   4.919   3.310  0.1906  0.6446 -2.0693
  167SAPE     P18713   4.903   4.609   3.377 -0.3335  0.0058  0.1391
  167SAPE   O1318714   4.797   4.526   3.311  0.8718 -0.1613  0.0976
  167SAPE   O1418715   5.033   4.547   3.405 -0.9527  0.4263  0.0494
  167SAPE   O1218716   4.918   4.752   3.303  0.1179 -0.0100 -0.5266
  167SAPE   O1118717   4.833   4.657   3.511 -0.1148  0.1223 -0.4406
  167SAPE    C118718   4.887   4.763   3.592  0.0687  0.5282  0.0158
  167SAPE    HA18719   4.978   4.806   3.546  0.9774 -0.7758  0.5320
  167SAPE    HB18720   4.814   4.846   3.591 -2.9404 -1.8946  0.8011
  167SAPE    C218721   4.917   4.705   3.736  1.1723 -0.4344 -0.2238
  167SAPE    HS18722   4.959   4.792   3.791  0.8234 -2.2223  3.1416
  167SAPE   O2118723   5.004   4.598   3.734 -1.2000  0.2379  0.3154
  167SAPE   C2118724   5.132   4.625   3.700  0.1684 -0.6514 -0.2180
  167SAPE   O2218725   5.180   4.736   3.671  0.0327  0.2507 -0.2186
  167SAPE   C2218726   5.197   4.489   3.674  0.5983  0.2884 -0.3594
  167SAPE   H2R18727   5.121   4.417   3.637  1.9442 -0.4590 -1.7656
  167SAPE   H2S18728   5.276   4.492   3.595 -1.1044 -1.8233 -2.2815
  167SAPE    C318729   4.778   4.667   3.805 -0.5983 -0.2058  0.0545
  167SAPE    HX18730   4.726   4.604   3.730 -0.3217  0.6631 -0.8850
  167SAPE    HY18731   4.715   4.756   3.822 -0.9833 -0.0550 -1.9954
  167SAPE   O3118732   4.800   4.602   3.934  0.2842  0.9261  0.0416
  167SAPE   C3118733   4.831   4.694   4.032 -1.0069  0.9726 -0.1512
  167SAPE   O3218734   4.846   4.812   4.012  0.5204  0.4025 -0.7767
  167SAPE   C3218735   4.851   4.630   4.164  0.1573  0.2260  0.7022
  167SAPE   H2X18736   4.826   4.522   4.154  0.3155  0.3884 -4.9965
  167SAPE   H2Y18737   4.790   4.668   4.248  0.0501 -0.7760  1.0888
  167SAPE   C2318738   5.270   4.438   3.802  0.0007  0.6047  0.4184
  167SAPE   H3R18739   5.307   4.335   3.784 -1.1656  0.0729  0.9274
  167SAPE   H3S18740   5.182   4.422   3.868  0.9674 -0.9727  1.3886
  167SAPE   C2418741   5.375   4.533   3.856 -0.0667  0.0174 -0.2370
  167SAPE   H4R18742   5.410   4.510   3.959  1.2470 -0.2910 -0.7274
  167SAPE   H4S18743   5.329   4.633   3.865  1.4650  1.2701 -4.2380
  167SAPE   C2518744   5.500   4.533   3.769  1.1607 -0.4381  0.7589
  167SAPE   H5R18745   5.482   4.552   3.662 -0.4492  1.4706  1.3081
  167SAPE   C2618746   5.618   4.501   3.806 -0.3911 -0.2773 -0.0512
  167SAPE   H6R18747   5.701   4.513   3.735 -0.4212 -0.8130 -0.1794
  167SAPE   C2718748   5.652   4.449   3.939 -0.3033  0.5617  0.2739
  167SAPE   H7R18749   5.608   4.348   3.952 -1.3723  0.8599 -0.8582
  167SAPE   H7S18750   5.598   4.507   4.017 -0.0409  0.1143  0.7946
  167SAPE   C2818751   5.797   4.441   3.979 -0.6328 -0.0458  1.2832
  167SAPE   H8R18752   5.867   4.469   3.899  0.4506 -0.8422  1.9414
  167SAPE   C2918753   5.845   4.411   4.098  0.4128  0.1639 -0.1308
  167SAPE   H9R18754   5.953   4.396   4.106  0.3148 -1.1859 -0.9486
  167SAPE  C21018755   5.772   4.355   4.215 -0.3280  0.6955  0.4157
  167SAPE  H10R18756   5.669   4.395   4.218 -0.3716  0.5680  2.7597
  167SAPE  H10S18757   5.823   4.395   4.306  2.7419  2.3906 -1.8631
  167SAPE  C21118758   5.762   4.203   4.218  0.8749  0.3206  0.5507
  167SAPE  H11R18759   5.750   4.153   4.121 -1.2652  1.0987  0.3552
  167SAPE  C21218760   5.788   4.123   4.321  0.1202 -0.3865 -0.1747
  167SAPE  H12R18761   5.766   4.017   4.301  0.9616 -0.4546 -0.7754
  167SAPE  C21318762   5.810   4.157   4.465 -0.2654  0.4213 -0.8004
  167SAPE  H13R18763   5.717   4.196   4.511  0.4551  0.6049  0.5474
  167SAPE  H13S18764   5.889   4.235   4.471 -0.4801  0.5175  3.4496
  167SAPE  C21418765   5.877   4.031   4.527 -0.4178 -0.1687  0.0957
  167SAPE  H14R18766   5.957   3.988   4.465 -0.7475 -0.8407  0.1202
  167SAPE  C21518767   5.846   3.968   4.644 -0.5651  0.3685 -0.2820
  167SAPE  H15R18768   5.912   3.886   4.677 -0.9971  0.1443  0.0315
  167SAPE  C21618769   5.728   4.005   4.734 -0.7902 -0.2066  0.3454
  167SAPE  H16R18770   5.663   4.084   4.691 -1.3334 -0.9407 -0.2064
  167SAPE  H16S18771   5.772   4.049   4.827  0.1101  1.5968 -0.8676
  167SAPE  C21718772   5.647   3.876   4.758 -0.0736  0.2501  0.6983
  167SAPE  H17R18773   5.709   3.787   4.784 -0.9834 -0.4118  0.6538
  167SAPE  H17S18774   5.603   3.843   4.662 -0.5729  1.6296  0.4230
  167SAPE  C21818775   5.544   3.899   4.866 -0.7346  0.2508  0.2123
  167SAPE  H18R18776   5.453   3.955   4.837 -2.5677 -1.6733  1.9580
  167SAPE  H18S18777   5.604   3.963   4.935 -0.2232 -0.9782  0.9309
  167SAPE  C21918778   5.489   3.777   4.935  0.5250  0.1020 -0.6790
  167SAPE  H19R18779   5.438   3.703   4.870  0.0234 -0.5472  0.4163
  167SAPE  H19S18780   5.412   3.812   5.007 -0.0172  0.1162 -1.2561
  167SAPE  C22018781   5.600   3.708   5.028 -0.7906  0.6136  0.4271
  167SAPE  H20R18782   5.552   3.643   5.104 -0.9946  0.0041 -0.2182
  167SAPE  H20S18783   5.638   3.793   5.089 -1.6736  0.8190  0.7023
  167SAPE  H20T18784   5.670   3.654   4.961 -1.3669 -2.6204  2.2653
  167SAPE   C3318785   4.997   4.659   4.213 -0.0770  0.8913  0.5595
  167SAPE   H3X18786   5.009   4.643   4.322  0.2878  0.4445  0.4567
  167SAPE   H3Y18787   5.037   4.762   4.198  1.3962  0.7074  2.7591
  167SAPE   C3418788   5.090   4.553   4.143  0.4387 -0.1740  0.3857
  167SAPE   H4X18789   5.083   4.537   4.033 -1.3617  0.6405  0.3450
  167SAPE   H4Y18790   5.052   4.457   4.183  1.5377  0.2041  2.5031
  167SAPE   C3518791   5.238   4.568   4.191 -0.0972  0.0508  0.7667
  167SAPE   H5X18792   5.286   4.664   4.162  0.1324 -0.1980  0.3097
  167SAPE   H5Y18793   5.283   4.489   4.126  0.5135 -0.4795  1.8193
  167SAPE   C3618794   5.260   4.528   4.335 -0.0594  0.4407  0.5129
  167SAPE   H6X18795   5.196   4.440   4.359  1.9113 -0.5922  2.3820
  167SAPE   H6Y18796   5.232   4.612   4.401 -3.2566  1.2053 -1.5948
  167SAPE   C3718797   5.409   4.490   4.362 -0.2168  0.9285  0.3037
  167SAPE   H7X18798   5.477   4.579   4.368  1.3874 -0.1521 -1.0380
  167SAPE   H7Y18799   5.442   4.437   4.271 -2.3860 -0.4881  0.2620
  167SAPE   C3818800   5.436   4.391   4.480  0.3062 -0.5709  0.5085
  167SAPE   H8X18801   5.531   4.340   4.455  0.7426  0.1229  0.7024
  167SAPE   H8Y18802   5.349   4.322   4.490 -1.3195  0.6104 -3.5548
  167SAPE   C3918803   5.443   4.455   4.614 -0.5089  0.5309  0.2192
  167SAPE   H9X18804   5.345   4.504   4.630 -0.8882 -0.6387  1.7660
  167SAPE   H9Y18805   5.528   4.525   4.605  1.9574 -2.2191  0.5663
  167SAPE  C31018806   5.478   4.366   4.737 -0.3992  0.0516  0.1813
  167SAPE  H10X18807   5.566   4.311   4.699 -1.4271 -0.8985 -0.9204
  167SAPE  H10Y18808   5.398   4.290   4.749  0.6476 -1.0131  0.5511
  167SAPE  C31118809   5.501   4.444   4.863 -0.1786  0.2700 -0.4904
  167SAPE  H11X18810   5.598   4.497   4.857 -0.6638  1.0901 -1.4357
  167SAPE  H11Y18811   5.497   4.372   4.948 -5.2578 -2.2213 -2.4165
  167SAPE  C31218812   5.397   4.555   4.888  0.0187  0.0776  0.7629
  167SAPE  H12X18813   5.300   4.501   4.891 -0.1280  0.2856  0.0073
  167SAPE  H12Y18814   5.388   4.617   4.797  1.1897  2.1673  1.9897
  167SAPE  C31318815   5.396   4.630   5.025 -0.3882  0.1966 -0.3581
  167SAPE  H13X18816   5.376   4.552   5.102 -1.8573  0.3685 -0.5353
  167SAPE  H13Y18817   5.315   4.704   5.041 -0.2500  0.2137  0.2791
  167SAPE  C31418818   5.534   4.695   5.053 -0.5584 -0.0656  0.0504
  167SAPE  H14X18819   5.558   4.765   4.970 -1.5736 -2.4775 -2.4424
  167SAPE  H14Y18820   5.608   4.611   5.054 -2.2289 -1.6049  0.0653
  167SAPE  C31518821   5.533   4.774   5.183 -0.0657  0.3113 -0.4880
  167SAPE  H15X18822   5.512   4.692   5.255  1.8213 -0.3277 -0.6094
  167SAPE  H15Y18823   5.444   4.840   5.196  0.2100  0.4560  0.7914
  167SAPE  C31618824   5.667   4.842   5.216  0.6149  0.0011  0.2413
  167SAPE  H16X18825   5.667   4.947   5.180  1.3704  0.0565  0.3870
  167SAPE  H16Y18826   5.741   4.777   5.166 -0.2199 -0.4178 -0.4677
  167SAPE  C31718827   5.697   4.853   5.369 -0.5674 -0.3176 -0.0621
  167SAPE  H17X18828   5.614   4.908   5.418 -0.2404  2.9776 -2.8949
  167SAPE  H17Y18829   5.787   4.919   5.367 -0.5880 -0.3078 -0.5541
  167SAPE  C31818830   5.739   4.718   5.433  0.3844 -0.8181  0.1867
  167SAPE  H18X18831   5.665   4.640   5.407  0.2515 -1.0650  1.2736
  167SAPE  H18Y18832   5.759   4.727   5.542  0.6721  0.8537  0.0160
  167SAPE  H18Z18833   5.833   4.689   5.381  1.2199  0.9071  0.6538
  168SAPE     N18834   1.811   3.020   3.879  0.0572 -0.0079 -0.4836
  168SAPE   HN118835   1.809   2.917   3.862 -2.4392 -0.1081  0.1067
  168SAPE   HN218836   1.712   3.047   3.896  0.3202  0.5649  0.1938
  168SAPE   HN318837   1.857   3.069   3.800  1.0842  0.6452  0.4890
  168SAPE   C1218838   1.878   3.058   4.008 -0.4500  0.3095 -0.3406
  168SAPE  H12A18839   1.835   2.997   4.091 -1.8636  2.9536  1.0266
  168SAPE  H12B18840   1.854   3.163   4.034  1.3913  0.7635 -0.3856
  168SAPE   C1118841   2.030   3.019   4.002  0.8094  0.0134 -0.0944
  168SAPE  H11A18842   2.033   2.909   3.982 -0.7367 -0.0986  0.2179
  168SAPE  H11B18843   2.059   3.035   4.108 -0.2242  2.4996 -0.1319
  168SAPE     P18844   2.228   3.039   3.829 -0.3988 -0.6073  0.1535
  168SAPE   O1318845   2.204   2.906   3.766  0.0480 -0.0856 -0.3990
  168SAPE   O1418846   2.283   3.140   3.733  0.0293 -0.1864  0.1370
  168SAPE   O1218847   2.109   3.085   3.911  0.2400 -0.3623 -0.2244
  168SAPE   O1118848   2.340   3.028   3.934  0.1831 -0.5496  0.0418
  168SAPE    C118849   2.358   3.121   4.045  0.8934  0.1414 -0.3704
  168SAPE    HA18850   2.435   3.195   4.014 -0.1955  1.1912 -0.6784
  168SAPE    HB18851   2.265   3.180   4.060 -0.5266 -1.6908 -1.5459
  168SAPE    C218852   2.405   3.046   4.174 -0.5498 -0.0719  0.4586
  168SAPE    HS18853   2.513   3.025   4.156 -0.8285 -0.3763 -1.0097
  168SAPE   O2118854   2.322   2.928   4.201  0.1582  0.0997  0.2959
  168SAPE   C2118855   2.388   2.823   4.242  0.0593  0.5613  0.0654
  168SAPE   O2218856   2.508   2.811   4.255  0.1661  0.0966  0.0953
  168SAPE   C2218857   2.291   2.710   4.269 -0.0688  0.1837 -0.8989
  168SAPE   H2R18858   2.190   2.731   4.227 -0.5237  0.2668  0.2130
  168SAPE   H2S18859   2.321   2.621   4.209  0.3590 -0.9658  0.9346
  168SAPE    C318860   2.396   3.139   4.300 -0.5099 -0.0465  0.8909
  168SAPE    HX18861   2.289   3.154   4.327 -0.8835 -0.4315 -0.3103
  168SAPE    HY18862   2.428   3.244   4.279  1.2424 -0.6930  0.1525
  168SAPE   O3118863   2.464   3.077   4.415 -0.0272 -0.7408 -0.1139
  168SAPE   C3118864   2.600   3.084   4.404  0.9303  0.7404 -1.4076
  168SAPE   O3218865   2.665   3.139   4.321  0.6381  0.0829 -0.0450
  168SAPE   C3218866   2.655   3.007   4.525 -0.2446 -0.2262  0.2510
  168SAPE   H2X18867   2.763   3.006   4.500 -0.1628  1.3993  0.4554
  168SAPE   H2Y18868   2.609   2.905   4.522  1.1540 -0.9166  1.0517
  168SAPE   C2318869   2.300   2.671   4.417  0.0095  0.4619  0.2153
  168SAPE   H3R18870   2.397   2.621   4.438 -1.3192 -2.2380  0.3311
  168SAPE   H3S18871   2.231   2.586   4.432 -1.1914  1.4443  0.4661
  168SAPE   C2418872   2.272   2.792   4.509 -0.0416 -0.3526  0.1569
  168SAPE   H4R18873   2.340   2.873   4.476 -0.2569 -0.5714 -0.8722
  168SAPE   H4S18874   2.309   2.776   4.612 -0.7964 -0.4824  0.4132
  168SAPE   C2518875   2.132   2.839   4.511 -0.3767 -0.1814  0.3263
  168SAPE   H5R18876   2.099   2.921   4.446 -2.2837  1.3040  2.9649
  168SAPE   C2618877   2.039   2.793   4.599  0.7317  0.3343 -0.5570
  168SAPE   H6R18878   1.938   2.836   4.590 -0.0674 -1.2521  0.3340
  168SAPE   C2718879   2.064   2.681   4.703  0.7236  0.6081 -0.2378
  168SAPE   H7R18880   2.163   2.682   4.753  1.1653  2.2388 -1.0467
  168SAPE   H7S18881   2.047   2.589   4.643  2.4518  0.4019 -0.4554
  168SAPE   C2818882   1.955   2.685   4.808 -0.0502 -0.0554 -0.8716
  168SAPE   H8R18883   1.850   2.690   4.776  0.4072  0.1504 -2.4094
  168SAPE   C2918884   1.974   2.677   4.942 -0.2332  0.2804  0.1997
  168SAPE   H9R18885   1.887   2.695   5.007 -1.4008 -0.8008 -0.9995
  168SAPE  C21018886   2.107   2.657   5.015 -0.2059  0.0130 -0.1921
  168SAPE  H10R18887   2.186   2.605   4.957 -1.2510 -2.4818  0.4624
  168SAPE  H10S18888   2.086   2.581   5.093 -0.9051 -1.5998 -1.8721
  168SAPE  C21118889   2.169   2.786   5.070 -0.6262  0.7189 -0.1322
  168SAPE  H11R18890   2.229   2.838   4.994  1.9106 -1.9868 -0.1659
  168SAPE  C21218891   2.185   2.812   5.204  0.2802 -1.0944  0.2395
  168SAPE  H12R18892   2.223   2.913   5.227 -1.6878 -0.2971  0.2169
  168SAPE  C21318893   2.133   2.733   5.325  0.0724  0.6263 -0.5366
  168SAPE  H13R18894   2.149   2.624   5.310 -1.1539  0.2906  0.4160
  168SAPE  H13S18895   2.027   2.750   5.352 -0.0724 -2.1189  0.9327
  168SAPE  C21418896   2.211   2.775   5.451  0.6205 -0.1114 -0.4586
  168SAPE  H14R18897   2.245   2.879   5.458 -1.1176  0.4191  0.7724
  168SAPE  C21518898   2.248   2.682   5.544  0.2977 -0.7470 -0.6191
  168SAPE  H15R18899   2.304   2.713   5.634  1.5702 -0.8304 -1.3655
  168SAPE  C21618900   2.227   2.526   5.545  0.3750 -0.4710  0.0561
  168SAPE  H16R18901   2.295   2.472   5.614 -1.3373 -1.1297  1.3121
  168SAPE  H16S18902   2.235   2.475   5.446 -0.1705 -0.6823  0.1131
  168SAPE  C21718903   2.078   2.495   5.599  0.4514 -0.7295 -0.1291
  168SAPE  H17R18904   2.043   2.394   5.568 -0.1169 -1.1480  1.7433
  168SAPE  H17S18905   2.015   2.571   5.549  1.1818 -1.7909 -2.8477
  168SAPE  C21818906   2.059   2.512   5.753  0.0630  0.1845 -0.2149
  168SAPE  H18R18907   2.099   2.613   5.776 -2.0198  1.5418 -2.0982
  168SAPE  H18S18908   2.118   2.433   5.803 -3.3650 -0.5938  2.9652
  168SAPE  C21918909   1.911   2.498   5.802 -0.2333 -0.5428 -0.2086
  168SAPE  H19R18910   1.873   2.394   5.803  0.1423 -0.7391 -2.2084
  168SAPE  H19S18911   1.838   2.548   5.736 -0.0045  3.4996  2.2612
  168SAPE  C22018912   1.894   2.548   5.945 -0.2351  0.0251 -0.1595
  168SAPE  H20R18913   1.923   2.467   6.015  0.3043  0.0757 -0.3241
  168SAPE  H20S18914   1.786   2.567   5.964 -0.3780 -0.5535 -0.3436
  168SAPE  H20T18915   1.946   2.645   5.951 -0.1461 -0.1060  1.8306
  168SAPE   C3318916   2.634   3.065   4.664  0.1332  0.2350 -0.3147
  168SAPE   H3X18917   2.626   3.176   4.667 -0.4239  0.2036  2.8677
  168SAPE   H3Y18918   2.715   3.036   4.734  0.2784  0.3526 -0.4327
  168SAPE   C3418919   2.506   3.028   4.729  0.4687  0.3188  0.3610
  168SAPE   H4X18920   2.507   2.920   4.755  0.5777  0.1223 -0.4173
  168SAPE   H4Y18921   2.417   3.032   4.661  0.8556 -0.5672 -0.2185
  168SAPE   C3518922   2.475   3.105   4.858  0.6211  0.0823 -0.4171
  168SAPE   H5X18923   2.368   3.085   4.880  0.2158  0.4096 -1.9861
  168SAPE   H5Y18924   2.484   3.216   4.854 -1.2016  0.2955  0.3607
  168SAPE   C3618925   2.562   3.055   4.973 -0.3755 -0.9772  0.8902
  168SAPE   H6X18926   2.666   3.090   4.954 -1.3843  0.9984 -1.7423
  168SAPE   H6Y18927   2.555   2.944   4.969  0.3827 -1.0351  1.0487
  168SAPE   C3718928   2.521   3.103   5.103 -0.1798 -0.0772 -0.9385
  168SAPE   H7X18929   2.413   3.096   5.125  0.2535  1.2778  2.1237
  168SAPE   H7Y18930   2.547   3.211   5.102 -0.9193  0.2081  2.1170
  168SAPE   C3818931   2.607   3.041   5.219 -0.4389 -0.1744  0.0381
  168SAPE   H8X18932   2.690   2.988   5.167  0.0904  0.5861  0.0968
  168SAPE   H8Y18933   2.543   2.970   5.276 -0.2544  0.6624  1.3219
  168SAPE   C3918934   2.657   3.151   5.310 -0.0994  0.4365 -0.0730
  168SAPE   H9X18935   2.568   3.204   5.348 -0.4316 -0.7639  0.8942
  168SAPE   H9Y18936   2.715   3.227   5.253 -0.5757 -0.0687 -1.2660
  168SAPE  C31018937   2.728   3.099   5.437  0.4205  0.0221  0.1974
  168SAPE  H10X18938   2.831   3.080   5.401  0.0041  0.2532 -1.1985
  168SAPE  H10Y18939   2.685   3.005   5.478  1.8126 -0.6002  0.2763
  168SAPE  C31118940   2.740   3.202   5.550 -0.6685 -0.0335  0.0415
  168SAPE  H11X18941   2.784   3.147   5.636  1.2751  0.0019 -0.8716
  168SAPE  H11Y18942   2.642   3.242   5.582  1.4049  5.1090  0.9769
  168SAPE  C31218943   2.837   3.319   5.517  1.2512  0.8453  0.0830
  168SAPE  H12X18944   2.814   3.363   5.417 -0.0933 -0.7482 -0.3409
  168SAPE  H12Y18945   2.937   3.272   5.515  1.5468  1.4636 -0.1546
  168SAPE  C31318946   2.833   3.421   5.628 -0.3268 -0.7052  0.2153
  168SAPE  H13X18947   2.926   3.481   5.629 -1.0259  0.4237 -0.4829
  168SAPE  H13Y18948   2.844   3.374   5.728  0.2105 -0.2330  0.3860
  168SAPE  C31418949   2.713   3.514   5.626 -0.2408 -0.0712 -0.2386
  168SAPE  H14X18950   2.628   3.442   5.621  0.6805 -1.1644 -0.7486
  168SAPE  H14Y18951   2.722   3.582   5.539  2.1077 -1.4897 -1.2249
  168SAPE  C31518952   2.717   3.612   5.748 -0.2564  0.4081 -0.8153
  168SAPE  H15X18953   2.705   3.563   5.846  0.1613  1.1762 -0.3718
  168SAPE  H15Y18954   2.622   3.670   5.747 -0.3721  0.2287 -0.0855
  168SAPE  C31618955   2.838   3.716   5.753 -0.1108 -0.0908 -0.3442
  168SAPE  H16X18956   2.840   3.773   5.658 -1.4289 -0.8098 -0.8290
  168SAPE  H16Y18957   2.935   3.664   5.771 -0.2310 -0.2529 -0.1686
  168SAPE  C31718958   2.817   3.817   5.863  0.1147 -0.7758  0.0435
  168SAPE  H17X18959   2.818   3.761   5.958 -2.6586  2.0897  1.9870
  168SAPE  H17Y18960   2.717   3.863   5.842  1.3223  1.7601 -0.5316
  168SAPE  C31818961   2.923   3.929   5.874 -0.2314 -0.1029  0.3435
  168SAPE  H18X18962   2.958   3.959   5.773 -1.7618  1.2853  0.1949
  168SAPE  H18Y18963   3.013   3.902   5.934  1.5145  0.6597 -1.7852
  168SAPE  H18Z18964   2.861   4.005   5.926  1.1759  0.8487  0.6972
  169SAPE     N18965   5.819   2.911   3.788 -0.1077  0.4052  0.0859
  169SAPE   HN118966   5.867   2.997   3.753  0.2536 -0.0978 -0.6792
  169SAPE   HN218967   5.812   2.922   3.891 -1.5859  0.0379  0.0368
  169SAPE   HN318968   5.886   2.836   3.761 -0.2197  0.4705 -0.3817
  169SAPE   C1218969   5.690   2.885   3.719 -0.0945 -0.2825  0.0484
  169SAPE  H12A18970   5.631   2.977   3.741 -0.9021 -0.8940  0.4943
  169SAPE  H12B18971   5.638   2.792   3.750  0.2359 -0.6560 -0.4965
  169SAPE   C1118972   5.703   2.884   3.565 -0.3337 -0.1349 -0.0448
  169SAPE  H11A18973   5.761   2.972   3.528  0.3371 -0.9642 -1.0188
  169SAPE  H11B18974   5.606   2.892   3.511 -0.9623  2.3448  1.2828
  169SAPE     P18975   5.701   2.638   3.482 -0.6077  0.1201 -0.0946
  169SAPE   O1318976   5.552   2.657   3.480  0.1915 -0.6796  0.1372
  169SAPE   O1418977   5.762   2.599   3.354  0.2100  0.3115 -0.2270
  169SAPE   O1218978   5.779   2.768   3.526  0.3829  0.3800  0.0002
  169SAPE   O1118979   5.744   2.531   3.602  0.1350  0.7208 -0.1386
  169SAPE    C118980   5.647   2.452   3.667 -0.7621  0.0553  0.2344
  169SAPE    HA18981   5.554   2.504   3.699 -1.1744 -0.9405  0.6965
  169SAPE    HB18982   5.620   2.375   3.591  0.5404  2.2351 -2.6285
  169SAPE    C218983   5.709   2.384   3.790  0.1457  0.2843  0.2487
  169SAPE    HS18984   5.634   2.312   3.828  2.0514 -3.4493 -2.3638
  169SAPE   O2118985   5.745   2.478   3.886  0.3061  0.0039 -0.0833
  169SAPE   C2118986   5.736   2.440   4.015 -0.2823  0.3058  0.5159
  169SAPE   O2218987   5.725   2.328   4.058 -0.5161 -0.1107  0.0524
  169SAPE   C2218988   5.778   2.566   4.098 -0.9897  0.0803 -1.0766
  169SAPE   H2R18989   5.886   2.546   4.114 -1.2083 -0.6076 -0.3989
  169SAPE   H2S18990   5.775   2.653   4.029  0.5672  2.0514  1.1827
  169SAPE    C318991   5.834   2.302   3.742 -0.6093  0.1747  0.9434
  169SAPE    HX18992   5.906   2.376   3.700 -0.7529  0.5155  1.2970
  169SAPE    HY18993   5.815   2.228   3.661  0.6270 -0.6911  1.4044
  169SAPE   O3118994   5.890   2.216   3.844 -0.8205  0.0389 -0.1689
  169SAPE   C3118995   6.018   2.242   3.878 -0.3203 -0.4072  0.2703
  169SAPE   O3218996   6.077   2.347   3.858  0.9496 -0.2370  0.8002
  169SAPE   C3218997   6.071   2.126   3.960  0.2053 -0.3884 -0.5412
  169SAPE   H2X18998   6.176   2.128   3.923  0.8753 -0.6055  1.2194
  169SAPE   H2Y18999   6.035   2.028   3.924 -0.8421 -1.2917  2.6188
  169SAPE   C2319000   5.713   2.584   4.230  0.8874  0.0119  0.1080
  169SAPE   H3R19001   5.774   2.654   4.291  0.3075 -0.7639  1.6435
  169SAPE   H3S19002   5.712   2.490   4.289  1.3700  0.1810  0.3921
  169SAPE   C2419003   5.565   2.631   4.212  0.3614 -0.2861 -0.4014
  169SAPE   H4R19004   5.517   2.621   4.312  0.1543 -1.0817 -0.5723
  169SAPE   H4S19005   5.502   2.560   4.155 -0.9763  1.8728 -1.7420
  169SAPE   C2519006   5.564   2.760   4.137  0.6708 -0.2471 -0.0699
  169SAPE   H5R19007   5.620   2.840   4.187 -3.2034  2.7545 -0.0288
  169SAPE   C2619008   5.483   2.792   4.034  0.4932  0.0524  0.1902
  169SAPE   H6R19009   5.500   2.895   3.999  2.8559  0.2590  1.7610
  169SAPE   C2719010   5.394   2.701   3.961  0.1173 -0.1385 -0.3017
  169SAPE   H7R19011   5.327   2.659   4.039 -1.7411  1.1032 -1.1388
  169SAPE   H7S19012   5.456   2.618   3.922 -1.1396 -1.2010 -0.0992
  169SAPE   C2819013   5.304   2.751   3.848 -0.5054 -0.4623 -0.0104
  169SAPE   H8R19014   5.290   2.859   3.837  0.2766 -0.3656 -0.1171
  169SAPE   C2919015   5.229   2.672   3.767  0.7690  0.4192 -0.7730
  169SAPE   H9R19016   5.168   2.716   3.686  0.7727 -0.5026 -1.2911
  169SAPE  C21019017   5.229   2.518   3.781  0.6092 -0.0458  0.4351
  169SAPE  H10R19018   5.153   2.480   3.853  1.1155 -0.9026  0.5292
  169SAPE  H10S19019   5.324   2.473   3.818  0.6603 -1.2803 -1.0764
  169SAPE  C21119020   5.205   2.464   3.636 -0.7898  0.4976 -1.0517
  169SAPE  H11R19021   5.267   2.512   3.558  1.7143 -0.7388  0.0611
  169SAPE  C21219022   5.104   2.386   3.603 -0.3635  0.5436  0.6722
  169SAPE  H12R19023   5.095   2.366   3.495  1.3437  3.4644 -0.1114
  169SAPE  C21319024   5.000   2.324   3.697  0.6308 -0.1859  0.2816
  169SAPE  H13R19025   4.936   2.405   3.737 -2.0889 -1.4285 -1.2280
  169SAPE  H13S19026   5.046   2.280   3.788 -0.1662  0.3723  0.9664
  169SAPE  C21419027   4.905   2.228   3.629 -0.2763 -0.1669  0.1438
  169SAPE  H14R19028   4.910   2.229   3.519  2.8368  0.2390  0.2114
  169SAPE  C21519029   4.834   2.130   3.689  0.3133 -0.1255 -0.6230
  169SAPE  H15R19030   4.767   2.064   3.631  0.3658 -0.0437 -0.7768
  169SAPE  C21619031   4.835   2.091   3.833 -0.0752  0.1049  0.3816
  169SAPE  H16R19032   4.944   2.089   3.855  0.3467  0.9474 -1.4139
  169SAPE  H16S19033   4.806   1.986   3.851 -1.4723  0.7629  2.3030
  169SAPE  C21719034   4.758   2.180   3.928 -0.1071  0.0315  0.3433
  169SAPE  H17R19035   4.651   2.181   3.899  0.2108  1.4049 -0.8997
  169SAPE  H17S19036   4.784   2.287   3.910 -0.5041  0.0104 -0.4045
  169SAPE  C21819037   4.780   2.142   4.076  1.1015 -0.0516 -1.4830
  169SAPE  H18R19038   4.883   2.172   4.105  0.2668 -0.6350  2.6187
  169SAPE  H18S19039   4.781   2.031   4.086 -0.6833  0.0789  0.8700
  169SAPE  C21919040   4.692   2.219   4.171  0.1363  0.0992  0.4800
  169SAPE  H19R19041   4.699   2.327   4.149  1.8740 -0.5960 -3.1711
  169SAPE  H19S19042   4.725   2.206   4.276 -0.5044 -1.8793  0.4968
  169SAPE  C22019043   4.542   2.175   4.174 -0.5166 -0.4106 -1.1205
  169SAPE  H20R19044   4.538   2.067   4.199  0.2470 -0.2702 -0.3281
  169SAPE  H20S19045   4.483   2.192   4.081  0.0276  1.4893 -1.1695
  169SAPE  H20T19046   4.499   2.239   4.255  0.3984 -0.0329 -0.9207
  169SAPE   C3319047   6.078   2.156   4.110  0.2564 -0.1231  0.3247
  169SAPE   H3X19048   6.129   2.253   4.128 -0.9818  0.8675 -1.2103
  169SAPE   H3Y19049   6.155   2.084   4.142  0.8929 -0.1593 -1.2538
  169SAPE   C3419050   5.956   2.133   4.195  0.1972  0.3034 -0.0379
  169SAPE   H4X19051   5.900   2.053   4.142 -1.3710  0.6424  1.0339
  169SAPE   H4Y19052   5.893   2.224   4.185  0.1132  0.2666  0.1423
  169SAPE   C3519053   5.998   2.096   4.338  0.5665 -0.5396 -0.1170
  169SAPE   H5X19054   6.068   2.175   4.375  1.9003 -1.4527 -0.6089
  169SAPE   H5Y19055   6.051   1.999   4.344 -1.4595 -1.5946  2.7415
  169SAPE   C3619056   5.878   2.081   4.431  0.7198  0.2677  0.0027
  169SAPE   H6X19057   5.804   2.014   4.383 -1.1774  1.8134  0.6510
  169SAPE   H6Y19058   5.835   2.181   4.451  1.7571  0.6420  0.4564
  169SAPE   C3719059   5.902   2.021   4.575 -0.0903 -0.3528  0.1256
  169SAPE   H7X19060   5.971   2.088   4.630 -0.7600  0.8809 -0.4900
  169SAPE   H7Y19061   5.945   1.920   4.557 -0.8490 -0.5040 -0.9931
  169SAPE   C3819062   5.771   2.007   4.660 -0.4613 -0.3996  0.7856
  169SAPE   H8X19063   5.698   1.938   4.611 -1.2631  1.0283 -0.0994
  169SAPE   H8Y19064   5.717   2.102   4.675 -0.1339 -0.4020  2.0858
  169SAPE   C3919065   5.823   1.960   4.795  0.5507  0.4329 -0.2868
  169SAPE   H9X19066   5.900   2.025   4.842  0.7809 -0.2562  0.3109
  169SAPE   H9Y19067   5.881   1.865   4.784  1.8424  0.8806  2.0681
  169SAPE  C31019068   5.707   1.927   4.887  0.2053 -0.7277  0.3869
  169SAPE  H10X19069   5.638   1.850   4.846 -0.8806 -1.6730  3.6519
  169SAPE  H10Y19070   5.646   2.016   4.912 -0.4590 -1.2548  0.6781
  169SAPE  C31119071   5.757   1.879   5.023 -0.0643  0.0894 -0.3509
  169SAPE  H11X19072   5.846   1.938   5.054 -0.4246  0.5383 -0.1679
  169SAPE  H11Y19073   5.769   1.769   5.016 -2.7947 -0.3033 -0.0008
  169SAPE  C31219074   5.661   1.887   5.138  0.9929  0.1426 -0.6582
  169SAPE  H12X19075   5.654   1.990   5.180 -0.8783 -0.1495 -0.1832
  169SAPE  H12Y19076   5.714   1.843   5.226  0.3273 -0.9493 -0.7958
  169SAPE  C31319077   5.520   1.828   5.115  0.1043 -0.1228  0.1000
  169SAPE  H13X19078   5.525   1.720   5.088  0.4025  0.4100 -2.1193
  169SAPE  H13Y19079   5.470   1.877   5.029  2.4649  3.1172  0.3942
  169SAPE  C31419080   5.424   1.840   5.234  1.2023  0.1982  0.0240
  169SAPE  H14X19081   5.377   1.941   5.229  0.5678 -0.0944  0.0425
  169SAPE  H14Y19082   5.488   1.835   5.324 -2.1100  2.6704  2.7878
  169SAPE  C31519083   5.323   1.728   5.248  0.6826  0.3465 -0.4789
  169SAPE  H15X19084   5.380   1.633   5.235 -0.8756 -0.5638 -0.8619
  169SAPE  H15Y19085   5.245   1.725   5.169  0.2467  0.8346 -0.0748
  169SAPE  C31619086   5.260   1.720   5.383  0.2385 -0.0501 -0.7327
  169SAPE  H16X19087   5.211   1.819   5.394  0.7243  0.1319 -0.1872
  169SAPE  H16Y19088   5.346   1.708   5.452 -0.4350  0.3152  0.1830
  169SAPE  C31719089   5.156   1.606   5.391 -0.6208  0.6290  0.4074
  169SAPE  H17X19090   5.070   1.621   5.323 -0.5463 -0.4832  0.0574
  169SAPE  H17Y19091   5.110   1.609   5.493  1.0265 -2.0718  1.3463
  169SAPE  C31819092   5.217   1.466   5.383  0.2359  0.5905 -0.3435
  169SAPE  H18X19093   5.138   1.389   5.375  1.6162 -0.9002 -0.1749
  169SAPE  H18Y19094   5.279   1.433   5.470  1.2229 -2.0976 -1.9447
  169SAPE  H18Z19095   5.268   1.467   5.284  0.1569  1.4856 -0.3896
  170SAPE     N19096   3.858   0.634   3.123 -0.3778  0.1688 -0.4609
  170SAPE   HN119097   3.924   0.635   3.203  1.3658 -2.0560 -1.7670
  170SAPE   HN219098   3.763   0.670   3.150 -1.6145 -0.9791 -2.9906
  170SAPE   HN319099   3.843   0.535   3.096  0.1173  0.1178 -0.5446
  170SAPE   C1219100   3.913   0.735   3.022 -0.3688  0.2150 -0.2514
  170SAPE  H12A19101   3.874   0.702   2.924  0.2532 -0.4960 -0.2681
  170SAPE  H12B19102   4.024   0.733   3.020 -0.3559  0.7932 -0.4207
  170SAPE   C1119103   3.864   0.880   3.055 -0.3693 -0.3004 -0.7171
  170SAPE  H11A19104   3.753   0.889   3.049 -0.3527  1.7911  1.0557
  170SAPE  H11B19105   3.898   0.947   2.973  0.5515 -1.1333 -1.0373
  170SAPE     P19106   4.030   1.014   3.212 -0.1690 -0.0609  0.2849
  170SAPE   O1319107   4.137   0.991   3.113 -0.6904  0.0672  0.0051
  170SAPE   O1419108   3.991   1.152   3.239 -0.0450 -1.2131  0.5346
  170SAPE   O1219109   3.908   0.920   3.189 -0.0369 -0.4339 -0.4920
  170SAPE   O1119110   4.084   0.955   3.348 -0.2298  0.3434  0.6053
  170SAPE    C119111   3.980   0.910   3.438  0.0165 -0.5767 -0.0008
  170SAPE    HA19112   3.893   0.975   3.416  0.6347 -0.6613 -3.0490
  170SAPE    HB19113   3.953   0.806   3.414 -1.0100 -0.2364 -0.3698
  170SAPE    C219114   4.018   0.925   3.589 -0.3423 -0.1356 -0.0467
  170SAPE    HS19115   3.995   1.031   3.616  0.2379  0.0281 -0.1669
  170SAPE   O2119116   4.155   0.898   3.622 -0.5780  0.1039  0.4412
  170SAPE   C2119117   4.248   0.994   3.619 -0.5190 -0.3889  0.5893
  170SAPE   O2219118   4.229   1.111   3.597  0.0720  0.5250  0.1638
  170SAPE   C2219119   4.380   0.945   3.679 -0.5240 -0.4298  0.9477
  170SAPE   H2R19120   4.382   0.834   3.669 -2.2754 -0.2764 -3.1705
  170SAPE   H2S19121   4.461   0.976   3.609 -1.7754  1.1754  0.1389
  170SAPE    C319122   3.921   0.833   3.676 -0.4596  0.0090  0.2032
  170SAPE    HX19123   3.946   0.728   3.647 -2.1420 -0.0915 -1.0288
  170SAPE    HY19124   3.815   0.833   3.643 -0.6574  1.0664  0.7917
  170SAPE   O3119125   3.932   0.851   3.817 -0.2139 -0.5739  0.0626
  170SAPE   C3119126   3.854   0.944   3.873  0.0555  0.0548 -0.2714
  170SAPE   O3219127   3.783   1.025   3.818 -0.4928  0.3184  0.6338
  170SAPE   C3219128   3.854   0.932   4.025 -0.1888 -0.6310 -0.3228
  170SAPE   H2X19129   3.957   0.901   4.054 -0.2773 -0.1365  0.5188
  170SAPE   H2Y19130   3.791   0.845   4.054  1.4075 -1.9247 -0.5080
  170SAPE   C2319131   4.411   0.986   3.828 -0.3646 -0.4133 -0.0452
  170SAPE   H3R19132   4.401   1.096   3.829  0.6246 -0.3120  0.2488
  170SAPE   H3S19133   4.520   0.973   3.847  0.0716  0.8246 -1.5238
  170SAPE   C2419134   4.311   0.930   3.932  0.5707 -0.1078  0.7417
  170SAPE   H4R19135   4.210   0.930   3.886  0.6757  2.3917  0.4059
  170SAPE   H4S19136   4.304   0.993   4.024  1.4524  2.4797 -0.8641
  170SAPE   C2519137   4.365   0.799   3.993 -0.4475 -0.0578  0.2060
  170SAPE   H5R19138   4.331   0.709   3.940  1.7813 -0.4475 -0.6555
  170SAPE   C2619139   4.449   0.785   4.099  0.3122  0.0762  0.1525
  170SAPE   H6R19140   4.490   0.683   4.113  2.0307  0.5201 -1.3720
  170SAPE   C2719141   4.518   0.899   4.158 -0.6382 -0.3974  0.5416
  170SAPE   H7R19142   4.447   0.932   4.236 -1.2724  0.3604 -0.3324
  170SAPE   H7S19143   4.533   0.979   4.082  0.0307 -2.1169 -1.2153
  170SAPE   C2819144   4.656   0.859   4.217 -0.1896 -0.2446  0.6001
  170SAPE   H8R19145   4.742   0.889   4.156  0.9300 -0.2752  2.1121
  170SAPE   C2919146   4.682   0.808   4.339 -0.2875  0.2447 -0.4502
  170SAPE   H9R19147   4.784   0.779   4.366  0.9310  0.1275 -4.6111
  170SAPE  C21019148   4.580   0.769   4.446  0.1427 -0.4033  0.6606
  170SAPE  H10R19149   4.624   0.692   4.513 -0.2643 -2.3912 -1.2365
  170SAPE  H10S19150   4.502   0.711   4.391  0.0783  1.6695 -1.5681
  170SAPE  C21119151   4.510   0.885   4.516 -0.2968  0.2366 -0.6798
  170SAPE  H11R19152   4.534   0.983   4.472  2.7740  1.0915  2.4747
  170SAPE  C21219153   4.440   0.876   4.633 -0.0482  0.3930 -0.3916
  170SAPE  H12R19154   4.402   0.973   4.669  0.2372 -0.2962  1.9209
  170SAPE  C21319155   4.403   0.747   4.704  0.3408 -0.6985  0.9774
  170SAPE  H13R19156   4.398   0.663   4.632 -0.0516 -1.5040  1.9152
  170SAPE  H13S19157   4.300   0.756   4.745  0.5880  0.5811  1.3611
  170SAPE  C21419158   4.498   0.724   4.816 -0.0997 -0.1546 -0.4597
  170SAPE  H14R19159   4.604   0.708   4.789  0.0386  0.3368 -0.2183
  170SAPE  C21519160   4.471   0.706   4.950 -0.1086 -0.9373  0.2825
  170SAPE  H15R19161   4.553   0.689   5.023  1.5123 -0.7710 -1.4182
  170SAPE  C21619162   4.338   0.707   5.020  1.1233 -0.2504 -0.5681
  170SAPE  H16R19163   4.311   0.600   5.026  1.2461 -0.2531  0.0009
  170SAPE  H16S19164   4.255   0.758   4.968 -0.3617 -1.2806  0.7192
  170SAPE  C21719165   4.331   0.762   5.162 -0.3908  0.3604  0.6078
  170SAPE  H17R19166   4.332   0.872   5.145  1.1055  0.2182 -0.4696
  170SAPE  H17S19167   4.427   0.737   5.211 -1.0668  1.9856  2.9301
  170SAPE  C21819168   4.215   0.720   5.250 -0.7597  0.1959 -0.1255
  170SAPE  H18R19169   4.226   0.616   5.286  0.2896  0.0222 -0.8858
  170SAPE  H18S19170   4.124   0.717   5.186 -2.1556  1.0150  1.7447
  170SAPE  C21919171   4.213   0.820   5.359  0.7500 -0.4037 -0.2387
  170SAPE  H19R19172   4.146   0.786   5.441  2.3439 -0.7548  0.9769
  170SAPE  H19S19173   4.172   0.918   5.327 -0.1644 -0.5905  0.3259
  170SAPE  C22019174   4.344   0.839   5.432 -0.7503 -0.2486  0.0082
  170SAPE  H20R19175   4.376   0.742   5.475  0.8714  0.1696 -0.1869
  170SAPE  H20S19176   4.317   0.913   5.511 -0.4917  1.5199 -1.4713
  170SAPE  H20T19177   4.426   0.888   5.376 -0.7783 -0.0306  0.1564
  170SAPE   C3319178   3.797   1.060   4.097 -0.6080  0.0978  0.3904
  170SAPE   H3X19179   3.694   1.095   4.072 -0.7240 -0.2525  0.3716
  170SAPE   H3Y19180   3.872   1.136   4.068 -0.5635 -0.2953 -0.5674
  170SAPE   C3419181   3.787   1.047   4.247 -0.0534  0.0575  0.6070
  170SAPE   H4X19182   3.885   1.010   4.283  0.2602 -0.5060 -0.7940
  170SAPE   H4Y19183   3.705   0.976   4.271 -1.2355  1.4283  0.7942
  170SAPE   C3519184   3.739   1.173   4.318 -0.2856 -0.1428  0.0453
  170SAPE   H5X19185   3.645   1.206   4.270 -0.2836 -0.3755 -0.1181
  170SAPE   H5Y19186   3.807   1.261   4.309 -0.0416 -0.2294  0.8972
  170SAPE   C3619187   3.726   1.164   4.471  0.3598 -0.2400 -0.1224
  170SAPE   H6X19188   3.667   1.072   4.488  1.3047 -1.2325 -1.8489
  170SAPE   H6Y19189   3.659   1.240   4.514  2.8125  1.2508  1.2885
  170SAPE   C3719190   3.849   1.157   4.565  0.0341  0.6514  0.3990
  170SAPE   H7X19191   3.900   1.255   4.553  0.4538  0.3801 -0.0796
  170SAPE   H7Y19192   3.915   1.078   4.523  1.3424  2.4372 -1.0609
  170SAPE   C3819193   3.809   1.117   4.717  0.2272  0.5510 -0.3913
  170SAPE   H8X19194   3.760   1.017   4.713 -1.1549  1.1994 -0.3998
  170SAPE   H8Y19195   3.740   1.196   4.753 -1.0653 -0.7349  0.0096
  170SAPE   C3919196   3.924   1.112   4.806 -0.5944 -0.1318  0.2428
  170SAPE   H9X19197   3.978   1.208   4.820 -2.8479  1.9090 -3.5424
  170SAPE   H9Y19198   4.000   1.033   4.785 -1.2650 -0.9598  0.8279
  170SAPE  C31019199   3.891   1.070   4.946 -0.3679 -0.4007 -0.8345
  170SAPE  H10X19200   3.985   1.048   5.001 -0.4145 -0.7210 -0.8824
  170SAPE  H10Y19201   3.845   0.969   4.950 -1.2657 -0.1290 -3.0282
  170SAPE  C31119202   3.816   1.167   5.030  0.7509 -0.3672 -0.5314
  170SAPE  H11X19203   3.717   1.125   5.058  1.3751 -1.1011  0.6682
  170SAPE  H11Y19204   3.804   1.260   4.971  1.5234 -0.1536 -0.3639
  170SAPE  C31219205   3.894   1.222   5.154  0.0032  0.8797  0.3918
  170SAPE  H12X19206   3.839   1.316   5.173 -1.9372 -0.2332  0.4700
  170SAPE  H12Y19207   3.994   1.238   5.107  0.4333 -1.7091  0.2560
  170SAPE  C31319208   3.902   1.123   5.270 -0.1780  0.3757 -0.1539
  170SAPE  H13X19209   3.970   1.044   5.232 -1.8793 -0.4528 -1.6387
  170SAPE  H13Y19210   3.801   1.079   5.289  0.0638  0.4182  1.3447
  170SAPE  C31419211   3.941   1.188   5.407  0.6681  0.0089 -0.6864
  170SAPE  H14X19212   3.864   1.264   5.432  1.3469  0.5735 -0.2708
  170SAPE  H14Y19213   4.032   1.249   5.389  1.0627 -0.3769 -0.0340
  170SAPE  C31519214   3.962   1.088   5.522 -0.6407  0.1475  0.4786
  170SAPE  H15X19215   4.010   0.995   5.482  0.1305  0.7484 -0.0239
  170SAPE  H15Y19216   3.862   1.057   5.559 -1.6656  1.7241 -0.8350
  170SAPE  C31619217   4.053   1.138   5.635  0.3117 -0.3172  0.3092
  170SAPE  H16X19218   4.010   1.230   5.680 -3.2602 -1.9263  0.5880
  170SAPE  H16Y19219   4.148   1.156   5.581  0.6925 -0.8499  0.7957
  170SAPE  C31719220   4.075   1.027   5.746 -0.4249 -0.2088 -0.4125
  170SAPE  H17X19221   4.154   0.959   5.707 -1.7201 -0.9277 -1.9085
  170SAPE  H17Y19222   3.982   0.970   5.765 -1.5383  1.0452 -1.7606
  170SAPE  C31819223   4.135   1.085   5.869 -0.1474  0.0827  0.1979
  170SAPE  H18X19224   4.080   1.174   5.907  0.8974  0.7612  0.1880
  170SAPE  H18Y19225   4.239   1.121   5.851 -0.8259  2.9989  1.4994
  170SAPE  H18Z19226   4.137   0.998   5.938 -0.0056 -0.4502 -0.4682
  171SAPE     N19227   0.070   5.369   3.525  0.6315 -0.1970  0.4176
  171SAPE   HN119228   0.132   5.449   3.503  0.2914 -0.0549 -0.0494
  171SAPE   HN219229   0.077   5.334   3.622 -1.1337 -0.0558  0.6302
  171SAPE   HN319230   0.086   5.295   3.454 -2.0845 -1.3372  0.8671
  171SAPE   C1219231  -0.072   5.416   3.481  0.1168 -0.5707  0.1516
  171SAPE  H12A19232  -0.132   5.327   3.452 -0.9784  1.0916 -3.1408
  171SAPE  H12B19233  -0.053   5.469   3.385 -0.7485 -2.4081 -1.0838
  171SAPE   C1119234  -0.146   5.498   3.591  0.2338  0.7464  0.6730
  171SAPE  H11A19235  -0.129   5.448   3.689 -0.9918  0.1237  0.5884
  171SAPE  H11B19236  -0.257   5.503   3.587  0.2725  1.6929  0.6031
  171SAPE     P19237  -0.127   5.741   3.516 -0.6251  0.0634  0.3229
  171SAPE   O1319238  -0.050   5.864   3.544 -0.1775  0.6569 -0.0821
  171SAPE   O1419239  -0.144   5.706   3.371  0.9592 -0.1489 -0.1982
  171SAPE   O1219240  -0.076   5.619   3.604  0.3821 -0.1321  1.0767
  171SAPE   O1119241  -0.273   5.759   3.574  0.3424 -0.0816  0.6394
  171SAPE    C119242  -0.301   5.794   3.706  0.3160 -0.4021 -0.1940
  171SAPE    HA19243  -0.212   5.805   3.772 -0.6496 -2.4338  1.5695
  171SAPE    HB19244  -0.350   5.893   3.710 -1.6502 -1.2368 -2.0472
  171SAPE    C219245  -0.402   5.701   3.776 -0.0189  0.3098  0.1051
  171SAPE    HS19246  -0.380   5.598   3.741 -0.3145  0.4832 -0.6096
  171SAPE   O2119247  -0.537   5.741   3.747  0.0383  0.5393 -0.0777
  171SAPE   C2119248  -0.621   5.636   3.727  0.5654 -0.5882 -0.6330
  171SAPE   O2219249  -0.596   5.518   3.727  0.1711 -0.4203  0.2143
  171SAPE   C2219250  -0.754   5.691   3.699  0.4960 -0.1637  0.1195
  171SAPE   H2R19251  -0.753   5.770   3.621 -0.8171 -1.4781 -1.3071
  171SAPE   H2S19252  -0.802   5.605   3.646 -0.5494  0.7644 -0.4934
  171SAPE    C319253  -0.376   5.709   3.928 -0.1981 -0.8479  0.7947
  171SAPE    HX19254  -0.463   5.671   3.985  0.1812  0.6173  2.4453
  171SAPE    HY19255  -0.370   5.813   3.967  0.6697 -0.6600  0.1987
  171SAPE   O3119256  -0.255   5.639   3.965 -0.1907  0.7723 -0.3541
  171SAPE   C3119257  -0.155   5.711   4.008 -0.2151 -0.1554  0.5406
  171SAPE   O3219258  -0.150   5.831   4.027  0.5540  0.0979  0.6222
  171SAPE   C3219259  -0.039   5.612   4.034 -0.0936 -0.9866 -0.4267
  171SAPE   H2X19260   0.051   5.675   4.020 -1.1755  1.0091  1.1602
  171SAPE   H2Y19261  -0.048   5.531   3.959 -0.5293 -1.6696  0.3535
  171SAPE   C2319262  -0.838   5.731   3.821  0.2692  0.4139 -0.3413
  171SAPE   H3R19263  -0.935   5.773   3.786 -0.4774 -0.5878  0.4383
  171SAPE   H3S19264  -0.794   5.815   3.878  2.3410  1.8039 -3.6712
  171SAPE   C2419265  -0.870   5.608   3.916  0.3542 -0.3840  0.0868
  171SAPE   H4R19266  -0.784   5.540   3.930 -0.5553 -2.3052 -2.7968
  171SAPE   H4S19267  -0.941   5.555   3.849  0.3510  1.5166 -1.5108
  171SAPE   C2519268  -0.947   5.654   4.037 -0.3349  0.4660 -0.2018
  171SAPE   H5R19269  -1.037   5.712   4.012  0.9765  2.4522 -0.4981
  171SAPE   C2619270  -0.906   5.654   4.164  0.5206 -0.3384  0.1507
  171SAPE   H6R19271  -0.974   5.699   4.238  1.4366  2.2707 -0.4941
  171SAPE   C2719272  -0.778   5.606   4.219 -0.7549 -0.7274 -0.4347
  171SAPE   H7R19273  -0.728   5.529   4.156 -1.0658 -2.5634  1.4549
  171SAPE   H7S19274  -0.792   5.555   4.316  1.2677 -2.1500 -0.8207
  171SAPE   C2819275  -0.677   5.721   4.236  0.2094  0.3372  0.4819
  171SAPE   H8R19276  -0.635   5.763   4.144 -2.6485  2.1164 -0.1396
  171SAPE   C2919277  -0.638   5.777   4.354 -0.8212  0.4405  0.2864
  171SAPE   H9R19278  -0.568   5.862   4.351 -0.1244 -0.0585  1.6198
  171SAPE  C21019279  -0.682   5.719   4.493 -0.2755  0.3302  0.0704
  171SAPE  H10R19280  -0.593   5.709   4.558  0.3775  1.8769 -0.5223
  171SAPE  H10S19281  -0.740   5.625   4.481  2.3980 -1.0119 -4.5749
  171SAPE  C21119282  -0.777   5.816   4.560  0.2694  0.3274  0.9002
  171SAPE  H11R19283  -0.856   5.862   4.498  0.0706 -0.9421  0.1819
  171SAPE  C21219284  -0.782   5.843   4.689 -0.0311 -0.3822 -0.4826
  171SAPE  H12R19285  -0.867   5.902   4.724  0.1464  0.0489 -0.7767
  171SAPE  C21319286  -0.699   5.784   4.796 -0.7812  0.0559  0.3000
  171SAPE  H13R19287  -0.611   5.730   4.757  0.8661  1.7395  1.5166
  171SAPE  H13S19288  -0.761   5.712   4.854  1.0710 -1.2779  0.6857
  171SAPE  C21419289  -0.633   5.884   4.883 -0.0069 -0.0980  0.5123
  171SAPE  H14R19290  -0.560   5.943   4.827  1.3870 -1.2294  1.1014
  171SAPE  C21519291  -0.641   5.908   5.011  0.8162 -0.6824 -0.9443
  171SAPE  H15R19292  -0.591   5.990   5.063  0.6729 -1.7970  1.0931
  171SAPE  C21619293  -0.735   5.840   5.112  0.2225 -0.3018 -0.2510
  171SAPE  H16R19294  -0.833   5.813   5.068 -0.0609 -0.2408  0.3360
  171SAPE  H16S19295  -0.755   5.911   5.194  2.2387  1.7526 -1.4248
  171SAPE  C21719296  -0.671   5.714   5.182  0.1364  0.3096  0.3178
  171SAPE  H17R19297  -0.571   5.743   5.221 -0.5350 -0.1733  2.5364
  171SAPE  H17S19298  -0.657   5.634   5.106  0.3136  0.0573  0.6155
  171SAPE  C21819299  -0.752   5.663   5.304  0.0426 -0.4788  0.1314
  171SAPE  H18R19300  -0.757   5.552   5.302 -1.5069 -0.4731  1.4142
  171SAPE  H18S19301  -0.854   5.708   5.300  0.2279 -0.0245  0.4620
  171SAPE  C21919302  -0.694   5.705   5.446  0.3311 -0.2884  0.5605
  171SAPE  H19R19303  -0.727   5.811   5.450 -2.7955 -1.0904 -0.9262
  171SAPE  H19S19304  -0.583   5.703   5.444  0.3352 -0.0616 -0.9927
  171SAPE  C22019305  -0.748   5.628   5.560  0.1762 -0.9351 -0.1231
  171SAPE  H20R19306  -0.727   5.684   5.654  0.2078 -1.5048  0.2158
  171SAPE  H20S19307  -0.711   5.523   5.558 -1.6414 -1.6294 -2.5208
  171SAPE  H20T19308  -0.858   5.617   5.572  0.3445 -0.4157  2.6427
  171SAPE   C3319309  -0.038   5.553   4.174  0.5717 -0.2323  0.0071
  171SAPE   H3X19310   0.034   5.469   4.178 -0.9492 -1.5211  2.1723
  171SAPE   H3Y19311  -0.137   5.506   4.186 -0.2611  0.9070 -1.8702
  171SAPE   C3419312  -0.011   5.649   4.289 -0.3690  0.3385 -0.0534
  171SAPE   H4X19313  -0.098   5.712   4.320 -0.2386  0.1631  0.6962
  171SAPE   H4Y19314   0.081   5.704   4.259  0.1927 -1.3575 -1.5714
  171SAPE   C3519315   0.042   5.564   4.410 -0.0681  0.7208 -0.0412
  171SAPE   H5X19316   0.106   5.480   4.377  0.9709  0.4902  2.3004
  171SAPE   H5Y19317  -0.055   5.525   4.449 -0.2930 -1.0886 -2.2362
  171SAPE   C3619318   0.101   5.659   4.526  0.4883 -0.5599  1.0137
  171SAPE   H6X19319   0.030   5.745   4.519 -2.3612 -2.8778 -1.8599
  171SAPE   H6Y19320   0.204   5.687   4.496  1.2434 -2.4799  1.6917
  171SAPE   C3719321   0.102   5.610   4.670 -0.2754 -0.0821 -0.4272
  171SAPE   H7X19322   0.180   5.538   4.701 -0.0790  0.0528 -0.6032
  171SAPE   H7Y19323   0.005   5.561   4.695 -0.3752  0.1828 -0.2889
  171SAPE   C3819324   0.109   5.732   4.768  0.1504  0.4091  0.0721
  171SAPE   H8X19325   0.016   5.792   4.774 -0.5661 -0.5465 -0.9870
  171SAPE   H8Y19326   0.185   5.806   4.735  0.8394 -0.2471  0.1522
  171SAPE   C3919327   0.159   5.682   4.899 -0.2903 -0.2496 -0.4934
  171SAPE   H9X19328   0.253   5.623   4.886  0.8684  1.5081 -0.4283
  171SAPE   H9Y19329   0.074   5.624   4.941 -0.3068  0.4052  0.4078
  171SAPE  C31019330   0.177   5.790   5.011 -0.2530 -0.5338 -0.0458
  171SAPE  H10X19331   0.102   5.871   4.999 -0.6417 -0.6889  1.2333
  171SAPE  H10Y19332   0.274   5.841   4.995 -1.1773  1.4658  0.4480
  171SAPE  C31119333   0.187   5.745   5.159 -0.3866  0.5644  0.1092
  171SAPE  H11X19334   0.225   5.830   5.221  0.5065 -0.2933  0.7719
  171SAPE  H11Y19335   0.258   5.661   5.178 -0.3739  0.8268  1.3194
  171SAPE  C31219336   0.048   5.709   5.210  0.8133 -0.1673  0.2016
  171SAPE  H12X19337  -0.010   5.645   5.139 -1.3912  0.2451  1.5306
  171SAPE  H12Y19338  -0.014   5.801   5.211  2.7724  1.2051 -0.0689
  171SAPE  C31319339   0.057   5.658   5.354 -0.3971  0.4669  0.4001
  171SAPE  H13X19340   0.068   5.747   5.421  0.6734  1.4195 -0.9830
  171SAPE  H13Y19341   0.149   5.598   5.365 -1.7949 -1.9272 -0.3553
  171SAPE  C31419342  -0.067   5.560   5.384 -0.0371 -0.1940 -0.7960
  171SAPE  H14X19343  -0.056   5.518   5.486 -1.5350 -0.3934 -0.6971
  171SAPE  H14Y19344  -0.071   5.474   5.314  1.3755 -0.2750 -0.8102
  171SAPE  C31519345  -0.205   5.634   5.382  0.2129  0.0252  0.1126
  171SAPE  H15X19346  -0.295   5.570   5.387 -1.4244  2.2243  0.5016
  171SAPE  H15Y19347  -0.202   5.688   5.285  0.7524  0.7882  0.5451
  171SAPE  C31619348  -0.223   5.733   5.492 -0.2344 -0.3488  0.8429
  171SAPE  H16X19349  -0.305   5.804   5.472  0.5280  0.1112 -0.8205
  171SAPE  H16Y19350  -0.130   5.790   5.515  1.1978 -1.9741 -0.6002
  171SAPE  C31719351  -0.247   5.667   5.634 -0.1178 -0.4578  0.5347
  171SAPE  H17X19352  -0.227   5.740   5.715  0.3930  0.6290 -0.5407
  171SAPE  H17Y19353  -0.179   5.579   5.633  0.2341 -0.3378 -3.2984
  171SAPE  C31819354  -0.396   5.636   5.647  0.1501 -0.3589 -0.0065
  171SAPE  H18X19355  -0.454   5.729   5.633 -1.0913 -0.9134  1.1479
  171SAPE  H18Y19356  -0.433   5.596   5.744 -2.2064  0.6784 -0.4170
  171SAPE  H18Z19357  -0.425   5.565   5.566  1.2759 -2.0634  1.0022
  172SAPE     N19358   6.343   1.243   3.289  0.0916  0.0803 -0.6398
  172SAPE   HN119359   6.319   1.144   3.314  1.9347 -0.0994  0.5780
  172SAPE   HN219360   6.371   1.284   3.380  1.9620 -2.7079  0.1632
  172SAPE   HN319361   6.250   1.272   3.251 -0.3031 -0.1566  0.1181
  172SAPE   C1219362   6.452   1.229   3.179  0.4344 -0.7205  0.2077
  172SAPE  H12A19363   6.471   1.329   3.135 -0.6853  0.3276  1.9930
  172SAPE  H12B19364   6.407   1.166   3.099  0.7626 -0.1377 -0.4525
  172SAPE   C1119365   6.578   1.179   3.238 -0.2170  0.4445  0.1609
  172SAPE  H11A19366   6.667   1.190   3.172 -1.0254  3.6473 -0.5790
  172SAPE  H11B19367   6.560   1.070   3.242  2.1872 -0.2214 -3.0272
  172SAPE     P19368   6.732   1.258   3.442  0.0851 -0.0086  0.2924
  172SAPE   O1319369   6.800   1.132   3.475  0.5339 -0.2729  0.1813
  172SAPE   O1419370   6.813   1.353   3.367  0.3073 -0.5244 -0.3394
  172SAPE   O1219371   6.598   1.234   3.364 -0.6344 -0.2333  0.3546
  172SAPE   O1119372   6.685   1.317   3.580 -0.5506 -0.3099  0.1493
  172SAPE    C119373   6.550   1.297   3.620 -0.1348  0.0324  0.3138
  172SAPE    HA19374   6.482   1.355   3.555 -2.1928 -1.1284  1.3491
  172SAPE    HB19375   6.524   1.190   3.604 -2.8845  0.6518  0.1502
  172SAPE    C219376   6.536   1.318   3.774  0.3605 -0.3130  0.1490
  172SAPE    HS19377   6.628   1.269   3.814  1.1094 -0.0405 -1.1700
  172SAPE   O2119378   6.414   1.276   3.826  0.3221 -0.0729  0.0139
  172SAPE   C2119379   6.393   1.138   3.827 -0.6293 -1.0439 -0.2100
  172SAPE   O2219380   6.474   1.055   3.789 -0.1816 -0.5068 -0.3695
  172SAPE   C2219381   6.242   1.123   3.852 -0.6373  0.2602  0.9772
  172SAPE   H2R19382   6.192   1.222   3.844  2.5805  1.8662 -3.4335
  172SAPE   H2S19383   6.204   1.080   3.757  1.3405  2.1162 -0.7681
  172SAPE    C319384   6.544   1.469   3.814  0.4603 -0.2757 -0.6191
  172SAPE    HX19385   6.466   1.513   3.748  1.9640  0.5480 -1.9205
  172SAPE    HY19386   6.644   1.513   3.796  1.0111 -1.8889 -1.7011
  172SAPE   O3119387   6.499   1.496   3.952 -0.3995 -0.8771  0.2488
  172SAPE   C3119388   6.573   1.456   4.050  0.3345  0.2641  0.1834
  172SAPE   O3219389   6.659   1.368   4.041  0.4504 -0.4840  0.1999
  172SAPE   C3219390   6.527   1.509   4.188  0.3583 -0.0792 -0.3366
  172SAPE   H2X19391   6.422   1.539   4.165  0.9178  0.9085 -1.7511
  172SAPE   H2Y19392   6.582   1.602   4.215 -0.1769 -0.3965  2.1285
  172SAPE   C2319393   6.194   1.041   3.971 -0.5355 -0.7059 -0.7305
  172SAPE   H3R19394   6.217   0.934   3.949  0.1623 -1.0966  1.5839
  172SAPE   H3S19395   6.083   1.038   3.969 -0.5697 -1.7307  1.0823
  172SAPE   C2419396   6.252   1.090   4.104  0.9918  0.6221  0.9181
  172SAPE   H4R19397   6.362   1.076   4.094  0.4221 -3.7909 -3.0363
  172SAPE   H4S19398   6.227   1.018   4.185 -1.0264 -2.0254 -1.8018
  172SAPE   C2519399   6.223   1.232   4.131 -0.5220 -1.4182 -0.2218
  172SAPE   H5R19400   6.280   1.307   4.075  1.2582 -2.3534  0.2302
  172SAPE   C2619401   6.141   1.270   4.225  0.6403  0.6083 -0.0949
  172SAPE   H6R19402   6.132   1.377   4.246 -0.6382  0.8721 -1.7112
  172SAPE   C2719403   6.048   1.192   4.311  0.0256  1.1736 -0.1145
  172SAPE   H7R19404   6.037   1.087   4.275  1.3671  0.6984  0.7605
  172SAPE   H7S19405   5.946   1.235   4.301  0.4863  2.1985 -0.4490
  172SAPE   C2819406   6.098   1.183   4.450  0.5289  0.0354  0.0328
  172SAPE   H8R19407   6.206   1.206   4.457  0.5565  1.6210 -3.5709
  172SAPE   C2919408   6.029   1.135   4.555  0.2735 -0.5109 -0.2992
  172SAPE   H9R19409   6.086   1.125   4.648 -0.5789  1.0588  0.4346
  172SAPE  C21019410   5.887   1.086   4.559  0.4602 -0.0463  1.0854
  172SAPE  H10R19411   5.840   1.090   4.458  1.5140  0.0773  0.5862
  172SAPE  H10S19412   5.841   1.166   4.621  2.4597  1.9128  0.1951
  172SAPE  C21119413   5.865   0.946   4.603  0.4489 -0.2346  0.0066
  172SAPE  H11R19414   5.868   0.880   4.515  2.5396 -1.8760  1.2127
  172SAPE  C21219415   5.857   0.903   4.726 -0.3467 -0.4106 -0.7810
  172SAPE  H12R19416   5.852   0.794   4.743 -0.4086 -0.4998 -1.3492
  172SAPE  C21319417   5.861   0.987   4.849 -0.0202 -0.5442  0.3779
  172SAPE  H13R19418   5.880   1.095   4.830  1.2341 -0.7610  0.3170
  172SAPE  H13S19419   5.939   0.949   4.917  0.3187 -0.3615  0.0932
  172SAPE  C21419420   5.727   0.993   4.912 -0.6852  0.2241  0.0428
  172SAPE  H14R19421   5.641   1.034   4.857 -1.1831 -2.1322 -1.0712
  172SAPE  C21519422   5.709   0.971   5.043  0.1504  0.4526 -0.6232
  172SAPE  H15R19423   5.604   0.979   5.074 -0.0535  1.3974 -1.5352
  172SAPE  C21619424   5.819   0.935   5.143  0.5247 -0.3647  0.0537
  172SAPE  H16R19425   5.791   0.975   5.243  2.6426  0.2737  0.4484
  172SAPE  H16S19426   5.918   0.974   5.113 -0.1989  1.5440 -0.0125
  172SAPE  C21719427   5.824   0.783   5.167 -0.6579 -1.3480  0.1141
  172SAPE  H17R19428   5.847   0.734   5.070 -1.5999  0.4851 -1.0875
  172SAPE  H17S19429   5.732   0.737   5.208 -0.0890 -3.5266 -0.9239
  172SAPE  C21819430   5.936   0.752   5.266 -0.1276 -1.0042 -0.6986
  172SAPE  H18R19431   5.934   0.791   5.370  2.2407  0.0113 -0.9757
  172SAPE  H18S19432   6.027   0.795   5.219  0.0706  0.4817  0.9256
  172SAPE  C21919433   5.954   0.605   5.277 -0.3092 -0.2693  0.6340
  172SAPE  H19R19434   6.058   0.585   5.311  0.2142  0.1373 -0.6554
  172SAPE  H19S19435   5.949   0.566   5.173 -1.9098  1.2129  0.1069
  172SAPE  C22019436   5.859   0.531   5.363 -0.1640 -0.3636  0.1453
  172SAPE  H20R19437   5.755   0.532   5.323 -0.8829  2.3199  1.7963
  172SAPE  H20S19438   5.854   0.568   5.467 -1.2357 -1.2895  0.4425
  172SAPE  H20T19439   5.901   0.429   5.374 -0.2385 -0.5554 -1.1507
  172SAPE   C3319440   6.544   1.407   4.308  0.2327 -0.0690 -0.4284
  172SAPE   H3X19441   6.643   1.358   4.299  0.8950  1.4987 -2.6365
  172SAPE   H3Y19442   6.459   1.336   4.310 -0.9134  1.2534 -0.8269
  172SAPE   C3419443   6.537   1.477   4.443 -0.3457  0.4023 -0.1795
  172SAPE   H4X19444   6.602   1.567   4.444  0.4753 -0.1621 -1.3107
  172SAPE   H4Y19445   6.583   1.404   4.513  0.4466  1.5873  0.5795
  172SAPE   C3519446   6.398   1.513   4.492  0.0567  0.1188  0.4719
  172SAPE   H5X19447   6.337   1.421   4.502  0.6064 -0.0704  2.6633
  172SAPE   H5Y19448   6.357   1.589   4.423 -0.1568 -1.0165 -0.6907
  172SAPE   C3619449   6.398   1.574   4.633  0.8641  0.5283 -0.6101
  172SAPE   H6X19450   6.441   1.675   4.652  1.1719  0.1693  0.7694
  172SAPE   H6Y19451   6.478   1.516   4.684 -0.5066 -3.1376 -2.2912
  172SAPE   C3719452   6.267   1.562   4.709 -0.1281 -0.1079  0.3037
  172SAPE   H7X19453   6.232   1.457   4.702 -3.2615  0.8519 -0.1265
  172SAPE   H7Y19454   6.193   1.620   4.650 -1.2352 -0.8810  0.9037
  172SAPE   C3819455   6.283   1.609   4.856  0.4601 -0.8216 -0.1359
  172SAPE   H8X19456   6.334   1.707   4.874 -0.6921 -0.2984  0.3756
  172SAPE   H8Y19457   6.332   1.532   4.919  0.7133 -0.0495  0.6438
  172SAPE   C3919458   6.141   1.622   4.926 -0.2002  0.1520 -0.9264
  172SAPE   H9X19459   6.080   1.531   4.910 -0.8490  0.7757 -2.1459
  172SAPE   H9Y19460   6.070   1.695   4.880 -0.3953  0.5251 -0.0483
  172SAPE  C31019461   6.156   1.630   5.081  0.7303 -0.4354 -0.0814
  172SAPE  H10X19462   6.210   1.725   5.102 -0.7555  0.3167  0.4774
  172SAPE  H10Y19463   6.222   1.550   5.122  1.7310  0.4905  0.1788
  172SAPE  C31119464   6.023   1.638   5.153 -0.1327 -0.5581  0.3309
  172SAPE  H11X19465   5.937   1.626   5.083 -2.4525 -3.0035  3.2943
  172SAPE  H11Y19466   6.010   1.742   5.191  0.9236  0.3783 -1.7041
  172SAPE  C31219467   5.996   1.544   5.272 -0.4475  0.1515 -0.5236
  172SAPE  H12X19468   6.088   1.538   5.335 -0.6818 -1.2438 -0.2636
  172SAPE  H12Y19469   5.972   1.444   5.229  0.0750  0.2134 -0.9759
  172SAPE  C31319470   5.879   1.602   5.350 -1.0172  0.3444 -0.7195
  172SAPE  H13X19471   5.796   1.616   5.278 -1.3615  1.5341 -0.1128
  172SAPE  H13Y19472   5.906   1.702   5.388  2.9736 -0.5916 -0.6334
  172SAPE  C31419473   5.828   1.515   5.468 -0.3861 -0.3290  0.2618
  172SAPE  H14X19474   5.907   1.520   5.546  0.5258 -1.3847 -0.5541
  172SAPE  H14Y19475   5.816   1.414   5.422 -5.0609  0.3251 -0.4132
  172SAPE  C31519476   5.686   1.545   5.511  0.7268  0.7695  0.4207
  172SAPE  H15X19477   5.629   1.550   5.415  0.9502 -0.4579  0.2015
  172SAPE  H15Y19478   5.687   1.651   5.542  1.0737  0.1082  2.8406
  172SAPE  C31619479   5.626   1.453   5.620  0.0972 -0.0490 -0.5905
  172SAPE  H16X19480   5.703   1.412   5.689 -1.5032  1.6252  2.4040
  172SAPE  H16Y19481   5.567   1.368   5.579 -0.4774  0.6799 -1.2894
  172SAPE  C31719482   5.513   1.526   5.693 -0.4892 -0.3218  0.5743
  172SAPE  H17X19483   5.448   1.569   5.615 -0.4782  2.4459  1.9882
  172SAPE  H17Y19484   5.544   1.614   5.754 -0.3545  1.4246 -1.8677
  172SAPE  C31819485   5.428   1.431   5.776 -0.3878  0.0394  0.5256
  172SAPE  H18X19486   5.364   1.363   5.716  0.6537 -0.1657 -0.3909
  172SAPE  H18Y19487   5.346   1.483   5.829 -0.8558  0.7240 -0.8253
  172SAPE  H18Z19488   5.487   1.375   5.852 -0.6525 -1.4249 -0.3164
  173SLPC     N19489   2.783   2.235   8.275 -0.1510  0.1719  0.2438
  173SLPC   C1319490   2.687   2.320   8.202 -0.3262 -0.1863  0.3980
  173SLPC  H13A19491   2.699   2.423   8.234 -4.6746  0.6061  0.0962
  173SLPC  H13B19492   2.691   2.306   8.095 -2.1610  0.3024  0.2210
  173SLPC  H13C19493   2.589   2.286   8.233 -0.2071  0.0842  1.0741
  173SLPC   C1419494   2.758   2.260   8.417 -0.3520  0.1462 -0.4723
  173SLPC  H14A19495   2.659   2.241   8.456 -1.2356  1.6915 -1.8485
  173SLPC  H14B19496   2.823   2.199   8.478  0.8936  2.8444  1.0640
  173SLPC  H14C19497   2.791   2.357   8.450 -1.3846  0.3191  0.0998
  173SLPC   C1519498   2.917   2.290   8.235  0.0996  0.4267 -0.2386
  173SLPC  H15A19499   2.929   2.397   8.243  0.0139  0.6225 -2.3544
  173SLPC  H15B19500   2.991   2.232   8.289 -2.0366 -1.1691  1.1407
  173SLPC  H15C19501   2.941   2.257   8.135 -1.0325  0.0206 -0.3852
  173SLPC   C1219502   2.764   2.095   8.242  0.1268  0.4295  0.6715
  173SLPC  H12A19503   2.661   2.062   8.253  0.3610 -0.0500  1.5150
  173SLPC  H12B19504   2.809   2.031   8.316  0.1626 -0.5468 -0.1780
  173SLPC   C1119505   2.781   2.034   8.095 -0.1829  0.0882  0.7516
  173SLPC  H11A19506   2.884   2.046   8.056 -0.3304  2.4756  0.9389
  173SLPC  H11B19507   2.711   2.094   8.033 -0.3776 -1.7149 -0.8727
  173SLPC     P19508   2.600   1.852   8.091 -0.1717  0.2357 -0.1552
  173SLPC   O1319509   2.599   1.711   8.044 -0.2439 -0.1495  0.1766
  173SLPC   O1419510   2.542   1.886   8.222  0.7378 -0.3495 -0.0935
  173SLPC   O1219511   2.756   1.891   8.085 -0.5081 -0.5414 -1.0050
  173SLPC   O1119512   2.538   1.950   7.977  0.3813  0.3448 -0.4792
  173SLPC    C119513   2.562   1.945   7.839  0.3943  0.2815 -0.0106
  173SLPC    HA19514   2.660   1.994   7.820  0.8562 -0.6841 -0.1739
  173SLPC    HB19515   2.574   1.841   7.803 -1.3664  0.3701 -0.9514
  173SLPC    C219516   2.454   2.012   7.743  0.3879 -0.3882  0.1856
  173SLPC    HS19517   2.451   2.120   7.768  0.8860  0.2134 -2.1375
  173SLPC   O2119518   2.326   1.948   7.774 -0.2828 -0.2053  0.1097
  173SLPC   C2119519   2.244   2.018   7.843  0.2210 -0.1291 -0.1816
  173SLPC   O2219520   2.254   2.138   7.868  0.0376 -0.2174  0.4654
  173SLPC   C2219521   2.135   1.921   7.884  0.2338  0.5476 -0.0880
  173SLPC   H2R19522   2.169   1.815   7.875  1.0532  0.9440 -2.8160
  173SLPC   H2S19523   2.098   1.956   7.982  0.2626  1.8103 -0.5068
  173SLPC    C319524   2.496   2.006   7.593  0.1521  0.4357  0.2893
  173SLPC    HX19525   2.482   1.904   7.552 -2.1084  1.2300 -1.0662
  173SLPC    HY19526   2.605   2.025   7.585  0.3518 -0.9565 -0.6475
  173SLPC   O3119527   2.416   2.094   7.511  0.5835 -0.5997 -0.3161
  173SLPC   C3119528   2.426   2.225   7.530 -0.9777  0.1386  0.2283
  173SLPC   O3219529   2.507   2.276   7.600  0.0040 -0.0057 -0.4447
  173SLPC   C3219530   2.322   2.299   7.443 -0.1218 -0.7290 -0.0615
  173SLPC   H2X19531   2.218   2.277   7.477 -0.4477  4.3831  3.4871
  173SLPC   H2Y19532   2.340   2.267   7.338 -1.4857 -0.9085 -0.2624
  173SLPC   C2319533   2.025   1.940   7.781 -0.0539 -0.0609 -0.4702
  173SLPC   H3R19534   2.011   2.045   7.748 -1.1521  0.0692  0.3310
  173SLPC   H3S19535   1.933   1.911   7.837  0.8161 -0.5312  0.7489
  173SLPC   C2419536   2.049   1.841   7.662 -0.2044 -0.4781 -0.5232
  173SLPC   H4R19537   2.021   1.738   7.692  0.6929 -0.3948  0.6897
  173SLPC   H4S19538   2.156   1.834   7.636 -0.3952  0.0411 -1.5017
  173SLPC   C2519539   1.968   1.876   7.534 -0.7507 -0.7487 -0.1010
  173SLPC   H5R19540   1.867   1.911   7.567 -0.4575 -0.4302  0.4678
  173SLPC   H5S19541   1.948   1.787   7.470  0.5668  0.4422 -2.2807
  173SLPC   C2619542   2.045   1.984   7.455 -0.2085 -0.1579  0.2234
  173SLPC   H6R19543   2.150   1.973   7.490 -0.3549 -2.7454  0.0090
  173SLPC   H6S19544   2.009   2.080   7.497  1.2077 -0.6208  2.7452
  173SLPC   C2719545   2.025   1.974   7.301 -0.4435  0.1163 -0.1079
  173SLPC   H7R19546   1.919   2.001   7.280 -0.6927  1.3696  2.3995
  173SLPC   H7S19547   2.031   1.871   7.261 -2.2776 -0.7279  1.5994
  173SLPC   C2819548   2.123   2.063   7.228  0.5115 -0.1700 -0.0345
  173SLPC   H8R19549   2.101   2.171   7.241 -0.3117 -0.0990 -1.8023
  173SLPC   H8S19550   2.101   2.052   7.120  2.1659 -2.8048 -0.1976
  173SLPC   C2919551   2.266   2.032   7.239  0.4261  0.8140 -0.9643
  173SLPC   H9R19552   2.296   2.006   7.342 -0.8967  1.7771 -0.3055
  173SLPC  C21019553   2.361   2.039   7.146  0.1624 -0.6279 -0.0821
  173SLPC  H10R19554   2.462   2.005   7.172  1.0533  0.1834 -2.2367
  173SLPC  C21119555   2.334   2.074   6.997  0.3400  0.4763  0.1132
  173SLPC  H11R19556   2.252   2.149   6.988 -0.5646 -0.3747  0.9241
  173SLPC  H11S19557   2.306   1.978   6.949 -2.1646  0.6220  1.1094
  173SLPC  C21219558   2.467   2.134   6.960 -0.4258  0.2911  0.0972
  173SLPC  H12R19559   2.467   2.244   6.964  1.7012  0.3632 -0.6739
  173SLPC  C21319560   2.581   2.074   6.911  0.4215  0.4718  0.5484
  173SLPC  H13R19561   2.677   2.122   6.886  0.3368 -0.2798 -1.3720
  173SLPC  C21419562   2.587   1.928   6.885 -0.7076 -0.0966 -0.2920
  173SLPC  H14R19563   2.499   1.874   6.927 -0.3289 -0.4056  0.1006
  173SLPC  H14S19564   2.670   1.877   6.937 -1.8672 -0.6004  1.1348
  173SLPC  C21519565   2.604   1.897   6.733 -0.3905  0.3109 -0.4335
  173SLPC  H15R19566   2.691   1.949   6.689 -0.9483 -0.2636 -2.2823
  173SLPC  H15S19567   2.508   1.920   6.681 -0.1405  0.2247 -0.9347
  173SLPC  C21619568   2.621   1.753   6.707 -0.0900  0.1282 -0.4039
  173SLPC  H16R19569   2.538   1.692   6.749  1.0065  0.2528  2.0988
  173SLPC  H16S19570   2.709   1.716   6.763 -1.4653 -1.3020  0.9101
  173SLPC  C21719571   2.642   1.708   6.560  0.5542 -0.0199  0.5475
  173SLPC  H17R19572   2.750   1.699   6.539  0.4858  0.2390  0.0881
  173SLPC  H17S19573   2.608   1.786   6.489 -1.0028  1.5079  2.8504
  173SLPC  C21819574   2.575   1.569   6.519  0.3160 -0.4817 -0.3439
  173SLPC  H18R19575   2.631   1.478   6.549 -1.1507 -0.9548  1.1854
  173SLPC  H18S19576   2.558   1.569   6.410 -1.5562  2.5588 -0.1706
  173SLPC  H18T19577   2.479   1.550   6.573 -0.6054  2.4681 -0.7673
  173SLPC   C3319578   2.342   2.450   7.448 -0.8586  0.0787  0.3745
  173SLPC   H3X19579   2.442   2.481   7.410 -1.6048 -0.6605 -2.4104
  173SLPC   H3Y19580   2.329   2.481   7.554  0.7673 -0.3584  0.7364
  173SLPC   C3419581   2.241   2.533   7.373  0.3733  0.2090  1.0095
  173SLPC   H4X19582   2.269   2.640   7.374 -0.7118  0.5576  4.0632
  173SLPC   H4Y19583   2.141   2.519   7.420  0.4707  1.0828  1.4848
  173SLPC   C3519584   2.228   2.489   7.223  0.2715 -0.0297 -0.6333
  173SLPC   H5X19585   2.184   2.386   7.227 -0.1796  0.1634 -0.5136
  173SLPC   H5Y19586   2.329   2.466   7.185  0.6768  0.8114 -0.0894
  173SLPC   C3619587   2.153   2.587   7.136  0.2144  0.1754  0.2626
  173SLPC   H6X19588   2.219   2.675   7.122  0.6502 -0.0884  0.5944
  173SLPC   H6Y19589   2.062   2.630   7.182  0.4790 -0.5728  1.5346
  173SLPC   C3719590   2.121   2.523   7.007 -0.2475  0.1057  0.2296
  173SLPC   H7X19591   2.051   2.586   6.949  0.1004  0.8426  0.6034
  173SLPC   H7Y19592   2.084   2.419   7.027  0.7839 -0.5483 -1.1355
  173SLPC   C3819593   2.248   2.509   6.913  1.0390  0.1162 -0.1891
  173SLPC   H8X19594   2.310   2.425   6.953  2.4125 -0.3115 -2.9751
  173SLPC   H8Y19595   2.297   2.608   6.916 -1.0837  1.2106  1.3061
  173SLPC   C3919596   2.221   2.478   6.768  0.4184  0.2831 -0.1433
  173SLPC   H9X19597   2.160   2.560   6.725  0.2563  0.3198  0.1511
  173SLPC   H9Y19598   2.149   2.393   6.770 -2.2814  2.3890 -1.4486
  173SLPC  C31019599   2.341   2.430   6.684 -0.1944 -0.1365 -0.9748
  173SLPC  H10X19600   2.293   2.371   6.603  0.4331 -1.0328 -0.7047
  173SLPC  H10Y19601   2.401   2.358   6.743 -0.5677 -0.2569 -0.7344
  173SLPC  C31119602   2.411   2.548   6.630 -0.1852  0.2353  0.3275
  173SLPC  H11X19603   2.485   2.488   6.573  1.6719  0.2936  2.5672
  173SLPC  H11Y19604   2.463   2.605   6.709  0.3465  1.6952 -1.0134
  173SLPC  C31219605   2.335   2.644   6.534 -0.2678 -0.0913 -0.2715
  173SLPC  H12X19606   2.262   2.706   6.590 -0.8313 -1.0607  0.0919
  173SLPC  H12Y19607   2.274   2.584   6.463 -1.5637  2.2672 -1.2823
  173SLPC  C31319608   2.435   2.737   6.466 -0.0473 -0.2056 -0.5287
  173SLPC  H13X19609   2.523   2.682   6.426  2.4334  0.5580  3.3132
  173SLPC  H13Y19610   2.482   2.797   6.547 -0.2905 -3.5538  2.3389
  173SLPC  C31419611   2.370   2.835   6.368  0.2733  0.0248 -0.2843
  173SLPC  H14X19612   2.291   2.894   6.420  0.3550 -0.5912  0.5784
  173SLPC  H14Y19613   2.320   2.779   6.287 -1.9451  2.5088 -0.7566
  173SLPC  C31519614   2.473   2.923   6.286  0.0054 -0.4301 -0.3179
  173SLPC  H15X19615   2.553   2.858   6.244  2.6622  1.7815  0.9228
  173SLPC  H15Y19616   2.523   2.994   6.356  2.1402 -2.6127  0.5370
  173SLPC  C31619617   2.400   3.000   6.167  0.7288  0.8221 -0.0654
  173SLPC  H16X19618   2.345   3.086   6.212  1.2300  0.5294  1.1668
  173SLPC  H16Y19619   2.329   2.927   6.123  0.5987  0.3597  0.8907
  173SLPC  C31719620   2.503   3.041   6.066  0.3719 -0.0627 -0.5947
  173SLPC  H17X19621   2.539   2.955   6.006 -0.8582  1.0284 -3.0213
  173SLPC  H17Y19622   2.582   3.095   6.122 -0.8077  0.7265  0.3648
  173SLPC  C31819623   2.447   3.137   5.958 -0.4950 -0.1129  0.0036
  173SLPC  H18X19624   2.369   3.081   5.902 -0.0485 -0.6194 -0.1183
  173SLPC  H18Y19625   2.533   3.159   5.891  0.6965 -0.4397  1.3707
  173SLPC  H18Z19626   2.403   3.229   6.002 -0.5154  0.3251 -0.9108
  174SLPC     N19627   3.809   0.799   8.212 -0.1494 -0.1297  0.0413
  174SLPC   C1319628   3.733   0.928   8.235 -1.1206 -0.1647  0.2607
  174SLPC  H13A19629   3.778   1.015   8.189 -2.7460 -0.1981 -1.5096
  174SLPC  H13B19630   3.645   0.934   8.173  0.2749  0.8342 -1.7437
  174SLPC  H13C19631   3.719   0.949   8.340  0.6558  3.1299 -0.0068
  174SLPC   C1419632   3.721   0.679   8.243 -0.6906 -0.1925 -0.3186
  174SLPC  H14A19633   3.631   0.682   8.185 -0.3154  0.2514 -0.8894
  174SLPC  H14B19634   3.775   0.585   8.234 -0.5740 -0.1558 -0.0361
  174SLPC  H14C19635   3.695   0.678   8.348  2.0753 -2.7911  0.4965
  174SLPC   C1519636   3.927   0.796   8.307 -0.2000  0.5952  0.3271
  174SLPC  H15A19637   3.904   0.800   8.413 -1.4181  1.6962  0.0504
  174SLPC  H15B19638   3.995   0.718   8.277 -0.2586  1.3216 -1.8606
  174SLPC  H15C19639   3.992   0.880   8.291 -0.0554  0.4661  0.2288
  174SLPC   C1219640   3.858   0.804   8.065  0.0771  0.1105 -0.1451
  174SLPC  H12A19641   3.772   0.784   8.002  0.0926  0.3823 -0.2581
  174SLPC  H12B19642   3.911   0.714   8.040  0.1952 -0.1165  0.8967
  174SLPC   C1119643   3.951   0.920   8.014  0.3087 -0.7799  0.2304
  174SLPC  H11A19644   3.991   0.904   7.912 -0.8952  3.0393 -0.9916
  174SLPC  H11B19645   4.039   0.916   8.082 -0.2203 -2.3110  0.8878
  174SLPC     P19646   3.781   1.097   7.896 -0.5210  0.0589 -0.0033
  174SLPC   O1319647   3.652   1.029   7.918  0.0430 -0.3550 -0.3637
  174SLPC   O1419648   3.788   1.245   7.896 -0.6718  0.0640  0.9219
  174SLPC   O1219649   3.877   1.047   8.010 -0.3998 -0.1595  0.1295
  174SLPC   O1119650   3.849   1.037   7.766  0.1853 -0.2921 -0.4461
  174SLPC    C119651   3.967   1.085   7.702 -0.9060 -0.0421  0.2083
  174SLPC    HA19652   4.013   1.171   7.755 -0.3230  0.8086 -1.5736
  174SLPC    HB19653   4.049   1.009   7.704 -0.6498  0.1623 -1.3045
  174SLPC    C219654   3.932   1.136   7.557 -0.2247 -0.5632 -0.6613
  174SLPC    HS19655   3.837   1.188   7.578  0.2582 -0.3471  1.1414
  174SLPC   O2119656   3.937   1.017   7.474  0.1481 -0.4359 -0.6985
  174SLPC   C2119657   3.841   1.009   7.394  0.4895 -0.6183  0.6508
  174SLPC   O2219658   3.750   1.091   7.377  0.1191 -0.4127  0.1097
  174SLPC   C2219659   3.855   0.872   7.320  0.6103  0.6250  0.3544
  174SLPC   H2R19660   3.950   0.880   7.263  1.9925 -0.0920  2.4509
  174SLPC   H2S19661   3.867   0.793   7.397 -1.1856 -2.9132 -2.7032
  174SLPC    C319662   4.030   1.241   7.495 -0.1147 -0.0853 -0.3523
  174SLPC    HX19663   4.134   1.206   7.510 -0.6874 -1.9432 -0.4722
  174SLPC    HY19664   4.022   1.341   7.542 -0.1993 -0.6872  0.9930
  174SLPC   O3119665   4.009   1.259   7.353  0.1479  0.0301  0.1921
  174SLPC   C3119666   3.913   1.335   7.315 -0.7097 -0.2360  0.2973
  174SLPC   O3219667   3.831   1.395   7.385 -0.5116 -0.4941 -0.1937
  174SLPC   C3219668   3.912   1.338   7.163 -0.6704  0.3298  0.5830
  174SLPC   H2X19669   3.948   1.241   7.121  1.3167  1.6426 -0.9173
  174SLPC   H2Y19670   3.990   1.413   7.138 -0.3183  0.6314  2.4298
  174SLPC   C2319671   3.743   0.839   7.219  0.3993  0.2693  0.6015
  174SLPC   H3R19672   3.643   0.826   7.264 -0.6582  2.2470 -1.0096
  174SLPC   H3S19673   3.767   0.737   7.181  1.3119 -0.1016  2.0742
  174SLPC   C2419674   3.739   0.931   7.098  0.3500  0.1880 -0.2479
  174SLPC   H4R19675   3.846   0.955   7.078  0.2846  0.8912  0.2009
  174SLPC   H4S19676   3.703   1.030   7.133  2.2358  0.7940  0.1143
  174SLPC   C2519677   3.665   0.892   6.971  0.7888  0.5299  0.0796
  174SLPC   H5R19678   3.557   0.898   6.995  0.7508  1.9173 -0.3413
  174SLPC   H5S19679   3.695   0.788   6.949  1.1999  0.7514 -0.4376
  174SLPC   C2619680   3.701   0.977   6.846  0.2629 -0.0097 -0.2608
  174SLPC   H6R19681   3.812   0.982   6.851  0.3682 -1.4689 -0.6850
  174SLPC   H6S19682   3.665   1.081   6.838  3.8302  1.3522 -0.3056
  174SLPC   C2719683   3.651   0.893   6.730 -0.3823 -0.6174  0.0195
  174SLPC   H7R19684   3.543   0.868   6.732 -0.8997  1.3980 -0.5752
  174SLPC   H7S19685   3.719   0.805   6.717  2.2356  1.2321  0.3872
  174SLPC   C2819686   3.665   0.979   6.600 -1.0292  0.4021 -0.5301
  174SLPC   H8R19687   3.763   1.032   6.596 -0.2661 -0.8173  0.6922
  174SLPC   H8S19688   3.591   1.060   6.610 -1.0115  0.6377 -2.0796
  174SLPC   C2919689   3.647   0.891   6.477  0.1966 -0.8363  1.3550
  174SLPC   H9R19690   3.559   0.825   6.475 -1.2726  1.0292 -0.6999
  174SLPC  C21019691   3.728   0.892   6.375 -0.7406  0.4712 -0.4503
  174SLPC  H10R19692   3.697   0.850   6.278  0.1580 -0.1142 -0.4983
  174SLPC  C21119693   3.852   0.982   6.354 -0.1274  0.5815  0.0553
  174SLPC  H11R19694   3.934   0.915   6.388 -0.2038 -0.3445 -1.4933
  174SLPC  H11S19695   3.859   1.061   6.433  0.8624 -2.2205  2.9797
  174SLPC  C21219696   3.874   1.043   6.221  0.1251  0.0586  0.3715
  174SLPC  H12R19697   3.859   1.152   6.220 -2.7007 -0.2493  0.5559
  174SLPC  C21319698   3.893   0.986   6.096 -0.0447  0.0645 -0.4818
  174SLPC  H13R19699   3.891   1.043   6.002 -0.1479  2.8761  1.1069
  174SLPC  C21419700   3.919   0.834   6.074  0.0662  0.7436  0.3325
  174SLPC  H14R19701   3.936   0.789   6.173 -1.7600  2.2678  1.4239
  174SLPC  H14S19702   4.004   0.809   6.007  0.6227 -0.8056  1.5572
  174SLPC  C21519703   3.797   0.765   6.015  0.1984 -0.3936  0.0986
  174SLPC  H15R19704   3.711   0.817   6.063 -0.3630 -1.3814  0.1835
  174SLPC  H15S19705   3.801   0.654   6.022 -2.5365 -0.5889 -0.3471
  174SLPC  C21619706   3.781   0.793   5.859 -0.2055  0.9737  0.2576
  174SLPC  H16R19707   3.857   0.736   5.801 -0.3049 -0.2165  1.2610
  174SLPC  H16S19708   3.799   0.902   5.843  1.3433  0.5680 -0.9371
  174SLPC  C21719709   3.638   0.767   5.794 -0.2439  0.0622 -0.4499
  174SLPC  H17R19710   3.645   0.796   5.687  0.3510 -1.3253 -0.8076
  174SLPC  H17S19711   3.560   0.824   5.848 -0.6490  0.6488 -1.6221
  174SLPC  C21819712   3.594   0.620   5.811  0.3559  0.8508 -0.3612
  174SLPC  H18R19713   3.606   0.600   5.920  0.9197  2.4540 -0.1029
  174SLPC  H18S19714   3.659   0.556   5.747 -0.1328 -0.1250  0.0967
  174SLPC  H18T19715   3.490   0.590   5.786  0.9121 -0.7606 -0.9271
  174SLPC   C3319716   3.772   1.365   7.104  1.0821 -0.1992  0.1763
  174SLPC   H3X19717   3.740   1.470   7.121 -0.8803 -0.7915  0.4102
  174SLPC   H3Y19718   3.697   1.300   7.154  1.2268 -0.2078  0.3814
  174SLPC   C3419719   3.772   1.351   6.948 -0.0490  0.5871  0.1461
  174SLPC   H4X19720   3.666   1.336   6.920  0.4722 -1.4445 -0.8953
  174SLPC   H4Y19721   3.833   1.259   6.934 -0.6545 -0.2487  2.5788
  174SLPC   C3519722   3.829   1.473   6.875 -0.1907  0.2616  0.9973
  174SLPC   H5X19723   3.932   1.502   6.903  0.3278 -1.2627  0.7600
  174SLPC   H5Y19724   3.763   1.561   6.893 -1.5524 -0.8941  1.8498
  174SLPC   C3619725   3.830   1.453   6.719 -0.8165 -0.1252  1.1451
  174SLPC   H6X19726   3.729   1.421   6.686 -0.4874  0.0130 -0.0614
  174SLPC   H6Y19727   3.892   1.373   6.674 -4.9895 -1.6826 -2.6212
  174SLPC   C3719728   3.869   1.583   6.647  0.4265 -1.2530  0.0304
  174SLPC   H7X19729   3.975   1.612   6.662  0.4959 -0.4896 -1.7526
  174SLPC   H7Y19730   3.814   1.667   6.693  1.8337 -1.4649  2.2498
  174SLPC   C3819731   3.837   1.588   6.497 -0.2957 -0.1766 -0.1560
  174SLPC   H8X19732   3.866   1.687   6.455  2.0837  0.3049  2.3838
  174SLPC   H8Y19733   3.729   1.575   6.474 -0.2460  2.1909 -2.1265
  174SLPC   C3919734   3.919   1.486   6.414  0.3887  0.1518  0.3123
  174SLPC   H9X19735   3.893   1.380   6.438 -2.0556  0.1783 -1.8138
  174SLPC   H9Y19736   4.029   1.501   6.427  0.5404  0.2001 -0.8587
  174SLPC  C31019737   3.884   1.501   6.264  0.6850  0.1965 -0.5154
  174SLPC  H10X19738   3.891   1.609   6.238  0.2344  0.6153  1.0024
  174SLPC  H10Y19739   3.778   1.474   6.246  0.8266 -0.5101 -0.3143
  174SLPC  C31119740   3.979   1.427   6.172  0.1750  0.6492 -0.0311
  174SLPC  H11X19741   3.987   1.320   6.204 -2.6233  0.3546 -0.0448
  174SLPC  H11Y19742   4.076   1.477   6.192  0.1173  2.3253 -3.3878
  174SLPC  C31219743   3.944   1.441   6.026 -0.1477 -0.3367 -0.3127
  174SLPC  H12X19744   4.025   1.393   5.967 -0.1750 -0.3253 -0.3591
  174SLPC  H12Y19745   3.952   1.550   6.002  0.5596 -0.0266  1.1709
  174SLPC  C31319746   3.810   1.388   5.981  0.4179 -0.6598  0.5046
  174SLPC  H13X19747   3.725   1.443   6.027 -0.0775 -1.4161  0.5121
  174SLPC  H13Y19748   3.811   1.277   5.988  2.7503 -0.6700  0.7001
  174SLPC  C31419749   3.804   1.415   5.833  0.4165 -0.3602 -0.4311
  174SLPC  H14X19750   3.895   1.376   5.784  0.1198 -1.8776  0.1840
  174SLPC  H14Y19751   3.802   1.526   5.828  0.3184 -0.3360  0.1174
  174SLPC  C31519752   3.680   1.363   5.759  0.3444 -0.0329 -0.2502
  174SLPC  H15X19753   3.687   1.375   5.649 -0.0534  3.1265 -0.0218
  174SLPC  H15Y19754   3.584   1.409   5.794  0.4162  0.2018 -0.3616
  174SLPC  C31619755   3.672   1.208   5.771  0.3832  0.6280 -0.0326
  174SLPC  H16X19756   3.648   1.183   5.877 -2.6305 -0.5307 -0.8696
  174SLPC  H16Y19757   3.774   1.167   5.755  0.1859 -0.8748  2.0879
  174SLPC  C31719758   3.572   1.147   5.667  0.4036  0.5432 -0.2943
  174SLPC  H17X19759   3.585   1.037   5.661 -0.5964  0.1681  2.8998
  174SLPC  H17Y19760   3.603   1.187   5.568  1.4710  1.4286  0.3794
  174SLPC  C31819761   3.424   1.177   5.698  0.0752  0.2644  1.0760
  174SLPC  H18X19762   3.407   1.121   5.793 -0.3244 -1.5356  0.0014
  174SLPC  H18Y19763   3.353   1.134   5.625  0.8983  1.1379 -0.2868
  174SLPC  H18Z19764   3.410   1.287   5.707  1.5748  0.9249 -2.8206
  175SLPC     N19765   6.814   5.493   8.531  0.3521 -0.0559  0.0258
  175SLPC   C1319766   6.678   5.543   8.525 -0.2591 -0.4418  0.3734
  175SLPC  H13A19767   6.599   5.472   8.545 -1.6401  1.1622  0.9049
  175SLPC  H13B19768   6.653   5.624   8.592  0.6299  0.9748 -0.9363
  175SLPC  H13C19769   6.649   5.572   8.425  0.3093 -4.1730 -1.0516
  175SLPC   C1419770   6.837   5.420   8.660 -0.0650 -0.2915 -0.2704
  175SLPC  H14A19771   6.834   5.477   8.751  0.9604  2.0322 -1.6009
  175SLPC  H14B19772   6.768   5.337   8.671 -0.6674  0.3058  0.5131
  175SLPC  H14C19773   6.940   5.386   8.654  0.2821  0.9218 -2.1593
  175SLPC   C1519774   6.911   5.611   8.545  0.3924 -0.3412 -0.0989
  175SLPC  H15A19775   7.011   5.576   8.567  0.5794  0.6334  0.6431
  175SLPC  H15B19776   6.905   5.673   8.457  1.0983 -1.2233 -0.7892
  175SLPC  H15C19777   6.877   5.668   8.630  0.0813  0.8364 -0.9781
  175SLPC   C1219778   6.857   5.414   8.408  0.2635  0.1969  0.1735
  175SLPC  H12A19779   6.964   5.403   8.417  0.4383 -1.6576 -2.8728
  175SLPC  H12B19780   6.836   5.466   8.316 -0.4913 -0.6619 -0.1522
  175SLPC   C1119781   6.801   5.269   8.381  0.1798  0.2749 -0.3557
  175SLPC  H11A19782   6.811   5.214   8.478  1.1345  0.5208 -0.3043
  175SLPC  H11B19783   6.869   5.219   8.309  0.1318 -1.8606  0.9647
  175SLPC     P19784   6.638   5.288   8.193 -0.1771  0.1090 -0.3322
  175SLPC   O1319785   6.700   5.180   8.112 -0.3662  0.4656 -0.2867
  175SLPC   O1419786   6.498   5.314   8.166  0.7194  0.1112  0.0102
  175SLPC   O1219787   6.663   5.279   8.346 -0.3081 -0.0424 -0.0617
  175SLPC   O1119788   6.710   5.417   8.159  0.4620  0.3966  0.1215
  175SLPC    C119789   6.636   5.532   8.116  0.2097 -0.2010 -0.0725
  175SLPC    HA19790   6.542   5.548   8.173  0.5242 -1.7647  0.9439
  175SLPC    HB19791   6.703   5.619   8.136  0.9565 -1.1621  1.8650
  175SLPC    C219792   6.615   5.541   7.969  0.4639 -0.1637  0.5906
  175SLPC    HS19793   6.527   5.482   7.937 -0.1446  1.0930 -0.1751
  175SLPC   O2119794   6.733   5.500   7.910  0.0770 -0.5833  0.5104
  175SLPC   C2119795   6.728   5.433   7.789  0.2101 -0.6434 -0.2494
  175SLPC   O2219796   6.622   5.385   7.748 -0.1955 -0.0639 -0.2506
  175SLPC   C2219797   6.863   5.442   7.729  0.2220  0.0243 -0.7562
  175SLPC   H2R19798   6.879   5.552   7.717 -0.9592  0.4995  1.4919
  175SLPC   H2S19799   6.945   5.411   7.797 -1.3434 -1.1026  0.6903
  175SLPC    C319800   6.569   5.690   7.929  0.0322  0.7512  0.1905
  175SLPC    HX19801   6.645   5.759   7.972 -2.2174  1.5368  3.2145
  175SLPC    HY19802   6.480   5.707   7.993  0.3063 -2.2661  1.5506
  175SLPC   O3119803   6.565   5.713   7.791 -0.1936 -0.6725 -0.6908
  175SLPC   C3119804   6.449   5.695   7.732  0.0822 -0.0173  0.0971
  175SLPC   O3219805   6.347   5.669   7.798 -0.2599 -0.1239  0.5521
  175SLPC   C3219806   6.463   5.696   7.586  0.3113  0.3220 -0.2045
  175SLPC   H2X19807   6.564   5.735   7.564  0.3505  0.5854  0.4285
  175SLPC   H2Y19808   6.394   5.773   7.545 -1.1215 -1.2218 -0.8467
  175SLPC   C2319809   6.853   5.378   7.583 -0.4217 -0.6460  0.0534
  175SLPC   H3R19810   6.765   5.408   7.522  0.5759 -0.7068 -1.4497
  175SLPC   H3S19811   6.845   5.269   7.600 -0.7192 -0.6258  0.0573
  175SLPC   C2419812   6.973   5.424   7.498  0.1962 -0.1818 -0.7391
  175SLPC   H4R19813   7.058   5.363   7.534 -0.9516  0.0491  2.7263
  175SLPC   H4S19814   6.991   5.530   7.528 -0.5061 -0.5353  1.0744
  175SLPC   C2519815   6.947   5.406   7.344  0.6745 -0.0074  0.2586
  175SLPC   H5R19816   6.872   5.484   7.318 -0.4846 -1.1483  0.0887
  175SLPC   H5S19817   6.906   5.303   7.350  1.2420 -0.2512  0.0440
  175SLPC   C2619818   7.079   5.434   7.258  0.0927 -0.6199 -0.3747
  175SLPC   H6R19819   7.162   5.374   7.302  2.2007  1.5112 -1.2339
  175SLPC   H6S19820   7.110   5.537   7.288 -1.4104 -0.6881  1.6559
  175SLPC   C2719821   7.057   5.428   7.110 -0.6779 -0.7458 -0.1105
  175SLPC   H7R19822   6.964   5.480   7.077 -0.2638  0.1557  0.1155
  175SLPC   H7S19823   7.045   5.327   7.064 -1.3919 -0.4673 -0.5522
  175SLPC   C2819824   7.173   5.506   7.037  1.1124  0.4080 -0.7968
  175SLPC   H8R19825   7.152   5.489   6.929 -0.5806 -0.4411 -0.3699
  175SLPC   H8S19826   7.274   5.466   7.060  0.4359 -0.6944  0.4198
  175SLPC   C2919827   7.179   5.659   7.050 -0.0599  0.1782 -0.2389
  175SLPC   H9R19828   7.165   5.687   7.155 -0.5777 -1.4061  0.1341
  175SLPC  C21019829   7.162   5.749   6.954 -0.5713 -0.6427 -0.8357
  175SLPC  H10R19830   7.168   5.852   6.990 -1.6638  0.1582 -2.7972
  175SLPC  C21119831   7.167   5.730   6.802  0.2299 -0.6484 -0.3325
  175SLPC  H11R19832   7.075   5.678   6.767  1.2030 -1.4056 -1.8763
  175SLPC  H11S19833   7.248   5.665   6.763  1.4367  0.3886  0.3395
  175SLPC  C21219834   7.175   5.861   6.724 -0.2932  0.4465  1.0145
  175SLPC  H12R19835   7.120   5.951   6.756 -1.1916  1.0971 -2.0392
  175SLPC  C21319836   7.237   5.880   6.611 -0.3719  0.3424  0.1604
  175SLPC  H13R19837   7.236   5.979   6.564 -1.6110 -0.6706 -2.1281
  175SLPC  C21419838   7.313   5.771   6.546 -0.2728  1.2660  0.0701
  175SLPC  H14R19839   7.247   5.681   6.541 -1.4971  2.1649 -0.5401
  175SLPC  H14S19840   7.408   5.750   6.600 -1.4903  0.4009  1.9917
  175SLPC  C21519841   7.342   5.799   6.396 -0.0523 -1.1133 -0.5364
  175SLPC  H15R19842   7.414   5.724   6.357 -0.1053  0.5861 -4.3017
  175SLPC  H15S19843   7.388   5.900   6.393  1.1905 -1.6219  0.5109
  175SLPC  C21619844   7.220   5.795   6.309 -0.1583 -0.4854  0.4609
  175SLPC  H16R19845   7.137   5.865   6.336  0.5420  0.3876  0.3996
  175SLPC  H16S19846   7.185   5.691   6.325 -0.1542 -0.5379  0.1333
  175SLPC  C21719847   7.253   5.807   6.160  0.8184 -0.0253 -0.0405
  175SLPC  H17R19848   7.173   5.773   6.090 -0.1301 -1.4398  1.6541
  175SLPC  H17S19849   7.350   5.755   6.146  0.3723 -0.5572 -1.3371
  175SLPC  C21819850   7.289   5.956   6.129  0.1846 -0.2132  0.3564
  175SLPC  H18R19851   7.321   5.970   6.024  2.3191 -0.3404  0.9369
  175SLPC  H18S19852   7.381   5.984   6.185  1.8848  0.8297 -2.7436
  175SLPC  H18T19853   7.207   6.024   6.162 -0.1903 -0.2293 -0.5258
  175SLPC   C3319854   6.419   5.564   7.523  0.1744 -0.2165 -0.5197
  175SLPC   H3X19855   6.322   5.521   7.555  0.0023 -0.2388 -1.0749
  175SLPC   H3Y19856   6.490   5.482   7.545  2.0527  0.3828 -3.7174
  175SLPC   C3419857   6.399   5.586   7.374  0.0813  0.2982  0.1198
  175SLPC   H4X19858   6.317   5.661   7.363 -2.1652 -2.1927 -1.3329
  175SLPC   H4Y19859   6.351   5.497   7.327 -3.1111  2.8323 -1.9067
  175SLPC   C3519860   6.516   5.639   7.297  0.3851  0.3380 -0.1304
  175SLPC   H5X19861   6.599   5.571   7.326  1.4412  0.3476 -2.8866
  175SLPC   H5Y19862   6.536   5.744   7.326  0.0829  0.0833  1.0785
  175SLPC   C3619863   6.508   5.620   7.143 -0.3673 -0.6158 -0.3313
  175SLPC   H6X19864   6.415   5.668   7.107 -0.1400 -0.5190 -0.7970
  175SLPC   H6Y19865   6.506   5.511   7.120 -0.9634 -0.6181 -0.2855
  175SLPC   C3719866   6.631   5.661   7.056 -0.7385  0.6370 -0.2203
  175SLPC   H7X19867   6.715   5.603   7.101 -0.9233  0.4206 -0.1559
  175SLPC   H7Y19868   6.647   5.771   7.057  1.6871  0.4030 -2.2388
  175SLPC   C3819869   6.616   5.622   6.902  0.2972  0.0297 -0.5548
  175SLPC   H8X19870   6.513   5.640   6.865 -0.3508 -3.7922 -0.9913
  175SLPC   H8Y19871   6.638   5.513   6.898 -0.9636 -0.3593  1.6723
  175SLPC   C3919872   6.718   5.691   6.816  0.1802  0.5380 -0.1694
  175SLPC   H9X19873   6.818   5.660   6.853  0.0029  1.6242  1.2928
  175SLPC   H9Y19874   6.711   5.798   6.843  2.2270  0.6652 -0.0137
  175SLPC  C31019875   6.701   5.671   6.668 -0.5281 -0.2511  0.1087
  175SLPC  H10X19876   6.592   5.659   6.648 -0.2386 -2.7009 -0.2615
  175SLPC  H10Y19877   6.756   5.580   6.636 -0.6986  0.2618 -1.7621
  175SLPC  C31119878   6.764   5.789   6.585 -0.0960 -0.3947  0.1719
  175SLPC  H11X19879   6.873   5.801   6.602  0.2739 -2.7944 -0.2146
  175SLPC  H11Y19880   6.714   5.882   6.619  1.7285  0.3742  0.8856
  175SLPC  C31219881   6.750   5.760   6.426 -0.1470  0.0700 -0.1636
  175SLPC  H12X19882   6.643   5.746   6.398 -0.4080 -1.1888  1.2623
  175SLPC  H12Y19883   6.803   5.663   6.413 -0.1511 -0.1182  1.0988
  175SLPC  C31319884   6.823   5.854   6.334 -0.1084 -0.0454 -0.0642
  175SLPC  H13X19885   6.932   5.831   6.340 -0.4265 -1.6561  0.0358
  175SLPC  H13Y19886   6.800   5.952   6.380  1.5645  0.4415 -0.1945
  175SLPC  C31419887   6.782   5.852   6.186  0.1953  0.3676 -0.4324
  175SLPC  H14X19888   6.681   5.899   6.188 -1.4935 -2.8648 -1.8813
  175SLPC  H14Y19889   6.762   5.750   6.147 -0.1691 -0.0176  0.7338
  175SLPC  C31519890   6.882   5.931   6.095 -0.7426  0.7140  0.6158
  175SLPC  H15X19891   6.978   5.875   6.100 -2.9508 -3.3792  1.2992
  175SLPC  H15Y19892   6.907   6.033   6.132  1.2095  0.6248 -0.3107
  175SLPC  C31619893   6.845   5.944   5.951  0.0092 -0.4361 -0.1391
  175SLPC  H16X19894   6.735   5.963   5.945 -0.1997 -0.6339  2.0758
  175SLPC  H16Y19895   6.850   5.848   5.895  1.0502  0.6291 -1.9317
  175SLPC  C31719896   6.916   6.056   5.874 -0.1300  0.2002  0.7322
  175SLPC  H17X19897   6.928   6.149   5.933  2.4927  0.5174 -0.1783
  175SLPC  H17Y19898   6.853   6.080   5.786 -2.3894  0.9490  2.4659
  175SLPC  C31819899   7.054   5.998   5.834 -0.0488 -0.5809 -0.2822
  175SLPC  H18X19900   7.102   6.073   5.767  1.6748 -1.8162 -0.4998
  175SLPC  H18Y19901   7.048   5.897   5.789 -2.5887  0.2215 -1.9332
  175SLPC  H18Z19902   7.102   5.981   5.933 -2.7759 -1.4549  0.9663
  176SLPC     N19903   0.377   3.982   8.118 -0.1583  0.1048  0.2667
  176SLPC   C1319904   0.502   3.921   8.059  0.2946  0.2107  0.4016
  176SLPC  H13A19905   0.571   3.896   8.138  0.9092  1.3553  0.2459
  176SLPC  H13B19906   0.466   3.830   8.012  2.5767 -1.1713  1.1663
  176SLPC  H13C19907   0.555   3.986   7.992  0.3162  2.1033  2.1763
  176SLPC   C1419908   0.431   4.101   8.194 -0.0111  0.5028 -0.7429
  176SLPC  H14A19909   0.493   4.062   8.273 -0.0751  1.8176 -0.0153
  176SLPC  H14B19910   0.497   4.167   8.141  2.3268 -0.0820  1.2260
  176SLPC  H14C19911   0.351   4.153   8.246  0.5858  0.3839  0.3241
  176SLPC   C1519912   0.312   3.888   8.216  0.0378  0.0363 -0.0710
  176SLPC  H15A19913   0.225   3.938   8.256  1.6646  1.4639  1.9160
  176SLPC  H15B19914   0.290   3.789   8.179 -0.3155 -0.5444  1.6242
  176SLPC  H15C19915   0.370   3.872   8.306  0.6776 -0.2460 -0.5305
  176SLPC   C1219916   0.284   4.024   8.003 -0.1453  0.1205 -0.7598
  176SLPC  H12A19917   0.334   4.097   7.941  0.1327 -0.7375 -1.5728
  176SLPC  H12B19918   0.202   4.075   8.051  1.5712  1.5917  0.7486
  176SLPC   C1119919   0.226   3.914   7.908  0.3343 -0.1076  0.3764
  176SLPC  H11A19920   0.303   3.845   7.868  0.7536 -0.0471  1.0630
  176SLPC  H11B19921   0.175   3.961   7.821  0.1958 -2.8217 -1.0873
  176SLPC     P19922   0.105   3.691   7.987  0.6438 -0.1559  0.1964
  176SLPC   O1319923   0.226   3.637   8.043 -0.1680 -0.1033  0.7057
  176SLPC   O1419924  -0.024   3.666   8.067  0.1864 -0.1054  0.0438
  176SLPC   O1219925   0.117   3.851   7.969  0.0467  0.3801  0.2832
  176SLPC   O1119926   0.085   3.636   7.837 -0.4960  0.5630  0.4249
  176SLPC    C119927   0.179   3.587   7.739 -0.2622  0.3626  0.2077
  176SLPC    HA19928   0.280   3.634   7.750  0.7602 -1.6318 -0.1486
  176SLPC    HB19929   0.203   3.480   7.760 -2.3615 -0.0657  0.6106
  176SLPC    C219930   0.136   3.609   7.595 -0.1363 -0.1776 -0.5031
  176SLPC    HS19931   0.221   3.581   7.529  0.7781 -1.0804  1.0261
  176SLPC   O2119932   0.092   3.742   7.568 -0.3381  0.8330 -0.2782
  176SLPC   C2119933   0.192   3.817   7.515  0.3561 -0.4356 -0.3257
  176SLPC   O2219934   0.302   3.783   7.482 -0.3328  0.2388 -0.3001
  176SLPC   C2219935   0.139   3.956   7.508  0.1041 -0.5165  0.7985
  176SLPC   H2R19936   0.106   3.990   7.608 -0.1432  1.3624  0.1206
  176SLPC   H2S19937   0.210   4.026   7.459 -0.5662 -1.0166 -0.9818
  176SLPC    C319938   0.017   3.523   7.561 -0.4499  0.1907  0.5919
  176SLPC    HX19939  -0.083   3.556   7.599 -1.4833 -0.5020 -1.3865
  176SLPC    HY19940   0.024   3.433   7.625  0.6989  1.3729  2.2132
  176SLPC   O3119941   0.020   3.484   7.424  0.4211 -0.4517 -0.2542
  176SLPC   C3119942  -0.069   3.536   7.348 -0.2840  0.7482  0.0187
  176SLPC   O3219943  -0.167   3.598   7.379  0.3845  0.6693 -0.4821
  176SLPC   C3219944  -0.043   3.510   7.202  0.1444 -0.1147 -0.8589
  176SLPC   H2X19945  -0.028   3.402   7.186  0.2854  0.0500 -1.9448
  176SLPC   H2Y19946   0.051   3.564   7.174  1.3762 -1.5484  0.3837
  176SLPC   C2319947   0.007   3.965   7.432 -0.2087  0.2031  0.4758
  176SLPC   H3R19948  -0.008   4.074   7.419 -0.3786  0.0605 -0.5979
  176SLPC   H3S19949  -0.069   3.908   7.491  0.3924 -0.8585  0.2500
  176SLPC   C2419950   0.021   3.922   7.287 -0.4703  0.4848  0.4182
  176SLPC   H4R19951  -0.079   3.887   7.254 -0.0929  0.1931 -0.4366
  176SLPC   H4S19952   0.089   3.835   7.272  0.5890  0.7858  2.8735
  176SLPC   C2519953   0.073   4.030   7.191  0.4068  0.4039 -0.3683
  176SLPC   H5R19954   0.153   4.085   7.245 -0.3045 -0.5555  1.7852
  176SLPC   H5S19955  -0.019   4.091   7.177 -2.3360 -2.7597  2.2212
  176SLPC   C2619956   0.119   3.983   7.055 -0.0814 -0.2327 -0.0292
  176SLPC   H6R19957   0.203   3.910   7.058  0.1852  0.0977  1.8053
  176SLPC   H6S19958   0.160   4.081   7.022  0.0097  0.0936  1.0246
  176SLPC   C2719959   0.011   3.922   6.959 -0.5494  0.5664 -0.0891
  176SLPC   H7R19960  -0.085   3.977   6.961  0.1848  1.9044 -0.4079
  176SLPC   H7S19961  -0.001   3.823   7.008  0.5429  0.3536 -0.2258
  176SLPC   C2819962   0.076   3.897   6.823 -0.1756 -0.0039  0.1759
  176SLPC   H8R19963   0.172   3.842   6.835 -0.2341 -0.3789 -0.9457
  176SLPC   H8S19964   0.107   3.993   6.777  2.3354 -2.0259 -2.7769
  176SLPC   C2919965  -0.016   3.824   6.732 -0.3251  0.5671 -0.6051
  176SLPC   H9R19966  -0.007   3.715   6.735 -1.7368  0.4355 -0.7093
  176SLPC  C21019967  -0.102   3.879   6.643  0.2555 -0.1135 -0.2465
  176SLPC  H10R19968  -0.155   3.818   6.568  2.0701 -1.2069 -0.7202
  176SLPC  C21119969  -0.121   4.026   6.624  0.1961 -0.2486 -0.2806
  176SLPC  H11R19970  -0.112   4.089   6.715  0.4316 -0.4777 -0.1474
  176SLPC  H11S19971  -0.225   4.042   6.587 -0.8726  1.8326  3.1659
  176SLPC  C21219972  -0.016   4.083   6.531  0.5757 -0.0731  0.3007
  176SLPC  H12R19973   0.077   4.124   6.574  1.3537 -0.5803 -0.8545
  176SLPC  C21319974  -0.031   4.105   6.397  0.6943  0.5613  0.9290
  176SLPC  H13R19975   0.052   4.150   6.342  1.8323  1.0054  2.8981
  176SLPC  C21419976  -0.148   4.054   6.313  0.3763 -0.0088  0.5078
  176SLPC  H14R19977  -0.207   4.130   6.257  2.0414  0.1777 -1.1162
  176SLPC  H14S19978  -0.218   3.991   6.371 -2.7606  0.3121 -2.6318
  176SLPC  C21519979  -0.100   3.956   6.207  0.9155  0.3561 -0.6257
  176SLPC  H15R19980  -0.054   4.012   6.123 -0.9223 -0.4556 -2.2295
  176SLPC  H15S19981  -0.189   3.903   6.167  1.2707 -1.5479  0.9599
  176SLPC  C21619982   0.006   3.851   6.242 -0.6808 -0.4925  0.0206
  176SLPC  H16R19983  -0.030   3.797   6.332 -0.3740 -0.4071  0.1954
  176SLPC  H16S19984   0.097   3.911   6.264 -2.4123  3.0284 -1.6667
  176SLPC  C21719985   0.019   3.749   6.140  0.5471  0.8584  1.3223
  176SLPC  H17R19986   0.027   3.796   6.040 -1.8188  0.1121  0.7148
  176SLPC  H17S19987  -0.071   3.684   6.136  0.9880  0.2999 -1.5701
  176SLPC  C21819988   0.139   3.658   6.168 -0.4992  0.4414  0.1833
  176SLPC  H18R19989   0.228   3.723   6.154  0.1303 -0.2367  0.9214
  176SLPC  H18S19990   0.139   3.579   6.089 -4.0513  0.5075 -0.0213
  176SLPC  H18T19991   0.132   3.622   6.273  0.3158  1.5625  0.6302
  176SLPC   C3319992  -0.157   3.545   7.104  0.1748 -0.6209 -0.6612
  176SLPC   H3X19993  -0.179   3.653   7.106  1.2847 -0.3794  1.3502
  176SLPC   H3Y19994  -0.244   3.491   7.147 -0.2690  0.4293 -0.2244
  176SLPC   C3419995  -0.107   3.489   6.973  0.0891  0.1240  0.3828
  176SLPC   H4X19996  -0.060   3.388   6.979  1.6486  0.8414  0.8038
  176SLPC   H4Y19997  -0.033   3.561   6.931  1.4575 -1.3951  0.0691
  176SLPC   C3519998  -0.216   3.471   6.863  0.1143 -0.3240 -0.2735
  176SLPC   H5X19999  -0.277   3.558   6.834  2.2931  1.1158 -0.8025
  176SLPC   H5Y20000  -0.272   3.386   6.906 -0.6536  0.6919  0.7749
  176SLPC   C3620001  -0.149   3.437   6.725  0.2652  0.3730 -0.2037
  176SLPC   H6X20002  -0.074   3.355   6.727  0.3159  0.4222  2.4908
  176SLPC   H6Y20003  -0.090   3.526   6.693  0.8184 -0.6560 -2.2220
  176SLPC   C3720004  -0.254   3.410   6.619  0.4998 -0.1175 -0.6317
  176SLPC   H7X20005  -0.321   3.498   6.609 -0.1824 -0.6246 -0.5873
  176SLPC   H7Y20006  -0.311   3.319   6.649 -0.6038  1.0231  0.8859
  176SLPC   C3820007  -0.193   3.379   6.476 -0.7523 -0.5049  0.4511
  176SLPC   H8X20008  -0.127   3.289   6.486 -0.9827 -0.6909  0.3161
  176SLPC   H8Y20009  -0.122   3.461   6.452 -1.2095  0.0153  0.8758
  176SLPC   C3920010  -0.296   3.369   6.369 -0.4304 -0.4224 -0.2224
  176SLPC   H9X20011  -0.361   3.459   6.365  0.3282  0.0933 -2.0897
  176SLPC   H9Y20012  -0.353   3.275   6.384 -0.5318 -0.1736  1.0095
  176SLPC  C31020013  -0.229   3.373   6.227 -0.5355 -0.2054 -0.0763
  176SLPC  H10X20014  -0.146   3.301   6.220  0.8442  1.3594 -0.5819
  176SLPC  H10Y20015  -0.189   3.476   6.211 -0.6139 -0.6877 -5.0480
  176SLPC  C31120016  -0.325   3.336   6.119  0.0876  0.1340 -0.1527
  176SLPC  H11X20017  -0.390   3.422   6.091  0.8636 -0.0127 -2.6025
  176SLPC  H11Y20018  -0.383   3.247   6.152  0.0535  1.1509  2.9014
  176SLPC  C31220019  -0.252   3.329   5.980  0.0348  0.2841 -0.1303
  176SLPC  H12X20020  -0.155   3.276   5.995  0.7967  0.8553 -2.6014
  176SLPC  H12Y20021  -0.229   3.436   5.958 -0.5861  0.7944  1.5459
  176SLPC  C31320022  -0.335   3.247   5.874  0.7168 -0.8765  0.0055
  176SLPC  H13X20023  -0.434   3.298   5.863  0.2546 -1.7645 -0.0915
  176SLPC  H13Y20024  -0.357   3.145   5.912  2.5580 -0.6259  1.9209
  176SLPC  C31420025  -0.267   3.224   5.741  0.1736 -0.9384  0.1600
  176SLPC  H14X20026  -0.179   3.157   5.745  0.6927 -0.2443  0.5735
  176SLPC  H14Y20027  -0.224   3.322   5.710 -2.0107 -0.4084 -1.4410
  176SLPC  C31520028  -0.362   3.183   5.621 -0.5049 -0.5137  0.3583
  176SLPC  H15X20029  -0.422   3.091   5.635 -3.9610  1.8907  3.0102
  176SLPC  H15Y20030  -0.292   3.180   5.534  0.8607  2.4700  1.2510
  176SLPC  C31620031  -0.457   3.299   5.587  0.2607 -0.3056  0.9368
  176SLPC  H16X20032  -0.400   3.391   5.560 -0.7075  0.5263  1.6230
  176SLPC  H16Y20033  -0.521   3.322   5.675  0.2527  2.2137  0.3650
  176SLPC  C31720034  -0.548   3.255   5.479 -0.3097  0.2723  0.0621
  176SLPC  H17X20035  -0.588   3.156   5.511  1.4986 -0.3779  0.4161
  176SLPC  H17Y20036  -0.485   3.235   5.389  0.6885  0.9231  0.5992
  176SLPC  C31820037  -0.666   3.350   5.450 -0.3345 -0.1400 -0.5485
  176SLPC  H18X20038  -0.741   3.289   5.396 -0.8174  2.0296 -2.4800
  176SLPC  H18Y20039  -0.641   3.430   5.377 -2.2662  0.1093 -0.9886
  176SLPC  H18Z20040  -0.715   3.383   5.543  0.5227 -1.1289  0.2817
  177SLPC     N20041   6.510   4.110   8.294  0.5538  0.8625 -0.4764
  177SLPC   C1320042   6.601   4.222   8.333 -0.2148  0.1203 -0.0904
  177SLPC  H13A20043   6.629   4.205   8.436  0.3482 -3.1465 -0.6703
  177SLPC  H13B20044   6.692   4.217   8.274  1.0154 -3.3856  1.7921
  177SLPC  H13C20045   6.555   4.318   8.317 -0.9536 -0.3552 -0.9814
  177SLPC   C1420046   6.380   4.120   8.370  0.0940  0.3178  0.3945
  177SLPC  H14A20047   6.309   4.047   8.334 -0.4809  0.9120  0.2920
  177SLPC  H14B20048   6.400   4.112   8.476  1.5562  4.8869  0.6888
  177SLPC  H14C20049   6.327   4.214   8.367 -0.2019  0.1315 -1.6175
  177SLPC   C1520050   6.566   3.976   8.326  0.3088 -0.3303  0.7174
  177SLPC  H15A20051   6.492   3.900   8.306  1.1711 -0.7230 -1.2572
  177SLPC  H15B20052   6.641   3.943   8.256 -1.6995 -2.0603 -0.7525
  177SLPC  H15C20053   6.602   3.959   8.427 -1.0278 -1.5736  1.0180
  177SLPC   C1220054   6.476   4.115   8.145  0.4488  0.1005 -0.4495
  177SLPC  H12A20055   6.436   4.019   8.115  1.3828 -0.9693  1.5343
  177SLPC  H12B20056   6.567   4.107   8.087 -0.2223 -1.7968 -1.3360
  177SLPC   C1120057   6.393   4.238   8.101 -0.1373 -0.4874  0.5644
  177SLPC  H11A20058   6.289   4.240   8.141 -1.4288  0.1995 -2.5048
  177SLPC  H11B20059   6.375   4.222   7.992 -0.0598  0.9524  0.3147
  177SLPC     P20060   6.588   4.403   8.035 -0.0946 -0.0788 -0.5023
  177SLPC   O1320061   6.620   4.547   8.044  0.3374 -0.5548 -0.7466
  177SLPC   O1420062   6.705   4.308   8.054  0.1455 -0.2801  0.1829
  177SLPC   O1220063   6.457   4.363   8.124  0.6146  0.1616  0.4739
  177SLPC   O1120064   6.548   4.370   7.888 -0.5639  0.1785 -0.0522
  177SLPC    C120065   6.446   4.443   7.819  0.6842  0.1620  0.2487
  177SLPC    HA20066   6.362   4.447   7.892 -1.3501 -3.8246 -1.5472
  177SLPC    HB20067   6.480   4.535   7.768  3.7592 -1.7187 -1.3970
  177SLPC    C220068   6.388   4.363   7.699 -0.1133 -0.3119 -0.1149
  177SLPC    HS20069   6.336   4.278   7.747 -0.1005  0.5126  1.4145
  177SLPC   O2120070   6.494   4.314   7.620  0.2201 -0.1636  0.2599
  177SLPC   C2120071   6.462   4.220   7.538 -0.4242  0.1782  0.8520
  177SLPC   O2220072   6.347   4.177   7.526 -0.6804  0.8088  0.4150
  177SLPC   C2220073   6.586   4.160   7.475  0.0054  0.6005  0.6686
  177SLPC   H2R20074   6.672   4.228   7.494 -0.1537  1.3266 -1.0298
  177SLPC   H2S20075   6.607   4.063   7.523  0.3946  0.1754 -0.3319
  177SLPC    C320076   6.275   4.448   7.625  0.1364 -0.2123  0.3560
  177SLPC    HX20077   6.209   4.492   7.703  1.1108  0.9431  0.5583
  177SLPC    HY20078   6.220   4.387   7.549 -1.9999  1.2693  0.6139
  177SLPC   O3120079   6.341   4.555   7.546  0.3611  0.3959  0.1913
  177SLPC   C3120080   6.271   4.603   7.448 -0.0463 -0.7544  0.1958
  177SLPC   O3220081   6.159   4.572   7.419 -0.2311  0.4819 -0.1907
  177SLPC   C3220082   6.356   4.694   7.359  0.2396  0.2461 -0.3283
  177SLPC   H2X20083   6.454   4.715   7.407  0.1104 -3.6506  2.0984
  177SLPC   H2Y20084   6.304   4.792   7.367  3.1435  1.7641  2.6611
  177SLPC   C2320085   6.558   4.130   7.322 -0.2687 -0.8102  0.6861
  177SLPC   H3R20086   6.466   4.068   7.312 -0.5082 -0.3494 -0.0791
  177SLPC   H3S20087   6.645   4.074   7.283  1.1880  1.5978  0.2510
  177SLPC   C2420088   6.539   4.255   7.224  0.2101 -0.1902 -0.4302
  177SLPC   H4R20089   6.640   4.298   7.208  0.6785 -1.1420 -0.1445
  177SLPC   H4S20090   6.480   4.333   7.277  0.0968  0.4082 -1.4335
  177SLPC   C2520091   6.488   4.209   7.089 -0.2450  0.0408 -0.0946
  177SLPC   H5R20092   6.378   4.198   7.092 -0.1196 -1.0230  2.1136
  177SLPC   H5S20093   6.520   4.106   7.063 -1.0874  0.4215 -2.9928
  177SLPC   C2620094   6.523   4.290   6.963  0.3950  0.2320 -0.8452
  177SLPC   H6R20095   6.634   4.282   6.961  0.2757 -2.2560 -1.1180
  177SLPC   H6S20096   6.491   4.395   6.975 -1.4049 -0.5010  1.6338
  177SLPC   C2720097   6.460   4.232   6.837  0.5192  0.2326 -0.2206
  177SLPC   H7R20098   6.352   4.211   6.854  1.0202 -1.8863  0.7103
  177SLPC   H7S20099   6.513   4.134   6.834 -0.2911 -0.1927 -0.9646
  177SLPC   C2820100   6.497   4.317   6.721 -0.9584  0.3844 -0.6148
  177SLPC   H8R20101   6.608   4.318   6.717 -0.9841  0.5962 -1.2301
  177SLPC   H8S20102   6.462   4.419   6.746  0.6865  0.6191  1.0087
  177SLPC   C2920103   6.436   4.250   6.596  0.4912  0.4258  0.2800
  177SLPC   H9R20104   6.347   4.187   6.611  0.0968  0.5477 -1.3989
  177SLPC  C21020105   6.480   4.281   6.476 -0.4620  0.5129 -0.1543
  177SLPC  H10R20106   6.428   4.236   6.391 -0.0075 -1.0479  0.3676
  177SLPC  C21120107   6.601   4.374   6.440 -0.0771  0.1224 -0.0407
  177SLPC  H11R20108   6.695   4.333   6.483  0.6822  0.5116 -1.2935
  177SLPC  H11S20109   6.595   4.467   6.499  0.0112 -0.1572  0.4174
  177SLPC  C21220110   6.619   4.407   6.292 -0.2722 -0.4441  0.7394
  177SLPC  H12R20111   6.659   4.330   6.225 -2.4060  0.2530 -1.4995
  177SLPC  C21320112   6.578   4.522   6.231  0.6123 -0.6784  0.0396
  177SLPC  H13R20113   6.593   4.526   6.122 -0.4579  1.5114 -0.0876
  177SLPC  C21420114   6.511   4.646   6.290 -0.2236  0.3617 -0.3349
  177SLPC  H14R20115   6.579   4.734   6.282  0.1994 -0.0607 -1.6919
  177SLPC  H14S20116   6.482   4.631   6.396 -1.0449 -4.6338 -0.9878
  177SLPC  C21520117   6.376   4.668   6.217  0.3201  0.1374 -0.5707
  177SLPC  H15R20118   6.326   4.756   6.262  2.4362  1.5139 -0.7611
  177SLPC  H15S20119   6.320   4.575   6.242 -1.0292  0.8012 -1.0606
  177SLPC  C21620120   6.379   4.701   6.067  0.4195  0.5243 -0.3360
  177SLPC  H16R20121   6.284   4.752   6.041  0.5601  1.8643  1.5262
  177SLPC  H16S20122   6.397   4.612   6.004  1.4250  1.6452 -1.6834
  177SLPC  C21720123   6.479   4.809   6.028 -0.4197 -0.0092  0.4622
  177SLPC  H17R20124   6.473   4.818   5.917  0.6986  1.4585  0.4932
  177SLPC  H17S20125   6.585   4.783   6.052  0.6928  3.1239 -0.5904
  177SLPC  C21820126   6.441   4.943   6.072  0.5932  0.2628 -0.2180
  177SLPC  H18R20127   6.428   4.937   6.183  0.4359 -2.0698 -0.3208
  177SLPC  H18S20128   6.349   4.966   6.014  2.0726 -0.5878 -3.0761
  177SLPC  H18T20129   6.516   5.022   6.050  2.2468 -0.1815  3.1145
  177SLPC   C3320130   6.379   4.631   7.220  0.3363 -0.4516 -0.2423
  177SLPC   H3X20131   6.285   4.574   7.202  0.8109 -1.3556  0.0950
  177SLPC   H3Y20132   6.469   4.565   7.220  2.2150  1.9597 -0.4615
  177SLPC   C3420133   6.389   4.732   7.103 -0.2613 -0.3562 -1.0430
  177SLPC   H4X20134   6.479   4.795   7.118 -0.1629 -1.0355  1.6307
  177SLPC   H4Y20135   6.304   4.803   7.109  0.8061  1.0077 -1.6570
  177SLPC   C3520136   6.404   4.653   6.967 -0.7396  0.2757  0.4493
  177SLPC   H5X20137   6.349   4.557   6.975 -0.8966  0.1424 -1.5571
  177SLPC   H5Y20138   6.512   4.625   6.961 -0.0953  2.7897 -1.2275
  177SLPC   C3620139   6.364   4.730   6.839  0.1700  0.0694 -0.9200
  177SLPC   H6X20140   6.371   4.669   6.746  0.2466  0.2775 -1.0520
  177SLPC   H6Y20141   6.420   4.825   6.829  1.4805 -0.5789  0.0465
  177SLPC   C3720142   6.209   4.770   6.842  0.0428 -0.4937  0.0697
  177SLPC   H7X20143   6.198   4.833   6.933 -3.4467  0.0540 -0.6085
  177SLPC   H7Y20144   6.150   4.677   6.847 -0.6161 -0.0908 -0.0429
  177SLPC   C3820145   6.167   4.853   6.722 -0.1081 -0.3706  0.3521
  177SLPC   H8X20146   6.206   4.956   6.741 -0.9954  0.2550 -1.0963
  177SLPC   H8Y20147   6.057   4.869   6.713  0.2215  0.7937 -2.7980
  177SLPC   C3920148   6.203   4.802   6.580 -0.0254  0.4306  0.3309
  177SLPC   H9X20149   6.172   4.695   6.581 -1.6546  0.8755  0.8959
  177SLPC   H9Y20150   6.314   4.801   6.580 -0.0200 -0.2983 -0.7064
  177SLPC  C31020151   6.142   4.879   6.461  0.3647  1.2063  0.0725
  177SLPC  H10X20152   6.033   4.861   6.462  0.2678  1.8113  0.4393
  177SLPC  H10Y20153   6.172   4.842   6.361  0.9926  2.3175 -0.1703
  177SLPC  C31120154   6.170   5.027   6.466  0.6211  0.2887  0.1856
  177SLPC  H11X20155   6.279   5.043   6.452  0.7379 -1.0348 -0.5997
  177SLPC  H11Y20156   6.136   5.076   6.559 -0.6460  1.9323 -1.0842
  177SLPC  C31220157   6.091   5.096   6.357  0.5149 -0.1015  0.0548
  177SLPC  H12X20158   6.097   5.203   6.387  0.1960  0.0893 -0.5426
  177SLPC  H12Y20159   5.983   5.071   6.351 -0.0870  1.4507  2.8039
  177SLPC  C31320160   6.159   5.103   6.223  0.3164 -0.0486  0.2091
  177SLPC  H13X20161   6.160   5.006   6.168  2.3496 -0.2480  0.5193
  177SLPC  H13Y20162   6.266   5.131   6.236  0.0688  1.0254 -0.0119
  177SLPC  C31420163   6.092   5.205   6.134  0.1210  0.2929  0.1912
  177SLPC  H14X20164   6.101   5.309   6.171  1.1257  0.1696  0.3136
  177SLPC  H14Y20165   5.983   5.184   6.128  0.2868 -0.6256  0.2697
  177SLPC  C31520166   6.132   5.201   5.991  0.1989 -0.1061 -0.1450
  177SLPC  H15X20167   6.057   5.263   5.939 -1.7240 -0.9859  1.4179
  177SLPC  H15Y20168   6.129   5.099   5.947  2.9930 -0.3988  0.1380
  177SLPC  C31620169   6.281   5.247   5.964  0.2499  0.2700 -0.5565
  177SLPC  H16X20170   6.344   5.178   6.024  1.5216  1.9563  0.1328
  177SLPC  H16Y20171   6.292   5.352   5.999 -0.5138 -0.3743  1.8058
  177SLPC  C31720172   6.327   5.233   5.816 -0.6066  0.5561 -0.2324
  177SLPC  H17X20173   6.326   5.127   5.785  0.7829  0.5851 -0.4160
  177SLPC  H17Y20174   6.433   5.266   5.811  0.1268 -1.2695  1.8770
  177SLPC  C31820175   6.250   5.323   5.724 -0.4309  0.8032 -0.2059
  177SLPC  H18X20176   6.276   5.300   5.619  0.1741  0.8090 -0.0624
  177SLPC  H18Y20177   6.282   5.429   5.739  1.7345  0.3186 -0.9808
  177SLPC  H18Z20178   6.141   5.310   5.735 -0.2008  0.4087  2.3989
  178SLPC     N20179   4.129   3.351   8.321 -0.1976 -0.1834 -0.0238
  178SLPC   C1320180   4.018   3.373   8.418 -0.0037  0.2932 -0.7484
  178SLPC  H13A20181   3.949   3.292   8.400  1.6010 -1.1057 -0.8341
  178SLPC  H13B20182   4.067   3.366   8.514  1.5898  1.6416 -1.4125
  178SLPC  H13C20183   3.962   3.465   8.410 -1.1221 -0.1743  1.1080
  178SLPC   C1420184   4.211   3.478   8.316 -0.4970 -0.5125  0.0891
  178SLPC  H14A20185   4.156   3.569   8.294  1.4598  0.0677 -2.9510
  178SLPC  H14B20186   4.261   3.493   8.411  1.7670  1.6299 -1.3550
  178SLPC  H14C20187   4.282   3.477   8.235 -0.9207  0.1032 -0.3055
  178SLPC   C1520188   4.073   3.336   8.178 -0.0387 -0.4704  0.6093
  178SLPC  H15A20189   4.018   3.427   8.162  0.8725  0.3318  1.8223
  178SLPC  H15B20190   4.162   3.301   8.129 -0.2195 -2.0735  1.3681
  178SLPC  H15C20191   3.999   3.258   8.182 -0.6586  0.1643  2.6636
  178SLPC   C1220192   4.199   3.227   8.368  0.4597  0.0121 -0.1260
  178SLPC  H12A20193   4.122   3.152   8.371 -1.9303  2.2925 -0.5802
  178SLPC  H12B20194   4.227   3.243   8.471 -1.4256 -2.1836  0.8165
  178SLPC   C1120195   4.326   3.174   8.294 -0.2889  0.2464 -0.3874
  178SLPC  H11A20196   4.345   3.080   8.349 -3.2482  0.1624  0.6588
  178SLPC  H11B20197   4.415   3.240   8.305  0.5578 -1.0516  0.8274
  178SLPC     P20198   4.232   3.038   8.091 -0.0615 -0.2471 -0.0568
  178SLPC   O1320199   4.153   2.977   8.200 -0.9710 -0.6248 -0.1368
  178SLPC   O1420200   4.152   3.092   7.974 -0.7067 -0.0218  0.7377
  178SLPC   O1220201   4.307   3.163   8.153  0.3649 -0.8829  0.1375
  178SLPC   O1120202   4.343   2.943   8.051  0.4162 -0.1885  0.2634
  178SLPC    C120203   4.481   2.966   8.036 -0.0244 -0.6777 -0.2185
  178SLPC    HA20204   4.502   3.073   8.018  0.5305 -0.7752 -0.1893
  178SLPC    HB20205   4.544   2.935   8.122  1.6045  2.0657 -0.3219
  178SLPC    C220206   4.528   2.913   7.897  0.4896  0.6997  0.3439
  178SLPC    HS20207   4.624   2.963   7.872  0.3969  0.9072  0.4016
  178SLPC   O2120208   4.418   2.936   7.798  0.2271  0.0923  0.1541
  178SLPC   C2120209   4.435   3.060   7.745  0.6716  1.5152 -0.1018
  178SLPC   O2220210   4.533   3.127   7.751 -0.1195  0.8605 -0.3446
  178SLPC   C2220211   4.303   3.083   7.672  0.1221 -0.0209 -0.5993
  178SLPC   H2R20212   4.291   3.003   7.596 -2.5314  0.2654 -0.5642
  178SLPC   H2S20213   4.225   3.081   7.751  1.4582  0.4884  0.7984
  178SLPC    C320214   4.550   2.760   7.892 -0.4961  0.1855 -0.3938
  178SLPC    HX20215   4.451   2.710   7.891  0.7166 -2.4615 -2.5566
  178SLPC    HY20216   4.614   2.739   7.981 -2.9756  1.1224  1.7500
  178SLPC   O3120217   4.627   2.714   7.776 -0.2013  0.3009 -0.2053
  178SLPC   C3120218   4.559   2.683   7.674 -0.1793 -0.2349  0.1219
  178SLPC   O3220219   4.437   2.679   7.665 -0.5477  0.3063 -0.0928
  178SLPC   C3220220   4.659   2.647   7.553 -0.3440 -0.2273  0.0963
  178SLPC   H2X20221   4.751   2.623   7.611 -0.6745  0.6864  1.0373
  178SLPC   H2Y20222   4.672   2.743   7.497 -0.9591 -1.3554 -2.1124
  178SLPC   C2320223   4.301   3.226   7.607  0.2343 -0.3698 -0.3036
  178SLPC   H3R20224   4.389   3.247   7.543 -1.8126  4.2410 -2.0779
  178SLPC   H3S20225   4.293   3.298   7.691  3.6376 -0.8624  0.5927
  178SLPC   C2420226   4.186   3.229   7.508  0.2035  0.0298  0.1446
  178SLPC   H4R20227   4.101   3.168   7.546  0.4270 -1.4406 -1.5518
  178SLPC   H4S20228   4.221   3.181   7.414  1.0673  1.2422 -0.1714
  178SLPC   C2520229   4.136   3.369   7.477  0.0792 -0.3729 -0.4145
  178SLPC   H5R20230   4.122   3.416   7.577  0.2600  0.4311 -0.7511
  178SLPC   H5S20231   4.044   3.369   7.415 -0.6199 -3.0023  0.5173
  178SLPC   C2620232   4.242   3.461   7.405  0.1999 -0.0623 -0.6365
  178SLPC   H6R20233   4.344   3.423   7.425  0.8994  1.4225 -1.2677
  178SLPC   H6S20234   4.239   3.565   7.445  0.1678  0.1066 -1.0780
  178SLPC   C2720235   4.220   3.470   7.250 -0.1915  0.3614 -0.0742
  178SLPC   H7R20236   4.117   3.511   7.242 -0.3522 -0.2203 -1.3442
  178SLPC   H7S20237   4.225   3.362   7.225 -0.6291  0.0737  0.9995
  178SLPC   C2820238   4.322   3.557   7.168 -0.6115  0.4909  0.4455
  178SLPC   H8R20239   4.427   3.544   7.204  0.2229  1.0593 -1.6582
  178SLPC   H8S20240   4.299   3.662   7.197 -1.1729  1.0235 -1.7649
  178SLPC   C2920241   4.301   3.562   7.017 -0.4041 -0.3759 -0.5450
  178SLPC   H9R20242   4.194   3.577   6.997 -0.6656  0.0509  1.0607
  178SLPC  C21020243   4.388   3.548   6.920  0.5239  0.7764 -0.0113
  178SLPC  H10R20244   4.355   3.550   6.815 -0.6566  1.3489  0.3485
  178SLPC  C21120245   4.539   3.530   6.941 -1.0852  0.0738  0.2151
  178SLPC  H11R20246   4.573   3.446   6.876 -0.9606  1.5608 -1.7397
  178SLPC  H11S20247   4.557   3.510   7.048  2.1839 -1.0991 -0.4528
  178SLPC  C21220248   4.614   3.655   6.895  0.9594  0.1868  0.5046
  178SLPC  H12R20249   4.631   3.731   6.973  3.9142  2.3780 -1.9991
  178SLPC  C21320250   4.676   3.674   6.782 -0.0678  0.8702 -0.4320
  178SLPC  H13R20251   4.723   3.768   6.750 -1.1214  1.4555 -0.2897
  178SLPC  C21420252   4.659   3.577   6.667 -0.5398  0.1915  0.0658
  178SLPC  H14R20253   4.576   3.503   6.676 -1.8311  1.6000  0.0132
  178SLPC  H14S20254   4.758   3.529   6.648 -1.3520 -0.8713 -1.8014
  178SLPC  C21520255   4.640   3.669   6.549 -0.1968 -0.4669  0.3075
  178SLPC  H15R20256   4.736   3.719   6.522 -0.6200 -0.5815 -1.5394
  178SLPC  H15S20257   4.558   3.743   6.562 -0.1161 -0.3621  0.2216
  178SLPC  C21620258   4.603   3.588   6.423  1.0546 -0.0810 -0.7579
  178SLPC  H16R20259   4.519   3.519   6.448  0.8089 -0.2940 -2.0830
  178SLPC  H16S20260   4.694   3.531   6.394  1.4131 -1.2891  2.4306
  178SLPC  C21720261   4.576   3.690   6.309 -1.3844 -0.0450  0.4838
  178SLPC  H17R20262   4.486   3.756   6.315 -0.7701  0.7806  0.7559
  178SLPC  H17S20263   4.546   3.626   6.223 -1.6390  0.8541 -0.1132
  178SLPC  C21820264   4.700   3.773   6.270 -0.5320  0.1627  0.5746
  178SLPC  H18R20265   4.794   3.721   6.299 -0.8462 -0.0416  1.2320
  178SLPC  H18S20266   4.687   3.870   6.321 -1.5464  0.3158  0.0541
  178SLPC  H18T20267   4.698   3.791   6.160 -0.0412  1.1851  0.7230
  178SLPC   C3320268   4.634   2.530   7.459  0.4695 -0.8117  0.0219
  178SLPC   H3X20269   4.605   2.444   7.523 -0.6355 -0.5746 -0.1381
  178SLPC   H3Y20270   4.727   2.496   7.410 -0.1127  0.6455 -2.2457
  178SLPC   C3420271   4.532   2.562   7.345  0.0728  0.2844 -0.8604
  178SLPC   H4X20272   4.463   2.644   7.373  0.2066 -0.2570  1.2568
  178SLPC   H4Y20273   4.480   2.470   7.311 -1.7416  1.1823 -0.6456
  178SLPC   C3520274   4.604   2.619   7.221 -0.4027  0.1420  0.3624
  178SLPC   H5X20275   4.713   2.600   7.228 -0.1106  0.9880 -1.3784
  178SLPC   H5Y20276   4.601   2.729   7.204  2.5623  0.1739 -0.6165
  178SLPC   C3620277   4.563   2.544   7.090 -1.2268  0.3112  0.2781
  178SLPC   H6X20278   4.452   2.536   7.084 -1.1458 -0.1412 -0.7126
  178SLPC   H6Y20279   4.609   2.443   7.097  1.1945  1.3049 -0.6488
  178SLPC   C3720280   4.616   2.612   6.960 -0.3231  0.4306  0.1762
  178SLPC   H7X20281   4.727   2.616   6.966 -0.2955  1.0023 -0.5839
  178SLPC   H7Y20282   4.599   2.722   6.960 -0.0990  0.5032  1.9165
  178SLPC   C3820283   4.560   2.560   6.826  0.3217  0.1761 -1.1193
  178SLPC   H8X20284   4.450   2.546   6.823 -0.0023  1.3158  2.0797
  178SLPC   H8Y20285   4.601   2.458   6.810 -2.7701 -1.2478 -0.6488
  178SLPC   C3920286   4.605   2.647   6.710  0.0174  0.4250 -1.0264
  178SLPC   H9X20287   4.714   2.650   6.729  0.0631 -3.0885 -0.0395
  178SLPC   H9Y20288   4.569   2.751   6.731  2.3714  1.1986 -0.5418
  178SLPC  C31020289   4.570   2.606   6.572 -0.1436  0.1710  0.2713
  178SLPC  H10X20290   4.464   2.638   6.557  0.4457  2.1367 -0.0427
  178SLPC  H10Y20291   4.576   2.499   6.546  0.8357  0.4909 -0.9083
  178SLPC  C31120292   4.650   2.683   6.463 -0.0497 -0.1700  0.8063
  178SLPC  H11X20293   4.752   2.639   6.451 -0.9952 -2.0826 -0.7295
  178SLPC  H11Y20294   4.665   2.786   6.502  0.0737 -0.3044  1.1166
  178SLPC  C31220295   4.586   2.688   6.327  0.2792 -0.0405 -0.5311
  178SLPC  H12X20296   4.485   2.732   6.340  0.5045  0.6394 -1.0191
  178SLPC  H12Y20297   4.571   2.590   6.277  2.5911  0.5119 -2.5051
  178SLPC  C31320298   4.673   2.769   6.231  0.0168  0.0531 -0.0486
  178SLPC  H13X20299   4.770   2.717   6.227  0.2140  0.5215 -2.1593
  178SLPC  H13Y20300   4.688   2.873   6.268  1.7285 -0.6479  1.4187
  178SLPC  C31420301   4.614   2.775   6.086  0.6640 -0.0472 -0.1589
  178SLPC  H14X20302   4.504   2.792   6.093  0.6583 -0.7464  2.6923
  178SLPC  H14Y20303   4.615   2.670   6.047  2.5275 -0.1727  0.1331
  178SLPC  C31520304   4.679   2.878   5.993 -0.5922 -0.5112  0.5711
  178SLPC  H15X20305   4.783   2.843   5.976 -0.2602 -0.0813  1.6292
  178SLPC  H15Y20306   4.692   2.971   6.053  1.0775  0.0630 -0.6227
  178SLPC  C31620307   4.605   2.891   5.867  0.3210 -0.2935 -0.4524
  178SLPC  H16X20308   4.515   2.947   5.901  0.8129  1.3811 -1.7362
  178SLPC  H16Y20309   4.579   2.793   5.822 -0.6306  0.3372 -1.3421
  178SLPC  C31720310   4.674   2.969   5.757  0.2282 -0.4019  0.2583
  178SLPC  H17X20311   4.776   2.933   5.729  1.1493  0.9100  1.7564
  178SLPC  H17Y20312   4.674   3.076   5.789 -1.8050 -0.6708  1.3039
  178SLPC  C31820313   4.595   2.953   5.627  0.2440  0.6305 -0.4624
  178SLPC  H18X20314   4.617   2.855   5.577  0.5819  1.3430 -1.7661
  178SLPC  H18Y20315   4.619   3.039   5.560  3.3595 -1.0512 -1.7308
  178SLPC  H18Z20316   4.487   2.961   5.653 -0.2589  0.6736 -2.3782
  179SLPC     N20317   6.844   4.322   3.310 -0.0791 -0.5242  0.4856
  179SLPC   C1320318   6.706   4.320   3.387 -0.0662 -0.5131 -0.3324
  179SLPC  H13A20319   6.633   4.383   3.338 -0.6282 -0.1298  0.9589
  179SLPC  H13B20320   6.665   4.220   3.390 -0.1488 -0.5236 -1.3109
  179SLPC  H13C20321   6.721   4.356   3.487 -0.0931 -1.3112 -0.0356
  179SLPC   C1420322   6.891   4.463   3.299  0.1026  0.2657  1.1827
  179SLPC  H14A20323   6.930   4.482   3.398 -0.8649 -1.0718  1.8572
  179SLPC  H14B20324   6.974   4.474   3.231 -0.4074  0.5409  0.5912
  179SLPC  H14C20325   6.808   4.527   3.274 -0.2928 -0.4861  0.5210
  179SLPC   C1520326   6.827   4.265   3.173  0.6481  0.3748 -0.4626
  179SLPC  H15A20327   6.780   4.169   3.189 -0.1078  0.6230 -1.1445
  179SLPC  H15B20328   6.751   4.326   3.126  0.6488  0.8670  0.1599
  179SLPC  H15C20329   6.919   4.258   3.118 -0.1508 -0.7495 -1.7243
  179SLPC   C1220330   6.949   4.236   3.390 -0.4200  0.3549  0.5275
  179SLPC  H12A20331   7.043   4.241   3.338 -0.9530  0.7797 -0.4294
  179SLPC  H12B20332   6.913   4.134   3.377 -2.0238  1.0017 -0.4377
  179SLPC   C1120333   6.991   4.278   3.537  0.1929 -0.0714  0.2078
  179SLPC  H11A20334   7.058   4.202   3.584 -1.1842  0.0270  2.5121
  179SLPC  H11B20335   6.895   4.286   3.592 -0.3538  0.2358 -0.7739
  179SLPC     P20336   7.191   4.426   3.501  0.2297 -0.2203 -0.6361
  179SLPC   O1320337   7.220   4.347   3.380 -0.6998  0.0598  0.7816
  179SLPC   O1420338   7.222   4.572   3.504  0.6490  0.3184  0.6775
  179SLPC   O1220339   7.049   4.405   3.555 -0.0370 -0.1368  0.7895
  179SLPC   O1120340   7.265   4.357   3.622 -0.3255  0.1517 -0.3262
  179SLPC    C120341   7.302   4.439   3.733  0.3784 -0.3938 -0.8755
  179SLPC    HA20342   7.408   4.471   3.728  0.5626 -1.1352 -2.2832
  179SLPC    HB20343   7.242   4.533   3.738 -0.6961 -1.0439 -1.0866
  179SLPC    C220344   7.265   4.371   3.873 -0.5706 -0.0866 -0.2522
  179SLPC    HS20345   7.294   4.448   3.948 -0.7646  0.0809 -0.3475
  179SLPC   O2120346   7.343   4.253   3.883 -0.4690  0.3987 -0.4338
  179SLPC   C2120347   7.473   4.256   3.899  0.0060 -0.4529  0.1518
  179SLPC   O2220348   7.539   4.358   3.922  0.0170  0.7556 -0.1350
  179SLPC   C2220349   7.527   4.117   3.918  0.1661  0.5820 -0.1182
  179SLPC   H2R20350   7.459   4.042   3.871 -2.3570  3.3808 -1.2541
  179SLPC   H2S20351   7.618   4.107   3.855  0.0635 -2.4795  0.0543
  179SLPC    C320352   7.112   4.339   3.888 -0.0667 -0.7924 -0.3720
  179SLPC    HX20353   7.085   4.262   3.813  1.8633  0.6120 -2.6362
  179SLPC    HY20354   7.053   4.427   3.854  0.5352  0.0592  0.6963
  179SLPC   O3120355   7.082   4.283   4.012 -0.7651  0.0810 -0.5106
  179SLPC   C3120356   7.059   4.368   4.113 -0.0940 -0.0442  0.0250
  179SLPC   O3220357   7.027   4.486   4.098 -0.4963 -0.0584 -0.3560
  179SLPC   C3220358   7.073   4.295   4.247 -0.1763  0.1469  0.1509
  179SLPC   H2X20359   7.178   4.289   4.283 -0.1809 -0.1618  0.1215
  179SLPC   H2Y20360   7.029   4.193   4.239  1.1423 -0.3797 -0.7810
  179SLPC   C2320361   7.593   4.104   4.061  0.4601  0.2890  0.2331
  179SLPC   H3R20362   7.668   4.185   4.075  1.2447 -0.2147 -0.8927
  179SLPC   H3S20363   7.651   4.009   4.051 -0.3475  0.0350 -2.8764
  179SLPC   C2420364   7.492   4.084   4.171  0.1033 -0.3011  0.6197
  179SLPC   H4R20365   7.458   3.980   4.152 -0.5310  0.3761 -2.4032
  179SLPC   H4S20366   7.413   4.156   4.139 -0.0618 -0.9460 -0.4730
  179SLPC   C2520367   7.540   4.113   4.315 -0.0684 -0.2236  0.1758
  179SLPC   H5R20368   7.577   4.216   4.332  1.6138 -0.8638  0.5931
  179SLPC   H5S20369   7.618   4.037   4.334  0.3292  0.3215  0.7247
  179SLPC   C2620370   7.436   4.081   4.430 -0.0013 -0.0988 -0.0517
  179SLPC   H6R20371   7.418   3.972   4.430  1.7293 -0.4180 -0.0556
  179SLPC   H6S20372   7.344   4.135   4.400 -0.1623  0.3647  1.2344
  179SLPC   C2720373   7.468   4.136   4.570  0.2046 -0.6907 -0.3118
  179SLPC   H7R20374   7.497   4.244   4.563 -0.8153 -0.5075 -2.3993
  179SLPC   H7S20375   7.557   4.084   4.611  0.0285 -0.9683 -0.2856
  179SLPC   C2820376   7.357   4.127   4.675  0.1475  0.7678  0.4957
  179SLPC   H8R20377   7.256   4.164   4.645  0.9197  1.5194 -1.3137
  179SLPC   H8S20378   7.377   4.179   4.771  1.4286 -0.3452  0.8668
  179SLPC   C2920379   7.339   3.976   4.721  0.1125 -0.7175  0.5548
  179SLPC   H9R20380   7.302   3.912   4.639  0.9116  0.3108 -0.6354
  179SLPC  C21020381   7.385   3.929   4.843 -0.6386  0.7526 -0.5804
  179SLPC  H10R20382   7.371   3.821   4.860  1.0728  0.7471  1.0955
  179SLPC  C21120383   7.448   4.005   4.963  0.0410  0.3922 -0.0618
  179SLPC  H11R20384   7.530   4.071   4.926  0.3157  0.3945  0.5490
  179SLPC  H11S20385   7.493   3.924   5.024  2.0307  0.8198 -0.8914
  179SLPC  C21220386   7.363   4.086   5.059  0.0084  0.5321 -0.4180
  179SLPC  H12R20387   7.261   4.046   5.070 -1.1462  2.0390 -4.1613
  179SLPC  C21320388   7.387   4.198   5.123  0.9658 -0.3144 -0.3978
  179SLPC  H13R20389   7.315   4.236   5.197  2.1756 -2.2223  1.9099
  179SLPC  C21420390   7.522   4.266   5.119  0.3276  0.8688  0.4010
  179SLPC  H14R20391   7.518   4.358   5.057  1.3328  1.3072  0.9741
  179SLPC  H14S20392   7.595   4.208   5.059 -2.2594 -0.9235 -1.2218
  179SLPC  C21520393   7.577   4.305   5.254 -0.0500  0.7438 -0.0743
  179SLPC  H15R20394   7.677   4.349   5.236 -0.2077  1.4355  0.7024
  179SLPC  H15S20395   7.580   4.207   5.307 -1.2810  0.5632 -0.3117
  179SLPC  C21620396   7.509   4.424   5.321  0.2725  0.5060 -0.2907
  179SLPC  H16R20397   7.408   4.395   5.358 -0.1057 -0.4891 -2.0094
  179SLPC  H16S20398   7.496   4.495   5.237 -0.5104 -0.8387 -1.3448
  179SLPC  C21720399   7.589   4.478   5.446  0.0563 -0.3560  0.4629
  179SLPC  H17R20400   7.533   4.567   5.480  0.7765 -0.8652  3.2560
  179SLPC  H17S20401   7.695   4.502   5.424 -0.4689  1.4113 -0.2512
  179SLPC  C21820402   7.596   4.380   5.562 -0.0619  0.9365 -0.6097
  179SLPC  H18R20403   7.491   4.358   5.589  0.7229 -1.4094  0.8351
  179SLPC  H18S20404   7.647   4.425   5.650 -0.2004 -0.6942  0.3395
  179SLPC  H18T20405   7.655   4.289   5.538  0.2217  1.6746 -2.9890
  179SLPC   C3320406   6.989   4.369   4.362  0.1021 -0.2333  0.4212
  179SLPC   H3X20407   6.880   4.367   4.337  0.3142 -0.4778 -0.5408
  179SLPC   H3Y20408   7.010   4.477   4.368 -0.0360 -0.0752 -1.3633
  179SLPC   C3420409   7.029   4.297   4.495  0.1582 -0.1488 -1.2614
  179SLPC   H4X20410   7.140   4.292   4.502  0.0408 -0.1465  1.8992
  179SLPC   H4Y20411   6.986   4.195   4.489 -0.3659  0.1257 -2.6644
  179SLPC   C3520412   6.972   4.374   4.622  0.6661  0.1076  0.2129
  179SLPC   H5X20413   7.014   4.477   4.630 -0.6969  0.8654 -1.6288
  179SLPC   H5Y20414   6.865   4.382   4.593  1.5488  2.0604 -3.0555
  179SLPC   C3620415   6.987   4.293   4.748  0.0130 -0.2829  0.1559
  179SLPC   H6X20416   7.096   4.272   4.759  0.0308 -0.2645  0.0197
  179SLPC   H6Y20417   6.933   4.197   4.739  0.1913 -0.3068 -0.7190
  179SLPC   C3720418   6.915   4.354   4.869  0.7191  0.4611 -0.4680
  179SLPC   H7X20419   6.812   4.375   4.831  0.6129  2.6972  0.8201
  179SLPC   H7Y20420   6.965   4.449   4.898  1.3462 -0.3351  1.2034
  179SLPC   C3820421   6.924   4.246   4.981 -0.1240 -0.9729 -0.3626
  179SLPC   H8X20422   7.028   4.206   4.990 -0.4317 -1.9794 -1.0004
  179SLPC   H8Y20423   6.855   4.162   4.956  1.2236 -1.2897 -3.4461
  179SLPC   C3920424   6.882   4.294   5.121 -0.2132 -0.0897 -1.0784
  179SLPC   H9X20425   6.774   4.321   5.119 -0.3625 -0.5294  0.0778
  179SLPC   H9Y20426   6.939   4.383   5.155  0.3389  0.5108 -3.3976
  179SLPC  C31020427   6.913   4.184   5.220 -0.1485  0.0418 -0.5434
  179SLPC  H10X20428   7.024   4.182   5.215 -0.1749 -0.9118 -0.8025
  179SLPC  H10Y20429   6.870   4.087   5.190 -2.5167  1.3245 -1.6005
  179SLPC  C31120430   6.863   4.219   5.360 -0.8064 -0.6036 -0.2827
  179SLPC  H11X20431   6.763   4.172   5.374 -0.6689 -0.6471  0.5904
  179SLPC  H11Y20432   6.848   4.329   5.373  0.8640  0.0312 -2.9063
  179SLPC  C31220433   6.963   4.165   5.461 -0.0613  0.5474  0.4599
  179SLPC  H12X20434   7.065   4.206   5.446 -0.5309  1.3243 -0.7853
  179SLPC  H12Y20435   6.963   4.055   5.448  0.8812  0.6849 -0.9566
  179SLPC  C31320436   6.933   4.198   5.604 -0.4231  0.3900  0.4741
  179SLPC  H13X20437   6.917   4.308   5.604 -0.8948  0.3279  0.1594
  179SLPC  H13Y20438   7.022   4.185   5.668 -0.0521 -2.7833 -0.5201
  179SLPC  C31420439   6.809   4.135   5.666 -0.3817  0.3839  0.3742
  179SLPC  H14X20440   6.826   4.031   5.702 -2.0338  1.5854  5.3827
  179SLPC  H14Y20441   6.721   4.133   5.598 -0.9316  1.9476  0.9996
  179SLPC  C31520442   6.760   4.227   5.774  0.3439 -0.0315  0.2708
  179SLPC  H15X20443   6.736   4.327   5.731  2.1121 -0.0772 -0.9188
  179SLPC  H15Y20444   6.847   4.249   5.838  0.0949  1.5462  0.1058
  179SLPC  C31620445   6.637   4.163   5.851  0.0568 -0.6607  0.3699
  179SLPC  H16X20446   6.662   4.055   5.866  1.1277 -0.7022 -1.3890
  179SLPC  H16Y20447   6.548   4.173   5.785 -0.3981  4.2893  1.4028
  179SLPC  C31720448   6.610   4.237   5.983  0.7150  0.2625 -0.7395
  179SLPC  H17X20449   6.613   4.345   5.956  0.3492  0.0346 -1.7224
  179SLPC  H17Y20450   6.696   4.217   6.049 -0.4187  0.5962  0.9116
  179SLPC  C31820451   6.475   4.203   6.056  0.1342  0.5407  0.6726
  179SLPC  H18X20452   6.389   4.227   5.990 -0.5314 -1.5432  0.7111
  179SLPC  H18Y20453   6.469   4.251   6.156  1.3543 -1.8401  1.9580
  179SLPC  H18Z20454   6.478   4.095   6.079  0.6394  0.4077 -0.0067
  180SLPC     N20455   6.634   2.216   3.301 -0.4822  0.8430 -0.1227
  180SLPC   C1320456   6.743   2.262   3.397  0.1292 -0.0402 -0.5297
  180SLPC  H13A20457   6.836   2.212   3.375 -0.3963 -1.0255 -0.5682
  180SLPC  H13B20458   6.754   2.369   3.407 -0.6000 -0.1608  3.0907
  180SLPC  H13C20459   6.720   2.239   3.500 -0.7953  1.9641 -0.2447
  180SLPC   C1420460   6.670   2.269   3.163 -0.6053  0.6822 -0.1661
  180SLPC  H14A20461   6.614   2.227   3.080  1.0420  1.4322 -1.7243
  180SLPC  H14B20462   6.662   2.376   3.153  1.2227  0.7833 -0.9023
  180SLPC  H14C20463   6.771   2.243   3.135 -1.0980 -1.2351 -0.3360
  180SLPC   C1520464   6.501   2.275   3.337  0.4494  0.0069  0.0965
  180SLPC  H15A20465   6.505   2.383   3.345 -0.1519  0.0380  0.0019
  180SLPC  H15B20466   6.417   2.264   3.271 -0.3705  2.3579  0.6665
  180SLPC  H15C20467   6.468   2.230   3.430 -3.9817 -2.1729 -2.2626
  180SLPC   C1220468   6.625   2.067   3.292 -0.0595 -0.4485 -0.6171
  180SLPC  H12A20469   6.718   2.021   3.263  0.1521  0.1331 -0.8697
  180SLPC  H12B20470   6.558   2.033   3.215  0.9840  0.9060 -2.2019
  180SLPC   C1120471   6.574   1.987   3.413 -0.0003 -0.2085 -0.8055
  180SLPC  H11A20472   6.547   1.888   3.369 -0.9585  0.8884 -2.8830
  180SLPC  H11B20473   6.480   2.035   3.448  0.3798 -0.0305 -0.0209
  180SLPC     P20474   6.765   1.855   3.541  0.1365  0.1285  0.2502
  180SLPC   O1320475   6.750   1.771   3.422  0.0971  0.4366 -0.5253
  180SLPC   O1420476   6.905   1.897   3.572  0.5345 -0.8257 -1.1162
  180SLPC   O1220477   6.677   1.986   3.517  0.9506 -0.7216  0.1363
  180SLPC   O1120478   6.701   1.794   3.671 -0.3561 -0.0026 -0.2486
  180SLPC    C120479   6.584   1.835   3.742 -0.9844  0.2011 -0.2783
  180SLPC    HA20480   6.534   1.920   3.690  0.3374  0.9121 -0.4367
  180SLPC    HB20481   6.520   1.744   3.746  0.1041 -0.6058 -0.8822
  180SLPC    C220482   6.620   1.876   3.890  0.1895  0.5456 -0.3247
  180SLPC    HS20483   6.646   1.984   3.892 -0.2871  0.6773  2.3984
  180SLPC   O2120484   6.727   1.791   3.949 -0.0303 -0.3465 -0.0130
  180SLPC   C2120485   6.781   1.836   4.054  0.0948 -0.1920 -0.5569
  180SLPC   O2220486   6.761   1.943   4.111  0.1477  0.4184  0.4417
  180SLPC   C2220487   6.860   1.720   4.116 -0.3925 -0.2563  0.1153
  180SLPC   H2R20488   6.788   1.642   4.148  0.4748 -0.5087  1.5282
  180SLPC   H2S20489   6.910   1.677   4.026  0.1389  0.7598 -0.0854
  180SLPC    C320490   6.491   1.894   3.986 -0.4873 -0.1529  0.4972
  180SLPC    HX20491   6.446   1.991   3.955 -0.2112  0.1664  1.0617
  180SLPC    HY20492   6.527   1.906   4.091 -1.1794  0.6307  0.6553
  180SLPC   O3120493   6.409   1.775   3.985 -0.4404  0.4394 -0.2102
  180SLPC   C3120494   6.298   1.783   3.919  0.5255 -0.0402 -0.3491
  180SLPC   O3220495   6.264   1.883   3.853  0.1210  0.1922 -0.1291
  180SLPC   C3220496   6.225   1.655   3.929  0.2165  1.0379 -0.3455
  180SLPC   H2X20497   6.295   1.576   3.964 -0.0151  0.7563 -0.5253
  180SLPC   H2Y20498   6.180   1.615   3.836 -3.5030 -0.4838  1.9021
  180SLPC   C2320499   6.967   1.750   4.221  0.4748 -0.1222 -0.3484
  180SLPC   H3R20500   7.019   1.847   4.205 -0.9960  0.9509  1.0349
  180SLPC   H3S20501   7.040   1.666   4.217 -0.2224 -0.7735  0.1373
  180SLPC   C2420502   6.907   1.747   4.366 -0.0503 -0.2642 -0.3476
  180SLPC   H4R20503   6.994   1.749   4.434  1.2703 -2.2696 -1.8627
  180SLPC   H4S20504   6.844   1.656   4.375 -2.6487  0.9955 -3.5849
  180SLPC   C2520505   6.813   1.862   4.412 -0.5288 -0.4668 -0.3094
  180SLPC   H5R20506   6.743   1.884   4.328 -0.7696 -0.0869 -0.0167
  180SLPC   H5S20507   6.886   1.944   4.422  0.0081 -0.5867 -2.6272
  180SLPC   C2620508   6.745   1.827   4.548 -0.0012 -0.3627  0.5369
  180SLPC   H6R20509   6.684   1.735   4.531 -1.1742  0.6415 -1.1141
  180SLPC   H6S20510   6.672   1.905   4.577 -0.5867 -1.3162  1.7226
  180SLPC   C2720511   6.842   1.821   4.673 -0.0677 -0.0338 -0.0331
  180SLPC   H7R20512   6.902   1.915   4.677  2.0745 -1.3692  1.4279
  180SLPC   H7S20513   6.916   1.740   4.657  0.3333 -0.0539  1.7370
  180SLPC   C2820514   6.767   1.801   4.809 -1.4744 -0.4040  0.0030
  180SLPC   H8R20515   6.716   1.703   4.797  1.8562 -2.2031 -0.6331
  180SLPC   H8S20516   6.694   1.884   4.824 -0.6007 -0.1107  3.3284
  180SLPC   C2920517   6.857   1.791   4.932 -0.4735 -0.1197  0.4473
  180SLPC   H9R20518   6.960   1.760   4.908 -0.4609  1.2462 -1.5395
  180SLPC  C21020519   6.824   1.795   5.060  0.1813  0.2138 -0.1131
  180SLPC  H10R20520   6.899   1.786   5.140 -0.3572 -1.8481  0.2015
  180SLPC  C21120521   6.685   1.833   5.113  0.2347 -0.3775 -0.3098
  180SLPC  H11R20522   6.666   1.768   5.202 -1.2436  2.4751  1.6103
  180SLPC  H11S20523   6.604   1.806   5.042  0.9897  0.9230 -1.7108
  180SLPC  C21220524   6.683   1.977   5.159  0.1119 -0.3197  0.4286
  180SLPC  H12R20525   6.779   2.029   5.172 -0.3826  0.5473  0.6787
  180SLPC  C21320526   6.570   2.046   5.193  0.3258  0.2296 -0.0526
  180SLPC  H13R20527   6.574   2.150   5.229  0.4044  0.1309  0.2304
  180SLPC  C21420528   6.431   1.988   5.201 -0.0856 -0.5971 -0.1766
  180SLPC  H14R20529   6.429   1.877   5.210 -0.4648 -0.8977 -2.9732
  180SLPC  H14S20530   6.368   2.023   5.117  1.0575 -1.8576 -1.6225
  180SLPC  C21520531   6.356   2.031   5.329  1.2921 -0.4222  0.7485
  180SLPC  H15R20532   6.323   2.136   5.317 -1.4194 -1.3901 -1.1566
  180SLPC  H15S20533   6.403   2.008   5.428 -0.9021  0.3273  2.0242
  180SLPC  C21620534   6.220   1.952   5.349 -0.2691 -0.3677 -0.1364
  180SLPC  H16R20535   6.248   1.845   5.354 -3.4772 -1.2593  1.8925
  180SLPC  H16S20536   6.157   1.979   5.261  0.5440 -0.2005 -0.6788
  180SLPC  C21720537   6.138   1.974   5.481  0.3067  1.0292 -0.4534
  180SLPC  H17R20538   6.204   1.945   5.566 -0.0663 -0.0983 -0.5333
  180SLPC  H17S20539   6.051   1.906   5.472  0.5287  0.7488 -0.5001
  180SLPC  C21820540   6.091   2.115   5.517  0.1908 -0.0946 -0.1493
  180SLPC  H18R20541   6.183   2.177   5.520  1.0642 -1.3760  0.9606
  180SLPC  H18S20542   6.048   2.115   5.620 -1.4506  0.7735 -0.7883
  180SLPC  H18T20543   6.021   2.153   5.440  1.3157  0.5893 -0.8575
  180SLPC   C3320544   6.094   1.647   4.012  0.3864 -0.4578  0.2885
  180SLPC   H3X20545   6.041   1.553   3.986 -2.0747  0.3544  2.0009
  180SLPC   H3Y20546   6.033   1.738   3.992  0.0136  0.0508  3.3193
  180SLPC   C3420547   6.113   1.653   4.167 -0.1286  0.5399 -0.6648
  180SLPC   H4X20548   6.165   1.745   4.202  0.1611  0.1114  0.0602
  180SLPC   H4Y20549   6.181   1.568   4.189 -0.3580  0.4818 -0.1572
  180SLPC   C3520550   5.978   1.624   4.247  0.2569 -0.0759  0.1291
  180SLPC   H5X20551   5.924   1.536   4.206 -0.8756  0.0865  1.2235
  180SLPC   H5Y20552   5.912   1.711   4.231  1.5769  1.1274  0.9830
  180SLPC   C3620553   5.991   1.621   4.401  0.4260 -0.6346  0.8094
  180SLPC   H6X20554   6.027   1.718   4.440  1.0563  0.8604 -3.0750
  180SLPC   H6Y20555   6.056   1.538   4.434  1.1360  0.4164  2.1163
  180SLPC   C3720556   5.858   1.597   4.461  0.8828 -0.2830 -0.0918
  180SLPC   H7X20557   5.793   1.528   4.403  1.7021 -1.7844  0.7397
  180SLPC   H7Y20558   5.812   1.698   4.461  1.0926 -0.1809 -0.8018
  180SLPC   C3820559   5.875   1.549   4.609  0.5354  0.0608  0.5613
  180SLPC   H8X20560   5.945   1.625   4.650 -1.3065  2.1446  0.0679
  180SLPC   H8Y20561   5.926   1.451   4.608  0.5477  0.0581  1.3641
  180SLPC   C3920562   5.750   1.528   4.686 -1.2105 -0.4167  0.1177
  180SLPC   H9X20563   5.698   1.448   4.629 -2.4629  0.0652  0.5693
  180SLPC   H9Y20564   5.679   1.612   4.675  0.8680  1.4833  0.3816
  180SLPC  C31020565   5.784   1.493   4.837  0.2238  0.2958 -0.9052
  180SLPC  H10X20566   5.850   1.572   4.880 -0.6808  1.6775 -1.9645
  180SLPC  H10Y20567   5.843   1.399   4.834  1.0993  0.6843  1.5329
  180SLPC  C31120568   5.656   1.472   4.923  0.1231 -0.0179  0.8061
  180SLPC  H11X20569   5.605   1.393   4.862  2.4402  1.0855 -2.9264
  180SLPC  H11Y20570   5.592   1.562   4.933  1.7241  1.0375  2.0588
  180SLPC  C31220571   5.692   1.413   5.059  0.3806  0.2562 -0.8505
  180SLPC  H12X20572   5.714   1.495   5.132 -2.0422  0.2655 -0.0061
  180SLPC  H12Y20573   5.777   1.342   5.058 -0.4460 -0.7679 -0.4159
  180SLPC  C31320574   5.570   1.342   5.107 -0.0859  0.5223 -0.1644
  180SLPC  H13X20575   5.546   1.267   5.028  1.4736 -1.0929  0.8312
  180SLPC  H13Y20576   5.473   1.397   5.113 -0.7935 -0.8837  3.0258
  180SLPC  C31420577   5.591   1.265   5.243  0.6041 -0.3230 -0.1673
  180SLPC  H14X20578   5.633   1.334   5.319  1.7873 -0.4874 -0.6568
  180SLPC  H14Y20579   5.677   1.197   5.227  0.4331 -0.6214  0.1572
  180SLPC  C31520580   5.471   1.183   5.283  0.3135 -0.0269  0.2084
  180SLPC  H15X20581   5.449   1.119   5.195  3.5626  0.1563 -0.8615
  180SLPC  H15Y20582   5.375   1.237   5.298  1.7946  2.7148  0.4210
  180SLPC  C31620583   5.491   1.100   5.415  0.1599  0.0114  0.0464
  180SLPC  H16X20584   5.481   1.156   5.511  0.0444 -1.2852  0.8192
  180SLPC  H16Y20585   5.591   1.054   5.404 -1.0949 -2.6869 -0.9997
  180SLPC  C31720586   5.404   0.978   5.431 -0.4381  0.2666  0.3548
  180SLPC  H17X20587   5.421   0.913   5.343 -0.7115  1.4569 -0.6119
  180SLPC  H17Y20588   5.296   1.005   5.428 -0.2211  1.1294 -1.0538
  180SLPC  C31820589   5.452   0.900   5.555 -0.0556 -1.1457 -0.3670
  180SLPC  H18X20590   5.384   0.812   5.561 -3.4544  1.2568 -1.0120
  180SLPC  H18Y20591   5.430   0.959   5.646 -0.0847 -1.5640 -0.0998
  180SLPC  H18Z20592   5.559   0.874   5.540  0.6890  0.5327  1.6051
  181SLPC     N20593   5.084   1.836   2.998 -0.1298  0.7016 -0.6425
  181SLPC   C1320594   5.110   1.864   3.140 -0.2565  0.6756  0.6457
  181SLPC  H13A20595   5.176   1.794   3.190 -1.0449 -0.8793 -0.4140
  181SLPC  H13B20596   5.156   1.962   3.143  2.2763 -0.2566 -2.5186
  181SLPC  H13C20597   5.014   1.849   3.188 -0.0994 -2.3968  0.2252
  181SLPC   C1420598   5.026   1.694   2.984  0.5082  0.4383  0.2234
  181SLPC  H14A20599   5.062   1.628   3.061 -0.0091  2.4238  2.2923
  181SLPC  H14B20600   4.920   1.701   3.003  0.4785  0.4726  0.0436
  181SLPC  H14C20601   5.052   1.665   2.884  0.2484 -0.6981  0.4719
  181SLPC   C1520602   5.218   1.839   2.928 -0.8129 -0.2561  0.0140
  181SLPC  H15A20603   5.288   1.767   2.969  0.4517 -0.1177 -1.7529
  181SLPC  H15B20604   5.208   1.827   2.821 -0.2838 -0.5053 -0.0126
  181SLPC  H15C20605   5.264   1.935   2.943 -0.2703 -0.5315  0.1392
  181SLPC   C1220606   4.995   1.932   2.934  0.0645  0.1261  0.0960
  181SLPC  H12A20607   5.005   1.906   2.830  2.0430 -2.0497  0.7475
  181SLPC  H12B20608   5.034   2.031   2.948  1.2301 -0.3343  0.2165
  181SLPC   C1120609   4.846   1.947   2.987  0.2739  0.4372  0.5408
  181SLPC  H11A20610   4.799   2.028   2.926  0.0881  0.2796  0.4759
  181SLPC  H11B20611   4.834   1.989   3.089 -1.9688 -1.3117  1.0742
  181SLPC     P20612   4.639   1.799   3.038 -0.2126  0.2255 -0.0062
  181SLPC   O1320613   4.539   1.885   2.966  0.0202  0.6536 -0.1660
  181SLPC   O1420614   4.608   1.654   3.029 -0.1702 -0.3806  0.2743
  181SLPC   O1220615   4.778   1.821   2.969 -0.0932  0.8322  0.3508
  181SLPC   O1120616   4.665   1.843   3.190 -0.3486  0.0388 -0.1005
  181SLPC    C120617   4.745   1.755   3.268 -0.1735  0.6817  0.5058
  181SLPC    HA20618   4.717   1.649   3.247 -0.3544  0.9934 -0.9098
  181SLPC    HB20619   4.848   1.775   3.232 -0.4624 -0.5688 -1.1100
  181SLPC    C220620   4.721   1.785   3.411  0.7645 -0.7218  0.5053
  181SLPC    HS20621   4.762   1.883   3.444 -1.3916 -0.0582  1.3933
  181SLPC   O2120622   4.776   1.687   3.498 -0.3504 -0.1840 -0.5914
  181SLPC   C2120623   4.905   1.699   3.518 -1.0623 -0.4786  0.3334
  181SLPC   O2220624   4.984   1.780   3.462  0.2951  0.3819 -0.2209
  181SLPC   C2220625   4.961   1.600   3.619  0.2368  0.9056  0.0156
  181SLPC   H2R20626   4.879   1.558   3.681  1.3377 -1.3028  0.1084
  181SLPC   H2S20627   5.005   1.514   3.564 -0.4124  1.3864 -1.3024
  181SLPC    C320628   4.565   1.798   3.440  0.1775  0.1320 -0.9888
  181SLPC    HX20629   4.513   1.702   3.420 -0.0201  0.0979 -0.3555
  181SLPC    HY20630   4.509   1.878   3.386 -1.6133  0.5020  1.2122
  181SLPC   O3120631   4.555   1.821   3.587  0.5432 -0.1879  0.1604
  181SLPC   C3120632   4.429   1.835   3.638  0.0181  0.2066  0.3443
  181SLPC   O3220633   4.326   1.823   3.572  0.4153 -0.1487  0.3047
  181SLPC   C3220634   4.445   1.857   3.793 -0.1036 -0.6050 -0.2207
  181SLPC   H2X20635   4.512   1.941   3.821  0.4541 -1.0991 -0.0407
  181SLPC   H2Y20636   4.490   1.765   3.837 -1.1974 -1.4328 -0.7630
  181SLPC   C2320637   5.075   1.662   3.704 -0.2175  0.2572  0.4538
  181SLPC   H3R20638   5.152   1.704   3.636  0.7705 -0.3285  1.1864
  181SLPC   H3S20639   5.132   1.581   3.754  1.5216  2.0927  1.5535
  181SLPC   C2420640   5.027   1.762   3.808 -0.1696 -0.3512 -0.8793
  181SLPC   H4R20641   4.986   1.852   3.757 -0.6470  1.7014  2.8022
  181SLPC   H4S20642   5.117   1.797   3.863  0.8937 -2.1448 -1.4195
  181SLPC   C2520643   4.927   1.713   3.911  0.0500  0.1283 -0.0661
  181SLPC   H5R20644   4.924   1.602   3.910 -0.4957  0.1355  0.5481
  181SLPC   H5S20645   4.828   1.748   3.877 -0.2235 -0.0806  0.5075
  181SLPC   C2620646   4.949   1.774   4.053 -0.4733  0.2181  0.5256
  181SLPC   H6R20647   4.861   1.754   4.118  0.0198 -0.9242  0.8738
  181SLPC   H6S20648   4.973   1.880   4.035  0.3686  0.4587  2.7519
  181SLPC   C2720649   5.072   1.718   4.138 -0.2822 -0.1148 -0.9738
  181SLPC   H7R20650   5.165   1.758   4.090  1.6769 -0.0385  2.5554
  181SLPC   H7S20651   5.063   1.608   4.129 -2.6188  0.0839 -1.7538
  181SLPC   C2820652   5.074   1.769   4.287  0.4223  0.1394 -0.7882
  181SLPC   H8R20653   5.174   1.744   4.330 -0.1168 -1.9690 -0.6247
  181SLPC   H8S20654   4.998   1.703   4.335  0.7632 -0.2494 -0.7762
  181SLPC   C2920655   5.052   1.916   4.311  0.1862  0.1630 -1.0244
  181SLPC   H9R20656   5.116   1.970   4.239  1.9752 -1.1274 -0.4583
  181SLPC  C21020657   4.959   1.969   4.398  0.7913  0.1619  0.1559
  181SLPC  H10R20658   4.940   2.077   4.414 -0.1226 -0.2705  2.3379
  181SLPC  C21120659   4.862   1.892   4.491 -0.4746 -0.1827 -0.7826
  181SLPC  H11R20660   4.869   1.951   4.585  0.9587  0.7096 -1.4122
  181SLPC  H11S20661   4.906   1.791   4.507  0.7626  0.4952  0.2307
  181SLPC  C21220662   4.719   1.890   4.452 -0.1574  0.5191 -0.7545
  181SLPC  H12R20663   4.699   1.799   4.394  1.4468 -1.4582  1.6276
  181SLPC  C21320664   4.621   1.980   4.494  0.4460 -0.2435  0.0813
  181SLPC  H13R20665   4.517   1.964   4.462  0.6219  0.9568 -1.1787
  181SLPC  C21420666   4.634   2.090   4.591  0.1688  0.1563  0.4048
  181SLPC  H14R20667   4.574   2.174   4.549 -0.3974 -0.1026  0.6745
  181SLPC  H14S20668   4.734   2.135   4.578  0.5914  0.2556  3.3346
  181SLPC  C21520669   4.598   2.056   4.735  0.2869 -0.5955 -0.2271
  181SLPC  H15R20670   4.671   1.979   4.770  1.5244  0.3827 -0.5868
  181SLPC  H15S20671   4.493   2.021   4.723  0.7632 -1.3425 -2.9630
  181SLPC  C21620672   4.609   2.176   4.828  0.3358 -0.3625 -0.3423
  181SLPC  H16R20673   4.559   2.263   4.780  2.7450  1.5853  0.4641
  181SLPC  H16S20674   4.714   2.212   4.840  0.2417 -0.2602  0.1955
  181SLPC  C21720675   4.552   2.150   4.968  0.3030  0.5660 -0.4336
  181SLPC  H17R20676   4.593   2.055   5.010 -0.8933  0.1753 -0.1062
  181SLPC  H17S20677   4.444   2.127   4.961  0.5395 -1.1858  0.8072
  181SLPC  C21820678   4.582   2.259   5.068 -0.4388  0.1054  0.0259
  181SLPC  H18R20679   4.688   2.286   5.090 -0.2428 -0.9743  0.4537
  181SLPC  H18S20680   4.536   2.243   5.168  0.8363  1.0030  0.8003
  181SLPC  H18T20681   4.521   2.346   5.036 -1.8017 -0.6934  0.3739
  181SLPC   C3320682   4.314   1.862   3.873  0.1950  0.0562 -0.0429
  181SLPC   H3X20683   4.268   1.766   3.842  1.2836 -0.3675 -0.3919
  181SLPC   H3Y20684   4.249   1.943   3.832 -1.7594 -0.9902  0.8165
  181SLPC   C3420685   4.317   1.884   4.023 -0.4144  0.0359 -0.9870
  181SLPC   H4X20686   4.217   1.918   4.056 -0.3303  0.7884 -1.4711
  181SLPC   H4Y20687   4.387   1.968   4.043  0.5431 -0.6493 -1.3672
  181SLPC   C3520688   4.372   1.768   4.111 -0.6259 -0.3834 -0.1345
  181SLPC   H5X20689   4.480   1.756   4.088 -0.7691  1.2420 -1.8757
  181SLPC   H5Y20690   4.320   1.672   4.091  2.5162 -2.7747  2.0331
  181SLPC   C3620691   4.348   1.799   4.264  0.3164  0.2717 -0.1635
  181SLPC   H6X20692   4.240   1.818   4.286 -0.2058 -1.0414 -1.4399
  181SLPC   H6Y20693   4.410   1.888   4.286 -0.9794  1.2578 -0.3494
  181SLPC   C3720694   4.386   1.677   4.351  0.1705 -0.3013 -0.1468
  181SLPC   H7X20695   4.494   1.697   4.370 -0.1816  3.4891 -1.4087
  181SLPC   H7Y20696   4.370   1.582   4.297 -1.6283  0.1961 -0.5564
  181SLPC   C3820697   4.313   1.659   4.482 -1.1372 -0.1028 -0.7201
  181SLPC   H8X20698   4.330   1.553   4.512 -4.2044 -0.9509 -1.6989
  181SLPC   H8Y20699   4.205   1.676   4.465 -1.1281 -1.7597 -2.8545
  181SLPC   C3920700   4.368   1.755   4.592  0.9004 -0.3125  0.3423
  181SLPC   H9X20701   4.356   1.863   4.569  1.5873  0.9244  4.8274
  181SLPC   H9Y20702   4.476   1.731   4.597  0.7931 -0.5501  2.4496
  181SLPC  C31020703   4.295   1.719   4.726  0.0014  0.2735 -0.1575
  181SLPC  H10X20704   4.299   1.612   4.753 -2.0556  0.2616  0.2911
  181SLPC  H10Y20705   4.185   1.737   4.727 -0.0957  0.1787  3.8883
  181SLPC  C31120706   4.359   1.801   4.839 -0.0692 -0.4769  0.2134
  181SLPC  H11X20707   4.332   1.908   4.826  0.5969 -0.5249 -1.7823
  181SLPC  H11Y20708   4.469   1.800   4.831 -0.0712  0.2135  0.0431
  181SLPC  C31220709   4.328   1.755   4.980 -0.0946 -0.1884 -0.1427
  181SLPC  H12X20710   4.348   1.646   4.985  1.0950 -0.0197 -0.7971
  181SLPC  H12Y20711   4.225   1.778   5.014  0.3070  0.2896  0.7812
  181SLPC  C31320712   4.426   1.820   5.076 -0.1091  0.2336  0.2450
  181SLPC  H13X20713   4.417   1.930   5.065  1.2271  0.2304 -1.4518
  181SLPC  H13Y20714   4.526   1.784   5.044 -0.1277 -0.5695  1.0319
  181SLPC  C31420715   4.409   1.770   5.224  1.1520 -0.2875 -0.2508
  181SLPC  H14X20716   4.422   1.660   5.226 -1.5257 -0.8196  4.7784
  181SLPC  H14Y20717   4.299   1.771   5.236  1.1246 -1.2640 -0.3587
  181SLPC  C31520718   4.482   1.848   5.332 -0.1164 -0.0823 -0.1942
  181SLPC  H15X20719   4.424   1.942   5.336  0.3138  0.2259 -0.8785
  181SLPC  H15Y20720   4.572   1.859   5.267 -2.3997  0.9157 -3.4615
  181SLPC  C31620721   4.515   1.772   5.459 -0.2912  0.3976 -0.1432
  181SLPC  H16X20722   4.573   1.680   5.438  1.2708  1.3298 -0.0761
  181SLPC  H16Y20723   4.428   1.746   5.523 -0.1117 -2.4699 -0.9432
  181SLPC  C31720724   4.595   1.871   5.549 -0.4096 -0.2677 -0.2937
  181SLPC  H17X20725   4.551   1.972   5.542  2.4426  1.1279  0.3757
  181SLPC  H17Y20726   4.694   1.881   5.499 -0.4459  2.6996  0.0705
  181SLPC  C31820727   4.615   1.822   5.689 -0.2730  0.0435  0.4699
  181SLPC  H18X20728   4.686   1.886   5.745  0.5220  0.8360 -1.3674
  181SLPC  H18Y20729   4.668   1.725   5.673 -0.3547  0.0302  0.2812
  181SLPC  H18Z20730   4.521   1.792   5.741 -0.3921 -1.8804 -0.7511
  182SLPC     N20731   3.955   6.424   3.382  1.1291 -0.4319 -0.9517
  182SLPC   C1320732   4.079   6.461   3.310  0.2099 -0.5084  0.6107
  182SLPC  H13A20733   4.060   6.511   3.217  1.1102 -1.3779 -0.0635
  182SLPC  H13B20734   4.139   6.528   3.370  1.5844  0.2099 -1.4803
  182SLPC  H13C20735   4.142   6.377   3.285  0.3531  0.4976 -2.8620
  182SLPC   C1420736   4.003   6.364   3.511  0.4321  0.3685 -0.4901
  182SLPC  H14A20737   4.073   6.284   3.497  2.0929  1.2796  1.9258
  182SLPC  H14B20738   4.050   6.436   3.577 -0.3422  1.0502 -0.6553
  182SLPC  H14C20739   3.921   6.321   3.567  2.3257  0.0771  2.2443
  182SLPC   C1520740   3.896   6.315   3.304  0.2232  0.4807  0.6090
  182SLPC  H15A20741   3.969   6.238   3.285 -1.7619 -0.8872 -2.1006
  182SLPC  H15B20742   3.823   6.263   3.364 -0.2364 -1.8107 -1.7712
  182SLPC  H15C20743   3.856   6.354   3.211  0.4021 -0.4330  0.1431
  182SLPC   C1220744   3.857   6.537   3.398 -0.0193 -0.0311  0.1878
  182SLPC  H12A20745   3.765   6.504   3.443  0.2952  0.1250  0.9494
  182SLPC  H12B20746   3.817   6.577   3.306  0.2212  0.6074  0.3569
  182SLPC   C1120747   3.898   6.656   3.488  0.0327  0.0510 -0.0246
  182SLPC  H11A20748   3.885   6.624   3.593  0.6310 -0.8968 -0.2348
  182SLPC  H11B20749   3.822   6.736   3.471 -1.1175 -1.0551 -0.2772
  182SLPC     P20750   4.132   6.743   3.556  0.4867 -0.0097 -0.2252
  182SLPC   O1320751   4.258   6.760   3.478 -0.1616 -0.3867 -0.5685
  182SLPC   O1420752   4.082   6.862   3.627 -0.1735 -0.7052  0.1305
  182SLPC   O1220753   4.023   6.707   3.446  0.7951  0.3569  0.4860
  182SLPC   O1120754   4.133   6.619   3.652  0.0845 -0.2980  0.1315
  182SLPC    C120755   4.252   6.560   3.706 -0.3126  0.2457  0.1621
  182SLPC    HA20756   4.290   6.483   3.634 -1.5584 -1.6497  1.4309
  182SLPC    HB20757   4.327   6.633   3.741  0.6040 -0.3177 -0.5674
  182SLPC    C220758   4.231   6.469   3.832 -0.4939 -0.1468  0.5022
  182SLPC    HS20759   4.148   6.399   3.809 -0.3042  0.5711 -2.9716
  182SLPC   O2120760   4.200   6.557   3.937 -0.6975 -0.6922 -0.0703
  182SLPC   C2120761   4.075   6.544   3.990 -0.3516  0.5368  0.1018
  182SLPC   O2220762   3.998   6.452   3.968  0.2614  0.4402 -0.4862
  182SLPC   C2220763   4.059   6.658   4.085 -0.0489 -0.1487  0.2359
  182SLPC   H2R20764   4.129   6.651   4.171 -0.5179 -1.6815  0.5228
  182SLPC   H2S20765   4.082   6.746   4.021  1.0342 -0.7072 -0.1567
  182SLPC    C320766   4.356   6.387   3.879 -0.1785 -0.4460  0.1028
  182SLPC    HX20767   4.454   6.435   3.857 -0.7988  0.4889 -0.7138
  182SLPC    HY20768   4.356   6.298   3.812 -1.2609 -0.5792  0.2534
  182SLPC   O3120769   4.351   6.336   4.011  0.1961 -0.2902 -0.1274
  182SLPC   C3120770   4.452   6.273   4.066 -0.7310 -0.2734 -0.4694
  182SLPC   O3220771   4.549   6.247   3.996  0.1023  0.1602 -0.6707
  182SLPC   C3220772   4.425   6.254   4.209  0.4429 -0.5150  0.1016
  182SLPC   H2X20773   4.337   6.188   4.222  1.5320 -2.3355 -1.3322
  182SLPC   H2Y20774   4.411   6.354   4.255 -0.8497 -0.5450 -0.1763
  182SLPC   C2320775   3.913   6.666   4.151 -0.0614  0.7380 -0.1825
  182SLPC   H3R20776   3.881   6.566   4.187 -0.0778  1.3268  1.5067
  182SLPC   H3S20777   3.839   6.689   4.071 -0.8443  2.7873  1.0353
  182SLPC   C2420778   3.888   6.763   4.264  0.2757  0.3995 -0.5358
  182SLPC   H4R20779   3.785   6.766   4.305  0.4276  0.5483 -0.1520
  182SLPC   H4S20780   3.907   6.861   4.217  2.7184 -0.8579 -2.3973
  182SLPC   C2520781   3.977   6.729   4.383  0.2964  0.4665 -0.9320
  182SLPC   H5R20782   4.076   6.778   4.367 -1.3664  3.6868 -2.4220
  182SLPC   H5S20783   4.001   6.621   4.383  1.2357  0.6495 -2.2923
  182SLPC   C2620784   3.932   6.776   4.520 -0.5938 -0.0090 -1.2255
  182SLPC   H6R20785   3.832   6.732   4.538  0.1550 -0.8120  1.3539
  182SLPC   H6S20786   3.925   6.887   4.515  0.4483  0.2013  0.8203
  182SLPC   C2720787   4.021   6.722   4.634  0.0518 -0.1143  0.3131
  182SLPC   H7R20788   4.125   6.744   4.600  0.3663 -0.1554  1.2288
  182SLPC   H7S20789   4.013   6.611   4.634  0.8441 -0.1798  1.1653
  182SLPC   C2820790   4.006   6.766   4.778 -1.2521 -0.3304  0.2321
  182SLPC   H8R20791   3.900   6.742   4.801 -0.7705 -0.4855  2.5596
  182SLPC   H8S20792   4.019   6.876   4.788  1.1857 -0.4709 -0.7179
  182SLPC   C2920793   4.105   6.703   4.876 -0.5814 -0.3861 -0.3540
  182SLPC   H9R20794   4.143   6.605   4.843 -1.3565 -0.6152 -0.5863
  182SLPC  C21020795   4.118   6.737   5.006 -0.2649 -0.4233  0.1923
  182SLPC  H10R20796   4.177   6.684   5.082 -0.3216 -1.1056 -0.2313
  182SLPC  C21120797   4.053   6.853   5.074  0.4240 -0.0605 -0.0759
  182SLPC  H11R20798   3.963   6.815   5.126 -1.3341 -0.1910 -2.9806
  182SLPC  H11S20799   4.001   6.928   5.011  0.4383  0.0910  0.0929
  182SLPC  C21220800   4.145   6.923   5.169  0.6335 -0.1533  0.0901
  182SLPC  H12R20801   4.247   6.925   5.128 -0.4536  0.5133 -2.8270
  182SLPC  C21320802   4.131   6.951   5.296 -0.1638  0.0033 -0.6085
  182SLPC  H13R20803   4.214   6.998   5.351 -1.7893  0.5145  1.5687
  182SLPC  C21420804   4.008   6.930   5.389 -0.2271 -0.4362  0.2135
  182SLPC  H14R20805   4.032   6.860   5.472  0.0994  0.8021  1.2104
  182SLPC  H14S20806   3.925   6.886   5.330  0.7863 -0.7040 -1.0452
  182SLPC  C21520807   3.969   7.064   5.452  0.1139  0.3061  0.5459
  182SLPC  H15R20808   3.936   7.141   5.378  0.1351  0.2642  0.4923
  182SLPC  H15S20809   4.058   7.121   5.489 -0.0412  1.8441 -1.2687
  182SLPC  C21620810   3.863   7.047   5.549  0.4501  0.1784  0.5814
  182SLPC  H16R20811   3.884   6.956   5.609  0.9301 -0.8180 -1.0416
  182SLPC  H16S20812   3.763   7.032   5.503  0.1701 -0.9035  1.5120
  182SLPC  C21720813   3.840   7.169   5.649  0.5267  0.4257  0.2038
  182SLPC  H17R20814   3.803   7.258   5.595 -0.5853  1.2513  2.2026
  182SLPC  H17S20815   3.937   7.196   5.696  0.9870 -0.5298 -0.1668
  182SLPC  C21820816   3.741   7.123   5.766 -0.0202  0.5105  0.4367
  182SLPC  H18R20817   3.743   7.190   5.854 -2.8770  0.6789  0.4572
  182SLPC  H18S20818   3.778   7.023   5.799  2.2716  0.8854 -0.7531
  182SLPC  H18T20819   3.636   7.133   5.733 -0.3400  0.0383  1.2909
  182SLPC   C3320820   4.545   6.184   4.279 -0.0132 -0.1982  0.8569
  182SLPC   H3X20821   4.641   6.227   4.243  0.0026 -0.1125  1.0013
  182SLPC   H3Y20822   4.547   6.079   4.245  1.0943 -0.1718  0.8111
  182SLPC   C3420823   4.540   6.200   4.428  0.4297 -0.4001  0.2256
  182SLPC   H4X20824   4.441   6.164   4.465  0.4594  0.8644  1.6449
  182SLPC   H4Y20825   4.535   6.307   4.456 -3.8620 -0.4212  0.1916
  182SLPC   C3520826   4.649   6.114   4.498  0.2268  0.5828  0.2185
  182SLPC   H5X20827   4.743   6.163   4.464 -0.0865  1.9377  1.1792
  182SLPC   H5Y20828   4.650   6.010   4.460 -2.5421 -0.1874  2.0216
  182SLPC   C3620829   4.639   6.116   4.655 -0.0174 -0.5049 -0.8619
  182SLPC   H6X20830   4.541   6.066   4.668 -0.1432 -0.4136 -1.4625
  182SLPC   H6Y20831   4.614   6.222   4.678 -1.4814 -0.9124 -0.4742
  182SLPC   C3720832   4.748   6.046   4.738 -0.1186  0.4810 -0.4259
  182SLPC   H7X20833   4.846   6.097   4.733  0.2448 -0.0138  1.1071
  182SLPC   H7Y20834   4.753   5.948   4.685  0.3381  0.9667 -1.3114
  182SLPC   C3820835   4.711   6.020   4.890  0.3613 -0.4231  0.6279
  182SLPC   H8X20836   4.754   5.927   4.933  0.2723 -0.6933  0.1502
  182SLPC   H8Y20837   4.601   6.010   4.891 -0.3219  4.6192  1.3530
  182SLPC   C3920838   4.752   6.134   4.985 -0.1932 -0.3517  0.1607
  182SLPC   H9X20839   4.701   6.230   4.965  0.1229  0.3237  2.3395
  182SLPC   H9Y20840   4.861   6.155   4.977 -0.4758  0.6835 -1.3468
  182SLPC  C31020841   4.736   6.107   5.133 -0.0615 -0.2380  0.5511
  182SLPC  H10X20842   4.791   6.192   5.179 -0.1541  0.2713 -0.2573
  182SLPC  H10Y20843   4.789   6.013   5.160  0.4905  0.7376  3.2361
  182SLPC  C31120844   4.593   6.111   5.177  0.0361 -0.7806  0.5058
  182SLPC  H11X20845   4.533   6.024   5.142  0.9661 -1.4983  0.6467
  182SLPC  H11Y20846   4.551   6.201   5.127  0.9938 -1.2108 -1.1242
  182SLPC  C31220847   4.577   6.112   5.330  0.0967 -0.1807  0.3688
  182SLPC  H12X20848   4.631   6.031   5.383  1.2987  0.8770  0.8310
  182SLPC  H12Y20849   4.474   6.099   5.369  0.4633 -0.4055  1.2780
  182SLPC  C31320850   4.615   6.245   5.396 -1.1358 -0.1224  0.3347
  182SLPC  H13X20851   4.563   6.338   5.364 -1.0308 -0.1641  0.0334
  182SLPC  H13Y20852   4.724   6.261   5.380 -0.7705 -2.1914  0.5138
  182SLPC  C31420853   4.586   6.250   5.543 -0.1189  0.3425 -0.1212
  182SLPC  H14X20854   4.644   6.171   5.595 -0.3950 -0.5089 -1.0778
  182SLPC  H14Y20855   4.476   6.236   5.544 -0.2737  1.0443 -2.0835
  182SLPC  C31520856   4.610   6.386   5.617  0.1742  0.6728  0.2925
  182SLPC  H15X20857   4.592   6.378   5.727  0.4171  1.0894  0.3660
  182SLPC  H15Y20858   4.557   6.468   5.564 -0.1081  1.6396  1.9627
  182SLPC  C31620859   4.756   6.427   5.614 -1.2603 -0.0752  0.2073
  182SLPC  H16X20860   4.795   6.428   5.510 -1.0820 -0.5382  0.2695
  182SLPC  H16Y20861   4.819   6.353   5.668  1.3141  1.1259 -0.9485
  182SLPC  C31720862   4.768   6.574   5.666  0.5984 -0.0638  0.0977
  182SLPC  H17X20863   4.706   6.648   5.611 -0.6478 -0.1027  1.3827
  182SLPC  H17Y20864   4.875   6.599   5.651  1.4468 -1.6482  2.8334
  182SLPC  C31820865   4.738   6.591   5.810  0.1434 -0.3771  0.3289
  182SLPC  H18X20866   4.776   6.505   5.870  2.0258  0.9058  1.0713
  182SLPC  H18Y20867   4.630   6.603   5.833  0.5751  2.4775  1.2704
  182SLPC  H18Z20868   4.786   6.682   5.852 -2.0900  0.0044  2.2389
  183SLPC     N20869   4.104   2.601   2.969  0.2377 -0.1684  0.4048
  183SLPC   C1320870   4.163   2.524   2.863 -0.2305 -0.1522  0.2237
  183SLPC  H13A20871   4.154   2.416   2.871  0.6289 -0.2342  0.1199
  183SLPC  H13B20872   4.121   2.547   2.766  1.7240 -0.8560 -0.8456
  183SLPC  H13C20873   4.270   2.537   2.856 -0.1603 -1.1313 -0.9658
  183SLPC   C1420874   3.953   2.573   2.973 -0.3955  0.2820 -0.3352
  183SLPC  H14A20875   3.949   2.474   3.017  3.2147 -1.1076 -2.7072
  183SLPC  H14B20876   3.907   2.653   3.029 -0.4982 -0.9400  1.4470
  183SLPC  H14C20877   3.898   2.572   2.881 -0.7318  1.1528 -0.1536
  183SLPC   C1520878   4.114   2.749   2.933 -0.1675  0.3662 -0.1541
  183SLPC  H15A20879   4.213   2.788   2.954 -1.3770  2.5119  2.0933
  183SLPC  H15B20880   4.083   2.772   2.832  0.4263 -0.3774 -0.5213
  183SLPC  H15C20881   4.055   2.818   2.991  2.9442  1.3260  2.1547
  183SLPC   C1220882   4.162   2.569   3.103 -0.3621 -0.4617  0.1538
  183SLPC  H12A20883   4.162   2.462   3.118  2.9161 -0.7249 -1.0625
  183SLPC  H12B20884   4.094   2.605   3.179 -1.8963  0.0581 -1.4003
  183SLPC   C1120885   4.304   2.637   3.112  0.3528  0.7890  0.4690
  183SLPC  H11A20886   4.367   2.615   3.024  0.5322 -0.3062  0.8592
  183SLPC  H11B20887   4.357   2.582   3.193  0.0169  0.1087  0.2281
  183SLPC     P20888   4.254   2.843   3.268  0.1022  0.2027 -0.2137
  183SLPC   O1320889   4.248   2.987   3.231  0.0423 -0.3235  0.1499
  183SLPC   O1420890   4.130   2.778   3.322  0.4269 -0.3137  0.7655
  183SLPC   O1220891   4.297   2.778   3.137 -0.1687  0.0641  0.0454
  183SLPC   O1120892   4.381   2.814   3.366  0.2353 -0.6689 -0.0106
  183SLPC    C120893   4.508   2.875   3.356 -0.2649 -0.1545  0.4593
  183SLPC    HA20894   4.585   2.805   3.318  0.1088  0.1296  0.6856
  183SLPC    HB20895   4.504   2.966   3.292 -3.9915  0.0270  0.7112
  183SLPC    C220896   4.549   2.942   3.490  0.7690 -0.8263 -0.0360
  183SLPC    HS20897   4.650   2.987   3.484 -0.1638  1.6608  1.7074
  183SLPC   O2120898   4.568   2.844   3.603  0.6677  0.1353  0.0438
  183SLPC   C2120899   4.659   2.749   3.586  0.3155 -0.3717  0.1727
  183SLPC   O2220900   4.732   2.735   3.490 -0.3130  0.2106  0.3189
  183SLPC   C2220901   4.683   2.677   3.720  0.2885  0.1219 -0.0577
  183SLPC   H2R20902   4.598   2.700   3.788 -1.8742 -2.5582 -1.6401
  183SLPC   H2S20903   4.671   2.568   3.707  0.3380  0.2432 -1.2953
  183SLPC    C320904   4.448   3.052   3.544 -0.3554 -0.0307 -0.0311
  183SLPC    HX20905   4.347   3.006   3.553 -1.0245  1.4589  0.5484
  183SLPC    HY20906   4.421   3.127   3.466  1.1596  1.4052  0.7561
  183SLPC   O3120907   4.499   3.125   3.662 -0.4636 -0.0758  0.7013
  183SLPC   C3120908   4.441   3.082   3.773 -0.4832  0.9774  0.3088
  183SLPC   O3220909   4.343   3.006   3.783  0.4962  0.5306  0.0515
  183SLPC   C3220910   4.504   3.143   3.898 -0.1222 -0.1870 -0.1176
  183SLPC   H2X20911   4.421   3.159   3.969  0.9075  1.3282  0.8007
  183SLPC   H2Y20912   4.551   3.239   3.866  0.4232 -0.5386 -0.3986
  183SLPC   C2320913   4.808   2.723   3.803 -0.5486  1.0960  0.4717
  183SLPC   H3R20914   4.844   2.826   3.786  0.2653  0.6676 -0.5370
  183SLPC   H3S20915   4.896   2.660   3.778 -1.1859 -0.7336  2.4872
  183SLPC   C2420916   4.807   2.695   3.957  0.3342  0.0781  0.1581
  183SLPC   H4R20917   4.807   2.588   3.987 -1.6131 -0.3227 -1.0904
  183SLPC   H4S20918   4.709   2.737   3.991  0.3462  2.5461 -2.4664
  183SLPC   C2520919   4.925   2.765   4.028  0.5801  1.5657  0.6304
  183SLPC   H5R20920   4.927   2.870   3.990 -0.2183  0.7757 -1.7827
  183SLPC   H5S20921   5.012   2.713   3.983 -2.8279 -0.4456 -4.8072
  183SLPC   C2620922   4.934   2.735   4.177 -0.0788  0.1393 -0.0866
  183SLPC   H6R20923   4.836   2.751   4.227 -0.5776  2.7637 -1.7389
  183SLPC   H6S20924   5.006   2.803   4.228 -1.6502 -0.3882  3.0878
  183SLPC   C2720925   4.994   2.597   4.220 -0.1167 -0.0723 -0.2130
  183SLPC   H7R20926   5.104   2.594   4.205  0.0815  2.5866  0.2968
  183SLPC   H7S20927   4.947   2.513   4.165 -0.8425 -2.1285  3.2045
  183SLPC   C2820928   4.978   2.587   4.371 -0.1230  0.3348 -0.0467
  183SLPC   H8R20929   4.874   2.602   4.407 -0.2494 -2.6834  1.1976
  183SLPC   H8S20930   5.042   2.663   4.421 -0.1697  1.0365 -1.0396
  183SLPC   C2920931   5.020   2.447   4.415 -0.5234 -0.4322  0.3513
  183SLPC   H9R20932   5.063   2.385   4.335  3.4626  1.6037  0.6866
  183SLPC  C21020933   5.007   2.388   4.534 -0.0661 -0.0682 -0.5819
  183SLPC  H10R20934   5.035   2.283   4.549  0.4311 -0.4229 -3.4390
  183SLPC  C21120935   4.946   2.460   4.654  0.3548  0.3991 -0.0214
  183SLPC  H11R20936   4.843   2.488   4.626  0.0985  0.7967  1.2719
  183SLPC  H11S20937   5.021   2.540   4.673 -0.2434  1.0010 -0.1695
  183SLPC  C21220938   4.927   2.379   4.779 -0.1831  0.1117 -0.0145
  183SLPC  H12R20939   4.901   2.273   4.765 -0.2448  0.0025  0.9264
  183SLPC  C21320940   4.967   2.403   4.903 -0.1367 -0.8002 -0.0560
  183SLPC  H13R20941   4.951   2.317   4.969 -2.2504 -0.0139  0.5497
  183SLPC  C21420942   5.032   2.527   4.957  0.6105 -0.7835  0.7457
  183SLPC  H14R20943   5.036   2.602   4.876 -0.2081 -0.3232  1.1280
  183SLPC  H14S20944   5.136   2.509   4.994  0.9178  2.0106  1.4768
  183SLPC  C21520945   4.954   2.575   5.086 -0.5643 -0.1937 -0.1480
  183SLPC  H15R20946   4.947   2.493   5.161 -3.7646  0.7464  0.7196
  183SLPC  H15S20947   4.849   2.594   5.057 -1.2152  0.3248  2.3503
  183SLPC  C21620948   5.026   2.704   5.123 -0.4163  0.1007 -0.2508
  183SLPC  H16R20949   5.029   2.767   5.031  2.4563  0.9984  0.3745
  183SLPC  H16S20950   5.133   2.682   5.141  0.0545  1.8814 -0.6467
  183SLPC  C21720951   4.976   2.769   5.254  0.2674  0.0712 -0.5220
  183SLPC  H17R20952   4.868   2.753   5.273  0.2954  0.4011 -0.0538
  183SLPC  H17S20953   4.991   2.878   5.242  1.0859  0.2731  1.7451
  183SLPC  C21820954   5.046   2.711   5.369 -1.2853  0.4305  0.0787
  183SLPC  H18R20955   4.991   2.730   5.464 -0.8396  2.3359 -0.0116
  183SLPC  H18S20956   5.152   2.743   5.371 -0.5402 -1.7603 -0.9630
  183SLPC  H18T20957   5.053   2.600   5.361  0.3359  0.4367  0.9517
  183SLPC   C3320958   4.616   3.039   3.947 -0.2312 -0.5329  0.0150
  183SLPC   H3X20959   4.679   3.019   3.858 -1.1154 -0.1195 -0.7204
  183SLPC   H3Y20960   4.578   2.937   3.970 -0.9538 -0.4136 -0.6116
  183SLPC   C3420961   4.685   3.108   4.064 -0.2612  0.1046 -0.3888
  183SLPC   H4X20962   4.705   3.211   4.027 -0.1416  0.2529  0.0779
  183SLPC   H4Y20963   4.786   3.065   4.083  0.2855  0.8169 -1.5740
  183SLPC   C3520964   4.611   3.097   4.195  0.5642 -0.4785 -0.6193
  183SLPC   H5X20965   4.600   2.990   4.222 -0.8675 -0.3024 -0.3998
  183SLPC   H5Y20966   4.512   3.142   4.171  1.2902  0.2609 -2.3492
  183SLPC   C3620967   4.671   3.172   4.310 -0.3181 -0.4906 -0.3253
  183SLPC   H6X20968   4.668   3.280   4.281 -0.0729 -0.8516 -1.7441
  183SLPC   H6Y20969   4.776   3.134   4.310 -0.1997 -0.1889  0.3291
  183SLPC   C3720970   4.592   3.164   4.445 -0.0952  0.2869  0.2362
  183SLPC   H7X20971   4.580   3.059   4.481 -1.4329 -0.1042 -1.2581
  183SLPC   H7Y20972   4.495   3.215   4.427 -0.0370  0.4707  0.4280
  183SLPC   C3820973   4.667   3.248   4.547 -0.5378 -0.0648  0.3262
  183SLPC   H8X20974   4.652   3.357   4.529 -0.8315 -0.2216 -0.4294
  183SLPC   H8Y20975   4.774   3.223   4.530 -0.8670 -0.6050 -1.1009
  183SLPC   C3920976   4.633   3.213   4.696  0.1040 -0.0192  0.1987
  183SLPC   H9X20977   4.659   3.108   4.718 -1.7128 -0.1548  1.9898
  183SLPC   H9Y20978   4.525   3.225   4.720  0.6208  1.9182  1.8924
  183SLPC  C31020979   4.704   3.298   4.797 -0.2181  0.3844 -0.6442
  183SLPC  H10X20980   4.814   3.289   4.789 -0.2979 -3.6373  0.7929
  183SLPC  H10Y20981   4.687   3.256   4.898  1.9479 -3.3737 -1.6556
  183SLPC  C31120982   4.660   3.445   4.790  0.5241  0.4549  0.1792
  183SLPC  H11X20983   4.552   3.445   4.817  0.1040  0.0733 -1.3888
  183SLPC  H11Y20984   4.658   3.481   4.685  0.2035 -2.2003 -0.7925
  183SLPC  C31220985   4.744   3.534   4.879 -0.1364  0.2013 -0.6285
  183SLPC  H12X20986   4.735   3.643   4.858  0.4156  0.3024 -0.3651
  183SLPC  H12Y20987   4.854   3.526   4.862 -0.0716  0.9005 -0.5658
  183SLPC  C31320988   4.733   3.500   5.026  0.1554  0.0538  0.0710
  183SLPC  H13X20989   4.825   3.536   5.076  1.0135 -1.1801 -0.5540
  183SLPC  H13Y20990   4.722   3.390   5.041 -0.5848 -0.3996 -3.0730
  183SLPC  C31420991   4.613   3.560   5.094  0.0056  0.3279 -0.1377
  183SLPC  H14X20992   4.531   3.491   5.065 -0.9099  0.8248  1.1484
  183SLPC  H14Y20993   4.578   3.655   5.050 -1.9158 -0.7646 -1.1185
  183SLPC  C31520994   4.620   3.574   5.246 -1.0836  0.7683 -0.2788
  183SLPC  H15X20995   4.713   3.634   5.255 -0.6374  0.1721 -0.7425
  183SLPC  H15Y20996   4.651   3.479   5.296  0.6539 -0.4483 -3.4038
  183SLPC  C31620997   4.497   3.641   5.291  0.1406  0.0360  0.0805
  183SLPC  H16X20998   4.405   3.584   5.269 -0.0244  0.3688 -0.0989
  183SLPC  H16Y20999   4.483   3.743   5.249 -1.1909  0.1229  0.6801
  183SLPC  C31721000   4.478   3.670   5.442 -0.3482 -0.5740  0.8249
  183SLPC  H17X21001   4.578   3.705   5.475 -0.7098  1.7796 -0.3135
  183SLPC  H17Y21002   4.452   3.575   5.493  1.6197 -1.1451  0.8574
  183SLPC  C31821003   4.385   3.783   5.478  0.3401  0.6868  0.1411
  183SLPC  H18X21004   4.399   3.782   5.588  1.3900 -0.9270  0.0253
  183SLPC  H18Y21005   4.283   3.754   5.443  0.4878  1.7211 -1.2362
  183SLPC  H18Z21006   4.416   3.878   5.429  0.0910  0.9922  0.5689
  184SLPC     N21007   6.194   2.633   3.560 -0.4025  0.6488  0.1789
  184SLPC   C1321008   6.255   2.683   3.684  0.0193 -0.1538  0.5598
  184SLPC  H13A21009   6.356   2.648   3.698  0.2229  0.2689  0.1560
  184SLPC  H13B21010   6.253   2.791   3.677  2.1866 -0.1720 -2.3515
  184SLPC  H13C21011   6.191   2.652   3.765  0.3569  2.6251  1.9950
  184SLPC   C1421012   6.162   2.486   3.587 -0.2632  0.4561 -0.4498
  184SLPC  H14A21013   6.239   2.423   3.627 -1.2096 -0.4500 -0.0168
  184SLPC  H14B21014   6.086   2.473   3.662 -0.7621 -2.1705 -1.3088
  184SLPC  H14C21015   6.126   2.439   3.496  0.6147 -0.1905 -0.4687
  184SLPC   C1521016   6.295   2.638   3.447 -0.4104 -0.4182  0.1357
  184SLPC  H15A21017   6.333   2.736   3.422  1.0656 -1.2435 -1.0502
  184SLPC  H15B21018   6.383   2.580   3.471 -0.3627 -1.4872 -2.2829
  184SLPC  H15C21019   6.245   2.583   3.368  2.0149 -1.9243 -0.4773
  184SLPC   C1221020   6.071   2.705   3.521 -0.5564 -0.6987 -0.1069
  184SLPC  H12A21021   6.004   2.700   3.606 -1.6846 -0.5925 -0.9834
  184SLPC  H12B21022   6.019   2.649   3.445 -0.7025 -0.7186  0.0063
  184SLPC   C1121023   6.096   2.860   3.490  0.0632  0.7150 -0.0889
  184SLPC  H11A21024   6.008   2.895   3.432 -0.7419  1.0364  1.2621
  184SLPC  H11B21025   6.186   2.867   3.426 -0.2808 -0.9522 -0.8186
  184SLPC     P21026   6.087   3.083   3.616 -0.2631  0.0111  0.5621
  184SLPC   O1321027   6.092   3.122   3.473  0.8721 -0.3462  0.2217
  184SLPC   O1421028   5.964   3.110   3.685 -0.2262  0.7769  0.4002
  184SLPC   O1221029   6.114   2.923   3.613  0.3118 -0.0222  0.6434
  184SLPC   O1121030   6.207   3.143   3.696  0.4366  0.1219 -0.8013
  184SLPC    C121031   6.291   3.049   3.759  0.4228 -1.0427 -0.1857
  184SLPC    HA21032   6.237   2.990   3.837 -0.1566 -0.0064  0.2178
  184SLPC    HB21033   6.345   2.979   3.692 -0.3453 -1.8280 -0.0086
  184SLPC    C221034   6.403   3.119   3.827 -0.4498 -1.0746  0.0810
  184SLPC    HS21035   6.457   3.179   3.751  0.2013 -1.3369  0.3270
  184SLPC   O2121036   6.493   3.023   3.880 -0.5179 -0.3470  0.2353
  184SLPC   C2121037   6.596   3.077   3.949  0.2988  1.6310  0.2159
  184SLPC   O2221038   6.649   3.183   3.927 -0.4003  0.5003  0.0602
  184SLPC   C2221039   6.633   2.962   4.051  0.5473 -0.3748  0.4094
  184SLPC   H2R21040   6.558   2.968   4.133  1.4191  0.2697  1.1829
  184SLPC   H2S21041   6.626   2.866   3.996  1.1572  0.2145 -0.7304
  184SLPC    C321042   6.346   3.219   3.941  0.3479 -0.1257  0.9209
  184SLPC    HX21043   6.272   3.284   3.890  0.2409 -1.9877 -1.4975
  184SLPC    HY21044   6.429   3.284   3.977  1.0486  1.9541 -3.7491
  184SLPC   O3121045   6.290   3.145   4.051  0.0528 -0.0636 -0.3328
  184SLPC   C3121046   6.229   3.226   4.140  0.2626  0.6952  0.1887
  184SLPC   O3221047   6.218   3.348   4.133 -0.6838 -0.0648 -0.4946
  184SLPC   C3221048   6.171   3.141   4.259  0.2008 -0.4529  1.0756
  184SLPC   H2X21049   6.124   3.054   4.208 -0.0717  0.5512 -0.4600
  184SLPC   H2Y21050   6.092   3.202   4.308 -1.4574  0.3451 -2.2725
  184SLPC   C2321051   6.777   2.985   4.115 -0.0151 -0.0251 -0.2478
  184SLPC   H3R21052   6.858   3.004   4.041  1.4552 -1.4467  0.9215
  184SLPC   H3S21053   6.814   2.891   4.160 -0.7513 -1.0467 -1.7094
  184SLPC   C2421054   6.780   3.089   4.224  0.4727 -1.3401  0.7489
  184SLPC   H4R21055   6.731   3.178   4.180  1.2728 -1.5510 -0.6344
  184SLPC   H4S21056   6.888   3.096   4.252  0.9193 -0.9316 -0.9628
  184SLPC   C2521057   6.704   3.044   4.345  0.0840  0.4406 -0.0750
  184SLPC   H5R21058   6.597   3.024   4.325  0.0181  0.4552  0.2480
  184SLPC   H5S21059   6.702   3.133   4.411  0.2688  2.2268 -2.3676
  184SLPC   C2621060   6.767   2.932   4.417 -0.0958  0.3391  0.3688
  184SLPC   H6R21061   6.866   2.967   4.454  0.2294  0.2630 -0.4142
  184SLPC   H6S21062   6.788   2.847   4.349  0.5353 -1.4624  2.6759
  184SLPC   C2721063   6.675   2.879   4.535 -0.8315 -0.3719  0.0208
  184SLPC   H7R21064   6.589   2.816   4.504 -2.3828  1.6980 -0.0890
  184SLPC   H7S21065   6.636   2.963   4.597  1.0129  0.8650 -0.4063
  184SLPC   C2821066   6.762   2.794   4.630  0.0982  0.0904 -0.2799
  184SLPC   H8R21067   6.850   2.845   4.673  0.3740 -0.3946 -0.2609
  184SLPC   H8S21068   6.780   2.705   4.566  0.6824  1.3747 -1.9986
  184SLPC   C2921069   6.672   2.745   4.743 -0.2814 -0.5196 -0.3738
  184SLPC   H9R21070   6.607   2.666   4.704  0.1352 -0.0604 -2.0778
  184SLPC  C21021071   6.664   2.791   4.873 -0.1991 -0.1104  0.7746
  184SLPC  H10R21072   6.581   2.756   4.936 -1.2283  1.5449  0.4016
  184SLPC  C21121073   6.741   2.904   4.925  0.1081  0.1654 -0.1476
  184SLPC  H11R21074   6.687   2.999   4.944  1.6719  1.0092  0.2320
  184SLPC  H11S21075   6.817   2.939   4.852 -0.4080 -0.4326 -0.9886
  184SLPC  C21221076   6.818   2.854   5.047 -0.5709  0.1674  0.1018
  184SLPC  H12R21077   6.923   2.831   5.022  0.0524  1.0994  1.7793
  184SLPC  C21321078   6.784   2.849   5.174 -0.0193 -0.3020 -0.4657
  184SLPC  H13R21079   6.856   2.827   5.255  0.3459  1.7127 -0.1888
  184SLPC  C21421080   6.651   2.896   5.221 -0.1925 -0.0737  0.3127
  184SLPC  H14R21081   6.631   2.865   5.326 -0.4464  1.9849  0.9246
  184SLPC  H14S21082   6.565   2.857   5.163 -2.0277  2.8146  0.8249
  184SLPC  C21521083   6.647   3.049   5.238  0.2044  0.0171  0.0130
  184SLPC  H15R21084   6.561   3.068   5.307 -0.0707 -1.4666  0.1143
  184SLPC  H15S21085   6.635   3.097   5.139  2.6911  1.9798  0.5839
  184SLPC  C21621086   6.770   3.124   5.288  0.8711  0.5900  0.3898
  184SLPC  H16R21087   6.849   3.113   5.211  1.0474  0.9427  0.5158
  184SLPC  H16S21088   6.793   3.074   5.385 -0.1695  0.3399  0.5216
  184SLPC  C21721089   6.741   3.272   5.329 -0.4287  0.1727  0.0284
  184SLPC  H17R21090   6.639   3.282   5.372 -1.1984 -0.6071 -1.5417
  184SLPC  H17S21091   6.752   3.329   5.235  2.7303 -0.1114  0.1218
  184SLPC  C21821092   6.847   3.329   5.432  0.4561  0.6482  0.4203
  184SLPC  H18R21093   6.952   3.328   5.395  1.0191  0.3006  1.9222
  184SLPC  H18S21094   6.843   3.264   5.523 -2.2466  0.6622  0.3695
  184SLPC  H18T21095   6.822   3.432   5.465 -2.1367 -0.0027  0.6623
  184SLPC   C3321096   6.280   3.103   4.362 -0.0867  0.0862 -0.4374
  184SLPC   H3X21097   6.322   3.196   4.405  1.2789 -0.3404 -0.8016
  184SLPC   H3Y21098   6.364   3.047   4.316  0.2264 -0.3831  0.6691
  184SLPC   C3421099   6.215   3.007   4.463  0.0385  0.4484  0.2810
  184SLPC   H4X21100   6.197   2.915   4.405  0.6248 -1.1287  2.4757
  184SLPC   H4Y21101   6.120   3.054   4.498  0.1040  3.2384 -2.8131
  184SLPC   C3521102   6.298   2.977   4.591 -0.3401 -0.1239  0.8664
  184SLPC   H5X21103   6.319   3.068   4.651 -1.9432  0.4029  0.6555
  184SLPC   H5Y21104   6.398   2.937   4.562 -0.5326 -1.3406  1.7983
  184SLPC   C3621105   6.223   2.867   4.679  0.7026  0.4569  0.1188
  184SLPC   H6X21106   6.167   2.801   4.608  1.7709  0.3242 -0.6192
  184SLPC   H6Y21107   6.153   2.899   4.759 -1.3210 -3.4566  0.1714
  184SLPC   C3721108   6.319   2.784   4.757 -0.1507 -0.2386  0.7605
  184SLPC   H7X21109   6.394   2.837   4.820  0.2546  0.0414  0.0626
  184SLPC   H7Y21110   6.376   2.722   4.685 -0.7887 -1.1805  1.0492
  184SLPC   C3821111   6.238   2.675   4.826 -1.0612  0.7997 -0.0329
  184SLPC   H8X21112   6.181   2.615   4.752  1.7328  0.4760 -2.0539
  184SLPC   H8Y21113   6.165   2.730   4.891 -1.0478  1.3513 -0.4732
  184SLPC   C3921114   6.337   2.579   4.900  0.1653  0.5713  0.4379
  184SLPC   H9X21115   6.295   2.525   4.988  1.2542  1.1622  1.3577
  184SLPC   H9Y21116   6.432   2.631   4.927 -0.3583  0.6011  2.4062
  184SLPC  C31021117   6.383   2.459   4.815 -0.4277 -0.1875 -0.1703
  184SLPC  H10X21118   6.469   2.419   4.873 -0.7525  1.1276  1.2755
  184SLPC  H10Y21119   6.406   2.488   4.710 -1.5798  1.7464  0.0668
  184SLPC  C31121120   6.286   2.343   4.810 -0.1377  0.8502  0.2271
  184SLPC  H11X21121   6.193   2.369   4.755  1.0371 -1.1155 -2.9235
  184SLPC  H11Y21122   6.255   2.319   4.914  1.0713  2.3258  0.9512
  184SLPC  C31221123   6.349   2.210   4.748 -0.3450 -0.7520 -0.8917
  184SLPC  H12X21124   6.449   2.182   4.788 -0.9802 -2.6745 -0.5397
  184SLPC  H12Y21125   6.371   2.241   4.643 -0.4981  1.1632 -0.3820
  184SLPC  C31321126   6.255   2.094   4.758 -0.3877 -0.0961  0.6014
  184SLPC  H13X21127   6.180   2.100   4.676  0.0044 -1.5583  0.1128
  184SLPC  H13Y21128   6.213   2.096   4.860  0.6517 -0.7765  1.0560
  184SLPC  C31421129   6.335   1.967   4.726 -0.0398 -0.2241 -0.1863
  184SLPC  H14X21130   6.271   1.876   4.736  0.3959 -0.7109 -1.6412
  184SLPC  H14Y21131   6.404   1.960   4.813  0.3453  2.6050 -0.1731
  184SLPC  C31521132   6.403   1.956   4.595  0.5587 -0.3299 -0.0499
  184SLPC  H15X21133   6.452   1.856   4.590  1.2734 -0.0369  0.7984
  184SLPC  H15Y21134   6.476   2.039   4.580 -0.1025  0.2413 -0.1191
  184SLPC  C31621135   6.308   1.954   4.473  0.0107 -0.4544  0.0894
  184SLPC  H16X21136   6.246   2.046   4.474 -0.6265 -0.8122  3.1545
  184SLPC  H16Y21137   6.245   1.863   4.479  1.9699 -1.7875  2.3834
  184SLPC  C31721138   6.387   1.945   4.341  0.2584 -0.1673  0.1614
  184SLPC  H17X21139   6.311   1.927   4.263  1.0070  0.9461 -0.8422
  184SLPC  H17Y21140   6.451   1.854   4.341  0.5034  0.0052 -0.0354
  184SLPC  C31821141   6.466   2.068   4.307 -0.0162  0.0916 -0.3319
  184SLPC  H18X21142   6.524   2.063   4.212 -2.8842 -0.4953 -2.1519
  184SLPC  H18Y21143   6.536   2.102   4.387 -0.4179 -0.8220  0.4180
  184SLPC  H18Z21144   6.394   2.152   4.296  0.8218  0.6896 -1.4603
  185POPC     N21145   1.597   0.692   8.185  0.4175 -0.1117 -0.1914
  185POPC   C1221146   1.614   0.847   8.186  0.2580  0.5872  0.5494
  185POPC  H12A21147   1.711   0.869   8.144 -1.0840 -1.0996 -4.0669
  185POPC  H12B21148   1.611   0.875   8.291  2.1565 -1.0915  1.1283
  185POPC   C1321149   1.589   0.635   8.039  0.2969  0.0698  0.6649
  185POPC  H13A21150   1.542   0.537   8.040 -0.8217  0.5210 -1.6689
  185POPC  H13B21151   1.526   0.700   7.981 -0.8006 -0.2140  1.5013
  185POPC  H13C21152   1.689   0.634   7.999 -0.0143  0.8659 -0.1653
  185POPC   C1421153   1.721   0.633   8.249  0.5726 -0.5311 -0.4084
  185POPC  H14A21154   1.809   0.651   8.190 -0.8980 -0.5463 -2.7763
  185POPC  H14B21155   1.734   0.686   8.342 -0.2039  0.2538 -0.7267
  185POPC  H14C21156   1.707   0.526   8.258 -0.2351 -0.3045  1.7408
  185POPC   C1521157   1.470   0.660   8.257 -0.0210  0.1537  0.4273
  185POPC  H15A21158   1.384   0.705   8.209  1.1392  0.0434 -1.9182
  185POPC  H15B21159   1.485   0.682   8.362  1.3181  2.9939 -0.2622
  185POPC  H15C21160   1.446   0.555   8.266  0.2351  0.2774  3.2215
  185POPC   C1121161   1.515   0.936   8.101 -0.0989  0.2791  0.5239
  185POPC  H11A21162   1.532   0.888   8.002 -0.6976 -0.9451  0.9924
  185POPC  H11B21163   1.557   1.039   8.097  2.5101 -0.7631 -1.7106
  185POPC     P21164   1.247   0.926   8.057 -0.1278 -0.2532 -0.4224
  185POPC   O1321165   1.125   0.951   8.142 -0.0022  0.0790 -0.0850
  185POPC   O1421166   1.244   0.798   7.984 -0.1619 -0.1820  0.2431
  185POPC   O1221167   1.382   0.931   8.147  0.2841 -0.5789  0.1296
  185POPC   O1121168   1.281   1.042   7.957  0.0523  0.1582 -0.8542
  185POPC    C121169   1.214   1.166   7.969  0.5959  0.6531 -0.2121
  185POPC    HA21170   1.281   1.233   8.027  0.7388  1.4372 -1.2525
  185POPC    HB21171   1.118   1.163   8.024  1.5884  1.2597  1.6404
  185POPC    C221172   1.190   1.234   7.828  0.2547  0.1050 -0.4937
  185POPC    HS21173   1.162   1.341   7.834  0.7858  0.1975  0.4299
  185POPC   O2121174   1.102   1.151   7.747  0.1852  0.1603 -0.8597
  185POPC   C2121175   0.971   1.181   7.765 -0.5498 -0.3229  0.4100
  185POPC   O2221176   0.924   1.266   7.837 -0.2886 -0.1214 -0.0598
  185POPC   C2221177   0.892   1.075   7.683 -0.0572  0.1127 -0.2914
  185POPC   H2R21178   0.784   1.101   7.697 -0.4020 -0.5481 -1.5834
  185POPC   H2S21179   0.903   0.972   7.723 -1.2356 -0.9019 -2.3943
  185POPC    C321180   1.323   1.236   7.745 -0.2324 -0.3892 -0.1400
  185POPC    HX21181   1.365   1.133   7.744 -0.0688 -0.3294 -1.7565
  185POPC    HY21182   1.389   1.307   7.800  0.0878  1.7458 -3.0474
  185POPC   O3121183   1.311   1.282   7.606  0.1169 -0.0313  0.1325
  185POPC   C3121184   1.264   1.412   7.601 -0.1270 -0.0097 -0.7558
  185POPC   O3221185   1.273   1.494   7.692 -0.1625 -0.0483  0.0152
  185POPC   C3221186   1.198   1.439   7.474  0.2291 -0.2877 -0.3449
  185POPC   H2X21187   1.091   1.466   7.478 -0.0086 -1.3054  0.8649
  185POPC   H2Y21188   1.197   1.340   7.425  0.7300 -0.8282  0.7010
  185POPC   C2321189   0.937   1.070   7.537  1.1489 -0.8349  0.1940
  185POPC   H3R21190   0.891   0.988   7.478 -0.3881  0.2652 -0.1910
  185POPC   H3S21191   1.045   1.045   7.541  0.9696 -1.5953  0.4681
  185POPC   C2421192   0.907   1.187   7.436  0.3201  0.3693 -0.1757
  185POPC   H4R21193   0.956   1.274   7.484 -1.0892  1.6454 -0.9661
  185POPC   H4S21194   0.800   1.204   7.415  0.8652  1.7342 -2.1660
  185POPC   C2521195   0.966   1.158   7.306 -0.5564  0.4236  0.4011
  185POPC   H5R21196   0.936   1.054   7.279 -0.9955  0.3411  1.1740
  185POPC   H5S21197   1.074   1.135   7.315 -0.8704 -0.9280  0.9499
  185POPC   C2621198   0.941   1.263   7.196 -0.0673 -0.7499  0.0328
  185POPC   H6R21199   0.989   1.354   7.236 -0.4497 -0.5339  0.0023
  185POPC   H6S21200   0.833   1.276   7.176  0.6059  2.1491 -2.3611
  185POPC   C2721201   1.007   1.230   7.062 -0.6638 -0.2035 -1.0159
  185POPC   H7R21202   0.973   1.133   7.020  0.3761 -0.7900 -0.5675
  185POPC   H7S21203   1.118   1.232   7.067 -0.6537 -1.7436  0.5870
  185POPC   C2821204   0.973   1.332   6.953  0.1129  0.3970 -0.2845
  185POPC   H8R21205   0.862   1.332   6.945  0.0980 -0.5751 -0.1936
  185POPC   H8S21206   1.003   1.292   6.854  1.9320  2.0954 -0.4897
  185POPC   C2921207   1.013   1.474   6.980 -0.3017 -0.3366 -0.1546
  185POPC   H9121208   0.944   1.536   7.039  0.5253  0.6857 -0.2252
  185POPC  C21021209   1.119   1.545   6.939 -0.4046  0.2492  0.1390
  185POPC  H10121210   1.135   1.649   6.970 -3.4289  0.7224  0.4435
  185POPC  C21121211   1.231   1.485   6.863  0.1083 -0.4411  0.6087
  185POPC  H11R21212   1.241   1.374   6.867 -0.5741 -0.4750  1.9125
  185POPC  H11S21213   1.328   1.517   6.906 -0.5183  1.6918  0.5871
  185POPC  C21221214   1.240   1.530   6.717 -0.1975  0.1078  0.5581
  185POPC  H12R21215   1.322   1.477   6.662 -0.6523 -0.4173  0.3813
  185POPC  H12S21216   1.262   1.639   6.709 -2.5555  0.5822 -0.0274
  185POPC  C21321217   1.113   1.505   6.637  0.4926  0.5393 -0.0949
  185POPC  H13R21218   1.030   1.565   6.681  0.0791 -0.0051 -0.1146
  185POPC  H13S21219   1.076   1.400   6.630 -1.8371  1.4014 -4.1072
  185POPC  C21421220   1.123   1.542   6.487  0.1284 -0.0114 -0.3013
  185POPC  H14R21221   1.178   1.465   6.429  2.6527  0.5727  1.1465
  185POPC  H14S21222   1.182   1.635   6.468  0.7002 -0.7213 -2.2684
  185POPC  C21521223   0.989   1.564   6.419  0.5223 -0.3731 -0.2686
  185POPC  H15R21224   0.998   1.598   6.314  0.1575  0.5279 -0.0193
  185POPC  H15S21225   0.946   1.644   6.482  3.0359  1.3920 -0.6387
  185POPC  C21621226   0.902   1.433   6.405  0.0448 -0.1767  0.2441
  185POPC  H16R21227   0.844   1.405   6.495 -2.3012 -2.3638 -1.7815
  185POPC  H16S21228   0.967   1.344   6.397 -0.1804 -0.3762  0.6286
  185POPC  C21721229   0.804   1.425   6.288  0.5017  0.1459  0.0001
  185POPC  H17R21230   0.735   1.340   6.302 -3.4813  3.0655 -0.1511
  185POPC  H17S21231   0.858   1.390   6.198  2.7685 -0.9114  1.6610
  185POPC  C21821232   0.743   1.555   6.238  0.2763 -0.0029 -0.3228
  185POPC  H18R21233   0.670   1.540   6.156 -2.1788  2.8987  1.1419
  185POPC  H18S21234   0.823   1.619   6.193  0.5185  0.0519  0.1828
  185POPC  H18T21235   0.678   1.605   6.313  0.6949 -0.3415  0.2706
  185POPC   C3321236   1.270   1.534   7.379 -0.2671  0.5347 -0.5470
  185POPC   H3X21237   1.271   1.635   7.424  1.2419  0.5941 -0.6433
  185POPC   H3Y21238   1.211   1.559   7.288  1.3725  1.9563 -1.2933
  185POPC   C3421239   1.412   1.492   7.344 -0.6853 -0.0784 -0.4124
  185POPC   H4X21240   1.471   1.507   7.437 -3.2122  1.0646  1.1207
  185POPC   H4Y21241   1.453   1.558   7.265  1.0727  1.9618  2.0281
  185POPC   C3521242   1.428   1.346   7.297 -0.5344  0.3062 -0.2079
  185POPC   H5X21243   1.375   1.276   7.366  0.3504  2.2581  2.6628
  185POPC   H5Y21244   1.537   1.324   7.308 -0.1464  1.1881 -2.0473
  185POPC   C3621245   1.394   1.312   7.154  0.2624  0.1372  1.1745
  185POPC   H6X21246   1.452   1.367   7.077 -0.1832  0.3886  1.0125
  185POPC   H6Y21247   1.291   1.345   7.128 -0.2205  0.9354  3.7952
  185POPC   C3721248   1.423   1.169   7.126  0.0865 -0.1159 -0.3820
  185POPC   H7X21249   1.374   1.107   7.205 -1.1689  1.8970  0.5121
  185POPC   H7Y21250   1.530   1.155   7.149  0.0336  0.2037  0.0710
  185POPC   C3821251   1.386   1.112   6.987  0.2753  0.6412 -1.2826
  185POPC   H8X21252   1.284   1.151   6.969 -0.0925  1.4982  1.9959
  185POPC   H8Y21253   1.375   1.002   6.993 -0.6924  0.8070  1.3748
  185POPC   C3921254   1.472   1.163   6.867  0.0168 -0.5313  0.0605
  185POPC   H9X21255   1.573   1.118   6.878 -0.6145 -1.7921  1.0300
  185POPC   H9Y21256   1.491   1.272   6.872 -0.7486 -0.3711 -0.3755
  185POPC  C31021257   1.420   1.142   6.725 -0.6237 -0.4607 -0.4537
  185POPC  H10X21258   1.343   1.219   6.703  0.6522  0.8450 -0.5774
  185POPC  H10Y21259   1.378   1.040   6.730 -0.2914 -0.5568  0.8916
  185POPC  C31121260   1.529   1.164   6.618 -0.2776 -1.1581 -0.6149
  185POPC  H11X21261   1.604   1.084   6.635  0.5961 -1.1535 -3.8500
  185POPC  H11Y21262   1.568   1.268   6.631 -2.0487 -0.0745 -3.1297
  185POPC  C31221263   1.486   1.154   6.470  0.4185 -0.3955 -0.5651
  185POPC  H12X21264   1.435   1.058   6.448  2.2294 -2.0175  1.7315
  185POPC  H12Y21265   1.573   1.160   6.401 -0.0105  1.9479 -0.9938
  185POPC  C31321266   1.401   1.278   6.434  0.0998 -0.0277  0.6819
  185POPC  H13X21267   1.464   1.369   6.437 -0.1065  0.0954  1.7582
  185POPC  H13Y21268   1.324   1.293   6.513 -1.6993  0.4466 -1.0985
  185POPC  C31421269   1.326   1.256   6.299 -0.1987 -0.4642  0.3994
  185POPC  H14X21270   1.399   1.213   6.226  1.8248 -0.7900  2.4830
  185POPC  H14Y21271   1.289   1.351   6.255  0.9647  0.6900  1.8297
  185POPC  C31521272   1.207   1.166   6.302  0.4674  0.9288  0.4066
  185POPC  H15X21273   1.131   1.213   6.367  1.0035  1.3398  0.7459
  185POPC  H15Y21274   1.233   1.071   6.353 -0.5003  1.0390  1.1248
  185POPC  C31621275   1.150   1.133   6.168  0.0207  0.3668 -0.0744
  185POPC  H16X21276   1.164   1.211   6.089  3.3593  1.0065  0.9671
  185POPC  H16Y21277   1.042   1.115   6.181 -0.0032  0.9031  0.5343
  185POPC  H16Z21278   1.195   1.038   6.133 -0.9424 -1.1879  2.6109
  186POPC     N21279   3.794   3.579   7.801 -0.2652  0.4238 -0.3866
  186POPC   C1221280   3.685   3.491   7.850 -0.8784  0.5081  0.2247
  186POPC  H12A21281   3.622   3.459   7.769  0.1705  0.2415 -0.5039
  186POPC  H12B21282   3.617   3.552   7.909 -0.5518  1.1427 -0.0406
  186POPC   C1321283   3.870   3.631   7.920 -0.5660 -0.4331 -0.1700
  186POPC  H13A21284   3.955   3.686   7.882 -0.3000 -0.2879  0.6189
  186POPC  H13B21285   3.805   3.693   7.979 -0.9685 -0.4868 -0.5534
  186POPC  H13C21286   3.907   3.552   7.984  1.9141  1.7310  1.2532
  186POPC   C1421287   3.891   3.509   7.706 -0.0259  1.2303  0.1464
  186POPC  H14A21288   3.844   3.478   7.613 -1.0023 -1.0883  1.3191
  186POPC  H14B21289   3.971   3.576   7.679  2.0347 -2.0353 -2.9131
  186POPC  H14C21290   3.941   3.427   7.754 -0.4234  0.4317 -0.7505
  186POPC   C1521291   3.726   3.692   7.742 -0.2596 -0.5643  0.2302
  186POPC  H15A21292   3.662   3.747   7.809 -1.3325 -2.1972  0.5958
  186POPC  H15B21293   3.679   3.662   7.649  0.9046 -0.9255 -0.2623
  186POPC  H15C21294   3.805   3.764   7.723 -1.1064  1.0242  2.3638
  186POPC   C1121295   3.732   3.364   7.927  0.1419  0.6067  0.2343
  186POPC  H11A21296   3.650   3.322   7.988  0.2689  2.2547  1.6149
  186POPC  H11B21297   3.807   3.405   7.999  0.0731 -0.5354  0.9771
  186POPC     P21298   3.731   3.163   7.775 -0.5265  0.2954 -0.2012
  186POPC   O1321299   3.714   3.051   7.868  0.5144 -0.2620 -0.1195
  186POPC   O1421300   3.810   3.137   7.647 -0.5192  0.1187 -0.0866
  186POPC   O1221301   3.813   3.270   7.852 -0.6007 -0.1734  0.3178
  186POPC   O1121302   3.590   3.233   7.743  1.1323 -0.2971  0.1909
  186POPC    C121303   3.475   3.163   7.758 -0.6033 -1.0706 -0.4319
  186POPC    HA21304   3.396   3.242   7.758  0.6570  0.2754  1.2906
  186POPC    HB21305   3.467   3.101   7.850 -1.7471  0.9846  0.9432
  186POPC    C221306   3.451   3.079   7.631 -0.1094  0.3957 -0.5293
  186POPC    HS21307   3.528   2.999   7.639 -0.8073 -0.2679 -0.3084
  186POPC   O2121308   3.466   3.163   7.517 -0.2606  0.0145  0.0940
  186POPC   C2121309   3.535   3.113   7.414  0.3930  0.4817  0.5052
  186POPC   O2221310   3.604   3.016   7.424  0.2749  0.0445  0.2184
  186POPC   C2221311   3.504   3.190   7.280  0.2195 -0.0658 -0.2687
  186POPC   H2R21312   3.544   3.293   7.284 -0.7358  0.2897  0.3921
  186POPC   H2S21313   3.393   3.203   7.274  0.3008  0.6809 -0.1281
  186POPC    C321314   3.316   3.002   7.621  0.2888  0.4345  0.0574
  186POPC    HX21315   3.243   3.085   7.611 -0.2174 -0.2489 -3.1626
  186POPC    HY21316   3.299   2.945   7.715 -1.4744 -1.0711 -1.1022
  186POPC   O3121317   3.303   2.921   7.497  0.4434 -0.2089  0.2069
  186POPC   C3121318   3.369   2.810   7.486  0.1609 -0.1553  0.4159
  186POPC   O3221319   3.436   2.764   7.577 -0.3897  0.1809  0.1390
  186POPC   C3221320   3.346   2.741   7.352  0.2830 -0.0783 -0.1145
  186POPC   H2X21321   3.359   2.632   7.373  0.2719 -0.1062 -0.2504
  186POPC   H2Y21322   3.439   2.756   7.294  1.0480 -0.1423  1.0561
  186POPC   C2321323   3.557   3.125   7.150 -0.3093  0.0802 -0.0217
  186POPC   H3R21324   3.518   3.021   7.161  0.0667 -0.0337  0.2231
  186POPC   H3S21325   3.667   3.113   7.151  0.0258  2.2824 -2.2791
  186POPC   C2421326   3.505   3.197   7.021  0.1432 -0.2336  1.1223
  186POPC   H4R21327   3.544   3.301   7.023 -1.1437  0.2701  1.2936
  186POPC   H4S21328   3.395   3.211   7.026 -0.1495 -1.2003 -1.1784
  186POPC   C2521329   3.546   3.133   6.883 -0.3500 -0.8202  0.1462
  186POPC   H5R21330   3.526   3.024   6.883 -0.8379 -0.8589  3.7012
  186POPC   H5S21331   3.656   3.137   6.872 -0.1295 -3.1969  0.9212
  186POPC   C2621332   3.472   3.201   6.767  0.3261  0.3960  0.1728
  186POPC   H6R21333   3.469   3.311   6.784  0.9422  0.3051  0.9264
  186POPC   H6S21334   3.370   3.157   6.759  1.2599 -2.1753  1.2959
  186POPC   C2721335   3.535   3.160   6.630 -0.0119 -0.1099 -0.5140
  186POPC   H7R21336   3.478   3.209   6.549 -1.2808 -1.0367 -0.2210
  186POPC   H7S21337   3.548   3.050   6.624  1.1391  0.0288 -0.7118
  186POPC   C2821338   3.683   3.214   6.603  0.5746 -1.0113  0.6319
  186POPC   H8R21339   3.731   3.163   6.517 -1.5664 -3.5967  0.8393
  186POPC   H8S21340   3.747   3.168   6.681  3.4562 -1.6157 -1.8941
  186POPC   C2921341   3.676   3.370   6.601  0.4508 -0.2076 -0.0272
  186POPC   H9121342   3.686   3.405   6.705  1.6240  0.5099 -0.3675
  186POPC  C21021343   3.691   3.449   6.493  0.0631  0.5156  0.2867
  186POPC  H10121344   3.695   3.559   6.496 -1.5250  0.6264 -0.8665
  186POPC  C21121345   3.654   3.393   6.356 -0.1299  0.2104 -0.4079
  186POPC  H11R21346   3.579   3.460   6.309 -0.5068  1.6739  2.0539
  186POPC  H11S21347   3.599   3.298   6.366  1.5133 -0.5984  2.0770
  186POPC  C21221348   3.775   3.367   6.263  0.1098  0.6119  0.0806
  186POPC  H12R21349   3.855   3.331   6.331  1.6821  2.3754 -0.7569
  186POPC  H12S21350   3.813   3.464   6.225  0.8686  0.4125  0.3245
  186POPC  C21321351   3.734   3.284   6.148 -0.3081 -0.1632  0.7032
  186POPC  H13R21352   3.661   3.338   6.084  2.6117 -0.4076 -3.2349
  186POPC  H13S21353   3.680   3.196   6.189 -1.5630 -0.7714 -2.0318
  186POPC  C21421354   3.842   3.251   6.055 -0.2784 -0.2629 -0.2478
  186POPC  H14R21355   3.908   3.183   6.114  0.5849  0.1213 -0.7570
  186POPC  H14S21356   3.892   3.344   6.022 -0.6867  0.1428  0.2688
  186POPC  C21521357   3.808   3.170   5.934 -0.3617  0.5534 -0.3908
  186POPC  H15R21358   3.899   3.139   5.879  1.7120  2.7782  1.5926
  186POPC  H15S21359   3.758   3.238   5.861 -0.9533  2.3616  1.6156
  186POPC  C21621360   3.701   3.057   5.952 -0.0195  0.3368 -0.2047
  186POPC  H16R21361   3.654   3.023   5.857  2.1188  0.4669 -1.3713
  186POPC  H16S21362   3.609   3.086   6.007 -0.4322  0.3086 -0.8597
  186POPC  C21721363   3.758   2.931   6.019 -0.7233 -0.2695  0.6237
  186POPC  H17R21364   3.677   2.855   6.013  0.1621 -1.2610  0.9157
  186POPC  H17S21365   3.786   2.932   6.127 -0.2540  0.2208  0.4981
  186POPC  C21821366   3.878   2.876   5.931 -1.2206  0.2206 -0.3083
  186POPC  H18R21367   3.971   2.934   5.951 -0.4142 -1.6245  1.9175
  186POPC  H18S21368   3.870   2.862   5.822 -2.1677 -2.3444  0.0210
  186POPC  H18T21369   3.897   2.775   5.976  0.0945  0.5443 -0.0801
  186POPC   C3321370   3.229   2.797   7.267 -0.3272 -0.1461 -0.5156
  186POPC   H3X21371   3.241   2.907   7.251 -2.1964 -0.1729 -2.5643
  186POPC   H3Y21372   3.136   2.770   7.320  0.6633  0.5235  1.6949
  186POPC   C3421373   3.237   2.734   7.126  0.1447 -0.6448  0.1218
  186POPC   H4X21374   3.238   2.623   7.140  2.5953 -0.6826 -0.0323
  186POPC   H4Y21375   3.335   2.753   7.078  0.2745 -1.7453 -0.0801
  186POPC   C3521376   3.116   2.780   7.035 -0.2101  0.4322 -0.2455
  186POPC   H5X21377   3.123   2.890   7.023  1.3231  0.2692 -1.0319
  186POPC   H5Y21378   3.020   2.755   7.086 -1.2734  1.0508 -1.8733
  186POPC   C3621379   3.110   2.714   6.899 -0.2777  0.7283 -0.9444
  186POPC   H6X21380   3.014   2.708   6.844 -1.1390  0.2801  0.5394
  186POPC   H6Y21381   3.136   2.608   6.920 -0.8664  0.7523 -0.0280
  186POPC   C3721382   3.215   2.771   6.808 -0.9486  0.1241  0.0412
  186POPC   H7X21383   3.318   2.753   6.845 -1.0890  0.8401  0.8081
  186POPC   H7Y21384   3.205   2.882   6.803 -0.4452  0.1152 -1.8946
  186POPC   C3821385   3.210   2.714   6.667  0.5312  0.3582  0.1520
  186POPC   H8X21386   3.123   2.758   6.614  1.1450  1.0311 -0.3224
  186POPC   H8Y21387   3.199   2.604   6.675  2.5818 -0.2506 -3.4923
  186POPC   C3921388   3.332   2.754   6.568 -0.4786 -0.5047  0.4869
  186POPC   H9X21389   3.418   2.689   6.593  0.3002  0.3272  0.0112
  186POPC   H9Y21390   3.371   2.858   6.575  1.7232 -1.3140  1.2730
  186POPC  C31021391   3.299   2.725   6.417  0.5926 -0.2461 -0.5724
  186POPC  H10X21392   3.206   2.775   6.384  0.6506 -0.0044 -0.3771
  186POPC  H10Y21393   3.290   2.618   6.390  2.8137 -0.5973 -0.1249
  186POPC  C31121394   3.412   2.772   6.327  0.4495 -0.2843 -0.2997
  186POPC  H11X21395   3.509   2.724   6.351  1.3047  1.5637  0.1427
  186POPC  H11Y21396   3.426   2.877   6.362 -0.4452 -0.4922  0.7189
  186POPC  C31221397   3.378   2.766   6.177 -0.0562  0.0985 -0.2873
  186POPC  H12X21398   3.464   2.801   6.116 -0.9699  0.4230 -1.4143
  186POPC  H12Y21399   3.295   2.838   6.161 -0.9787 -1.0661 -0.9086
  186POPC  C31321400   3.343   2.621   6.124 -0.7561 -0.3020  0.0533
  186POPC  H13X21401   3.260   2.575   6.182 -1.9853 -0.5729 -1.8301
  186POPC  H13Y21402   3.435   2.561   6.142  0.6164  1.3506 -1.1742
  186POPC  C31421403   3.309   2.622   5.982  0.0034  0.2761  0.0777
  186POPC  H14X21404   3.326   2.520   5.940 -3.3349 -0.7679  0.9339
  186POPC  H14Y21405   3.378   2.697   5.938 -0.8289  2.6412  2.5337
  186POPC  C31521406   3.160   2.650   5.949 -0.1779  0.4759 -0.0515
  186POPC  H15X21407   3.142   2.753   5.986  0.3028  0.7297 -0.5186
  186POPC  H15Y21408   3.094   2.586   6.012  0.1565 -1.7297 -1.8168
  186POPC  C31621409   3.119   2.624   5.802  1.1604 -0.8015  0.3919
  186POPC  H16X21410   3.140   2.518   5.777  0.1987 -0.8965 -0.0619
  186POPC  H16Y21411   3.180   2.697   5.744 -0.6888  1.7044  1.3858
  186POPC  H16Z21412   3.010   2.636   5.786  1.1091 -1.7167  0.0289
  187POPC     N21413   4.192   5.641   3.182 -0.6597  0.0003  0.6846
  187POPC   C1221414   4.234   5.740   3.282  0.2392  0.5156 -0.8679
  187POPC  H12A21415   4.206   5.838   3.246 -2.0780  0.5269  0.7307
  187POPC  H12B21416   4.340   5.746   3.298  0.1443 -0.0403  0.1039
  187POPC   C1321417   4.225   5.505   3.225  0.1618  0.2730  0.1779
  187POPC  H13A21418   4.208   5.487   3.330 -1.0080 -0.3671 -0.1117
  187POPC  H13B21419   4.163   5.430   3.179  0.5015  0.3361 -0.4073
  187POPC  H13C21420   4.327   5.482   3.197  1.1941  2.6958  1.6489
  187POPC   C1421421   4.045   5.649   3.160 -0.2347 -0.6913  0.8147
  187POPC  H14A21422   4.014   5.749   3.133 -0.4067 -1.6503 -3.1333
  187POPC  H14B21423   4.017   5.578   3.083 -2.6563 -0.6789  1.6125
  187POPC  H14C21424   3.996   5.618   3.251 -0.2216 -1.9261  0.4236
  187POPC   C1521425   4.254   5.660   3.044  0.1531 -0.5094  0.4125
  187POPC  H15A21426   4.203   5.608   2.964 -1.1767  0.5734  0.5209
  187POPC  H15B21427   4.357   5.630   3.052  0.4211  0.2583 -0.1384
  187POPC  H15C21428   4.258   5.763   3.014  0.0237  0.2085  2.6938
  187POPC   C1121429   4.181   5.722   3.432  0.0216 -0.3281 -0.1926
  187POPC  H11A21430   4.253   5.761   3.507  1.2308 -0.2111 -1.3769
  187POPC  H11B21431   4.182   5.615   3.464  0.7178  0.5252  3.0029
  187POPC     P21432   4.028   5.930   3.445  0.2158  0.0467  0.0154
  187POPC   O1321433   3.885   5.957   3.467 -0.6307 -0.3862 -0.9462
  187POPC   O1421434   4.098   5.994   3.330 -0.1118 -1.0599 -0.8512
  187POPC   O1221435   4.047   5.770   3.438  0.1280 -0.5696 -0.1433
  187POPC   O1121436   4.105   5.969   3.580  0.3860  0.5469  0.2503
  187POPC    C121437   4.053   5.900   3.695 -0.9492  0.0963  0.5509
  187POPC    HA21438   4.060   5.790   3.680  1.3712  0.3759 -0.8645
  187POPC    HB21439   3.949   5.924   3.726 -1.5229 -0.0329 -1.2067
  187POPC    C221440   4.156   5.936   3.813  0.0191 -0.2134 -0.0308
  187POPC    HS21441   4.170   6.046   3.806 -0.2278 -0.2707 -1.7741
  187POPC   O2121442   4.274   5.853   3.796 -0.0897 -0.3767 -0.4938
  187POPC   C2121443   4.384   5.922   3.765  0.3169  0.9007  0.1204
  187POPC   O2221444   4.405   6.039   3.775  0.0763  0.3819  0.3177
  187POPC   C2221445   4.495   5.827   3.755 -0.1513  0.7310 -0.1852
  187POPC   H2R21446   4.585   5.872   3.708  0.7919  0.4495  1.2858
  187POPC   H2S21447   4.462   5.745   3.687  0.1303 -1.6043  2.3069
  187POPC    C321448   4.081   5.908   3.946 -0.2307  0.4391 -0.2565
  187POPC    HX21449   4.036   5.807   3.945 -1.9618  1.1674 -1.7378
  187POPC    HY21450   4.010   5.991   3.965  1.3774  1.3761  2.2174
  187POPC   O3121451   4.171   5.928   4.057  0.0896 -0.1866 -0.7922
  187POPC   C3121452   4.217   5.829   4.113 -0.5099  0.0515 -0.5520
  187POPC   O3221453   4.202   5.711   4.079 -0.8056  0.1667  0.9077
  187POPC   C3221454   4.306   5.871   4.233 -0.5813  0.3054  0.3362
  187POPC   H2X21455   4.241   5.928   4.303 -0.6413  0.7408 -0.0718
  187POPC   H2Y21456   4.375   5.947   4.192  0.3889  0.0351  1.4116
  187POPC   C2321457   4.532   5.762   3.889  0.3671 -0.1896 -0.6512
  187POPC   H3R21458   4.608   5.684   3.866 -0.6291 -1.5837  0.6429
  187POPC   H3S21459   4.454   5.707   3.945  0.7182  2.8606  3.2835
  187POPC   C2421460   4.599   5.863   3.987 -0.2143  0.5161  0.7158
  187POPC   H4R21461   4.622   5.815   4.085  0.6062 -0.4772  0.0588
  187POPC   H4S21462   4.535   5.953   3.996  2.0756  2.3664 -0.6273
  187POPC   C2521463   4.733   5.912   3.937 -0.0116 -0.5545 -0.1525
  187POPC   H5R21464   4.728   5.974   3.845  0.7533 -1.1091 -0.5883
  187POPC   H5S21465   4.810   5.835   3.913 -0.2849 -0.3742 -1.6909
  187POPC   C2621466   4.799   6.006   4.038  0.3406  0.2191 -0.1743
  187POPC   H6R21467   4.718   6.044   4.103  0.3696  0.2732 -0.1700
  187POPC   H6S21468   4.830   6.100   3.988 -0.2411  0.9285  0.7840
  187POPC   C2721469   4.916   5.940   4.112  0.6761 -0.2221  0.3103
  187POPC   H7R21470   4.980   6.017   4.162 -0.6692  0.2955  1.3070
  187POPC   H7S21471   4.982   5.880   4.046  0.5349 -3.2536  2.7251
  187POPC   C2821472   4.872   5.860   4.235 -0.4037 -0.8724  0.1333
  187POPC   H8R21473   4.792   5.792   4.197 -2.1685  1.1138  0.0990
  187POPC   H8S21474   4.817   5.929   4.302  0.0402 -1.5889  1.2707
  187POPC   C2921475   4.982   5.786   4.300 -0.2141  0.7320  0.6518
  187POPC   H9121476   5.026   5.708   4.236  1.7434  2.2044  0.1177
  187POPC  C21021477   5.049   5.825   4.416  0.4293  0.1614 -0.3324
  187POPC  H10121478   5.128   5.767   4.464 -0.5842  1.5870  3.3694
  187POPC  C21121479   5.003   5.932   4.507  0.1019  0.3644  0.8233
  187POPC  H11R21480   4.908   5.908   4.558 -0.5923  0.8319 -0.2053
  187POPC  H11S21481   4.979   6.019   4.441  0.2410 -0.0435  0.2310
  187POPC  C21221482   5.106   5.984   4.614  0.1551  0.0402 -0.1041
  187POPC  H12R21483   5.058   6.078   4.648 -2.8807 -1.1371 -0.7577
  187POPC  H12S21484   5.204   6.002   4.566 -0.4541  1.5887 -0.8268
  187POPC  C21321485   5.115   5.885   4.726  0.0541  0.0575 -0.7750
  187POPC  H13R21486   5.159   5.787   4.697  0.5033 -0.5115  1.6499
  187POPC  H13S21487   5.018   5.877   4.780  0.8129  0.6059  0.7007
  187POPC  C21421488   5.209   5.941   4.836  0.0613  0.6835  0.4047
  187POPC  H14R21489   5.181   6.043   4.869 -1.4416  0.2401  0.5969
  187POPC  H14S21490   5.314   5.945   4.800  0.4681  1.9329  1.6465
  187POPC  C21521491   5.218   5.853   4.969  0.2928 -0.4690 -0.0883
  187POPC  H15R21492   5.311   5.885   5.020  0.2543  0.1877 -0.4141
  187POPC  H15S21493   5.225   5.744   4.951  2.5512 -0.4421  0.3531
  187POPC  C21621494   5.101   5.892   5.058 -0.2350 -0.2009 -0.1534
  187POPC  H16R21495   5.004   5.878   5.006 -0.2236 -1.9268  0.2450
  187POPC  H16S21496   5.113   5.998   5.090  1.4012 -0.1165 -0.9206
  187POPC  C21721497   5.094   5.814   5.187 -0.2602 -0.0060  0.7107
  187POPC  H17R21498   5.184   5.848   5.243  0.8851  0.5324 -1.3245
  187POPC  H17S21499   5.100   5.705   5.164 -1.7246 -0.0349  0.3258
  187POPC  C21821500   4.973   5.830   5.276 -0.0418 -0.6983 -0.9288
  187POPC  H18R21501   4.880   5.798   5.224 -0.0360  1.5715 -2.4845
  187POPC  H18S21502   4.957   5.933   5.313 -0.0628 -1.8474  2.6405
  187POPC  H18T21503   4.982   5.776   5.372 -0.7822  2.9414  1.3905
  187POPC   C3321504   4.387   5.761   4.308  0.3736  0.1739  0.0119
  187POPC   H3X21505   4.424   5.674   4.249  2.6208  0.4134  0.9642
  187POPC   H3Y21506   4.315   5.712   4.377 -1.3058  0.8075 -1.2238
  187POPC   C3421507   4.500   5.825   4.383 -0.6760 -0.1220  0.2834
  187POPC   H4X21508   4.474   5.889   4.470 -0.6024  0.3829 -0.0605
  187POPC   H4Y21509   4.554   5.887   4.308  0.7573  0.1562  1.5011
  187POPC   C3521510   4.604   5.719   4.429  0.5310  0.0360 -0.5547
  187POPC   H5X21511   4.691   5.775   4.470  1.0464  0.9287 -2.7241
  187POPC   H5Y21512   4.640   5.655   4.345 -3.6117 -2.0329 -1.0313
  187POPC   C3621513   4.548   5.621   4.535  0.3420  0.2910  0.6355
  187POPC   H6X21514   4.641   5.571   4.568 -0.6839 -0.8236  1.9531
  187POPC   H6Y21515   4.474   5.549   4.493 -0.4624  2.0007 -1.0444
  187POPC   C3721516   4.482   5.690   4.644 -0.5819  0.5862  0.4093
  187POPC   H7X21517   4.392   5.742   4.605 -0.4139 -0.3555 -1.2906
  187POPC   H7Y21518   4.564   5.759   4.674 -0.5631  0.5025  0.5500
  187POPC   C3821519   4.444   5.603   4.767  0.3414  0.6050  0.4287
  187POPC   H8X21520   4.534   5.544   4.799  0.4214 -0.5285 -1.6908
  187POPC   H8Y21521   4.380   5.517   4.739 -0.1195  1.7826 -2.4418
  187POPC   C3921522   4.395   5.685   4.879  0.2893  0.1848  0.0178
  187POPC   H9X21523   4.307   5.744   4.846  0.0499 -0.1730  0.0126
  187POPC   H9Y21524   4.471   5.763   4.903 -3.1121  3.9027 -0.3575
  187POPC  C31021525   4.358   5.591   5.004  0.3953  0.4047 -0.7110
  187POPC  H10X21526   4.444   5.526   5.030 -0.3185  0.0451  0.8844
  187POPC  H10Y21527   4.274   5.536   4.956 -0.3975 -0.3406  1.4402
  187POPC  C31121528   4.309   5.670   5.125  0.2590  0.2246 -0.0036
  187POPC  H11X21529   4.270   5.603   5.205 -0.8693  0.7530 -0.0895
  187POPC  H11Y21530   4.218   5.731   5.105  1.0053  1.4921  0.3336
  187POPC  C31221531   4.418   5.757   5.191 -0.0144 -0.1037 -0.2221
  187POPC  H12X21532   4.375   5.815   5.275 -0.1609  3.1146 -2.3032
  187POPC  H12Y21533   4.451   5.827   5.110 -1.8640 -0.4302 -1.3049
  187POPC  C31321534   4.535   5.671   5.235  0.4162  0.4910  0.4730
  187POPC  H13X21535   4.588   5.636   5.145 -1.1094 -1.9235  0.4022
  187POPC  H13Y21536   4.488   5.579   5.277  1.8566 -1.5548 -2.1095
  187POPC  C31421537   4.626   5.730   5.339  0.4584  1.0285 -0.2590
  187POPC  H14X21538   4.653   5.831   5.302  0.5474  1.4895  0.9979
  187POPC  H14Y21539   4.715   5.664   5.344 -0.3248 -0.4350 -3.3315
  187POPC  C31521540   4.556   5.734   5.483 -0.1896  0.1575  0.5417
  187POPC  H15X21541   4.515   5.633   5.506 -0.1450 -0.4842 -1.9293
  187POPC  H15Y21542   4.469   5.804   5.475 -1.4458 -1.1929  1.8186
  187POPC  C31621543   4.657   5.786   5.587  0.8546 -0.6550  1.2934
  187POPC  H16X21544   4.598   5.803   5.679 -2.7145  3.5218 -1.4075
  187POPC  H16Y21545   4.715   5.875   5.553 -2.1018  1.3567  1.1912
  187POPC  H16Z21546   4.736   5.711   5.611  3.2712  1.4519  0.3686
  188POPC     N21547   5.984   4.874   2.946  1.0370 -0.2130  0.0442
  188POPC   C1221548   6.039   4.825   3.080 -0.3639 -0.0688  0.1590
  188POPC  H12A21549   6.118   4.891   3.111 -1.7043  2.3243 -1.2149
  188POPC  H12B21550   6.093   4.735   3.055  1.6903  0.8429  1.1392
  188POPC   C1321551   5.881   4.773   2.905  0.7416  0.2274 -0.5703
  188POPC  H13A21552   5.825   4.749   2.994  3.2195  1.0151  1.2764
  188POPC  H13B21553   5.815   4.808   2.827  0.3639  0.2603 -0.2421
  188POPC  H13C21554   5.925   4.679   2.874 -1.4874 -1.0788 -0.0197
  188POPC   C1421555   5.924   5.013   2.966 -0.8657  0.2753 -0.0600
  188POPC  H14A21556   5.874   5.040   2.874  1.0424 -2.1617 -1.9573
  188POPC  H14B21557   5.848   5.015   3.042 -0.2316 -0.8666  0.6176
  188POPC  H14C21558   6.000   5.087   2.987 -1.6126  0.6074  1.6327
  188POPC   C1521559   6.090   4.884   2.835 -0.0134  0.6682  0.0826
  188POPC  H15A21560   6.048   4.919   2.742 -0.0558 -0.4313 -0.3300
  188POPC  H15B21561   6.150   4.795   2.821  0.2614  0.9787 -0.8095
  188POPC  H15C21562   6.164   4.959   2.860  1.7044 -1.3301  1.2816
  188POPC   C1121563   5.945   4.790   3.195 -0.0847 -0.5996 -0.4109
  188POPC  H11A21564   6.003   4.724   3.264  1.1062 -0.2666 -1.0610
  188POPC  H11B21565   5.854   4.737   3.159  0.5201 -1.6615 -0.4284
  188POPC     P21566   6.002   4.994   3.366 -0.3616  0.2632  0.3216
  188POPC   O1321567   5.957   5.136   3.377  0.1428  0.3955 -0.3667
  188POPC   O1421568   6.143   4.983   3.318  0.0017  0.1281  0.0475
  188POPC   O1221569   5.909   4.911   3.269  0.0697  0.0019  0.2684
  188POPC   O1121570   5.988   4.930   3.501 -0.1361  0.7577  0.1514
  188POPC    C121571   5.862   4.875   3.551 -0.1184 -0.0964  0.1706
  188POPC    HA21572   5.882   4.808   3.637 -0.2775  1.2446  1.2827
  188POPC    HB21573   5.813   4.813   3.472 -0.3975  0.5900 -0.2000
  188POPC    C221574   5.756   4.985   3.595 -1.2638  0.9546  0.3472
  188POPC    HS21575   5.710   5.028   3.503  0.7293 -0.9625 -1.6675
  188POPC   O2121576   5.820   5.096   3.656  0.0085  0.0347 -0.2701
  188POPC   C2121577   5.746   5.210   3.672  0.2609  0.8096 -0.8125
  188POPC   O2221578   5.631   5.224   3.637 -0.6659 -0.0215 -0.2889
  188POPC   C2221579   5.820   5.312   3.763 -0.3121  0.3876  0.5021
  188POPC   H2R21580   5.762   5.406   3.744 -0.6500  0.1724  0.4604
  188POPC   H2S21581   5.925   5.323   3.729 -0.9494 -0.7147 -2.1125
  188POPC    C321582   5.634   4.919   3.676 -0.2099  0.7668  0.6062
  188POPC    HX21583   5.588   4.851   3.601 -0.5395 -2.4747  3.4808
  188POPC    HY21584   5.559   4.998   3.696 -0.3513  0.5350  0.9923
  188POPC   O3121585   5.679   4.840   3.786  0.5602 -0.1660 -0.6582
  188POPC   C3121586   5.608   4.840   3.898  0.2507 -0.2001 -0.7822
  188POPC   O3221587   5.489   4.871   3.911  0.3482  0.0253 -0.2684
  188POPC   C3221588   5.699   4.825   4.019 -0.1860 -0.1415 -0.3443
  188POPC   H2X21589   5.768   4.911   4.031  0.0080 -0.4332  0.7293
  188POPC   H2Y21590   5.764   4.735   4.013  1.0229  0.7844 -1.7146
  188POPC   C2321591   5.822   5.268   3.908  0.5255 -0.5014  1.0250
  188POPC   H3R21592   5.893   5.337   3.959  2.9083 -2.4939  0.6009
  188POPC   H3S21593   5.869   5.168   3.905 -0.8686 -1.1573  0.0733
  188POPC   C2421594   5.681   5.262   3.974 -0.3704 -0.2193 -0.5587
  188POPC   H4R21595   5.607   5.206   3.914 -2.0381  1.5859 -0.3006
  188POPC   H4S21596   5.647   5.367   3.986 -0.4982 -0.2913 -0.2836
  188POPC   C2521597   5.687   5.204   4.121  0.4674  0.5592  0.5577
  188POPC   H5R21598   5.741   5.107   4.110 -0.1318 -0.1424  3.0918
  188POPC   H5S21599   5.580   5.191   4.151  0.4645  0.3218  0.4524
  188POPC   C2621600   5.755   5.298   4.222 -0.1105  0.4329  0.2730
  188POPC   H6R21601   5.709   5.397   4.200 -1.3924 -0.2095 -0.0947
  188POPC   H6S21602   5.864   5.303   4.202 -0.1020  0.4772  0.3315
  188POPC   C2721603   5.739   5.266   4.373  0.2467 -0.0725  0.2369
  188POPC   H7R21604   5.758   5.158   4.386  0.8951 -0.0269 -0.3078
  188POPC   H7S21605   5.632   5.286   4.398  0.8172  3.1722  0.5611
  188POPC   C2821606   5.818   5.356   4.469 -0.6417 -0.2226 -0.0963
  188POPC   H8R21607   5.784   5.350   4.575 -0.2412  2.6670  0.2635
  188POPC   H8S21608   5.815   5.466   4.455 -0.4001 -0.3456 -1.1944
  188POPC   C2921609   5.968   5.313   4.455 -0.1308 -0.5958  0.0434
  188POPC   H9121610   5.999   5.260   4.363  1.3401  0.3022  0.0047
  188POPC  C21021611   6.062   5.339   4.548  0.5319  0.3264  0.0471
  188POPC  H10121612   6.160   5.299   4.518 -0.2961 -1.6283 -0.2129
  188POPC  C21121613   6.040   5.416   4.673 -0.3871 -0.0174  0.0949
  188POPC  H11R21614   5.946   5.475   4.668  1.4594  3.0173 -1.0681
  188POPC  H11S21615   6.110   5.502   4.674  0.6380 -0.8265 -0.6387
  188POPC  C21221616   6.065   5.344   4.806 -0.6906 -0.4659  0.3291
  188POPC  H12R21617   6.175   5.345   4.821 -0.4498 -2.8939 -0.8600
  188POPC  H12S21618   6.051   5.234   4.796  0.9962 -0.6772 -0.0753
  188POPC  C21321619   5.997   5.410   4.928  0.7250  0.0975 -0.1331
  188POPC  H13R21620   5.904   5.466   4.905  0.1196 -1.5555 -1.9357
  188POPC  H13S21621   6.072   5.476   4.975  0.2984  1.1475 -0.8907
  188POPC  C21421622   5.959   5.306   5.034  0.5023  0.6200  0.6459
  188POPC  H14R21623   6.055   5.252   5.045  0.6896  1.0305  1.0533
  188POPC  H14S21624   5.892   5.230   4.990 -0.4018  1.1034  1.1473
  188POPC  C21521625   5.899   5.351   5.173 -0.2609  0.0206  0.6706
  188POPC  H15R21626   5.801   5.397   5.149 -0.5380 -1.1066 -0.5078
  188POPC  H15S21627   5.972   5.431   5.199  0.3724 -0.2631 -0.1751
  188POPC  C21621628   5.899   5.232   5.278  0.4279 -0.1409 -0.0366
  188POPC  H16R21629   6.004   5.197   5.273  0.6132  0.4654 -0.5944
  188POPC  H16S21630   5.824   5.155   5.248  0.1028  1.1541 -2.9466
  188POPC  C21721631   5.846   5.271   5.415 -0.6456 -0.4454 -0.0111
  188POPC  H17R21632   5.828   5.185   5.483 -1.6189  0.0588  0.3951
  188POPC  H17S21633   5.741   5.306   5.402 -0.7213 -0.4414  0.6104
  188POPC  C21821634   5.931   5.373   5.486  0.2410 -0.2700 -0.4667
  188POPC  H18R21635   5.874   5.428   5.564  1.5238 -1.1129  1.1272
  188POPC  H18S21636   5.970   5.449   5.415  1.9702 -1.2234 -0.6028
  188POPC  H18T21637   6.016   5.329   5.544 -1.7706 -0.2798  2.7151
  188POPC   C3321638   5.607   4.831   4.145 -0.5627  0.5721 -0.2665
  188POPC   H3X21639   5.543   4.740   4.145  0.4119 -0.1397 -1.3443
  188POPC   H3Y21640   5.548   4.925   4.151  1.8077  2.1207  0.0725
  188POPC   C3421641   5.686   4.825   4.278  0.3964  0.8102  0.9510
  188POPC   H4X21642   5.762   4.906   4.280 -0.2116  1.3868  3.5625
  188POPC   H4Y21643   5.723   4.721   4.293  1.3498  1.4129  3.0403
  188POPC   C3521644   5.598   4.851   4.406 -0.9545 -0.0095 -0.0866
  188POPC   H5X21645   5.518   4.774   4.403  1.2551 -2.3920 -1.2200
  188POPC   H5Y21646   5.553   4.953   4.405  0.5827  0.7047  0.8657
  188POPC   C3621647   5.685   4.855   4.535  0.1401  0.6267  0.3565
  188POPC   H6X21648   5.777   4.917   4.535  1.3978 -1.1544 -0.4550
  188POPC   H6Y21649   5.714   4.749   4.548 -0.5552  0.2159 -1.1744
  188POPC   C3721650   5.606   4.872   4.671 -0.7575  0.0711  0.1604
  188POPC   H7X21651   5.661   4.835   4.760  0.6042  0.0603 -0.6516
  188POPC   H7Y21652   5.522   4.800   4.664  0.1791 -1.2842  1.9739
  188POPC   C3821653   5.546   5.009   4.705  0.0048  0.1353  0.1388
  188POPC   H8X21654   5.502   5.050   4.612 -0.2198  1.9897  1.0016
  188POPC   H8Y21655   5.624   5.070   4.756  2.8310 -1.7677 -1.5921
  188POPC   C3921656   5.447   4.980   4.813 -0.0840 -0.3412 -0.3062
  188POPC   H9X21657   5.501   4.938   4.901  0.6469  0.1647 -0.4992
  188POPC   H9Y21658   5.365   4.915   4.775 -1.5753  1.5046 -0.3487
  188POPC  C31021659   5.368   5.109   4.854  0.0849  0.1289 -0.4903
  188POPC  H10X21660   5.284   5.077   4.920 -0.5247 -0.1895 -1.4091
  188POPC  H10Y21661   5.313   5.145   4.765 -2.0003 -2.2656 -0.2692
  188POPC  C31121662   5.438   5.234   4.915 -0.0193  0.3271  1.3535
  188POPC  H11X21663   5.359   5.309   4.934  0.8899  1.7279 -0.1530
  188POPC  H11Y21664   5.507   5.267   4.834 -0.6841 -0.3003  0.5189
  188POPC  C31221665   5.516   5.219   5.048  0.2240 -0.1629  0.0071
  188POPC  H12X21666   5.560   5.317   5.077  0.5213 -0.3115  0.0631
  188POPC  H12Y21667   5.607   5.155   5.040 -0.1087 -0.4904 -1.4248
  188POPC  C31321668   5.430   5.158   5.157 -0.8973 -0.5858  0.7756
  188POPC  H13X21669   5.421   5.047   5.151 -1.5205 -0.5531  1.0686
  188POPC  H13Y21670   5.324   5.190   5.148 -0.9452 -0.2412  2.3174
  188POPC  C31421671   5.486   5.196   5.293 -0.1708 -0.0041  0.9574
  188POPC  H14X21672   5.474   5.306   5.306 -2.6674 -0.0350 -0.5142
  188POPC  H14Y21673   5.586   5.152   5.312 -0.0551 -0.4675 -0.6425
  188POPC  C31521674   5.401   5.134   5.406  0.3883  0.4930 -0.1539
  188POPC  H15X21675   5.402   5.026   5.378  3.0255  0.5766 -0.6569
  188POPC  H15Y21676   5.296   5.168   5.393 -0.1142 -1.2845 -1.1703
  188POPC  C31621677   5.462   5.171   5.539  0.6443  0.4799  0.1560
  188POPC  H16X21678   5.397   5.140   5.624  0.6046  0.7206  0.2147
  188POPC  H16Y21679   5.481   5.280   5.545 -1.6687  0.9064  0.7523
  188POPC  H16Z21680   5.564   5.129   5.557  0.4957  0.2666  0.5226
  189SAPI   C1221681   2.943   1.857   7.810 -0.7170 -0.1547  0.2258
  189SAPI    H221682   2.874   1.944   7.811 -0.9834 -0.3337 -1.0487
  189SAPI    O221683   2.909   1.764   7.903  0.3540  0.0841 -0.2752
  189SAPI   HO221684   2.857   1.808   7.970 -0.1028  1.1240 -1.2806
  189SAPI   C1321685   2.925   1.813   7.664 -0.0588  0.4198 -0.1305
  189SAPI    H321686   2.953   1.900   7.601 -0.0531  2.1011  2.0825
  189SAPI    O321687   2.790   1.785   7.642  0.2794  0.3784 -0.4320
  189SAPI   HO321688   2.783   1.761   7.549  1.6241 -2.9103  0.1926
  189SAPI   C1421689   3.020   1.693   7.636  0.0642  0.0182  0.2520
  189SAPI    H421690   2.991   1.614   7.709  0.9317 -0.7258 -0.1799
  189SAPI    O421691   3.009   1.635   7.508 -0.0573 -0.0182  0.0501
  189SAPI   HO421692   2.936   1.573   7.509 -1.1646  1.0830 -2.5142
  189SAPI   C1521693   3.168   1.719   7.675 -0.0296 -0.5476 -0.3380
  189SAPI    H521694   3.199   1.779   7.587  0.7125 -1.3811 -0.6578
  189SAPI    O521695   3.237   1.596   7.679  0.3144 -0.8619  0.2688
  189SAPI   HO521696   3.261   1.586   7.587  1.5267  2.0584  0.1793
  189SAPI   C1621697   3.186   1.803   7.804 -0.5276  0.0811 -0.0515
  189SAPI    H621698   3.168   1.728   7.884 -1.1662 -1.7256 -1.7983
  189SAPI    O621699   3.319   1.854   7.802 -0.1751 -0.7299 -0.4110
  189SAPI   HO621700   3.318   1.941   7.763 -1.3733 -0.4468  0.1898
  189SAPI   C1121701   3.087   1.914   7.825 -0.1923  0.0965  0.4609
  189SAPI    H121702   3.094   1.988   7.743  2.6848 -0.0189  0.4986
  189SAPI     P21703   3.161   2.133   7.959  0.2850 -0.3798 -0.0432
  189SAPI   O1321704   3.199   2.157   8.103 -0.2276 -0.4170  0.1854
  189SAPI   O1421705   3.051   2.220   7.907  0.0154  0.3057 -0.5768
  189SAPI   O1221706   3.105   1.976   7.948 -0.0619  0.7728  0.6531
  189SAPI   O1121707   3.287   2.141   7.869  0.5339 -0.2444 -0.6345
  189SAPI    C121708   3.307   2.262   7.799 -0.5334 -0.6372  0.0286
  189SAPI    HA21709   3.223   2.334   7.798 -0.4320 -0.4664  1.5298
  189SAPI    HB21710   3.383   2.323   7.854  0.1274  1.3808 -2.8487
  189SAPI    C221711   3.378   2.241   7.660  0.5525  1.0402  0.3212
  189SAPI    HS21712   3.393   2.343   7.617  2.7483  1.6568  2.3381
  189SAPI   O2121713   3.295   2.160   7.580  0.7612  0.4526 -0.3153
  189SAPI   C2121714   3.201   2.226   7.513 -0.1144  0.4807  0.4445
  189SAPI   O2221715   3.181   2.344   7.526 -0.8926 -0.3054  0.3603
  189SAPI   C2221716   3.127   2.136   7.413 -0.5934  0.3665 -0.3013
  189SAPI   H2R21717   3.138   2.032   7.451  2.3901 -0.1479 -2.2139
  189SAPI   H2S21718   3.020   2.166   7.417 -0.5313  0.5696 -0.1615
  189SAPI    C321719   3.521   2.183   7.666 -0.3342 -0.6814  0.1316
  189SAPI    HX21720   3.500   2.080   7.703  1.3685 -0.8507  0.6846
  189SAPI    HY21721   3.572   2.238   7.748  0.7077  1.8076 -2.0609
  189SAPI   O3121722   3.600   2.183   7.549  0.8441  0.3846 -0.3642
  189SAPI   C3121723   3.623   2.064   7.487 -0.4891  1.1363 -0.2522
  189SAPI   O3221724   3.587   1.955   7.539  0.3431  0.2533 -0.0160
  189SAPI   C3221725   3.689   2.085   7.352 -0.1764 -0.0538  0.0093
  189SAPI   H2X21726   3.792   2.123   7.368 -0.1418  0.1253 -0.6118
  189SAPI   H2Y21727   3.639   2.172   7.304 -1.4847 -0.9828 -0.3485
  189SAPI   C2321728   3.187   2.145   7.267  0.3113 -0.1916 -0.3312
  189SAPI   H3R21729   3.194   2.254   7.249 -0.8756  0.0430  0.4929
  189SAPI   H3S21730   3.119   2.099   7.193  0.5050 -0.6420 -0.2343
  189SAPI   C2421731   3.319   2.070   7.245 -0.3580  0.0317  0.0569
  189SAPI   H4R21732   3.400   2.119   7.303 -1.4461  1.5203  0.3993
  189SAPI   H4S21733   3.346   2.094   7.140  0.8905 -0.0084  0.3536
  189SAPI   C2521734   3.309   1.919   7.265 -0.2490 -0.4832 -0.2993
  189SAPI   H5R21735   3.300   1.889   7.370 -0.5992  0.4808 -0.0461
  189SAPI   C2621736   3.347   1.826   7.173 -0.3565 -0.0288 -0.9198
  189SAPI   H6R21737   3.327   1.722   7.201 -1.1499 -0.2163 -2.1375
  189SAPI   C2721738   3.380   1.848   7.035 -0.0710  0.4716  0.6856
  189SAPI   H7R21739   3.471   1.909   7.020  0.3007 -0.6664 -2.5596
  189SAPI   H7S21740   3.298   1.902   6.983 -0.4884  1.7570  2.5927
  189SAPI   C2821741   3.432   1.724   6.966  0.8047 -0.4180  0.1347
  189SAPI   H8R21742   3.486   1.656   7.034 -0.0271  1.3033  2.6524
  189SAPI   C2921743   3.420   1.689   6.837  0.3806 -0.4867  0.4605
  189SAPI   H9R21744   3.456   1.589   6.809 -0.2359 -0.7605  0.6469
  189SAPI  C21021745   3.346   1.769   6.731  0.6925  0.1252 -0.3878
  189SAPI  H10R21746   3.309   1.861   6.779  1.9679  0.0780  0.7259
  189SAPI  H10S21747   3.260   1.709   6.694 -0.1229  1.1639 -0.1943
  189SAPI  C21121748   3.446   1.817   6.627  0.5604  0.0978 -0.1126
  189SAPI  H11R21749   3.536   1.867   6.664  0.9102 -0.3326 -0.3713
  189SAPI  C21221750   3.412   1.817   6.493 -0.1128 -0.0003  0.4686
  189SAPI  H12R21751   3.482   1.846   6.413 -1.0998 -0.7657 -0.6999
  189SAPI  C21321752   3.275   1.774   6.445 -0.4540  0.4169 -0.4654
  189SAPI  H13R21753   3.241   1.685   6.502 -3.2369  1.3949 -0.4438
  189SAPI  H13S21754   3.274   1.737   6.341 -0.8259 -2.1369  0.3690
  189SAPI  C21421755   3.164   1.872   6.476 -1.0446 -0.7617 -0.1151
  189SAPI  H14R21756   3.192   1.955   6.543  0.1088 -0.4837 -0.8961
  189SAPI  C21521757   3.041   1.875   6.421  0.2454  0.2758 -0.4223
  189SAPI  H15R21758   2.970   1.958   6.433  0.6940  0.3718  1.9833
  189SAPI  C21621759   2.995   1.773   6.318  0.6090 -0.4969  0.0202
  189SAPI  H16R21760   2.885   1.761   6.330  0.7287 -1.3331  0.4056
  189SAPI  H16S21761   3.043   1.673   6.326  0.7608 -0.4102  0.1871
  189SAPI  C21721762   3.000   1.839   6.177  0.8681  0.2416  0.0662
  189SAPI  H17R21763   3.104   1.833   6.139  1.0447 -0.6722  0.6858
  189SAPI  H17S21764   2.964   1.945   6.176  1.1933  0.4054 -3.1118
  189SAPI  C21821765   2.913   1.756   6.077 -0.5876 -0.3837  0.3895
  189SAPI  H18R21766   2.803   1.754   6.092 -0.9223 -0.1791 -1.7649
  189SAPI  H18S21767   2.945   1.651   6.091  1.4308  0.2130  0.5773
  189SAPI  C21921768   2.922   1.811   5.937  0.1148 -0.0739  0.8020
  189SAPI  H19R21769   3.027   1.842   5.920  0.1691  0.1673  1.5624
  189SAPI  H19S21770   2.864   1.905   5.930  0.7483  0.3667  1.4549
  189SAPI  C22021771   2.880   1.716   5.819  0.2233 -0.2796  0.1590
  189SAPI  H20R21772   2.906   1.610   5.842  0.4892 -0.3703 -0.5368
  189SAPI  H20S21773   2.937   1.737   5.726 -0.0418  1.4934  0.3606
  189SAPI  H20T21774   2.772   1.739   5.803 -0.4917 -2.2849  1.6267
  189SAPI   C3321775   3.703   1.967   7.254 -0.8663  0.1772  0.2935
  189SAPI   H3X21776   3.607   1.923   7.219 -0.5716 -0.5988  0.4542
  189SAPI   H3Y21777   3.751   1.884   7.309  1.7171  0.7293 -0.9752
  189SAPI   C3421778   3.776   2.004   7.122  0.0776 -0.2566  0.4234
  189SAPI   H4X21779   3.862   2.075   7.129  0.0446  0.1423 -2.1439
  189SAPI   H4Y21780   3.706   2.054   7.052 -0.2046 -0.2109  0.7343
  189SAPI   C3521781   3.844   1.880   7.059  0.0775 -0.9411 -0.0530
  189SAPI   H5X21782   3.749   1.834   7.026 -2.0028  1.5675  1.9108
  189SAPI   H5Y21783   3.895   1.820   7.137  2.4676 -0.1126 -0.8591
  189SAPI   C3621784   3.915   1.906   6.932  0.4037 -0.5289  0.3121
  189SAPI   H6X21785   3.960   1.814   6.889 -0.2531 -1.0080  0.6198
  189SAPI   H6Y21786   3.997   1.979   6.947 -1.8200  2.0868  0.5448
  189SAPI   C3721787   3.824   1.964   6.817  1.0508 -0.1989 -0.0174
  189SAPI   H7X21788   3.786   2.064   6.848 -1.3956 -0.3458 -2.2202
  189SAPI   H7Y21789   3.735   1.897   6.812  1.4327 -0.6671 -0.7124
  189SAPI   C3821790   3.901   1.973   6.687  0.4708 -0.4032  0.4599
  189SAPI   H8X21791   3.919   1.867   6.660 -0.8501 -1.2667  2.6904
  189SAPI   H8Y21792   4.001   2.020   6.701  0.2262  1.1311 -2.1427
  189SAPI   C3921793   3.820   2.047   6.583 -0.3224  0.5563  0.7605
  189SAPI   H9X21794   3.784   2.142   6.628  1.1526  1.6411 -0.2445
  189SAPI   H9Y21795   3.740   1.974   6.558  1.2932 -2.0044  2.6138
  189SAPI  C31021796   3.892   2.073   6.441  0.1772 -0.8426  0.0102
  189SAPI  H10X21797   3.959   2.160   6.458 -0.7188  0.8869 -4.0938
  189SAPI  H10Y21798   3.816   2.099   6.364  1.7218 -0.3949 -1.4270
  189SAPI  C31121799   3.972   1.955   6.381  0.5244  0.2021  1.0685
  189SAPI  H11X21800   3.906   1.866   6.380 -0.9087  1.2259 -0.3280
  189SAPI  H11Y21801   4.056   1.932   6.450  1.5633 -1.2302 -0.5994
  189SAPI  C31221802   4.033   1.976   6.245  0.3104 -0.3707  1.0835
  189SAPI  H12X21803   4.120   1.912   6.222 -0.1623 -0.0850 -1.8274
  189SAPI  H12Y21804   4.074   2.079   6.233 -1.6478  0.1763 -2.3319
  189SAPI  C31321805   3.933   1.944   6.136  0.1412  0.6170  0.5048
  189SAPI  H13X21806   3.850   2.018   6.142 -0.7653 -0.0541 -2.2407
  189SAPI  H13Y21807   3.892   1.842   6.156  0.3639  0.2683 -0.7339
  189SAPI  C31421808   3.974   1.940   5.988 -0.2303  0.2741  0.6846
  189SAPI  H14X21809   4.030   2.033   5.966  1.2396 -0.7329 -0.0005
  189SAPI  H14Y21810   3.888   1.936   5.918  0.5731  1.5192 -0.4203
  189SAPI  C31521811   4.057   1.816   5.964 -0.2604  0.0868 -0.7157
  189SAPI  H15X21812   3.979   1.737   5.951  2.3547 -2.7564 -0.1412
  189SAPI  H15Y21813   4.125   1.811   6.052  0.0815  1.0827 -0.9074
  189SAPI  C31621814   4.147   1.826   5.839 -0.4725 -0.2515  0.0420
  189SAPI  H16X21815   4.093   1.822   5.742  0.1816  1.6775 -0.4573
  189SAPI  H16Y21816   4.207   1.733   5.851  0.6413  0.3898 -0.3998
  189SAPI  C31721817   4.253   1.940   5.838 -0.4212 -0.1460  0.2547
  189SAPI  H17X21818   4.217   2.044   5.819  0.7737  0.4189  0.9721
  189SAPI  H17Y21819   4.304   1.912   5.743 -2.8338  0.5355 -1.3568
  189SAPI  C31821820   4.362   1.936   5.947 -0.1313  0.5285 -0.1914
  189SAPI  H18X21821   4.309   1.946   6.044 -1.5456 -0.2747 -0.8304
  189SAPI  H18Y21822   4.439   2.014   5.935  0.3571 -0.2007 -2.2239
  189SAPI  H18Z21823   4.406   1.834   5.937 -1.0877  0.2467 -2.1051
  190SAPI   C1221824   2.565   5.470   7.950  0.4272  0.0845 -0.2695
  190SAPI    H221825   2.543   5.554   7.880  1.5931  1.7591  1.2639
  190SAPI    O221826   2.509   5.349   7.892 -0.0917 -0.1650 -0.3908
  190SAPI   HO221827   2.454   5.364   7.814 -0.9613  2.2088  0.5664
  190SAPI   C1321828   2.715   5.459   7.958 -0.6562 -1.0053 -0.6366
  190SAPI    H321829   2.751   5.554   8.005 -0.3425 -1.0309 -0.8244
  190SAPI    O321830   2.784   5.451   7.834  0.4941 -0.5968  0.6408
  190SAPI   HO321831   2.754   5.367   7.799 -0.1697 -0.9112  1.9270
  190SAPI   C1421832   2.768   5.355   8.053  1.2354 -0.3783  0.2455
  190SAPI    H421833   2.775   5.261   7.995 -0.8942 -0.0660 -0.6198
  190SAPI    O421834   2.902   5.379   8.092 -0.7009  0.6017 -0.1049
  190SAPI   HO421835   2.954   5.320   8.037  0.0923  1.4045 -0.2393
  190SAPI   C1521836   2.685   5.328   8.179 -0.1013 -0.3114 -0.0739
  190SAPI    H521837   2.732   5.404   8.246  2.7205 -1.3723 -0.7614
  190SAPI    O521838   2.706   5.197   8.231  0.5492 -0.0893 -0.1194
  190SAPI   HO521839   2.791   5.198   8.277 -0.0149  1.3516  0.9822
  190SAPI   C1621840   2.539   5.370   8.177 -0.1927 -0.4733  0.4114
  190SAPI    H621841   2.471   5.292   8.134  1.6292 -0.4845 -2.7917
  190SAPI    O621842   2.491   5.397   8.312  0.4404 -0.5526  0.3583
  190SAPI   HO621843   2.497   5.492   8.317  3.3525 -0.6145 -0.1900
  190SAPI   C1121844   2.514   5.495   8.094  0.0618 -0.1333  0.4588
  190SAPI    H121845   2.567   5.581   8.143  0.2904 -0.5928  1.0337
  190SAPI     P21846   2.314   5.668   8.035  0.5372 -0.1221  0.0930
  190SAPI   O1321847   2.420   5.767   8.066  0.4572 -0.4221 -0.4963
  190SAPI   O1421848   2.182   5.696   8.103  0.1129 -0.2613  0.3124
  190SAPI   O1221849   2.372   5.521   8.085  0.7272  0.0172 -0.0892
  190SAPI   O1121850   2.300   5.655   7.879  1.0315 -0.2618  0.0340
  190SAPI    C121851   2.195   5.569   7.830 -0.0492  0.5162  0.8869
  190SAPI    HA21852   2.216   5.464   7.859  1.6230  1.1416  2.0706
  190SAPI    HB21853   2.095   5.589   7.875 -0.9084  1.4103 -1.2908
  190SAPI    C221854   2.179   5.589   7.674 -0.5185 -0.0440 -0.5034
  190SAPI    HS21855   2.131   5.498   7.633 -1.4291 -1.6790  3.7040
  190SAPI   O2121856   2.302   5.614   7.600  0.5610 -0.0224 -0.3813
  190SAPI   C2121857   2.397   5.530   7.599 -0.2614 -0.6454 -0.6179
  190SAPI   O2221858   2.396   5.420   7.652 -0.0528  0.0158  0.8742
  190SAPI   C2221859   2.514   5.589   7.530 -0.2677 -0.6582  0.5149
  190SAPI   H2R21860   2.483   5.675   7.467  0.2962 -1.6440 -1.2006
  190SAPI   H2S21861   2.582   5.622   7.612 -0.6461 -0.8677  0.9130
  190SAPI    C321862   2.081   5.717   7.648 -0.0662  0.8239 -0.4765
  190SAPI    HX21863   2.086   5.731   7.538  0.6224 -0.5864 -0.6571
  190SAPI    HY21864   2.123   5.801   7.708  1.6678 -0.5139  0.2827
  190SAPI   O3121865   1.950   5.687   7.699 -0.4608  0.3684  0.2079
  190SAPI   C3121866   1.859   5.653   7.619 -0.1332  0.5631  0.0519
  190SAPI   O3221867   1.864   5.617   7.507  0.8626 -0.2471 -0.2469
  190SAPI   C3221868   1.726   5.668   7.689  0.2416  0.1920 -0.3428
  190SAPI   H2X21869   1.732   5.753   7.760 -0.7459 -1.1458  1.4177
  190SAPI   H2Y21870   1.717   5.574   7.749 -2.5314 -1.3731 -2.9540
  190SAPI   C2321871   2.579   5.488   7.429  0.0531  0.0486 -0.1949
  190SAPI   H3R21872   2.600   5.398   7.491 -0.7170 -1.7594 -2.4413
  190SAPI   H3S21873   2.676   5.536   7.405  0.1573  0.5528  1.1435
  190SAPI   C2421874   2.493   5.452   7.308 -0.4941 -0.1475  0.1129
  190SAPI   H4R21875   2.397   5.408   7.343 -1.1080  0.5327 -0.7057
  190SAPI   H4S21876   2.545   5.367   7.259 -0.6812  1.1827 -2.5239
  190SAPI   C2521877   2.476   5.575   7.221  0.2097 -0.2825 -0.2816
  190SAPI   H5R21878   2.501   5.665   7.279 -0.6878 -0.6945  0.7918
  190SAPI   C2621879   2.452   5.566   7.092 -0.4368  0.8459  0.2569
  190SAPI   H6R21880   2.453   5.657   7.031  0.2302  0.7791  0.1584
  190SAPI   C2721881   2.428   5.433   7.014 -0.8539  0.8019  0.2110
  190SAPI   H7R21882   2.338   5.439   6.950 -0.1138  0.1872 -0.9052
  190SAPI   H7S21883   2.417   5.341   7.075  0.3741 -0.4069 -1.3067
  190SAPI   C2821884   2.548   5.394   6.919 -0.4600 -0.6097 -0.2157
  190SAPI   H8R21885   2.634   5.346   6.967 -0.3839  0.4438  0.7436
  190SAPI   C2921886   2.548   5.421   6.785 -0.0785  1.0017 -0.5781
  190SAPI   H9R21887   2.636   5.398   6.723  0.3278  2.6303 -0.6494
  190SAPI  C21021888   2.443   5.485   6.704  0.2520 -0.0009  0.1886
  190SAPI  H10R21889   2.397   5.560   6.771  0.2856 -0.9505  1.3095
  190SAPI  H10S21890   2.348   5.431   6.684 -1.3956  1.9108  2.2825
  190SAPI  C21121891   2.481   5.562   6.582 -0.2576  0.1216  0.4384
  190SAPI  H11R21892   2.567   5.629   6.596  0.0257 -0.2325  0.3894
  190SAPI  C21221893   2.444   5.533   6.455 -0.5740  0.0353 -0.1253
  190SAPI  H12R21894   2.472   5.596   6.368  0.7791 -0.6283 -0.1981
  190SAPI  C21321895   2.354   5.425   6.403  0.5931 -0.1299 -0.3246
  190SAPI  H13R21896   2.300   5.464   6.313  0.9910 -0.3573 -0.6661
  190SAPI  H13S21897   2.272   5.409   6.476 -0.0633  0.5279 -0.8941
  190SAPI  C21421898   2.418   5.289   6.375 -0.2454  0.1643  0.4087
  190SAPI  H14R21899   2.439   5.232   6.467  1.3822  0.2366  0.1164
  190SAPI  C21521900   2.438   5.234   6.250  0.0662 -0.5315  0.4208
  190SAPI  H15R21901   2.486   5.136   6.235  1.0036  0.1400 -1.3196
  190SAPI  C21621902   2.397   5.289   6.112 -0.4974  0.4334  0.0774
  190SAPI  H16R21903   2.487   5.342   6.073  1.0016 -0.8599  1.6329
  190SAPI  H16S21904   2.315   5.363   6.123 -0.4803  0.4099  0.3641
  190SAPI  C21721905   2.355   5.190   6.002  0.1227 -0.3113  0.1091
  190SAPI  H17R21906   2.253   5.151   6.019  0.1645  0.2868  1.9506
  190SAPI  H17S21907   2.431   5.109   5.992  0.4174  0.1337 -1.5198
  190SAPI  C21821908   2.348   5.259   5.860 -0.4646  0.0052 -0.3598
  190SAPI  H18R21909   2.259   5.326   5.857 -0.0155  0.6007 -0.5829
  190SAPI  H18S21910   2.328   5.194   5.772 -1.2374 -0.0657 -0.1404
  190SAPI  C21921911   2.478   5.334   5.814 -0.2040 -0.3949 -0.1239
  190SAPI  H19R21912   2.484   5.431   5.869 -2.0077  1.0842 -2.3109
  190SAPI  H19S21913   2.463   5.369   5.709  0.4265 -0.0393 -0.1028
  190SAPI  C22021914   2.610   5.257   5.828  0.4535 -0.2498  0.0829
  190SAPI  H20R21915   2.694   5.313   5.780  0.1132 -0.1405 -0.3898
  190SAPI  H20S21916   2.601   5.157   5.780 -0.2706 -1.5088  2.6607
  190SAPI  H20T21917   2.629   5.245   5.937 -0.9315  0.0616  0.3731
  190SAPI   C3321918   1.601   5.681   7.604 -0.0792 -0.5545 -1.2279
  190SAPI   H3X21919   1.510   5.668   7.666  0.0345  1.6347 -0.4942
  190SAPI   H3Y21920   1.593   5.606   7.522 -0.2824  1.4293 -3.1327
  190SAPI   C3421921   1.581   5.829   7.547 -0.2140  0.1744 -0.2200
  190SAPI   H4X21922   1.662   5.857   7.477  0.5463 -1.5671 -0.0880
  190SAPI   H4Y21923   1.578   5.897   7.635  2.3194  2.0881 -1.5100
  190SAPI   C3521924   1.442   5.852   7.491  0.6045 -0.3591  0.2214
  190SAPI   H5X21925   1.426   5.962   7.494  0.6458 -0.3629  0.7116
  190SAPI   H5Y21926   1.368   5.798   7.554  2.1059 -1.0451  1.4670
  190SAPI   C3621927   1.427   5.808   7.346  0.8027 -0.1767  0.0731
  190SAPI   H6X21928   1.322   5.830   7.318 -0.6377 -3.9713  1.7277
  190SAPI   H6Y21929   1.435   5.697   7.351  1.8732 -0.0598  2.5382
  190SAPI   C3721930   1.517   5.875   7.240  0.2745  0.1757 -0.4946
  190SAPI   H7X21931   1.625   5.852   7.240  0.0492 -0.9471 -0.4956
  190SAPI   H7Y21932   1.516   5.981   7.273  0.4162  0.0314 -0.0223
  190SAPI   C3821933   1.450   5.859   7.097 -0.3728 -0.7162 -0.1397
  190SAPI   H8X21934   1.344   5.894   7.106 -0.5611 -1.4425  0.5872
  190SAPI   H8Y21935   1.430   5.752   7.073  1.5682 -1.1376 -0.0100
  190SAPI   C3921936   1.533   5.918   6.982  0.2713 -0.6921  0.5063
  190SAPI   H9X21937   1.626   5.859   6.970  0.1177 -0.8171 -0.0863
  190SAPI   H9Y21938   1.552   6.027   6.996 -1.2193 -0.4224  0.6724
  190SAPI  C31021939   1.451   5.907   6.854  0.0966  0.2753 -0.4885
  190SAPI  H10X21940   1.368   5.980   6.858  2.5727  3.3189 -0.4215
  190SAPI  H10Y21941   1.417   5.802   6.860 -0.2606  0.4854  3.2554
  190SAPI  C31121942   1.528   5.916   6.717  0.7733  0.2668 -0.1871
  190SAPI  H11X21943   1.445   5.933   6.645  0.1636 -2.9939 -0.4145
  190SAPI  H11Y21944   1.566   5.816   6.689 -1.1362 -0.5832  0.1146
  190SAPI  C31221945   1.629   6.028   6.712 -0.5984  0.3572 -0.5137
  190SAPI  H12X21946   1.709   6.003   6.785 -1.2403  0.8788  0.3837
  190SAPI  H12Y21947   1.600   6.131   6.741  0.7113  0.0980  1.9566
  190SAPI  C31321948   1.691   6.031   6.567  0.3637  0.2164 -0.5078
  190SAPI  H13X21949   1.726   5.936   6.522 -0.3705  0.1588 -0.9832
  190SAPI  H13Y21950   1.781   6.092   6.589  1.8983 -0.4306 -4.2843
  190SAPI  C31421951   1.592   6.101   6.471 -0.6624  0.0285  0.2482
  190SAPI  H14X21952   1.556   6.196   6.515  1.1803  1.5838 -1.3927
  190SAPI  H14Y21953   1.512   6.026   6.453 -0.4302 -0.3946  0.9230
  190SAPI  C31521954   1.652   6.135   6.334  0.5609 -0.0793 -0.6651
  190SAPI  H15X21955   1.716   6.226   6.337  0.2518  0.1200  1.1509
  190SAPI  H15Y21956   1.568   6.162   6.266  0.7143  0.5222 -0.6183
  190SAPI  C31621957   1.730   6.013   6.277 -0.4300 -0.0225  0.3406
  190SAPI  H16X21958   1.674   5.918   6.278  1.3164 -1.1017  1.1760
  190SAPI  H16Y21959   1.822   6.010   6.340 -0.2645 -3.5708  0.1164
  190SAPI  C31721960   1.783   6.031   6.132  0.0365 -0.4343 -0.6736
  190SAPI  H17X21961   1.706   6.054   6.055 -0.8202  0.7142  0.4815
  190SAPI  H17Y21962   1.837   5.944   6.089  0.7989 -0.0843 -0.4415
  190SAPI  C31821963   1.890   6.150   6.118 -0.0615  0.0182 -0.3222
  190SAPI  H18X21964   1.979   6.122   6.058 -0.3145 -1.9388  0.1381
  190SAPI  H18Y21965   1.918   6.197   6.215 -0.0998  1.9531 -1.2071
  190SAPI  H18Z21966   1.837   6.234   6.069 -0.3160 -0.6026 -1.1269
  191SAPI   C1221967   3.023   3.816   3.529 -0.1837  0.3431 -0.6094
  191SAPI    H221968   3.085   3.905   3.506  0.8041  0.4821  2.1856
  191SAPI    O221969   2.946   3.848   3.644  0.2502  0.3492 -0.0323
  191SAPI   HO221970   3.002   3.858   3.721 -1.2939  0.1583  1.1372
  191SAPI   C1321971   2.941   3.777   3.410 -1.0981  0.1542  0.0520
  191SAPI    H321972   3.011   3.753   3.328 -1.0340  0.2496  0.0785
  191SAPI    O321973   2.862   3.886   3.357  0.0699 -0.1868  0.0738
  191SAPI   HO321974   2.808   3.849   3.287 -0.8047  1.2204 -0.0430
  191SAPI   C1421975   2.852   3.664   3.444  0.3280 -0.4708  0.6477
  191SAPI    H421976   2.768   3.707   3.503 -0.0947  0.9198 -0.8889
  191SAPI    O421977   2.785   3.608   3.330  0.2746  0.0106 -0.8894
  191SAPI   HO421978   2.700   3.574   3.360  0.8845 -0.8792 -0.0735
  191SAPI   C1521979   2.924   3.551   3.521  0.0870  0.4068  0.5511
  191SAPI    H521980   2.982   3.502   3.440  1.1821 -2.0429  2.6662
  191SAPI    O521981   2.838   3.445   3.568 -1.0994  0.0028  0.4901
  191SAPI   HO521982   2.792   3.481   3.644  0.2700 -0.4653  1.5603
  191SAPI   C1621983   3.030   3.584   3.621  0.0562 -0.3216 -0.1725
  191SAPI    H621984   2.975   3.626   3.707  0.2301  0.2301 -0.3272
  191SAPI    O621985   3.114   3.473   3.657 -0.0761 -0.2114  0.4349
  191SAPI   HO621986   3.172   3.521   3.717 -0.3363  0.9461 -0.2103
  191SAPI   C1121987   3.114   3.699   3.568 -0.0217 -0.6892  0.0955
  191SAPI    H121988   3.162   3.664   3.474 -0.8081  0.7338 -0.8662
  191SAPI     P21989   3.363   3.780   3.610  0.1386  0.1229 -0.0661
  191SAPI   O1321990   3.411   3.902   3.675 -0.2679 -0.1712 -0.3054
  191SAPI   O1421991   3.357   3.783   3.462 -0.3964  0.5162 -0.3252
  191SAPI   O1221992   3.213   3.742   3.667  0.3925  0.1744 -0.3076
  191SAPI   O1121993   3.449   3.657   3.655  0.5103  1.0313  0.2396
  191SAPI    C121994   3.449   3.625   3.796  0.8267  0.0388  0.0648
  191SAPI    HA21995   3.505   3.702   3.853  1.3581 -0.1832 -0.1474
  191SAPI    HB21996   3.351   3.610   3.845  0.4323 -0.6897 -0.9035
  191SAPI    C221997   3.525   3.487   3.812  0.4989  0.6280 -0.1762
  191SAPI    HS21998   3.461   3.407   3.770  2.1673  0.4641 -2.5877
  191SAPI   O2121999   3.534   3.469   3.952 -0.3421  0.0118  0.1179
  191SAPI   C2122000   3.494   3.354   4.006 -0.2945 -0.0550 -0.2715
  191SAPI   O2222001   3.448   3.261   3.944 -0.2444 -0.7933  0.0628
  191SAPI   C2222002   3.544   3.359   4.157  0.2979 -0.4966 -0.0988
  191SAPI   H2R22003   3.627   3.432   4.164  0.8368 -1.1760  0.8204
  191SAPI   H2S22004   3.469   3.401   4.226  1.4225  1.0760  0.2265
  191SAPI    C322005   3.663   3.479   3.740  0.0558  0.1435  0.5595
  191SAPI    HX22006   3.722   3.566   3.776 -1.9248  1.4276  0.8526
  191SAPI    HY22007   3.640   3.498   3.633  1.4229 -1.9631 -0.1795
  191SAPI   O3122008   3.736   3.350   3.753 -0.1983 -0.0953  0.0876
  191SAPI   C3122009   3.802   3.338   3.862 -0.0998  0.0069 -0.6169
  191SAPI   O3222010   3.821   3.421   3.947  0.6549  0.2975  0.4855
  191SAPI   C3222011   3.861   3.194   3.869 -0.3346  0.1450 -0.4877
  191SAPI   H2X22012   3.878   3.153   3.767 -0.3124  0.8193 -0.7626
  191SAPI   H2Y22013   3.775   3.143   3.916 -1.7293  2.1612 -0.7037
  191SAPI   C2322014   3.590   3.220   4.203  0.0452  0.1720 -0.4569
  191SAPI   H3R22015   3.649   3.176   4.121 -3.4593 -3.7172 -1.1958
  191SAPI   H3S22016   3.506   3.148   4.212  0.2839 -0.0622 -0.0612
  191SAPI   C2422017   3.673   3.228   4.332 -0.2427  0.1455 -0.0075
  191SAPI   H4R22018   3.763   3.290   4.313 -0.4777 -0.3394 -3.4041
  191SAPI   H4S22019   3.716   3.129   4.359  0.1869  0.9369  2.4844
  191SAPI   C2522020   3.609   3.288   4.450 -0.5023  0.1858 -0.2263
  191SAPI   H5R22021   3.618   3.397   4.437 -0.7857  0.0195 -2.1554
  191SAPI   C2622022   3.559   3.234   4.564  0.0995 -0.7700  0.2721
  191SAPI   H6R22023   3.523   3.307   4.638  0.9461 -0.0248 -0.0361
  191SAPI   C2722024   3.542   3.091   4.598  0.0315 -0.0165  0.5858
  191SAPI   H7R22025   3.631   3.033   4.569 -0.5486 -0.2497 -0.7978
  191SAPI   H7S22026   3.462   3.057   4.529 -1.1472 -1.0652  2.3779
  191SAPI   C2822027   3.489   3.041   4.727 -0.0793 -0.1741  0.4734
  191SAPI   H8R22028   3.416   2.960   4.716  0.5711 -0.5580 -1.3907
  191SAPI   C2922029   3.519   3.082   4.854  0.0103 -0.3465  0.1584
  191SAPI   H9R22030   3.476   3.028   4.939 -1.7773  1.4663  0.4969
  191SAPI  C21022031   3.620   3.189   4.891 -0.2280  0.1645  0.4154
  191SAPI  H10R22032   3.694   3.207   4.810  0.0567  1.4021  0.9255
  191SAPI  H10S22033   3.688   3.146   4.969 -0.0797 -0.6771 -0.1636
  191SAPI  C21122034   3.574   3.315   4.942 -0.1354  0.6055 -0.2041
  191SAPI  H11R22035   3.560   3.388   4.861  1.4865  4.5032  2.6912
  191SAPI  C21222036   3.543   3.352   5.068  0.2179 -0.2158  0.0954
  191SAPI  H12R22037   3.505   3.454   5.082  2.0773  0.4599  0.5256
  191SAPI  C21322038   3.557   3.274   5.195  0.4855 -0.0828 -0.4824
  191SAPI  H13R22039   3.634   3.196   5.181  1.6802  0.7738  0.9724
  191SAPI  H13S22040   3.462   3.219   5.214 -0.4234  2.1769  2.4097
  191SAPI  C21422041   3.574   3.349   5.321 -0.0141  0.5800  0.2208
  191SAPI  H14R22042   3.513   3.440   5.332  0.5042  0.7846  1.6566
  191SAPI  C21522043   3.663   3.311   5.422 -0.1872  0.6351  0.0896
  191SAPI  H15R22044   3.660   3.371   5.514 -1.1853 -0.0286  0.4985
  191SAPI  C21622045   3.752   3.197   5.436 -0.3841 -0.6795 -0.2351
  191SAPI  H16R22046   3.852   3.211   5.482 -0.0977 -1.5494 -0.5721
  191SAPI  H16S22047   3.776   3.157   5.335  0.1455  0.8306 -0.7471
  191SAPI  C21722048   3.683   3.078   5.507 -0.1911  0.1519 -0.5248
  191SAPI  H17R22049   3.592   3.045   5.453 -0.1552  0.4269 -0.7562
  191SAPI  H17S22050   3.657   3.104   5.612  0.7843 -0.7510 -0.0409
  191SAPI  C21822051   3.791   2.958   5.515 -0.3777  0.0949 -0.8711
  191SAPI  H18R22052   3.879   2.999   5.570  1.9898 -1.8794 -2.9700
  191SAPI  H18S22053   3.831   2.936   5.414 -2.2681 -0.2630 -1.5736
  191SAPI  C21922054   3.735   2.832   5.589  0.5319  0.3874 -0.2093
  191SAPI  H19R22055   3.641   2.788   5.550  1.3299 -2.5687  0.9709
  191SAPI  H19S22056   3.720   2.854   5.697  1.3340  0.3425 -0.0805
  191SAPI  C22022057   3.838   2.713   5.589  0.0112 -0.8555  0.3642
  191SAPI  H20R22058   3.801   2.630   5.652 -1.9961 -0.0933  0.2440
  191SAPI  H20S22059   3.934   2.747   5.633 -0.0430  0.6571 -0.6024
  191SAPI  H20T22060   3.855   2.671   5.487  0.2667 -1.6263  0.7212
  191SAPI   C3322061   3.979   3.181   3.961 -0.4138 -0.4387 -0.4390
  191SAPI   H3X22062   3.945   3.220   4.059  1.1974  0.3580 -0.1524
  191SAPI   H3Y22063   4.065   3.248   3.938  0.9379 -1.0405  2.4669
  191SAPI   C3422064   4.041   3.038   3.977 -0.5988  0.4330  0.0789
  191SAPI   H4X22065   4.086   3.004   3.881  1.2479 -0.8294  1.3482
  191SAPI   H4Y22066   3.969   2.961   4.012  2.1719 -1.7641  1.2588
  191SAPI   C3522067   4.147   3.024   4.084  0.4434  0.6597  0.5838
  191SAPI   H5X22068   4.225   3.101   4.065  1.3743 -0.5473 -0.7282
  191SAPI   H5Y22069   4.214   2.936   4.076 -1.8009 -1.0780 -0.0634
  191SAPI   C3622070   4.108   3.028   4.227  0.1894  0.4692  0.1356
  191SAPI   H6X22071   4.048   2.936   4.237 -1.9819  1.7306 -0.6616
  191SAPI   H6Y22072   4.043   3.117   4.241  0.3238  1.0021 -2.1808
  191SAPI   C3722073   4.223   3.023   4.329 -0.1841  0.6479  0.2374
  191SAPI   H7X22074   4.300   3.099   4.302  1.2620 -0.5705  0.8370
  191SAPI   H7Y22075   4.266   2.922   4.318  0.7154  0.9755  0.6683
  191SAPI   C3822076   4.171   3.038   4.476  0.5512 -0.0728  1.0842
  191SAPI   H8X22077   4.114   3.132   4.491  1.1810  0.4674  0.2224
  191SAPI   H8Y22078   4.266   3.034   4.533  1.8642 -2.0451 -1.0459
  191SAPI   C3922079   4.081   2.919   4.519  0.5237  0.2040  0.2214
  191SAPI   H9X22080   4.138   2.832   4.481  0.1246 -0.4173  0.9977
  191SAPI   H9Y22081   3.980   2.910   4.473 -1.5675 -2.2796  4.6011
  191SAPI  C31022082   4.080   2.910   4.669  0.0250 -0.0706 -0.0664
  191SAPI  H10X22083   4.183   2.927   4.707 -0.2957  0.0954  0.7483
  191SAPI  H10Y22084   4.048   2.807   4.693  0.7374 -0.0746  0.9046
  191SAPI  C31122085   3.982   3.005   4.730  0.1919  0.1488 -0.8449
  191SAPI  H11X22086   3.894   3.025   4.666 -0.5385  3.1309  0.8612
  191SAPI  H11Y22087   4.024   3.105   4.757 -1.3034  0.0396  2.3016
  191SAPI  C31222088   3.920   2.959   4.863 -0.3353  0.7620 -0.5519
  191SAPI  H12X22089   3.861   2.865   4.855  0.7941 -0.5881  4.0380
  191SAPI  H12Y22090   3.858   3.043   4.903 -3.8389 -2.3682  1.2057
  191SAPI  C31322091   4.039   2.929   4.958  0.3956 -1.0132  0.0520
  191SAPI  H13X22092   4.110   3.015   4.957 -0.1222 -0.5900 -0.4406
  191SAPI  H13Y22093   4.074   2.836   4.908  0.8642 -0.4873 -0.6121
  191SAPI  C31422094   3.998   2.891   5.099 -0.6848  0.5357 -0.6227
  191SAPI  H14X22095   3.942   2.795   5.091 -0.7221  0.4436  0.4775
  191SAPI  H14Y22096   3.932   2.961   5.155 -0.4465  1.5765 -1.6081
  191SAPI  C31522097   4.123   2.864   5.191 -0.9145  0.2331  0.0790
  191SAPI  H15X22098   4.188   2.951   5.216  3.1583 -2.0425 -1.6064
  191SAPI  H15Y22099   4.195   2.805   5.130 -0.8211 -1.4440  1.6989
  191SAPI  C31622100   4.098   2.777   5.311 -0.1419  0.1977  0.2073
  191SAPI  H16X22101   4.066   2.673   5.287  2.0704 -0.5404  0.2094
  191SAPI  H16Y22102   4.023   2.829   5.375 -1.3557 -1.7700  0.4733
  191SAPI  C31722103   4.213   2.756   5.406  0.2111 -0.0023  0.2942
  191SAPI  H17X22104   4.174   2.713   5.500 -1.0543 -1.2579 -0.7653
  191SAPI  H17Y22105   4.244   2.860   5.432  0.2647  0.6962 -2.2135
  191SAPI  C31822106   4.339   2.686   5.342 -0.4082 -0.7252 -0.4134
  191SAPI  H18X22107   4.429   2.692   5.407 -0.7112 -1.9870  0.1578
  191SAPI  H18Y22108   4.373   2.736   5.249 -0.1527  0.6596  0.3918
  191SAPI  H18Z22109   4.316   2.579   5.322  0.0270 -0.4859 -2.4408
  192SAPI   C1222110   5.387   1.178   3.233 -0.2229 -0.2057 -0.2803
  192SAPI    H222111   5.458   1.246   3.286  0.3695 -0.7074 -0.4169
  192SAPI    O222112   5.466   1.105   3.143 -0.0213 -0.2151  0.2774
  192SAPI   HO222113   5.553   1.144   3.153 -0.1379  0.3281 -0.7413
  192SAPI   C1322114   5.328   1.089   3.340 -0.1537  0.2569  0.7097
  192SAPI    H322115   5.265   1.158   3.401  2.0708  0.7939  2.5327
  192SAPI    O322116   5.420   1.020   3.427 -0.1593 -0.8195  0.2350
  192SAPI   HO322117   5.513   1.027   3.405 -0.0834 -1.4555  0.3310
  192SAPI   C1422118   5.231   0.984   3.277 -0.7680  0.1441 -0.5161
  192SAPI    H422119   5.295   0.911   3.223 -0.7952 -0.0467 -0.2949
  192SAPI    O422120   5.154   0.915   3.377 -0.1866 -0.1080 -0.5527
  192SAPI   HO422121   5.211   0.867   3.438  0.1336 -1.2825 -1.6966
  192SAPI   C1522122   5.140   1.047   3.169 -0.3231  0.2219  0.9774
  192SAPI    H522123   5.052   1.086   3.226 -0.5792  2.8210 -1.0199
  192SAPI    O522124   5.083   0.945   3.086 -0.2774  0.0964 -0.6707
  192SAPI   HO522125   5.002   0.975   3.043  0.5622  0.6849 -1.8898
  192SAPI   C1622126   5.188   1.172   3.090  0.3242  0.0817  0.2942
  192SAPI    H622127   5.251   1.137   3.006 -0.3310  2.1454 -1.1496
  192SAPI    O622128   5.083   1.246   3.019 -0.1284 -0.2551 -0.4014
  192SAPI   HO622129   5.028   1.295   3.081  0.1697  0.0006 -0.3390
  192SAPI   C1122130   5.277   1.263   3.170 -0.5299 -0.1035  0.2318
  192SAPI    H122131   5.213   1.301   3.253 -0.7517 -1.0914  0.5243
  192SAPI     P22132   5.344   1.519   3.171 -0.2373  0.3452  0.2956
  192SAPI   O1322133   5.208   1.548   3.223  0.1081  0.4602  0.4656
  192SAPI   O1422134   5.403   1.616   3.076 -0.2511  0.0134  0.0297
  192SAPI   O1222135   5.348   1.369   3.098  0.7781 -0.0130 -0.4089
  192SAPI   O1122136   5.434   1.490   3.292  0.3270 -0.3630  0.2658
  192SAPI    C122137   5.505   1.594   3.359  0.1268 -0.4347 -0.9330
  192SAPI    HA22138   5.591   1.542   3.406  1.4621  1.2030 -1.5012
  192SAPI    HB22139   5.551   1.671   3.294  2.9349 -1.7347 -0.6223
  192SAPI    C222140   5.431   1.669   3.479  0.6803 -0.5113 -0.1720
  192SAPI    HS22141   5.507   1.721   3.541  0.6384  0.7459 -1.1204
  192SAPI   O2122142   5.348   1.574   3.554 -0.7103 -0.1115  0.1978
  192SAPI   C2122143   5.418   1.505   3.634 -0.1283  0.1039 -0.3801
  192SAPI   O2222144   5.534   1.528   3.665  0.4899  0.4120 -0.0315
  192SAPI   C2222145   5.331   1.388   3.671 -0.4271  0.0360  0.0972
  192SAPI   H2R22146   5.223   1.414   3.665 -0.2705  0.7148  0.1527
  192SAPI   H2S22147   5.347   1.315   3.590 -1.1305 -1.3767  1.1835
  192SAPI    C322148   5.331   1.779   3.431 -0.2114  1.1381  0.2066
  192SAPI    HX22149   5.235   1.730   3.402  1.4183 -1.4654 -1.1116
  192SAPI    HY22150   5.364   1.831   3.339 -1.6327 -0.1828 -1.1249
  192SAPI   O3122151   5.313   1.874   3.540  0.1369  0.4713  0.1011
  192SAPI   C3122152   5.400   1.966   3.543 -0.7170 -0.0334 -0.1514
  192SAPI   O3222153   5.504   1.969   3.474 -0.0517 -0.1493  0.1755
  192SAPI   C3222154   5.367   2.065   3.652 -0.9895  0.0551  0.0231
  192SAPI   H2X22155   5.292   2.137   3.613 -0.2154  1.5463  1.1976
  192SAPI   H2Y22156   5.461   2.122   3.665 -0.7942 -0.0920 -0.7053
  192SAPI   C2322157   5.375   1.319   3.807  0.6244  0.3885 -0.4503
  192SAPI   H3R22158   5.415   1.390   3.882  1.6727 -0.3415 -0.2935
  192SAPI   H3S22159   5.459   1.255   3.770 -0.0472 -2.1019  2.0100
  192SAPI   C2422160   5.260   1.232   3.867 -0.0874  0.1671 -0.0762
  192SAPI   H4R22161   5.311   1.177   3.949 -1.6350 -0.5421  0.4445
  192SAPI   H4S22162   5.233   1.164   3.783  2.4927  1.0394 -1.7315
  192SAPI   C2522163   5.152   1.324   3.924  0.0960  0.0219 -0.4953
  192SAPI   H5R22164   5.134   1.409   3.856 -1.3893 -1.0803 -1.5428
  192SAPI   C2622165   5.085   1.320   4.041 -0.5395  0.0089  0.2157
  192SAPI   H6R22166   5.003   1.391   4.063 -0.7418  0.0265 -0.5649
  192SAPI   C2722167   5.101   1.210   4.148 -0.3823 -0.0997  0.3038
  192SAPI   H7R22168   5.165   1.247   4.231 -2.9874 -0.0498  2.4330
  192SAPI   H7S22169   5.150   1.127   4.094 -0.5003 -2.1060  3.0842
  192SAPI   C2822170   4.977   1.153   4.202  0.2063 -0.0266  0.1052
  192SAPI   H8R22171   4.895   1.150   4.129  0.9957 -1.0984 -0.7905
  192SAPI   C2922172   4.951   1.095   4.320 -0.3210  0.4597  0.5728
  192SAPI   H9R22173   4.847   1.066   4.343 -0.3475 -0.3928 -0.5296
  192SAPI  C21022174   5.037   1.071   4.443  0.3953  0.2287 -0.4604
  192SAPI  H10R22175   5.146   1.082   4.426  0.4200 -0.2432 -0.6247
  192SAPI  H10S22176   5.029   0.964   4.472 -0.8598  0.8566  1.6776
  192SAPI  C21122177   5.000   1.170   4.547 -0.6918 -0.0971 -0.6282
  192SAPI  H11R22178   5.027   1.274   4.523 -5.4670  1.5349  0.1641
  192SAPI  C21222179   4.935   1.137   4.661  0.0840 -0.5650  0.0529
  192SAPI  H12R22180   4.918   1.226   4.724  0.0000  0.8693 -1.9110
  192SAPI  C21322181   4.899   1.000   4.716 -0.0467 -1.1355 -0.3812
  192SAPI  H13R22182   4.966   0.983   4.803  0.0692 -0.1735 -0.2745
  192SAPI  H13S22183   4.926   0.926   4.637  0.5487 -0.4477 -0.8282
  192SAPI  C21422184   4.759   0.985   4.763  0.6837  0.4009  0.2520
  192SAPI  H14R22185   4.693   0.928   4.695  1.1237  1.0672 -0.7619
  192SAPI  C21522186   4.706   1.037   4.878  0.0649 -0.0728  0.5248
  192SAPI  H15R22187   4.606   1.008   4.915 -0.0110 -0.0240  0.3608
  192SAPI  C21622188   4.764   1.126   4.989 -0.2104 -0.3198  0.7389
  192SAPI  H16R22189   4.681   1.185   5.031 -2.3075 -0.9344 -2.2273
  192SAPI  H16S22190   4.844   1.185   4.939  0.9490 -0.9815  1.7663
  192SAPI  C21722191   4.831   1.050   5.114 -0.6572 -0.0886  0.0418
  192SAPI  H17R22192   4.878   1.119   5.187  2.2499  0.0381 -1.7803
  192SAPI  H17S22193   4.916   0.986   5.084 -0.1169 -0.7760  2.7585
  192SAPI  C21822194   4.714   0.968   5.177 -0.4567 -0.1778  0.6401
  192SAPI  H18R22195   4.701   0.875   5.117 -0.1614 -0.5658  1.1710
  192SAPI  H18S22196   4.624   1.034   5.179  1.1497  2.2482 -1.5460
  192SAPI  C21922197   4.734   0.911   5.323  0.7584 -0.6225  0.3692
  192SAPI  H19R22198   4.650   0.841   5.342 -1.3765  1.6184 -0.2861
  192SAPI  H19S22199   4.715   0.999   5.388  1.4769  0.6623 -1.1127
  192SAPI  C22022200   4.872   0.856   5.349  0.0369 -0.0913 -0.6032
  192SAPI  H20R22201   4.887   0.828   5.455 -1.4548  2.1205  0.2469
  192SAPI  H20S22202   4.943   0.931   5.309 -1.4243  0.8606 -1.4894
  192SAPI  H20T22203   4.888   0.760   5.294 -3.2516  0.0183 -1.9216
  192SAPI   C3322204   5.307   2.018   3.788  0.6991 -0.1197 -0.8263
  192SAPI   H3X22205   5.353   1.919   3.808 -1.8880 -1.5687 -1.6521
  192SAPI   H3Y22206   5.197   2.009   3.777  0.7648  0.2782 -1.9359
  192SAPI   C3422207   5.336   2.123   3.901  0.2990  0.5754 -0.8430
  192SAPI   H4X22208   5.341   2.222   3.851  0.0316 -0.4174 -2.9352
  192SAPI   H4Y22209   5.432   2.081   3.938 -0.6034 -3.1393 -2.2801
  192SAPI   C3522210   5.234   2.125   4.019 -0.0731  0.0479 -0.5235
  192SAPI   H5X22211   5.253   2.037   4.083 -0.8635 -0.9088 -1.5711
  192SAPI   H5Y22212   5.131   2.104   3.983  0.6014 -3.9339 -0.5559
  192SAPI   C3622213   5.245   2.255   4.111  0.2646 -0.2217  0.3883
  192SAPI   H6X22214   5.176   2.235   4.196  0.6567 -1.1248  0.5128
  192SAPI   H6Y22215   5.205   2.341   4.053  1.1847  0.3847  0.6459
  192SAPI   C3722216   5.388   2.297   4.149 -0.4313 -0.0396 -0.2975
  192SAPI   H7X22217   5.384   2.389   4.212  0.0276  0.7961 -1.4355
  192SAPI   H7Y22218   5.441   2.337   4.060 -2.0769  0.0666 -1.2629
  192SAPI   C3822219   5.479   2.186   4.201 -0.7836  1.1803 -0.8125
  192SAPI   H8X22220   5.575   2.236   4.229  0.1426 -0.9896  0.1220
  192SAPI   H8Y22221   5.508   2.109   4.127 -0.5734  0.9363 -0.4765
  192SAPI   C3922222   5.429   2.133   4.334 -0.1645  0.1822 -0.5921
  192SAPI   H9X22223   5.324   2.098   4.328  0.4062 -1.9519  0.7834
  192SAPI   H9Y22224   5.413   2.227   4.391  0.9277  0.7782 -1.2401
  192SAPI  C31022225   5.520   2.037   4.403  0.5570 -0.1896 -0.0081
  192SAPI  H10X22226   5.602   2.086   4.461  0.0281  0.2490  0.3735
  192SAPI  H10Y22227   5.557   1.968   4.325  1.3860  0.3738 -0.1261
  192SAPI  C31122228   5.435   1.954   4.507  0.2395  0.3712  0.1579
  192SAPI  H11X22229   5.511   1.880   4.540 -0.5317 -1.2518 -1.5198
  192SAPI  H11Y22230   5.351   1.903   4.456  0.9913  0.2050 -0.9371
  192SAPI  C31222231   5.377   2.043   4.616  0.2767 -0.5867  0.0648
  192SAPI  H12X22232   5.279   2.079   4.578  1.1729  2.0425  0.0020
  192SAPI  H12Y22233   5.441   2.134   4.625  1.2946 -0.8716 -3.0722
  192SAPI  C31322234   5.355   1.984   4.751  0.2252  0.0164 -0.9817
  192SAPI  H13X22235   5.418   2.046   4.819 -2.5849  1.4741  0.4549
  192SAPI  H13Y22236   5.385   1.878   4.737  0.7509 -0.0885  0.7165
  192SAPI  C31422237   5.209   2.007   4.795 -0.9763 -0.3852 -0.1866
  192SAPI  H14X22238   5.135   1.968   4.722 -1.1209 -1.6902  0.6094
  192SAPI  H14Y22239   5.197   2.115   4.817 -1.7406 -0.8147  1.8023
  192SAPI  C31522240   5.173   1.933   4.927  0.1470 -0.1429  0.9251
  192SAPI  H15X22241   5.248   1.971   4.999  0.8178  2.2926 -0.9170
  192SAPI  H15Y22242   5.193   1.826   4.907 -1.1370  0.2032 -3.2557
  192SAPI  C31622243   5.032   1.964   4.968  0.2515 -0.0714  0.5980
  192SAPI  H16X22244   4.958   1.935   4.889  0.6504  3.4296 -1.2787
  192SAPI  H16Y22245   5.029   2.072   4.994  2.1343  0.4535 -1.1359
  192SAPI  C31722246   4.991   1.889   5.098  0.4995  0.7071  0.7676
  192SAPI  H17X22247   5.069   1.905   5.175  1.8188  1.5788 -0.6816
  192SAPI  H17Y22248   4.990   1.782   5.069 -0.2539  0.4770  1.5966
  192SAPI  C31822249   4.857   1.929   5.164  0.7602 -0.3071 -0.0174
  192SAPI  H18X22250   4.854   2.039   5.179 -0.6833 -0.0422 -1.8957
  192SAPI  H18Y22251   4.853   1.885   5.266  0.2054  2.4824  1.2668
  192SAPI  H18Z22252   4.779   1.899   5.092  0.6050 -2.0957  0.8455
  193SOD    SOD22253   0.695   2.583   8.581  0.3449  0.3991 -0.2932
  194SOD    SOD22254   0.304   5.327   0.577 -0.4373 -1.0536 -0.1522
  195SOD    SOD22255   1.423   5.803   3.297  0.3972 -0.2216  0.2703
  196SOD    SOD22256   1.062   5.633   8.533 -0.2318  0.0198 -0.2157
  197SOD    SOD22257   1.855   6.330   0.295  0.2431  0.2398 -0.0757
  198SOD    SOD22258   3.149   2.035   3.192  0.2145  0.4525  0.0618
  199SOD    SOD22259   1.719   3.906   1.350  0.0380  0.0587  0.3145
  200SOD    SOD22260   1.012   1.396   0.088 -0.5155 -0.1580  0.1632
  201SOD    SOD22261   2.815   2.604   1.603 -0.1489 -0.1679  0.1456
  202SOD    SOD22262   1.039   3.689   0.927  0.3676  0.2315 -0.2914
  203SOD    SOD22263   3.955   1.187   2.225  0.4086  0.0390  0.2374
  204SOD    SOD22264   6.324   6.530   8.233  0.1850  0.0007 -0.3591
  205SOD    SOD22265   3.589   2.666   7.718  0.1144 -0.1655  0.2619
  206SOD    SOD22266   3.659   3.218   0.841  0.2254  0.2822  0.5271
  207SOD    SOD22267   3.770   5.960   3.065 -0.4062  0.1165  0.2893
  208SOD    SOD22268   5.625   6.219   1.067  0.2371  0.2912  0.0170
  209SOD    SOD22269   4.063   1.436   8.197 -0.0327 -0.5103 -0.1758
  210SOD    SOD22270   3.953   0.602   1.012 -0.0053  0.8701  0.2988
  211SOD    SOD22271   5.206   1.055   8.645  0.4161 -0.2454 -0.1424
  212SOD    SOD22272   6.864   0.418   1.642  0.0997 -0.5698  0.0014
  213SOD    SOD22273   0.309   4.042   3.049  0.0159 -0.3860  0.0382
  214SOD    SOD22274   2.833   0.383   3.712 -0.1279  0.2261 -0.0333
  215SOD    SOD22275   5.743   2.634   8.423 -0.2250 -0.4422  0.0111
  216SOD    SOD22276   1.420   4.665   3.167  0.0370  0.2061  0.7129
  217SOD    SOD22277   3.919   4.879   1.774  0.4812  0.6644 -0.1516
  218SOD    SOD22278   4.820   2.552   2.791  0.0568  0.6038 -0.5209
  219SOD    SOD22279   4.120   2.089   7.567 -0.1420  0.2907  0.1340
  220SOD    SOD22280   6.238   2.315   2.174 -0.2129 -0.1095  0.3369
  221SOD    SOD22281   2.892   0.600   0.081  0.0470  0.1253 -0.2505
  222SOD    SOD22282   6.412   4.631   1.084 -0.1584 -0.1870  0.0985
  223SOD    SOD22283   4.951   1.392   2.040 -0.6266  0.2181  0.3525
  224SOD    SOD22284   1.357   0.287   3.121  0.2488 -0.1367 -0.3003
  225SOD    SOD22285   5.515   2.003   7.639  0.4227 -0.1092  0.5667
  226SOD    SOD22286   4.531   5.034   8.160 -0.1689  0.1701  0.4467
  227SOD    SOD22287   4.909   3.716   3.478 -0.0628  0.1719 -0.6440
  228SOD    SOD22288   5.075   4.396   0.503 -0.3597  0.2934 -0.3850
  229SOD    SOD22289   3.905   1.654   0.466 -0.3547 -0.4677 -0.3141
  230SOD    SOD22290   3.215   2.179   3.959 -0.2692  0.0014  0.1592
  231SOD    SOD22291   6.015   0.719   1.129  0.2610  0.2561 -0.0560
  232SOD    SOD22292   1.481   2.581   8.394 -0.6684  0.6892  0.5613
  233SOD    SOD22293   3.295   2.232   1.109 -0.1208 -0.0970 -0.3016
  234CLA    CLA22294   6.249   1.690   1.711  0.0237 -0.1365 -0.3906
  235CLA    CLA22295   3.771   0.676   8.646  0.6320 -0.7147  0.0680
  236CLA    CLA22296   1.308   0.119   1.940  0.2385  0.0499 -0.1626
  237CLA    CLA22297   6.704   4.115   1.966  0.3529 -0.0901 -0.3088
  238CLA    CLA22298   6.845   2.885   0.469  0.3381  0.1447  0.0660
  239CLA    CLA22299   2.883   2.529   1.364 -0.1715 -0.0172  0.1441
  240CLA    CLA22300   0.971   1.934   8.610  0.4974  0.5767  0.3668
  241CLA    CLA22301   5.453   5.255   0.672  0.6443 -0.1568  0.4004
  242CLA    CLA22302   4.664   2.203   1.199  0.0790  0.3442  0.5841
  243CLA    CLA22303   6.007   2.814   2.626 -0.5658  0.4396  0.5665
  244CLA    CLA22304   3.502   5.638   2.039  0.2037 -0.1019  0.1078
  245CLA    CLA22305   6.760   3.731   2.168 -0.0444 -0.2187  0.0238
  246CLA    CLA22306   2.147   4.884   0.773 -0.0966  0.0500 -0.0331
  247CLA    CLA22307   1.037   1.875   0.969 -0.1917 -0.3042  0.1048
  248CLA    CLA22308   1.617   3.920   2.123  0.1337  0.1760 -0.1601
  249CLA    CLA22309   4.113   2.257   2.479  0.0747  0.0047 -0.1039
  250CLA    CLA22310   2.418   2.513   0.880  0.0881 -0.0152 -0.0660
  251TIP3   OH222311   6.375   6.006   8.438 -0.3769  0.3444  0.3068
  251TIP3    H122312   6.462   6.009   8.397  0.0230  0.5057  1.1373
  251TIP3    H222313   6.390   6.036   8.527 -1.3899  0.8842  0.3057
  252TIP3   OH222314   2.360   6.441   8.514 -0.0453 -0.2103 -0.6932
  252TIP3    H122315   2.423   6.503   8.552  0.9750 -0.4711 -1.8978
  252TIP3    H222316   2.345   6.377   8.584  1.2233 -0.2716 -0.4508
  253TIP3   OH222317   0.137   1.004   0.749 -0.3650 -0.4548  0.0432
  253TIP3    H122318   0.193   0.934   0.782  2.0981  0.8624 -1.1108
  253TIP3    H222319   0.154   1.006   0.655 -0.3506  1.6870  0.0469
  254TIP3   OH222320   4.359   3.158   1.715  0.7731  0.2063 -0.1172
  254TIP3    H122321   4.287   3.217   1.692  1.0795  0.6764  0.1124
  254TIP3    H222322   4.335   3.075   1.675  1.2507  0.9724 -2.1446
  255TIP3   OH222323   0.428   4.106   8.618 -0.4378  0.0353 -0.1659
  255TIP3    H122324   0.453   4.022   8.582  0.1625 -0.0479  0.4133
  255TIP3    H222325   0.334   4.099   8.636 -0.2668 -0.7415  0.4715
  256TIP3   OH222326   2.670   3.113   1.264 -0.4470 -0.3272  0.0768
  256TIP3    H122327   2.590   3.111   1.211 -0.1994  1.3520 -0.4451
  256TIP3    H222328   2.666   3.198   1.309  0.3061 -0.8834  1.2419
  257TIP3   OH222329   6.425   4.882   3.026 -0.3238 -1.3195 -0.6383
  257TIP3    H122330   6.425   4.812   2.960 -0.6386 -0.1724 -1.9148
  257TIP3    H222331   6.366   4.948   2.990 -0.1885 -0.4777  0.6329
  258TIP3   OH222332   0.042   1.045   2.697  0.5612 -0.2932 -0.0449
  258TIP3    H122333   0.045   1.082   2.609 -0.2796 -1.4584 -0.6038
  258TIP3    H222334  -0.041   0.998   2.699  0.2036  0.3729  1.6600
  259TIP3   OH222335   1.572   1.206   2.848 -0.7437 -0.4671  0.4217
  259TIP3    H122336   1.575   1.226   2.942  1.3012  0.6684  0.1620
  259TIP3    H222337   1.619   1.123   2.841  0.4070  0.1740  0.2724
  260TIP3   OH222338   1.287   5.891   8.211  0.2792  0.9543 -0.0460
  260TIP3    H122339   1.293   5.943   8.130  0.6471  1.7506  0.4753
  260TIP3    H222340   1.203   5.917   8.250  0.8975  1.9037  0.6967
  261TIP3   OH222341   1.209   4.001   2.478  0.0260 -0.0197  0.1312
  261TIP3    H122342   1.273   3.946   2.432 -1.4866 -1.2546 -0.5906
  261TIP3    H222343   1.124   3.961   2.458 -1.0048  1.6495  0.9321
  262TIP3   OH222344   3.366   2.390   0.114 -0.2197 -0.0255  0.0877
  262TIP3    H122345   3.328   2.302   0.108  0.3514 -0.1882 -1.6100
  262TIP3    H222346   3.428   2.384   0.187 -0.4967 -0.9119  0.2650
  263TIP3   OH222347   1.113   3.179   1.762 -0.0515 -0.3139  0.2173
  263TIP3    H122348   1.057   3.200   1.687  1.0037  1.7365 -0.0634
  263TIP3    H222349   1.106   3.256   1.818  1.2479 -0.6995  0.9357
  264TIP3   OH222350   1.535   0.488   2.019  0.3147  0.6506  0.1789
  264TIP3    H122351   1.454   0.522   2.056 -0.5695 -2.5637  1.5584
  264TIP3    H222352   1.597   0.491   2.092  0.1850 -0.6454  0.3654
  265TIP3   OH222353   1.946   4.905   1.306  0.0681  0.6790 -0.2553
  265TIP3    H122354   1.924   4.997   1.291 -0.8144  0.3153 -1.3814
  265TIP3    H222355   2.003   4.906   1.382  0.1150  2.1647 -0.2755
  266TIP3   OH222356   5.477   4.146   0.823 -0.6469  0.3896  0.1875
  266TIP3    H122357   5.419   4.222   0.826  0.5609  1.3474 -0.3976
  266TIP3    H222358   5.515   4.141   0.911 -1.6973 -0.3386  0.6246
  267TIP3   OH222359   0.455   1.377   3.104 -0.6948 -0.8122 -0.1150
  267TIP3    H122360   0.361   1.387   3.112 -0.6907 -0.8898  0.0247
  267TIP3    H222361   0.473   1.289   3.139 -0.3660 -0.1627  1.3939
  268TIP3   OH222362   2.893   1.707   3.313  0.0729 -0.2545  0.4301
  268TIP3    H122363   2.929   1.625   3.280  0.1632 -0.5302  1.2087
  268TIP3    H222364   2.953   1.734   3.383 -1.0501 -0.5751  1.5580
  269TIP3   OH222365   4.213   5.189   1.854  0.2709 -0.4955 -0.1109
  269TIP3    H122366   4.172   5.242   1.922 -1.5084 -0.9531 -0.7535
  269TIP3    H222367   4.262   5.252   1.801 -2.0920  0.6704 -1.0795
  270TIP3   OH222368   4.025   3.875   3.179 -0.3908 -0.6489 -0.2315
  270TIP3    H122369   4.095   3.811   3.170 -0.5745 -0.9702  0.4898
  270TIP3    H222370   4.020   3.892   3.273 -1.4611 -0.8507 -0.2362
  271TIP3   OH222371   6.851   4.067   1.466  0.0495  0.0665  0.0455
  271TIP3    H122372   6.883   3.983   1.501  2.5377  1.5017  1.4748
  271TIP3    H222373   6.823   4.115   1.544 -2.6934  0.1403 -0.8859
  272TIP3   OH222374   1.273   4.583   2.809  0.6989  0.2868 -0.3021
  272TIP3    H122375   1.302   4.629   2.730  1.9823  1.7287  0.9439
  272TIP3    H222376   1.233   4.650   2.863 -1.3292 -0.9223 -0.2005
  273TIP3   OH222377   2.079   2.893   1.011 -0.0239 -0.3778  0.8102
  273TIP3    H122378   1.990   2.915   1.038 -0.7423 -0.5420 -1.2697
  273TIP3    H222379   2.124   2.977   1.005 -0.8961  0.0203 -0.8640
  274TIP3   OH222380   5.231   4.969   1.949  0.3341  0.1827  0.2509
  274TIP3    H122381   5.159   4.913   1.978 -1.3020  1.2276 -1.5761
  274TIP3    H222382   5.234   5.040   2.013  0.3661 -0.3240  0.8274
  275TIP3   OH222383   1.800   2.906   1.721 -0.1543  0.2473  0.1485
  275TIP3    H122384   1.769   2.871   1.805  0.3309 -0.8310 -0.1013
  275TIP3    H222385   1.768   2.996   1.719  1.3404  0.9024  2.2962
  276TIP3   OH222386   1.295   3.937   3.237  0.5673 -0.2126  0.3681
  276TIP3    H122387   1.276   3.965   3.148 -1.4001  1.5257  1.2542
  276TIP3    H222388   1.236   3.988   3.292  0.7148 -2.2362  2.5882
  277TIP3   OH222389   2.273   0.226   0.697  0.0929  0.6106  0.3946
  277TIP3    H122390   2.240   0.136   0.697  1.7179 -0.0262 -0.7744
  277TIP3    H222391   2.208   0.275   0.747 -1.2199 -1.0631  0.4217
  278TIP3   OH222392   5.933   3.331   2.393 -0.2047  0.7415  0.3063
  278TIP3    H122393   6.024   3.307   2.411 -0.1546 -1.4032 -2.1752
  278TIP3    H222394   5.885   3.301   2.470  0.8201 -1.1912  0.2705
  279TIP3   OH222395   4.492   2.309   3.072  0.5411 -0.3730 -0.2182
  279TIP3    H122396   4.523   2.271   3.154 -0.6302 -0.0607  0.3935
  279TIP3    H222397   4.402   2.276   3.063 -0.2760  1.6773 -0.0103
  280TIP3   OH222398   3.510   6.818   1.891 -0.0025  0.4271 -0.2071
  280TIP3    H122399   3.541   6.734   1.926  0.0485  0.9274  0.9888
  280TIP3    H222400   3.583   6.878   1.903 -1.3600  1.6656  2.8154
  281TIP3   OH222401   2.464   3.246   2.857  0.2979  0.1084 -0.2343
  281TIP3    H122402   2.456   3.323   2.800 -1.4725 -0.8977 -1.4589
  281TIP3    H222403   2.457   3.282   2.946  0.3143  1.4385 -0.7370
  282TIP3   OH222404   1.295   2.973   1.702 -0.0396  0.2119  0.5038
  282TIP3    H122405   1.299   2.920   1.622 -1.0462 -2.1301  1.9046
  282TIP3    H222406   1.243   3.049   1.677 -0.7445 -0.6899 -0.9742
  283TIP3   OH222407   0.678   6.333   8.513  0.1182 -0.2020  0.2103
  283TIP3    H122408   0.762   6.379   8.509  0.7099 -1.3255 -1.3840
  283TIP3    H222409   0.645   6.337   8.423 -1.3810 -0.1106  0.7380
  284TIP3   OH222410   2.651   5.903   7.541  0.0945  0.6993 -0.9527
  284TIP3    H122411   2.630   5.954   7.463 -1.2160 -1.1994 -1.9170
  284TIP3    H222412   2.738   5.866   7.523  1.2679  2.8117 -0.0509
  285TIP3   OH222413   4.404   6.339   0.442 -0.4374 -0.1884  0.0680
  285TIP3    H122414   4.321   6.327   0.488  0.5147 -0.9567  1.6953
  285TIP3    H222415   4.413   6.261   0.388 -0.2691 -0.6657  0.7671
  286TIP3   OH222416   2.204   2.195   1.949 -0.4887 -0.3580  0.2197
  286TIP3    H122417   2.214   2.101   1.932  2.1244 -0.0377 -0.3461
  286TIP3    H222418   2.269   2.214   2.017 -1.4610  0.9399  0.8285
  287TIP3   OH222419   1.949   6.079   1.274  0.0547 -0.3722  0.2643
  287TIP3    H122420   1.990   6.108   1.355 -2.6887  0.2424  1.5666
  287TIP3    H222421   1.934   6.159   1.225  0.8513 -0.6454 -0.4412
  288TIP3   OH222422   5.989   5.295   0.917 -0.4590 -0.0519  0.5554
  288TIP3    H122423   6.066   5.330   0.962 -0.6505  0.0401  0.8105
  288TIP3    H222424   5.934   5.260   0.987  0.1239 -1.6581  0.2554
  289TIP3   OH222425   6.109   6.049   8.144  0.3719  0.0248  0.2870
  289TIP3    H122426   6.032   6.087   8.187  1.9142  0.8808  2.4883
  289TIP3    H222427   6.096   5.955   8.150 -0.0800  0.1420  1.5538
  290TIP3   OH222428   2.596   0.402   3.705 -0.9568 -0.0529  0.4098
  290TIP3    H122429   2.589   0.462   3.631 -1.1570 -0.7817 -0.1815
  290TIP3    H222430   2.562   0.452   3.779 -0.3069  0.8562  0.1166
  291TIP3   OH222431   5.314   1.252   1.385  0.0334 -0.3224  0.3754
  291TIP3    H122432   5.285   1.310   1.315  0.0225 -2.0128 -1.1030
  291TIP3    H222433   5.262   1.172   1.374  1.8339 -1.6122  0.6682
  292TIP3   OH222434   1.323   3.068   3.898  0.1563 -0.2200 -0.0054
  292TIP3    H122435   1.403   3.095   3.853  0.4320 -1.9747 -0.6399
  292TIP3    H222436   1.299   2.985   3.857 -1.5461 -0.1361  0.7366
  293TIP3   OH222437   4.562   2.290   0.135 -0.7347  0.2012  0.2065
  293TIP3    H122438   4.472   2.315   0.158 -0.5077  0.3485  0.9471
  293TIP3    H222439   4.604   2.273   0.219 -0.5564 -1.5652 -0.2141
  294TIP3   OH222440   2.151   5.570   2.793  0.1242  0.1713 -0.0922
  294TIP3    H122441   2.215   5.606   2.855 -0.7029  0.9642  0.3203
  294TIP3    H222442   2.123   5.646   2.741 -0.6709 -0.1218 -0.0957
  295TIP3   OH222443   0.433   3.898   1.174  0.1562  0.0133  0.1667
  295TIP3    H122444   0.444   3.922   1.082  0.7057 -0.1725  0.1784
  295TIP3    H222445   0.355   3.945   1.203 -0.8158 -0.9824 -0.7594
  296TIP3   OH222446   1.022   1.880   2.644 -0.1607  0.2913 -0.4018
  296TIP3    H122447   0.971   1.913   2.718  1.1874  1.0788  0.2357
  296TIP3    H222448   0.999   1.938   2.571 -3.2915 -1.9143 -1.3636
  297TIP3   OH222449   4.915   0.490   1.491 -0.3274  0.6075 -0.4659
  297TIP3    H122450   4.981   0.508   1.559 -0.2408  0.1814 -0.4367
  297TIP3    H222451   4.867   0.572   1.483 -0.5120  0.5837  0.3026
  298TIP3   OH222452   4.108   5.954   8.338  0.0573 -0.1732 -0.3815
  298TIP3    H122453   4.151   5.951   8.253 -1.4555 -0.5235 -1.1657
  298TIP3    H222454   4.145   5.879   8.386 -0.0219 -0.7593 -1.2109
  299TIP3   OH222455   5.784   0.222   2.019 -0.1987 -0.5688 -0.5614
  299TIP3    H122456   5.736   0.156   2.069 -1.4126  0.5785 -0.1771
  299TIP3    H222457   5.845   0.261   2.083 -0.4149 -0.4064 -0.4542
  300TIP3   OH222458   6.060   3.564   4.071 -0.0596  0.1070  0.4454
  300TIP3    H122459   6.101   3.488   4.110  0.6703  0.9710  1.3849
  300TIP3    H222460   6.062   3.546   3.977  2.8102  0.2573  0.3972
  301TIP3   OH222461   6.605   5.670   1.205  0.0665 -0.1858  0.2133
  301TIP3    H122462   6.671   5.645   1.270  1.8785  0.1994 -1.4058
  301TIP3    H222463   6.605   5.599   1.142  0.9062  1.0294 -1.2174
  302TIP3   OH222464   1.666   4.793   1.815 -0.1243  0.0353 -0.0839
  302TIP3    H122465   1.665   4.861   1.883  1.8240  1.8348 -1.7014
  302TIP3    H222466   1.650   4.841   1.734  1.8088 -1.3100 -1.3429
  303TIP3   OH222467   0.220   2.740   8.381 -0.4578  0.4359 -0.0559
  303TIP3    H122468   0.152   2.673   8.384  0.3984 -0.4643 -0.0913
  303TIP3    H222469   0.280   2.710   8.313  0.9449  0.2304  1.2181
  304TIP3   OH222470   4.055   1.315   0.803  0.2274 -0.1345  0.2879
  304TIP3    H122471   4.047   1.298   0.709 -1.9394 -0.0824  0.4111
  304TIP3    H222472   3.965   1.332   0.832  1.0290  1.3510  2.1026
  305TIP3   OH222473   5.679   5.448   1.727  0.6372  0.1406  0.2991
  305TIP3    H122474   5.649   5.428   1.816  1.0093  4.0970  1.5155
  305TIP3    H222475   5.774   5.457   1.735  0.7552 -0.1212 -0.6574
  306TIP3   OH222476   2.432   3.584   3.161 -0.0097 -0.9844 -0.0717
  306TIP3    H122477   2.392   3.670   3.146  2.7044  0.2389 -0.7979
  306TIP3    H222478   2.469   3.590   3.249 -1.4485 -2.1581  0.6520
  307TIP3   OH222479   3.128   4.943   0.363  0.0314 -0.3324 -0.2743
  307TIP3    H122480   3.153   5.002   0.435  2.0752  0.0651 -1.2396
  307TIP3    H222481   3.080   4.872   0.406 -1.7853  1.5691  1.0318
  308TIP3   OH222482   0.986   3.445   1.549  0.2133 -0.4004 -0.0755
  308TIP3    H122483   1.053   3.466   1.485  1.1029 -0.2943  0.8594
  308TIP3    H222484   0.993   3.350   1.560 -0.6573 -0.5682 -0.9008
  309TIP3   OH222485   5.204   0.031   0.741  0.4763 -0.4303 -0.2649
  309TIP3    H122486   5.239   0.070   0.821  0.4101 -1.6040  0.3412
  309TIP3    H222487   5.182   0.107   0.686 -1.1366  0.4543  1.5018
  310TIP3   OH222488   2.410   0.209   3.880  0.5013 -0.2282  0.2845
  310TIP3    H122489   2.328   0.217   3.831  0.5583  3.0922  0.4797
  310TIP3    H222490   2.478   0.230   3.816  0.9458 -0.0971  0.7926
  311TIP3   OH222491   1.644   0.010   1.447 -0.1336 -0.2407  0.5871
  311TIP3    H122492   1.736   0.026   1.426 -0.0849 -1.3922 -0.1645
  311TIP3    H222493   1.640   0.015   1.543  0.5476  0.6034  0.5771
  312TIP3   OH222494   0.318   3.287   0.455  0.4725  0.3375  0.4048
  312TIP3    H122495   0.283   3.309   0.368  0.4504 -0.3689  0.2310
  312TIP3    H222496   0.261   3.216   0.486  0.2550  0.8285  1.1523
  313TIP3   OH222497   4.698   1.661   2.615 -0.5072  0.2237 -0.3047
  313TIP3    H122498   4.731   1.698   2.697  1.2911  1.7998 -1.6695
  313TIP3    H222499   4.611   1.700   2.604 -0.1873  1.0712  0.1504
  314TIP3   OH222500   3.020   1.253   1.428  0.4234  0.0272 -0.0041
  314TIP3    H122501   3.003   1.198   1.352  0.2474  1.4752 -1.0665
  314TIP3    H222502   3.112   1.276   1.422 -0.0538  1.9092 -1.0770
  315TIP3   OH222503   1.404   2.401   8.508 -0.5014  0.1070 -0.0031
  315TIP3    H122504   1.400   2.319   8.459  0.4194 -0.0747  0.2198
  315TIP3    H222505   1.356   2.383   8.589 -0.7357 -0.0503 -0.1758
  316TIP3   OH222506   1.407   4.268   1.677  1.1811  0.0529 -0.5847
  316TIP3    H122507   1.444   4.193   1.723  1.3778 -0.4459 -1.5376
  316TIP3    H222508   1.481   4.310   1.635  1.2641  1.5310  0.9345
  317TIP3   OH222509   6.094   3.796   3.063  0.1100  0.0361  0.1725
  317TIP3    H122510   6.011   3.821   3.102  0.8010  0.5596  1.3773
  317TIP3    H222511   6.136   3.878   3.039  0.3048 -0.2220 -0.4142
  318TIP3   OH222512   6.731   1.080   1.775 -0.7495  0.3174  0.0440
  318TIP3    H122513   6.681   1.130   1.839 -0.4878  0.5682  0.0546
  318TIP3    H222514   6.817   1.066   1.817 -1.0036 -0.6360  0.2810
  319TIP3   OH222515   2.732   6.340   1.182 -0.3379 -0.1565 -0.4322
  319TIP3    H122516   2.787   6.406   1.224 -0.4271 -0.3333 -0.0273
  319TIP3    H222517   2.792   6.289   1.128 -0.1039 -0.3326 -0.0120
  320TIP3   OH222518   4.128   3.903   0.743 -0.1966 -0.2961 -0.2152
  320TIP3    H122519   4.178   3.826   0.767  2.4426  1.1382 -0.7189
  320TIP3    H222520   4.147   3.966   0.813 -0.1989  0.7290 -1.1141
  321TIP3   OH222521   5.646   4.711   1.803  0.6469  0.7098  0.7853
  321TIP3    H122522   5.589   4.787   1.802  0.1850  0.3868  1.5652
  321TIP3    H222523   5.692   4.716   1.887  1.4750  0.7585  0.3303
  322TIP3   OH222524   0.157   4.681   3.910 -0.1295 -0.1196  0.7423
  322TIP3    H122525   0.073   4.725   3.920 -1.6878 -2.8188  0.4758
  322TIP3    H222526   0.159   4.615   3.980  0.5591 -1.8142 -0.7868
  323TIP3   OH222527   1.322   4.670   2.520  0.2738  0.0966  0.1057
  323TIP3    H122528   1.287   4.696   2.436  2.5194  0.5177 -0.7771
  323TIP3    H222529   1.297   4.578   2.530  3.3238 -1.2868 -3.0420
  324TIP3   OH222530   1.636   5.609   0.174  0.1350  0.7573 -0.1849
  324TIP3    H122531   1.552   5.653   0.184  0.7842  1.6059  2.3109
  324TIP3    H222532   1.702   5.678   0.187  1.2123 -0.1303 -0.7089
  325TIP3   OH222533   1.371   5.707   0.251 -0.0200  0.2330  0.5793
  325TIP3    H122534   1.330   5.621   0.266  1.5517 -0.6912 -0.1616
  325TIP3    H222535   1.298   5.769   0.253 -1.2671 -1.1724  0.6398
  326TIP3   OH222536   5.356   4.696   8.540 -0.3336  0.0800 -0.0033
  326TIP3    H122537   5.377   4.611   8.500  1.1725  0.5597 -0.2833
  326TIP3    H222538   5.315   4.746   8.469 -2.1161 -0.7080  0.4224
  327TIP3   OH222539   0.168   0.497   8.362  0.3996 -0.1171  0.4092
  327TIP3    H122540   0.156   0.421   8.418  1.6483  0.3806  1.4182
  327TIP3    H222541   0.206   0.463   8.281 -1.7713 -0.8920 -0.3404
  328TIP3   OH222542   1.108   3.680   1.666  0.2027 -0.0482  0.3752
  328TIP3    H122543   1.201   3.668   1.647 -0.4127 -2.6280 -1.4560
  328TIP3    H222544   1.070   3.593   1.657 -2.8387  1.3256 -1.6250
  329TIP3   OH222545   2.572   3.490   2.121  0.9734  0.2334  0.2572
  329TIP3    H122546   2.545   3.490   2.213  1.9018 -0.6009  0.5414
  329TIP3    H222547   2.611   3.404   2.107  1.9155  0.7755 -0.5977
  330TIP3   OH222548   5.359   4.701   3.112 -0.1698  0.5536 -0.3832
  330TIP3    H122549   5.315   4.632   3.161  0.2268  0.6254  0.0808
  330TIP3    H222550   5.318   4.782   3.141 -0.0180  0.5871 -0.2640
  331TIP3   OH222551   0.848   1.502   2.493 -0.5215 -0.3651  0.3693
  331TIP3    H122552   0.904   1.541   2.560  2.2659 -1.4501 -1.1605
  331TIP3    H222553   0.834   1.573   2.430 -1.8810  0.2291  1.3086
  332TIP3   OH222554   4.430   4.561   0.828 -0.1787 -0.4902 -0.4859
  332TIP3    H122555   4.421   4.500   0.901 -1.5319  0.1233 -0.1211
  332TIP3    H222556   4.341   4.579   0.799  0.2966 -0.2861 -1.9461
  333TIP3   OH222557   2.776   0.520   2.443 -0.3425 -0.2082  0.0637
  333TIP3    H122558   2.747   0.504   2.532  0.2280  0.4875  0.3829
  333TIP3    H222559   2.781   0.615   2.435  1.9455 -0.2477  0.1116
  334TIP3   OH222560   6.145   4.485   1.452 -0.5423 -0.0995  0.0885
  334TIP3    H122561   6.199   4.406   1.457  1.3751  1.0300 -1.4192
  334TIP3    H222562   6.077   4.464   1.388 -0.8361 -0.9406  0.6659
  335TIP3   OH222563   5.234   4.378   0.345 -0.1219 -0.0177 -0.2810
  335TIP3    H122564   5.267   4.304   0.295  0.5171 -0.8802  1.3595
  335TIP3    H222565   5.298   4.447   0.331  1.7102 -1.2137  1.7035
  336TIP3   OH222566   0.498   4.070   3.598 -0.0607  0.1689 -0.5250
  336TIP3    H122567   0.427   4.038   3.542 -0.8597  0.8512  0.0688
  336TIP3    H222568   0.456   4.133   3.657  0.9548  0.2397  0.1570
  337TIP3   OH222569   0.937   2.038   1.917 -1.0630  0.0526 -0.2169
  337TIP3    H122570   0.931   1.943   1.919  0.1185 -0.0361  1.0721
  337TIP3    H222571   0.941   2.060   1.824 -2.4245 -1.0557 -0.5657
  338TIP3   OH222572   6.803   4.498   1.454  0.3438 -0.7249  0.4963
  338TIP3    H122573   6.784   4.515   1.547 -1.7119  3.3661 -0.4194
  338TIP3    H222574   6.819   4.585   1.417  0.8009 -2.1578 -3.0950
  339TIP3   OH222575   4.593   0.472   8.510  0.0916  0.2816 -0.2067
  339TIP3    H122576   4.545   0.551   8.487  0.4417  0.3111 -0.8629
  339TIP3    H222577   4.556   0.404   8.453  0.6368  0.2507 -0.5346
  340TIP3   OH222578   5.180   5.157   2.390  0.2673 -0.6197 -0.0337
  340TIP3    H122579   5.260   5.109   2.414 -0.3757 -1.5179  0.3902
  340TIP3    H222580   5.131   5.163   2.472  0.2062  0.5465 -0.1433
  341TIP3   OH222581   0.740   1.955   0.180  0.6130 -0.7766 -0.0914
  341TIP3    H122582   0.791   1.925   0.105 -1.8909 -0.7518 -1.9467
  341TIP3    H222583   0.702   1.875   0.217 -0.1417 -0.5877 -0.4333
  342TIP3   OH222584   3.899   3.409   1.774 -0.1018 -0.2051  0.1662
  342TIP3    H122585   3.865   3.355   1.845 -0.0008  0.1238  0.4629
  342TIP3    H222586   3.947   3.479   1.817 -0.0043 -0.0272 -0.2263
  343TIP3   OH222587   1.905   0.819   3.003  0.0292 -0.4093  0.1001
  343TIP3    H122588   1.891   0.878   2.929  1.2144 -0.7000 -0.3789
  343TIP3    H222589   1.898   0.876   3.080 -1.3967 -0.1342 -0.1887
  344TIP3   OH222590   3.448   4.993   2.717 -0.5956 -0.5402  0.5598
  344TIP3    H122591   3.371   4.943   2.745  0.2531 -1.6861  0.9695
  344TIP3    H222592   3.520   4.952   2.764  0.4921 -0.5912 -1.0743
  345TIP3   OH222593   1.384   4.301   8.238 -0.4209 -0.0644  0.7005
  345TIP3    H122594   1.297   4.293   8.198  0.3788  1.4329 -1.5799
  345TIP3    H222595   1.397   4.396   8.248  1.7245 -0.0892 -1.0553
  346TIP3   OH222596   5.357   1.571   1.393  0.2079 -0.0408 -0.3689
  346TIP3    H122597   5.452   1.561   1.385  0.6161  1.5693  1.6007
  346TIP3    H222598   5.329   1.608   1.309  1.4883  0.4548 -0.5958
  347TIP3   OH222599   0.704   2.393   0.420 -0.3001 -0.5053  0.9744
  347TIP3    H122600   0.695   2.389   0.515  0.1903 -1.5738  0.9931
  347TIP3    H222601   0.796   2.370   0.404 -0.5765 -1.1047  0.2072
  348TIP3   OH222602   0.866   1.985   7.255 -0.6019  0.1907  0.1460
  348TIP3    H122603   0.868   2.018   7.165  0.1203  0.1999  0.1577
  348TIP3    H222604   0.802   2.040   7.299 -1.5040 -0.2852 -0.5356
  349TIP3   OH222605   2.206   5.096   2.454  0.0010 -0.0342 -0.2519
  349TIP3    H122606   2.241   5.058   2.373  0.5332 -1.2371  0.5100
  349TIP3    H222607   2.114   5.116   2.433 -0.4361 -2.1390 -0.6241
  350TIP3   OH222608   2.098   2.837   0.688  0.0313 -0.5280  0.1342
  350TIP3    H122609   2.179   2.877   0.658 -0.9239  0.0759 -1.8363
  350TIP3    H222610   2.121   2.746   0.708  1.5199  0.0820  1.3478
  351TIP3   OH222611   6.092   2.301   2.546 -0.3888 -0.3471 -0.0758
  351TIP3    H122612   6.052   2.214   2.544  0.3602 -0.6960 -1.0357
  351TIP3    H222613   6.047   2.347   2.616  0.6282 -2.2046  1.9313
  352TIP3   OH222614   2.334   6.485   0.741  0.2707  0.6639  0.1781
  352TIP3    H122615   2.360   6.566   0.785  0.2076  1.2541 -0.8346
  352TIP3    H222616   2.346   6.504   0.648 -1.7269  0.2332 -0.2069
  353TIP3   OH222617   4.340   1.741   0.356 -0.1864 -0.2051  0.1155
  353TIP3    H122618   4.372   1.682   0.288  2.5012  0.5980  0.5434
  353TIP3    H222619   4.258   1.702   0.385  0.8030 -3.0013 -0.5066
  354TIP3   OH222620   5.195   2.016   2.269  0.3933  0.0019 -0.3700
  354TIP3    H122621   5.182   2.007   2.363  0.3347 -1.3056 -0.4879
  354TIP3    H222622   5.288   1.995   2.256  0.7593  1.5535 -0.4574
  355TIP3   OH222623   1.688   2.019   0.030  0.0189 -0.4308 -0.6259
  355TIP3    H122624   1.773   2.031   0.072 -0.9276  0.6192  1.0652
  355TIP3    H222625   1.689   2.082  -0.042  0.8801 -0.8399 -0.9920
  356TIP3   OH222626   2.933   2.089   2.585  0.5213 -0.1408 -0.2693
  356TIP3    H122627   2.901   2.178   2.569 -0.2163 -0.7856 -2.6881
  356TIP3    H222628   2.855   2.039   2.609  0.7296 -0.4404 -0.2161
  357TIP3   OH222629   5.697   0.057   1.541 -0.3209 -0.0612 -0.6372
  357TIP3    H122630   5.602   0.057   1.549 -0.2841  1.7307  0.2776
  357TIP3    H222631   5.727  -0.002   1.610 -0.7751 -2.7310 -2.5449
  358TIP3   OH222632   2.793   1.564   2.254  0.8606  0.0865  0.7673
  358TIP3    H122633   2.847   1.523   2.185  1.3336  0.1399  1.1027
  358TIP3    H222634   2.704   1.533   2.236  1.3693 -2.0951  1.7341
  359TIP3   OH222635   0.754   2.691   0.608 -0.3362 -0.1709  0.3123
  359TIP3    H122636   0.738   2.785   0.620  1.2336  0.0138  1.2691
  359TIP3    H222637   0.686   2.648   0.659 -1.8213  0.4023 -1.1226
  360TIP3   OH222638   4.892   6.490   0.927 -0.0450 -0.4701 -0.3433
  360TIP3    H122639   4.800   6.467   0.915 -0.6688  1.4803  0.1643
  360TIP3    H222640   4.910   6.555   0.859  0.8953 -0.6913 -0.3179
  361TIP3   OH222641   5.329   0.670   3.378  0.1350 -0.4312 -0.1411
  361TIP3    H122642   5.257   0.667   3.314  0.5276  0.0836 -0.6148
  361TIP3    H222643   5.384   0.742   3.348 -0.4162  0.7605  1.5981
  362TIP3   OH222644   2.847   4.281   4.039 -0.2343  0.3164  0.4174
  362TIP3    H122645   2.921   4.299   3.981 -0.3942 -0.6599 -0.1083
  362TIP3    H222646   2.882   4.297   4.127 -0.1920  2.4838  0.0613
  363TIP3   OH222647   5.421   5.471   1.549  0.1811  0.3284  0.2034
  363TIP3    H122648   5.448   5.418   1.474 -2.3300  0.0378 -0.5875
  363TIP3    H222649   5.494   5.464   1.610  1.2657 -1.4846 -1.1749
  364TIP3   OH222650   6.597   4.542   2.559 -0.3728  0.4346 -0.3693
  364TIP3    H122651   6.610   4.451   2.532  1.4999  0.3474  0.6662
  364TIP3    H222652   6.685   4.578   2.566 -1.0848  2.4857 -1.1530
  365TIP3   OH222653   1.320   6.696   3.624 -0.1613  0.6395 -0.3533
  365TIP3    H122654   1.276   6.722   3.706  1.5339  1.2998  0.3841
  365TIP3    H222655   1.334   6.602   3.634 -0.2266  0.6616 -0.0136
  366TIP3   OH222656   4.090   3.588   1.861 -0.3380 -0.0038  0.0036
  366TIP3    H122657   4.152   3.647   1.818  0.8959 -1.4818 -0.3418
  366TIP3    H222658   4.117   3.588   1.953 -0.3820  0.0492  0.0159
  367TIP3   OH222659   6.261   3.725   8.634  0.3614  0.1365  0.0110
  367TIP3    H122660   6.246   3.816   8.608 -0.1522 -0.0050 -0.2150
  367TIP3    H222661   6.316   3.730   8.712  0.2943  0.6428  0.0263
  368TIP3   OH222662   5.060   4.163   0.513  0.0525 -0.3157  0.0176
  368TIP3    H122663   4.980   4.113   0.532  1.4808 -2.6449  0.3930
  368TIP3    H222664   5.112   4.105   0.458  1.0396  1.6109 -1.1829
  369TIP3   OH222665   0.081   4.698   1.810 -0.2817 -0.0489  0.2123
  369TIP3    H122666   0.166   4.710   1.852 -0.9428 -1.4473  2.0666
  369TIP3    H222667   0.026   4.768   1.844  0.3217  1.4966 -1.7762
  370TIP3   OH222668   2.777   3.795   8.585 -0.3315  0.3070 -0.0013
  370TIP3    H122669   2.741   3.801   8.496  0.1400  0.9033 -0.1564
  370TIP3    H222670   2.708   3.751   8.635 -1.1615  1.1709 -0.3624
  371TIP3   OH222671   5.816   5.344   1.340 -0.1814  0.2089 -0.7300
  371TIP3    H122672   5.830   5.314   1.250  0.7867 -1.1391 -0.1588
  371TIP3    H222673   5.872   5.421   1.348  2.9346 -1.9306 -0.1732
  372TIP3   OH222674   0.666   2.055   3.804 -0.3054  0.7224 -0.5870
  372TIP3    H122675   0.637   2.086   3.890 -0.4153  1.0694 -0.7461
  372TIP3    H222676   0.719   2.127   3.769  0.2213  0.3518 -0.5694
  373TIP3   OH222677   3.990   3.026   1.765  0.3025  0.0931  0.0036
  373TIP3    H122678   3.937   3.053   1.689 -0.0621 -0.6628 -0.0292
  373TIP3    H222679   3.943   3.062   1.840  0.8611  1.1549 -0.1358
  374TIP3   OH222680   4.423   3.093   3.028 -0.2189 -0.0294 -0.1318
  374TIP3    H122681   4.445   3.181   3.060  2.3267 -0.6896  0.1579
  374TIP3    H222682   4.352   3.064   3.086  2.2803 -0.0679  3.2176
  375TIP3   OH222683   1.617   4.888   2.482  0.0513 -0.8461  0.1525
  375TIP3    H122684   1.688   4.840   2.439  0.4603 -0.7475  0.6979
  375TIP3    H222685   1.658   4.970   2.511 -0.7134 -0.0254 -1.0374
  376TIP3   OH222686   5.227   6.003   3.405 -0.3787  0.5728 -0.9105
  376TIP3    H122687   5.266   5.931   3.455  0.3264  0.4280 -1.6324
  376TIP3    H222688   5.135   5.979   3.395 -0.3819  0.2879 -0.2577
  377TIP3   OH222689   0.527   0.938   1.513  0.4538 -0.2039  0.1766
  377TIP3    H122690   0.561   0.985   1.437 -0.0834 -2.6974 -1.7805
  377TIP3    H222691   0.433   0.958   1.513  0.8963  2.3668  2.2767
  378TIP3   OH222692   5.991   3.351   1.653 -0.0406  0.4119  0.5233
  378TIP3    H122693   5.928   3.424   1.654 -1.3575 -0.6607  2.3301
  378TIP3    H222694   5.944   3.280   1.609  1.2886  0.6285 -1.3666
  379TIP3   OH222695   2.888   5.240   2.779 -0.1471  0.1883 -0.4485
  379TIP3    H122696   2.878   5.272   2.869 -1.4526  0.6298 -0.7149
  379TIP3    H222697   2.977   5.263   2.754 -0.7212  2.9037 -0.3092
  380TIP3   OH222698   6.546   1.639   0.290 -0.1289  0.2354  0.6341
  380TIP3    H122699   6.618   1.577   0.285 -0.2479 -0.0203  1.6918
  380TIP3    H222700   6.516   1.633   0.381 -0.7770  1.1279  0.4954
  381TIP3   OH222701   6.138   1.179   1.608  0.1306  0.0945  0.3637
  381TIP3    H122702   6.181   1.264   1.593  1.6151 -0.3686  1.7304
  381TIP3    H222703   6.064   1.179   1.547  0.1102  2.3519  0.2891
  382TIP3   OH222704   1.980   1.486   0.744  0.3171  0.5493 -0.0639
  382TIP3    H122705   1.998   1.451   0.657 -2.6265  2.5612 -1.6684
  382TIP3    H222706   1.984   1.581   0.733 -1.1328  0.8791  1.7304
  383TIP3   OH222707   6.058   3.546   8.569  0.4232 -0.5376 -0.0120
  383TIP3    H122708   6.067   3.545   8.473  0.9028 -0.1652  0.0262
  383TIP3    H222709   6.129   3.603   8.599 -0.2215 -0.0144  0.5224
  384TIP3   OH222710   5.634   1.061   0.950  0.3778 -0.5379  0.7248
  384TIP3    H122711   5.702   1.083   0.886 -0.8546  1.0737 -0.0869
  384TIP3    H222712   5.657   1.111   1.028 -0.8963  1.6264 -0.2060
  385TIP3   OH222713   3.356   0.504   2.396  0.2617 -0.2111 -0.4053
  385TIP3    H122714   3.361   0.410   2.410 -0.1659 -0.1982 -0.1654
  385TIP3    H222715   3.290   0.535   2.458  2.6616  0.7160  1.8845
  386TIP3   OH222716   5.206   6.286   3.503 -0.3929  0.0394 -0.7816
  386TIP3    H122717   5.111   6.274   3.509 -0.2590 -0.7191 -0.0282
  386TIP3    H222718   5.234   6.220   3.439 -0.2601 -0.4522 -0.2336
  387TIP3   OH222719   2.796   1.827   2.928 -0.7699  0.2599 -0.0290
  387TIP3    H122720   2.811   1.751   2.985 -0.4905 -0.2044 -0.7109
  387TIP3    H222721   2.839   1.900   2.973 -0.4264 -0.1259  0.2761
  388TIP3   OH222722   2.501   3.429   4.065  0.1323  0.3814  0.0898
  388TIP3    H122723   2.435   3.400   4.002 -0.2987 -2.3673  1.6390
  388TIP3    H222724   2.585   3.412   4.021 -0.1683 -0.0945 -0.3160
  389TIP3   OH222725   4.027   4.882   2.254  0.0434 -0.0475  0.1299
  389TIP3    H122726   4.014   4.809   2.314  3.0340 -2.1979 -1.5913
  389TIP3    H222727   4.057   4.954   2.309 -0.8728 -0.7537  1.5974
  390TIP3   OH222728   4.615   3.040   2.141  0.0471 -0.2197 -0.1707
  390TIP3    H122729   4.637   3.023   2.050  0.1708 -0.1707 -0.1493
  390TIP3    H222730   4.621   2.955   2.184  2.9498  0.2161  0.4361
  391TIP3   OH222731   2.402   3.644   8.589 -0.2666 -0.6804 -0.0013
  391TIP3    H122732   2.327   3.615   8.537 -1.6194  0.9837  0.8645
  391TIP3    H222733   2.386   3.608   8.676 -0.1215 -0.2764  0.1986
  392TIP3   OH222734   4.191   2.345   1.643 -0.0773  0.4556 -0.4382
  392TIP3    H122735   4.100   2.318   1.633  0.1574 -1.4681  1.7303
  392TIP3    H222736   4.196   2.431   1.601 -3.4782  1.7068  1.3254
  393TIP3   OH222737   3.306   6.727   0.975  0.0182  0.3020 -0.5900
  393TIP3    H122738   3.325   6.651   1.031  0.2805 -0.2151 -1.3588
  393TIP3    H222739   3.234   6.771   1.019  0.9253  0.5342  0.7372
  394TIP3   OH222740   6.013   4.445   8.053  0.0635  0.0603 -0.5887
  394TIP3    H122741   5.940   4.466   7.994 -0.2270 -0.1469 -0.3050
  394TIP3    H222742   6.059   4.374   8.009  0.4492  0.5947 -1.0590
  395TIP3   OH222743   2.169   0.362   2.969 -0.8649 -0.0540  0.1137
  395TIP3    H122744   2.159   0.418   3.046  0.2847 -0.3953  0.5366
  395TIP3    H222745   2.242   0.400   2.920 -1.6830  0.2445 -0.9038
  396TIP3   OH222746   4.811   2.456   1.311 -0.2323 -0.2811  0.2949
  396TIP3    H122747   4.824   2.432   1.403 -0.2612 -0.3879  0.2719
  396TIP3    H222748   4.765   2.381   1.274 -1.7221  0.4529  0.5826
  397TIP3   OH222749   4.398   0.514   0.259 -0.3707 -0.4944  0.1050
  397TIP3    H122750   4.330   0.512   0.191 -0.4986 -2.0931  0.2314
  397TIP3    H222751   4.464   0.452   0.227  0.2417 -0.1814  0.7623
  398TIP3   OH222752   3.859   0.317   1.909 -0.3685  0.3174 -0.0994
  398TIP3    H122753   3.799   0.246   1.884 -0.3111  0.6862 -1.3817
  398TIP3    H222754   3.940   0.297   1.861  0.0068  0.6792  0.3704
  399TIP3   OH222755   3.144   2.553   2.233 -0.3390  0.4786 -0.1681
  399TIP3    H122756   3.239   2.549   2.241 -0.4363  0.3747  1.2512
  399TIP3    H222757   3.114   2.464   2.251 -0.7829  0.8626  1.1103
  400TIP3   OH222758   4.820   3.984   1.876  0.0467  0.0098 -0.0262
  400TIP3    H122759   4.760   4.005   1.948  1.8197  0.1537  1.4836
  400TIP3    H222760   4.814   3.888   1.868  0.0470 -0.0411  0.5197
  401TIP3   OH222761   0.310   6.135   2.987  0.3332  0.0351 -0.5545
  401TIP3    H122762   0.391   6.122   2.937  0.3542  0.5667 -0.6631
  401TIP3    H222763   0.259   6.197   2.935 -1.0133 -1.7562 -1.4844
  402TIP3   OH222764   3.147   0.997   1.792 -0.3085 -0.3674 -0.1901
  402TIP3    H122765   3.161   1.091   1.805  0.0951 -0.6759  1.9171
  402TIP3    H222766   3.217   0.955   1.840 -0.5966 -1.7863 -0.9384
  403TIP3   OH222767   6.292   5.691   2.193 -0.1010 -0.0446 -0.7719
  403TIP3    H122768   6.368   5.708   2.138 -0.9281 -0.0614 -1.9575
  403TIP3    H222769   6.282   5.596   2.190  1.7529 -0.4322  2.0725
  404TIP3   OH222770   5.468   0.510   1.805  0.8986  0.3238 -0.4433
  404TIP3    H122771   5.412   0.567   1.858 -0.3503 -0.6537 -0.6756
  404TIP3    H222772   5.445   0.421   1.833  2.0173 -0.1148 -0.8741
  405TIP3   OH222773   4.660   1.305   0.941  0.5509 -0.7256  0.3013
  405TIP3    H122774   4.668   1.329   1.033  1.6323 -2.7377  0.8005
  405TIP3    H222775   4.680   1.212   0.939  0.5796 -0.7270 -1.9946
  406TIP3   OH222776   1.404   2.439   1.426 -0.5275  0.0433 -0.2570
  406TIP3    H122777   1.309   2.437   1.437 -0.5052 -1.8412 -0.1782
  406TIP3    H222778   1.416   2.480   1.340 -1.3240  1.4674  0.2680
  407TIP3   OH222779   3.362   6.465   1.919 -0.1106  0.1319 -0.5506
  407TIP3    H122780   3.353   6.391   1.980  0.7303 -0.0588 -0.6496
  407TIP3    H222781   3.364   6.542   1.975  2.0882 -0.1346 -0.1973
  408TIP3   OH222782   2.825   5.846   2.304  0.0464 -1.1950 -0.4773
  408TIP3    H122783   2.750   5.815   2.355  0.5437 -1.2053  0.2695
  408TIP3    H222784   2.826   5.791   2.226 -1.8882  0.0997 -1.4829
  409TIP3   OH222785   6.320   6.096   1.457  0.2689 -0.4815  0.0089
  409TIP3    H122786   6.395   6.038   1.444 -0.7551 -1.9020  0.2346
  409TIP3    H222787   6.261   6.074   1.386 -0.5756 -0.4312  0.6877
  410TIP3   OH222788   3.905   1.867   2.852 -0.3357  0.0014 -0.1901
  410TIP3    H122789   3.921   1.929   2.923  0.0079  0.9499 -1.0593
  410TIP3    H222790   3.883   1.923   2.777 -2.6079 -1.0310 -0.3722
  411TIP3   OH222791   2.136   5.557   3.891 -0.0906 -0.2372 -0.6551
  411TIP3    H122792   2.083   5.633   3.914 -1.6732 -1.3728 -0.3635
  411TIP3    H222793   2.074   5.483   3.892  1.8767 -2.0335  1.9325
  412TIP3   OH222794   3.288   3.907   8.264 -0.4219  0.1586 -0.0324
  412TIP3    H122795   3.235   3.907   8.343  0.0611 -1.6096  0.3391
  412TIP3    H222796   3.358   3.844   8.282  0.5457  0.8212 -1.3185
  413TIP3   OH222797   4.479   1.799   2.629  0.3673 -0.0265  0.2391
  413TIP3    H122798   4.492   1.866   2.561  0.8483 -1.9145 -1.6533
  413TIP3    H222799   4.416   1.838   2.690  3.1522  3.4408  1.1678
  414TIP3   OH222800   4.045   6.266   8.186 -0.1747  0.4452  0.1378
  414TIP3    H122801   3.957   6.230   8.194  0.5415 -1.1292  1.2639
  414TIP3    H222802   4.087   6.214   8.118 -0.2460  1.5445 -0.7851
  415TIP3   OH222803   2.396   0.037   4.104 -0.8826 -0.2920  0.3159
  415TIP3    H122804   2.330  -0.032   4.100 -1.3594  0.1410  0.4988
  415TIP3    H222805   2.377   0.092   4.028  0.8580 -1.5398 -1.0974
  416TIP3   OH222806   2.254   6.047   2.554  0.1350 -0.0326  0.4082
  416TIP3    H122807   2.213   6.070   2.637  1.0607 -0.7992  1.0973
  416TIP3    H222808   2.180   6.033   2.494 -0.6586 -1.6354  1.6841
  417TIP3   OH222809   4.238   3.901   7.413  0.4327  0.0152 -0.2863
  417TIP3    H122810   4.211   3.992   7.403  1.4959  0.4071  0.1994
  417TIP3    H222811   4.171   3.862   7.470 -0.4715  0.2611 -1.1660
  418TIP3   OH222812   4.603   5.308   1.797 -0.3532 -0.2706 -0.2783
  418TIP3    H122813   4.534   5.305   1.863 -0.1916  0.3367 -0.0824
  418TIP3    H222814   4.683   5.329   1.845 -0.2490  0.2605 -0.6711
  419TIP3   OH222815   3.689   2.007   2.300 -0.4104  1.0119 -0.5290
  419TIP3    H122816   3.696   2.079   2.363 -0.6392  0.6939 -0.1399
  419TIP3    H222817   3.601   1.971   2.314 -1.5310  2.6097 -2.8248
  420TIP3   OH222818   5.259   2.486   0.190  0.0318 -0.4896  0.2376
  420TIP3    H122819   5.183   2.518   0.239 -0.3059 -0.4234 -0.3220
  420TIP3    H222820   5.294   2.564   0.147 -0.7706 -0.8175 -1.1019
  421TIP3   OH222821   6.220   4.718   1.628 -0.0655 -0.5903 -0.2067
  421TIP3    H122822   6.166   4.671   1.564 -0.3648  0.8935 -1.0892
  421TIP3    H222823   6.282   4.769   1.575 -0.0284  0.3315  0.6880
  422TIP3   OH222824   0.205   6.230   1.186  0.3888 -0.5782  0.3561
  422TIP3    H122825   0.267   6.279   1.240 -1.0733  0.0257  1.5734
  422TIP3    H222826   0.129   6.288   1.178 -0.6692 -1.9212  0.2972
  423TIP3   OH222827   2.291   1.099   0.049  0.1239  0.1127 -0.4791
  423TIP3    H122828   2.270   1.187   0.080  0.7811  0.8196 -1.9404
  423TIP3    H222829   2.224   1.079  -0.016  0.4716 -0.0983 -0.7797
  424TIP3   OH222830   0.053   6.748   0.345  0.3446  0.1076 -0.2416
  424TIP3    H122831   0.135   6.721   0.386 -0.6055 -1.1556  0.9224
  424TIP3    H222832   0.076   6.825   0.294  2.5214 -0.9599 -1.0126
  425TIP3   OH222833   2.460   6.762   3.044  0.0989  0.0588 -0.3577
  425TIP3    H122834   2.536   6.812   3.015  0.5580 -0.1744  0.4124
  425TIP3    H222835   2.389   6.826   3.052 -0.4041 -0.0403 -3.1404
  426TIP3   OH222836   3.585   6.238   1.908  0.1495  0.0595 -0.1455
  426TIP3    H122837   3.621   6.232   1.996 -0.4342  1.2285  0.1821
  426TIP3    H222838   3.491   6.220   1.919 -0.0638  0.9829 -0.4067
  427TIP3   OH222839   3.457   1.346   0.161  0.3598  0.3107 -0.4385
  427TIP3    H122840   3.532   1.405   0.165  0.7494 -0.2226  1.2383
  427TIP3    H222841   3.392   1.387   0.219  0.6659 -0.9056  0.8056
  428TIP3   OH222842   1.861   0.580   2.874 -0.7486 -0.0669  0.5189
  428TIP3    H122843   1.873   0.640   2.947  1.1818  0.0064  0.1936
  428TIP3    H222844   1.818   0.503   2.913 -0.8381  0.4510  1.4751
  429TIP3   OH222845   1.038   0.673   2.741 -0.1290  0.4207 -0.2262
  429TIP3    H122846   0.952   0.711   2.724  0.7747  1.8377 -1.8873
  429TIP3    H222847   1.031   0.582   2.711 -1.4762  0.0248  1.1489
  430TIP3   OH222848   5.163   5.982   8.243  0.3209  0.5287  0.4550
  430TIP3    H122849   5.133   5.895   8.214 -1.7478  1.3222  0.0187
  430TIP3    H222850   5.239   6.000   8.189 -0.7316  0.0163 -1.2762
  431TIP3   OH222851   0.627   4.834   2.893  0.3867  0.1966  0.3467
  431TIP3    H122852   0.620   4.880   2.976 -0.6546  0.2380  0.2440
  431TIP3    H222853   0.635   4.903   2.827  2.4847  0.1581  0.4825
  432TIP3   OH222854   4.883   3.047   7.691 -0.4612  0.6098 -0.2036
  432TIP3    H122855   4.905   3.002   7.610 -0.3094 -2.3296  1.3500
  432TIP3    H222856   4.795   3.081   7.676 -0.7778 -0.6341 -1.3455
  433TIP3   OH222857   3.372   6.504   0.745  0.6440  0.7494 -0.0096
  433TIP3    H122858   3.293   6.450   0.749  1.8409 -1.0258  0.9128
  433TIP3    H222859   3.424   6.477   0.821  1.6780  2.6463  0.0209
  434TIP3   OH222860   4.368   0.905   1.896 -0.1431 -0.0099  0.2730
  434TIP3    H122861   4.350   0.811   1.889  1.2352 -0.2997  0.1618
  434TIP3    H222862   4.350   0.927   1.987 -0.5740 -0.3583  0.2743
  435TIP3   OH222863   6.243   6.637   8.413  0.0167  0.1368  0.1368
  435TIP3    H122864   6.185   6.612   8.484 -0.9076 -0.8907 -0.9362
  435TIP3    H222865   6.260   6.730   8.427 -2.0177  0.5065  0.4018
  436TIP3   OH222866   4.055   6.224   2.258 -0.4417  0.0524 -0.3732
  436TIP3    H122867   3.997   6.249   2.330 -1.2231  3.6665 -2.0595
  436TIP3    H222868   4.143   6.240   2.291 -0.6902 -0.0443  0.3455
  437TIP3   OH222869   0.474   2.082   3.367  0.0934 -0.4456  0.5253
  437TIP3    H122870   0.488   2.172   3.397  0.8613 -0.7618  1.1684
  437TIP3    H222871   0.493   2.085   3.274 -0.3857  0.1622  0.4433
  438TIP3   OH222872   6.589   3.389   8.284  0.1514  0.1222 -0.1113
  438TIP3    H122873   6.641   3.392   8.204 -0.0662  0.8970 -0.2274
  438TIP3    H222874   6.655   3.390   8.355  0.3127  0.7330 -0.2631
  439TIP3   OH222875   5.319   2.637   0.563 -0.4127 -0.5825  0.0359
  439TIP3    H122876   5.414   2.628   0.555 -0.3694 -0.8829  0.7859
  439TIP3    H222877   5.286   2.550   0.541 -0.6596  0.0081 -2.0982
  440TIP3   OH222878   0.217   4.117   0.561 -0.3319  0.2930 -0.0646
  440TIP3    H122879   0.122   4.119   0.557 -0.4091  0.1661  1.1960
  440TIP3    H222880   0.244   4.207   0.542 -0.8125  0.7389  1.2666
  441TIP3   OH222881   6.207   6.532   1.118  0.9083  0.2923 -0.1785
  441TIP3    H122882   6.129   6.575   1.081 -0.3619 -1.9920 -0.3589
  441TIP3    H222883   6.272   6.536   1.048  0.2909  0.5488 -0.7499
  442TIP3   OH222884   5.431   0.052   1.569 -1.0789  0.3790 -0.6403
  442TIP3    H122885   5.385   0.130   1.539 -0.8209  0.1995 -1.5360
  442TIP3    H222886   5.379  -0.021   1.534 -1.2017  0.1496  0.0080
  443TIP3   OH222887   3.666   5.852   3.561  0.3682 -0.5786 -0.1307
  443TIP3    H122888   3.637   5.795   3.490  0.8911  0.9920 -1.6549
  443TIP3    H222889   3.751   5.886   3.532 -0.2567  1.5564  0.3765
  444TIP3   OH222890   1.186   3.876   8.566 -0.2701  0.3566  0.2001
  444TIP3    H122891   1.102   3.845   8.531  0.1680  0.2255 -0.7752
  444TIP3    H222892   1.218   3.937   8.500  1.0444 -0.6424 -0.1085
  445TIP3   OH222893   1.468   2.173   0.135 -0.6623  0.0492 -0.4497
  445TIP3    H122894   1.556   2.137   0.146  0.7352  2.3201 -2.9413
  445TIP3    H222895   1.419   2.102   0.093  0.3686 -0.7833 -0.2967
  446TIP3   OH222896   0.238   4.876   2.270 -0.0919 -0.7165 -0.1569
  446TIP3    H122897   0.199   4.803   2.223 -0.0881 -1.9858  1.6957
  446TIP3    H222898   0.183   4.887   2.348  0.4147  0.6926  0.0377
  447TIP3   OH222899   2.440   6.496   2.114 -0.2475 -0.2281 -0.6705
  447TIP3    H122900   2.507   6.429   2.101 -1.4579 -1.5739 -0.2738
  447TIP3    H222901   2.453   6.526   2.204  2.0885  2.2088 -1.6790
  448TIP3   OH222902   1.399   4.197   0.221  0.1979 -0.0008  0.4471
  448TIP3    H122903   1.385   4.166   0.132 -0.3642  1.2182  0.0896
  448TIP3    H222904   1.312   4.226   0.250  0.7122  1.3541  0.6957
  449TIP3   OH222905   1.931   1.532   3.185  0.0036  0.2447 -0.4446
  449TIP3    H122906   1.915   1.554   3.277 -1.1617  0.4840 -0.6846
  449TIP3    H222907   2.002   1.468   3.187  2.8971  3.2276  0.3636
  450TIP3   OH222908   0.475   1.895   8.409  0.0829  0.0804 -0.0100
  450TIP3    H122909   0.491   1.855   8.324 -2.7082  0.6365 -0.8793
  450TIP3    H222910   0.508   1.984   8.401 -0.3111  0.1765 -0.5834
  451TIP3   OH222911   5.429   0.826   2.509  0.0006 -0.2089 -0.5717
  451TIP3    H122912   5.360   0.813   2.444  1.0084 -1.0943 -1.5062
  451TIP3    H222913   5.510   0.817   2.460  0.7951  0.8591  0.4962
  452TIP3   OH222914   4.317   1.035   0.433 -0.2927  0.1183  0.0489
  452TIP3    H122915   4.358   0.969   0.377  0.2254  0.2160  0.3100
  452TIP3    H222916   4.227   1.004   0.445  0.2414 -1.1468  1.0845
  453TIP3   OH222917   3.119   3.481   2.411  0.0999 -0.0531  0.3286
  453TIP3    H122918   3.029   3.477   2.442 -0.4336  1.0698 -0.9966
  453TIP3    H222919   3.134   3.397   2.367  0.2379 -0.8691  1.8697
  454TIP3   OH222920   1.856   4.174   2.809  0.1473  0.1905  0.5490
  454TIP3    H122921   1.783   4.122   2.842 -1.2227  0.7370 -1.3761
  454TIP3    H222922   1.817   4.226   2.738  2.4748  0.3072 -0.7448
  455TIP3   OH222923   0.544   0.722   3.554  0.4979  0.1904  0.0705
  455TIP3    H122924   0.596   0.685   3.483  1.1716  0.9970  0.1246
  455TIP3    H222925   0.607   0.768   3.609 -0.1000  0.0697  0.8757
  456TIP3   OH222926   5.324   4.637   1.335 -0.0484  0.1788 -0.0466
  456TIP3    H122927   5.289   4.725   1.345  0.1559  0.1328  1.1812
  456TIP3    H222928   5.407   4.637   1.384 -0.8153 -1.1232  1.3430
  457TIP3   OH222929   1.618   6.586   3.519 -0.5511  0.5021  0.4503
  457TIP3    H122930   1.534   6.543   3.502 -0.1875  0.5851 -1.8261
  457TIP3    H222931   1.601   6.640   3.597 -1.8637 -1.3809  1.5448
  458TIP3   OH222932   0.097   6.065   3.522 -0.4588  0.4731 -0.1602
  458TIP3    H122933   0.044   6.144   3.518 -0.9853  0.2779  1.7948
  458TIP3    H222934   0.034   5.994   3.529  0.0276 -0.0276 -0.7286
  459TIP3   OH222935   4.413   1.813   7.890  0.1765 -0.6560  0.5700
  459TIP3    H122936   4.459   1.815   7.806  0.5724 -0.5378  0.7887
  459TIP3    H222937   4.330   1.769   7.871 -0.0046 -0.0744 -0.0125
  460TIP3   OH222938   6.183   4.498   3.180  0.3431 -0.1244 -0.8165
  460TIP3    H122939   6.106   4.441   3.170  1.6045 -2.2433  0.6724
  460TIP3    H222940   6.243   4.468   3.112  0.4021  0.5525 -1.0629
  461TIP3   OH222941   0.931   3.496   0.595 -0.0404 -0.1281 -0.6146
  461TIP3    H122942   1.003   3.530   0.648 -0.8165  1.5779 -0.5709
  461TIP3    H222943   0.911   3.411   0.633  0.8599  0.0996  0.4274
  462TIP3   OH222944   4.755   4.902   2.597  0.8237  0.4335 -0.2398
  462TIP3    H122945   4.801   4.832   2.642  1.5595  0.4207 -0.9872
  462TIP3    H222946   4.781   4.982   2.643  0.5948  0.2973  0.1271
  463TIP3   OH222947   4.974   3.694   3.243  0.0416  0.2856  0.2554
  463TIP3    H122948   4.981   3.604   3.212 -0.3236 -0.1655  1.4264
  463TIP3    H222949   4.984   3.748   3.164 -2.2493 -0.8162 -0.8959
  464TIP3   OH222950   0.428   2.817   8.579 -0.0306  0.0254  0.0481
  464TIP3    H122951   0.362   2.834   8.512  0.5175 -1.4370 -0.9198
  464TIP3    H222952   0.413   2.726   8.605  0.7991  0.0746  0.7516
  465TIP3   OH222953   0.663   1.105   1.297 -0.1783  0.3329 -0.0484
  465TIP3    H122954   0.630   1.125   1.210 -1.8507 -1.4685  0.0952
  465TIP3    H222955   0.744   1.056   1.281  1.0143  2.3212 -0.4659
  466TIP3   OH222956   1.903   3.658   0.037 -0.8094 -0.1581 -0.1363
  466TIP3    H122957   1.846   3.671   0.113 -0.0356 -1.2618  0.6730
  466TIP3    H222958   1.930   3.747   0.012  0.1569  0.1877  1.8896
  467TIP3   OH222959   2.751   0.872   0.576  0.1129 -0.1797 -0.0368
  467TIP3    H122960   2.807   0.865   0.653  0.8345  2.0794 -0.2681
  467TIP3    H222961   2.732   0.782   0.551  0.0473 -0.9768  2.6170
  468TIP3   OH222962   0.252   1.049   1.184  0.2130 -0.4684 -0.5762
  468TIP3    H122963   0.261   1.074   1.092  2.7989 -0.6755 -0.4720
  468TIP3    H222964   0.300   0.966   1.191  0.1639 -0.4080  0.9740
  469TIP3   OH222965   0.890   3.608   0.033  0.5025 -0.0324 -0.1480
  469TIP3    H122966   0.876   3.651   0.117 -0.5169 -0.9031  0.1453
  469TIP3    H222967   0.916   3.518   0.056  0.0983 -0.3124 -0.7607
  470TIP3   OH222968   2.747   1.303   8.573 -0.1748  0.1847 -0.1447
  470TIP3    H122969   2.702   1.245   8.511 -1.8426  0.1456  1.0365
  470TIP3    H222970   2.754   1.386   8.527 -1.0716  0.0587 -0.5474
  471TIP3   OH222971   2.749   0.382   3.430  0.6218  0.1420 -0.4085
  471TIP3    H122972   2.675   0.441   3.443  1.1665  0.7708 -0.1396
  471TIP3    H222973   2.716   0.296   3.457  0.5847  0.7465  1.5705
  472TIP3   OH222974   0.736   4.336   2.905 -0.1531  0.6681  0.1097
  472TIP3    H122975   0.675   4.395   2.861  0.1497  0.4205 -0.6629
  472TIP3    H222976   0.805   4.393   2.937  0.0672  0.7603 -0.5118
  473TIP3   OH222977   0.809   3.798   2.177 -0.2656 -0.6755  0.1272
  473TIP3    H122978   0.739   3.734   2.188 -1.0598  0.0217 -0.7232
  473TIP3    H222979   0.791   3.840   2.093 -0.8627  1.9944  1.4854
  474TIP3   OH222980   0.763   2.947   3.164  0.1320 -0.3925 -0.2465
  474TIP3    H122981   0.840   2.981   3.120  1.0364 -1.2980  0.5784
  474TIP3    H222982   0.732   3.020   3.218  0.2345  0.0645 -0.8002
  475TIP3   OH222983   4.841   3.903   1.170 -0.0326 -0.0497  0.4470
  475TIP3    H122984   4.791   3.902   1.252 -0.3949 -2.0505  0.2552
  475TIP3    H222985   4.834   3.814   1.137 -0.8288  0.9508 -2.3385
  476TIP3   OH222986   6.104   1.880   1.452 -0.0983 -0.2475 -0.1352
  476TIP3    H122987   6.177   1.829   1.487  1.6821  1.5261 -1.0328
  476TIP3    H222988   6.120   1.884   1.358 -0.3743  1.5574 -0.1507
  477TIP3   OH222989   3.930   6.474   0.164  0.1983  0.5771 -0.7856
  477TIP3    H122990   4.022   6.456   0.178 -0.3295 -0.7211  1.5022
  477TIP3    H222991   3.913   6.555   0.212  0.0910  0.7188 -1.0568
  478TIP3   OH222992   6.264   1.469   2.937  0.0664  0.2532  0.0813
  478TIP3    H122993   6.216   1.506   3.012 -1.1770 -0.6670 -0.2144
  478TIP3    H222994   6.354   1.498   2.949 -0.2944  0.9050  1.4253
  479TIP3   OH222995   1.487   4.128   3.101  0.5110  0.5161 -0.3737
  479TIP3    H122996   1.555   4.088   3.047  0.6496  0.6029 -0.2628
  479TIP3    H222997   1.431   4.174   3.039 -0.5951 -1.1831 -0.7158
  480TIP3   OH222998   6.489   2.708   2.230 -0.1784 -0.4049 -0.0699
  480TIP3    H122999   6.538   2.712   2.312  2.4441 -0.8965 -1.5168
  480TIP3    H223000   6.436   2.787   2.230  1.8080  1.0147  0.9117
  481TIP3   OH223001   5.990   1.491   1.235  0.0295  0.0311 -0.2107
  481TIP3    H123002   6.023   1.538   1.158 -0.3980 -1.8158 -1.5879
  481TIP3    H223003   6.018   1.400   1.221  0.2676 -0.2892  2.0252
  482TIP3   OH223004   3.760   4.405   1.179 -0.5510 -0.0047 -0.1916
  482TIP3    H123005   3.850   4.372   1.186 -0.7127 -0.3271  0.4230
  482TIP3    H223006   3.752   4.467   1.252 -0.6219  0.5271 -0.6432
  483TIP3   OH223007   2.068   5.356   3.680 -0.7062 -0.2566  0.5337
  483TIP3    H123008   2.099   5.266   3.693 -2.6363 -0.9813  0.5011
  483TIP3    H223009   2.005   5.370   3.751 -0.9538  0.8252  0.1195
  484TIP3   OH223010   3.066   3.912   3.062  0.6883 -0.0368  0.5840
  484TIP3    H123011   3.001   3.854   3.103  1.2333 -0.7185  0.5032
  484TIP3    H223012   3.144   3.904   3.117  0.0848  2.4638  1.9654
  485TIP3   OH223013   0.653   1.321   2.043  0.3201  0.2928  0.4849
  485TIP3    H123014   0.582   1.279   1.995 -0.2454 -0.9845  2.3271
  485TIP3    H223015   0.733   1.283   2.005  0.0922  1.7265 -1.5819
  486TIP3   OH223016   5.315   6.586   3.583 -0.0237  0.2512  0.7849
  486TIP3    H123017   5.282   6.611   3.669  0.4206 -1.1397  1.3848
  486TIP3    H223018   5.284   6.496   3.570 -0.3746  0.5570 -0.6642
  487TIP3   OH223019   3.703   1.845   1.699  0.3707 -0.4523 -0.0370
  487TIP3    H123020   3.642   1.916   1.681 -0.5466 -1.9014 -3.5342
  487TIP3    H223021   3.787   1.888   1.713 -0.4788  1.3766 -0.3222
  488TIP3   OH223022   2.962   0.707   0.288  0.1543  0.6231  0.0763
  488TIP3    H123023   2.983   0.665   0.372 -0.7571 -0.4983 -0.2247
  488TIP3    H223024   2.995   0.796   0.297 -0.0578  0.5735  1.6954
  489TIP3   OH223025   3.671   5.245   8.395  0.8622 -0.6961 -0.1145
  489TIP3    H123026   3.593   5.300   8.400  0.3136 -1.4423 -0.2860
  489TIP3    H223027   3.742   5.306   8.373  0.2111 -0.1076 -0.6295
  490TIP3   OH223028   6.159   2.510   8.426 -0.3817  0.0235  0.1812
  490TIP3    H123029   6.169   2.568   8.350  1.3139 -0.3941  0.0420
  490TIP3    H223030   6.187   2.424   8.393  3.5244  0.3970  1.9883
  491TIP3   OH223031   1.176   4.655   7.617 -0.0255  0.3221  0.5638
  491TIP3    H123032   1.233   4.583   7.589 -0.1983  0.8815 -1.4230
  491TIP3    H223033   1.138   4.625   7.700  1.0217 -1.2342  0.5302
  492TIP3   OH223034   6.529   4.663   2.335 -0.1219  0.0483 -0.1296
  492TIP3    H123035   6.544   4.621   2.420  0.4555  0.9860  0.2505
  492TIP3    H223036   6.463   4.730   2.352 -0.1152  0.1411 -0.4554
  493TIP3   OH223037   2.525   3.312   7.898  0.1358  0.3282  0.4345
  493TIP3    H123038   2.480   3.271   7.825  1.3329  1.3708 -0.9445
  493TIP3    H223039   2.566   3.239   7.945 -1.6680 -0.4727  0.8408
  494TIP3   OH223040   6.595   6.846   2.260  0.1018  0.2000  0.3512
  494TIP3    H123041   6.628   6.817   2.174 -0.8187  2.2156 -0.7573
  494TIP3    H223042   6.500   6.835   2.254  0.0460  0.1494  1.2161
  495TIP3   OH223043   2.535   6.444   7.596  0.4732 -0.5590  0.1939
  495TIP3    H123044   2.473   6.387   7.642 -0.1661  0.7756  1.0518
  495TIP3    H223045   2.616   6.437   7.646 -0.1561  0.7192  1.4767
  496TIP3   OH223046   0.480   0.102   8.125 -0.0410  0.2038 -0.3051
  496TIP3    H123047   0.532   0.084   8.204  1.6300  1.8531 -0.9598
  496TIP3    H223048   0.545   0.127   8.059 -1.2790 -1.9913 -2.5503
  497TIP3   OH223049   2.075   6.255   3.207 -0.0772 -0.4511  0.0185
  497TIP3    H123050   2.129   6.197   3.261 -1.1710 -1.4076  0.1138
  497TIP3    H223051   2.043   6.199   3.136  1.2699  0.7638 -1.6281
  498TIP3   OH223052   0.486   0.516   2.616 -0.4134 -0.0166 -0.1221
  498TIP3    H123053   0.439   0.522   2.533 -1.2549 -1.7584  0.1845
  498TIP3    H223054   0.554   0.450   2.601  0.8641  1.2264 -0.0358
  499TIP3   OH223055   1.808   3.707   1.359 -0.0349  0.2468 -0.3816
  499TIP3    H123056   1.783   3.679   1.446 -0.6543  1.5574 -0.1105
  499TIP3    H223057   1.805   3.628   1.306  2.2938 -0.9771  1.1604
  500TIP3   OH223058   6.002   1.171   1.986  1.0018  0.2220 -0.4646
  500TIP3    H123059   6.054   1.165   1.906  0.2770  0.6543 -0.9819
  500TIP3    H223060   5.928   1.227   1.962 -0.1408 -1.0206  0.0068
  501TIP3   OH223061   1.424   4.779   0.700  0.0597 -0.0743  0.1264
  501TIP3    H123062   1.459   4.845   0.760 -2.9452 -0.1225  2.1523
  501TIP3    H223063   1.475   4.700   0.718 -1.6594 -0.5282  3.9310
  502TIP3   OH223064   3.086   0.712   1.419  0.2259 -0.4132 -0.0863
  502TIP3    H123065   3.062   0.735   1.330  0.7052 -0.1605 -0.1532
  502TIP3    H223066   3.181   0.711   1.419  0.3674  2.4266  1.0795
  503TIP3   OH223067   4.830   2.817   1.995 -0.1305 -0.9748  0.3713
  503TIP3    H123068   4.771   2.876   1.946  0.4890  0.3050  1.1294
  503TIP3    H223069   4.781   2.795   2.074 -0.3741 -1.5404  0.0748
  504TIP3   OH223070   4.959   5.963   1.577 -0.1338 -0.1416 -0.2388
  504TIP3    H123071   5.025   5.893   1.586  0.3664  0.4954  1.4421
  504TIP3    H223072   4.882   5.929   1.623 -1.0599 -0.8959 -2.2211
  505TIP3   OH223073   0.628   1.596   0.040 -0.6373  0.4703  0.6814
  505TIP3    H123074   0.698   1.535   0.015 -0.5116  0.9255 -0.1220
  505TIP3    H223075   0.547   1.550   0.017 -0.6219 -0.0733  1.6471
  506TIP3   OH223076   1.682   3.073   0.458 -0.1810  0.1552 -0.0487
  506TIP3    H123077   1.721   2.992   0.424 -2.9182 -1.6556  0.8394
  506TIP3    H223078   1.723   3.085   0.543  0.0333 -0.4766 -0.0528
  507TIP3   OH223079   5.552   1.974   0.567 -0.1978  0.4000  0.2385
  507TIP3    H123080   5.526   2.053   0.616 -1.2982  1.2898 -1.6325
  507TIP3    H223081   5.489   1.908   0.594 -0.6812  0.8260  0.1823
  508TIP3   OH223082   4.933   5.972   1.940 -0.1860 -0.1621  0.0613
  508TIP3    H123083   5.025   5.953   1.959  0.4790  1.3627 -1.3932
  508TIP3    H223084   4.892   5.886   1.930  0.6316 -0.9240  2.5147
  509TIP3   OH223085   5.652   0.124   2.428 -0.2334  0.0943  0.4946
  509TIP3    H123086   5.660   0.131   2.523 -1.6509 -1.2527  0.7514
  509TIP3    H223087   5.627   0.033   2.413  0.5611  0.1222 -1.2337
  510TIP3   OH223088   0.992   1.777   3.946 -0.1615  0.2727 -0.3180
  510TIP3    H123089   0.992   1.872   3.936 -0.8166  0.3796  0.6203
  510TIP3    H223090   1.065   1.759   4.006 -1.2781  0.3941  1.1390
  511TIP3   OH223091   1.236   4.368   2.436 -0.2566  0.0114 -0.1797
  511TIP3    H123092   1.156   4.393   2.390  1.1120 -0.0499 -2.7686
  511TIP3    H223093   1.298   4.348   2.366  1.6017 -1.3352  1.7571
  512TIP3   OH223094   3.190   5.465   1.619 -0.8334 -0.5685  0.6162
  512TIP3    H123095   3.229   5.446   1.704 -1.0189  1.9551  1.3230
  512TIP3    H223096   3.265   5.490   1.564 -0.5160 -3.5016 -0.4751
  513TIP3   OH223097   3.551   1.460   2.895 -0.1530 -0.1309  0.4406
  513TIP3    H123098   3.554   1.555   2.902 -0.0695 -0.0746 -0.2670
  513TIP3    H223099   3.529   1.430   2.983 -3.4802  0.7054  0.0397
  514TIP3   OH223100   1.628   3.104   2.523 -0.3340 -0.0146 -0.3836
  514TIP3    H123101   1.619   3.114   2.618  0.3474 -0.2964 -0.2813
  514TIP3    H223102   1.539   3.090   2.491 -0.9294  2.6210 -0.1146
  515TIP3   OH223103   3.761   4.929   2.380 -0.7430 -0.3997  0.2425
  515TIP3    H123104   3.709   4.983   2.439  1.1457  0.5768  1.1166
  515TIP3    H223105   3.786   4.853   2.433  2.4650  1.3314  1.4731
  516TIP3   OH223106   1.618   3.726   8.498 -0.1148  0.1535 -0.2461
  516TIP3    H123107   1.650   3.650   8.546  2.0172  0.2427 -1.3981
  516TIP3    H223108   1.571   3.778   8.563  0.9999 -0.6628  1.2650
  517TIP3   OH223109   6.415   2.969   2.257  0.4986  0.1117 -0.2472
  517TIP3    H123110   6.370   3.005   2.334  0.8420 -0.9558  0.4851
  517TIP3    H223111   6.479   3.036   2.233  0.2567  0.5429  0.2776
  518TIP3   OH223112   5.862   5.882   3.484  0.3781 -0.1090 -0.0416
  518TIP3    H123113   5.889   5.793   3.507  0.3707  0.1659  1.0892
  518TIP3    H223114   5.936   5.937   3.510  0.4770  0.2089 -0.9443
  519TIP3   OH223115   2.428   4.088   8.643 -0.4259 -0.2380 -0.3431
  519TIP3    H123116   2.335   4.087   8.663 -0.6204  0.7417 -1.1341
  519TIP3    H223117   2.435   4.042   8.559 -0.5471  1.8149 -1.5407
  520TIP3   OH223118   1.930   0.953   2.687  0.2300 -0.0622 -0.1154
  520TIP3    H123119   1.864   1.008   2.644  1.7130 -0.1948 -2.7871
  520TIP3    H223120   1.917   0.866   2.648  0.0327 -0.8629  1.6329
  521TIP3   OH223121   2.729   3.819   1.297 -0.2596  0.4684 -0.1633
  521TIP3    H123122   2.649   3.769   1.311  0.6341 -0.7483  0.7758
  521TIP3    H223123   2.753   3.801   1.206 -0.2401 -0.4122  0.0042
  522TIP3   OH223124   6.795   2.238   8.419 -0.1484  0.0414 -0.1844
  522TIP3    H123125   6.779   2.293   8.343 -0.0631  1.8778  1.0614
  522TIP3    H223126   6.876   2.271   8.457 -0.5228 -0.3922  1.0678
  523TIP3   OH223127   3.069   4.940   2.056  0.4572 -0.3487  0.5133
  523TIP3    H123128   3.141   4.915   2.114  0.8392 -0.6376 -0.0754
  523TIP3    H223129   3.069   5.035   2.058  1.8542 -0.2919 -0.6609
  524TIP3   OH223130   5.363   3.027   8.213  0.3796  0.0851  0.7284
  524TIP3    H123131   5.374   3.121   8.199 -0.2713 -0.1484 -1.9009
  524TIP3    H223132   5.385   2.987   8.129 -1.7522 -1.8951  0.9883
  525TIP3   OH223133   3.233   5.647   0.143  0.3237  0.2203 -0.1498
  525TIP3    H123134   3.284   5.674   0.067 -0.9994 -0.6691 -1.4114
  525TIP3    H223135   3.218   5.553   0.129 -0.6055  0.2134  0.7908
  526TIP3   OH223136   3.534   5.128   0.212  0.3309  0.1800 -0.1015
  526TIP3    H123137   3.590   5.174   0.274  0.7523 -0.4787  0.0124
  526TIP3    H223138   3.569   5.039   0.209 -1.8331 -0.7741  1.3541
  527TIP3   OH223139   5.392   3.059   1.089  0.8223  0.0400  0.1793
  527TIP3    H123140   5.380   3.048   0.995 -0.2133 -0.1491  0.3306
  527TIP3    H223141   5.318   3.015   1.129  1.2192  0.1665  1.0920
  528TIP3   OH223142   1.252   3.056   3.036  0.1555 -0.7131 -0.6807
  528TIP3    H123143   1.228   3.093   3.121 -0.1391 -3.2431  0.4106
  528TIP3    H223144   1.347   3.046   3.040  0.1206 -1.0132 -0.5505
  529TIP3   OH223145   3.109   3.749   2.725 -0.2349  0.2230 -0.3739
  529TIP3    H123146   3.059   3.678   2.766  0.9559  1.0938  2.8879
  529TIP3    H223147   3.042   3.807   2.689 -1.3466 -1.0496 -0.4315
  530TIP3   OH223148   2.236   1.521   2.521  0.0326  0.5596 -0.5836
  530TIP3    H123149   2.247   1.598   2.577 -0.2258 -0.2995  0.6630
  530TIP3    H223150   2.195   1.556   2.442 -0.6261  1.6158  0.2001
  531TIP3   OH223151   0.562   4.678   1.995  0.6265 -0.0572  0.0252
  531TIP3    H123152   0.613   4.597   1.990  2.1403  0.8562  0.0365
  531TIP3    H223153   0.622   4.743   2.031 -0.5257  1.1107 -0.0470
  532TIP3   OH223154   6.017   0.136   0.325  0.1016 -0.1122  0.2007
  532TIP3    H123155   6.091   0.151   0.266  1.4132  0.5047  1.9135
  532TIP3    H223156   5.987   0.224   0.347  1.2605 -0.1901  2.3514
  533TIP3   OH223157   0.904   4.535   8.384  0.0709  0.0282 -0.4272
  533TIP3    H123158   0.934   4.485   8.308  0.7944  0.6813 -0.5934
  533TIP3    H223159   0.816   4.563   8.361  0.1037 -0.1831 -0.8246
  534TIP3   OH223160   4.364   6.728   0.812 -0.0128  0.4217 -0.0716
  534TIP3    H123161   4.399   6.653   0.765 -0.3450  0.5175 -0.4788
  534TIP3    H223162   4.270   6.724   0.797 -0.4876 -0.9527  2.5993
  535TIP3   OH223163   5.355   1.140   8.319  0.1447 -0.2816  0.2496
  535TIP3    H123164   5.438   1.184   8.305  0.3181 -0.5600  0.3945
  535TIP3    H223165   5.297   1.208   8.353  0.6503 -0.3444  1.2857
  536TIP3   OH223166   3.377   5.407   3.071  0.4098  0.0738 -0.6876
  536TIP3    H123167   3.331   5.323   3.076 -0.4092  0.5465  0.0955
  536TIP3    H223168   3.417   5.418   3.157 -0.8240  1.1922 -0.2108
  537TIP3   OH223169   4.895   6.686   0.530  0.9081  0.0043 -0.0613
  537TIP3    H123170   4.908   6.624   0.458  1.2721 -0.9231  0.7725
  537TIP3    H223171   4.955   6.655   0.599  0.3468  0.6810  0.7489
  538TIP3   OH223172   1.278   5.084   0.784 -0.3265 -0.2642  1.0652
  538TIP3    H123173   1.301   5.097   0.876 -0.8623  1.9551  0.9485
  538TIP3    H223174   1.358   5.103   0.735 -0.1027 -1.2181  1.0474
  539TIP3   OH223175   5.428   6.673   1.386  0.1138  0.2487  0.2556
  539TIP3    H123176   5.431   6.708   1.297 -0.2801 -0.6786 -0.1254
  539TIP3    H223177   5.338   6.643   1.397  0.2803 -0.0598  0.8046
  540TIP3   OH223178   4.222   3.182   1.113  0.5101 -0.7032 -0.7286
  540TIP3    H123179   4.150   3.239   1.142  0.6259 -0.3077 -1.1964
  540TIP3    H223180   4.280   3.175   1.189  0.4039 -0.3355 -0.6126
  541TIP3   OH223181   1.081   2.177   2.197 -0.0325  0.5371 -0.0974
  541TIP3    H123182   1.037   2.249   2.152  2.2471  2.0714 -0.0236
  541TIP3    H223183   1.167   2.171   2.155 -0.0553 -2.0523  0.0495
  542TIP3   OH223184   1.379   5.274   0.462  0.2030 -0.4669  0.2312
  542TIP3    H123185   1.430   5.342   0.505  0.5579 -0.0029 -0.8823
  542TIP3    H223186   1.397   5.195   0.511 -1.5024  0.4972  2.6017
  543TIP3   OH223187   2.831   2.915   1.773 -0.5088 -0.0865 -0.2391
  543TIP3    H123188   2.779   2.959   1.705 -0.6265 -0.4066 -0.3579
  543TIP3    H223189   2.781   2.836   1.794 -0.2250 -0.2371 -0.1283
  544TIP3   OH223190   2.347   1.396   2.951 -0.2200 -0.5528  0.3639
  544TIP3    H123191   2.357   1.482   2.910  2.1464 -0.6448  0.6338
  544TIP3    H223192   2.377   1.334   2.884 -0.5510 -1.0551  0.6726
  545TIP3   OH223193   4.094   4.404   2.436  0.0543 -0.6951  0.4661
  545TIP3    H123194   4.164   4.383   2.497  0.3111  0.3684  0.5615
  545TIP3    H223195   4.137   4.411   2.351  0.2185  0.7344  0.6501
  546TIP3   OH223196   2.519   4.171   1.920 -0.0427  0.3883 -0.3037
  546TIP3    H123197   2.577   4.246   1.934 -0.0894  0.0747  1.8311
  546TIP3    H223198   2.515   4.127   2.005 -1.1201 -1.2514 -1.1564
  547TIP3   OH223199   1.844   1.760   2.048 -0.3748 -0.1796 -0.5354
  547TIP3    H123200   1.782   1.833   2.048  0.8971  0.9950  1.5000
  547TIP3    H223201   1.854   1.736   2.140  0.6842 -1.6932 -0.9923
  548TIP3   OH223202   6.407   6.014   2.278  0.4553  0.3832 -0.2862
  548TIP3    H123203   6.468   6.048   2.213 -0.0939  0.4721 -0.7587
  548TIP3    H223204   6.447   5.932   2.309  0.7643  0.3925 -0.6636
  549TIP3   OH223205   6.267   3.594   3.040  0.1016  0.1160 -0.0439
  549TIP3    H123206   6.251   3.566   2.950 -0.6988 -0.6576  0.3274
  549TIP3    H223207   6.229   3.682   3.044  2.4067  1.2609 -1.1419
  550TIP3   OH223208   5.343   0.256   1.955 -0.1385 -0.6301 -0.3209
  550TIP3    H123209   5.380   0.222   2.036 -0.2187 -0.6811 -0.3052
  550TIP3    H223210   5.332   0.178   1.900 -1.4380 -0.8057  0.1524
  551TIP3   OH223211   0.205   4.678   1.264 -0.1230 -0.0021 -0.7607
  551TIP3    H123212   0.121   4.717   1.291 -0.6395 -0.7243 -1.2710
  551TIP3    H223213   0.193   4.657   1.171  0.6132 -0.1414 -0.8285
  552TIP3   OH223214   2.300   2.012   8.167 -0.1599 -0.3002  0.1393
  552TIP3    H123215   2.231   1.950   8.190 -0.9521  0.3838 -0.3519
  552TIP3    H223216   2.379   1.958   8.160 -1.0298 -1.4578 -1.3648
  553TIP3   OH223217   1.194   0.048   1.636 -1.0734 -0.2617  0.1551
  553TIP3    H123218   1.204   0.046   1.731 -1.8298  1.4091  0.3029
  553TIP3    H223219   1.222   0.136   1.611 -1.0003 -0.6448 -1.1634
  554TIP3   OH223220   3.162   4.212   2.517  0.4589 -0.2405  0.1968
  554TIP3    H123221   3.110   4.264   2.577  0.8571  0.2699  0.1156
  554TIP3    H223222   3.245   4.198   2.562  0.1158 -1.4000  0.4958
  555TIP3   OH223223   0.968   1.047   2.116  0.5007  0.1822  0.7342
  555TIP3    H123224   0.987   1.106   2.189  0.8872 -0.6214  1.3061
  555TIP3    H223225   0.973   1.102   2.038  2.7191  0.5464  1.0764
  556TIP3   OH223226   6.436   4.218   0.662 -0.1433  0.4625 -0.3909
  556TIP3    H123227   6.483   4.145   0.701  0.6257  1.0102 -0.2787
  556TIP3    H223228   6.368   4.177   0.608  0.7113 -0.3447 -0.8666
  557TIP3   OH223229   0.296   0.288   2.486  0.5116  0.4021 -0.3596
  557TIP3    H123230   0.371   0.281   2.545  0.9853 -0.7824 -1.0594
  557TIP3    H223231   0.320   0.234   2.411 -0.3466  1.3795 -1.3571
  558TIP3   OH223232   5.294   5.244   3.653 -0.7835 -0.8002  0.2093
  558TIP3    H123233   5.280   5.193   3.733 -1.1700 -0.0523  0.6277
  558TIP3    H223234   5.213   5.233   3.604 -1.0364 -0.2486  0.4970
  559TIP3   OH223235   0.282   3.540   2.470  0.2723 -0.7051 -0.0259
  559TIP3    H123236   0.372   3.562   2.494  0.4455 -0.3391 -0.9466
  559TIP3    H223237   0.283   3.446   2.455  0.5957 -0.6491 -0.3759
  560TIP3   OH223238   5.503   0.217   7.929  0.0588  0.5866  0.2630
  560TIP3    H123239   5.457   0.169   7.998 -0.4452  0.9637  0.1996
  560TIP3    H223240   5.436   0.274   7.891  0.3218  0.3800 -0.5476
  561TIP3   OH223241   3.173   2.167   2.125 -0.1164  0.5644  0.2016
  561TIP3    H123242   3.213   2.116   2.196  0.4435  1.1940  0.3452
  561TIP3    H223243   3.115   2.229   2.169 -0.9760 -0.0708  0.0135
  562TIP3   OH223244   0.657   1.080   2.536 -0.8292  0.1573 -0.2556
  562TIP3    H123245   0.595   1.026   2.486 -1.6103  1.6536 -0.9481
  562TIP3    H223246   0.660   1.163   2.489  0.5609  0.6361  0.6427
  563TIP3   OH223247   4.100   3.496   1.461 -0.4795 -0.2638 -0.3489
  563TIP3    H123248   4.099   3.437   1.536  1.3911  0.5753  0.4135
  563TIP3    H223249   4.015   3.540   1.464 -0.7124 -0.7603  0.8662
  564TIP3   OH223250   4.382   1.583   0.138  0.2065 -0.3200  0.3029
  564TIP3    H123251   4.429   1.534   0.205  1.4262 -1.1614 -1.1118
  564TIP3    H223252   4.436   1.574   0.059 -0.3928  1.9144 -0.4267
  565TIP3   OH223253   1.172   5.170   3.571  0.1423  0.2031 -0.1315
  565TIP3    H123254   1.214   5.165   3.485 -0.6733 -0.1454 -0.5232
  565TIP3    H223255   1.220   5.237   3.618  1.1627 -0.2263 -0.5451
  566TIP3   OH223256   1.021   0.788   0.014 -0.0938 -0.0781  0.1401
  566TIP3    H123257   1.009   0.701  -0.022  0.5483 -0.1546  0.0997
  566TIP3    H223258   1.108   0.814  -0.015 -0.8848  1.2314 -1.1998
  567TIP3   OH223259   3.119   5.481   0.628 -0.2857  0.4397 -0.0551
  567TIP3    H123260   3.038   5.447   0.666 -0.1349  0.9707  0.7866
  567TIP3    H223261   3.090   5.556   0.575 -0.2057  1.8409  1.7775
  568TIP3   OH223262   1.403   1.271   0.596 -0.4010  0.4833  0.2202
  568TIP3    H123263   1.368   1.258   0.684  0.1978 -0.8149  0.2894
  568TIP3    H223264   1.476   1.331   0.607 -0.5921  0.6525  0.5538
  569TIP3   OH223265   1.531   2.615   7.819 -0.1435 -0.2133  0.0194
  569TIP3    H123266   1.592   2.571   7.878 -1.1997 -1.3775  0.2828
  569TIP3    H223267   1.504   2.694   7.866  0.2284 -0.3208  0.4138
  570TIP3   OH223268   4.643   5.283   1.461 -0.6344 -0.0941 -0.4761
  570TIP3    H123269   4.728   5.311   1.496 -0.9332 -1.0529  1.1575
  570TIP3    H223270   4.594   5.254   1.538 -2.4403  0.3574 -1.3844
  571TIP3   OH223271   1.737   5.531   8.275  0.0217  0.1395 -0.2256
  571TIP3    H123272   1.733   5.575   8.360  0.2364  1.3015 -0.7840
  571TIP3    H223273   1.646   5.515   8.252 -0.1282  1.1595 -0.4140
  572TIP3   OH223274   4.719   2.935   8.282 -0.3566 -0.0641 -0.2428
  572TIP3    H123275   4.781   2.946   8.211 -1.0780 -0.4688 -0.9519
  572TIP3    H223276   4.674   3.020   8.288 -1.5144 -0.5566 -1.4693
  573TIP3   OH223277   2.055   1.137   1.673  0.5883  0.2195  0.0795
  573TIP3    H123278   2.032   1.189   1.596 -0.5324 -0.0400  0.2235
  573TIP3    H223279   2.129   1.083   1.644 -2.1900 -2.7639 -2.0982
  574TIP3   OH223280   4.197   4.541   2.218 -0.2438  0.0955 -0.1395
  574TIP3    H123281   4.213   4.619   2.271 -1.8892  0.3027  0.1111
  574TIP3    H223282   4.134   4.569   2.152  0.3930 -0.6272 -1.0953
  575TIP3   OH223283   6.356   0.516   2.163 -0.1576  0.3643 -0.1908
  575TIP3    H123284   6.266   0.501   2.191  0.0478  0.6235  0.6539
  575TIP3    H223285   6.348   0.564   2.080 -0.7900 -1.0377 -0.9763
  576TIP3   OH223286   6.129   3.578   8.302  0.1663  0.6370 -0.5900
  576TIP3    H123287   6.225   3.574   8.303  0.1746 -0.0847 -2.0469
  576TIP3    H223288   6.104   3.543   8.217 -1.2663  3.7534 -1.6010
  577TIP3   OH223289   3.187   2.233   0.451  0.0537 -0.2447  0.7068
  577TIP3    H123290   3.127   2.282   0.507 -0.1170 -0.6464  0.8860
  577TIP3    H223291   3.204   2.152   0.500  0.2717 -0.3928  0.3871
  578TIP3   OH223292   5.679   5.204   0.414 -0.0674 -0.0125  0.4502
  578TIP3    H123293   5.618   5.196   0.487 -0.3292 -0.7952  0.1578
  578TIP3    H223294   5.765   5.213   0.456 -0.2887  0.2398  0.8559
  579TIP3   OH223295   1.407   3.813   1.916 -0.3531  0.8032 -0.5682
  579TIP3    H123296   1.474   3.834   1.981 -0.2375  1.8085 -1.0013
  579TIP3    H223297   1.379   3.897   1.882 -0.9343  0.3237 -1.3083
  580TIP3   OH223298   4.253   0.082   0.899  0.3441 -0.1850  0.1099
  580TIP3    H123299   4.201   0.114   0.825  0.6879  2.7521  1.0024
  580TIP3    H223300   4.302   0.007   0.864 -1.6720 -0.7313 -1.7659
  581TIP3   OH223301   4.202   0.497   0.506  0.2321 -0.7919  0.0516
  581TIP3    H123302   4.117   0.452   0.512 -0.5860  0.5854 -0.5678
  581TIP3    H223303   4.235   0.473   0.419  0.3866 -1.1808  0.2178
  582TIP3   OH223304   4.152   5.506   3.902  0.4291 -0.1667 -0.3083
  582TIP3    H123305   4.060   5.533   3.913  0.9703  1.2880  1.0488
  582TIP3    H223306   4.199   5.555   3.969  2.2635 -0.6307 -1.2048
  583TIP3   OH223307   4.226   4.301   2.711  0.3237 -0.9629 -0.4952
  583TIP3    H123308   4.278   4.289   2.790  0.5594  0.0316 -0.4960
  583TIP3    H223309   4.228   4.215   2.668  2.5587 -0.7603 -0.8713
  584TIP3   OH223310   3.020   5.227   2.392 -0.2493  0.5848  0.2067
  584TIP3    H123311   3.077   5.254   2.465  0.7296  0.1952 -0.4018
  584TIP3    H223312   2.947   5.182   2.435  0.4957  0.0442  0.9299
  585TIP3   OH223313   2.818   0.799   2.259 -0.3378  0.4034  0.4182
  585TIP3    H123314   2.747   0.741   2.233  0.3641 -0.3232  0.0815
  585TIP3    H223315   2.851   0.835   2.176 -0.3352  0.7713  0.5743
  586TIP3   OH223316   2.529   1.504   1.726  0.2472  0.0405 -0.0381
  586TIP3    H123317   2.491   1.500   1.638  1.1712  0.9937 -0.5012
  586TIP3    H223318   2.558   1.594   1.736  2.1470 -0.5738  0.3779
  587TIP3   OH223319   6.043   1.912   1.752 -0.3808  0.0343 -0.4395
  587TIP3    H123320   6.004   1.907   1.665 -1.2987  0.2724 -0.0572
  587TIP3    H223321   6.125   1.862   1.745 -0.7743 -0.5187 -1.2612
  588TIP3   OH223322   3.203   0.202   2.162 -0.4435 -0.5315  0.4347
  588TIP3    H123323   3.263   0.234   2.229 -0.6204 -0.7292  0.6886
  588TIP3    H223324   3.116   0.233   2.191 -0.5362 -0.7229  0.3610
  589TIP3   OH223325   0.663   1.125   0.014  0.3461 -0.6947  0.0982
  589TIP3    H123326   0.691   1.115   0.105 -0.2508  0.3311  0.4198
  589TIP3    H223327   0.608   1.049  -0.003  1.9932 -1.9048 -0.0385
  590TIP3   OH223328   2.051   5.311   1.905 -0.0522  0.4327 -0.3966
  590TIP3    H123329   2.074   5.354   1.988 -1.0075 -0.4859  0.3627
  590TIP3    H223330   1.982   5.365   1.869 -1.4753 -0.5735  0.7131
  591TIP3   OH223331   0.445   2.962   2.139 -0.0004 -0.4246  0.4296
  591TIP3    H123332   0.535   2.980   2.112 -0.9326  1.1556 -1.8489
  591TIP3    H223333   0.428   3.024   2.210  0.7923 -0.9819  1.1203
  592TIP3   OH223334   1.575   0.931   3.696 -0.8874  0.2374 -0.2058
  592TIP3    H123335   1.581   0.979   3.779 -1.7623 -3.0001  1.8983
  592TIP3    H223336   1.481   0.925   3.678 -0.7820 -0.4570 -0.5671
  593TIP3   OH223337   3.076   5.923   1.576 -0.2729 -1.2074 -0.1058
  593TIP3    H123338   3.113   5.984   1.640  0.5445  0.1066 -1.7510
  593TIP3    H223339   3.149   5.899   1.520 -1.0072 -2.1499 -0.6870
  594TIP3   OH223340   1.278   2.904   1.442  0.4206 -0.1162  0.2500
  594TIP3    H123341   1.313   2.965   1.377  1.5148 -0.8473  0.1311
  594TIP3    H223342   1.189   2.936   1.459  1.6071  2.6900  1.7037
  595TIP3   OH223343   5.463   3.531   1.462 -0.1939 -0.3728  0.2797
  595TIP3    H123344   5.455   3.609   1.517 -0.9729 -0.6409  0.5747
  595TIP3    H223345   5.475   3.459   1.524  1.5084 -0.3825 -0.0395
  596TIP3   OH223346   0.191   0.428   1.149  0.3442  0.0685  0.7471
  596TIP3    H123347   0.113   0.382   1.180 -0.5625  0.7175 -0.5055
  596TIP3    H223348   0.264   0.380   1.189 -0.6647 -0.8779  1.5135
  597TIP3   OH223349   2.979   4.185   3.079  0.4139  0.3163  0.2232
  597TIP3    H123350   3.020   4.103   3.107 -1.8963 -0.0538  3.0702
  597TIP3    H223351   3.048   4.251   3.087  1.5431 -0.8907  0.8243
  598TIP3   OH223352   3.637   3.890   3.323 -0.3442  0.3353 -0.0136
  598TIP3    H123353   3.708   3.953   3.335 -1.2124  1.2105  0.5692
  598TIP3    H223354   3.565   3.940   3.286 -0.5693 -0.6144 -0.9117
  599TIP3   OH223355   3.323   1.247   8.160  0.1392 -0.0986  0.3170
  599TIP3    H123356   3.355   1.226   8.072 -1.0784 -0.2360 -0.1156
  599TIP3    H223357   3.229   1.231   8.155 -0.4635  2.7772  0.7558
  600TIP3   OH223358   1.448   0.364   0.253 -0.2859 -0.1576  0.1902
  600TIP3    H123359   1.442   0.306   0.177  3.0839 -1.4746  0.7751
  600TIP3    H223360   1.467   0.450   0.216 -1.1282 -0.2672 -0.5250
  601TIP3   OH223361   2.694   4.120   0.049 -0.0826  0.0315 -0.1876
  601TIP3    H123362   2.712   4.203   0.093 -0.5448 -0.3325  0.7132
  601TIP3    H223363   2.600   4.123   0.029 -0.1333 -0.3260 -0.0176
  602TIP3   OH223364   1.734   0.714   1.132  0.5256 -0.9098 -0.1728
  602TIP3    H123365   1.778   0.678   1.208  0.3208 -1.7981 -0.4605
  602TIP3    H223366   1.700   0.799   1.161  0.6848 -1.1173  0.6372
  603TIP3   OH223367   1.787   2.008   2.867 -0.2462 -0.1793  0.3541
  603TIP3    H123368   1.820   1.930   2.823  0.0498 -0.9547  1.8857
  603TIP3    H223369   1.711   2.034   2.816  1.8140  0.8050 -2.4214
  604TIP3   OH223370   1.757   2.520   1.808  0.1442 -0.2478 -0.1131
  604TIP3    H123371   1.687   2.582   1.785  0.1852 -0.5433 -1.0531
  604TIP3    H223372   1.809   2.511   1.728  1.0617 -0.3073  0.4724
  605TIP3   OH223373   0.467   2.741   2.759  0.1835  0.6840 -0.1858
  605TIP3    H123374   0.414   2.751   2.838 -0.8206  0.0728 -0.7747
  605TIP3    H223375   0.488   2.648   2.755  0.0752  0.6788 -0.7333
  606TIP3   OH223376   0.342   0.572   2.106  0.0858  0.2760 -0.4219
  606TIP3    H123377   0.419   0.626   2.120 -0.3138  0.7555 -0.0121
  606TIP3    H223378   0.270   0.624   2.143 -0.1536 -1.0071  0.9605
  607TIP3   OH223379   0.223   1.446   1.910  0.2856  0.0877  0.2558
  607TIP3    H123380   0.224   1.371   1.851  0.4826 -0.2932  0.7275
  607TIP3    H223381   0.242   1.521   1.855 -0.6184 -0.1193 -0.3443
  608TIP3   OH223382   1.019   5.019   2.184  0.1588  0.3931  0.1071
  608TIP3    H123383   1.097   5.035   2.238 -0.0717  0.1497  0.5154
  608TIP3    H223384   1.024   4.926   2.162 -0.4071  0.1999  0.7597
  609TIP3   OH223385   6.393   1.705   1.315 -0.4429  0.1551  0.1307
  609TIP3    H123386   6.430   1.775   1.368  1.0821 -1.5431  1.4219
  609TIP3    H223387   6.428   1.721   1.227  0.2888  0.7649  0.5182
  610TIP3   OH223388   0.581   0.249   2.627 -0.0805  0.3598 -0.1305
  610TIP3    H123389   0.590   0.227   2.719  1.5158  0.8021 -0.1441
  610TIP3    H223390   0.626   0.178   2.581 -1.8322 -0.4529 -0.6711
  611TIP3   OH223391   4.569   4.382   8.235  0.0999 -0.5476  0.1131
  611TIP3    H123392   4.580   4.370   8.141  0.5309 -1.3366  0.2625
  611TIP3    H223393   4.606   4.304   8.275 -1.0974 -0.7471  0.8970
  612TIP3   OH223394   5.487   6.023   0.998  0.4569  0.3341  0.1668
  612TIP3    H123395   5.534   5.954   0.951 -0.7519  0.9135 -2.0428
  612TIP3    H223396   5.414   6.046   0.941  0.0997  2.5775  1.3973
  613TIP3   OH223397   1.651   5.186   2.963 -0.4371  0.0958  0.1574
  613TIP3    H123398   1.696   5.242   3.026  0.6198  0.0257 -0.5152
  613TIP3    H223399   1.658   5.098   3.000 -0.4553  0.1503  0.2915
  614TIP3   OH223400   6.683   1.376   0.389  0.1141  0.2292  0.3274
  614TIP3    H123401   6.600   1.370   0.436  0.1004 -1.5509  0.1329
  614TIP3    H223402   6.749   1.384   0.459  0.1508 -3.0285  0.8122
  615TIP3   OH223403   5.211   5.831   0.714  0.2648 -0.3135 -0.2355
  615TIP3    H123404   5.297   5.830   0.756  0.4331 -0.6784 -0.5855
  615TIP3    H223405   5.191   5.739   0.696 -0.4063 -0.2666  0.2580
  616TIP3   OH223406   6.402   6.509   1.727 -0.7836 -0.1945  0.3046
  616TIP3    H123407   6.431   6.585   1.676  1.0773 -0.7729  0.4304
  616TIP3    H223408   6.389   6.543   1.816 -2.2804  0.4414 -0.1370
  617TIP3   OH223409   1.933   1.890   0.771  0.2011 -0.0621 -0.3491
  617TIP3    H123410   2.007   1.922   0.719  0.2083 -0.9048 -0.8698
  617TIP3    H223411   1.961   1.902   0.862  0.0827  1.6764 -0.4970
  618TIP3   OH223412   3.317   1.876   1.587 -0.6772  0.5997  0.5649
  618TIP3    H123413   3.333   1.814   1.516 -0.6350  0.8367  0.3672
  618TIP3    H223414   3.245   1.837   1.637 -0.1071 -0.0186  0.9309
  619TIP3   OH223415   4.811   4.661   1.973  0.0965 -0.1428  0.9815
  619TIP3    H123416   4.808   4.635   1.881  1.8177 -1.1441  1.1717
  619TIP3    H223417   4.739   4.613   2.014 -0.5229  0.1161  0.2135
  620TIP3   OH223418   6.756   2.488   2.040  0.0172  0.2465  0.2730
  620TIP3    H123419   6.845   2.523   2.030 -0.3576  0.6613 -2.7078
  620TIP3    H223420   6.759   2.403   1.996 -1.2034  0.6253 -0.6139
  621TIP3   OH223421   6.671   6.163   0.482 -0.0665  0.2241  0.0069
  621TIP3    H123422   6.616   6.233   0.448 -0.2056  0.0551 -0.1158
  621TIP3    H223423   6.756   6.204   0.497 -0.2982  0.5491  0.4494
  622TIP3   OH223424   4.126   3.047   0.617 -0.3525 -0.1023  0.4369
  622TIP3    H123425   4.160   3.024   0.703 -0.5511 -0.9475  0.3014
  622TIP3    H223426   4.063   2.977   0.596 -2.8201  1.7839  1.0433
  623TIP3   OH223427   1.267   2.299   1.008  0.0645 -0.6089 -0.5055
  623TIP3    H123428   1.268   2.381   0.959 -2.7223 -0.8730 -1.1923
  623TIP3    H223429   1.225   2.321   1.091  0.8688 -1.0098  0.0197
  624TIP3   OH223430   2.055   5.741   0.743 -0.3202  0.1207 -0.0921
  624TIP3    H123431   2.091   5.655   0.764 -1.3209 -0.0614  0.9580
  624TIP3    H223432   1.980   5.751   0.801  0.1325  1.9737  0.2517
  625TIP3   OH223433   2.174   6.683   0.211  0.1021  0.2287 -0.8250
  625TIP3    H123434   2.126   6.735   0.275 -1.5162 -1.1015 -0.8773
  625TIP3    H223435   2.180   6.739   0.134 -0.0174  0.9769 -0.3034
  626TIP3   OH223436   3.518   0.548   0.878  0.4250  0.1202 -0.3156
  626TIP3    H123437   3.485   0.609   0.812 -0.7867  1.2538  1.2548
  626TIP3    H223438   3.440   0.504   0.910  1.0707 -0.8266 -0.0277
  627TIP3   OH223439   2.819   4.446   2.446 -0.4301 -0.2801  0.0098
  627TIP3    H123440   2.905   4.470   2.480 -0.5071 -0.4992  0.3625
  627TIP3    H223441   2.778   4.396   2.517 -0.6614 -0.5863 -0.3370
  628TIP3   OH223442   3.522   3.631   2.860  0.0306 -0.6855  0.0113
  628TIP3    H123443   3.485   3.718   2.844  2.5045  0.1268 -2.0636
  628TIP3    H223444   3.575   3.642   2.939 -2.3253 -1.3419  1.8157
  629TIP3   OH223445   2.678   0.643   1.696  0.5375 -0.4416 -0.2277
  629TIP3    H123446   2.720   0.563   1.663  1.4429  0.0728 -0.3680
  629TIP3    H223447   2.671   0.700   1.620 -0.2517 -0.4437 -0.1609
  630TIP3   OH223448   4.064   4.266   3.094  0.3872 -0.1181 -0.3096
  630TIP3    H123449   4.150   4.284   3.055  0.7757  1.4145  1.1372
  630TIP3    H223450   4.037   4.349   3.133 -1.1093 -0.9387  0.5025
  631TIP3   OH223451   5.381   6.712   8.520 -0.5901  0.4968  0.4605
  631TIP3    H123452   5.391   6.699   8.426  0.1682  0.4290  0.5443
  631TIP3    H223453   5.386   6.806   8.532 -1.3478  0.5534  0.3655
  632TIP3   OH223454   4.793   1.015   8.437  0.1534  0.0683  0.4488
  632TIP3    H123455   4.871   1.005   8.491  1.2669 -1.1786 -1.3067
  632TIP3    H223456   4.818   0.981   8.351 -2.2711 -0.2002 -0.2235
  633TIP3   OH223457   1.718   2.991   7.948 -0.7032 -0.5812 -0.5044
  633TIP3    H123458   1.725   3.061   7.883  1.2283 -1.2571 -1.1019
  633TIP3    H223459   1.711   3.037   8.032 -2.4342  0.3005 -1.0844
  634TIP3   OH223460   5.203   2.643   2.055 -0.0420  0.1448 -0.4818
  634TIP3    H123461   5.145   2.568   2.041  0.3525 -0.1033 -0.8173
  634TIP3    H223462   5.157   2.717   2.016 -0.1533 -0.0395 -0.6999
  635TIP3   OH223463   2.141   2.671   1.512  0.0432 -0.0047  0.0273
  635TIP3    H123464   2.122   2.577   1.504  1.6625 -0.4123  0.4906
  635TIP3    H223465   2.064   2.715   1.475 -0.7427 -1.5109 -0.2027
  636TIP3   OH223466   6.289   3.883   1.566 -0.4025 -0.3077 -0.2633
  636TIP3    H123467   6.315   3.813   1.626 -0.2180 -0.2991 -0.3307
  636TIP3    H223468   6.341   3.867   1.487 -0.7895 -0.4375 -0.4949
  637TIP3   OH223469   5.884   1.414   2.155 -0.3260  0.0840 -0.5018
  637TIP3    H123470   5.951   1.377   2.098 -0.4823 -2.9589  1.0891
  637TIP3    H223471   5.801   1.386   2.116 -0.7120  2.1094 -1.3218
  638TIP3   OH223472   0.654   3.842   3.653  0.4691  0.1497  0.0114
  638TIP3    H123473   0.729   3.858   3.711 -0.2809  0.4696  0.9057
  638TIP3    H223474   0.608   3.926   3.650  1.3806  0.6638 -2.3828
  639TIP3   OH223475   1.423   0.104   8.368  0.4765 -0.0365  0.3194
  639TIP3    H123476   1.354   0.171   8.365 -0.1645 -0.6607  0.8078
  639TIP3    H223477   1.397   0.040   8.302  0.6257 -0.2451  0.4637
  640TIP3   OH223478   5.589   6.274   0.850  0.1613  0.2557 -0.0401
  640TIP3    H123479   5.609   6.221   0.773  0.2998  0.5854 -0.2361
  640TIP3    H223480   5.509   6.321   0.827 -0.0351  0.0341  0.1838
  641TIP3   OH223481   5.472   2.012   1.094  0.5561 -0.0159  0.1839
  641TIP3    H123482   5.394   1.990   1.146  0.3103  0.9531  0.2640
  641TIP3    H223483   5.473   2.108   1.094 -0.3534  0.1229 -2.8949
  642TIP3   OH223484   2.822   0.832   1.981  0.0747  0.2778  0.1347
  642TIP3    H123485   2.901   0.803   1.936  0.1671  0.7316  0.0051
  642TIP3    H223486   2.801   0.917   1.943 -1.1617 -0.3636 -0.6878
  643TIP3   OH223487   6.056   1.450   0.139  0.3636  0.4736 -0.5022
  643TIP3    H123488   6.062   1.418   0.049  0.9267 -1.3800  0.1567
  643TIP3    H223489   5.976   1.410   0.173 -0.7486  2.4805 -0.6375
  644TIP3   OH223490   2.330   3.988   1.817 -0.4478 -0.2774  0.3862
  644TIP3    H123491   2.382   4.064   1.846  0.7348 -0.1927 -1.7699
  644TIP3    H223492   2.370   3.963   1.734 -2.1240 -2.0185  0.0655
  645TIP3   OH223493   2.031   2.525   3.537 -0.0943 -0.2573 -0.5429
  645TIP3    H123494   1.970   2.513   3.465  0.8182 -0.2721 -1.3248
  645TIP3    H223495   2.116   2.496   3.503  0.4117  0.0069  0.4338
  646TIP3   OH223496   0.877   2.051   2.483 -0.4622 -0.1645  0.5342
  646TIP3    H123497   0.905   2.142   2.476  0.8079 -0.4333  1.7485
  646TIP3    H223498   0.782   2.055   2.486 -0.4016  1.3780  3.4151
  647TIP3   OH223499   0.724   3.717   1.922  0.3657  0.0418  0.2324
  647TIP3    H123500   0.774   3.721   1.840 -0.0564  0.1589 -0.0225
  647TIP3    H223501   0.693   3.626   1.926  0.8480 -0.1106  0.5418
  648TIP3   OH223502   6.424   4.234   2.721  0.1541  0.6762 -0.3472
  648TIP3    H123503   6.498   4.275   2.677  0.4279 -0.9750 -1.5286
  648TIP3    H223504   6.416   4.148   2.679 -0.9057 -0.1506  1.4200
  649TIP3   OH223505   4.564   1.272   1.504  0.4557 -0.0415 -1.0410
  649TIP3    H123506   4.540   1.230   1.422 -0.5167  0.8227 -1.2220
  649TIP3    H223507   4.660   1.272   1.504  0.4754  0.4060 -2.4245
  650TIP3   OH223508   2.274   3.804   3.109  0.0675 -0.6022  0.2979
  650TIP3    H123509   2.327   3.878   3.079  0.3337 -0.7607  0.3762
  650TIP3    H223510   2.193   3.844   3.139  0.1587 -0.3531  0.2153
  651TIP3   OH223511   0.000   5.023   8.620  0.3570  0.6656 -0.1702
  651TIP3    H123512   0.082   5.025   8.569 -0.3661  1.1610 -1.3579
  651TIP3    H223513  -0.062   4.977   8.564 -0.3853  0.9589  0.3982
  652TIP3   OH223514   1.041   2.544   2.754  0.6761 -0.1834  0.3582
  652TIP3    H123515   1.032   2.635   2.725 -2.7853 -0.0679  1.4013
  652TIP3    H223516   1.070   2.552   2.845  0.1168 -0.1020  0.5315
  653TIP3   OH223517   0.801   0.301   2.834 -0.3447 -0.2901  0.0551
  653TIP3    H123518   0.819   0.273   2.744 -1.2383 -1.2371  0.1473
  653TIP3    H223519   0.746   0.379   2.824  1.9629  1.4062 -0.2065
  654TIP3   OH223520   5.153   6.012   2.730  0.5261  0.5755 -0.0939
  654TIP3    H123521   5.168   6.102   2.758 -1.5835  1.0695 -0.4307
  654TIP3    H223522   5.060   6.008   2.711  0.1470 -2.2143  1.7876
  655TIP3   OH223523   4.548   0.358   0.102  0.2969 -0.2354 -0.1444
  655TIP3    H123524   4.626   0.309   0.129  0.1453 -0.3912  0.0089
  655TIP3    H223525   4.579   0.414   0.031  0.8899  0.7523  0.8528
  656TIP3   OH223526   3.883   6.748   2.980 -0.0144 -0.3171 -0.4884
  656TIP3    H123527   3.945   6.779   3.046 -0.9916  2.0164 -0.5926
  656TIP3    H223528   3.814   6.704   3.030 -0.9510  1.7712  0.1613
  657TIP3   OH223529   4.432   6.406   2.827  0.3783 -0.8914 -0.4008
  657TIP3    H123530   4.520   6.439   2.809 -0.3648  2.3099  1.2527
  657TIP3    H223531   4.405   6.451   2.907 -2.8910 -1.5746 -0.9875
  658TIP3   OH223532   6.787   2.569   3.453 -0.6158 -0.0392  0.2541
  658TIP3    H123533   6.708   2.580   3.505 -1.3901 -0.1978 -0.8472
  658TIP3    H223534   6.765   2.605   3.367  0.3944 -0.3904 -0.1736
  659TIP3   OH223535   4.856   1.249   1.459  0.1403 -0.0364  0.1569
  659TIP3    H123536   4.860   1.194   1.537 -2.8323  0.4369  0.7519
  659TIP3    H223537   4.899   1.330   1.483 -1.2545  0.3253  1.5641
  660TIP3   OH223538   4.653   2.997   1.876 -0.0471 -0.0733  0.2222
  660TIP3    H123539   4.637   2.926   1.814  1.2487 -1.6280  1.5580
  660TIP3    H223540   4.654   3.076   1.823  0.8741 -1.3028 -1.7155
  661TIP3   OH223541   0.287   2.855   0.395  0.5612  0.3172 -0.1617
  661TIP3    H123542   0.192   2.858   0.396  0.5911  1.5467  0.9867
  661TIP3    H223543   0.314   2.876   0.484  1.9140  0.5650 -0.5914
  662TIP3   OH223544   1.838   3.020   3.179  0.0929 -0.3838  0.3200
  662TIP3    H123545   1.896   3.010   3.255 -0.3508 -0.4571  0.6518
  662TIP3    H223546   1.761   2.967   3.201 -0.8168  1.0059  0.6059
  663TIP3   OH223547   3.701   5.476   7.774 -0.0056  0.1688  0.7706
  663TIP3    H123548   3.625   5.427   7.742 -0.4792  1.4045 -0.0591
  663TIP3    H223549   3.759   5.409   7.809 -1.4222 -0.8176  1.3177
  664TIP3   OH223550   4.284   5.194   7.947 -0.1875 -0.3720 -0.8354
  664TIP3    H123551   4.358   5.209   8.007 -2.6145 -0.8723  2.5493
  664TIP3    H223552   4.263   5.282   7.915  0.1525  0.1734  0.3668
  665TIP3   OH223553   2.920   5.282   1.207 -0.1512 -0.1890  0.3543
  665TIP3    H123554   2.976   5.205   1.194 -1.4036 -0.8677 -1.4465
  665TIP3    H223555   2.836   5.246   1.233 -0.6036  0.6189  0.0233
  666TIP3   OH223556   1.492   5.677   2.914  0.0212 -1.1237  0.1274
  666TIP3    H123557   1.481   5.599   2.968 -1.6542 -1.3116 -0.4156
  666TIP3    H223558   1.508   5.643   2.826 -1.6780 -0.9081 -0.2955
  667TIP3   OH223559   4.156   5.210   3.105  0.9665 -0.1297 -0.3416
  667TIP3    H123560   4.250   5.202   3.122  1.4598  1.7851 -1.7971
  667TIP3    H223561   4.117   5.227   3.191  1.9592 -0.8150  0.2573
  668TIP3   OH223562   2.641   1.767   1.729  0.2202 -0.1488  0.9612
  668TIP3    H123563   2.692   1.804   1.802  0.6545  0.2889  0.4465
  668TIP3    H223564   2.672   1.815   1.652 -2.7600  1.9883  0.9209
  669TIP3   OH223565   6.418   5.306   2.603 -0.2569  0.6992 -0.4653
  669TIP3    H123566   6.438   5.212   2.601  1.4950  1.0205 -2.4302
  669TIP3    H223567   6.347   5.316   2.540 -1.3001  0.5627  0.6651
  670TIP3   OH223568   1.457   3.735   3.330 -0.2940 -0.2652  0.4339
  670TIP3    H123569   1.393   3.798   3.297 -0.2388  0.9406  2.4988
  670TIP3    H223570   1.404   3.659   3.354 -0.6656 -0.0949  0.1788
  671TIP3   OH223571   2.063   0.474   1.554  0.4836  0.2329  0.4902
  671TIP3    H123572   2.153   0.442   1.555  0.2979 -0.3113  1.4559
  671TIP3    H223573   2.027   0.445   1.638 -0.3195  1.2164  0.5014
  672TIP3   OH223574   2.268   2.733   8.384 -0.1684 -0.5216 -0.7974
  672TIP3    H123575   2.297   2.774   8.303 -4.1390 -1.0100 -2.7289
  672TIP3    H223576   2.311   2.647   8.385  1.5742  0.3120 -1.1835
  673TIP3   OH223577   5.119   0.370   2.024 -0.6268 -0.3324  0.1787
  673TIP3    H123578   5.209   0.344   2.004 -0.2119  0.3728  1.0426
  673TIP3    H223579   5.099   0.324   2.106 -0.9962 -0.3494  0.0805
  674TIP3   OH223580   1.158   0.061   0.166  0.3671 -0.0857 -0.1733
  674TIP3    H123581   1.067   0.087   0.160  0.6464  0.8700 -0.5206
  674TIP3    H223582   1.161  -0.027   0.126 -0.6991 -0.9654  1.5732
  675TIP3   OH223583   3.378   4.731   1.194 -0.7717  0.9174 -0.5880
  675TIP3    H123584   3.384   4.730   1.289 -3.0680 -0.4354 -0.3761
  675TIP3    H223585   3.451   4.677   1.164 -2.2713 -2.0821  0.7021
  676TIP3   OH223586   6.206   0.866   0.586  0.0461  0.2786  0.2488
  676TIP3    H123587   6.164   0.791   0.545 -1.4861  0.3191  1.6191
  676TIP3    H223588   6.264   0.828   0.652  0.0025  0.2792  0.2875
  677TIP3   OH223589   1.386   2.047   2.301  0.4164 -0.1206  0.4088
  677TIP3    H123590   1.337   1.966   2.297 -1.4386  0.9733 -0.2096
  677TIP3    H223591   1.368   2.082   2.388  1.2170 -0.3576  0.6772
  678TIP3   OH223592   6.459   2.912   1.784 -0.5187  0.2729 -0.5896
  678TIP3    H123593   6.543   2.902   1.828 -0.9052  0.5506  0.2205
  678TIP3    H223594   6.396   2.924   1.855 -1.2163  0.2417 -1.1973
  679TIP3   OH223595   5.424   2.063   0.797  0.5713  0.6053  0.3049
  679TIP3    H123596   5.453   1.999   0.863 -0.6750  0.2483  0.5214
  679TIP3    H223597   5.475   2.141   0.817 -0.0576  0.6419  1.9845
  680TIP3   OH223598   5.091   2.228   2.978  0.1229  0.4750 -0.1445
  680TIP3    H123599   5.098   2.270   3.064  1.2604 -0.3012  0.1702
  680TIP3    H223600   5.182   2.207   2.955 -0.3600 -1.3387 -0.5208
  681TIP3   OH223601   4.528   1.153   2.532 -0.4912 -0.3052 -0.0863
  681TIP3    H123602   4.564   1.197   2.609 -0.6664 -0.3978  0.0495
  681TIP3    H223603   4.502   1.225   2.473  1.6785 -0.2245 -1.0347
  682TIP3   OH223604   1.408   4.877   3.264 -0.0980 -0.0361  0.2086
  682TIP3    H123605   1.454   4.854   3.345 -0.9585  1.2372  1.1138
  682TIP3    H223606   1.371   4.964   3.282 -1.8584 -0.5047 -0.8823
  683TIP3   OH223607   2.557   6.265   1.691  0.2120  0.1440  0.3475
  683TIP3    H123608   2.542   6.171   1.695  0.8749  0.0407  0.4850
  683TIP3    H223609   2.652   6.275   1.690  0.1480  0.7933 -0.1836
  684TIP3   OH223610   4.305   5.070   2.767 -0.3873 -0.7042 -0.1451
  684TIP3    H123611   4.229   5.020   2.796 -1.2360  0.9713  0.6687
  684TIP3    H223612   4.377   5.006   2.765 -1.5685 -2.0965  0.0744
  685TIP3   OH223613   6.777   6.524   2.991 -0.4608 -0.3312  0.3620
  685TIP3    H123614   6.739   6.604   3.027  0.1544 -0.3728  1.1137
  685TIP3    H223615   6.840   6.495   3.057  0.8772 -0.2671 -0.8334
  686TIP3   OH223616   1.819   2.352   3.345  0.1998  0.0687 -0.3827
  686TIP3    H123617   1.839   2.269   3.388  1.4936  0.0845 -0.8892
  686TIP3    H223618   1.760   2.329   3.273  1.2246 -0.5581 -1.0452
  687TIP3   OH223619   4.088   2.134   2.105 -0.6104  0.1908 -0.2434
  687TIP3    H123620   4.116   2.185   2.181  1.0088 -1.3933  0.3143
  687TIP3    H223621   4.155   2.066   2.096 -1.3779 -0.3683 -2.4061
  688TIP3   OH223622   6.072   4.685   8.632  0.6596 -0.6214  0.5606
  688TIP3    H123623   6.004   4.752   8.623  0.8475 -0.3321  1.2349
  688TIP3    H223624   6.141   4.711   8.572  1.0450  0.1894  1.3399
  689TIP3   OH223625   2.164   1.983   3.260  0.1862 -0.0477 -0.2980
  689TIP3    H123626   2.123   2.013   3.179  0.7566 -0.7709 -0.8659
  689TIP3    H223627   2.095   1.933   3.305  0.0655 -0.1995 -0.6512
  690TIP3   OH223628   2.993   2.767   1.613  0.2405  0.3319  0.1482
  690TIP3    H123629   3.020   2.825   1.542 -1.2875 -1.2223 -1.7983
  690TIP3    H223630   2.949   2.825   1.675  2.2938  1.8481  0.2888
  691TIP3   OH223631   0.050   2.445   0.057  0.3340  0.2032 -0.3754
  691TIP3    H123632   0.112   2.414  -0.009  0.2499 -0.8246  0.0128
  691TIP3    H223633  -0.026   2.388   0.046 -0.0310  0.6081  0.0229
  692TIP3   OH223634   0.033   2.052   1.135 -0.1487  0.3452 -0.6336
  692TIP3    H123635  -0.014   2.099   1.205 -1.0350  1.6481 -2.0568
  692TIP3    H223636  -0.032   2.041   1.066  1.0308  0.0884 -1.7281
  693TIP3   OH223637   1.996   4.667   1.630 -0.3287 -0.0759  0.2693
  693TIP3    H123638   1.949   4.751   1.628  0.0128  0.1509  1.1135
  693TIP3    H223639   1.959   4.621   1.705  0.4535 -0.0893  0.6610
  694TIP3   OH223640   4.664   4.318   0.881 -0.5194 -0.0246 -0.2326
  694TIP3    H123641   4.642   4.351   0.794 -1.6215  0.3389  0.1705
  694TIP3    H223642   4.596   4.353   0.938  0.0865 -0.4094  0.7511
  695TIP3   OH223643   5.538   2.991   0.368  0.5507 -0.7241 -0.0714
  695TIP3    H123644   5.625   3.033   0.369  0.6144 -0.8260 -0.9286
  695TIP3    H223645   5.488   3.039   0.435  1.1026 -0.3169  0.0610
  696TIP3   OH223646   2.048   0.063   3.165  0.0890  0.4736 -0.1323
  696TIP3    H123647   2.130   0.087   3.122 -0.4035 -0.1722 -1.4649
  696TIP3    H223648   2.002   0.146   3.177  0.4768  0.7219 -0.3587
  697TIP3   OH223649   1.623   1.408   1.104  0.0939  0.7445 -0.9455
  697TIP3    H123650   1.655   1.470   1.038  1.2314 -0.4220 -1.5163
  697TIP3    H223651   1.529   1.426   1.110  0.2825  2.0515 -1.5924
  698TIP3   OH223652   0.297   2.833   1.262 -0.5104 -0.9275  0.2699
  698TIP3    H123653   0.232   2.845   1.194 -0.9861 -0.4214  0.8056
  698TIP3    H223654   0.266   2.757   1.313  0.1578 -1.6859 -0.4226
  699TIP3   OH223655   2.374   0.500   8.426  0.1694 -0.0270  0.4477
  699TIP3    H123656   2.345   0.411   8.406  1.7465 -0.1995 -1.3701
  699TIP3    H223657   2.468   0.498   8.411  0.7262  1.2312  3.3104
  700TIP3   OH223658   2.823   4.812   8.495  0.2314 -0.2590  0.2973
  700TIP3    H123659   2.781   4.762   8.565 -0.2666 -0.2509  0.0150
  700TIP3    H223660   2.770   4.792   8.417  1.9749 -1.9263 -0.5530
  701TIP3   OH223661   2.454   1.386   2.371 -1.1033 -0.0065 -0.4590
  701TIP3    H123662   2.372   1.413   2.410 -0.6507  3.1291 -1.4487
  701TIP3    H223663   2.464   1.442   2.294  1.1555 -1.4753 -1.3391
  702TIP3   OH223664   3.370   2.035   3.055  0.0376 -0.1104  0.0635
  702TIP3    H123665   3.435   1.978   3.097  0.5742 -0.0660 -0.6760
  702TIP3    H223666   3.420   2.084   2.990 -0.7566 -0.1534 -0.5941
  703TIP3   OH223667   2.068   5.085   1.111  0.0226 -0.1646  0.0296
  703TIP3    H123668   2.131   5.127   1.170  0.6561  0.6693 -1.1946
  703TIP3    H223669   2.103   4.998   1.095  1.3750  0.5785 -1.3080
  704TIP3   OH223670   3.945   2.650   2.036 -0.2745  0.2060  0.0725
  704TIP3    H123671   3.977   2.603   2.114  0.0393 -1.3599 -0.9623
  704TIP3    H223672   3.890   2.587   1.990  0.1558  0.8447 -1.3799
  705TIP3   OH223673   3.880   1.752   3.324  0.1371  0.4437  0.0071
  705TIP3    H123674   3.858   1.797   3.406 -0.8009  0.9430 -0.4968
  705TIP3    H223675   3.834   1.668   3.331  2.3585 -0.7795  1.2054
  706TIP3   OH223676   4.593   4.118   7.880  0.2262  0.7730  0.2238
  706TIP3    H123677   4.663   4.071   7.927 -0.6666 -0.7691  0.0696
  706TIP3    H223678   4.623   4.209   7.878  2.3389  0.1199 -0.0426
  707TIP3   OH223679   4.910   2.234   1.716  0.6704 -0.3449  0.3149
  707TIP3    H123680   4.823   2.271   1.701  0.5825 -0.3771  0.7486
  707TIP3    H223681   4.916   2.223   1.811  1.8083  1.2931  0.4900
  708TIP3   OH223682   3.752   5.469   3.219 -0.1452 -0.1021  0.4697
  708TIP3    H123683   3.670   5.503   3.254  0.0981  0.4070  0.5592
  708TIP3    H223684   3.749   5.490   3.125 -0.6058 -1.0810  0.2541
  709TIP3   OH223685   3.155   4.583   0.259 -0.3337  0.0646 -0.0927
  709TIP3    H123686   3.125   4.614   0.344  0.8145  1.2228 -0.0845
  709TIP3    H223687   3.123   4.648   0.197 -1.5256 -0.9892 -0.6367
  710TIP3   OH223688   6.216   6.171   3.664 -0.1111 -0.7793  0.2293
  710TIP3    H123689   6.208   6.265   3.681 -0.4788 -1.0626  1.8254
  710TIP3    H223690   6.289   6.143   3.719 -1.8209 -1.8955  2.1100
  711TIP3   OH223691   2.822   3.442   2.358 -0.1212  0.0030 -0.4338
  711TIP3    H123692   2.847   3.354   2.328  0.4068  0.2820 -0.8254
  711TIP3    H223693   2.829   3.496   2.280 -2.2039  0.0600 -0.6374
  712TIP3   OH223694   0.164   3.990   1.242 -0.1290 -0.2001  0.3041
  712TIP3    H123695   0.104   3.918   1.221  0.3024 -1.4976  3.0504
  712TIP3    H223696   0.114   4.048   1.298 -0.0978  1.0903 -0.9366
  713TIP3   OH223697   5.769   3.116   0.358 -0.3197  0.5188  0.6484
  713TIP3    H123698   5.836   3.060   0.397 -0.5950 -0.6212 -0.4158
  713TIP3    H223699   5.815   3.163   0.288 -0.2195  1.2218  1.1699
  714TIP3   OH223700   1.380   2.437   0.167  0.2100  0.5282  0.5415
  714TIP3    H123701   1.466   2.469   0.141  0.4914 -1.6777 -1.6661
  714TIP3    H223702   1.393   2.343   0.178 -1.8539  0.1883  0.3626
  715TIP3   OH223703   3.383   6.306   1.199 -0.2361  0.1038 -0.1260
  715TIP3    H123704   3.372   6.398   1.224  0.3726  0.6792 -1.8600
  715TIP3    H223705   3.414   6.264   1.279  1.0035  1.7212  0.3138
  716TIP3   OH223706   3.026   3.311   0.788 -0.3552  0.3459  0.2351
  716TIP3    H123707   2.969   3.385   0.766 -1.7133 -0.5755  0.5121
  716TIP3    H223708   2.975   3.260   0.851  0.1457 -1.2962 -0.6211
  717TIP3   OH223709   4.834   5.830   1.009  0.0295  0.4147  0.4045
  717TIP3    H123710   4.763   5.781   1.050 -0.9371  0.3632 -1.2189
  717TIP3    H223711   4.874   5.880   1.080 -0.6923 -0.6672  1.6094
  718TIP3   OH223712   5.455   3.993   3.190 -0.1404  0.4293  0.2631
  718TIP3    H123713   5.471   4.039   3.107 -0.6350 -0.1707 -0.1724
  718TIP3    H223714   5.541   3.989   3.232  0.2776 -0.0136 -0.6165
  719TIP3   OH223715   0.134   0.877   0.147 -0.1377  0.0867  0.2871
  719TIP3    H123716   0.146   0.805   0.085 -0.2771  1.4194 -1.3669
  719TIP3    H223717   0.045   0.866   0.181 -1.4442  1.2081 -2.4313
  720TIP3   OH223718   5.727   1.177   3.215 -0.9249  0.9137 -1.0387
  720TIP3    H123719   5.738   1.149   3.305  1.7109 -1.6247 -2.0012
  720TIP3    H223720   5.788   1.250   3.204  1.3724 -0.9581 -1.5133
  721TIP3   OH223721   1.722   3.645   3.418 -0.1907  0.7332 -0.5579
  721TIP3    H123722   1.648   3.652   3.357 -1.0291 -1.3210  0.1142
  721TIP3    H223723   1.795   3.615   3.364 -0.5546  0.3055 -0.8274
  722TIP3   OH223724   1.910   2.148   1.309 -0.7086  0.3705 -0.0104
  722TIP3    H123725   1.857   2.079   1.348 -2.6869  1.8725  0.1698
  722TIP3    H223726   1.873   2.160   1.221  1.7051 -0.9101 -1.2914
  723TIP3   OH223727   6.730   2.102   2.679 -0.0476  0.0841  0.2787
  723TIP3    H123728   6.659   2.091   2.742 -0.6481  1.9731 -0.0117
  723TIP3    H223729   6.766   2.014   2.668 -0.4398 -0.4225  2.6304
  724TIP3   OH223730   1.654   5.307   2.301  0.6865  0.2146 -0.3313
  724TIP3    H123731   1.579   5.273   2.253  0.6937 -0.1300 -0.1016
  724TIP3    H223732   1.729   5.285   2.246  1.0267 -2.7652  1.1025
  725TIP3   OH223733   2.681   6.017   1.980  0.2294  0.0786 -0.3229
  725TIP3    H123734   2.773   6.040   1.970  0.2688  0.7066  1.2028
  725TIP3    H223735   2.664   6.026   2.074 -0.9098 -1.8612 -0.2791
  726TIP3   OH223736   3.799   5.824   1.405  0.4138  0.3424  0.4339
  726TIP3    H123737   3.846   5.879   1.468 -0.4054  0.1510  1.2438
  726TIP3    H223738   3.866   5.796   1.343  1.6565 -0.8451  2.2003
  727TIP3   OH223739   5.406   3.700   1.676  0.2200  0.2494  0.0310
  727TIP3    H123740   5.311   3.692   1.685  0.2461  0.1542  0.2217
  727TIP3    H223741   5.420   3.792   1.651  0.1509  0.5460  1.0596
  728TIP3   OH223742   1.010   1.858   2.264  0.1411 -0.1412  0.1266
  728TIP3    H123743   1.016   1.836   2.171  0.7428  1.0835 -0.1435
  728TIP3    H223744   0.992   1.952   2.265  0.0997 -0.1527  1.2540
  729TIP3   OH223745   1.258   3.979   7.625  0.4999 -0.0215 -0.4622
  729TIP3    H123746   1.193   3.916   7.593  0.1621  0.7649 -1.3744
  729TIP3    H223747   1.207   4.040   7.680  0.4043  0.7385 -1.3753
  730TIP3   OH223748   1.112   1.048   0.584 -0.2915 -0.1409  0.4171
  730TIP3    H123749   1.115   0.957   0.611 -0.0485  0.3229  2.0533
  730TIP3    H223750   1.172   1.053   0.509  0.5422 -1.1141  0.9961
  731TIP3   OH223751   5.707   5.188   3.270  0.7091  0.0329  0.7432
  731TIP3    H123752   5.657   5.245   3.327 -1.9599 -3.3465  2.1240
  731TIP3    H223753   5.775   5.151   3.327  0.7044 -0.1686  0.6201
  732TIP3   OH223754   3.672   4.625   0.145  0.0446  0.4695 -0.4550
  732TIP3    H123755   3.703   4.576   0.069 -1.6858  0.6584 -1.3236
  732TIP3    H223756   3.684   4.564   0.219 -0.3921 -0.5956 -1.2325
  733TIP3   OH223757   0.682   1.671   7.590 -0.0295  0.5219 -0.4509
  733TIP3    H123758   0.760   1.677   7.536  0.3380  0.1350  0.0278
  733TIP3    H223759   0.663   1.762   7.615 -0.9571  0.8668 -2.2545
  734TIP3   OH223760   3.711   1.859   0.844  0.0364 -0.0296  0.0537
  734TIP3    H123761   3.635   1.875   0.788  0.2263 -2.1188 -0.8847
  734TIP3    H223762   3.675   1.825   0.926 -0.0580 -1.8800 -0.7157
  735TIP3   OH223763   4.351   3.614   1.505  0.2031  0.1893  0.4394
  735TIP3    H123764   4.421   3.559   1.468  0.2687  1.4573 -1.4693
  735TIP3    H223765   4.272   3.562   1.492  0.3758  0.1378 -0.5449
  736TIP3   OH223766   0.632   3.815   2.857  0.7418  0.8088  0.1694
  736TIP3    H123767   0.629   3.845   2.766 -1.0945  1.5805  0.4480
  736TIP3    H223768   0.724   3.790   2.870  1.0932  0.8483 -1.8242
  737TIP3   OH223769   1.724   6.120   8.205  0.1791  0.4359 -0.1367
  737TIP3    H123770   1.704   6.028   8.185 -0.3307  0.6416 -0.5866
  737TIP3    H223771   1.675   6.170   8.140 -0.0277  1.0564  0.4879
  738TIP3   OH223772   0.148   4.772   3.158  0.6562  0.3273  0.0696
  738TIP3    H123773   0.054   4.772   3.139  0.1999 -3.6779  1.4215
  738TIP3    H223774   0.153   4.785   3.253  1.5192  0.6240 -0.0070
  739TIP3   OH223775   1.418   5.909   3.074  0.0854 -0.0594 -0.0162
  739TIP3    H123776   1.324   5.899   3.058  0.1074 -0.8563  0.2698
  739TIP3    H223777   1.458   5.840   3.022  0.4954  0.1568  0.0150
  740TIP3   OH223778   5.259   1.383   0.554 -0.0288 -0.1599 -1.2843
  740TIP3    H123779   5.301   1.352   0.474 -0.8055 -2.7699 -0.7824
  740TIP3    H223780   5.318   1.354   0.624 -0.1582  0.6619 -0.8282
  741TIP3   OH223781   3.599   2.101   3.813  0.3798  0.1341 -0.1739
  741TIP3    H123782   3.669   2.156   3.849  0.5110  0.1590 -0.4650
  741TIP3    H223783   3.646   2.030   3.769  0.2142 -0.8386  1.1413
  742TIP3   OH223784   6.019   1.233   0.818  0.0627  0.0748 -0.3338
  742TIP3    H123785   6.059   1.319   0.828  0.2002  0.0825 -0.9012
  742TIP3    H223786   6.037   1.209   0.727  0.9005 -0.9824  0.0853
  743TIP3   OH223787   5.644   5.885   8.326  0.5792  0.1925 -0.2823
  743TIP3    H123788   5.578   5.854   8.265  2.1987 -1.6446 -1.2021
  743TIP3    H223789   5.653   5.978   8.307  0.4315 -0.1662 -2.2933
  744TIP3   OH223790   6.669   2.080   8.608  0.1296  0.3985  0.3730
  744TIP3    H123791   6.699   2.125   8.529 -0.3450  0.5848  0.2984
  744TIP3    H223792   6.750   2.056   8.654  0.5043 -1.6146 -1.1934
  745TIP3   OH223793   1.526   2.793   1.501 -0.4919 -0.0264  0.2833
  745TIP3    H123794   1.581   2.871   1.500 -0.1802 -0.2447 -0.4669
  745TIP3    H223795   1.437   2.826   1.488 -0.5454  0.3281  1.4916
  746TIP3   OH223796   0.705   1.492   8.360  0.1948 -0.0299  0.0066
  746TIP3    H123797   0.616   1.523   8.349  0.8814  1.3868 -2.3280
  746TIP3    H223798   0.755   1.569   8.387  0.7521 -0.7670  1.1448
  747TIP3   OH223799   3.085   2.059   1.620 -0.1113 -0.1611  0.4315
  747TIP3    H123800   3.180   2.062   1.629 -0.0376  0.9031 -0.4999
  747TIP3    H223801   3.065   1.966   1.612  0.3883 -0.8329  4.6800
  748TIP3   OH223802   4.711   6.189   3.226  0.3003 -0.7301 -0.6196
  748TIP3    H123803   4.659   6.229   3.156 -1.7796 -1.5690  0.3688
  748TIP3    H223804   4.782   6.252   3.242 -1.7341  1.6780 -0.4420
  749TIP3   OH223805   1.807   5.457   8.635 -0.4223  0.5273 -0.4272
  749TIP3    H123806   1.742   5.525   8.649 -0.0765  0.7852 -0.0907
  749TIP3    H223807   1.890   5.496   8.660 -0.2101  0.0086 -0.2951
  750TIP3   OH223808   0.568   2.910   3.788  0.4352  0.5961  0.2038
  750TIP3    H123809   0.583   2.827   3.833 -2.8315  0.7984  1.9363
  750TIP3    H223810   0.550   2.885   3.697  1.1123 -0.4028  0.3265
  751TIP3   OH223811   0.039   6.418   3.243 -0.2398 -0.0070 -0.4793
  751TIP3    H123812  -0.027   6.488   3.251 -0.3836  0.0056 -1.6210
  751TIP3    H223813   0.013   6.353   3.309  0.5323  1.4836  1.3835
  752TIP3   OH223814   6.219   4.117   1.442 -0.4065 -0.3582  0.3717
  752TIP3    H123815   6.220   4.034   1.489  2.0382 -0.0465  1.0495
  752TIP3    H223816   6.275   4.175   1.496 -0.5692  1.1594 -1.0063
  753TIP3   OH223817   1.735   5.902   2.933  0.3693 -0.2276  0.7619
  753TIP3    H123818   1.680   5.833   2.971 -0.3859  0.0039  0.1396
  753TIP3    H223819   1.711   5.902   2.840  0.0340  1.1548  0.8225
  754TIP3   OH223820   0.027   3.758   1.208 -0.3502  0.2606  0.2263
  754TIP3    H123821  -0.028   3.745   1.285 -0.4422  0.9570  0.2900
  754TIP3    H223822  -0.032   3.744   1.134 -0.2454 -0.4767  0.2753
  755TIP3   OH223823   5.026   5.667   2.709 -0.4407 -0.7024  0.4815
  755TIP3    H123824   4.945   5.718   2.702 -0.0807 -0.0240  1.1661
  755TIP3    H223825   5.038   5.655   2.803 -0.3574 -1.8100  0.3444
  756TIP3   OH223826   0.831   2.966   0.825 -0.3576  0.2227  0.0815
  756TIP3    H123827   0.809   2.891   0.881 -1.4444  0.6354  0.2291
  756TIP3    H223828   0.758   2.972   0.764  0.6622 -0.0212 -1.2043
  757TIP3   OH223829   6.552   4.281   3.647 -0.4770  0.3291  0.2919
  757TIP3    H123830   6.622   4.217   3.660 -0.2364  0.6809  0.7639
  757TIP3    H223831   6.490   4.237   3.589  0.8423  0.5170 -1.3729
  758TIP3   OH223832   3.697   1.665   1.211  0.3980 -0.8660  0.6465
  758TIP3    H123833   3.743   1.605   1.152 -0.9564 -1.3905  0.0832
  758TIP3    H223834   3.761   1.684   1.279  0.7840 -3.2355  1.0478
  759TIP3   OH223835   0.077   6.368   2.602 -0.1321  0.2532  0.3904
  759TIP3    H123836   0.142   6.404   2.542 -1.2553 -0.2579 -1.2158
  759TIP3    H223837   0.052   6.442   2.658  1.5611  0.5250  0.8240
  760TIP3   OH223838   0.249   0.989   1.490  0.2676 -0.6241 -0.5105
  760TIP3    H123839   0.168   0.939   1.497 -0.1104  0.0586  0.0880
  760TIP3    H223840   0.223   1.073   1.451  0.1445  0.7302  2.2521
  761TIP3   OH223841   5.211   5.755   1.948 -0.1423  0.3686 -0.0211
  761TIP3    H123842   5.269   5.707   2.007  2.0642  1.2760 -1.3163
  761TIP3    H223843   5.241   5.731   1.861 -2.2097  0.3719 -0.7956
  762TIP3   OH223844   4.910   3.222   1.892  0.5420  0.0137 -0.0148
  762TIP3    H123845   4.955   3.298   1.927 -0.4440  0.8991 -0.6172
  762TIP3    H223846   4.821   3.228   1.925  0.6094 -1.2437  0.4587
  763TIP3   OH223847   1.760   0.033   2.056 -0.1727 -0.4725  0.2818
  763TIP3    H123848   1.739  -0.050   2.014 -2.0499  0.1986 -0.2483
  763TIP3    H223849   1.798   0.086   1.986 -2.1397  0.2178 -0.3445
  764TIP3   OH223850   1.337   3.715   1.274 -0.1171 -0.2153  0.6925
  764TIP3    H123851   1.289   3.796   1.258  0.7842  0.2688  0.3527
  764TIP3    H223852   1.397   3.709   1.200 -2.2611 -2.8132 -1.0140
  765TIP3   OH223853   5.789   4.221   1.886  0.2285  0.0033  0.6050
  765TIP3    H123854   5.815   4.305   1.848  1.1190 -0.2602  0.6000
  765TIP3    H223855   5.748   4.244   1.969 -0.6970  0.5144  0.0184
  766TIP3   OH223856   2.019   6.734   1.063 -0.0472 -0.1254  0.6219
  766TIP3    H123857   2.061   6.818   1.081 -0.1171 -0.4918  2.7716
  766TIP3    H223858   2.091   6.673   1.046  0.3534 -0.5949  3.5959
  767TIP3   OH223859   5.144   4.592   2.732  0.4328 -0.0724  0.3634
  767TIP3    H123860   5.113   4.645   2.658  0.2766 -0.7147 -0.0367
  767TIP3    H223861   5.066   4.549   2.766  0.8113 -1.5051 -0.4951
  768TIP3   OH223862   1.644   3.300   0.153 -0.3628  0.8305  0.0028
  768TIP3    H123863   1.561   3.270   0.190 -0.7335  1.9427  0.0996
  768TIP3    H223864   1.705   3.228   0.169 -2.2610 -2.0632 -3.9100
  769TIP3   OH223865   1.611   6.466   1.754 -0.1770 -0.3630 -0.3302
  769TIP3    H123866   1.585   6.388   1.803 -0.4431  0.3055  0.6201
  769TIP3    H223867   1.664   6.517   1.816 -0.7081  0.6110 -0.6553
  770TIP3   OH223868   6.143   6.392   8.163  0.0834 -0.1248  0.0022
  770TIP3    H123869   6.088   6.314   8.171 -1.8697  1.3174  1.6866
  770TIP3    H223870   6.173   6.391   8.072 -0.3088 -2.5092 -0.1769
  771TIP3   OH223871   2.131   3.942   2.420 -0.3943  0.3684 -0.0167
  771TIP3    H123872   2.211   3.992   2.403 -0.1072 -0.3468 -0.9028
  771TIP3    H223873   2.060   3.998   2.389 -0.1585  0.6595 -0.0277
  772TIP3   OH223874   0.642   3.717   0.234 -0.6288 -0.1619 -0.3005
  772TIP3    H123875   0.654   3.709   0.329 -0.0450  0.9149 -0.2686
  772TIP3    H223876   0.726   3.750   0.202 -1.6932  2.2413 -0.8130
  773TIP3   OH223877   3.903   0.980   1.621  0.0319  0.2921  0.4767
  773TIP3    H123878   3.878   1.073   1.613 -0.2795  0.2691  1.1273
  773TIP3    H223879   3.982   0.981   1.674  0.2254  0.2078  0.1912
  774TIP3   OH223880   2.998   3.145   1.044 -0.2172  0.0056 -0.0811
  774TIP3    H123881   2.905   3.158   1.028 -0.5496 -1.2913  0.7112
  774TIP3    H223882   3.017   3.202   1.119 -0.7679 -0.9932  0.8378
  775TIP3   OH223883   0.999   4.333   0.808  0.6014  0.2675 -0.3958
  775TIP3    H123884   1.035   4.374   0.887 -0.6357  1.0067 -0.2017
  775TIP3    H223885   1.038   4.382   0.736  0.4848  0.6443 -0.2045
  776TIP3   OH223886   6.030   2.951   0.845  0.5410 -0.1236 -0.4636
  776TIP3    H123887   6.045   3.016   0.913 -0.1074  0.5076 -0.9076
  776TIP3    H223888   5.935   2.952   0.830  0.1759 -2.6848  0.9984
  777TIP3   OH223889   5.790   2.729   8.216 -0.1366  0.2585  0.5992
  777TIP3    H123890   5.826   2.695   8.134  0.2894  2.1015 -0.0266
  777TIP3    H223891   5.781   2.823   8.201  0.7301  0.7753  2.9654
  778TIP3   OH223892   6.611   1.591   8.339 -0.0212 -0.1206 -0.2167
  778TIP3    H123893   6.560   1.647   8.398 -1.6560 -0.8788 -0.8490
  778TIP3    H223894   6.678   1.649   8.302 -1.4568  1.3519 -0.6176
  779TIP3   OH223895   5.848   6.511   1.839 -0.3010 -0.3957 -0.3446
  779TIP3    H123896   5.832   6.569   1.765 -1.6886 -1.5071 -0.9704
  779TIP3    H223897   5.941   6.522   1.859 -0.0835  0.5302 -1.7321
  780TIP3   OH223898   2.868   3.027   0.580 -0.7977 -0.7264 -0.4953
  780TIP3    H123899   2.841   2.995   0.666 -0.0345 -2.5897 -0.8962
  780TIP3    H223900   2.824   3.112   0.570 -0.6687 -0.3374  1.8343
  781TIP3   OH223901   1.581   5.402   0.616  0.3860 -0.4407 -0.3233
  781TIP3    H123902   1.646   5.348   0.662  0.8738  1.6738  1.6424
  781TIP3    H223903   1.630   5.479   0.588 -1.1767  1.0706  0.9333
  782TIP3   OH223904   3.465   5.944   1.624  0.5576  0.2834  0.1382
  782TIP3    H123905   3.457   6.038   1.643 -1.5589 -0.4437  3.6771
  782TIP3    H223906   3.391   5.925   1.566  0.9553  0.7416 -0.5405
  783TIP3   OH223907   0.553   5.718   2.280  0.3410  0.1541  0.2425
  783TIP3    H123908   0.466   5.726   2.242  0.2931 -0.1751  0.2819
  783TIP3    H223909   0.558   5.628   2.312  1.5490 -0.5835 -1.8476
  784TIP3   OH223910   6.794   2.884   3.079  0.0139 -0.1060 -0.1826
  784TIP3    H123911   6.797   2.943   3.155  0.5992 -0.4688  0.0896
  784TIP3    H223912   6.790   2.943   3.003 -1.2284  0.2508  0.1470
  785TIP3   OH223913   0.884   3.854   0.217  0.0302  0.1654 -0.2754
  785TIP3    H123914   0.962   3.907   0.234  0.3166 -0.0029 -1.0513
  785TIP3    H223915   0.822   3.916   0.178  0.3597 -0.0619 -1.1687
  786TIP3   OH223916   0.439   2.516   1.425  0.4446  0.0415  0.3144
  786TIP3    H123917   0.366   2.547   1.478 -0.0774 -0.0178 -0.3564
  786TIP3    H223918   0.516   2.529   1.481 -0.2117 -1.0857  1.5269
  787TIP3   OH223919   3.059   1.380   0.800 -0.0391  0.0063  0.5624
  787TIP3    H123920   3.069   1.366   0.894  1.3131 -2.4683  0.1343
  787TIP3    H223921   3.021   1.298   0.767 -1.3109  1.1386 -0.9589
  788TIP3   OH223922   5.712   0.691   2.694  0.0570 -0.6785  0.0656
  788TIP3    H123923   5.624   0.726   2.691  0.4027  0.1728 -0.2853
  788TIP3    H223924   5.752   0.733   2.771  0.0256 -1.4004  0.4912
  789TIP3   OH223925   1.016   0.531   2.234  0.0653 -0.1668 -0.2298
  789TIP3    H123926   1.026   0.573   2.148 -1.5219  2.3766  0.7216
  789TIP3    H223927   1.096   0.553   2.281 -0.0698  0.4494 -0.2845
  790TIP3   OH223928   0.450   6.714   2.441  0.1355 -0.0533 -0.6708
  790TIP3    H123929   0.453   6.708   2.345  0.8152  0.1674 -0.6701
  790TIP3    H223930   0.433   6.806   2.459 -1.3052 -0.3256 -0.5888
  791TIP3   OH223931   2.477   2.316   0.643  0.0385  0.6151 -0.0639
  791TIP3    H123932   2.427   2.349   0.568 -2.1547 -0.9840  0.6053
  791TIP3    H223933   2.469   2.383   0.710  1.1423  1.5833 -0.8585
  792TIP3   OH223934   0.091   1.271   2.534 -0.2998 -0.7279  0.4160
  792TIP3    H123935   0.186   1.254   2.539  0.0120  0.3583 -1.0212
  792TIP3    H223936   0.069   1.306   2.620  1.2788  1.9076 -0.1338
  793TIP3   OH223937   5.291   6.424   2.364  0.6056 -0.4628  0.6179
  793TIP3    H123938   5.273   6.331   2.379 -1.7476  0.1128  1.8766
  793TIP3    H223939   5.269   6.438   2.271  1.5898 -1.2496  0.2467
  794TIP3   OH223940   4.077   1.362   2.143  0.2835 -0.3673  0.1448
  794TIP3    H123941   4.057   1.455   2.157  1.0836 -0.2594  0.6527
  794TIP3    H223942   4.082   1.353   2.048 -0.3302 -0.0141  0.0669
  795TIP3   OH223943   5.779   5.026   8.471 -0.0954 -0.6166 -0.5544
  795TIP3    H123944   5.705   5.010   8.413 -0.7887  0.8165 -0.0983
  795TIP3    H223945   5.846   5.064   8.414  0.2989 -1.8434 -0.9508
  796TIP3   OH223946   5.389   6.833   7.674 -0.1307 -0.2836  0.3007
  796TIP3    H123947   5.330   6.794   7.738  0.9172 -1.1980  0.7550
  796TIP3    H223948   5.333   6.858   7.601 -1.3285  0.6840  1.5208
  797TIP3   OH223949   2.426   4.839   0.877  0.1530  0.3202  0.3780
  797TIP3    H123950   2.340   4.863   0.845 -1.0823  0.2774  3.3579
  797TIP3    H223951   2.452   4.912   0.934  0.6897 -0.9608  1.8579
  798TIP3   OH223952   3.288   3.939   3.226 -0.4226 -0.4583 -0.3485
  798TIP3    H123953   3.307   3.882   3.301  1.0297 -1.1427 -1.1926
  798TIP3    H223954   3.354   4.008   3.232 -0.2706 -0.5392 -1.0032
  799TIP3   OH223955   5.423   6.463   7.908  0.2925  0.2000  0.1397
  799TIP3    H123956   5.497   6.449   7.848 -2.0274  0.9945 -3.2390
  799TIP3    H223957   5.425   6.557   7.925 -0.7049  0.4860 -1.1817
  800TIP3   OH223958   3.091   1.877   0.963  0.5917  0.0456  0.0516
  800TIP3    H123959   3.016   1.822   0.941 -1.2686  2.0225  1.1063
  800TIP3    H223960   3.103   1.934   0.887  0.7627  0.0071  0.0497
  801TIP3   OH223961   2.765   4.590   1.838  0.1224 -0.0716 -0.3717
  801TIP3    H123962   2.755   4.684   1.823 -0.1118 -0.1103 -0.4666
  801TIP3    H223963   2.860   4.577   1.846  0.2571 -0.0019 -1.5973
  802TIP3   OH223964   5.287   4.447   1.618 -0.0369 -0.0803  0.9355
  802TIP3    H123965   5.275   4.477   1.528  0.8019  0.3151  0.9343
  802TIP3    H223966   5.333   4.520   1.660  0.0361 -0.4742  1.5412
  803TIP3   OH223967   5.853   2.352   3.329  0.0662 -0.4045  0.2423
  803TIP3    H123968   5.769   2.308   3.335 -0.6772  0.9902  0.3743
  803TIP3    H223969   5.838   2.439   3.365  0.9427  0.7138 -1.9230
  804TIP3   OH223970   1.691   6.861   8.361  0.8035 -0.2843 -0.1615
  804TIP3    H123971   1.634   6.784   8.356 -1.0632  1.0462 -0.4504
  804TIP3    H223972   1.631   6.935   8.359  2.6160  1.2403 -1.5970
  805TIP3   OH223973   3.057   0.741   1.855  0.0327 -0.0413 -0.0857
  805TIP3    H123974   3.135   0.762   1.906 -1.5445  1.7736  1.7873
  805TIP3    H223975   3.051   0.812   1.790 -0.4276  0.2508  0.2670
  806TIP3   OH223976   6.023   6.689   0.965 -0.3447 -0.4098  0.1292
  806TIP3    H123977   6.046   6.658   0.877 -0.3954  1.1810 -0.4655
  806TIP3    H223978   5.931   6.665   0.975 -0.1398 -1.2741  0.0719
  807TIP3   OH223979   6.812   5.121   1.075  0.6611 -0.1713 -0.3898
  807TIP3    H123980   6.875   5.122   1.003  1.7584  0.6278  0.5465
  807TIP3    H223981   6.837   5.195   1.130 -0.9681  0.0190  0.1375
  808TIP3   OH223982   6.562   1.342   1.660 -0.1964  0.1479 -0.0962
  808TIP3    H123983   6.591   1.423   1.619  0.4712 -0.3138 -0.5785
  808TIP3    H223984   6.600   1.273   1.605  0.0298 -0.4879  0.8280
  809TIP3   OH223985   0.531   4.823   8.605  0.3867 -0.2956  0.0469
  809TIP3    H123986   0.589   4.880   8.655  2.2399 -1.1435 -1.0195
  809TIP3    H223987   0.530   4.741   8.654 -1.8595  0.4042  1.3018
  810TIP3   OH223988   4.312   4.463   8.347  0.1577 -0.0500  0.1368
  810TIP3    H123989   4.380   4.439   8.284  2.5550  0.4044  2.3639
  810TIP3    H223990   4.307   4.559   8.342 -0.4544 -0.1001 -0.1691
  811TIP3   OH223991   2.203   5.952   0.957  0.2280  0.1132 -0.8334
  811TIP3    H123992   2.230   5.888   0.891 -0.8553 -2.1110  0.7292
  811TIP3    H223993   2.108   5.938   0.965  0.0958  1.3984  0.1290
  812TIP3   OH223994   3.775   4.836   1.258 -0.2368 -0.5193 -0.6366
  812TIP3    H123995   3.751   4.885   1.179 -1.5699  1.1412  0.7344
  812TIP3    H223996   3.718   4.760   1.257  1.4581 -1.8630 -2.4969
  813TIP3   OH223997   3.469   1.693   0.169  0.7786  0.8225  0.2228
  813TIP3    H123998   3.430   1.676   0.083 -0.8492  0.1578  1.0422
  813TIP3    H223999   3.563   1.697   0.152  0.4983  0.7136 -1.5842
  814TIP3   OH224000   6.370   0.248   2.082 -0.2409  0.0419  0.2370
  814TIP3    H124001   6.366   0.343   2.090 -0.3391  0.2181 -1.4883
  814TIP3    H224002   6.463   0.228   2.077 -0.2369  0.1074  0.0458
  815TIP3   OH224003   5.996   1.513   2.527  0.4556  0.1161  0.1917
  815TIP3    H124004   6.006   1.573   2.454 -0.9910 -0.0434 -0.1651
  815TIP3    H224005   5.983   1.427   2.487 -0.7973  0.0963  0.5994
  816TIP3   OH224006   0.480   1.825   1.026  0.4935  0.1029  1.1305
  816TIP3    H124007   0.442   1.911   1.009  0.1148 -0.2785 -0.0431
  816TIP3    H224008   0.563   1.826   0.977 -0.1145 -0.6385  0.0383
  817TIP3   OH224009   6.638   5.910   1.641  0.3345 -0.2256 -0.5615
  817TIP3    H124010   6.678   5.997   1.641  0.7117 -0.3918 -0.9584
  817TIP3    H224011   6.688   5.861   1.706  2.2136 -1.0463 -2.4794
  818TIP3   OH224012   2.369   0.098   0.271 -0.1621  0.2981 -0.2618
  818TIP3    H124013   2.316   0.095   0.191 -1.7204 -0.5102  0.7463
  818TIP3    H224014   2.324   0.163   0.326 -2.0323 -2.5351  1.8151
  819TIP3   OH224015   0.116   6.746   3.041  0.1652  0.1871  0.2250
  819TIP3    H124016   0.143   6.799   2.966  0.3721  0.5954  0.5842
  819TIP3    H224017   0.040   6.791   3.077  1.2258  1.0978  1.4299
  820TIP3   OH224018   1.123   6.775   2.483 -0.0115  0.2851  0.1965
  820TIP3    H124019   1.045   6.830   2.474  1.1852  1.9150 -0.9771
  820TIP3    H224020   1.105   6.699   2.427 -1.0805  0.2116  0.6166
  821TIP3   OH224021   0.573   2.014   7.439 -0.0635  0.0793 -0.2124
  821TIP3    H124022   0.536   1.927   7.425  1.5501 -0.7897  0.7431
  821TIP3    H224023   0.553   2.035   7.530  2.0958 -0.6231  0.4910
  822TIP3   OH224024   0.142   2.913   1.973  0.4524  0.2418 -0.2551
  822TIP3    H124025   0.198   2.883   2.045 -0.1199 -0.4272 -0.0727
  822TIP3    H224026   0.176   2.999   1.950  0.2534  0.7360  1.2276
  823TIP3   OH224027   1.541   1.005   2.192 -0.3295 -0.0884 -0.4139
  823TIP3    H124028   1.592   1.075   2.152  0.1447 -0.9647 -1.3704
  823TIP3    H224029   1.602   0.961   2.251 -0.5576  0.1294 -0.0079
  824TIP3   OH224030   0.509   5.790   7.978  0.1106 -0.2725  0.1525
  824TIP3    H124031   0.435   5.738   7.946  0.2123 -0.7754  0.7235
  824TIP3    H224032   0.514   5.864   7.917  0.9995 -1.7685 -1.6950
  825TIP3   OH224033   1.826   6.537   0.401  0.8287 -0.1405 -0.1439
  825TIP3    H124034   1.820   6.606   0.336  3.4611 -0.4753 -0.8845
  825TIP3    H224035   1.880   6.575   0.471  0.4588 -0.7335  0.4735
  826TIP3   OH224036   4.326   0.548   2.872  0.3561  0.1180  0.1517
  826TIP3    H124037   4.323   0.496   2.792 -1.4032 -1.2781  1.0632
  826TIP3    H224038   4.359   0.488   2.939  2.6905  1.5234  0.3787
  827TIP3   OH224039   1.295   5.445   2.769  0.0613  0.1561  0.5178
  827TIP3    H124040   1.323   5.444   2.677 -0.7892 -0.4709  0.2532
  827TIP3    H224041   1.303   5.536   2.796  1.8549  0.1026  0.3097
  828TIP3   OH224042   6.638   0.958   0.975  0.0758  0.0948 -0.0792
  828TIP3    H124043   6.697   0.886   1.001 -0.0306  0.3043  0.7804
  828TIP3    H224044   6.694   1.019   0.927  0.3692 -0.1145 -0.0073
  829TIP3   OH224045   3.678   3.718   2.181 -0.4318 -0.1375  0.1620
  829TIP3    H124046   3.641   3.758   2.103 -0.6891 -1.0895 -0.2071
  829TIP3    H224047   3.605   3.711   2.242 -0.4021 -0.1144  0.2005
  830TIP3   OH224048   6.741   6.626   3.317 -0.2560 -0.5635 -0.0152
  830TIP3    H124049   6.693   6.564   3.372 -1.8871 -0.6735 -1.5015
  830TIP3    H224050   6.710   6.712   3.346  2.5493 -0.2471  2.5632
  831TIP3   OH224051   1.311   1.792   0.793 -0.2508  0.3873 -0.7844
  831TIP3    H124052   1.236   1.770   0.848 -0.3820  0.5290 -0.9054
  831TIP3    H224053   1.273   1.837   0.717  0.0399  1.4431 -0.3298
  832TIP3   OH224054   5.986   3.062   0.574  0.3542  0.7806 -0.5533
  832TIP3    H124055   6.014   3.152   0.591 -1.6493  1.5034 -0.8313
  832TIP3    H224056   6.010   3.015   0.654  1.7140  1.4579 -0.5250
  833TIP3   OH224057   3.016   0.497   3.636 -0.3299  0.0367 -0.3639
  833TIP3    H124058   3.033   0.554   3.561 -0.3977 -1.4478 -1.5745
  833TIP3    H224059   3.026   0.553   3.712  0.2084  1.5011 -1.4647
  834TIP3   OH224060   4.034   2.833   1.005 -0.1110  0.1983 -0.1754
  834TIP3    H124061   4.005   2.840   0.914  0.0857 -0.3740 -0.2877
  834TIP3    H224062   4.122   2.872   1.005 -0.9582  2.2087  0.2267
  835TIP3   OH224063   6.385   5.783   0.725 -0.2719  0.2723  0.5356
  835TIP3    H124064   6.456   5.821   0.674  0.0606 -0.5495  0.3845
  835TIP3    H224065   6.376   5.694   0.693  0.7605 -0.7012  2.7082
  836TIP3   OH224066   5.682   6.295   1.619  0.4556 -0.1673 -0.2545
  836TIP3    H124067   5.632   6.343   1.553  0.6557  0.8936  0.3326
  836TIP3    H224068   5.763   6.345   1.628  0.3434 -0.1729  0.9190
  837TIP3   OH224069   0.157   0.011   1.693  0.6189  0.0742 -0.5249
  837TIP3    H124070   0.099   0.049   1.759  0.2932 -1.3220  0.0339
  837TIP3    H224071   0.245   0.025   1.726  0.4395 -1.2450  0.6179
  838TIP3   OH224072   3.794   0.045   1.951  0.0609 -0.1014 -0.3098
  838TIP3    H124073   3.799   0.022   2.043 -0.8316 -1.0614 -0.4766
  838TIP3    H224074   3.864  -0.006   1.909  0.6822  0.5914 -0.1230
  839TIP3   OH224075   5.885   3.236   0.158 -0.3790 -0.0657 -0.2026
  839TIP3    H124076   5.825   3.268   0.091 -0.7333  0.1720  0.2243
  839TIP3    H224077   5.971   3.267   0.130 -0.6313  0.7294 -0.1285
  840TIP3   OH224078   3.734   5.821   0.388  0.1623 -0.2571 -0.2764
  840TIP3    H124079   3.794   5.865   0.327  1.0838 -2.4389 -1.0544
  840TIP3    H224080   3.666   5.784   0.333  0.2265 -1.0661  0.1740
  841TIP3   OH224081   6.805   1.783   8.474  0.5157  0.0303  0.1670
  841TIP3    H124082   6.858   1.832   8.411 -0.9861  0.3878 -0.8657
  841TIP3    H224083   6.823   1.825   8.559  0.7982  1.0523 -0.3813
  842TIP3   OH224084   1.006   5.586   3.668  0.0724  0.8298 -0.1124
  842TIP3    H124085   1.089   5.604   3.624 -0.8071  1.2295 -1.7134
  842TIP3    H224086   1.015   5.626   3.754  1.6765  0.5078 -0.0945
  843TIP3   OH224087   3.432   0.936   8.106  0.1992 -0.6315  0.2812
  843TIP3    H124088   3.358   0.877   8.089 -0.0691 -0.1474 -0.2749
  843TIP3    H224089   3.455   0.970   8.019  1.6669 -1.4749  0.3135
  844TIP3   OH224090   5.457   6.458   1.828  0.1484  0.6836 -0.9873
  844TIP3    H124091   5.532   6.414   1.789 -0.5869 -1.5361 -0.0340
  844TIP3    H224092   5.443   6.535   1.773  1.4807 -0.2620 -2.7294
  845TIP3   OH224093   3.765   3.779   1.619 -0.0779 -0.4583  0.3304
  845TIP3    H124094   3.741   3.704   1.674  2.6284 -1.0070  0.9023
  845TIP3    H224095   3.729   3.854   1.666  0.4550 -1.0928  1.8443
  846TIP3   OH224096   1.560   1.547   2.659 -0.1738 -0.3114  0.5875
  846TIP3    H124097   1.513   1.466   2.675  0.8637 -0.8684  0.9306
  846TIP3    H224098   1.652   1.525   2.676  0.0913  1.0185  0.9985
  847TIP3   OH224099   5.741   2.497   2.274 -0.2040  0.3229  0.2477
  847TIP3    H124100   5.802   2.426   2.295 -0.1160 -0.1793 -1.5503
  847TIP3    H224101   5.748   2.556   2.349  0.3782 -1.1102  1.3907
  848TIP3   OH224102   1.015   2.473   2.102  0.9345  0.1806  0.9905
  848TIP3    H124103   1.048   2.563   2.105  0.6673  0.3347 -0.3210
  848TIP3    H224104   0.923   2.481   2.129  1.1791  0.1455  1.8678
  849TIP3   OH224105   3.020   6.546   0.027 -0.0788 -0.7724  0.6021
  849TIP3    H124106   3.080   6.473   0.013  0.2284 -0.2981 -0.6634
  849TIP3    H224107   3.068   6.623  -0.003 -1.4341 -0.4264 -0.8117
  850TIP3   OH224108   0.679   1.944   1.891  0.5815 -0.5799  0.1482
  850TIP3    H124109   0.733   1.901   1.824  0.4639 -0.3173 -0.1198
  850TIP3    H224110   0.742   1.991   1.945  0.5428  1.1691 -1.1974
  851TIP3   OH224111   1.569   0.686   3.849 -0.1595 -0.5791  0.1488
  851TIP3    H124112   1.625   0.757   3.818 -0.4491 -0.5196 -0.2433
  851TIP3    H224113   1.502   0.729   3.902 -0.7998 -0.4705 -0.7400
  852TIP3   OH224114   3.549   3.138   1.424 -0.1642 -0.5454 -0.2876
  852TIP3    H124115   3.625   3.188   1.454 -0.7619  1.5253 -2.0159
  852TIP3    H224116   3.491   3.134   1.500  1.3585 -1.6549  0.8795
  853TIP3   OH224117   0.756   4.195   8.170  0.3589  0.8053 -0.0685
  853TIP3    H124118   0.717   4.251   8.237  0.4521  1.0544 -0.2191
  853TIP3    H224119   0.843   4.232   8.155  0.9012 -0.1125  0.7043
  854TIP3   OH224120   4.773   2.591   0.179  0.1259 -0.1750  0.6947
  854TIP3    H124121   4.806   2.502   0.171  1.8667  0.2170  2.4683
  854TIP3    H224122   4.737   2.595   0.268  2.7063  1.5790  1.7815
  855TIP3   OH224123   0.036   3.023   2.233 -0.7081 -0.3403 -0.6154
  855TIP3    H124124   0.085   2.944   2.211 -0.4678 -0.2228 -0.5033
  855TIP3    H224125   0.085   3.095   2.193  2.2515  0.4551  3.7279
  856TIP3   OH224126   0.280   6.643   0.099  0.3483  0.5093 -0.4307
  856TIP3    H124127   0.358   6.623   0.150 -0.0636  0.8184  0.3403
  856TIP3    H224128   0.232   6.707   0.152 -1.0831 -0.6457 -0.2610
  857TIP3   OH224129   3.158   6.818   2.907  0.4073 -0.4380  0.6333
  857TIP3    H124130   3.157   6.840   2.814  3.3308 -0.5639  0.4777
  857TIP3    H224131   3.121   6.895   2.950  1.3556  0.7029 -0.5055
  858TIP3   OH224132   0.550   1.359   8.047  0.0971 -0.5896 -0.1778
  858TIP3    H124133   0.486   1.392   7.983 -0.7202 -4.8495 -1.8805
  858TIP3    H224134   0.500   1.347   8.127  0.3494  1.6923  0.4003
  859TIP3   OH224135   3.850   2.950   3.479  0.1711  0.1011 -0.2284
  859TIP3    H124136   3.924   3.009   3.493 -0.7061  1.7817 -2.1132
  859TIP3    H224137   3.774   2.999   3.510 -0.1947 -1.7663  2.0747
  860TIP3   OH224138   6.405   0.838   7.797 -0.2860  0.2387  0.0053
  860TIP3    H124139   6.323   0.880   7.770  0.1272  1.5543  0.7144
  860TIP3    H224140   6.472   0.881   7.744 -0.0849 -1.3154 -1.0777
  861TIP3   OH224141   0.697   2.345   1.615  0.1099  0.2219 -1.0963
  861TIP3    H124142   0.728   2.432   1.591 -0.0395  0.8242  0.7679
  861TIP3    H224143   0.671   2.353   1.706 -1.4900 -1.3687 -1.3614
  862TIP3   OH224144   4.897   4.758   8.649  0.1167  0.0639  0.1541
  862TIP3    H124145   4.946   4.698   8.593  1.3801  1.6121 -0.4882
  862TIP3    H224146   4.948   4.761   8.730  0.7687  1.1492 -0.2647
  863TIP3   OH224147   1.772   3.421   8.621  0.4765  0.0184 -0.1488
  863TIP3    H124148   1.819   3.499   8.654 -1.3308  1.8111 -1.5537
  863TIP3    H224149   1.737   3.380   8.700  3.3805 -0.8125  0.8595
  864TIP3   OH224150   4.157   5.236   0.549  0.0283  0.6744  0.2471
  864TIP3    H124151   4.171   5.275   0.635 -0.5932  2.8267 -0.5613
  864TIP3    H224152   4.141   5.143   0.567  1.8746  0.6647  2.2436
  865TIP3   OH224153   0.707   1.322   1.724  0.0199  0.0675 -0.4120
  865TIP3    H124154   0.754   1.331   1.641  0.1720  0.1211 -0.3199
  865TIP3    H224155   0.698   1.412   1.756 -0.9849  0.1485 -0.8944
  866TIP3   OH224156   0.739   3.670   0.465  0.0378  0.3245 -0.0585
  866TIP3    H124157   0.822   3.717   0.467  0.1917  0.0376  0.9677
  866TIP3    H224158   0.760   3.584   0.503 -0.8627  0.4970  0.8873
  867TIP3   OH224159   1.085   2.764   2.082  0.0513  0.2981 -0.3040
  867TIP3    H124160   1.176   2.776   2.108  0.4642 -2.1530 -0.3353
  867TIP3    H224161   1.088   2.755   1.987 -0.2723  0.5903 -0.3429
  868TIP3   OH224162   3.188   0.281   3.607 -0.5593 -0.2683 -0.4332
  868TIP3    H124163   3.157   0.358   3.655  1.7690  1.3071 -1.2513
  868TIP3    H224164   3.183   0.210   3.670 -3.2782  0.3947  0.1982
  869TIP3   OH224165   6.436   4.969   8.338 -0.3144  0.1797  0.5392
  869TIP3    H124166   6.519   4.943   8.379  0.6297  0.7921 -0.9325
  869TIP3    H224167   6.405   5.041   8.393  0.9454  1.0159  0.2113
  870TIP3   OH224168   4.788   3.233   3.064  0.0579  0.1889  0.3127
  870TIP3    H124169   4.803   3.223   2.970 -0.7968  0.8687  0.0895
  870TIP3    H224170   4.824   3.319   3.085  1.5436 -0.5471  0.9154
  871TIP3   OH224171   1.653   1.489   8.542  0.4874  0.2181  0.1598
  871TIP3    H124172   1.620   1.399   8.543  0.1038  0.3579  1.4418
  871TIP3    H224173   1.574   1.542   8.529  0.4040  0.4761  1.6605
  872TIP3   OH224174   2.604   3.350   1.417 -0.4851  0.1016 -0.4379
  872TIP3    H124175   2.526   3.337   1.364 -0.5091 -2.2549  0.0853
  872TIP3    H224176   2.576   3.334   1.507  0.0315  1.9809  0.1136
  873TIP3   OH224177   6.823   6.705   8.400 -1.0415 -0.0929 -0.3451
  873TIP3    H124178   6.779   6.649   8.336 -1.9963  0.8023 -0.4949
  873TIP3    H224179   6.915   6.678   8.397 -1.5009 -1.8112 -0.2426
  874TIP3   OH224180   1.686   0.306   0.541 -0.0722 -0.2011  0.1263
  874TIP3    H124181   1.724   0.236   0.488  1.1176  0.8388 -0.4226
  874TIP3    H224182   1.723   0.293   0.628  0.7091  0.1657 -0.1476
  875TIP3   OH224183   1.606   4.112   1.362 -0.2333  0.2027 -0.2487
  875TIP3    H124184   1.637   4.158   1.440  0.1692  1.3408 -1.0529
  875TIP3    H224185   1.536   4.168   1.327  0.1327  0.1162 -1.1426
  876TIP3   OH224186   1.077   0.981   0.936  0.3121  0.0847 -0.3241
  876TIP3    H124187   1.037   0.903   0.898  1.3105 -1.2338  1.2202
  876TIP3    H224188   1.101   1.035   0.860 -1.6164 -0.4518 -1.3719
  877TIP3   OH224189   5.055   3.886   0.656  0.0394 -0.7268  0.8864
  877TIP3    H124190   4.971   3.922   0.627  0.2720  0.5807  1.7769
  877TIP3    H224191   5.048   3.879   0.751  1.2800  0.3501  1.0872
  878TIP3   OH224192   5.245   0.008   2.265  0.0679 -0.5974 -0.0035
  878TIP3    H124193   5.202  -0.056   2.321 -0.6167 -0.2457 -0.1078
  878TIP3    H224194   5.179   0.076   2.253  0.4501 -0.3427 -0.6785
  879TIP3   OH224195   3.353   5.265   2.796  0.4524 -0.0184  0.3775
  879TIP3    H124196   3.418   5.332   2.775  0.3790 -0.1832 -0.4175
  879TIP3    H224197   3.405   5.184   2.805  0.4558  0.0085  0.6049
  880TIP3   OH224198   4.519   5.921   0.976 -0.3261  0.2036 -0.0448
  880TIP3    H124199   4.565   5.845   1.010  0.7213  0.7466 -0.1849
  880TIP3    H224200   4.427   5.902   0.991 -0.0391 -0.7041  0.7138
  881TIP3   OH224201   1.908   2.810   1.465  0.0713  0.2900 -0.2350
  881TIP3    H124202   1.840   2.746   1.444 -1.4102  1.5861  0.3434
  881TIP3    H224203   1.868   2.866   1.531  1.7877  1.0156  0.2432
  882TIP3   OH224204   5.800   2.808   0.069  0.1924 -0.0514  0.1926
  882TIP3    H124205   5.788   2.840  -0.021  1.5420 -0.6837 -0.2307
  882TIP3    H224206   5.714   2.820   0.110 -0.5004  0.0755 -1.2321
  883TIP3   OH224207   3.098   0.310   2.701 -0.1054  0.2116  0.0857
  883TIP3    H124208   3.089   0.363   2.622  0.1831  2.1170  1.2852
  883TIP3    H224209   3.142   0.366   2.764  1.1300 -1.8076  1.1261
  884TIP3   OH224210   4.206   5.993   2.951 -0.2280 -0.0468  0.5134
  884TIP3    H124211   4.189   6.087   2.958 -1.0238 -0.2642  2.2306
  884TIP3    H224212   4.289   5.980   2.998  0.0747 -0.1612 -0.0469
  885TIP3   OH224213   0.826   0.707   3.053 -0.0199  0.0394  0.0508
  885TIP3    H124214   0.896   0.654   3.016  2.2730  1.5224  1.9930
  885TIP3    H224215   0.794   0.657   3.128  0.0219  0.0480  0.0743
  886TIP3   OH224216   4.923   1.616   1.132  0.0686  0.3633 -0.1558
  886TIP3    H124217   4.855   1.684   1.132 -1.0537 -0.7030  1.2932
  886TIP3    H224218   5.001   1.661   1.167 -0.3289  1.1856 -0.2895
  887TIP3   OH224219   1.568   4.958   1.640  0.1594  0.1070 -0.1855
  887TIP3    H124220   1.488   5.010   1.635  0.5171  0.6092 -1.1334
  887TIP3    H224221   1.591   4.943   1.548  0.9589 -0.3219  0.0819
  888TIP3   OH224222   2.299   0.139   8.643 -0.1838  0.0739 -0.0603
  888TIP3    H124223   2.341   0.080   8.580 -0.2297  0.1455 -0.1583
  888TIP3    H224224   2.205   0.128   8.628 -0.2310 -0.7030  0.7164
  889TIP3   OH224225   4.207   1.864   8.074 -0.3764 -0.2743  0.1306
  889TIP3    H124226   4.283   1.856   8.016  0.5011 -1.5124  1.3793
  889TIP3    H224227   4.243   1.902   8.155 -1.1591 -0.4970  0.5910
  890TIP3   OH224228   2.030   0.797   3.472  0.0811  0.0386 -0.0360
  890TIP3    H124229   1.965   0.851   3.427 -0.7404 -1.2052 -0.3940
  890TIP3    H224230   2.022   0.711   3.432 -0.2975 -0.9877  2.0800
  891TIP3   OH224231   6.040   5.569   8.491  0.2784 -0.3404  0.0318
  891TIP3    H124232   5.964   5.626   8.490 -0.1337 -0.8488  1.0317
  891TIP3    H224233   6.017   5.496   8.433  1.0026  0.7028 -1.6524
  892TIP3   OH224234   5.134   0.455   0.888 -0.1049 -0.1403  1.0235
  892TIP3    H124235   5.224   0.452   0.855  0.4912 -0.4105  2.5907
  892TIP3    H224236   5.081   0.467   0.809  1.2904  0.0512  0.0564
  893TIP3   OH224237   6.518   3.841   7.995 -0.1846  0.4421  0.6444
  893TIP3    H124238   6.584   3.910   7.987 -0.0261  0.2410  0.1576
  893TIP3    H224239   6.542   3.794   8.075  0.5739  0.0604  0.2102
  894TIP3   OH224240   5.565   1.700   2.156  0.5194  0.0582 -0.0241
  894TIP3    H124241   5.554   1.793   2.174 -1.8712 -0.0198 -0.7423
  894TIP3    H224242   5.628   1.697   2.083 -0.1524  1.1811 -0.6807
  895TIP3   OH224243   4.974   2.491   2.042  0.1909  0.3514  0.4581
  895TIP3    H124244   4.896   2.514   1.991  0.4093  1.0177  0.4134
  895TIP3    H224245   4.956   2.402   2.074 -0.4309  0.3585  0.1542
  896TIP3   OH224246   4.801   1.548   8.330 -0.3199 -0.0177  0.4419
  896TIP3    H124247   4.722   1.521   8.284 -0.5403  1.4455 -0.0934
  896TIP3    H224248   4.873   1.520   8.273 -0.5368  0.3700 -0.0334
  897TIP3   OH224249   6.365   5.951   1.709  0.2785  0.2498  0.1616
  897TIP3    H124250   6.453   5.916   1.696 -0.6671 -1.9972 -0.7408
  897TIP3    H224251   6.347   6.002   1.630  0.0734 -0.9737 -0.6160
  898TIP3   OH224252   5.921   2.429   1.315 -0.2342  0.3645 -0.3192
  898TIP3    H124253   5.930   2.448   1.221 -0.8768 -1.4861 -0.7946
  898TIP3    H224254   5.849   2.484   1.343  0.9302  2.0842 -0.5223
  899TIP3   OH224255   1.437   3.674   1.671  0.1719  0.0436  0.4039
  899TIP3    H124256   1.413   3.718   1.753 -0.2085 -0.6045  0.6493
  899TIP3    H224257   1.470   3.589   1.699  0.3987 -0.0338 -0.0987
  900TIP3   OH224258   4.745   0.601   1.045  0.1609  0.3551  0.2570
  900TIP3    H124259   4.786   0.529   0.998 -1.1776 -0.7217  0.6692
  900TIP3    H224260   4.715   0.562   1.128 -0.5792  1.3732  0.4954
  901TIP3   OH224261   4.422   2.437   1.768  0.2371  0.8976  0.2030
  901TIP3    H124262   4.395   2.529   1.761  0.6699  1.0455  0.5125
  901TIP3    H224263   4.339   2.389   1.768 -0.2192  1.4650  3.3343
  902TIP3   OH224264   0.637   6.227   1.768 -0.5135  0.0871  0.4405
  902TIP3    H124265   0.643   6.260   1.678  1.3687 -0.5712  0.2800
  902TIP3    H224266   0.583   6.148   1.761 -0.8584  0.3524  0.0022
  903TIP3   OH224267   1.336   0.703   0.526 -0.1703  0.2196  0.5162
  903TIP3    H124268   1.390   0.667   0.597 -2.0598 -1.2544  1.3218
  903TIP3    H224269   1.321   0.628   0.468  1.6131  1.4817 -1.7198
  904TIP3   OH224270   5.896   0.241   0.823  0.3720 -0.2781 -0.6672
  904TIP3    H124271   5.879   0.187   0.746 -1.1402 -0.2079 -0.4108
  904TIP3    H224272   5.889   0.181   0.897  0.0527 -0.0043 -0.4717
  905TIP3   OH224273   1.023   5.527   2.037 -0.0083  0.2123  0.1188
  905TIP3    H124274   1.034   5.621   2.049  0.1331  0.5372 -2.0951
  905TIP3    H224275   0.930   5.511   2.053 -0.0197  0.7065  0.5613
  906TIP3   OH224276   5.604   4.681   8.648  0.3144 -0.4541  0.5390
  906TIP3    H124277   5.666   4.632   8.593  1.2079 -0.4066  1.4607
  906TIP3    H224278   5.531   4.701   8.590  0.1456 -2.4142 -0.0205
  907TIP3   OH224279   5.476   3.350   1.674  0.1946 -0.2182  0.9302
  907TIP3    H124280   5.464   3.389   1.760 -0.2010  1.0799  0.3135
  907TIP3    H224281   5.400   3.293   1.662 -0.9256  1.2800  0.5800
  908TIP3   OH224282   0.007   1.250   3.919  0.9236 -0.2703  0.0457
  908TIP3    H124283   0.048   1.217   3.999  1.3486 -0.7540 -0.3674
  908TIP3    H224284  -0.073   1.293   3.949 -1.2937 -4.2210  0.4188
  909TIP3   OH224285   1.198   1.923   7.549 -0.7675  0.1125  0.0038
  909TIP3    H124286   1.262   1.968   7.493  0.4032 -2.0189 -0.4973
  909TIP3    H224287   1.211   1.960   7.636  0.7029  0.2251 -0.2376
  910TIP3   OH224288   2.404   5.391   3.609 -0.2165 -0.8340 -0.2575
  910TIP3    H124289   2.355   5.473   3.609  0.3322 -0.4856  0.5672
  910TIP3    H224290   2.421   5.373   3.702  1.4874 -0.7661 -0.5151
  911TIP3   OH224291   1.040   2.579   0.642 -0.3809 -0.0624 -0.2314
  911TIP3    H124292   1.039   2.518   0.568  2.1933  1.8374 -2.0514
  911TIP3    H224293   0.949   2.608   0.651 -1.5238 -3.3915  0.1697
  912TIP3   OH224294   3.071   3.210   3.058  0.1205 -0.0238 -0.3859
  912TIP3    H124295   3.106   3.223   3.146 -0.6793  1.0533 -0.1944
  912TIP3    H224296   2.986   3.254   3.060  0.4424  0.7265 -1.9266
  913TIP3   OH224297   3.995   6.401   0.484 -0.1218 -0.1619 -0.1964
  913TIP3    H124298   3.932   6.402   0.556  1.5873 -0.2644  1.3516
  913TIP3    H224299   3.955   6.342   0.419 -1.5175 -0.3955  0.8176
  914TIP3   OH224300   1.970   4.960   8.350  0.4536  0.2394  0.3937
  914TIP3    H124301   2.024   4.903   8.295 -1.5418 -1.9907  0.6014
  914TIP3    H224302   1.885   4.961   8.307  0.1395  2.2943  0.9753
  915TIP3   OH224303   5.255   1.278   0.006 -0.4601 -0.4343 -0.6897
  915TIP3    H124304   5.349   1.289  -0.002 -0.5518  0.3606 -0.7800
  915TIP3    H224305   5.221   1.367   0.011 -1.1534 -0.7259  0.0052
  916TIP3   OH224306   0.019   2.992   0.895  0.0357  0.0731 -0.0701
  916TIP3    H124307  -0.048   2.951   0.840 -0.4489  1.8440 -0.8753
  916TIP3    H224308  -0.029   3.058   0.945  1.3648  2.6651 -1.9703
  917TIP3   OH224309   5.258   3.219   1.631 -0.0247  0.1076 -0.3694
  917TIP3    H124310   5.217   3.149   1.682 -2.4266  0.2159 -1.9618
  917TIP3    H224311   5.245   3.192   1.540 -0.8340  2.4882 -1.0253
  918TIP3   OH224312   0.004   0.676   0.701  0.2126 -0.0480  0.6497
  918TIP3    H124313   0.005   0.601   0.760  2.7800  0.2857  1.1582
  918TIP3    H224314   0.021   0.639   0.614  1.6994 -0.0956  0.9312
  919TIP3   OH224315   3.415   4.140   0.104 -0.1582  0.2291 -0.3614
  919TIP3    H124316   3.324   4.163   0.123  0.6761  3.5518  0.3826
  919TIP3    H224317   3.454   4.222   0.072  2.2596 -1.4254 -1.9994
  920TIP3   OH224318   1.852   5.805   8.649 -0.3130  0.3326 -0.2075
  920TIP3    H124319   1.945   5.823   8.643 -0.3673  0.9152  0.5898
  920TIP3    H224320   1.819   5.817   8.559  0.6199 -1.3832 -0.8197
  921TIP3   OH224321   1.889   3.207   8.473  0.2546 -0.1460  0.1822
  921TIP3    H124322   1.823   3.266   8.511  0.3451 -1.0675  1.8918
  921TIP3    H224323   1.936   3.262   8.411 -1.8188  0.6528 -0.7883
  922TIP3   OH224324   4.427   5.936   8.194 -0.0260  0.4630 -0.6075
  922TIP3    H124325   4.386   5.925   8.108  0.2378  0.5509 -0.7458
  922TIP3    H224326   4.509   5.982   8.176  0.2625  0.0518 -0.3635
  923TIP3   OH224327   2.151   2.953   0.312  0.2384 -0.6194 -0.0976
  923TIP3    H124328   2.235   2.973   0.271  0.0362  2.4306  0.7391
  923TIP3    H224329   2.086   2.982   0.249 -0.1668 -1.4729 -0.0758
  924TIP3   OH224330   6.555   4.877   0.282 -0.5331  0.0254 -0.1486
  924TIP3    H124331   6.491   4.877   0.211  1.0165  1.5178 -1.6516
  924TIP3    H224332   6.506   4.907   0.358 -1.8515  0.0907 -0.9851
  925TIP3   OH224333   1.590   3.708   3.659  0.1267  0.4373 -0.0681
  925TIP3    H124334   1.664   3.702   3.719  0.3041 -1.9658 -0.4410
  925TIP3    H224335   1.624   3.675   3.576 -0.4749  2.4850 -1.1943
  926TIP3   OH224336   6.211   1.420   0.983  0.1535  0.5405  0.5194
  926TIP3    H124337   6.271   1.423   0.908  0.6413  2.0310  0.9194
  926TIP3    H224338   6.236   1.341   1.031  0.6145  0.1978 -0.2624
  927TIP3   OH224339   2.423   5.147   2.638 -0.0507  0.0967  0.0181
  927TIP3    H124340   2.346   5.116   2.589 -0.3673 -0.4335  0.8146
  927TIP3    H224341   2.386   5.190   2.715  0.4313 -1.6286  1.2820
  928TIP3   OH224342   0.547   1.140   0.579 -0.1331 -0.3058  0.1255
  928TIP3    H124343   0.492   1.218   0.571  0.8549  0.2040 -3.2953
  928TIP3    H224344   0.632   1.175   0.609  0.4007  0.0677 -1.7002
  929TIP3   OH224345   5.655   6.541   1.467  0.5467  0.4658  0.2233
  929TIP3    H124346   5.586   6.607   1.464  0.8865  0.8053 -2.8114
  929TIP3    H224347   5.734   6.587   1.441  1.4810 -0.4617  1.2891
  930TIP3   OH224348   3.023   6.625   8.013  0.5772  0.1200  0.0123
  930TIP3    H124349   3.118   6.621   8.001  0.6759 -1.9305  1.0734
  930TIP3    H224350   3.011   6.693   8.080  1.2697  0.5104 -0.2462
  931TIP3   OH224351   6.537   1.937   1.332 -0.3082 -0.2688 -0.4774
  931TIP3    H124352   6.549   2.029   1.308 -0.8469 -0.3283 -0.9844
  931TIP3    H224353   6.530   1.938   1.428  0.4760  0.1252 -0.4172
  932TIP3   OH224354   5.828   2.831   1.791  0.0703  0.4489 -0.6856
  932TIP3    H124355   5.894   2.768   1.819 -0.5105  0.1612  0.0864
  932TIP3    H224356   5.877   2.911   1.773  0.4514  0.9132  1.9630
  933TIP3   OH224357   3.897   3.778   2.508  0.0825  0.1299  0.2300
  933TIP3    H124358   3.875   3.782   2.601  1.5366  0.4056  0.5835
  933TIP3    H224359   3.869   3.691   2.480 -0.1287 -0.0503  0.9879
  934TIP3   OH224360   6.608   3.752   7.564  0.2155  0.0639 -0.0501
  934TIP3    H124361   6.650   3.718   7.485  0.0027  2.8319 -1.4733
  934TIP3    H224362   6.678   3.798   7.611  0.1174 -0.7079  0.8800
  935TIP3   OH224363   2.332   2.814   0.879  0.2950  0.0683 -0.5943
  935TIP3    H124364   2.351   2.720   0.878  1.3796  0.1886  1.6911
  935TIP3    H224365   2.237   2.819   0.889  0.1879 -0.7713 -1.1296
  936TIP3   OH224366   2.079   1.872   8.225  0.0448 -0.0938  0.4051
  936TIP3    H124367   1.995   1.915   8.242 -0.4985 -0.9188 -0.1019
  936TIP3    H224368   2.084   1.801   8.289  0.4141  0.0149  0.5021
  937TIP3   OH224369   6.530   5.210   1.314  0.0266  0.7172  0.2754
  937TIP3    H124370   6.496   5.139   1.369  0.0346  0.1203 -0.4765
  937TIP3    H224371   6.613   5.234   1.355  0.7153 -0.6738 -0.2305
  938TIP3   OH224372   6.679   2.965   2.528 -0.2090  0.0248 -0.4648
  938TIP3    H124373   6.668   2.878   2.489 -0.7848 -0.6722  1.1774
  938TIP3    H224374   6.615   2.967   2.599  0.9698  1.1537  0.6041
  939TIP3   OH224375   1.134   3.740   2.756 -0.2117 -0.3138 -0.2599
  939TIP3    H124376   1.143   3.720   2.662  1.5496  2.0517 -0.6878
  939TIP3    H224377   1.224   3.751   2.787 -0.7069 -1.9682  1.9938
  940TIP3   OH224378   4.110   5.000   0.655  0.2957  0.2806 -0.1867
  940TIP3    H124379   4.054   4.935   0.613  1.3647 -1.0714  0.4150
  940TIP3    H224380   4.085   4.997   0.747  1.8429 -0.9298  0.2436
  941TIP3   OH224381   2.381   6.510   0.186  1.1666 -0.0842 -0.8829
  941TIP3    H124382   2.419   6.561   0.114 -0.8468  0.7847 -1.3979
  941TIP3    H224383   2.306   6.562   0.215  0.3971 -1.6783  0.1073
  942TIP3   OH224384   4.291   6.210   3.268  0.2557 -0.0604  0.2486
  942TIP3    H124385   4.358   6.190   3.332  0.0185  0.7320  0.7597
  942TIP3    H224386   4.231   6.136   3.272  0.6078 -0.3337  0.4545
  943TIP3   OH224387   4.937   6.866   2.388 -0.0122  0.3742 -0.2655
  943TIP3    H124388   4.843   6.861   2.402 -0.1415  1.3289 -0.7060
  943TIP3    H224389   4.967   6.775   2.387 -1.1287 -0.0050 -1.4371
  944TIP3   OH224390   4.686   3.227   1.684  0.1507  0.0256 -0.2748
  944TIP3    H124391   4.761   3.267   1.729 -0.4348  1.0050 -0.1411
  944TIP3    H224392   4.612   3.245   1.742 -0.4758  0.5863 -1.2320
  945TIP3   OH224393   6.784   3.255   2.724  0.2161 -0.6460  0.0440
  945TIP3    H124394   6.734   3.311   2.665 -1.4164 -1.8682  0.1984
  945TIP3    H224395   6.844   3.208   2.667  0.0108 -0.3884 -0.3896
  946TIP3   OH224396   5.534   2.906   0.119  0.1788  0.0983 -0.6492
  946TIP3    H124397   5.535   2.910   0.215  1.3259 -0.1949 -0.6339
  946TIP3    H224398   5.442   2.890   0.097  0.3434 -3.2937  0.5667
  947TIP3   OH224399   1.370   0.759   1.320 -0.3802 -0.2706  0.1285
  947TIP3    H124400   1.299   0.700   1.348 -0.6566 -1.9620 -3.5565
  947TIP3    H224401   1.325   0.831   1.276  0.1008 -0.3858 -0.5679
  948TIP3   OH224402   3.524   4.035   0.327 -0.3713 -0.0970 -0.3925
  948TIP3    H124403   3.482   4.095   0.388 -0.2418 -0.1427 -0.2570
  948TIP3    H224404   3.497   4.065   0.240 -0.6046 -0.0683 -0.3099
  949TIP3   OH224405   0.416   6.456   8.483  0.0689  0.0499 -1.0558
  949TIP3    H124406   0.396   6.426   8.571  0.9334  2.0393 -0.1170
  949TIP3    H224407   0.504   6.425   8.466 -0.1493 -0.4501 -1.2749
  950TIP3   OH224408   1.129   0.873   1.532 -0.0430  0.2348  0.4886
  950TIP3    H124409   1.044   0.911   1.513  0.4919  1.4300  0.4107
  950TIP3    H224410   1.137   0.800   1.471 -0.5039  0.8435 -0.3065
  951TIP3   OH224411   0.986   4.785   3.563 -0.0035  0.2864  0.6179
  951TIP3    H124412   0.916   4.746   3.615  0.3283  0.7479  1.4279
  951TIP3    H224413   1.037   4.835   3.626  0.5758  0.6242 -0.1110
  952TIP3   OH224414   4.507   1.565   0.912 -0.4092 -0.4039  0.4121
  952TIP3    H124415   4.540   1.476   0.899  0.2303 -0.1441  0.2249
  952TIP3    H224416   4.412   1.556   0.911 -0.3473 -1.0443  0.0915
  953TIP3   OH224417   6.282   6.087   2.848  0.3776 -0.2092 -0.3393
  953TIP3    H124418   6.253   6.174   2.878  1.8497  0.4214 -0.6632
  953TIP3    H224419   6.225   6.026   2.894  0.0532  0.8890  0.7809
  954TIP3   OH224420   4.706   5.868   3.441  0.1104 -0.5963  0.2880
  954TIP3    H124421   4.675   5.783   3.472  2.0645 -1.1335  0.9254
  954TIP3    H224422   4.765   5.899   3.509  2.5578 -0.6335 -1.6465
  955TIP3   OH224423   0.156   5.592   2.170  0.6276  0.0074  0.3252
  955TIP3    H124424   0.080   5.539   2.194 -0.2506  1.1234  0.0713
  955TIP3    H224425   0.222   5.528   2.142 -0.5702 -0.9178 -0.4445
  956TIP3   OH224426   4.927   2.404   0.442 -0.2569 -0.0334 -0.3409
  956TIP3    H124427   4.938   2.409   0.347  0.0391  1.4767 -0.2492
  956TIP3    H224428   4.893   2.490   0.467 -0.4422 -0.4457  0.9142
  957TIP3   OH224429   6.341   2.435   1.259  0.3272  0.2419  0.2839
  957TIP3    H124430   6.266   2.377   1.275  1.6543 -1.1803  1.7334
  957TIP3    H224431   6.359   2.475   1.344  2.5360 -1.1759  0.5706
  958TIP3   OH224432   5.434   0.617   0.978 -0.1744  0.0223 -0.1647
  958TIP3    H124433   5.525   0.637   0.958 -0.2479  2.2679  1.3613
  958TIP3    H224434   5.434   0.595   1.071 -1.1767  0.2177 -0.1041
  959TIP3   OH224435   2.037   4.915   3.096  0.2240  0.0599  0.0259
  959TIP3    H124436   2.035   4.930   3.190  1.6844  0.8120 -0.0281
  959TIP3    H224437   2.072   4.827   3.086  0.6314  0.1980  0.1932
  960TIP3   OH224438   4.292   3.696   0.501  0.0200 -0.4357 -0.1517
  960TIP3    H124439   4.361   3.736   0.553 -0.5889 -0.2000  0.4983
  960TIP3    H224440   4.326   3.610   0.478  1.1656  0.2734 -1.1963
  961TIP3   OH224441   6.493   1.124   0.578 -0.0882  0.1255  0.3195
  961TIP3    H124442   6.488   1.043   0.629 -0.9150 -0.1734 -0.2206
  961TIP3    H224443   6.435   1.110   0.504  2.0726  0.0611 -1.4487
  962TIP3   OH224444   1.006   0.087   3.719 -0.5046 -0.0076 -0.1331
  962TIP3    H124445   0.991  -0.004   3.692  1.4323 -0.7872  1.1843
  962TIP3    H224446   1.089   0.084   3.766  1.2058  2.9758 -2.6183
  963TIP3   OH224447   5.561   1.860   8.547  0.5316  0.5941 -0.2231
  963TIP3    H124448   5.619   1.906   8.486  0.4761 -1.4768 -1.9536
  963TIP3    H224449   5.603   1.776   8.562 -0.3886  0.3509  1.1983
  964TIP3   OH224450   0.017   5.190   2.651 -0.0946 -0.5851 -0.2848
  964TIP3    H124451  -0.021   5.273   2.621 -0.5008 -1.6251 -2.9504
  964TIP3    H224452   0.069   5.214   2.727  0.4158  2.2846 -1.3909
  965TIP3   OH224453   3.015   3.579   2.156  0.0660  0.7958  0.1913
  965TIP3    H124454   3.068   3.529   2.094  0.7531  0.9092  0.6700
  965TIP3    H224455   3.053   3.558   2.241 -1.9609 -0.7154  0.7843
  966TIP3   OH224456   5.557   0.192   0.874  0.1946  0.1497 -0.2476
  966TIP3    H124457   5.611   0.113   0.868  1.9820  1.3642 -0.8957
  966TIP3    H224458   5.559   0.229   0.785 -0.2746  1.1456  0.1383
  967TIP3   OH224459   6.230   0.576   1.692  0.7750  0.5497 -0.5945
  967TIP3    H124460   6.287   0.532   1.754  2.8105  2.7474 -0.7734
  967TIP3    H224461   6.147   0.586   1.739  1.9133  1.1811  1.4017
  968TIP3   OH224462   3.889   3.096   0.334 -0.2409  0.5184 -0.2800
  968TIP3    H124463   3.840   3.152   0.274 -0.3753  0.2542 -0.4218
  968TIP3    H224464   3.822   3.059   0.392 -0.4567 -1.0956 -1.4763
  969TIP3   OH224465   6.289   6.249   3.380 -0.1172  0.5273  0.2770
  969TIP3    H124466   6.229   6.224   3.451  0.1136  2.7417  1.3341
  969TIP3    H224467   6.376   6.242   3.419  0.1296  0.1635 -0.3313
  970TIP3   OH224468   4.107   1.759   2.620 -0.4987  0.0662 -0.5558
  970TIP3    H124469   4.113   1.821   2.547  0.6609  0.3078 -0.2829
  970TIP3    H224470   4.155   1.801   2.691  0.5867 -1.2475 -0.4561
  971TIP3   OH224471   6.305   0.644   8.316  0.1403 -0.5440  0.6963
  971TIP3    H124472   6.358   0.695   8.377  0.3869 -1.4455  1.2628
  971TIP3    H224473   6.318   0.686   8.231  1.0504 -0.2193  0.9837
  972TIP3   OH224474   0.211   5.035   1.978  0.5418  0.6509  0.1802
  972TIP3    H124475   0.194   5.085   1.898 -1.0640  1.3398  0.8910
  972TIP3    H224476   0.158   5.079   2.045  2.4137  0.5435  1.8061
  973TIP3   OH224477   6.014   6.073   1.662 -0.2302 -0.1464 -0.0931
  973TIP3    H124478   5.998   6.069   1.567 -0.9811 -0.7929  0.0479
  973TIP3    H224479   5.981   5.990   1.695  1.3898 -0.5738  0.5611
  974TIP3   OH224480   6.742   0.794   1.758  0.4923 -0.3146 -0.1005
  974TIP3    H124481   6.829   0.798   1.797  0.3598  0.0593  0.1648
  974TIP3    H224482   6.723   0.884   1.732 -0.1568 -0.2265  0.6212
  975TIP3   OH224483   1.635   0.914   1.263  0.1094  0.0000  0.1384
  975TIP3    H124484   1.563   0.867   1.303  0.0642 -0.4944 -0.5087
  975TIP3    H224485   1.647   0.991   1.319 -1.1959  0.3206  0.0049
  976TIP3   OH224486   0.848   3.250   0.708 -0.6394  0.1443 -0.1261
  976TIP3    H124487   0.837   3.155   0.713  0.6774  0.0127  0.5927
  976TIP3    H224488   0.776   3.285   0.760 -1.3372 -0.4285 -0.6760
  977TIP3   OH224489   2.693   6.439   8.191 -0.0365 -0.0221  0.4903
  977TIP3    H124490   2.772   6.418   8.241  0.9046 -0.1324 -0.9831
  977TIP3    H224491   2.651   6.355   8.175 -0.2715  0.0010  0.9886
  978TIP3   OH224492   0.215   0.045   8.224 -0.1475  0.2597  0.4276
  978TIP3    H124493   0.163   0.003   8.156  0.4003 -0.3255  0.3643
  978TIP3    H224494   0.302   0.056   8.186  0.2534 -0.3652  1.1325
  979TIP3   OH224495   5.232   5.524   8.618  0.0427  0.1794  0.6175
  979TIP3    H124496   5.225   5.618   8.633 -1.7709 -0.1140  1.8448
  979TIP3    H224497   5.217   5.485   8.704 -0.5472 -1.2722 -0.1221
  980TIP3   OH224498   6.794   2.202   0.355 -0.4574 -0.4635  0.0261
  980TIP3    H124499   6.807   2.222   0.262 -1.2970 -0.6468 -0.1356
  980TIP3    H224500   6.878   2.224   0.396 -0.4798  0.8340 -0.5692
  981TIP3   OH224501   5.047   5.191   3.507 -0.6692 -0.0237 -0.1278
  981TIP3    H124502   4.968   5.173   3.457  0.5029 -1.1981 -1.6633
  981TIP3    H224503   5.092   5.259   3.456 -0.0922 -0.2734  0.0415
  982TIP3   OH224504   0.987   4.781   2.502  0.4123 -0.2776 -0.1564
  982TIP3    H124505   0.961   4.704   2.554  0.4045 -0.6704 -0.7344
  982TIP3    H224506   1.071   4.756   2.463  2.4472  1.4563  2.7358
  983TIP3   OH224507   4.803   3.290   0.928 -0.3898 -0.7426 -0.7028
  983TIP3    H124508   4.877   3.290   0.989  0.2023 -0.8883 -1.3985
  983TIP3    H224509   4.841   3.321   0.846 -1.1554 -0.6309 -1.0221
  984TIP3   OH224510   2.272   4.616   0.229  0.1673  0.0766  0.6877
  984TIP3    H124511   2.312   4.608   0.143  0.1980  0.9050  0.6130
  984TIP3    H224512   2.187   4.573   0.221  0.3096 -0.1394  0.3396
  985TIP3   OH224513   2.560   0.774   0.832  0.7522 -0.3828 -0.0519
  985TIP3    H124514   2.501   0.842   0.798  0.7434  0.9017  2.3258
  985TIP3    H224515   2.643   0.789   0.786  0.3716  0.3653 -0.5158
  986TIP3   OH224516   3.023   4.602   2.923  0.5282  0.0031  0.2496
  986TIP3    H124517   3.029   4.697   2.935 -1.1763  0.1344  0.2601
  986TIP3    H224518   2.931   4.582   2.940  0.8130 -1.6181 -0.0300
  987TIP3   OH224519   2.622   0.960   2.922 -0.5289 -0.9148 -0.4164
  987TIP3    H124520   2.662   0.873   2.920 -0.8261 -1.0519 -0.4332
  987TIP3    H224521   2.597   0.977   2.831 -2.0875 -1.5699 -0.1376
  988TIP3   OH224522   4.140   0.520   2.198  0.3739 -0.2235  0.3166
  988TIP3    H124523   4.045   0.510   2.206  0.3647 -0.4927 -0.0985
  988TIP3    H224524   4.153   0.562   2.113  0.6640 -0.7853  0.0827
  989TIP3   OH224525   4.848   4.400   1.294  0.0141  0.6901 -0.1642
  989TIP3    H124526   4.828   4.308   1.309 -1.7532  0.9052 -0.9602
  989TIP3    H224527   4.849   4.410   1.199  4.7383  0.6432 -0.3420
  990TIP3   OH224528   2.544   6.499   1.008 -0.4502 -0.4047  0.1025
  990TIP3    H124529   2.634   6.495   1.039 -0.7535  1.0984  1.2540
  990TIP3    H224530   2.552   6.519   0.915  0.4246  1.7662  0.5868
  991TIP3   OH224531   2.343   2.400   2.553 -0.7432  0.3254 -0.1329
  991TIP3    H124532   2.303   2.389   2.467  1.3452  1.3036 -1.3104
  991TIP3    H224533   2.347   2.495   2.566  1.2821  0.2853 -0.1731
  992TIP3   OH224534   1.623   2.273   1.444 -0.4479  0.2338  0.1515
  992TIP3    H124535   1.629   2.234   1.356 -4.5932 -0.4687 -0.0042
  992TIP3    H224536   1.547   2.330   1.440 -0.2184  0.9062  3.0910
  993TIP3   OH224537   2.475   3.095   1.039  0.4955  0.2958 -0.5163
  993TIP3    H124538   2.524   3.013   1.048  1.2426  0.8839  1.2024
  993TIP3    H224539   2.390   3.068   1.004  1.1066 -1.0683 -1.0046
  994TIP3   OH224540   5.859   3.290   4.115  0.4401 -0.2954  0.1589
  994TIP3    H124541   5.825   3.375   4.142 -0.7727 -0.9322  0.6696
  994TIP3    H224542   5.919   3.311   4.043  0.9429  1.0720  0.9362
  995TIP3   OH224543   0.321   3.554   0.428  0.3717  0.0527 -0.0944
  995TIP3    H124544   0.319   3.464   0.460  1.4497 -0.1498 -0.5693
  995TIP3    H224545   0.358   3.604   0.500  0.2428  0.0436 -0.0201
  996TIP3   OH224546   3.500   3.927   8.625 -0.5500 -0.7771  0.3433
  996TIP3    H124547   3.517   3.958   8.536  1.6729 -1.6302  0.4167
  996TIP3    H224548   3.485   4.007   8.675 -1.1605 -0.2517 -0.6308
  997TIP3   OH224549   1.668   6.316   0.116  0.0729  0.2995 -0.7223
  997TIP3    H124550   1.640   6.224   0.119  1.5867 -0.1644 -0.0257
  997TIP3    H224551   1.707   6.326   0.029 -0.7504  0.5188 -1.0856
  998TIP3   OH224552   2.353   3.392   0.539 -0.3215 -0.0760 -0.1251
  998TIP3    H124553   2.353   3.393   0.444 -0.6657 -0.3947 -0.1304
  998TIP3    H224554   2.334   3.302   0.562 -2.7269  0.4616  0.2429
  999TIP3   OH224555   3.543   2.247   2.828 -0.4408 -0.8227  0.0517
  999TIP3    H124556   3.638   2.249   2.840 -0.5046 -2.2843  1.0451
  999TIP3    H224557   3.513   2.333   2.859  0.4095 -0.9408  1.2830
 1000TIP3   OH224558   6.704   5.283   0.737 -0.0214  0.4832 -0.1411
 1000TIP3    H124559   6.637   5.289   0.669 -0.3343 -3.0513 -0.3511
 1000TIP3    H224560   6.676   5.208   0.790  2.4010  0.5638  1.3635
 1001TIP3   OH224561   3.075   1.756   2.163  0.6188  0.2219  0.2941
 1001TIP3    H124562   3.026   1.752   2.081  2.0241 -0.0083 -0.5735
 1001TIP3    H224563   3.079   1.666   2.193 -2.0197  0.5646  1.9955
 1002TIP3   OH224564   2.302   0.823   8.537 -0.6521 -0.6687  0.1291
 1002TIP3    H124565   2.358   0.757   8.498 -0.2175  0.5905 -1.5216
 1002TIP3    H224566   2.337   0.836   8.625  1.4207 -0.2261 -0.7020
 1003TIP3   OH224567   6.031   1.972   8.407 -0.0860 -0.0009 -0.3323
 1003TIP3    H124568   6.081   2.009   8.480 -1.5419  0.7877  0.3076
 1003TIP3    H224569   6.072   2.009   8.329  1.1102 -0.3678  0.1053
 1004TIP3   OH224570   2.910   3.176   3.387 -0.5397  0.3265  0.6795
 1004TIP3    H124571   2.919   3.189   3.482 -1.1459 -2.3705  1.2037
 1004TIP3    H224572   3.000   3.176   3.355 -0.3788  2.8544  0.9194
 1005TIP3   OH224573   5.018   5.165   0.968 -0.0033 -0.3920 -0.1897
 1005TIP3    H124574   5.077   5.140   0.897  2.6039 -0.1525  1.7572
 1005TIP3    H224575   4.973   5.084   0.992  0.3692 -0.8293 -0.9242
 1006TIP3   OH224576   3.003   1.065   2.820 -0.2238 -0.1148  0.0298
 1006TIP3    H124577   3.003   0.974   2.850  1.3013 -0.6209 -1.3467
 1006TIP3    H224578   2.928   1.070   2.761  0.7712 -1.0813 -1.4032
 1007TIP3   OH224579   3.422   0.222   2.438 -0.3587  0.2148  0.7245
 1007TIP3    H124580   3.407   0.143   2.386 -2.1022 -0.3724  2.0087
 1007TIP3    H224581   3.429   0.191   2.528  1.1250  1.3502  1.0459
 1008TIP3   OH224582   3.336   3.220   8.362  1.1114  1.0917 -0.1388
 1008TIP3    H124583   3.329   3.145   8.420  0.5812  1.0944 -0.1937
 1008TIP3    H224584   3.333   3.296   8.420  2.7514  1.0778  0.0270
 1009TIP3   OH224585   6.784   1.144   0.841  0.1278  0.1445  0.4562
 1009TIP3    H124586   6.864   1.107   0.803 -0.6742 -1.6134  0.3701
 1009TIP3    H224587   6.798   1.143   0.935 -0.3984 -1.7697  0.5502
 1010TIP3   OH224588   1.466   2.284   8.101 -0.4900  0.0929 -0.4022
 1010TIP3    H124589   1.405   2.211   8.106 -0.2313 -0.0225  3.0730
 1010TIP3    H224590   1.415   2.360   8.130  0.8127  0.0654  2.1603
 1011TIP3   OH224591   0.198   3.975   8.505 -0.6893  0.4704  0.1496
 1011TIP3    H124592   0.256   3.914   8.551 -1.1489  0.3162  0.5270
 1011TIP3    H224593   0.115   3.929   8.499 -0.4037  0.1145 -1.6380
 1012TIP3   OH224594   3.528   0.808   0.687  0.2984  0.6534  0.2876
 1012TIP3    H124595   3.452   0.861   0.709 -1.0210 -1.1211  0.2640
 1012TIP3    H224596   3.505   0.764   0.605  0.4270 -1.4960  1.3124
 1013TIP3   OH224597   3.221   3.193   2.840 -0.1891  0.1669  0.3121
 1013TIP3    H124598   3.148   3.191   2.902  1.2416  0.0975  2.0774
 1013TIP3    H224599   3.193   3.138   2.767 -1.6497 -0.3316  1.2268
 1014TIP3   OH224600   1.334   3.263   4.101 -0.5001  0.7952 -0.4607
 1014TIP3    H124601   1.308   3.202   4.032  1.1071 -2.9158  1.8720
 1014TIP3    H224602   1.428   3.277   4.087 -0.6825  2.1504 -0.4812
 1015TIP3   OH224603   5.961   1.219   1.105 -0.0074 -0.2721 -0.4275
 1015TIP3    H124604   5.866   1.220   1.117  0.0420 -1.0400  0.0987
 1015TIP3    H224605   5.974   1.229   1.011 -0.5869  0.4753 -0.4377
 1016TIP3   OH224606   1.992   6.693   0.564  0.2718  0.0257 -0.5621
 1016TIP3    H124607   2.064   6.646   0.605  0.2017 -1.2089 -1.7971
 1016TIP3    H224608   2.033   6.766   0.519  0.6403 -0.0827 -0.4060
 1017TIP3   OH224609   5.419   1.325   0.338  0.3357 -0.4324 -0.5290
 1017TIP3    H124610   5.505   1.356   0.309  0.8266  0.7763  1.9299
 1017TIP3    H224611   5.424   1.229   0.332  1.8772 -0.3793 -0.3865
 1018TIP3   OH224612   4.736   2.152   8.186  0.0187 -0.4479 -0.0946
 1018TIP3    H124613   4.668   2.097   8.147  1.4167 -1.1254 -1.6906
 1018TIP3    H224614   4.772   2.098   8.257 -0.7214 -0.3056  0.3965
 1019TIP3   OH224615   3.758   5.544   8.369 -0.1339 -0.2081  0.6834
 1019TIP3    H124616   3.800   5.605   8.308 -0.5751 -0.8683 -0.2924
 1019TIP3    H224617   3.831   5.508   8.420  0.1054  1.4841  1.6466
 1020TIP3   OH224618   5.633   6.668   7.866 -0.2864 -0.0646  0.5836
 1020TIP3    H124619   5.618   6.742   7.808  0.5400 -1.0272 -0.9144
 1020TIP3    H224620   5.728   6.656   7.866 -0.4619 -1.6544  0.0952
 1021TIP3   OH224621   3.080   1.087   3.604 -0.0859  0.1310 -0.1093
 1021TIP3    H124622   3.161   1.043   3.577 -0.6722  0.0750 -1.9447
 1021TIP3    H224623   3.098   1.180   3.593 -0.0069  0.1589  0.2634
 1022TIP3   OH224624   1.619   2.222   0.828 -0.2215  0.0993  0.1727
 1022TIP3    H124625   1.564   2.143   0.835  1.8710 -1.3635  1.3251
 1022TIP3    H224626   1.656   2.217   0.740 -0.5543  0.1238  0.0287
 1023TIP3   OH224627   3.040   0.828   1.134 -0.8987  0.2236  0.3737
 1023TIP3    H124628   2.981   0.754   1.120  0.6584 -0.8972 -0.6418
 1023TIP3    H224629   3.124   0.799   1.098  0.6009  1.3173  2.7383
 1024TIP3   OH224630   5.026   4.503   3.039 -0.2376  0.2049 -0.7778
 1024TIP3    H124631   5.068   4.470   3.118 -0.6445  1.4743 -0.0011
 1024TIP3    H224632   5.051   4.441   2.971  1.3422 -0.1064  0.0341
 1025TIP3   OH224633   5.903   6.456   0.375 -0.1164 -0.7756 -0.1247
 1025TIP3    H124634   5.984   6.483   0.330 -0.1847  1.2163  0.8459
 1025TIP3    H224635   5.846   6.531   0.368 -1.5951 -1.8505 -0.0154
 1026TIP3   OH224636   0.904   2.311   2.701  0.1696  0.4035  0.4100
 1026TIP3    H124637   0.922   2.328   2.608 -0.1277  1.1664  0.4858
 1026TIP3    H224638   0.957   2.375   2.748  0.0832  0.2223  0.7640
 1027TIP3   OH224639   0.195   6.847   2.797  0.2064 -0.4277  0.3330
 1027TIP3    H124640   0.219   6.877   2.709  0.2177  1.3105  0.8882
 1027TIP3    H224641   0.266   6.879   2.853 -0.3692 -0.5281  1.1322
 1028TIP3   OH224642   2.932   6.192   1.050  0.7387 -0.5620 -0.9856
 1028TIP3    H124643   3.013   6.239   1.031  0.3174  0.3000 -0.7120
 1028TIP3    H224644   2.941   6.162   1.140 -0.7130  2.8227  0.4735
 1029TIP3   OH224645   5.207   0.753   1.726  0.2679 -0.3197  0.0130
 1029TIP3    H124646   5.194   0.664   1.694  0.2252 -0.7782  1.2462
 1029TIP3    H224647   5.124   0.775   1.769  0.8988 -0.4038  1.3307
 1030TIP3   OH224648   0.844   4.979   8.427  0.3999  0.0838  0.3683
 1030TIP3    H124649   0.812   4.948   8.343 -0.8678 -1.7151  1.4338
 1030TIP3    H224650   0.904   4.910   8.457 -0.0302  0.1347  1.4078
 1031TIP3   OH224651   0.252   2.100   2.408 -0.4954  0.0854  0.1996
 1031TIP3    H124652   0.205   2.022   2.438  1.3475  0.5025  5.1041
 1031TIP3    H224653   0.316   2.067   2.345 -0.2858 -2.3705  1.5675
 1032TIP3   OH224654   3.444   1.075   8.356  0.2769 -0.2208  0.0202
 1032TIP3    H124655   3.477   1.027   8.280  2.2341  2.5374 -1.0579
 1032TIP3    H224656   3.385   1.140   8.320 -0.3275 -0.1394  1.1124
 1033TIP3   OH224657   2.506   2.086   2.851  0.0153 -0.1937 -0.1374
 1033TIP3    H124658   2.498   2.004   2.900 -0.1996  0.5315  1.0703
 1033TIP3    H224659   2.418   2.104   2.818 -0.1250  0.0010  0.3417
 1034TIP3   OH224660   2.488   4.884   2.446 -0.3456 -0.3919  0.0623
 1034TIP3    H124661   2.514   4.795   2.425  1.2381 -0.2144  1.1055
 1034TIP3    H224662   2.452   4.879   2.534 -0.1817  0.0075  0.1557
 1035TIP3   OH224663   5.757   6.445   2.717  0.0361 -0.2531  0.0336
 1035TIP3    H124664   5.681   6.502   2.704 -0.7718 -1.4983 -0.9739
 1035TIP3    H224665   5.719   6.359   2.736  1.2209 -0.3127  2.5134
 1036TIP3   OH224666   6.777   0.241   7.605 -0.2734 -0.0862 -0.5424
 1036TIP3    H124667   6.705   0.198   7.652  1.1859  1.7407  3.8938
 1036TIP3    H224668   6.749   0.332   7.599  1.0399  0.3566 -0.0927
 1037TIP3   OH224669   0.000   4.910   0.609 -0.2181  0.0903  0.0250
 1037TIP3    H124670  -0.020   4.846   0.541 -2.4786 -0.3921  1.0552
 1037TIP3    H224671  -0.011   4.995   0.566  1.3792 -0.1657 -0.9696
 1038TIP3   OH224672   0.860   4.150   0.955 -0.0973 -0.0284  0.4463
 1038TIP3    H124673   0.912   4.213   0.906  0.3524 -0.4807  0.3273
 1038TIP3    H224674   0.771   4.184   0.952  0.3085  1.1945  1.3603
 1039TIP3   OH224675   2.262   5.538   0.903 -0.7003 -0.4357  0.0693
 1039TIP3    H124676   2.333   5.603   0.903 -0.7209 -0.2595 -2.8443
 1039TIP3    H224677   2.303   5.458   0.935  0.7632 -0.2303 -1.1449
 1040TIP3   OH224678   5.579   6.397   2.468 -0.1476  0.2972  0.5046
 1040TIP3    H124679   5.552   6.465   2.530  0.1690 -0.1949  1.1945
 1040TIP3    H224680   5.606   6.445   2.390  2.2456  1.1286  1.7629
 1041TIP3   OH224681   5.284   0.589   1.974  0.3331  0.0836  0.4127
 1041TIP3    H124682   5.255   0.668   2.021 -0.2266 -0.9672  1.9102
 1041TIP3    H224683   5.212   0.527   1.986  1.3303 -1.1089  0.4025
 1042TIP3   OH224684   1.020   0.567   0.556 -0.7713  0.1701 -0.1935
 1042TIP3    H124685   0.948   0.542   0.499 -0.1257  0.5307 -1.2021
 1042TIP3    H224686   1.099   0.539   0.509 -0.2480 -1.2250  1.3632
 1043TIP3   OH224687   0.756   2.377   0.939  0.3489 -0.2643  0.6118
 1043TIP3    H124688   0.800   2.445   0.991 -0.9990  0.7521  0.4884
 1043TIP3    H224689   0.824   2.313   0.922  1.8394  1.3224  0.2755
 1044TIP3   OH224690   0.720   5.002   0.628  0.4917 -0.4382  0.0914
 1044TIP3    H124691   0.772   5.081   0.613  1.6620 -0.9946  1.0714
 1044TIP3    H224692   0.775   4.946   0.683  0.1193 -2.3775 -1.3738
 1045TIP3   OH224693   3.511   0.140   2.109  0.0719  0.0275  0.4649
 1045TIP3    H124694   3.508   0.220   2.057 -0.7787  1.1468  2.1744
 1045TIP3    H224695   3.474   0.073   2.052  1.0569  0.7572 -1.1000
 1046TIP3   OH224696   2.436   0.806   0.399 -0.5974  0.1217  0.4149
 1046TIP3    H124697   2.382   0.730   0.421 -1.7213  1.0378  0.9122
 1046TIP3    H224698   2.446   0.854   0.481 -0.5074  0.8935 -0.0367
 1047TIP3   OH224699   0.459   1.012   3.427  0.3924 -0.0531 -0.0076
 1047TIP3    H124700   0.396   0.951   3.464  1.9213 -1.4467  0.4459
 1047TIP3    H224701   0.471   1.078   3.495 -0.4795  0.1640 -0.0577
 1048TIP3   OH224702   6.365   3.692   8.392 -0.5267  0.8026  0.0959
 1048TIP3    H124703   6.310   3.694   8.470  1.4370  0.7316  1.5732
 1048TIP3    H224704   6.360   3.781   8.357  0.2066  1.4778  1.5764
 1049TIP3   OH224705   3.659   5.186   0.876 -0.7329  0.2432 -0.9141
 1049TIP3    H124706   3.667   5.216   0.786 -0.5201 -0.6395 -1.2001
 1049TIP3    H224707   3.565   5.178   0.891 -0.7511 -0.9908 -1.5486
 1050TIP3   OH224708   6.606   0.938   2.987  0.2959  0.5439 -0.2333
 1050TIP3    H124709   6.557   0.901   3.060  2.3711 -1.4754  0.2580
 1050TIP3    H224710   6.692   0.958   3.024  0.6571  1.7130 -1.6053
 1051TIP3   OH224711   6.812   5.384   2.214 -0.1974 -0.3588 -0.4370
 1051TIP3    H124712   6.810   5.384   2.309  0.5448 -1.6251 -0.4041
 1051TIP3    H224713   6.723   5.361   2.188 -0.3971 -0.0270 -0.0526
 1052TIP3   OH224714   3.843   3.299   3.437  0.3547 -0.7380  0.1417
 1052TIP3    H124715   3.827   3.260   3.523  0.0307 -1.6418 -0.3053
 1052TIP3    H224716   3.915   3.360   3.450  2.1370 -2.7934  0.5563
 1053TIP3   OH224717   1.709   0.246   1.076  0.3748  0.0494 -0.0323
 1053TIP3    H124718   1.791   0.242   1.124  1.0688  0.5355 -1.1361
 1053TIP3    H224719   1.644   0.208   1.136  1.1306  0.9280  1.3944
 1054TIP3   OH224720   4.702   0.935   0.633 -0.2087  0.3294 -0.3343
 1054TIP3    H124721   4.681   0.843   0.617 -0.8866  0.5660 -0.8439
 1054TIP3    H224722   4.658   0.956   0.716 -0.4414  0.3142 -0.4523
 1055TIP3   OH224723   6.071   0.678   0.452  0.1032 -0.4175 -0.3209
 1055TIP3    H124724   6.124   0.610   0.412  1.2055 -0.2652  0.8170
 1055TIP3    H224725   5.981   0.656   0.428  0.2590 -3.1364  1.1838
 1056TIP3   OH224726   3.587   4.429   7.780 -0.0457  0.1764  0.6734
 1056TIP3    H124727   3.567   4.484   7.855  0.8907 -0.5188  1.4724
 1056TIP3    H224728   3.660   4.474   7.736 -1.0963  0.9827 -0.2940
 1057TIP3   OH224729   2.622   0.714   8.418  0.0026 -0.2098  0.2323
 1057TIP3    H124730   2.675   0.704   8.339  0.1620  0.4958  0.2456
 1057TIP3    H224731   2.590   0.804   8.414 -2.4169 -1.0128 -0.5371
 1058TIP3   OH224732   3.148   2.846   7.909  0.6360 -0.1223 -0.2264
 1058TIP3    H124733   3.090   2.923   7.906  0.0437 -0.5471  0.0319
 1058TIP3    H224734   3.205   2.863   7.984  0.8665  0.3115 -0.4956
 1059TIP3   OH224735   3.554   0.648   1.153  0.3490  0.4823  0.7349
 1059TIP3    H124736   3.551   0.645   1.057 -1.8828 -0.4145  0.7711
 1059TIP3    H224737   3.576   0.739   1.173  2.0234  0.4274 -0.5928
 1060TIP3   OH224738   2.938   5.070   0.614  0.2863 -0.4820 -0.5044
 1060TIP3    H124739   2.875   5.084   0.543 -0.6049 -2.4707 -0.1804
 1060TIP3    H224740   3.011   5.127   0.592 -2.0746  2.9229 -0.2199
 1061TIP3   OH224741   5.011   3.853   0.935 -0.3016 -0.3084 -0.5262
 1061TIP3    H124742   5.081   3.808   0.984  0.7811  0.0066 -1.7198
 1061TIP3    H224743   4.991   3.930   0.988  0.4379 -0.2767 -0.2704
 1062TIP3   OH224744   2.572   0.456   0.572  0.3746  0.0343 -0.0446
 1062TIP3    H124745   2.637   0.521   0.546 -0.7711  1.0788 -0.4224
 1062TIP3    H224746   2.507   0.457   0.501 -1.4801  1.0674  1.5740
 1063TIP3   OH224747   0.548   1.301   1.445  0.8227  0.4795 -0.3429
 1063TIP3    H124748   0.625   1.357   1.445  0.7978  0.6075  2.0429
 1063TIP3    H224749   0.580   1.217   1.412  2.0913  0.4561  0.8342
 1064TIP3   OH224750   2.914   3.997   0.743 -0.6421 -0.4370  0.2132
 1064TIP3    H124751   2.921   3.991   0.647  4.4682  1.5624  0.1261
 1064TIP3    H224752   2.865   4.079   0.758  1.1331  0.9067 -0.9034
 1065TIP3   OH224753   2.192   4.825   1.109  0.4093 -0.1051  0.3462
 1065TIP3    H124754   2.229   4.844   1.023  1.3731 -0.5390  0.6437
 1065TIP3    H224755   2.192   4.729   1.114 -2.2499 -0.1989 -0.2524
 1066TIP3   OH224756   2.170   0.144   3.771  0.2757  0.0241  0.3133
 1066TIP3    H124757   2.127   0.163   3.688  2.3347  1.5831 -0.4839
 1066TIP3    H224758   2.100   0.152   3.836 -1.0638  0.3714 -1.0914
 1067TIP3   OH224759   5.858   5.873   2.040  0.0215  0.8367 -0.1488
 1067TIP3    H124760   5.891   5.854   2.128 -1.0201 -1.8443 -0.2365
 1067TIP3    H224761   5.764   5.885   2.052 -0.2679 -0.4468 -0.9794
 1068TIP3   OH224762   2.012   6.253   2.449 -0.0788  0.4232  0.7985
 1068TIP3    H124763   2.025   6.172   2.400  0.7805  1.2457 -0.3720
 1068TIP3    H224764   2.085   6.309   2.424 -0.5113  1.4786  1.7871
 1069TIP3   OH224765   4.042   6.187   2.615  0.9234 -0.8720  0.0964
 1069TIP3    H124766   4.013   6.268   2.658 -1.2485 -2.4281  1.7597
 1069TIP3    H224767   4.136   6.183   2.632  1.2242  1.5828 -0.5866
 1070TIP3   OH224768   6.430   1.019   8.218  0.1716  0.2577 -0.6678
 1070TIP3    H124769   6.392   1.019   8.130 -1.8292 -0.0088  0.1439
 1070TIP3    H224770   6.385   1.089   8.264  0.6306 -0.1160  0.3827
 1071TIP3   OH224771   3.104   6.795   3.614 -0.3822 -0.2628 -0.9206
 1071TIP3    H124772   3.019   6.752   3.602  0.1522 -1.5417 -0.2534
 1071TIP3    H224773   3.166   6.736   3.571  0.2617  0.3034 -0.7655
 1072TIP3   OH224774   4.971   6.229   1.058 -0.2974 -0.0714 -0.0308
 1072TIP3    H124775   4.937   6.171   0.990  0.5717  1.5536 -1.9510
 1072TIP3    H224776   4.963   6.317   1.021 -1.4635  1.1017  2.7070
 1073TIP3   OH224777   0.208   5.973   1.614 -0.3575 -0.0511 -0.6930
 1073TIP3    H124778   0.270   5.920   1.563 -0.1833 -0.6515  0.1165
 1073TIP3    H224779   0.221   6.062   1.582  0.4070 -0.2776 -1.0529
 1074TIP3   OH224780   0.939   5.771   2.132 -0.1536 -0.4798 -0.6235
 1074TIP3    H124781   0.873   5.772   2.063 -1.1249 -1.4819  0.2538
 1074TIP3    H224782   0.925   5.852   2.181 -0.9137 -0.8047 -0.2919
 1075TIP3   OH224783   6.228   0.067   3.596 -0.1466 -0.8707  0.3688
 1075TIP3    H124784   6.305   0.074   3.652  1.2616  0.5058 -1.5917
 1075TIP3    H224785   6.216  -0.027   3.583  2.0959 -1.1181 -0.3655
 1076TIP3   OH224786   6.171   5.684   3.258  0.5128  0.5702 -0.2544
 1076TIP3    H124787   6.119   5.680   3.339  1.2381  0.2871  0.2090
 1076TIP3    H224788   6.108   5.708   3.190 -0.9468 -2.7822 -0.3161
 1077TIP3   OH224789   3.930   3.072   2.494  0.8039 -0.3395 -0.4347
 1077TIP3    H124790   3.935   3.059   2.588 -1.5009 -2.9231 -0.5355
 1077TIP3    H224791   3.870   3.147   2.483 -0.9526 -1.5889  0.2122
 1078TIP3   OH224792   0.195   3.006   8.228 -0.2042  0.3876 -0.6674
 1078TIP3    H124793   0.208   2.913   8.210 -1.2903  0.0474  0.1907
 1078TIP3    H224794   0.277   3.035   8.267 -0.2989 -0.5189  0.2324
 1079TIP3   OH224795   6.135   4.798   0.743 -0.2780 -0.2220 -0.1873
 1079TIP3    H124796   6.158   4.788   0.651 -1.6368  0.2373 -0.5968
 1079TIP3    H224797   6.042   4.776   0.747 -0.3606  0.2912  0.9867
 1080TIP3   OH224798   3.893   2.456   1.366 -0.4855  0.0978  0.3589
 1080TIP3    H124799   3.887   2.544   1.403 -2.5981  0.0358  0.2607
 1080TIP3    H224800   3.877   2.468   1.272  0.0205 -0.3125  0.2138
 1081TIP3   OH224801   6.147   2.134   7.230  0.1762 -0.5890  0.0485
 1081TIP3    H124802   6.199   2.161   7.305 -1.1172 -0.3543  0.8883
 1081TIP3    H224803   6.068   2.186   7.236 -0.7062 -1.8181 -0.4872
 1082TIP3   OH224804   6.504   3.281   3.500 -0.3455 -0.1539 -0.0447
 1082TIP3    H124805   6.509   3.374   3.523 -2.3397 -0.2799  1.1217
 1082TIP3    H224806   6.585   3.243   3.534  1.0999  1.3142 -1.6160
 1083TIP3   OH224807   2.648   4.033   2.643  0.4289 -0.8257 -0.8258
 1083TIP3    H124808   2.704   3.956   2.652 -2.2309 -2.7095  0.7764
 1083TIP3    H224809   2.658   4.079   2.726 -0.3939 -1.2048 -0.5075
 1084TIP3   OH224810   0.096   5.779   1.296  0.3542 -0.1344 -0.0864
 1084TIP3    H124811   0.052   5.810   1.375  1.6305 -1.4573  1.2011
 1084TIP3    H224812   0.127   5.859   1.253 -3.1832  0.9035 -1.1192
 1085TIP3   OH224813   1.727   1.625   0.975 -0.2522 -0.1031 -0.1300
 1085TIP3    H124814   1.818   1.617   1.004  0.0638 -0.9628 -1.2810
 1085TIP3    H224815   1.733   1.642   0.881 -1.2214  3.0853  0.2525
 1086TIP3   OH224816   3.443   0.792   2.374 -0.0008 -0.1076 -0.0811
 1086TIP3    H124817   3.395   0.709   2.385 -0.8289  0.0455 -2.0190
 1086TIP3    H224818   3.441   0.833   2.460  0.5578 -2.1447  0.9783
 1087TIP3   OH224819   4.897   4.777   8.064  0.4202 -0.5274 -0.8974
 1087TIP3    H124820   4.907   4.683   8.077 -0.3500 -0.4555  0.4732
 1087TIP3    H224821   4.979   4.815   8.098 -0.5178 -0.5379  1.6145
 1088TIP3   OH224822   6.432   5.284   0.778 -0.2608  0.0280 -0.1737
 1088TIP3    H124823   6.345   5.258   0.749 -0.3177 -0.3424  0.3175
 1088TIP3    H224824   6.467   5.207   0.823  0.5633 -0.0435 -0.8914
 1089TIP3   OH224825   4.241   5.857   1.959  0.1416 -0.2171  0.1128
 1089TIP3    H124826   4.193   5.927   2.003  1.6439  0.2746  1.0482
 1089TIP3    H224827   4.259   5.793   2.028  2.4442  0.5110  0.2816
 1090TIP3   OH224828   2.414   5.613   0.464  0.3399  0.0186 -0.0394
 1090TIP3    H124829   2.420   5.519   0.481  0.5248 -0.1787 -1.1069
 1090TIP3    H224830   2.420   5.620   0.369 -2.4761  0.8981 -0.2326
 1091TIP3   OH224831   2.073   6.472   2.845  0.1870 -0.5753  0.5546
 1091TIP3    H124832   2.034   6.519   2.771  0.8438 -0.3533  0.3433
 1091TIP3    H224833   2.074   6.535   2.916 -1.1059 -1.0068  0.9828
 1092TIP3   OH224834   3.235   4.138   2.844 -0.2133  0.5851 -0.2700
 1092TIP3    H124835   3.247   4.231   2.866 -0.1003  0.3146  0.9037
 1092TIP3    H224836   3.143   4.121   2.862 -0.0277  0.2580  0.4054
 1093TIP3   OH224837   6.684   1.557   2.241  0.1126  0.1114  0.1674
 1093TIP3    H124838   6.598   1.519   2.223  0.3885 -2.2410  2.9354
 1093TIP3    H224839   6.741   1.525   2.171 -0.6755 -0.7615 -0.0863
 1094TIP3   OH224840   4.249   2.239   0.212  0.3278 -0.3827 -0.2695
 1094TIP3    H124841   4.260   2.154   0.169  0.8854  0.9135 -2.8727
 1094TIP3    H224842   4.239   2.301   0.140  1.8626  2.0388  1.4783
 1095TIP3   OH224843   2.168   5.429   2.409 -0.3737 -0.4543 -0.8269
 1095TIP3    H124844   2.196   5.517   2.433  0.2448 -0.8373 -0.0646
 1095TIP3    H224845   2.220   5.372   2.466 -2.3461 -1.2355  0.3087
 1096TIP3   OH224846   1.190   5.803   3.223  0.7225  0.4369 -0.4443
 1096TIP3    H124847   1.134   5.815   3.300  0.3710  1.5527 -0.8450
 1096TIP3    H224848   1.133   5.760   3.158  0.2839  1.6167 -0.8690
 1097TIP3   OH224849   3.507   4.799   1.511 -0.9011 -0.1794  0.3799
 1097TIP3    H124850   3.461   4.872   1.470  0.8184  2.1175  2.1907
 1097TIP3    H224851   3.491   4.811   1.605  2.2931  0.1054  1.0045
 1098TIP3   OH224852   0.033   2.256   1.333  0.1930  0.0167  0.3410
 1098TIP3    H124853   0.059   2.336   1.288 -1.7085  0.3754 -0.2446
 1098TIP3    H224854   0.087   2.253   1.412  1.9201  0.6329 -0.7696
 1099TIP3   OH224855   3.181   4.200   0.912  0.4644 -0.6124 -0.3695
 1099TIP3    H124856   3.111   4.204   0.978  1.3132 -0.4660  0.5458
 1099TIP3    H224857   3.157   4.266   0.848 -2.6523 -3.5500 -2.5878
 1100TIP3   OH224858   0.148   3.294   1.153  0.7207  0.0898  0.3164
 1100TIP3    H124859   0.171   3.383   1.181  0.0470  0.2041  0.5300
 1100TIP3    H224860   0.231   3.248   1.147  0.9998  0.4997  1.0256
 1101TIP3   OH224861   5.658   0.867   1.473 -0.0004  0.3841 -0.7240
 1101TIP3    H124862   5.579   0.866   1.528  0.6108  0.9168  0.1889
 1101TIP3    H224863   5.721   0.812   1.520  0.8709  1.6625 -0.3257
 1102TIP3   OH224864   1.705   2.289   2.665 -0.1620  0.2626 -0.3529
 1102TIP3    H124865   1.776   2.228   2.645 -1.5105 -1.5761  0.2097
 1102TIP3    H224866   1.636   2.234   2.702 -1.5475  2.1162 -0.0515
 1103TIP3   OH224867   5.343   3.524   3.874 -0.4998 -0.1222  0.3951
 1103TIP3    H124868   5.312   3.481   3.954  1.7325  0.0657  1.4236
 1103TIP3    H224869   5.431   3.490   3.861  0.0709  1.6449 -0.6238
 1104TIP3   OH224870   4.280   2.908   2.031 -0.6623 -0.1103 -0.1625
 1104TIP3    H124871   4.296   2.896   2.125 -0.2895  2.8426  0.2462
 1104TIP3    H224872   4.186   2.893   2.021 -0.3605 -2.7038  0.1944
 1105TIP3   OH224873   3.173   2.044   0.750  0.0612 -0.3055 -0.2213
 1105TIP3    H124874   3.209   2.122   0.793 -1.9853 -0.5888  2.2223
 1105TIP3    H224875   3.226   2.035   0.671  1.9193  2.1787  0.5772
 1106TIP3   OH224876   4.357   1.311   1.158 -0.2645 -0.4160  0.8659
 1106TIP3    H124877   4.377   1.218   1.150 -0.1039 -0.6635  3.4320
 1106TIP3    H224878   4.441   1.351   1.181  0.0316  0.6823 -1.7756
 1107TIP3   OH224879   1.596   3.118   2.820 -0.2369  0.2350 -0.0135
 1107TIP3    H124880   1.685   3.145   2.843 -0.2074 -0.5067  0.8158
 1107TIP3    H224881   1.547   3.127   2.902 -0.5616 -0.8000 -0.0788
 1108TIP3   OH224882   3.527   4.211   2.806  0.1148 -0.0751  0.0563
 1108TIP3    H124883   3.480   4.292   2.828  1.1682  0.3635  0.8182
 1108TIP3    H224884   3.505   4.151   2.877  1.9804  0.6957  1.3692
 1109TIP3   OH224885   5.697   2.610   7.954  0.3179  0.2187 -0.1123
 1109TIP3    H124886   5.675   2.703   7.968 -0.7090 -0.0364  0.0421
 1109TIP3    H224887   5.772   2.612   7.895 -0.0860  1.1465 -0.6199
 1110TIP3   OH224888   3.267   4.109   0.612 -0.2170 -0.1182 -0.9720
 1110TIP3    H124889   3.359   4.092   0.590 -0.3199 -0.5501 -1.0765
 1110TIP3    H224890   3.268   4.126   0.707 -0.2885 -2.1933 -0.5411
 1111TIP3   OH224891   1.486   3.502   2.927  0.1920  0.0571 -0.6580
 1111TIP3    H124892   1.443   3.471   2.847 -1.9954  0.3792  0.3028
 1111TIP3    H224893   1.449   3.447   2.996  1.3531  0.3807  0.2433
 1112TIP3   OH224894   0.899   0.736   3.733  0.3374 -0.2746 -0.8706
 1112TIP3    H124895   0.848   0.666   3.773  0.6455  0.0625  0.1490
 1112TIP3    H224896   0.835   0.789   3.687  0.2286 -1.8242 -2.6374
 1113TIP3   OH224897   3.008   2.759   8.380 -0.5163 -0.0050  0.0577
 1113TIP3    H124898   3.041   2.672   8.402  0.7851 -0.1160 -2.0543
 1113TIP3    H224899   2.944   2.744   8.310  1.5302  0.8151 -2.1257
 1114TIP3   OH224900   6.362   4.074   0.283  0.5571 -0.1190  0.4261
 1114TIP3    H124901   6.297   4.026   0.335 -0.1573  0.3252 -0.0363
 1114TIP3    H224902   6.336   4.165   0.290  1.8280  0.2128  1.1898
 1115TIP3   OH224903   2.594   4.982   7.460 -0.6833  0.2628 -0.2826
 1115TIP3    H124904   2.635   5.063   7.430 -3.0258  0.6212 -2.9692
 1115TIP3    H224905   2.667   4.920   7.468  0.7591  1.6205 -1.8943
 1116TIP3   OH224906   5.331   3.351   0.694  0.4177  0.5801  0.2969
 1116TIP3    H124907   5.293   3.409   0.628  0.6795 -0.0655 -0.4355
 1116TIP3    H224908   5.421   3.338   0.666  0.4940  0.1933  0.7111
 1117TIP3   OH224909   3.634   6.572   1.931 -0.1042 -0.3128 -0.0900
 1117TIP3    H124910   3.637   6.559   2.025  1.4797 -1.1402 -0.2264
 1117TIP3    H224911   3.599   6.490   1.896 -1.0015  0.1081 -0.2315
 1118TIP3   OH224912   1.704   5.396   1.542  0.2689 -0.1229  0.1372
 1118TIP3    H124913   1.782   5.449   1.528 -0.0006  0.7900  1.8011
 1118TIP3    H224914   1.729   5.335   1.611 -0.3865 -0.0221  0.4734
 1119TIP3   OH224915   4.235   0.201   3.673 -0.2437 -0.4209  0.0790
 1119TIP3    H124916   4.231   0.192   3.768 -0.9539  0.9629  0.1944
 1119TIP3    H224917   4.180   0.129   3.640  0.2077 -1.0619  0.6902
 1120TIP3   OH224918   4.313   0.626   1.977 -0.2795 -0.0753 -0.2624
 1120TIP3    H124919   4.333   0.546   2.026 -1.4269  0.6079  1.3947
 1120TIP3    H224920   4.302   0.596   1.886  2.1935 -1.3258 -0.2362
 1121TIP3   OH224921   5.915   3.069   7.977  0.3905 -0.1054 -0.0881
 1121TIP3    H124922   5.898   3.154   8.017 -1.4877 -0.4042 -0.1701
 1121TIP3    H224923   6.008   3.071   7.954  0.4749  1.7363  0.3128
 1122TIP3   OH224924   2.813   6.534   2.302 -0.1047  0.4245  0.5359
 1122TIP3    H124925   2.810   6.442   2.330 -1.0333 -0.3582 -1.9181
 1122TIP3    H224926   2.741   6.576   2.349 -0.5108 -0.4089  0.6688
 1123TIP3   OH224927   4.771   4.621   0.267  0.3650 -0.2028 -0.0850
 1123TIP3    H124928   4.713   4.692   0.295  1.0842  0.4389 -0.1877
 1123TIP3    H224929   4.826   4.660   0.199  0.0963 -1.1463 -0.8709
 1124TIP3   OH224930   1.538   0.451   0.868  0.0191  0.1603  0.0608
 1124TIP3    H124931   1.517   0.481   0.956  2.1217  2.1954 -0.0665
 1124TIP3    H224932   1.616   0.397   0.879  0.3506  0.5110 -0.5829
 1125TIP3   OH224933   0.943   4.046   2.172  0.4056 -0.4926 -0.1867
 1125TIP3    H124934   0.935   3.953   2.194 -0.2020 -0.7781 -1.5140
 1125TIP3    H224935   1.037   4.063   2.171  0.5422 -1.2378 -0.4255
 1126TIP3   OH224936   2.697   0.113   8.587 -0.2042  0.1544 -0.2485
 1126TIP3    H124937   2.706   0.050   8.658  1.3688  0.3057 -0.2708
 1126TIP3    H224938   2.618   0.085   8.539 -0.0953 -1.1942  0.3207
 1127TIP3   OH224939   3.456   6.228   8.657 -0.3670  0.4864 -0.1203
 1127TIP3    H124940   3.477   6.268   8.741  0.8534  1.8928 -1.0438
 1127TIP3    H224941   3.504   6.279   8.593 -0.3922 -1.2214 -1.6007
 1128TIP3   OH224942   1.350   4.244   1.330 -0.4377 -0.0623  0.5550
 1128TIP3    H124943   1.280   4.285   1.281  0.6320 -0.1629 -1.1355
 1128TIP3    H224944   1.306   4.198   1.402 -1.9761  0.7413  0.1519
 1129TIP3   OH224945   5.911   5.502   1.148 -0.1681 -0.2167 -0.1787
 1129TIP3    H124946   5.889   5.512   1.055 -0.0431 -2.5194 -0.5066
 1129TIP3    H224947   6.004   5.481   1.149  0.6060  2.7333  0.7556
 1130TIP3   OH224948   6.793   4.206   8.652  0.4533  0.4522  0.6835
 1130TIP3    H124949   6.753   4.294   8.653 -1.8616 -0.4593 -1.0086
 1130TIP3    H224950   6.720   4.147   8.673  1.5884 -1.1650  0.2364
 1131TIP3   OH224951   0.493   4.598   0.089  0.3288 -0.2733  0.2436
 1131TIP3    H124952   0.530   4.523   0.043  0.4947  0.1819 -0.3777
 1131TIP3    H224953   0.399   4.579   0.094 -0.0828  0.6331 -2.2416
 1132TIP3   OH224954   0.282   0.547   7.987  0.8698  0.3492 -0.0122
 1132TIP3    H124955   0.341   0.558   7.913  0.8475  0.1901 -0.0540
 1132TIP3    H224956   0.304   0.619   8.046  1.4239  0.0262  0.1840
 1133TIP3   OH224957   2.353   1.115   1.191 -0.0281  0.1551  0.5737
 1133TIP3    H124958   2.270   1.109   1.144  0.0465  0.6332  0.3773
 1133TIP3    H224959   2.397   1.192   1.154  1.1248 -0.8913 -0.2913
 1134TIP3   OH224960   1.502   0.063   2.153 -0.3059  0.0886 -0.0295
 1134TIP3    H124961   1.595   0.067   2.133 -0.2716 -0.6929 -0.0595
 1134TIP3    H224962   1.459   0.096   2.074 -0.0584  0.3899 -0.0395
 1135TIP3   OH224963   4.744   4.163   0.351 -0.1805 -0.4562 -0.1941
 1135TIP3    H124964   4.689   4.149   0.429  0.9724  0.5120  0.8261
 1135TIP3    H224965   4.764   4.257   0.353  0.3466 -0.5364 -1.3419
 1136TIP3   OH224966   4.319   4.057   7.985 -0.7839 -0.0107  0.0712
 1136TIP3    H124967   4.408   4.052   7.949 -0.5408  0.8196  0.5150
 1136TIP3    H224968   4.267   4.094   7.914 -1.1410 -1.9682 -0.7604
 1137TIP3   OH224969   5.909   5.022   1.780 -0.3904  0.2031  0.9996
 1137TIP3    H124970   5.855   4.952   1.743  0.4351 -0.4164  0.9462
 1137TIP3    H224971   5.997   4.984   1.786  0.1849  1.4167  0.4682
 1138TIP3   OH224972   0.642   1.195   8.297 -0.2619 -0.2040 -0.3562
 1138TIP3    H124973   0.650   1.171   8.390  1.5565  0.4553 -0.3097
 1138TIP3    H224974   0.714   1.256   8.282 -1.2138  0.5919 -1.9368
 1139TIP3   OH224975   2.306   6.459   0.456  0.8581 -1.1255  0.0631
 1139TIP3    H124976   2.365   6.473   0.383  2.0851 -1.1617  1.0130
 1139TIP3    H224977   2.234   6.521   0.441  0.2635 -2.2228 -1.9733
 1140TIP3   OH224978   3.575   5.245   1.827 -0.0209 -0.2534 -0.8628
 1140TIP3    H124979   3.589   5.324   1.775  1.5968  0.1659  0.1329
 1140TIP3    H224980   3.518   5.273   1.898  0.1417 -0.1040 -0.7909
 1141TIP3   OH224981   1.352   6.438   3.414 -0.3789 -0.3071  0.7425
 1141TIP3    H124982   1.299   6.453   3.336 -0.0774  1.0532  0.7787
 1141TIP3    H224983   1.291   6.397   3.477 -0.4797 -1.9386 -0.3530
 1142TIP3   OH224984   4.480   1.310   8.127 -0.0232 -0.0677 -0.6330
 1142TIP3    H124985   4.559   1.293   8.178  0.0519 -0.3348 -0.8365
 1142TIP3    H224986   4.502   1.280   8.038 -0.4391 -0.3705 -0.6324
 1143TIP3   OH224987   3.431   5.886   8.192  0.0221 -0.0112 -0.0315
 1143TIP3    H124988   3.477   5.802   8.203  0.8227  0.3743 -0.3465
 1143TIP3    H224989   3.500   5.948   8.168 -0.9301  0.0866 -2.9616
 1144TIP3   OH224990   4.629   6.480   2.553 -0.0404  0.2714 -0.0553
 1144TIP3    H124991   4.547   6.510   2.593 -0.2995 -2.9934  2.2122
 1144TIP3    H224992   4.694   6.544   2.583 -1.1741  0.9577  1.0414
 1145TIP3   OH224993   2.416   1.372   8.056  0.3572  0.3757  0.0746
 1145TIP3    H124994   2.328   1.370   8.093  0.4222  0.4559  0.2361
 1145TIP3    H224995   2.439   1.281   8.040  1.0258  0.1828  1.9002
 1146TIP3   OH224996   1.528   3.803   1.456 -0.2920 -0.2490  0.2977
 1146TIP3    H124997   1.467   3.755   1.398  0.9087 -3.2053  1.2734
 1146TIP3    H224998   1.504   3.776   1.544  1.0939  0.1671  0.8354
 1147TIP3   OH224999   1.726   1.423   3.842  0.3993 -0.3097 -0.1346
 1147TIP3    H125000   1.762   1.512   3.846  1.2770 -0.6401 -0.5575
 1147TIP3    H225001   1.791   1.368   3.886 -0.0038 -0.7902 -0.1288
 1148TIP3   OH225002   4.625   4.012   2.101  0.1909  0.2921  0.2544
 1148TIP3    H125003   4.567   4.047   2.168  0.0585 -0.4120  0.5182
 1148TIP3    H225004   4.699   3.976   2.150  0.3114  0.1821 -0.0066
 1149TIP3   OH225005   2.659   2.775   1.555  0.1861 -0.1501  0.2461
 1149TIP3    H125006   2.597   2.751   1.486 -0.6469 -1.0931  1.2909
 1149TIP3    H225007   2.700   2.855   1.523 -0.0351 -0.6615 -1.4265
 1150TIP3   OH225008   5.115   6.436   0.389 -0.2060 -0.6123 -0.0749
 1150TIP3    H125009   5.022   6.454   0.371 -0.1232  1.4679  1.2309
 1150TIP3    H225010   5.151   6.409   0.304 -1.3359  1.7985 -1.4381
 1151TIP3   OH225011   1.512   2.894   4.061  0.0960  0.1315  0.3112
 1151TIP3    H125012   1.452   2.836   4.107  0.1388 -1.5618 -1.6485
 1151TIP3    H225013   1.456   2.959   4.019 -0.1082  0.3588  0.9339
 1152TIP3   OH225014   5.745   0.168   3.161  0.3220  0.4542 -0.2976
 1152TIP3    H125015   5.739   0.090   3.215 -0.6719 -0.2220 -1.3393
 1152TIP3    H225016   5.748   0.240   3.223 -0.6367 -0.2953  0.6633
 1153TIP3   OH225017   0.007   1.458   1.410 -0.6504 -0.3430  0.3402
 1153TIP3    H125018   0.080   1.520   1.404 -1.3122  0.6353  1.7503
 1153TIP3    H225019  -0.049   1.479   1.335 -0.9147  0.9007  0.8437
 1154TIP3   OH225020   6.504   4.096   0.048  0.0733  0.1129 -0.3166
 1154TIP3    H125021   6.475   4.182   0.019 -0.2032 -0.1415 -0.8209
 1154TIP3    H225022   6.448   4.076   0.123  0.8367  0.8055  0.4436
 1155TIP3   OH225023   6.273   5.247   8.307 -0.0639  1.1264 -0.1838
 1155TIP3    H125024   6.348   5.270   8.251  1.0662 -0.5463  0.5503
 1155TIP3    H225025   6.198   5.285   8.263  0.8614  0.4276 -2.5083
 1156TIP3   OH225026   6.700   3.178   1.725  0.1238  0.6150  0.1899
 1156TIP3    H125027   6.640   3.218   1.788 -2.0474 -1.4692 -0.4371
 1156TIP3    H225028   6.703   3.086   1.749 -0.1532 -0.0875 -2.2291
 1157TIP3   OH225029   2.060   6.478   7.601 -0.3267  0.1520 -0.4135
 1157TIP3    H125030   2.083   6.442   7.687  0.2539  1.6412  0.0831
 1157TIP3    H225031   2.144   6.493   7.558 -0.3581  3.1335  0.3653
 1158TIP3   OH225032   1.607   5.291   1.943 -0.4219 -0.6058  0.0846
 1158TIP3    H125033   1.526   5.333   1.912  0.1371 -0.1763 -0.8206
 1158TIP3    H225034   1.673   5.361   1.939  0.0106 -0.9608  0.7925
 1159TIP3   OH225035   1.129   0.364   2.680 -0.2582 -0.0028  0.1416
 1159TIP3    H125036   1.054   0.364   2.620 -1.2645  2.9867  1.1970
 1159TIP3    H225037   1.101   0.310   2.754 -2.0744  2.1382  1.1498
 1160TIP3   OH225038   1.518   1.249   8.542  0.4377 -0.7374  0.2195
 1160TIP3    H125039   1.438   1.236   8.491  1.2158 -0.7695 -1.0244
 1160TIP3    H225040   1.560   1.163   8.542  0.6480 -0.6347  0.5758
 1161TIP3   OH225041   1.156   0.953   3.033  0.3555  0.0237  0.3302
 1161TIP3    H125042   1.118   0.990   3.112  0.1976  1.1353 -0.2408
 1161TIP3    H225043   1.082   0.912   2.988  0.6712 -1.7452  1.3450
 1162TIP3   OH225044   5.833   5.524   0.511 -0.2709 -0.4277  0.0501
 1162TIP3    H125045   5.857   5.498   0.422 -0.2914  1.6721 -0.6275
 1162TIP3    H225046   5.749   5.569   0.501 -0.4850 -0.5550  1.1950
 1163TIP3   OH225047   2.614   2.143   3.253  0.3161 -0.1955  0.1345
 1163TIP3    H125048   2.556   2.090   3.309 -0.7253 -0.7297 -1.3923
 1163TIP3    H225049   2.612   2.230   3.293 -0.4387 -0.5453  0.8995
 1164TIP3   OH225050   2.523   4.782   0.617  0.2290 -0.4501  0.4137
 1164TIP3    H125051   2.435   4.817   0.601  1.2929  2.5572  0.5075
 1164TIP3    H225052   2.545   4.813   0.705  2.0146  0.4084 -0.2860
 1165TIP3   OH225053   6.316   2.860   3.195 -0.1878  0.0818 -0.0360
 1165TIP3    H125054   6.261   2.920   3.244 -1.2130  1.1392 -2.3244
 1165TIP3    H225055   6.394   2.911   3.174  0.2552 -0.3671  0.5105
 1166TIP3   OH225056   2.349   6.622   8.163 -0.5523  0.1850  0.3089
 1166TIP3    H125057   2.374   6.708   8.130 -1.1151 -0.0097 -0.6766
 1166TIP3    H225058   2.329   6.571   8.084 -0.4706 -0.7688  0.8902
 1167TIP3   OH225059   2.783   0.917   1.598 -0.3690 -0.2604  0.3704
 1167TIP3    H125060   2.764   0.827   1.625  0.7888  0.0307  2.3555
 1167TIP3    H225061   2.802   0.911   1.505  2.5541 -2.6055  0.9652
 1168TIP3   OH225062   2.677   6.097   0.559  0.6133  0.3007  0.3588
 1168TIP3    H125063   2.631   6.143   0.489 -1.4585 -1.0198  0.7350
 1168TIP3    H225064   2.620   6.106   0.635  1.7113 -0.1836  1.2690
 1169TIP3   OH225065   6.628   5.819   0.000 -0.4776  0.9470  0.3608
 1169TIP3    H125066   6.583   5.826  -0.084 -1.1312 -0.2065  0.5908
 1169TIP3    H225067   6.654   5.908   0.021 -2.1730  1.5748 -0.0503
 1170TIP3   OH225068   6.412   3.508   3.779 -0.8186  0.2445 -0.3778
 1170TIP3    H125069   6.414   3.577   3.712 -2.4613  0.3927 -0.3156
 1170TIP3    H225070   6.500   3.469   3.776  0.7956  3.4456  0.7950
 1171TIP3   OH225071   0.690   2.351   8.592 -0.3533 -0.4202  0.3898
 1171TIP3    H125072   0.752   2.300   8.540  0.7007  1.7649 -0.6038
 1171TIP3    H225073   0.739   2.376   8.671  1.8406  4.8532 -2.1798
 1172TIP3   OH225074   1.622   0.718   1.885 -0.0271 -0.4837 -0.6761
 1172TIP3    H125075   1.574   0.649   1.931  0.7638  0.8077  2.3153
 1172TIP3    H225076   1.682   0.671   1.828 -1.3118 -2.1837 -0.7260
 1173TIP3   OH225077   0.948   4.514   2.979 -0.0616  0.2799 -0.2307
 1173TIP3    H125078   0.913   4.580   3.039 -0.1834 -0.8882  1.0247
 1173TIP3    H225079   1.010   4.464   3.032  1.9007  0.9003 -1.8201
 1174TIP3   OH225080   6.122   6.216   0.095  0.1157  1.0309  0.2144
 1174TIP3    H125081   6.134   6.124   0.121  0.6051  1.2925  0.9426
 1174TIP3    H225082   6.027   6.225   0.083 -0.1771  0.9429  2.1809
 1175TIP3   OH225083   1.932   6.030   0.941  0.6733  0.2852  0.4328
 1175TIP3    H125084   1.857   6.081   0.972  1.1122  0.6968  0.8336
 1175TIP3    H225085   1.998   6.095   0.920  0.6864 -0.0385 -0.5838
 1176TIP3   OH225086   0.343   4.544   3.075 -0.2497 -0.8831 -0.4809
 1176TIP3    H125087   0.397   4.589   3.140  1.4213 -0.4271 -2.0961
 1176TIP3    H225088   0.262   4.594   3.073 -0.4647 -1.0786  1.4109
 1177TIP3   OH225089   4.081   1.593   1.450 -0.5535  0.3830 -0.2592
 1177TIP3    H125090   4.095   1.530   1.379  2.1502  1.4799 -0.8047
 1177TIP3    H225091   4.130   1.671   1.423 -0.1631  1.1427  2.4249
 1178TIP3   OH225092   5.308   6.138   0.845  0.1541 -0.1272 -0.6568
 1178TIP3    H125093   5.339   6.225   0.872  3.7623 -0.9616 -1.5281
 1178TIP3    H225094   5.293   6.145   0.751 -0.9382 -0.1452 -0.5000
 1179TIP3   OH225095   1.220   6.264   3.595  0.0255 -0.0442 -0.6870
 1179TIP3    H125096   1.277   6.213   3.653  1.0317  1.1717 -0.5673
 1179TIP3    H225097   1.174   6.198   3.543  1.0418 -1.0903 -0.3055
 1180TIP3   OH225098   2.078   1.558   2.308 -0.0198  0.6838 -0.3107
 1180TIP3    H125099   2.034   1.642   2.300 -0.4714  0.3694 -1.3326
 1180TIP3    H225100   2.111   1.540   2.220 -1.8735 -1.2400 -0.6977
 1181TIP3   OH225101   6.861   5.856   2.209  0.3950 -0.8057  0.0217
 1181TIP3    H125102   6.815   5.801   2.273  0.3752 -1.0383 -0.1912
 1181TIP3    H225103   6.796   5.920   2.181  0.6936 -0.0674  0.9834
 1182TIP3   OH225104   1.243   5.454   0.298 -0.1607 -0.0076  0.4602
 1182TIP3    H125105   1.158   5.417   0.274  0.6255 -1.7177  0.2100
 1182TIP3    H225106   1.285   5.386   0.350  0.3383  1.5331  2.2111
 1183TIP3   OH225107   3.943   5.419   2.172 -0.1630 -0.6385  0.3425
 1183TIP3    H125108   3.870   5.433   2.113 -0.1963 -1.9725  0.0355
 1183TIP3    H225109   3.932   5.329   2.204 -0.1965  0.0506  2.4622
 1184TIP3   OH225110   1.056   2.008   1.430  0.0706 -0.0902 -0.0778
 1184TIP3    H125111   1.004   2.029   1.352  1.0953 -0.7477 -0.9745
 1184TIP3    H225112   1.079   2.093   1.467 -2.4861  0.2241  0.9737
 1185TIP3   OH225113   2.401   5.884   8.342 -0.7649  0.8178 -0.1517
 1185TIP3    H125114   2.446   5.967   8.357 -1.6097  1.1902  0.4178
 1185TIP3    H225115   2.422   5.861   8.252  3.0974 -0.6061  0.9376
 1186TIP3   OH225116   4.131   4.386   0.499 -0.8172  0.3285 -0.7171
 1186TIP3    H125117   4.065   4.337   0.547 -0.1004  0.3051  0.2821
 1186TIP3    H225118   4.204   4.324   0.489 -0.2503  0.8947 -0.2202
 1187TIP3   OH225119   1.615   1.058   7.812  0.4176 -0.2275 -0.1771
 1187TIP3    H125120   1.702   1.043   7.848  0.4377  0.2006 -0.0377
 1187TIP3    H225121   1.574   0.972   7.812  0.5167 -0.2841  0.6121
 1188TIP3   OH225122   4.219   6.195   0.584  0.0633 -0.1509 -0.2876
 1188TIP3    H125123   4.194   6.109   0.619 -1.1499  0.0311 -0.6890
 1188TIP3    H225124   4.141   6.228   0.540  0.3380  1.4033  0.3164
 1189TIP3   OH225125   0.949   0.212   0.074  0.4119  0.4544  0.9280
 1189TIP3    H125126   0.857   0.196   0.097 -0.1068  2.0520  0.1495
 1189TIP3    H225127   0.955   0.186  -0.017  0.5735  0.8536  0.8208
 1190TIP3   OH225128   3.384   0.588   0.540  0.3751  0.3139 -0.7088
 1190TIP3    H125129   3.426   0.639   0.471  3.0269 -1.2831 -0.4529
 1190TIP3    H225130   3.364   0.504   0.499 -0.3733  0.2261 -0.1735
 1191TIP3   OH225131   6.104   3.476   1.147 -0.6836  0.2516 -0.4303
 1191TIP3    H125132   6.135   3.534   1.216 -1.2034  2.1768 -1.7498
 1191TIP3    H225133   6.077   3.396   1.193  1.4703  0.4111  1.2714
 1192TIP3   OH225134   0.005   1.975   2.000 -0.2274  0.2686  0.5813
 1192TIP3    H125135   0.008   1.935   2.086 -2.5020 -0.3161  0.4334
 1192TIP3    H225136  -0.006   1.901   1.939 -0.3384  0.8020 -0.0595
 1193TIP3   OH225137   5.151   5.513   2.956 -0.4272 -0.1864  0.0280
 1193TIP3    H125138   5.107   5.494   3.039 -0.8518 -0.6403 -0.2950
 1193TIP3    H225139   5.147   5.431   2.907  1.9917 -0.6744  0.5103
 1194TIP3   OH225140   5.005   2.594   0.839  0.2916  0.1029 -0.7589
 1194TIP3    H125141   4.989   2.507   0.876  1.4507 -0.0923 -0.6678
 1194TIP3    H225142   4.918   2.630   0.824 -0.2110 -0.5114  0.5287
 1195TIP3   OH225143   2.764   3.485   0.786 -0.3212  0.2762  0.1194
 1195TIP3    H125144   2.749   3.550   0.717 -0.8700 -2.3445 -2.4403
 1195TIP3    H225145   2.691   3.498   0.847 -0.6033  1.8148 -0.4964
 1196TIP3   OH225146   6.760   4.712   0.379  0.3888  0.9136  0.6338
 1196TIP3    H125147   6.810   4.669   0.310 -0.2689  0.7524  0.2531
 1196TIP3    H225148   6.688   4.755   0.334 -0.2558  0.5111  1.2509
 1197TIP3   OH225149   0.631   6.433   2.195 -0.4068 -0.2007 -0.2684
 1197TIP3    H125150   0.554   6.388   2.163 -1.0149  0.1928  0.6025
 1197TIP3    H225151   0.633   6.415   2.289  2.7426 -3.4756 -0.7222
 1198TIP3   OH225152   2.292   6.617   1.048 -0.1721  0.4583 -0.1749
 1198TIP3    H125153   2.379   6.577   1.049 -0.5259 -0.3498 -0.7060
 1198TIP3    H225154   2.231   6.543   1.048 -0.8938  1.0072  1.0456
 1199TIP3   OH225155   0.096   4.254   8.062  0.2220  0.3333 -0.4096
 1199TIP3    H125156   0.007   4.289   8.051  0.5056  1.6085  1.1021
 1199TIP3    H225157   0.144   4.287   7.987  0.1019  1.9978  0.2126
 1200TIP3   OH225158   2.564   1.487   0.616  0.2963  0.1976  0.2415
 1200TIP3    H125159   2.528   1.485   0.705  1.5442 -0.7137  0.7464
 1200TIP3    H225160   2.620   1.565   0.615  0.3205  0.1800  0.2546
 1201TIP3   OH225161   1.943   5.586   2.410  0.5450  0.0367 -0.0924
 1201TIP3    H125162   1.908   5.613   2.325 -0.4112  0.4205  0.4196
 1201TIP3    H225163   2.014   5.526   2.387  1.0459  0.9896 -1.1901
 1202TIP3   OH225164   3.539   5.639   8.221  0.4754 -0.0743  0.0043
 1202TIP3    H125165   3.475   5.576   8.255  1.6638 -1.3837 -0.1086
 1202TIP3    H225166   3.613   5.633   8.282  0.6623  1.1428 -0.0818
 1203TIP3   OH225167   2.599   5.474   2.261 -0.3075 -0.4403  0.2981
 1203TIP3    H125168   2.548   5.546   2.225 -0.3467 -0.4332  0.3684
 1203TIP3    H225169   2.541   5.432   2.324 -0.0743 -0.1608  0.7038
 1204TIP3   OH225170   0.900   0.419   0.372 -0.2867 -0.1557  0.3628
 1204TIP3    H125171   0.913   0.393   0.281 -0.9290  0.4142  0.1047
 1204TIP3    H225172   0.914   0.338   0.422 -0.0044 -0.4854 -0.2430
 1205TIP3   OH225173   5.063   1.741   0.218 -0.0943  0.8070 -0.0656
 1205TIP3    H125174   5.088   1.704   0.302  2.0778 -1.3601 -1.5376
 1205TIP3    H225175   5.133   1.804   0.198  1.5457 -1.4019 -1.8108
 1206TIP3   OH225176   2.650   4.390   1.989 -0.3277  0.1149 -0.2565
 1206TIP3    H125177   2.713   4.398   2.061  0.0050 -0.1594 -0.5157
 1206TIP3    H225178   2.663   4.468   1.936 -0.9884  0.6197  0.2999
 1207TIP3   OH225179   5.252   4.962   1.618  0.7146  0.3551  0.1568
 1207TIP3    H125180   5.216   5.012   1.690  0.8602 -0.7473  1.0238
 1207TIP3    H225181   5.346   4.978   1.622  0.7584  0.0385  0.4191
 1208TIP3   OH225182   1.093   4.971   3.380 -0.0731 -0.0611 -0.4274
 1208TIP3    H125183   1.047   4.897   3.419  3.2602 -1.8872  0.4141
 1208TIP3    H225184   1.115   5.028   3.455  0.9797 -0.4169 -0.4436
 1209TIP3   OH225185   4.273   1.107   1.580 -0.1604  0.4914 -0.2099
 1209TIP3    H125186   4.207   1.063   1.527  0.2936 -0.7612  0.2301
 1209TIP3    H225187   4.356   1.068   1.553  0.3111  1.3951 -0.1088
 1210TIP3   OH225188   6.459   0.778   0.496  0.4738 -0.0714 -0.2465
 1210TIP3    H125189   6.544   0.816   0.521 -0.5121  2.0666  0.0294
 1210TIP3    H225190   6.394   0.842   0.526 -1.1616 -0.8312 -1.9585
 1211TIP3   OH225191   1.852   5.722   3.097  0.5621  0.5181  0.1558
 1211TIP3    H125192   1.895   5.641   3.071  1.6299  1.1994 -0.2869
 1211TIP3    H225193   1.908   5.791   3.062 -2.3771  1.5554 -3.1935
 1212TIP3   OH225194   2.397   4.091   0.864 -0.3231 -0.7856  0.7146
 1212TIP3    H125195   2.461   4.058   0.801 -0.5250 -0.5834  0.3998
 1212TIP3    H225196   2.378   4.180   0.835 -0.5480 -0.7519  0.9591
 1213TIP3   OH225197   2.424   3.048   8.298  0.1374  0.4262 -0.0428
 1213TIP3    H125198   2.505   3.049   8.349  1.0344  1.1988 -1.4309
 1213TIP3    H225199   2.425   2.964   8.253  0.4114  0.6300 -0.4226
 1214TIP3   OH225200   6.229   4.754   8.413 -0.0226 -0.4110  0.2874
 1214TIP3    H125201   6.184   4.833   8.383  0.6210  0.5417  1.7364
 1214TIP3    H225202   6.289   4.732   8.341 -0.3432  0.2978 -0.2110
 1215TIP3   OH225203   0.225   3.573   1.482  0.0627  0.0282  0.0198
 1215TIP3    H125204   0.215   3.519   1.561 -1.9711  1.9683  1.2124
 1215TIP3    H225205   0.262   3.655   1.514 -0.5047  0.7398 -1.0818
 1216TIP3   OH225206   2.894   5.795   3.182 -0.0584  0.2666  0.3844
 1216TIP3    H125207   2.905   5.728   3.249  1.2090  0.7462  0.6809
 1216TIP3    H225208   2.984   5.818   3.156 -0.5047  0.8363 -0.7264
 1217TIP3   OH225209   5.615   3.730   0.036 -0.5044 -0.0268 -0.5289
 1217TIP3    H125210   5.692   3.787   0.035  1.3168 -2.3214 -0.2954
 1217TIP3    H225211   5.585   3.729  -0.055  0.6171 -0.1557 -0.9185
 1218TIP3   OH225212   6.426   0.904   1.969 -0.5528 -0.2380 -0.4066
 1218TIP3    H125213   6.344   0.854   1.972 -0.3207 -0.6173 -0.2294
 1218TIP3    H225214   6.408   0.978   1.911 -1.5014  0.5477  0.8495
 1219TIP3   OH225215   4.558   4.411   0.371  0.1479  0.7181  0.0033
 1219TIP3    H125216   4.649   4.440   0.373  1.1246 -2.1097  0.4143
 1219TIP3    H225217   4.511   4.485   0.331  2.3469  2.8035  1.0114
 1220TIP3   OH225218   3.612   0.440   2.039  0.8106 -0.1174 -0.1499
 1220TIP3    H125219   3.605   0.436   2.134  1.5460  2.6904  0.1108
 1220TIP3    H225220   3.703   0.418   2.020  0.6464 -0.7493 -0.2486
 1221TIP3   OH225221   0.492   5.829   0.501  0.0479 -0.3039 -0.2875
 1221TIP3    H125222   0.545   5.843   0.580 -0.3239 -0.2823 -0.0373
 1221TIP3    H225223   0.418   5.890   0.511 -0.2800 -0.6751 -0.3910
 1222TIP3   OH225224   1.880   4.045   1.213  0.0500 -0.1453  0.1669
 1222TIP3    H125225   1.970   4.021   1.235  0.1979  0.9923  0.8696
 1222TIP3    H225226   1.888   4.098   1.134  0.1895  1.3056  1.1122
 1223TIP3   OH225227   4.464   3.450   2.162  0.0285  0.3749 -0.8628
 1223TIP3    H125228   4.429   3.365   2.135  1.1827 -0.4045  0.0168
 1223TIP3    H225229   4.395   3.512   2.140 -1.5138 -0.9889 -0.0663
 1224TIP3   OH225230   1.388   0.462   3.287 -0.0929 -0.3441  0.1456
 1224TIP3    H125231   1.439   0.454   3.368 -0.3402 -1.3513  0.2085
 1224TIP3    H225232   1.435   0.528   3.236  2.7036 -2.8944 -0.8198
 1225TIP3   OH225233   2.302   2.283   2.959 -0.3069  0.1107  0.1202
 1225TIP3    H125234   2.388   2.262   2.995  0.2044 -0.6213 -1.4223
 1225TIP3    H225235   2.249   2.307   3.035  1.3954  1.1112  1.0544
 1226TIP3   OH225236   3.435   2.775   0.896 -0.1923  0.0043  0.3363
 1226TIP3    H125237   3.352   2.743   0.931 -0.2088  1.2919  1.5944
 1226TIP3    H225238   3.413   2.859   0.855  0.3417 -0.0924 -0.1689
 1227TIP3   OH225239   1.949   3.329   7.844  0.1782  0.6468 -0.2255
 1227TIP3    H125240   1.946   3.421   7.870  0.0173  1.0526 -1.6130
 1227TIP3    H225241   1.862   3.310   7.809  0.4280  0.1553 -0.5939
 1228TIP3   OH225242   5.861   6.710   2.347  0.0064 -0.5011 -0.4796
 1228TIP3    H125243   5.900   6.785   2.391 -1.6456  1.5570 -2.2675
 1228TIP3    H225244   5.912   6.635   2.377  2.5695  1.4583  0.4422
 1229TIP3   OH225245   2.052   6.265   1.437  0.6750 -0.1674 -0.5687
 1229TIP3    H125246   2.122   6.253   1.501  1.3009 -0.7715 -1.3444
 1229TIP3    H225247   1.998   6.335   1.473  2.2057  0.9773 -0.3894
 1230TIP3   OH225248   2.709   4.502   0.899 -0.9058 -0.0745 -0.0677
 1230TIP3    H125249   2.689   4.507   0.806 -0.6902  2.5096 -0.0306
 1230TIP3    H225250   2.633   4.541   0.942 -0.1061  0.6645  0.6977
 1231TIP3   OH225251   3.072   1.757   1.630  0.1472 -0.1774  0.4051
 1231TIP3    H125252   3.069   1.663   1.616  1.0111 -0.0824 -0.5500
 1231TIP3    H225253   3.037   1.770   1.718 -0.1852 -1.3591  0.4607
 1232TIP3   OH225254   0.015   1.509   1.045 -0.4149 -0.0875 -0.2116
 1232TIP3    H125255  -0.007   1.599   1.069  1.4652 -0.3185  2.9502
 1232TIP3    H225256  -0.027   1.456   1.113  2.1239 -1.1899  0.5913
 1233TIP3   OH225257   0.090   0.268   3.069 -0.6267 -0.3861 -0.6026
 1233TIP3    H125258   0.066   0.308   2.986  0.1230  3.0783  0.6667
 1233TIP3    H225259   0.014   0.281   3.125 -0.4284 -0.9914 -0.1754
 1234TIP3   OH225260   2.189   3.158   8.494  0.1227  0.2990  0.1974
 1234TIP3    H125261   2.112   3.147   8.438  0.6015  2.2666 -0.9234
 1234TIP3    H225262   2.154   3.197   8.575 -0.2701 -0.4850  0.4175
 1235TIP3   OH225263   2.373   2.385   1.639  0.3361  0.2471  0.2340
 1235TIP3    H125264   2.311   2.440   1.686 -0.7329 -1.1407  0.5034
 1235TIP3    H225265   2.353   2.400   1.547 -0.1212  0.1143  0.3109
 1236TIP3   OH225266   6.336   0.772   8.068  0.8736  0.3148  0.2372
 1236TIP3    H125267   6.258   0.826   8.077 -0.5654 -1.7825  1.2182
 1236TIP3    H225268   6.343   0.756   7.974 -0.7799 -0.6412  0.2352
 1237TIP3   OH225269   1.309   2.967   8.321  0.3378  0.0769  0.0046
 1237TIP3    H125270   1.352   2.883   8.309 -0.4288 -0.2869 -0.2601
 1237TIP3    H225271   1.350   3.025   8.257  1.3347  0.0978  0.6413
 1238TIP3   OH225272   5.323   0.191   8.518 -0.0844 -0.0882  0.1027
 1238TIP3    H125273   5.286   0.206   8.431 -1.1212 -2.4225  0.0592
 1238TIP3    H225274   5.363   0.274   8.542 -0.7240  0.9412 -2.1402
 1239TIP3   OH225275   5.995   6.186   7.927 -0.3116 -0.0027 -0.1221
 1239TIP3    H125276   6.001   6.115   7.991 -0.2217  0.0355 -0.0871
 1239TIP3    H225277   5.906   6.181   7.894  0.4602 -1.9298 -2.1788
 1240TIP3   OH225278   5.472   1.978   2.172 -0.0670 -0.0544  0.3735
 1240TIP3    H125279   5.517   2.052   2.211 -1.0420 -0.4321  2.3528
 1240TIP3    H225280   5.432   2.013   2.092  0.3624  1.2754  0.7257
 1241TIP3   OH225281   3.409   6.670   2.945 -0.4145  0.2609  0.1690
 1241TIP3    H125282   3.315   6.691   2.947 -0.3032  0.7109  0.9357
 1241TIP3    H225283   3.442   6.702   3.028  0.2895 -0.5527  0.2125
 1242TIP3   OH225284   2.203   1.574   2.075  0.2479  0.1059  0.1789
 1242TIP3    H125285   2.178   1.649   2.021 -0.7486 -0.0093  0.4638
 1242TIP3    H225286   2.208   1.501   2.014  0.0920  0.1777  0.0787
 1243TIP3   OH225287   1.772   0.187   7.914 -0.1322 -0.1349 -0.2639
 1243TIP3    H125288   1.842   0.209   7.853  0.8394 -0.4243  0.7229
 1243TIP3    H225289   1.815   0.137   7.983 -1.3454 -0.4573  0.2855
 1244TIP3   OH225290   5.604   2.528   0.193  0.0097 -0.7329  0.0492
 1244TIP3    H125291   5.691   2.520   0.232  0.2746 -2.5759 -0.8279
 1244TIP3    H225292   5.547   2.478   0.250 -0.8228  1.6587  1.4350
 1245TIP3   OH225293   1.177   0.618   1.064  0.0886  0.2435  0.6970
 1245TIP3    H125294   1.211   0.648   0.980 -0.1525  1.3715  0.9851
 1245TIP3    H225295   1.247   0.563   1.100  0.6394  0.6349  0.2353
 1246TIP3   OH225296   1.170   0.155   8.211  0.1424  0.0737  0.1529
 1246TIP3    H125297   1.084   0.142   8.172 -0.0741 -0.0247  0.6680
 1246TIP3    H225298   1.219   0.076   8.188 -0.1214 -0.1751  0.4488
 1247TIP3   OH225299   1.527   2.090   2.757 -0.2890 -0.3633  0.1387
 1247TIP3    H125300   1.466   2.096   2.683  0.5960 -1.9415 -0.7735
 1247TIP3    H225301   1.472   2.061   2.830 -1.4870  2.7294  0.6000
 1248TIP3   OH225302   6.374   0.211   0.804 -0.0268  0.7359 -0.0260
 1248TIP3    H125303   6.387   0.205   0.710  1.8415 -1.1144  0.2780
 1248TIP3    H225304   6.323   0.133   0.827 -1.2930  1.6547  0.4103
 1249TIP3   OH225305   3.800   4.809   0.765 -0.1022 -0.0979 -0.6823
 1249TIP3    H125306   3.707   4.814   0.743 -0.0000 -3.1342 -2.3863
 1249TIP3    H225307   3.840   4.767   0.689  2.4585 -0.0798  0.5549
 1250TIP3   OH225308   1.684   4.222   0.093 -0.1296  0.1230 -0.1032
 1250TIP3    H125309   1.600   4.215   0.138 -0.0151  0.0349  0.1004
 1250TIP3    H225310   1.662   4.214   0.001 -0.6330  2.5917 -0.2621
 1251TIP3   OH225311   4.190   0.109   2.796 -0.2362  0.3219 -0.3823
 1251TIP3    H125312   4.263   0.150   2.749 -0.9623  1.6283 -0.4341
 1251TIP3    H225313   4.229   0.074   2.876  0.3382  1.7514  0.0016
 1252TIP3   OH225314   2.276   2.022   0.402  0.5994  0.4887  0.0188
 1252TIP3    H125315   2.335   1.959   0.361  2.0248  1.1202  1.0138
 1252TIP3    H225316   2.282   2.100   0.347  2.3494  1.2636  1.2221
 1253TIP3   OH225317   6.489   6.699   8.649 -0.0401 -0.1983 -0.0638
 1253TIP3    H125318   6.538   6.644   8.588 -0.7311  1.1795 -1.9411
 1253TIP3    H225319   6.463   6.775   8.597 -1.0013  0.8565  1.8679
 1254TIP3   OH225320   6.535   0.188   3.128 -0.6638  0.2152  0.1683
 1254TIP3    H125321   6.533   0.275   3.088 -1.6032  0.8717  1.5950
 1254TIP3    H225322   6.459   0.143   3.091 -1.0451  0.5278  0.5649
 1255TIP3   OH225323   0.378   6.396   2.737  0.5973 -0.1839  1.0679
 1255TIP3    H125324   0.421   6.453   2.674 -2.6568 -0.3220 -1.5582
 1255TIP3    H225325   0.343   6.456   2.803 -1.9251  0.9300 -1.1306
 1256TIP3   OH225326   3.851   0.488   3.379 -0.5024  0.2563  0.1342
 1256TIP3    H125327   3.905   0.475   3.457 -1.0652  0.0241  0.4901
 1256TIP3    H225328   3.784   0.551   3.407 -1.1292 -0.3683  0.0457
 1257TIP3   OH225329   0.604   3.277   0.857  0.5794  0.0067  0.3878
 1257TIP3    H125330   0.540   3.208   0.843 -1.0432  1.0902  1.9496
 1257TIP3    H225331   0.551   3.357   0.864  2.3482  1.3921 -1.0555
 1258TIP3   OH225332   5.557   6.691   0.588  0.2412 -0.2102 -0.3263
 1258TIP3    H125333   5.539   6.610   0.541 -1.2657 -0.2038  0.2031
 1258TIP3    H225334   5.512   6.682   0.671 -1.0763  1.6711 -0.7669
 1259TIP3   OH225335   2.957   3.395   1.671  0.4282 -0.1256 -0.0040
 1259TIP3    H125336   2.927   3.413   1.582  2.4020  1.3455 -0.4418
 1259TIP3    H225337   2.883   3.353   1.713 -1.4325  1.3139 -1.6334
 1260TIP3   OH225338   4.070   2.362   0.852 -0.4878  0.8084  0.3576
 1260TIP3    H125339   4.070   2.406   0.936 -1.7182 -1.1222  1.4344
 1260TIP3    H225340   4.012   2.414   0.797  0.6405  2.3103  0.5308
 1261TIP3   OH225341   6.766   0.011   3.107 -0.5253 -0.0902 -0.0261
 1261TIP3    H125342   6.783   0.050   3.021 -0.1607  0.2187  0.1841
 1261TIP3    H225343   6.690   0.058   3.140  0.0588  0.6122  0.3295
 1262TIP3   OH225344   6.271   4.934   1.355 -0.2715 -0.1357  0.1472
 1262TIP3    H125345   6.184   4.906   1.383 -0.2984 -0.7334 -0.5092
 1262TIP3    H225346   6.319   4.852   1.340  0.8852  0.1663  1.9147
 1263TIP3   OH225347   0.342   3.922   2.457  0.3038  0.9840  0.5567
 1263TIP3    H125348   0.267   3.965   2.498 -0.7361 -0.3206  0.0972
 1263TIP3    H225349   0.305   3.876   2.381  1.8528  1.6588 -0.6513
 1264TIP3   OH225350   0.012   0.402   2.847  0.1698  0.0330 -0.4404
 1264TIP3    H125351   0.102   0.432   2.834  0.1330 -0.4209 -2.0353
 1264TIP3    H225352  -0.041   0.482   2.841  0.3792  0.1510 -0.7960
 1265TIP3   OH225353   0.320   5.556   0.653 -0.4049 -0.0790 -0.1784
 1265TIP3    H125354   0.242   5.559   0.708 -1.3110  1.1808 -1.4740
 1265TIP3    H225355   0.375   5.628   0.686  0.5933 -1.4159  1.2080
 1266TIP3   OH225356   0.777   2.322   8.261  0.2484  0.5569 -0.0606
 1266TIP3    H125357   0.773   2.361   8.174  1.3331  1.2235  0.1735
 1266TIP3    H225358   0.855   2.267   8.260 -0.7672 -0.9681 -0.0971
 1267TIP3   OH225359   3.202   3.919   8.530 -0.5786 -0.0560  0.3856
 1267TIP3    H125360   3.268   3.936   8.598  0.7530  1.0487 -1.1013
 1267TIP3    H225361   3.127   3.973   8.554  0.9925  2.7260 -0.5379
 1268TIP3   OH225362   0.656   2.892   8.396  0.2859 -0.1971 -0.6194
 1268TIP3    H125363   0.621   2.925   8.314  2.3574  2.5546 -0.5690
 1268TIP3    H225364   0.581   2.893   8.456 -0.7005  0.2659 -1.8075
 1269TIP3   OH225365   1.834   2.411   1.569  0.1328 -0.1188  0.3896
 1269TIP3    H125366   1.907   2.425   1.508  1.7877 -1.8906  1.8383
 1269TIP3    H225367   1.772   2.356   1.521  1.1243 -0.9817  0.0624
 1270TIP3   OH225368   1.215   0.942   0.238 -0.3985 -0.0452 -0.0866
 1270TIP3    H125369   1.246   1.015   0.291 -0.5113 -0.7149  0.9306
 1270TIP3    H225370   1.252   0.958   0.151  0.3708  0.7050  0.3644
 1271TIP3   OH225371   2.354   0.920   0.675 -0.5353  0.5803 -0.6308
 1271TIP3    H125372   2.386   1.009   0.662 -1.1171  0.9408  0.3110
 1271TIP3    H225373   2.259   0.928   0.669 -0.8676  0.6551  2.6816
 1272TIP3   OH225374   0.429   1.928   3.774  0.2848  0.0694  0.1644
 1272TIP3    H125375   0.520   1.956   3.767  0.2880  0.3250  1.1267
 1272TIP3    H225376   0.417   1.867   3.701 -0.2716  3.9321 -3.4132
 1273TIP3   OH225377   2.839   6.794   8.132 -0.5778 -0.6708  0.5018
 1273TIP3    H125378   2.793   6.854   8.072 -0.9013 -0.9364  0.4756
 1273TIP3    H225379   2.805   6.816   8.218  0.9088  0.6515  0.7845
 1274TIP3   OH225380   4.165   3.510   2.361 -0.2763  0.0484 -0.1437
 1274TIP3    H125381   4.219   3.444   2.404  0.3943  1.5451  1.4577
 1274TIP3    H225382   4.141   3.570   2.431 -0.2409  1.9014 -1.6431
 1275TIP3   OH225383   4.056   3.308   2.053 -0.4925 -0.4410  0.5686
 1275TIP3    H125384   4.102   3.258   2.121 -0.1995  0.7079  1.2442
 1275TIP3    H225385   4.117   3.378   2.030 -1.7228  0.8812  1.2016
 1276TIP3   OH225386   6.692   2.312   0.094 -0.3389  0.0564  0.5641
 1276TIP3    H125387   6.644   2.326   0.176  0.3887 -1.8791  1.3772
 1276TIP3    H225388   6.643   2.243   0.050 -0.8991  1.2918 -0.8357
 1277TIP3   OH225389   5.697   5.153   1.953  0.9483 -0.2126 -0.0182
 1277TIP3    H125390   5.767   5.111   1.902 -0.2131 -0.4725 -1.4516
 1277TIP3    H225391   5.624   5.091   1.949  0.5517  0.1452  1.2910
 1278TIP3   OH225392   2.859   2.350   2.576 -0.3216  0.8000  0.0567
 1278TIP3    H125393   2.875   2.441   2.603 -0.5484  1.1024 -0.8073
 1278TIP3    H225394   2.763   2.341   2.581 -0.2250  0.1755  1.4594
 1279TIP3   OH225395   6.544   6.623   0.257  0.4443 -0.1432 -0.2261
 1279TIP3    H125396   6.617   6.561   0.258  1.4643  1.0184  1.1732
 1279TIP3    H225397   6.529   6.642   0.164  2.0628 -0.2362 -0.5275
 1280TIP3   OH225398   1.290   6.048   8.620 -0.4321 -0.3839  0.5328
 1280TIP3    H125399   1.352   6.051   8.547 -0.2566 -2.3579  0.5562
 1280TIP3    H225400   1.280   6.140   8.647  1.6025  0.1005 -0.2010
 1281TIP3   OH225401   0.242   2.879   3.005  0.1934 -0.1589 -0.1506
 1281TIP3    H125402   0.186   2.841   3.072  1.0964 -1.2921 -0.0072
 1281TIP3    H225403   0.245   2.812   2.936 -1.9007  1.5436 -2.0563
 1282TIP3   OH225404   5.230   5.243   8.546 -0.1703  0.2555 -0.1721
 1282TIP3    H125405   5.253   5.328   8.582 -0.0862 -0.0637  0.5405
 1282TIP3    H225406   5.155   5.214   8.598 -0.6456  0.2007 -0.8741
 1283TIP3   OH225407   2.602   3.094   0.461 -0.2493 -0.3896  0.2859
 1283TIP3    H125408   2.539   3.156   0.425  0.8664 -0.1888 -1.4166
 1283TIP3    H225409   2.616   3.123   0.551 -1.0819  0.7449  0.0647
 1284TIP3   OH225410   3.664   4.622   1.377 -0.8387  0.1707 -0.3137
 1284TIP3    H125411   3.652   4.542   1.428 -2.7392  1.2729  1.1040
 1284TIP3    H225412   3.628   4.691   1.433  1.1798  2.1060 -1.2866
 1285TIP3   OH225413   4.017   0.204   1.067 -0.1416  0.2913  0.5686
 1285TIP3    H125414   4.051   0.133   1.121 -0.3891  1.3610  2.2163
 1285TIP3    H225415   4.020   0.170   0.977  0.0090 -1.6658  1.2651
 1286TIP3   OH225416   2.701   3.373   0.469  0.1932  0.1695 -0.3370
 1286TIP3    H125417   2.639   3.398   0.400  0.7904 -0.1202 -0.9962
 1286TIP3    H225418   2.787   3.398   0.433  0.6263 -1.0819 -0.2016
 1287TIP3   OH225419   1.466   5.678   8.292  0.7901 -0.2926 -0.7344
 1287TIP3    H125420   1.407   5.606   8.315  0.9802  0.3657  2.0875
 1287TIP3    H225421   1.408   5.746   8.257 -0.0396 -0.0883  0.9489
 1288TIP3   OH225422   6.170   3.320   0.370  0.0128  0.2531  0.8137
 1288TIP3    H125423   6.155   3.320   0.465  0.1955  1.6309  0.8524
 1288TIP3    H225424   6.121   3.395   0.338 -0.1819 -0.2977 -0.2268
 1289TIP3   OH225425   3.638   5.527   0.815  0.1371  0.1521 -0.1001
 1289TIP3    H125426   3.552   5.487   0.809  1.1138 -2.0823 -0.1209
 1289TIP3    H225427   3.669   5.531   0.724  1.1702 -1.7629  0.1188
 1290TIP3   OH225428   1.610   5.943   2.091  0.1739 -0.1022  0.3934
 1290TIP3    H125429   1.542   5.993   2.136  0.7482  1.7023 -0.6451
 1290TIP3    H225430   1.591   5.956   1.998  0.6448 -1.4403  0.0884
 1291TIP3   OH225431   6.241   1.113   2.200  0.0335 -0.6084 -0.4632
 1291TIP3    H125432   6.171   1.133   2.138 -0.0276 -1.5819 -0.7251
 1291TIP3    H225433   6.203   1.049   2.260 -0.1315  0.8310  1.0462
 1292TIP3   OH225434   3.209   2.552   1.699 -0.3521 -0.0585  0.0428
 1292TIP3    H125435   3.128   2.602   1.706 -0.9581 -0.9966 -0.0219
 1292TIP3    H225436   3.247   2.555   1.787  0.3588  1.6772 -0.2921
 1293TIP3   OH225437   0.802   6.308   0.247 -0.2645 -0.1780 -1.2246
 1293TIP3    H125438   0.795   6.283   0.339 -0.8778 -0.1477 -1.2594
 1293TIP3    H225439   0.724   6.271   0.206 -1.4514  2.0981 -1.1954
 1294TIP3   OH225440   3.158   2.708   0.960  0.0260 -0.0355  0.4361
 1294TIP3    H125441   3.125   2.769   0.895  0.5410 -0.3681 -0.1526
 1294TIP3    H225442   3.155   2.756   1.042  2.7966  1.7061 -0.3714
 1295TIP3   OH225443   2.025   1.349   1.447 -0.3012 -0.5347 -0.1390
 1295TIP3    H125444   2.097   1.413   1.454  0.0222 -0.8965 -0.1163
 1295TIP3    H225445   1.971   1.381   1.375  0.5000 -0.8551 -0.9028
 1296TIP3   OH225446   3.452   4.157   4.111  0.9041  0.1973  0.2058
 1296TIP3    H125447   3.383   4.143   4.176  1.5559 -1.9160  0.5316
 1296TIP3    H225448   3.491   4.071   4.099  2.7081  1.1022 -0.8617
 1297TIP3   OH225449   5.614   0.109   0.563 -0.1705 -0.2588 -0.2290
 1297TIP3    H125450   5.602   0.014   0.556 -0.0009 -0.2365 -0.8847
 1297TIP3    H225451   5.709   0.121   0.565 -0.1857 -0.2143  1.6559
 1298TIP3   OH225452   2.191   5.588   1.657  0.1674 -0.1749 -0.3554
 1298TIP3    H125453   2.218   5.574   1.748 -2.1395 -1.6591  0.1968
 1298TIP3    H225454   2.263   5.555   1.604  1.6402  0.9128  0.9058
 1299TIP3   OH225455   2.847   2.669   8.171 -0.2473 -0.2843 -0.2560
 1299TIP3    H125456   2.846   2.742   8.109  0.8104 -0.3124 -0.3151
 1299TIP3    H225457   2.755   2.657   8.194 -0.4643  0.9722 -0.3638
 1300TIP3   OH225458   5.421   2.534   0.955 -0.3250  0.1079 -0.1012
 1300TIP3    H125459   5.357   2.576   0.898  0.0398 -0.5368 -1.0308
 1300TIP3    H225460   5.369   2.494   1.024 -0.8107  0.6683 -0.1342
 1301TIP3   OH225461   4.318   5.706   0.015  0.3633 -0.7412  0.1993
 1301TIP3    H125462   4.367   5.626  -0.003  3.1126  0.7153  0.6746
 1301TIP3    H225463   4.327   5.718   0.110 -0.1404  0.0600  0.1526
 1302TIP3   OH225464   3.367   6.562   2.451 -0.3194 -0.0938 -0.5132
 1302TIP3    H125465   3.321   6.611   2.519 -0.5666 -1.0858  0.0630
 1302TIP3    H225466   3.307   6.563   2.376 -1.5193 -1.6755  0.3442
 1303TIP3   OH225467   1.805   2.518   2.740 -0.3437  0.3267  0.5375
 1303TIP3    H125468   1.771   2.444   2.690 -0.7841  0.1337  1.1139
 1303TIP3    H225469   1.761   2.594   2.702  0.0018  0.2892  0.0406
 1304TIP3   OH225470   4.316   4.843   2.136 -0.2848 -0.0534 -0.3593
 1304TIP3    H125471   4.225   4.820   2.120  0.3624 -2.2360 -1.1811
 1304TIP3    H225472   4.330   4.824   2.228 -1.0135  1.7113  0.1519
 1305TIP3   OH225473   1.772   2.724   8.165 -0.3614 -0.3199  0.1665
 1305TIP3    H125474   1.847   2.783   8.173 -0.1207 -0.6260  0.1403
 1305TIP3    H225475   1.787   2.675   8.085 -0.1174 -1.0508  0.6567
 1306TIP3   OH225476   3.134   1.914   2.688 -0.5713 -0.1854 -0.3660
 1306TIP3    H125477   3.202   1.981   2.690 -0.5316 -0.2346  1.2377
 1306TIP3    H225478   3.054   1.961   2.663 -0.3742  0.3106 -0.0775
 1307TIP3   OH225479   3.504   4.480   0.827  0.4598  0.3806 -0.0704
 1307TIP3    H125480   3.489   4.388   0.848  0.7951  0.3448  0.0176
 1307TIP3    H225481   3.517   4.522   0.913 -0.3541  0.6327 -0.0573
 1308TIP3   OH225482   3.319   1.547   3.514 -0.4593 -0.3296  0.0050
 1308TIP3    H125483   3.343   1.629   3.557  0.8047 -2.1525  3.0589
 1308TIP3    H225484   3.373   1.545   3.435 -0.4988  1.6967 -0.1399
 1309TIP3   OH225485   4.783   0.287   2.616  0.3515 -0.4398  0.0257
 1309TIP3    H125486   4.808   0.283   2.708  1.0761 -1.9277 -0.2039
 1309TIP3    H225487   4.701   0.336   2.615  0.7361  0.2742  1.3606
 1310TIP3   OH225488   1.038   5.663   3.044 -0.9591  0.3325  0.0838
 1310TIP3    H125489   0.981   5.586   3.043 -0.8960  0.2886 -0.1944
 1310TIP3    H225490   1.055   5.682   2.952 -1.9429  1.3906  0.0915
 1311TIP3   OH225491   3.199   5.367   0.077  0.4745  0.0461  0.2125
 1311TIP3    H125492   3.192   5.326  -0.009 -4.1181 -1.3491  1.0008
 1311TIP3    H225493   3.245   5.302   0.131  1.2934 -0.0787 -0.6201
 1312TIP3   OH225494   0.245   1.047   2.158  0.4077  0.3216  0.0587
 1312TIP3    H125495   0.222   1.133   2.193 -1.2864  0.2196 -0.6932
 1312TIP3    H225496   0.341   1.045   2.160  0.4476  1.8278  1.0063
 1313TIP3   OH225497   0.936   4.756   2.126 -0.0009 -0.0053  0.8007
 1313TIP3    H125498   0.861   4.811   2.148 -0.3629  0.3981 -1.2416
 1313TIP3    H225499   0.918   4.725   2.037  2.3262  0.2297  0.1846
 1314TIP3   OH225500   3.942   4.440   8.347  0.0608  0.1706  0.1881
 1314TIP3    H125501   3.857   4.438   8.305 -0.7913 -0.0152  1.8506
 1314TIP3    H225502   3.955   4.352   8.382 -0.3926  0.9056  2.3925
 1315TIP3   OH225503   3.093   5.892   0.051 -0.1128  0.0756  0.0318
 1315TIP3    H125504   3.146   5.813   0.061  0.0369  0.4002  2.2853
 1315TIP3    H225505   3.154   5.957   0.017  0.4974 -0.0637  0.8115
 1316TIP3   OH225506   2.852   0.132   2.711 -0.5611 -0.3536 -0.7410
 1316TIP3    H125507   2.934   0.176   2.735  0.5139 -0.4841 -3.7930
 1316TIP3    H225508   2.857   0.047   2.756 -0.1258  0.5065  0.9098
 1317TIP3   OH225509   0.521   2.715   3.602  0.2356 -0.3311 -0.1115
 1317TIP3    H125510   0.469   2.638   3.623 -0.6339  0.6744  1.6433
 1317TIP3    H225511   0.570   2.690   3.523 -0.6103 -2.3656 -0.0571
 1318TIP3   OH225512   2.314   5.269   0.303 -0.6911  0.4739 -0.3402
 1318TIP3    H125513   2.350   5.330   0.368 -0.1392  0.4861 -0.6541
 1318TIP3    H225514   2.306   5.186   0.350  0.0650  0.3840 -0.3488
 1319TIP3   OH225515   5.905   4.520   1.585  0.0545  0.1157  1.1540
 1319TIP3    H125516   5.913   4.493   1.676 -0.4305  2.8498  2.1203
 1319TIP3    H225517   5.989   4.497   1.545  0.5975 -0.3420  2.5178
 1320TIP3   OH225518   0.510   0.912   2.360  0.0265 -0.1839 -0.3210
 1320TIP3    H125519   0.418   0.892   2.378  0.4994 -2.6858 -0.2680
 1320TIP3    H225520   0.507   0.985   2.298 -1.9278  0.7306  0.7614
 1321TIP3   OH225521   6.331   2.317   8.265  0.5587  0.2577 -0.0147
 1321TIP3    H125522   6.343   2.369   8.185  1.9079  2.1557  1.3337
 1321TIP3    H225523   6.413   2.267   8.273  0.6996  0.5562  0.4810
 1322TIP3   OH225524   2.372   2.750   7.629  0.2429 -0.0182  0.3666
 1322TIP3    H125525   2.363   2.733   7.723  1.5505  0.1209  0.5239
 1322TIP3    H225526   2.334   2.837   7.617  0.8631  0.3320  0.9128
 1323TIP3   OH225527   0.969   6.817   3.059  0.3549 -0.0331 -0.4200
 1323TIP3    H125528   0.910   6.849   3.128 -1.8457 -1.0259 -1.7326
 1323TIP3    H225529   1.026   6.754   3.103  0.2261  0.6890  0.8284
 1324TIP3   OH225530   0.867   1.021   0.698  0.0524 -0.2088  0.3842
 1324TIP3    H125531   0.835   1.105   0.666  0.7919 -0.0479  0.0339
 1324TIP3    H225532   0.960   1.021   0.674 -0.4374 -2.1454 -1.7988
 1325TIP3   OH225533   5.205   0.264   0.629 -0.4381 -0.0797 -0.0453
 1325TIP3    H125534   5.254   0.326   0.682 -0.2801  0.1492 -0.4550
 1325TIP3    H225535   5.181   0.313   0.550 -1.6834 -0.0540  0.3194
 1326TIP3   OH225536   5.445   4.248   2.356 -0.4401 -0.4602 -0.0279
 1326TIP3    H125537   5.437   4.231   2.450 -2.5035 -0.5681 -0.1679
 1326TIP3    H225538   5.424   4.164   2.315 -0.3457 -0.2134 -0.5841
 1327TIP3   OH225539   6.546   4.443   0.744 -0.0236  0.1393  0.1799
 1327TIP3    H125540   6.573   4.449   0.652  2.1579 -0.3599  0.7205
 1327TIP3    H225541   6.523   4.351   0.756  2.5677 -0.5095  0.7762
 1328TIP3   OH225542   6.495   3.861   3.216  0.3811 -0.0330  0.2470
 1328TIP3    H125543   6.402   3.843   3.230  0.0473  2.5911  2.0369
 1328TIP3    H225544   6.533   3.858   3.303  1.1199  2.8664  0.1230
 1329TIP3   OH225545   3.787   3.857   1.130 -0.2653 -0.0122  0.3200
 1329TIP3    H125546   3.716   3.866   1.066 -0.2112 -0.3859  0.2042
 1329TIP3    H225547   3.754   3.900   1.208 -0.4090  0.2875  0.0984
 1330TIP3   OH225548   2.925   0.621   2.753 -0.1825 -0.5621  0.1832
 1330TIP3    H125549   2.901   0.685   2.820 -1.1964 -0.1388 -0.5503
 1330TIP3    H225550   2.845   0.571   2.737  0.0666 -0.7137 -0.6487
 1331TIP3   OH225551   4.597   2.122   0.652 -0.6429 -0.1138  0.2622
 1331TIP3    H125552   4.611   2.091   0.742  0.1825 -0.5937 -0.0158
 1331TIP3    H225553   4.532   2.063   0.616  1.2894 -1.9370 -0.4265
 1332TIP3   OH225554   6.365   1.764   0.144  1.1549  0.7443 -0.1514
 1332TIP3    H125555   6.375   1.838   0.203 -0.6195  1.1084 -0.2466
 1332TIP3    H225556   6.434   1.703   0.169  1.1145  1.3579  1.5836
 1333TIP3   OH225557   4.638   2.384   3.429 -0.6597  0.6120  0.3274
 1333TIP3    H125558   4.547   2.374   3.457  0.1797 -2.3324  2.4500
 1333TIP3    H225559   4.664   2.297   3.399  1.3357  1.5256 -0.8168
 1334TIP3   OH225560   1.370   5.939   3.474  0.0873  0.3442 -0.2488
 1334TIP3    H125561   1.354   5.923   3.568 -0.1359  0.1443 -0.3186
 1334TIP3    H225562   1.297   5.996   3.448 -0.9213 -1.1030 -0.7224
 1335TIP3   OH225563   4.513   5.233   0.411  0.1737  0.7560 -0.6042
 1335TIP3    H125564   4.593   5.188   0.383  0.5242  0.5483  0.6912
 1335TIP3    H225565   4.532   5.263   0.499 -0.9612  1.2700 -0.5232
 1336TIP3   OH225566   3.210   1.311   2.886  0.5199  0.5307 -0.4587
 1336TIP3    H125567   3.220   1.402   2.858 -2.1944  1.3469  0.8980
 1336TIP3    H225568   3.131   1.311   2.940 -0.0610 -2.8073 -1.1125
 1337TIP3   OH225569   0.461   2.562   0.010 -0.0742 -0.4961  0.0381
 1337TIP3    H125570   0.381   2.510   0.014 -1.4683  1.5174  0.2619
 1337TIP3    H225571   0.495   2.563   0.100 -0.2907 -0.6402  0.1206
 1338TIP3   OH225572   0.863   2.073   0.659 -0.1431 -0.8005 -0.2714
 1338TIP3    H125573   0.888   1.981   0.654 -2.4144 -1.4885  0.0462
 1338TIP3    H225574   0.784   2.080   0.605  0.1776  1.0509 -0.5788
 1339TIP3   OH225575   1.636   3.261   1.254 -0.0831 -0.2757  0.6249
 1339TIP3    H125576   1.655   3.181   1.303  0.0010 -0.9824 -0.5244
 1339TIP3    H225577   1.664   3.242   1.165 -1.5428  0.4525 -0.0325
 1340TIP3   OH225578   4.612   5.640   0.092 -0.1138 -0.3937  0.3159
 1340TIP3    H125579   4.664   5.689   0.155  1.0714  0.3615 -1.1847
 1340TIP3    H225580   4.523   5.642   0.127  0.3035  0.9868  1.3688
 1341TIP3   OH225581   3.342   4.528   3.404  0.4814 -0.0212 -0.0338
 1341TIP3    H125582   3.326   4.443   3.363 -1.0630 -0.3832  1.2522
 1341TIP3    H225583   3.430   4.521   3.440  0.4726 -0.9657 -0.1857
 1342TIP3   OH225584   2.165   2.418   2.309  0.2938  0.0615 -0.0617
 1342TIP3    H125585   2.168   2.512   2.331  0.5925  0.3980 -1.4317
 1342TIP3    H225586   2.118   2.416   2.226 -0.4303 -1.1047  0.3583
 1343TIP3   OH225587   1.373   0.354   2.282  0.0517 -0.2727 -0.1570
 1343TIP3    H125588   1.317   0.309   2.346 -2.1764  1.4090 -0.7783
 1343TIP3    H225589   1.361   0.304   2.201 -2.1335  1.0585 -0.7533
 1344TIP3   OH225590   4.963   3.551   1.814  0.1816 -0.5153 -0.0677
 1344TIP3    H125591   5.028   3.620   1.801  0.4465 -0.4228  1.5387
 1344TIP3    H225592   4.996   3.500   1.889 -1.8439 -0.1148  1.1883
 1345TIP3   OH225593   3.339   2.626   8.068  0.2585 -0.8496 -0.7205
 1345TIP3    H125594   3.348   2.661   8.157  2.5302 -0.5237 -1.0008
 1345TIP3    H225595   3.245   2.621   8.053 -0.1905 -0.9236  1.6991
 1346TIP3   OH225596   5.957   1.962   2.000 -0.0721  0.0141 -0.2902
 1346TIP3    H125597   5.868   1.995   1.993 -0.5115 -1.0939 -0.1848
 1346TIP3    H225598   5.982   1.939   1.911 -1.1654 -2.7814  0.0302
 1347TIP3   OH225599   6.259   2.041   3.649 -0.4099  0.4392  0.1102
 1347TIP3    H125600   6.263   1.982   3.724  2.0698 -0.6096 -0.7467
 1347TIP3    H225601   6.226   1.986   3.577  1.3889  0.1864 -0.5591
 1348TIP3   OH225602   5.417   3.072   2.433 -0.7813  0.0116 -0.1823
 1348TIP3    H125603   5.425   2.978   2.421  2.6154  0.1271  0.1758
 1348TIP3    H225604   5.377   3.104   2.352  0.4718 -1.4887 -1.4507
 1349TIP3   OH225605   0.933   4.410   8.151  0.8000  0.4655  0.3122
 1349TIP3    H125606   0.900   4.470   8.084 -0.4641  0.8243  1.2252
 1349TIP3    H225607   1.013   4.374   8.112  0.8767  1.7218 -0.8043
 1350TIP3   OH225608   1.283   4.488   8.519  0.2564 -0.4085  0.2783
 1350TIP3    H125609   1.279   4.576   8.555 -1.4163 -0.6277  0.6972
 1350TIP3    H225610   1.283   4.501   8.424  1.5370  0.0594  0.3166
 1351TIP3   OH225611   3.059   2.939   2.261  0.0562  0.5503  0.7346
 1351TIP3    H125612   3.109   2.967   2.185  0.0981  0.0109  0.5611
 1351TIP3    H225613   2.968   2.933   2.230  0.4076 -2.1512  0.0025
 1352TIP3   OH225614   3.909   0.428   1.156  0.1085 -0.3799  0.3833
 1352TIP3    H125615   3.817   0.422   1.182 -0.0139 -1.3605 -0.2158
 1352TIP3    H225616   3.930   0.340   1.125  1.6820 -0.5959  1.9209
 1353TIP3   OH225617   1.371   3.498   2.269  0.1325 -0.3858  0.5266
 1353TIP3    H125618   1.463   3.472   2.266 -0.4788 -2.7308 -1.2363
 1353TIP3    H225619   1.332   3.439   2.334 -0.4329 -0.6267 -0.0294
 1354TIP3   OH225620   4.484   5.592   2.435 -0.2704  0.3245 -0.2974
 1354TIP3    H125621   4.468   5.685   2.449  0.8660  0.5590 -0.4338
 1354TIP3    H225622   4.578   5.581   2.450 -0.4481 -0.8695  0.0755
 1355TIP3   OH225623   5.798   3.968   2.059 -0.1286 -0.2464 -0.0986
 1355TIP3    H125624   5.813   4.054   2.019  0.2986 -0.0874  0.3897
 1355TIP3    H225625   5.708   3.947   2.037 -0.2894  0.4013 -0.0873
 1356TIP3   OH225626   1.860   4.100   3.817  0.0000 -0.0438  0.1145
 1356TIP3    H125627   1.949   4.063   3.820 -0.1240 -0.3139  1.5491
 1356TIP3    H225628   1.804   4.029   3.849 -0.6560  0.3441 -0.1514
 1357TIP3   OH225629   1.010   0.539   2.976  0.2940  0.3573  0.0881
 1357TIP3    H125630   1.081   0.477   2.991 -1.5555 -2.1762 -0.8886
 1357TIP3    H225631   1.044   0.598   2.908  1.0621 -1.6318 -1.3716
 1358TIP3   OH225632   6.772   3.214   3.543 -0.1700 -0.0329 -0.3461
 1358TIP3    H125633   6.780   3.262   3.625 -0.2624 -0.3262 -0.1631
 1358TIP3    H225634   6.850   3.239   3.493 -0.7013  1.0528 -0.6540
 1359TIP3   OH225635   5.016   3.219   0.391 -0.2758 -0.1208 -0.2463
 1359TIP3    H125636   4.999   3.170   0.471 -0.0233  0.3941  0.1339
 1359TIP3    H225637   5.070   3.293   0.420  0.0597 -0.0907 -0.9408
 1360TIP3   OH225638   2.408   5.353   0.557  0.2459 -0.2070  0.3746
 1360TIP3    H125639   2.465   5.279   0.537 -0.6486 -1.4332  2.0402
 1360TIP3    H225640   2.448   5.394   0.634 -0.9127 -0.9340  1.4093
 1361TIP3   OH225641   5.303   4.917   0.005  0.3276  0.4496  0.3727
 1361TIP3    H125642   5.314   5.001  -0.039  0.9565  0.0298 -0.2756
 1361TIP3    H225643   5.296   4.853  -0.066 -0.8872  0.0282  0.8416
 1362TIP3   OH225644   0.931   3.270   3.001 -0.1496 -0.3555  0.4976
 1362TIP3    H125645   0.944   3.234   3.088  0.0591 -1.1443  0.1536
 1362TIP3    H225646   0.837   3.262   2.985 -0.4097  1.1230  1.2037
 1363TIP3   OH225647   3.678   3.240   8.412 -0.0096  0.7402  0.4157
 1363TIP3    H125648   3.732   3.164   8.434  0.4105  1.0931  0.6167
 1363TIP3    H225649   3.598   3.202   8.376 -0.4873  0.1439  1.9909
 1364TIP3   OH225650   5.977   0.518   8.658 -0.1481 -0.4206  0.0994
 1364TIP3    H125651   5.976   0.566   8.575  2.0265 -2.3513 -1.1502
 1364TIP3    H225652   6.062   0.540   8.696 -0.9789  0.1667  1.7118
 1365TIP3   OH225653   3.298   2.557   1.947  0.3077  0.1582  1.1539
 1365TIP3    H125654   3.271   2.567   2.039  0.1374 -0.4712  1.1792
 1365TIP3    H225655   3.335   2.469   1.942 -1.3658 -0.5489  0.2322
 1366TIP3   OH225656   4.609   2.247   1.947  0.6348 -0.4149 -0.5358
 1366TIP3    H125657   4.570   2.328   1.914 -1.3730 -1.7441 -1.6407
 1366TIP3    H225658   4.560   2.228   2.026  0.1867 -1.1955 -0.9893
 1367TIP3   OH225659   4.788   6.713   2.647  0.4982 -0.1576  0.3713
 1367TIP3    H125660   4.786   6.750   2.735 -0.7312  0.4936  0.0943
 1367TIP3    H225661   4.730   6.770   2.596  3.4569  1.3587 -1.6270
 1368TIP3   OH225662   3.262   2.342   8.297  0.0518 -0.7902  0.4709
 1368TIP3    H125663   3.245   2.280   8.226 -0.0344 -0.6424  0.3631
 1368TIP3    H225664   3.352   2.370   8.282 -0.9045  1.5839 -1.4063
 1369TIP3   OH225665   3.139   6.697   0.718 -1.0090 -0.2862 -0.0753
 1369TIP3    H125666   3.220   6.650   0.738 -1.2312 -0.0349  1.5901
 1369TIP3    H225667   3.132   6.695   0.623  1.7441  0.9710 -0.4027
 1370TIP3   OH225668   1.758   4.616   2.991 -0.0484 -0.3554 -0.2612
 1370TIP3    H125669   1.800   4.580   2.912 -2.1144 -1.3501 -0.9917
 1370TIP3    H225670   1.700   4.685   2.958  0.0517  0.1431  0.5671
 1371TIP3   OH225671   6.712   3.636   0.726  0.0134  0.0846 -0.4782
 1371TIP3    H125672   6.783   3.599   0.780  0.4688  0.4202 -0.8401
 1371TIP3    H225673   6.632   3.601   0.766  0.3768 -0.2899 -0.0529
 1372TIP3   OH225674   5.964   6.102   0.655 -0.2308 -0.0187 -0.2360
 1372TIP3    H125675   6.008   6.029   0.611 -0.9112 -0.1226 -0.7659
 1372TIP3    H225676   5.907   6.140   0.587 -2.9473 -1.4959  1.0386
 1373TIP3   OH225677   5.858   5.797   0.346 -0.0837 -0.4497 -0.0855
 1373TIP3    H125678   5.892   5.748   0.271 -0.3662 -2.3877  1.0128
 1373TIP3    H225679   5.763   5.786   0.341 -0.2266  0.6754 -0.2498
 1374TIP3   OH225680   0.753   4.830   3.306 -0.1030 -0.2593 -0.0876
 1374TIP3    H125681   0.743   4.893   3.235 -0.1707 -1.1122 -0.8392
 1374TIP3    H225682   0.686   4.856   3.370 -1.1001 -0.4431 -1.0364
 1375TIP3   OH225683   3.187   5.886   2.416  0.1634 -1.0501  0.4666
 1375TIP3    H125684   3.220   5.798   2.402  0.1657 -0.7289 -1.9484
 1375TIP3    H225685   3.255   5.944   2.382 -0.2770 -0.1470  1.0634
 1376TIP3   OH225686   5.253   5.205   2.105 -0.4910 -0.0081  0.1812
 1376TIP3    H125687   5.343   5.235   2.122  0.7396 -3.1937  0.0042
 1376TIP3    H225688   5.215   5.193   2.192  0.5381 -1.8855  0.4406
 1377TIP3   OH225689   4.225   0.650   3.647 -0.2033  0.2926  0.6840
 1377TIP3    H125690   4.286   0.598   3.594 -0.6144  0.5172 -0.0269
 1377TIP3    H225691   4.201   0.723   3.590 -2.5509 -0.7417  0.2097
 1378TIP3   OH225692   6.770   5.511   2.757 -0.2059 -0.0789  0.8131
 1378TIP3    H125693   6.728   5.596   2.771  0.8832  0.5280  0.5298
 1378TIP3    H225694   6.833   5.527   2.687 -1.9478 -1.8157 -1.2673
 1379TIP3   OH225695   6.845   3.101   3.246  0.0802  0.1866 -0.2833
 1379TIP3    H125696   6.912   3.150   3.293  0.2464  0.4059 -0.7366
 1379TIP3    H225697   6.765   3.154   3.257  0.1015  0.1991 -0.1860
 1380TIP3   OH225698   2.409   0.671   2.748 -0.4956 -0.1324 -0.1499
 1380TIP3    H125699   2.407   0.606   2.678 -0.3173 -1.9440  1.4554
 1380TIP3    H225700   2.328   0.656   2.797  0.0225  0.1801  0.8312
 1381TIP3   OH225701   3.097   4.273   1.761 -0.2322 -0.3797  0.4623
 1381TIP3    H125702   3.089   4.182   1.788  1.6030 -0.2107  1.7652
 1381TIP3    H225703   3.190   4.293   1.769 -0.1548  0.9038 -2.2446
 1382TIP3   OH225704   5.029   3.403   2.049  0.2228 -0.2196 -0.4467
 1382TIP3    H125705   4.985   3.478   2.089 -1.8280 -1.5433 -0.0614
 1382TIP3    H225706   5.107   3.389   2.103 -0.9127 -0.1399  1.2725
 1383TIP3   OH225707   3.171   2.440   1.434  0.5875 -0.6896 -0.2194
 1383TIP3    H125708   3.190   2.499   1.507  2.5290 -1.3712 -0.1281
 1383TIP3    H225709   3.076   2.446   1.423  0.3573  0.1090  1.7799
 1384TIP3   OH225710   4.975   5.428   0.983 -0.3635  0.0021  0.3473
 1384TIP3    H125711   4.985   5.332   0.982 -1.5202 -0.1294  0.2980
 1384TIP3    H225712   4.927   5.445   1.063  2.1671  0.8279  1.8066
 1385TIP3   OH225713   4.848   2.334   0.729  0.3972 -0.1865 -0.2294
 1385TIP3    H125714   4.821   2.365   0.643  0.7288  0.4983 -0.0965
 1385TIP3    H225715   4.938   2.305   0.718  0.1808 -0.8653 -0.2878
 1386TIP3   OH225716   4.717   3.763   2.518 -0.1031  0.1842 -0.0953
 1386TIP3    H125717   4.699   3.738   2.427  0.1803 -0.2176 -0.0398
 1386TIP3    H225718   4.727   3.680   2.564  2.0229  0.3806 -0.1385
 1387TIP3   OH225719   1.083   2.838   8.366  1.0840  0.1473 -0.3627
 1387TIP3    H125720   1.026   2.881   8.302 -0.2951  1.7298  1.7712
 1387TIP3    H225721   1.165   2.887   8.361  0.7318  0.7506 -0.4125
 1388TIP3   OH225722   4.794   1.402   2.527  0.2672 -0.0831 -1.1480
 1388TIP3    H125723   4.755   1.329   2.574  0.7767 -1.2657 -2.4861
 1388TIP3    H225724   4.754   1.480   2.566  0.1962 -1.0211  0.7483
 1389TIP3   OH225725   0.453   1.525   2.399  0.1111 -0.0547 -0.2721
 1389TIP3    H125726   0.357   1.532   2.398  0.1659  0.8498 -0.0958
 1389TIP3    H225727   0.478   1.526   2.307 -0.1113 -1.3334 -0.3514
 1390TIP3   OH225728   6.681   6.297   0.144 -0.0747 -0.2178 -0.3272
 1390TIP3    H125729   6.613   6.278   0.209  0.0566 -1.3756 -0.4993
 1390TIP3    H225730   6.719   6.379   0.173 -1.1529  0.1529  0.1026
 1391TIP3   OH225731   1.345   3.460   2.666  0.2113  0.4310  0.2898
 1391TIP3    H125732   1.287   3.384   2.667  0.5294  0.1918  1.0784
 1391TIP3    H225733   1.336   3.496   2.578  0.4072 -0.7838 -0.2447
 1392TIP3   OH225734   1.928   0.737   8.014  0.3663 -0.0229 -0.5022
 1392TIP3    H125735   2.008   0.773   7.975  0.2984 -0.8701 -1.4671
 1392TIP3    H225736   1.924   0.647   7.981 -1.1789  0.1172 -0.7648
 1393TIP3   OH225737   1.810   3.730   0.772 -0.5302  0.4074  0.1070
 1393TIP3    H125738   1.716   3.733   0.756 -0.9950 -1.0606  2.1671
 1393TIP3    H225739   1.822   3.780   0.853  0.8407  2.5180 -1.3063
 1394TIP3   OH225740   0.703   3.524   1.249 -0.1796  0.1180 -0.2766
 1394TIP3    H125741   0.622   3.518   1.198 -0.5799 -0.8132  0.4424
 1394TIP3    H225742   0.682   3.585   1.320 -0.4793 -0.6480  0.3030
 1395TIP3   OH225743   2.330   3.146   3.468  0.3639  0.0722 -0.7893
 1395TIP3    H125744   2.407   3.203   3.469 -0.8902  1.8867 -1.4820
 1395TIP3    H225745   2.310   3.131   3.561  1.4621 -0.3379 -0.6038
 1396TIP3   OH225746   6.015   1.339   7.969 -0.1744  0.3168 -0.1167
 1396TIP3    H125747   6.019   1.338   7.874  0.3412 -0.1352 -0.0978
 1396TIP3    H225748   5.944   1.280   7.991  1.5149 -1.8702 -0.1732
 1397TIP3   OH225749   2.860   2.183   0.889  0.3872 -0.2816 -0.1718
 1397TIP3    H125750   2.813   2.260   0.922  0.7956 -0.1803  0.1978
 1397TIP3    H225751   2.808   2.152   0.815  1.3438  1.6659 -1.7634
 1398TIP3   OH225752   5.074   3.433   2.708  0.0806 -0.0614 -0.4370
 1398TIP3    H125753   5.017   3.480   2.648 -0.7387 -0.6682 -0.1557
 1398TIP3    H225754   5.115   3.365   2.654 -0.9255 -0.8327 -0.2505
 1399TIP3   OH225755   1.773   5.360   0.293  0.1048 -0.5606  0.1970
 1399TIP3    H125756   1.733   5.442   0.265 -1.9278 -1.1163  1.3077
 1399TIP3    H225757   1.816   5.381   0.376 -1.8359 -0.9205  1.3474
 1400TIP3   OH225758   3.133   5.877   8.239  0.4512  0.6082 -0.3448
 1400TIP3    H125759   3.228   5.865   8.236  0.4340  0.6246 -1.7522
 1400TIP3    H225760   3.117   5.924   8.321  1.3866 -1.5248  1.1592
 1401TIP3   OH225761   2.051   0.045   0.734 -0.0284 -0.2804 -0.1287
 1401TIP3    H125762   2.003  -0.004   0.667  0.2998  2.4162 -2.5097
 1401TIP3    H225763   1.983   0.098   0.777  0.2434  0.6898 -0.8693
 1402TIP3   OH225764   4.357   0.249   1.098  0.1053 -0.1294  0.1649
 1402TIP3    H125765   4.428   0.186   1.087 -0.4469 -0.5032 -1.6477
 1402TIP3    H225766   4.290   0.221   1.036  0.1612  2.7104 -1.3616
 1403TIP3   OH225767   0.522   1.047   2.090  0.7836  0.2347  0.0317
 1403TIP3    H125768   0.514   1.080   2.001  3.0888  2.9836  0.6943
 1403TIP3    H225769   0.592   0.982   2.085 -1.6107 -2.4961 -0.6955
 1404TIP3   OH225770   3.086   1.362   1.087 -0.5087  0.0206 -0.2699
 1404TIP3    H125771   3.068   1.410   1.168 -0.2540  1.7967 -1.2063
 1404TIP3    H225772   3.072   1.270   1.110 -0.2536  0.4453  1.8270
 1405TIP3   OH225773   3.509   2.470   8.216 -0.1807  0.3147  0.5592
 1405TIP3    H125774   3.479   2.521   8.140  3.9687  0.4741 -1.2566
 1405TIP3    H225775   3.525   2.383   8.181  0.1987 -0.0843  1.6992
 1406TIP3   OH225776   3.947   2.064   0.062  0.2626  0.6547 -0.2409
 1406TIP3    H125777   4.005   2.118   0.008  1.2628  0.7230  0.8399
 1406TIP3    H225778   3.941   2.112   0.145 -0.1669 -0.0747  0.1618
 1407TIP3   OH225779   0.239   3.804   1.607  0.4022  0.3165 -0.2383
 1407TIP3    H125780   0.254   3.896   1.585 -0.2154  0.4967  0.0717
 1407TIP3    H225781   0.281   3.793   1.692 -0.8107  0.7117  0.4322
 1408TIP3   OH225782   5.531   4.220   1.082  0.2780  0.1392 -0.0447
 1408TIP3    H125783   5.526   4.238   1.175  0.1219  1.9250 -0.3682
 1408TIP3    H225784   5.504   4.301   1.040 -1.1265 -1.0931 -1.6571
 1409TIP3   OH225785   2.488   0.013   8.446 -0.1280  0.1052 -0.3322
 1409TIP3    H125786   2.500  -0.054   8.379  2.4605  0.5915 -0.4720
 1409TIP3    H225787   2.459   0.090   8.397 -0.4500 -0.1608 -0.5656
 1410TIP3   OH225788   1.889   5.196   2.564 -0.1358  0.7747 -0.2195
 1410TIP3    H125789   1.969   5.229   2.605  0.1686  0.0360 -0.1934
 1410TIP3    H225790   1.821   5.258   2.590  0.1604  0.6523  0.8999
 1411TIP3   OH225791   6.541   5.708   2.830 -0.3065  0.3985  0.0765
 1411TIP3    H125792   6.507   5.626   2.793 -1.6973  1.9487 -2.3713
 1411TIP3    H225793   6.469   5.741   2.885 -0.5156  0.8633 -0.4625
 1412TIP3   OH225794   3.521   5.564   0.430 -0.6022  0.4444 -0.2943
 1412TIP3    H125795   3.444   5.620   0.440 -1.3253 -0.8782  3.1981
 1412TIP3    H225796   3.585   5.600   0.490 -0.1758 -0.9965  0.1508
 1413TIP3   OH225797   4.805   5.379   1.213  0.1204 -0.1383 -0.1015
 1413TIP3    H125798   4.748   5.303   1.199 -0.0098 -0.1444  0.4182
 1413TIP3    H225799   4.876   5.345   1.268  0.2115  0.0473 -0.1036
 1414TIP3   OH225800   0.966   5.374   0.216  0.2926 -0.5125 -0.0802
 1414TIP3    H125801   0.968   5.361   0.121  1.7171  1.9400 -0.4502
 1414TIP3    H225802   0.880   5.413   0.232 -0.2362 -1.5728 -0.2247
 1415TIP3   OH225803   5.938   4.984   0.527  0.3218 -0.3521  0.0718
 1415TIP3    H125804   5.914   5.063   0.574  2.5062  0.3469  0.1422
 1415TIP3    H225805   5.985   5.015   0.449  1.0751 -1.5411  0.0067
 1416TIP3   OH225806   5.294   1.974   1.317 -0.3431  0.4227  0.4248
 1416TIP3    H125807   5.359   2.029   1.361 -2.3130  1.5965  2.0276
 1416TIP3    H225808   5.248   1.930   1.388 -1.6056 -0.0144 -0.6304
 1417TIP3   OH225809   2.583   4.296   3.142  0.2475  0.1975  0.0786
 1417TIP3    H125810   2.576   4.286   3.047  0.6592 -1.9849  0.2266
 1417TIP3    H225811   2.514   4.241   3.177  1.6056 -0.9357  1.0667
 1418TIP3   OH225812   4.794   3.637   1.591  0.3135  0.2495  0.5252
 1418TIP3    H125813   4.702   3.644   1.614  1.0446  2.6920  3.3690
 1418TIP3    H225814   4.831   3.581   1.659  1.0469 -0.3121 -0.3092
 1419TIP3   OH225815   0.387   6.084   0.723  0.1238  0.0974  0.3407
 1419TIP3    H125816   0.429   6.009   0.764 -0.1613  0.1459  0.7330
 1419TIP3    H225817   0.355   6.052   0.639 -1.4367 -0.6685  1.1932
 1420TIP3   OH225818   0.598   6.478   3.125  0.0845  0.4137  0.1295
 1420TIP3    H125819   0.635   6.504   3.210  0.7928  0.3482 -0.1531
 1420TIP3    H225820   0.505   6.462   3.144  0.3501 -0.1838  1.0206
 1421TIP3   OH225821   5.764   6.235   2.297 -0.2269 -0.2304  0.0471
 1421TIP3    H125822   5.839   6.219   2.354  0.1080 -1.4771 -0.7007
 1421TIP3    H225823   5.688   6.231   2.355  0.1257 -1.2170  0.4693
 1422TIP3   OH225824   2.580   1.700   3.429  0.1565  0.7910 -0.2017
 1422TIP3    H125825   2.568   1.731   3.518 -1.0290 -0.3906  0.0863
 1422TIP3    H225826   2.672   1.673   3.425 -0.0383 -0.1387  1.0057
 1423TIP3   OH225827   1.660   0.945   2.825  0.3428  1.1169  0.3788
 1423TIP3    H125828   1.598   0.933   2.896  0.3701  0.8975  0.3667
 1423TIP3    H225829   1.685   0.856   2.800  0.6864  1.2039  0.4065
 1424TIP3   OH225830   2.361   1.435   3.627 -0.2157 -0.3817  0.3314
 1424TIP3    H125831   2.267   1.421   3.616  0.0288 -1.1895 -0.7961
 1424TIP3    H225832   2.367   1.490   3.706 -1.5915 -0.7248  0.7071
 1425TIP3   OH225833   3.335   3.750   0.251  0.4495 -0.5622  0.4135
 1425TIP3    H125834   3.320   3.822   0.189 -1.0865 -2.2347 -1.2913
 1425TIP3    H225835   3.417   3.711   0.222  0.9428  0.0733  0.9273
 1426TIP3   OH225836   1.149   3.234   8.073 -0.8638 -0.1951 -0.5252
 1426TIP3    H125837   1.103   3.186   8.005 -1.4232 -0.9451  0.3520
 1426TIP3    H225838   1.209   3.170   8.111 -2.3591 -0.5791  1.3587
 1427TIP3   OH225839   4.269   6.338   0.879  0.1339  0.0026  0.2990
 1427TIP3    H125840   4.297   6.261   0.929 -0.2043 -0.5359 -0.3234
 1427TIP3    H225841   4.183   6.314   0.844  0.2923  0.4295 -0.4108
 1428TIP3   OH225842   1.097   5.878   4.004  0.1062  0.4346 -0.1268
 1428TIP3    H125843   1.175   5.921   4.039  1.6018  0.2513 -2.9440
 1428TIP3    H225844   1.112   5.785   4.018  0.4657  0.3913 -0.7890
 1429TIP3   OH225845   2.556   2.202   1.720 -0.7638 -0.2556 -0.3488
 1429TIP3    H125846   2.563   2.239   1.808  2.8303  0.6587 -0.8526
 1429TIP3    H225847   2.484   2.250   1.679 -0.7036  1.2685  1.2438
 1430TIP3   OH225848   2.542   2.740   2.844  0.0924  0.0980  0.0350
 1430TIP3    H125849   2.447   2.742   2.833 -0.1722 -0.8409  1.8583
 1430TIP3    H225850   2.565   2.827   2.878 -0.3050 -0.1298  0.8994
 1431TIP3   OH225851   5.893   1.311   0.455  0.3341  0.2172 -0.1843
 1431TIP3    H125852   5.813   1.259   0.455 -1.2456  2.5307 -0.8509
 1431TIP3    H225853   5.963   1.247   0.470 -1.5353 -1.9806 -0.3717
 1432TIP3   OH225854   4.885   6.341   7.883 -0.7069  0.3886  0.2835
 1432TIP3    H125855   4.872   6.418   7.828 -3.1272 -1.1068 -1.4169
 1432TIP3    H225856   4.977   6.345   7.908 -0.5263  3.3208 -0.4593
 1433TIP3   OH225857   3.852   4.212   1.442 -1.0359 -0.8233  0.0247
 1433TIP3    H125858   3.775   4.269   1.440 -1.6160 -1.5447  0.9574
 1433TIP3    H225859   3.878   4.211   1.534  0.2764 -0.3593 -0.3288
 1434TIP3   OH225860   5.978   4.316   2.433 -0.0954 -0.0420  0.0170
 1434TIP3    H125861   5.912   4.259   2.393  0.8155 -1.4518  0.4219
 1434TIP3    H225862   6.059   4.265   2.428  1.3731  2.2434 -1.9078
 1435TIP3   OH225863   1.867   3.283   2.132  0.2115 -0.0038 -0.2110
 1435TIP3    H125864   1.889   3.225   2.204 -0.4836 -0.2012 -0.1442
 1435TIP3    H225865   1.944   3.338   2.120  0.7666 -0.7454 -0.0879
 1436TIP3   OH225866   2.847   4.713   1.090  0.3673 -0.4182 -0.0744
 1436TIP3    H125867   2.911   4.738   1.156 -0.4263 -1.0284  0.9542
 1436TIP3    H225868   2.874   4.626   1.062  0.6489 -0.1993 -0.4813
 1437TIP3   OH225869   4.849   2.142   0.490 -0.1594 -0.2485  0.1491
 1437TIP3    H125870   4.763   2.151   0.530 -0.7399  1.5312 -1.3590
 1437TIP3    H225871   4.868   2.228   0.453  0.8504 -1.4193 -2.2937
 1438TIP3   OH225872   4.447   3.758   1.946 -0.2867 -0.2636  0.1903
 1438TIP3    H125873   4.398   3.783   2.024 -0.0804  0.7790 -0.0068
 1438TIP3    H225874   4.382   3.758   1.875 -0.0172  1.1546 -0.0779
 1439TIP3   OH225875   1.879   4.709   2.020  0.4545 -0.2408 -0.2712
 1439TIP3    H125876   1.809   4.750   1.968  0.0760 -1.1482 -0.4938
 1439TIP3    H225877   1.932   4.783   2.050 -0.4015  0.4441 -0.3858
 1440TIP3   OH225878   6.372   1.390   0.779  0.2594 -0.1063 -0.3605
 1440TIP3    H125879   6.445   1.329   0.767 -1.4032 -2.2028 -0.5479
 1440TIP3    H225880   6.351   1.419   0.690  0.0682 -0.5306 -0.4591
 1441TIP3   OH225881   6.812   4.897   1.968 -0.5264  0.3226  0.1251
 1441TIP3    H125882   6.802   4.874   2.061 -1.4356 -0.2270 -0.1009
 1441TIP3    H225883   6.800   4.992   1.965 -0.1534  0.3909  0.6090
 1442TIP3   OH225884   5.231   3.996   3.469  0.1775 -0.1702  0.7835
 1442TIP3    H125885   5.179   4.053   3.412  1.6982  1.4798  0.9595
 1442TIP3    H225886   5.220   4.032   3.556  2.1133  0.6439  0.7280
 1443TIP3   OH225887   5.838   0.959   7.550  1.0633 -0.4376  0.0002
 1443TIP3    H125888   5.837   1.018   7.474  0.4115  0.5431  0.7514
 1443TIP3    H225889   5.747   0.931   7.560  0.7670  0.9613  1.5579
 1444TIP3   OH225890   2.853   1.660   0.103 -0.0881  0.9210  0.2663
 1444TIP3    H125891   2.856   1.751   0.133 -0.4228  1.4653 -1.2567
 1444TIP3    H225892   2.760   1.639   0.102 -0.1461  1.1893 -1.1224
 1445TIP3   OH225893   3.614   0.559   2.473 -0.2201 -0.4425  0.2337
 1445TIP3    H125894   3.533   0.549   2.423  0.9372  1.7490 -2.3755
 1445TIP3    H225895   3.622   0.654   2.486  1.3653 -0.7034  1.4176
 1446TIP3   OH225896   1.030   1.658   0.085  0.2477 -0.4531  0.2188
 1446TIP3    H125897   1.021   1.729   0.022 -3.9171 -2.1984 -1.4988
 1446TIP3    H225898   0.975   1.685   0.159 -0.4241 -1.3206  0.0551
 1447TIP3   OH225899   4.944   5.677   1.827  0.0279 -0.1357 -0.2561
 1447TIP3    H125900   4.953   5.585   1.800  2.0051  0.3615 -1.5575
 1447TIP3    H225901   4.938   5.674   1.922 -1.0598 -1.6575 -0.3316
 1448TIP3   OH225902   5.660   2.207   7.948 -0.1438 -0.4944 -0.3006
 1448TIP3    H125903   5.678   2.300   7.933 -0.6107 -0.3411  0.0795
 1448TIP3    H225904   5.586   2.206   8.008 -0.6030 -1.1149 -0.8588
 1449TIP3   OH225905   4.216   1.306   2.580 -0.2543 -0.5992 -0.1754
 1449TIP3    H125906   4.214   1.401   2.595  0.2639 -0.6358  0.1217
 1449TIP3    H225907   4.269   1.271   2.651  0.7854 -0.9578 -1.1013
 1450TIP3   OH225908   1.767   6.746   0.212  0.0167  0.1920  0.1304
 1450TIP3    H125909   1.692   6.804   0.225  0.0670  0.2379  0.2167
 1450TIP3    H225910   1.768   6.728   0.118  0.2909  0.7222  0.0322
 1451TIP3   OH225911   3.411   4.139   2.578  0.6387  0.2235  0.3452
 1451TIP3    H125912   3.442   4.048   2.585  1.2667  0.2690 -1.4627
 1451TIP3    H225913   3.465   4.187   2.641  1.1765 -0.4407  0.4050
 1452TIP3   OH225914   3.981   1.391   7.981  0.5960 -0.0783  0.2960
 1452TIP3    H125915   4.012   1.406   7.892  1.1182 -1.2150  0.2679
 1452TIP3    H225916   3.904   1.335   7.971  0.9349 -0.6029  0.5734
 1453TIP3   OH225917   3.374   6.107   0.909 -0.2632  0.2890  0.4195
 1453TIP3    H125918   3.382   6.202   0.897  0.0265  0.1846 -0.2496
 1453TIP3    H225919   3.280   6.090   0.903 -0.2579  0.4476 -0.1888
 1454TIP3   OH225920   5.870   4.076   1.626 -0.2357  0.4253  0.1199
 1454TIP3    H125921   5.849   4.110   1.713 -1.8549  1.1741 -0.5278
 1454TIP3    H225922   5.822   4.133   1.565 -0.0685 -0.7900 -1.2086
 1455TIP3   OH225923   1.945   6.442   8.548 -0.1976 -0.3063 -0.2529
 1455TIP3    H125924   1.924   6.390   8.470  0.8068 -0.4277 -0.4600
 1455TIP3    H225925   2.039   6.462   8.538 -0.6321  1.9087 -0.3962
 1456TIP3   OH225926   4.112   0.646   1.185  0.3223 -0.0571 -0.0854
 1456TIP3    H125927   4.192   0.604   1.155 -0.8515 -0.3029 -3.3404
 1456TIP3    H225928   4.135   0.739   1.194  1.1513 -0.2304 -0.3408
 1457TIP3   OH225929   4.255   6.581   2.248  0.3142 -0.1098  0.0214
 1457TIP3    H125930   4.224   6.598   2.158  0.9368 -2.2766 -0.6648
 1457TIP3    H225931   4.176   6.556   2.296  0.1735 -0.2359 -0.2712
 1458TIP3   OH225932   3.303   3.266   8.660 -0.2468 -0.2800 -0.2675
 1458TIP3    H125933   3.240   3.259   8.731  0.4284 -1.0779  0.2722
 1458TIP3    H225934   3.381   3.304   8.701  0.2338 -0.9827 -0.5089
 1459TIP3   OH225935   2.345   2.979   1.437 -0.2395  0.2060  0.1847
 1459TIP3    H125936   2.257   2.982   1.399  0.6507 -0.7917 -2.0862
 1459TIP3    H225937   2.380   3.067   1.422 -0.1944  0.0612 -0.5941
 1460TIP3   OH225938   0.827   4.776   1.112  0.0817  0.1986  0.2300
 1460TIP3    H125939   0.756   4.731   1.158  0.6205 -0.0428  0.8546
 1460TIP3    H225940   0.814   4.755   1.020  0.1087 -0.9443  0.4707
 1461TIP3   OH225941   1.819   6.667   3.811  0.0932 -0.0456 -0.3979
 1461TIP3    H125942   1.886   6.691   3.747 -0.4344 -1.0140 -1.3450
 1461TIP3    H225943   1.856   6.592   3.858  0.7275  1.0127  0.8990
 1462TIP3   OH225944   5.763   1.817   3.245  0.8549  0.0420  0.4225
 1462TIP3    H125945   5.801   1.792   3.329  0.5177 -1.3353  0.1967
 1462TIP3    H225946   5.836   1.852   3.195  1.3883 -0.5449  0.7651
 1463TIP3   OH225947   2.760   1.081   2.654  0.1396  0.1846  0.2520
 1463TIP3    H125948   2.680   1.038   2.625  0.0653  0.1617  0.4860
 1463TIP3    H225949   2.739   1.174   2.650 -0.0937  0.1623  0.8592
 1464TIP3   OH225950   2.162   3.812   0.550  0.3348 -0.0971 -0.0918
 1464TIP3    H125951   2.082   3.768   0.522  0.4302 -1.0635  1.0726
 1464TIP3    H225952   2.131   3.888   0.600  0.1540 -0.4108  0.2712
 1465TIP3   OH225953   5.054   4.974   3.985 -0.1861 -0.0822 -0.2405
 1465TIP3    H125954   4.974   4.932   4.018 -0.8383  2.6874  2.2193
 1465TIP3    H225955   5.025   5.027   3.911 -1.0532  1.8315  1.3467
 1466TIP3   OH225956   6.149   6.698   8.119  0.2192 -0.1711  0.0199
 1466TIP3    H125957   6.121   6.648   8.042 -1.2881  0.6005  0.0246
 1466TIP3    H225958   6.169   6.785   8.085  1.3542 -0.3310  0.2427
 1467TIP3   OH225959   3.512   4.281   3.875  0.2192  0.4855  0.4776
 1467TIP3    H125960   3.525   4.373   3.899  1.4033  0.5259 -0.2441
 1467TIP3    H225961   3.513   4.234   3.959 -2.0740  1.2561  1.0238
 1468TIP3   OH225962   4.581   5.738   2.901  0.1852  0.2138 -0.1970
 1468TIP3    H125963   4.584   5.799   2.974  1.4205 -0.1641  0.0919
 1468TIP3    H225964   4.559   5.654   2.941  1.1836 -0.0586 -0.1943
 1469TIP3   OH225965   2.708   2.088   0.660  0.2606  0.5849 -0.2084
 1469TIP3    H125966   2.631   2.035   0.680  0.9747  0.3770  2.3097
 1469TIP3    H225967   2.700   2.108   0.567 -2.5800  0.2082 -0.1219
 1470TIP3   OH225968   1.863   1.787   1.790  0.1421  0.1880  0.5316
 1470TIP3    H125969   1.864   1.744   1.876  0.4538 -0.6894  0.1039
 1470TIP3    H225970   1.854   1.880   1.810  1.9209  0.1825  1.6024
 1471TIP3   OH225971   4.077   2.756   0.405  0.2914 -0.0279 -0.6954
 1471TIP3    H125972   4.096   2.729   0.495  1.5855  2.2186 -0.2201
 1471TIP3    H225973   3.985   2.733   0.392  0.1857 -0.7537  1.0473
 1472TIP3   OH225974   2.930   1.601   0.854 -0.1602 -0.2442  0.0415
 1472TIP3    H125975   2.999   1.544   0.820  0.9150 -0.0279  1.7248
 1472TIP3    H225976   2.924   1.672   0.790  0.4422 -0.8292 -0.6772
 1473TIP3   OH225977   5.468   4.917   1.834 -0.2942 -0.5260 -0.2895
 1473TIP3    H125978   5.465   5.007   1.800 -0.9810  0.0594  1.2196
 1473TIP3    H225979   5.410   4.919   1.910 -1.1885 -2.5446 -0.8569
 1474TIP3   OH225980   6.496   6.684   2.643 -0.5343 -0.3943  0.0673
 1474TIP3    H125981   6.408   6.672   2.605 -0.6059  1.4316 -0.4588
 1474TIP3    H225982   6.555   6.650   2.576 -0.8028 -3.3034  1.1422
 1475TIP3   OH225983   0.266   5.214   8.355 -0.4645 -0.0495  0.0007
 1475TIP3    H125984   0.324   5.253   8.288 -0.1912  0.9758  0.8011
 1475TIP3    H225985   0.240   5.130   8.318 -0.6485  0.6538 -1.5889
 1476TIP3   OH225986   0.251   0.043   8.619 -0.7611 -0.4503  0.3221
 1476TIP3    H125987   0.300  -0.040   8.616 -0.1426 -0.1257  1.0124
 1476TIP3    H225988   0.283   0.092   8.544 -0.9583 -0.7449  0.0432
 1477TIP3   OH225989   5.731   5.718   2.447 -0.0524 -0.2629  0.4703
 1477TIP3    H125990   5.663   5.709   2.380  0.1798 -0.5716  0.2766
 1477TIP3    H225991   5.813   5.722   2.398  0.0375  0.7040  0.6634
 1478TIP3   OH225992   1.816   4.381   0.410  0.2471 -0.0930 -0.3021
 1478TIP3    H125993   1.873   4.316   0.369 -0.1093 -1.4898  1.2709
 1478TIP3    H225994   1.875   4.435   0.463  0.4257  0.2563 -0.8484
 1479TIP3   OH225995   1.224   3.343   2.425 -0.8418  0.6889 -0.0930
 1479TIP3    H125996   1.205   3.436   2.434  1.1937  1.4239 -2.1829
 1479TIP3    H225997   1.172   3.315   2.350 -2.5696 -0.2943  1.4053
 1480TIP3   OH225998   1.409   1.735   2.920  0.1226 -0.1206 -0.3245
 1480TIP3    H125999   1.383   1.685   2.997  1.2540 -0.0469  0.1253
 1480TIP3    H226000   1.452   1.672   2.863  1.1546  0.2264  0.0468
 1481TIP3   OH226001   6.001   1.472   7.648 -0.1257  0.0712  0.1754
 1481TIP3    H126002   6.085   1.470   7.603 -1.2948  0.0447 -2.1773
 1481TIP3    H226003   6.004   1.552   7.702  1.5256 -0.1574  0.4659
 1482TIP3   OH226004   4.680   0.608   2.452  0.0225 -0.2674 -0.1340
 1482TIP3    H126005   4.591   0.636   2.430  0.4584  0.6250 -0.8608
 1482TIP3    H226006   4.669   0.547   2.525 -0.9071  2.8325  2.5319
 1483TIP3   OH226007   0.738   2.433   8.003 -0.1821  0.0948  0.5108
 1483TIP3    H126008   0.807   2.438   7.937 -0.1368  1.4956  0.6345
 1483TIP3    H226009   0.671   2.493   7.972 -1.1780 -0.9349  0.6162
 1484TIP3   OH226010   3.795   2.040   0.468 -0.1226 -0.3202 -0.1711
 1484TIP3    H126011   3.861   1.972   0.483  0.3726  0.2297  0.2010
 1484TIP3    H226012   3.824   2.084   0.387  0.9438  1.0126  0.8802
 1485TIP3   OH226013   4.147   6.380   1.342  0.9318  0.4602  0.1046
 1485TIP3    H126014   4.183   6.417   1.262 -0.2792  0.0906 -0.6483
 1485TIP3    H226015   4.134   6.287   1.322  2.3105 -0.0513  1.3720
 1486TIP3   OH226016   0.195   6.370   3.563 -0.4027 -0.1808  0.4896
 1486TIP3    H126017   0.117   6.426   3.566 -2.3069 -2.6054  0.0451
 1486TIP3    H226018   0.260   6.420   3.515 -2.4897  1.0887 -1.1901
 1487TIP3   OH226019   6.253   5.772   2.967 -0.3699  0.5832  0.2366
 1487TIP3    H126020   6.178   5.828   2.988 -0.5091 -0.0475  1.5199
 1487TIP3    H226021   6.283   5.739   3.052  0.2895 -0.5438 -0.4084
 1488TIP3   OH226022   6.762   2.558   1.731 -0.0464 -0.5825  0.2010
 1488TIP3    H126023   6.752   2.497   1.804 -0.6469  2.0126  2.4803
 1488TIP3    H226024   6.730   2.642   1.765  3.1023  1.6707 -1.7931
 1489TIP3   OH226025   1.548   5.514   1.780 -0.4518 -0.5847 -0.2439
 1489TIP3    H126026   1.593   5.498   1.697 -0.2384 -1.6191  0.0528
 1489TIP3    H226027   1.582   5.599   1.809  0.4472 -0.8128 -0.5857
 1490TIP3   OH226028   0.685   0.007   2.478  1.0117  0.6792 -0.2200
 1490TIP3    H126029   0.637  -0.067   2.440  0.4039  0.6988  0.4897
 1490TIP3    H226030   0.773  -0.001   2.441  1.5231 -1.5181  1.2710
 1491TIP3   OH226031   4.827   1.208   2.036 -0.0383 -0.2533  0.0578
 1491TIP3    H126032   4.823   1.146   2.109 -1.8787 -0.2396  0.0157
 1491TIP3    H226033   4.736   1.231   2.019  0.3919  0.2626 -1.8080
 1492TIP3   OH226034   1.543   2.532   4.039  0.6396 -0.1849 -0.0082
 1492TIP3    H126035   1.529   2.441   4.014  0.3180  0.2543 -1.5339
 1492TIP3    H226036   1.514   2.583   3.963 -0.3247  1.2559  1.2657
 1493TIP3   OH226037   4.558   3.071   2.753 -0.0150 -0.2158  0.4581
 1493TIP3    H126038   4.514   3.064   2.838  0.9309 -1.2191  0.8862
 1493TIP3    H226039   4.502   3.023   2.693  0.5453 -1.6730  1.0454
 1494TIP3   OH226040   1.568   0.349   3.040  0.2635  0.2750  0.3814
 1494TIP3    H126041   1.640   0.382   3.093  1.9050 -1.9322 -0.3353
 1494TIP3    H226042   1.604   0.343   2.951 -0.5672 -1.4735  0.1202
 1495TIP3   OH226043   0.223   5.464   0.172  0.0806 -0.1552 -0.1129
 1495TIP3    H126044   0.239   5.400   0.103 -0.8287 -0.5550  0.0388
 1495TIP3    H226045   0.255   5.546   0.136  0.7485 -0.5817 -0.5248
 1496TIP3   OH226046   5.468   0.145   2.201 -0.5083  0.3018 -0.3709
 1496TIP3    H126047   5.410   0.069   2.208  0.7403 -0.6048  0.4549
 1496TIP3    H226048   5.524   0.139   2.278 -0.6653  2.3250 -0.0447
 1497TIP3   OH226049   0.125   6.509   1.401 -0.1749  0.2231  0.0176
 1497TIP3    H126050   0.197   6.447   1.385 -0.5182  0.1873 -1.5047
 1497TIP3    H226051   0.169   6.592   1.418  0.2582  0.4047 -1.7639
 1498TIP3   OH226052   1.015   0.431   8.281  0.1440 -0.4148 -0.5948
 1498TIP3    H126053   1.005   0.388   8.196  0.7894 -0.1797 -0.7968
 1498TIP3    H226054   1.052   0.517   8.261  0.5001 -0.4364 -0.0671
 1499TIP3   OH226055   6.781   3.862   7.744  0.5709 -0.0474 -0.1056
 1499TIP3    H126056   6.844   3.803   7.786 -1.1726 -1.3531  0.8182
 1499TIP3    H226057   6.764   3.930   7.809 -0.1792 -0.6197  0.3130
 1500TIP3   OH226058   5.007   1.311   0.654  0.3726 -0.4173  0.6661
 1500TIP3    H126059   5.085   1.351   0.615  0.1343 -0.5806  0.0131
 1500TIP3    H226060   4.982   1.371   0.725  0.0393  0.5848 -0.2770
 1501TIP3   OH226061   0.797   0.330   8.419 -0.3527  0.1004  0.1945
 1501TIP3    H126062   0.832   0.252   8.461  0.7491  0.8549  0.7196
 1501TIP3    H226063   0.867   0.361   8.362 -1.1560  0.1375 -0.8063
 1502TIP3   OH226064   3.898   2.064   2.672 -0.0611 -0.0956 -0.0393
 1502TIP3    H126065   3.810   2.072   2.633  0.2901 -0.2306 -0.8790
 1502TIP3    H226066   3.950   2.130   2.627  0.0024  0.7915  1.2830
 1503TIP3   OH226067   4.364   3.358   2.860  0.0120  0.4334 -0.3463
 1503TIP3    H126068   4.300   3.292   2.830 -0.6579  1.1721 -0.5830
 1503TIP3    H226069   4.352   3.361   2.955 -0.1629  0.4229 -0.3674
 1504TIP3   OH226070   1.685   1.357   1.597 -0.2737  0.3702  0.3683
 1504TIP3    H126071   1.661   1.418   1.667  0.0862  0.6242  0.2718
 1504TIP3    H226072   1.747   1.406   1.543 -0.7455  0.2671 -0.2740
 1505TIP3   OH226073   2.056   3.279   3.209  0.0622 -0.1994 -0.1479
 1505TIP3    H126074   2.089   3.209   3.264 -0.4203 -1.4404 -1.3874
 1505TIP3    H226075   1.970   3.300   3.245 -1.5794 -3.0343 -2.0246
 1506TIP3   OH226076   4.536   1.643   8.185 -0.0738  0.4846  0.0420
 1506TIP3    H126077   4.527   1.685   8.271  1.9096 -0.0706  0.5611
 1506TIP3    H226078   4.445   1.627   8.157 -0.7741  1.2370  1.7372
 1507TIP3   OH226079   0.113   2.696   0.690  0.1772 -0.6729 -0.8088
 1507TIP3    H126080   0.062   2.616   0.676 -0.2551 -0.3087 -1.3463
 1507TIP3    H226081   0.062   2.764   0.648  0.1164  0.0447  0.3754
 1508TIP3   OH226082   2.096   4.873   2.053  0.1767  0.0315  0.5609
 1508TIP3    H126083   2.086   4.911   2.140 -1.3756 -1.3021  1.0282
 1508TIP3    H226084   2.188   4.847   2.047  0.1037 -0.7031  2.1830
 1509TIP3   OH226085   2.122   6.052   8.200  0.0657 -0.1631  0.1262
 1509TIP3    H126086   2.184   5.980   8.207 -0.3521 -0.5712 -0.3222
 1509TIP3    H226087   2.083   6.043   8.113 -0.6522  0.0576  0.4134
 1510TIP3   OH226088   4.643   0.670   0.758 -0.7733 -0.6200 -0.1268
 1510TIP3    H126089   4.724   0.718   0.775 -2.3683  1.7817  1.2059
 1510TIP3    H226090   4.660   0.623   0.676  1.0912  1.8249 -1.2782
 1511TIP3   OH226091   0.467   1.621   3.269 -0.0776  0.5984  0.0633
 1511TIP3    H126092   0.477   1.545   3.212 -1.8090 -0.1721  0.7207
 1511TIP3    H226093   0.530   1.605   3.340 -0.2763 -0.1247  0.0865
 1512TIP3   OH226094   3.567   1.005   2.894 -0.2906  0.3499  0.2050
 1512TIP3    H126095   3.506   1.064   2.851 -2.0649  0.5487  2.8008
 1512TIP3    H226096   3.611   1.059   2.959  0.6444 -0.4304  0.2476
 1513TIP3   OH226097   2.307   1.170   3.274  0.0639 -0.2204  0.7917
 1513TIP3    H126098   2.373   1.178   3.343  0.9764 -2.1498  0.2219
 1513TIP3    H226099   2.357   1.150   3.195 -1.1174 -0.4692  0.0789
 1514TIP3   OH226100   5.770   5.549   2.008 -0.1703 -0.0829  0.4622
 1514TIP3    H126101   5.791   5.607   2.081 -1.4392  0.4944  0.4060
 1514TIP3    H226102   5.725   5.605   1.945  1.4074 -0.4459 -1.0471
 1515TIP3   OH226103   2.155   3.790   0.960 -0.2332 -0.5279 -0.2520
 1515TIP3    H126104   2.235   3.787   0.907 -0.6975  1.6047 -1.1749
 1515TIP3    H226105   2.183   3.827   1.043 -0.3204  0.7831 -0.7827
 1516TIP3   OH226106   3.513   3.777   2.426  0.1461  0.4089 -0.2169
 1516TIP3    H126107   3.536   3.692   2.464  1.0573  0.5278 -0.4752
 1516TIP3    H226108   3.417   3.775   2.420  0.0617 -0.1170  0.8979
 1517TIP3   OH226109   0.047   6.547   0.850 -0.4754 -0.0997 -0.5634
 1517TIP3    H126110   0.079   6.635   0.830 -1.8473  0.7365  0.7572
 1517TIP3    H226111  -0.018   6.529   0.782 -0.9875  0.3694 -0.2042
 1518TIP3   OH226112   1.179   3.564   2.982 -0.3370  0.0246  0.2242
 1518TIP3    H126113   1.122   3.623   2.933  0.6235  1.6934  1.0147
 1518TIP3    H226114   1.265   3.607   2.979 -0.0054 -0.3974  2.3574
 1519TIP3   OH226115   3.113   5.089   1.249  0.0078 -0.4900 -0.3872
 1519TIP3    H126116   3.178   5.152   1.282  0.6575 -0.5883 -1.4033
 1519TIP3    H226117   3.161   5.040   1.182 -1.6363  0.7940 -2.6348
 1520TIP3   OH226118   1.064   4.352   1.638 -0.1577  0.4513  0.2490
 1520TIP3    H126119   1.003   4.419   1.607  3.2410  2.2109 -3.6372
 1520TIP3    H226120   1.103   4.389   1.717 -0.9517  1.3440  0.2359
 1521TIP3   OH226121   2.005   4.078   1.870 -0.2249 -0.0763  0.0854
 1521TIP3    H126122   2.064   4.061   1.943  0.9863 -0.4228 -0.9218
 1521TIP3    H226123   2.051   4.143   1.817 -0.6253 -0.5372 -0.8584
 1522TIP3   OH226124   5.297   4.054   1.215 -1.1680 -0.9779  0.0780
 1522TIP3    H126125   5.344   4.106   1.149 -1.1515 -0.5351  0.4339
 1522TIP3    H226126   5.234   4.115   1.253 -1.5564 -1.3816  0.0905
 1523TIP3   OH226127   4.289   5.686   2.158  0.5991  0.2807  0.4431
 1523TIP3    H126128   4.219   5.659   2.217  1.2001  0.1310  1.1034
 1523TIP3    H226129   4.370   5.659   2.202  1.0515 -0.1508 -0.6150
 1524TIP3   OH226130   1.775   0.769   8.566  0.1114  0.0346  0.2689
 1524TIP3    H126131   1.825   0.806   8.638  0.4747 -0.1318  0.1032
 1524TIP3    H226132   1.773   0.675   8.584  1.7799 -0.2607 -0.8926
 1525TIP3   OH226133   0.632   1.708   2.868 -0.1441 -0.0479  0.5924
 1525TIP3    H126134   0.624   1.613   2.874 -2.1295  0.1430  3.0188
 1525TIP3    H226135   0.569   1.734   2.801 -0.8175 -0.3852  1.0764
 1526TIP3   OH226136   3.228   3.472   1.700 -0.3645 -0.2243  0.3740
 1526TIP3    H126137   3.146   3.434   1.669  0.2737 -0.3875 -1.2112
 1526TIP3    H226138   3.219   3.566   1.683 -0.2664 -0.2208  0.3437
 1527TIP3   OH226139   1.072   0.458   0.134 -0.3252  0.0459 -0.3786
 1527TIP3    H126140   1.002   0.399   0.105 -2.6141  3.3957 -2.3918
 1527TIP3    H226141   1.140   0.449   0.067 -0.3661 -0.6950 -0.3281
 1528TIP3   OH226142   0.738   2.209   7.396  0.0185  0.4516  0.4198
 1528TIP3    H126143   0.684   2.138   7.431 -0.5855  1.0806  0.7914
 1528TIP3    H226144   0.726   2.281   7.457 -0.8026  1.4694 -0.8779
 1529TIP3   OH226145   4.984   2.635   2.627  0.1715  0.2961 -0.4393
 1529TIP3    H126146   5.042   2.704   2.594  1.4165 -0.6980 -0.4010
 1529TIP3    H226147   5.027   2.554   2.601 -0.9939 -0.4790 -0.0109
 1530TIP3   OH226148   1.195   1.352   8.250  0.2916  0.0768 -0.2938
 1530TIP3    H126149   1.142   1.425   8.282  1.6169  1.2700 -0.7577
 1530TIP3    H226150   1.245   1.388   8.177  1.7599 -0.9977  0.1357
 1531TIP3   OH226151   6.227   4.181   2.453  0.0350 -0.0010  0.8875
 1531TIP3    H126152   6.265   4.113   2.508  0.0250 -0.1786  0.6744
 1531TIP3    H226153   6.303   4.223   2.412 -0.0349 -1.0592 -0.3783
 1532TIP3   OH226154   4.032   5.006   0.074 -0.1440  0.4843 -0.6553
 1532TIP3    H126155   3.956   5.039   0.122  0.9765  1.0183  0.8393
 1532TIP3    H226156   4.074   4.945   0.135 -1.4795 -2.9464 -2.8651
 1533TIP3   OH226157   3.762   5.149   3.599  0.3125 -0.4543  0.3689
 1533TIP3    H126158   3.707   5.071   3.612 -0.2546 -0.2165 -0.4909
 1533TIP3    H226159   3.849   5.115   3.580 -0.2517 -0.9318 -1.4674
 1534TIP3   OH226160   1.790   5.715   0.826 -0.2143 -0.5435 -0.6723
 1534TIP3    H126161   1.737   5.728   0.748 -0.3268 -0.1288 -0.5264
 1534TIP3    H226162   1.810   5.621   0.826 -0.2845 -0.5596 -1.1502
 1535TIP3   OH226163   5.131   6.607   8.612  0.4950 -0.5518  0.1565
 1535TIP3    H126164   5.199   6.665   8.578 -0.6163  1.2416  0.8774
 1535TIP3    H226165   5.059   6.615   8.550  0.3569 -1.2514  0.2217
 1536TIP3   OH226166   0.757   1.225   2.318 -0.3064  0.0435  0.0925
 1536TIP3    H126167   0.820   1.282   2.360 -1.2470  0.8402  0.4707
 1536TIP3    H226168   0.773   1.237   2.224  0.0904  0.2434  0.1842
 1537TIP3   OH226169   6.747   5.841   2.922  0.1352  0.1383 -0.2834
 1537TIP3    H126170   6.729   5.928   2.887 -0.5705 -0.2789 -0.9773
 1537TIP3    H226171   6.665   5.794   2.913  0.2867 -0.3644  0.8225
 1538TIP3   OH226172   4.277   3.668   0.825  0.1200 -0.4720  0.4709
 1538TIP3    H126173   4.356   3.711   0.793 -0.6834 -0.1986 -1.2653
 1538TIP3    H226174   4.258   3.712   0.908 -0.6259  2.5715 -1.1787
 1539TIP3   OH226175   0.939   2.952   8.169 -0.0911 -0.2319  0.1751
 1539TIP3    H126176   0.851   2.988   8.164 -0.0038  0.2259  1.5589
 1539TIP3    H226177   0.974   2.961   8.080 -0.9421  0.8256 -0.0662
 1540TIP3   OH226178   0.981   1.565   0.882 -0.1309 -0.1049 -0.3247
 1540TIP3    H126179   0.886   1.553   0.875 -0.2485  0.3052  0.4622
 1540TIP3    H226180   0.992   1.657   0.902  0.4078 -0.2375 -0.0034
 1541TIP3   OH226181   0.586   4.934   1.320 -0.6865 -0.0819 -0.0930
 1541TIP3    H126182   0.673   4.975   1.329 -0.3564  0.1344 -3.0618
 1541TIP3    H226183   0.597   4.847   1.356  0.6972  0.0744 -0.0579
 1542TIP3   OH226184   0.871   2.390   3.150 -0.7144 -0.3252  0.4740
 1542TIP3    H126185   0.841   2.300   3.136 -0.3198 -0.6065  1.3751
 1542TIP3    H226186   0.965   2.382   3.163 -0.4915  0.3581 -0.5725
 1543TIP3   OH226187   4.915   1.996   1.601  0.2829  0.0884  1.1413
 1543TIP3    H126188   4.820   1.981   1.597  0.3335 -0.2622  1.1921
 1543TIP3    H226189   4.924   2.090   1.614 -0.0081  0.5027 -1.3091
 1544TIP3   OH226190   1.828   5.229   2.109 -0.1443  0.2985  0.2960
 1544TIP3    H126191   1.893   5.266   2.050 -0.3694 -1.0230 -0.8356
 1544TIP3    H226192   1.747   5.230   2.059 -0.7923  0.9814  1.3205
 1545TIP3   OH226193   0.246   3.127   8.547 -0.6276  0.1047 -0.1476
 1545TIP3    H126194   0.193   3.130   8.626 -0.1580  0.0563  0.1723
 1545TIP3    H226195   0.336   3.119   8.578 -0.3391  1.1962 -0.6660
 1546TIP3   OH226196   5.685   6.191   2.775 -0.0834 -0.4991 -0.0244
 1546TIP3    H126197   5.752   6.167   2.710 -0.7440  1.1524 -1.4030
 1546TIP3    H226198   5.603   6.157   2.738 -0.2502 -1.0438  0.8201
 1547TIP3   OH226199   4.118   2.010   7.346 -0.4070  0.4530  0.2434
 1547TIP3    H126200   4.148   2.057   7.268  2.4223  0.8493  1.4083
 1547TIP3    H226201   4.139   1.918   7.328 -1.5645  0.2687 -0.2009
 1548TIP3   OH226202   5.566   6.570   2.257  0.0080  0.2343 -0.2261
 1548TIP3    H126203   5.644   6.540   2.211  1.1026  0.9976  1.0392
 1548TIP3    H226204   5.492   6.540   2.203  1.1157 -1.6043 -0.8003
 1549TIP3   OH226205   5.202   3.884   3.202 -0.2925 -0.5260 -0.3159
 1549TIP3    H126206   5.161   3.918   3.282  0.7897  3.0998 -1.1085
 1549TIP3    H226207   5.287   3.929   3.198 -0.4749 -0.2198 -3.6719
 1550TIP3   OH226208   5.859   2.506   8.554 -0.4260 -0.3128 -0.0058
 1550TIP3    H126209   5.939   2.536   8.597  1.0624 -2.4299 -1.1235
 1550TIP3    H226210   5.838   2.423   8.596  0.4773 -1.9210 -2.5021
 1551TIP3   OH226211   2.418   1.667   2.816  0.5107 -0.1861  0.0724
 1551TIP3    H126212   2.384   1.688   2.729  0.7997  1.5899  0.3541
 1551TIP3    H226213   2.500   1.621   2.799  1.1161  1.1015 -0.6290
 1552TIP3   OH226214   1.831   1.349   7.782 -0.2820 -0.4835  0.4535
 1552TIP3    H126215   1.921   1.367   7.809 -0.5355  2.8647 -0.4777
 1552TIP3    H226216   1.787   1.321   7.862  1.4363 -1.8659  0.9935
 1553TIP3   OH226217   4.095   1.885   8.560  0.0676  0.0494 -0.1008
 1553TIP3    H126218   4.049   1.934   8.629 -1.3180  1.8377 -2.1691
 1553TIP3    H226219   4.182   1.926   8.556  0.0387  0.1621  0.3479
 1554TIP3   OH226220   2.708   0.991   0.160  0.6203 -0.1608 -0.2303
 1554TIP3    H126221   2.788   1.003   0.109  1.2777  0.1634  0.8586
 1554TIP3    H226222   2.651   0.940   0.102  0.6878  1.5729 -1.9576
 1555TIP3   OH226223   4.399   5.011   0.221  0.5179 -0.1890  0.1481
 1555TIP3    H126224   4.411   5.074   0.150  1.0910 -1.3013 -0.7793
 1555TIP3    H226225   4.488   4.990   0.249  0.3491 -0.8078  0.2298
 1556TIP3   OH226226   4.070   0.843   1.934 -0.3301 -0.0640 -0.6423
 1556TIP3    H126227   4.049   0.773   1.995 -0.5129 -0.3140 -0.9882
 1556TIP3    H226228   4.141   0.807   1.880 -0.3908  0.0345 -0.7887
 1557TIP3   OH226229   0.883   6.483   2.626 -0.5297  0.6791  0.0440
 1557TIP3    H126230   0.909   6.573   2.643  2.0358  0.0486 -0.1616
 1557TIP3    H226231   0.913   6.434   2.703 -0.2667 -0.2534 -0.6274
 1558TIP3   OH226232   6.620   1.667   8.009  0.4043  0.0205  0.1774
 1558TIP3    H126233   6.567   1.598   8.048  0.5073 -0.7798 -1.0260
 1558TIP3    H226234   6.710   1.642   8.029  0.5450 -1.1375 -1.6024
 1559TIP3   OH226235   6.832   1.983   7.681  0.2060 -0.2375 -0.5617
 1559TIP3    H126236   6.810   2.024   7.598  0.0593 -0.2619 -0.5360
 1559TIP3    H226237   6.758   1.925   7.699  0.9122 -1.3544 -1.1429
 1560TIP3   OH226238   6.768   0.866   8.560 -0.1768 -0.7337  0.0816
 1560TIP3    H126239   6.764   0.771   8.570  0.3521 -0.5394  2.8061
 1560TIP3    H226240   6.705   0.899   8.624  1.1550  0.7646  0.6700
 1561TIP3   OH226241   6.325   2.084   1.657 -0.1199 -0.3585 -0.4151
 1561TIP3    H126242   6.347   2.173   1.686 -0.4303 -0.9585  1.7705
 1561TIP3    H226243   6.233   2.089   1.631  0.4652  0.4476 -2.5400
 1562TIP3   OH226244   6.509   2.515   3.021  0.4383  0.1928  0.5375
 1562TIP3    H126245   6.492   2.456   2.947 -0.6362  2.4951 -1.2009
 1562TIP3    H226246   6.421   2.542   3.050  0.8187  3.0008 -0.5888
 1563TIP3   OH226247   4.589   0.278   2.894 -0.1180  0.2824 -0.4262
 1563TIP3    H126248   4.590   0.190   2.858 -0.4396 -0.0354  0.3115
 1563TIP3    H226249   4.681   0.297   2.915 -0.3624 -1.1812  2.4161
 1564TIP3   OH226250   3.778   5.981   8.346 -0.2139 -0.2199 -0.1614
 1564TIP3    H126251   3.803   5.916   8.280  1.0260  1.2950 -1.2665
 1564TIP3    H226252   3.763   6.061   8.295 -1.5138  0.4201  1.1759
 1565TIP3   OH226253   2.271   1.737   1.432 -0.2367  0.8624  0.3294
 1565TIP3    H126254   2.178   1.719   1.444 -0.0916 -0.4782 -0.3529
 1565TIP3    H226255   2.304   1.753   1.521 -0.5311 -1.8531  1.0337
 1566TIP3   OH226256   2.775   4.412   1.279 -0.4191 -0.2735  0.4030
 1566TIP3    H126257   2.814   4.499   1.279  0.1593 -0.5168  1.0434
 1566TIP3    H226258   2.709   4.415   1.210  0.5935  0.2152 -0.5836
 1567TIP3   OH226259   6.369   6.541   3.398  0.0709 -0.3761 -0.5118
 1567TIP3    H126260   6.457   6.510   3.422  0.3045 -1.0206 -2.0753
 1567TIP3    H226261   6.321   6.461   3.376 -0.0328  0.1319 -2.3376
 1568TIP3   OH226262   4.634   6.762   1.422  0.8137  0.1770 -0.0544
 1568TIP3    H126263   4.715   6.726   1.457  0.6768  0.7148  0.8610
 1568TIP3    H226264   4.661   6.839   1.372  0.9520 -0.2106 -0.5801
 1569TIP3   OH226265   5.336   3.764   2.701  0.0755  0.3993  0.0407
 1569TIP3    H126266   5.320   3.808   2.784 -2.0352 -0.6972  0.2842
 1569TIP3    H226267   5.347   3.672   2.725  1.0065  0.2840 -0.7731
 1570TIP3   OH226268   2.324   3.096   3.182 -0.3681  0.7135  0.1106
 1570TIP3    H126269   2.337   3.117   3.274  2.9871 -0.9125  0.1889
 1570TIP3    H226270   2.370   3.165   3.135  2.0122 -0.8065 -0.0123
 1571TIP3   OH226271   6.849   2.820   3.829 -0.4267 -0.1591 -0.1075
 1571TIP3    H126272   6.872   2.736   3.789 -2.0965 -0.3996 -0.6542
 1571TIP3    H226273   6.767   2.844   3.786 -1.1410  0.6563  1.6473
 1572TIP3   OH226274   1.417   3.348   1.443 -0.7597 -0.3254  0.1583
 1572TIP3    H126275   1.500   3.320   1.403 -1.2702 -0.4917 -0.8013
 1572TIP3    H226276   1.443   3.383   1.528  0.7030  2.3001 -1.2302
 1573TIP3   OH226277   5.797   2.495   7.665 -0.2483 -0.2853  0.4712
 1573TIP3    H126278   5.752   2.566   7.620  0.7251 -1.0736 -1.8835
 1573TIP3    H226279   5.727   2.446   7.708 -1.2266  0.5586 -0.1183
 1574TIP3   OH226280   4.018   0.634   7.642 -0.2615 -0.2045  0.0171
 1574TIP3    H126281   4.084   0.703   7.633 -0.8002  0.2239 -0.7059
 1574TIP3    H226282   4.035   0.597   7.729  1.9566 -1.1646 -0.7351
 1575TIP3   OH226283   4.612   0.328   0.931  0.0862 -0.5672 -0.0460
 1575TIP3    H126284   4.578   0.253   0.980  0.3077  0.1923  1.3136
 1575TIP3    H226285   4.534   0.376   0.903 -0.0432 -1.0303 -0.4838
 1576TIP3   OH226286   0.576   3.274   2.645  0.1452 -0.1591  0.3501
 1576TIP3    H126287   0.651   3.331   2.634  1.1704 -1.8270 -2.1942
 1576TIP3    H226288   0.600   3.217   2.719  0.4989  0.6075  0.8324
 1577TIP3   OH226289   4.070   5.626   1.888 -0.4833 -0.6505  0.2443
 1577TIP3    H126290   3.996   5.646   1.945  0.7036 -1.2563  2.0681
 1577TIP3    H226291   4.134   5.695   1.906 -0.3136 -0.5281 -0.7813
 1578TIP3   OH226292   3.029   4.861   3.017 -0.2073  0.0450 -0.0833
 1578TIP3    H126293   2.976   4.934   2.984 -0.7968 -0.5120 -0.4002
 1578TIP3    H226294   3.093   4.902   3.075 -0.7680  0.7745  0.0361
 1579TIP3   OH226295   2.744   2.955   0.087 -0.1815  0.2486 -0.1622
 1579TIP3    H126296   2.810   2.932   0.152 -0.2510  1.4262  0.3478
 1579TIP3    H226297   2.720   2.872   0.047  1.8388 -0.1662 -0.5927
 1580TIP3   OH226298   1.375   2.696   0.786  0.4047 -0.5262 -0.0234
 1580TIP3    H126299   1.353   2.764   0.721 -0.1269 -0.4321  0.2501
 1580TIP3    H226300   1.430   2.741   0.850 -0.3004 -0.2271  0.3925
 1581TIP3   OH226301   2.658   2.626   2.601  0.2584  0.7603 -0.2296
 1581TIP3    H126302   2.747   2.656   2.616 -0.2737  2.3004  0.0312
 1581TIP3    H226303   2.609   2.654   2.679 -0.1180 -1.6325  0.4731
 1582TIP3   OH226304   5.161   0.722   1.250 -0.2300 -0.5658 -0.6525
 1582TIP3    H126305   5.122   0.637   1.230 -2.8647 -0.0264  1.5286
 1582TIP3    H226306   5.234   0.702   1.310 -0.8610 -1.3186 -0.1176
 1583TIP3   OH226307   1.565   3.538   0.814  0.3112  0.1016 -0.3743
 1583TIP3    H126308   1.541   3.630   0.802  1.6951  0.4768 -0.4306
 1583TIP3    H226309   1.608   3.514   0.732 -1.2472 -1.0313 -0.9123
 1584TIP3   OH226310   5.733   2.237   3.107  0.1245 -0.2218  0.1549
 1584TIP3    H126311   5.810   2.263   3.158  1.1072  0.4022 -1.5296
 1584TIP3    H226312   5.715   2.313   3.052 -0.8798 -0.8508 -0.4070
 1585TIP3   OH226313   3.309   6.562   1.648  0.1139 -0.6164 -0.0902
 1585TIP3    H126314   3.317   6.471   1.617 -0.3737 -0.2576 -1.3282
 1585TIP3    H226315   3.352   6.562   1.734 -0.6570 -2.2108  0.3263
 1586TIP3   OH226316   6.211   5.053   0.795  0.1252 -0.1294  0.0253
 1586TIP3    H126317   6.158   5.098   0.861  0.2742  0.7993 -0.4653
 1586TIP3    H226318   6.160   4.975   0.773  0.4369 -0.8712  1.7817
 1587TIP3   OH226319   6.324   5.238   0.141 -0.5854  0.5459 -0.0866
 1587TIP3    H126320   6.280   5.280   0.216 -1.3249  1.7306 -1.1431
 1587TIP3    H226321   6.401   5.293   0.126  0.5846 -0.7525  0.9142
 1588TIP3   OH226322   3.999   5.661   0.205  0.5329 -1.0334  0.0257
 1588TIP3    H126323   3.904   5.648   0.203  0.4092 -0.1534 -2.3495
 1588TIP3    H226324   4.035   5.586   0.158  0.8356 -0.3026 -0.9396
 1589TIP3   OH226325   0.417   5.990   8.215  0.2506  0.5830  0.4684
 1589TIP3    H126326   0.470   6.042   8.154  0.2375  1.4556  1.1742
 1589TIP3    H226327   0.329   6.027   8.207  0.1723  0.4561  0.7466
 1590TIP3   OH226328   6.141   5.190   0.396  0.0277  0.6464 -0.5474
 1590TIP3    H126329   6.067   5.180   0.336  0.0369 -0.4881 -0.4027
 1590TIP3    H226330   6.105   5.238   0.471 -0.6293 -0.0600 -0.3932
 1591TIP3   OH226331   5.544   4.670   1.481 -0.4361 -0.2652 -0.1543
 1591TIP3    H126332   5.624   4.643   1.435 -1.2443 -1.4173 -0.9113
 1591TIP3    H226333   5.548   4.766   1.479  1.8097 -0.2378  1.4189
 1592TIP3   OH226334   5.845   4.093   2.320  0.2671  0.1942 -0.5482
 1592TIP3    H126335   5.846   4.006   2.360  0.4168 -0.0084 -0.9802
 1592TIP3    H226336   5.918   4.091   2.257  2.9980  1.9984  2.2756
 1593TIP3   OH226337   2.138   1.355   3.144  0.0892  0.0842  0.3491
 1593TIP3    H126338   2.178   1.278   3.184 -1.5399 -0.9266  0.1381
 1593TIP3    H226339   2.198   1.381   3.074  0.4837 -1.2432  0.1746
 1594TIP3   OH226340   2.186   0.829   1.841 -0.4219  0.1679  0.1910
 1594TIP3    H126341   2.127   0.806   1.913  2.4156 -2.3831  1.9769
 1594TIP3    H226342   2.274   0.822   1.879  1.2232 -0.4675 -3.3039
 1595TIP3   OH226343   5.980   4.318   0.042 -0.5807 -0.7709 -0.0890
 1595TIP3    H126344   6.047   4.301   0.108 -0.2312 -0.4188 -0.3480
 1595TIP3    H226345   5.942   4.402   0.068  0.4096 -0.0115 -1.0211
 1596TIP3   OH226346   1.477   2.651   2.338  0.7205 -0.0782 -0.5805
 1596TIP3    H126347   1.533   2.603   2.398 -0.6936 -0.1257  0.7629
 1596TIP3    H226348   1.424   2.584   2.294  0.0495  0.0988 -0.0673
 1597TIP3   OH226349   0.109   3.652   8.383  0.1134  0.4024 -0.2038
 1597TIP3    H126350   0.157   3.600   8.318 -0.0782  1.3590 -1.1260
 1597TIP3    H226351   0.177   3.702   8.428  0.2350 -0.1853  0.2892
 1598TIP3   OH226352   2.903   6.235   0.749 -0.2808 -0.2537 -0.0137
 1598TIP3    H126353   2.863   6.178   0.815  0.1672 -0.4818  0.0665
 1598TIP3    H226354   2.922   6.177   0.675  1.5181 -0.5409  0.6244
 1599TIP3   OH226355   4.234   0.908   1.189  0.6214  0.0318  0.4185
 1599TIP3    H126356   4.197   0.935   1.105 -0.1550  0.9770  1.0235
 1599TIP3    H226357   4.323   0.944   1.189  1.0729 -1.0495 -0.4900
 1600TIP3   OH226358   2.528   4.267   1.312 -0.0863  0.4246 -0.2753
 1600TIP3    H126359   2.524   4.226   1.226 -0.3620  0.8957 -0.4940
 1600TIP3    H226360   2.617   4.249   1.344 -1.1449 -3.2546  1.1210
 1601TIP3   OH226361   1.896   0.202   2.234 -0.5962  0.0354  0.1490
 1601TIP3    H126362   1.847   0.144   2.175 -1.2381 -0.3453  1.0317
 1601TIP3    H226363   1.985   0.165   2.236 -0.9322 -0.7935  0.5052
 1602TIP3   OH226364   5.764   3.259   0.590  0.0076 -0.1495  0.3328
 1602TIP3    H126365   5.845   3.227   0.630  0.4429 -1.5139 -1.5005
 1602TIP3    H226366   5.747   3.199   0.518 -2.7545  0.0201  0.7325
 1603TIP3   OH226367   1.495   5.081   0.629 -0.0651 -0.2652  0.2065
 1603TIP3    H126368   1.521   5.006   0.575 -0.4941 -1.6322  1.8210
 1603TIP3    H226369   1.577   5.117   0.661  0.3129  1.4439 -2.3488
 1604TIP3   OH226370   6.168   2.754   1.830  0.3392 -0.3265 -0.1863
 1604TIP3    H126371   6.192   2.846   1.841 -0.2906 -0.1429 -0.3671
 1604TIP3    H226372   6.139   2.727   1.917 -1.0239  0.0942 -0.4962
 1605TIP3   OH226373   2.512   1.295   3.428  0.1425  0.0349 -0.2442
 1605TIP3    H126374   2.604   1.306   3.454 -0.4766 -1.2530  2.9725
 1605TIP3    H226375   2.462   1.331   3.501 -1.9704  1.1005 -2.1268
 1606TIP3   OH226376   3.607   1.889   3.402 -0.5461 -0.2923 -0.2624
 1606TIP3    H126377   3.558   1.963   3.439  0.8264 -0.2268  1.6129
 1606TIP3    H226378   3.634   1.838   3.478  0.4988 -1.4548 -1.3672
 1607TIP3   OH226379   6.574   6.499   8.477 -0.2597 -0.2910  0.3163
 1607TIP3    H126380   6.548   6.553   8.403  0.1614  0.8049  0.9539
 1607TIP3    H226381   6.517   6.422   8.471 -1.6339  0.7061  0.0029
 1608TIP3   OH226382   1.193   6.696   8.501  0.0585  0.3679  0.0672
 1608TIP3    H126383   1.232   6.689   8.414  1.5059  0.3980  0.6779
 1608TIP3    H226384   1.263   6.731   8.555 -0.5105 -0.5443  1.4511
 1609TIP3   OH226385   4.504   1.911   0.492 -0.0981 -0.0298  0.0162
 1609TIP3    H126386   4.438   1.891   0.425 -0.2717  1.2585 -0.2200
 1609TIP3    H226387   4.521   1.827   0.534 -1.7533 -0.4359 -0.0397
 1610TIP3   OH226388   4.531   4.710   1.813  0.2427  0.0778 -0.3106
 1610TIP3    H126389   4.615   4.686   1.774  1.0491  0.3437  1.1832
 1610TIP3    H226390   4.525   4.804   1.799  0.3106  0.0983 -0.2019
 1611TIP3   OH226391   1.704   2.779   2.240 -0.5943 -0.2605  0.4033
 1611TIP3    H126392   1.762   2.762   2.314 -0.0066 -0.4821 -0.0893
 1611TIP3    H226393   1.620   2.741   2.265 -0.1764 -1.0559  0.6347
 1612TIP3   OH226394   4.593   2.415   7.929 -0.2066  0.0232 -0.1175
 1612TIP3    H126395   4.618   2.429   8.020 -2.4811  0.1920  0.5498
 1612TIP3    H226396   4.544   2.333   7.930  0.6289 -0.5163 -1.3944
 1613TIP3   OH226397   1.534   2.170   1.221  0.4960 -0.6305 -0.3076
 1613TIP3    H126398   1.542   2.119   1.141  0.6473  0.0635 -0.7454
 1613TIP3    H226399   1.492   2.111   1.284  0.5409 -1.2365 -0.8435
 1614TIP3   OH226400   1.948   5.232   0.092 -0.1011 -0.8745  0.7358
 1614TIP3    H126401   1.912   5.234   0.180  0.1859  1.5405  0.8417
 1614TIP3    H226402   1.885   5.281   0.039  1.0296 -0.0417  0.1328
 1615TIP3   OH226403   1.560   0.677   0.690 -0.0847 -0.1613 -0.4576
 1615TIP3    H126404   1.567   0.597   0.742 -0.4541  0.7276  1.0172
 1615TIP3    H226405   1.650   0.710   0.685 -0.0916 -0.0865 -0.1127
 1616TIP3   OH226406   6.751   3.378   3.765  0.2438 -0.0518  0.6755
 1616TIP3    H126407   6.726   3.311   3.829  2.3413 -0.4228  1.1815
 1616TIP3    H226408   6.772   3.454   3.818  1.2870 -0.1289  0.3885
 1617TIP3   OH226409   0.621   6.755   3.078 -0.2820  0.8311 -0.7016
 1617TIP3    H126410   0.613   6.667   3.115  0.6456  0.8940 -0.3115
 1617TIP3    H226411   0.626   6.812   3.155  1.4992  0.9827 -0.8873
 1618TIP3   OH226412   5.033   1.855   2.628 -0.2507 -0.5861  0.0472
 1618TIP3    H126413   5.104   1.919   2.622 -0.5382 -0.3816 -1.5401
 1618TIP3    H226414   4.962   1.893   2.576  0.1823 -2.9574 -2.4829
 1619TIP3   OH226415   5.614   0.566   1.591  0.4624  0.1192  0.6268
 1619TIP3    H126416   5.681   0.498   1.594 -0.8449 -1.3394 -0.7401
 1619TIP3    H226417   5.552   0.542   1.660  0.3926  0.3655  0.6505
 1620TIP3   OH226418   0.763   1.180   8.031  0.3789  0.1669 -0.0935
 1620TIP3    H126419   0.836   1.221   7.984  0.3535 -0.2936 -0.5403
 1620TIP3    H226420   0.693   1.245   8.025 -0.0008 -0.3347 -1.7087
 1621TIP3   OH226421   2.294   3.262   1.435  0.5047 -0.0341 -0.3619
 1621TIP3    H126422   2.218   3.306   1.399 -0.4398 -0.9119  0.5063
 1621TIP3    H226423   2.282   3.265   1.530  1.9804  0.5460 -0.1672
 1622TIP3   OH226424   5.178   4.841   1.023 -0.2824 -0.4324  0.3193
 1622TIP3    H126425   5.243   4.902   0.989  0.1930  0.6613  2.9046
 1622TIP3    H226426   5.226   4.760   1.037  0.1851 -0.0877  0.7831
 1623TIP3   OH226427   4.501   4.857   8.313  0.1099  0.6754 -0.1850
 1623TIP3    H126428   4.444   4.889   8.382 -0.3017  2.4061 -1.2750
 1623TIP3    H226429   4.565   4.801   8.358 -1.3814  0.0775  1.2738
 1624TIP3   OH226430   2.718   3.678   0.588  0.5327 -0.0740 -0.0598
 1624TIP3    H126431   2.637   3.643   0.551  0.4102  1.1884 -1.0745
 1624TIP3    H226432   2.782   3.669   0.517  1.0139 -0.1471  0.3854
 1625TIP3   OH226433   1.776   0.195   0.762  0.1889 -0.0858  0.4714
 1625TIP3    H126434   1.758   0.119   0.708  2.6629  0.1690 -0.8881
 1625TIP3    H226435   1.751   0.169   0.850  1.4541 -2.7201  0.1536
 1626TIP3   OH226436   1.989   0.261   0.467 -0.4157 -0.2478 -0.7348
 1626TIP3    H126437   2.000   0.285   0.375 -1.2716 -0.9218 -1.0222
 1626TIP3    H226438   1.978   0.345   0.512 -1.8044  0.0228 -1.5117
 1627TIP3   OH226439   5.724   0.619   1.952  0.2442 -0.7523  0.2824
 1627TIP3    H126440   5.668   0.695   1.967  1.7289  0.4876 -0.1927
 1627TIP3    H226441   5.677   0.566   1.889  0.3823  1.1955 -1.5726
 1628TIP3   OH226442   6.426   0.929   0.804 -0.0513 -0.2053  0.0832
 1628TIP3    H126443   6.508   0.937   0.852 -0.0573  1.1296 -0.1027
 1628TIP3    H226444   6.394   0.841   0.826 -0.2107  0.4447  2.7946
 1629TIP3   OH226445   3.580   1.447   7.358  0.4524  0.7637 -0.4670
 1629TIP3    H126446   3.675   1.432   7.364  0.4644  1.0537  0.0644
 1629TIP3    H226447   3.541   1.365   7.386  0.5337  1.2447  1.1443
 1630TIP3   OH226448   3.391   2.808   1.885 -0.5343 -0.8262  0.5988
 1630TIP3    H126449   3.355   2.719   1.886 -0.3401 -0.9443 -0.8272
 1630TIP3    H226450   3.316   2.863   1.861 -0.7137 -0.5591  1.7225
 1631TIP3   OH226451   5.160   5.330   0.680  0.2233  0.3009  0.5914
 1631TIP3    H126452   5.255   5.334   0.685  0.2670  0.6608 -0.2464
 1631TIP3    H226453   5.130   5.410   0.723  0.3358  0.5420  0.2265
 1632TIP3   OH226454   5.025   5.061   0.278  0.3524 -0.4587 -0.0593
 1632TIP3    H126455   4.989   5.026   0.359 -0.5545 -0.0383 -0.2660
 1632TIP3    H226456   5.119   5.068   0.294 -0.1211  2.7401  2.2069
 1633TIP3   OH226457   0.804   5.668   3.469  0.1575  0.3793  0.0113
 1633TIP3    H126458   0.790   5.693   3.560 -0.7473 -0.4189  0.1111
 1633TIP3    H226459   0.869   5.730   3.436 -0.0604  1.1377  0.9835
 1634TIP3   OH226460   3.475   4.278   0.462  0.3635  0.2940  0.3738
 1634TIP3    H126461   3.551   4.304   0.512  1.7919  0.9221 -1.9573
 1634TIP3    H226462   3.409   4.346   0.480  2.2402  2.8449 -1.5955
 1635TIP3   OH226463   6.043   0.004   1.951  0.0292 -0.0122  0.0512
 1635TIP3    H126464   5.967  -0.042   1.987  0.3102 -0.1654  0.4535
 1635TIP3    H226465   6.091   0.035   2.027  0.2297  0.3186 -0.2071
 1636TIP3   OH226466   2.492   3.291   8.480 -0.3826  0.7232  0.6420
 1636TIP3    H126467   2.508   3.248   8.564  2.9167 -0.9344 -0.6535
 1636TIP3    H226468   2.398   3.280   8.464 -0.8124 -0.1904  3.3960
 1637TIP3   OH226469   5.055   3.086   0.128 -0.7293  0.6864 -0.2688
 1637TIP3    H126470   5.015   3.128   0.205  0.2219  1.3960 -0.1342
 1637TIP3    H226471   5.124   3.031   0.165 -0.3269  0.9633 -0.6082
 1638TIP3   OH226472   6.139   3.890   7.965 -0.2639 -0.4331  0.0544
 1638TIP3    H126473   6.047   3.897   7.939  0.1696  0.7317 -1.3333
 1638TIP3    H226474   6.187   3.935   7.895  1.5391 -2.7197 -0.2845
 1639TIP3   OH226475   1.378   1.352   1.459 -0.0989  0.5410 -0.2085
 1639TIP3    H126476   1.389   1.300   1.380  0.4635  0.4933 -0.1045
 1639TIP3    H226477   1.445   1.319   1.520  0.3006  1.3950 -0.1565
 1640TIP3   OH226478   3.290   1.073   2.769  0.4021  0.3091 -0.5827
 1640TIP3    H126479   3.260   1.160   2.796 -1.4472 -0.7158  0.9574
 1640TIP3    H226480   3.210   1.020   2.768  1.9612 -2.7648  4.1556
 1641TIP3   OH226481   0.094   2.429   7.890  0.2894 -0.6199  0.3320
 1641TIP3    H126482   0.127   2.372   7.821  1.1153 -0.1379  0.3163
 1641TIP3    H226483   0.027   2.377   7.934  1.1035 -1.6574  0.3938
 1642TIP3   OH226484   2.521   0.906   2.652  0.0086 -0.1870  0.2755
 1642TIP3    H126485   2.443   0.945   2.614 -1.0100  0.7442  3.0584
 1642TIP3    H226486   2.491   0.825   2.691  0.8089 -0.6445 -0.0323
 1643TIP3   OH226487   3.988   0.721   0.605 -0.2596 -0.4093 -0.0100
 1643TIP3    H126488   4.067   0.678   0.638 -0.8189 -0.5610  1.1791
 1643TIP3    H226489   3.931   0.649   0.580  0.8508 -0.3450 -3.2501
 1644TIP3   OH226490   6.631   4.300   1.447  0.1291 -0.2811 -0.1771
 1644TIP3    H126491   6.698   4.362   1.418  1.5549 -1.4270  0.5169
 1644TIP3    H226492   6.662   4.270   1.533 -0.9735 -1.2717 -0.1006
 1645TIP3   OH226493   1.468   2.844   7.948 -0.0194 -0.2923 -0.2910
 1645TIP3    H126494   1.395   2.902   7.926 -0.3627  0.0469  1.6088
 1645TIP3    H226495   1.544   2.902   7.954  0.0231 -0.3433 -0.3401
 1646TIP3   OH226496   4.567   3.080   2.445 -0.3549  0.4401 -0.6706
 1646TIP3    H126497   4.613   3.110   2.523  1.4060 -1.2506 -0.9806
 1646TIP3    H226498   4.600   3.137   2.375 -1.2368  1.3450 -0.3809
 1647TIP3   OH226499   5.103   6.033   0.551  0.1455  0.7303 -0.4052
 1647TIP3    H126500   5.140   5.949   0.580 -1.8001  0.1508  0.6074
 1647TIP3    H226501   5.032   6.050   0.613  1.3029  3.8280  0.2139
 1648TIP3   OH226502   1.252   0.316   8.419  0.1593 -0.3289 -0.1171
 1648TIP3    H126503   1.236   0.290   8.328 -2.3028 -0.8255  0.4057
 1648TIP3    H226504   1.199   0.394   8.432  1.3331  0.3754  0.6089
 1649TIP3   OH226505   2.183   0.128   1.044  0.3908 -0.3903 -0.1317
 1649TIP3    H126506   2.130   0.172   0.977  2.1380  0.2580 -1.1489
 1649TIP3    H226507   2.254   0.189   1.063  0.0006 -0.5997  2.2977
 1650TIP3   OH226508   2.685   0.677   0.407 -0.5429  0.0528 -0.3569
 1650TIP3    H126509   2.762   0.677   0.350 -0.4718 -1.8658 -0.3294
 1650TIP3    H226510   2.632   0.604   0.375 -0.4757 -1.1397  2.0168
 1651TIP3   OH226511   3.517   4.187   0.901  0.3219  0.1769 -0.2819
 1651TIP3    H126512   3.436   4.163   0.946  0.7317 -1.0022 -0.1514
 1651TIP3    H226513   3.586   4.173   0.966  0.7317  0.2373 -0.6966
 1652TIP3   OH226514   4.311   4.734   2.380  0.1268  0.4140 -0.9102
 1652TIP3    H126515   4.233   4.749   2.433 -1.0317 -0.4676 -2.2899
 1652TIP3    H226516   4.379   4.788   2.420 -0.8460  0.2189  1.0920
 1653TIP3   OH226517   3.971   5.285   2.927  0.0646  0.8570 -0.0374
 1653TIP3    H126518   3.892   5.310   2.975 -0.7654 -2.2314  0.3838
 1653TIP3    H226519   4.022   5.235   2.990  0.8925  0.1784 -1.2166
 1654TIP3   OH226520   0.239   5.973   0.505  0.1829  0.3387 -1.0024
 1654TIP3    H126521   0.168   5.936   0.557  0.9606 -0.1929 -0.2825
 1654TIP3    H226522   0.196   6.019   0.434 -0.8665 -0.3587 -0.8339
 1655TIP3   OH226523   0.031   1.559   3.754  0.3029  0.3379  0.1036
 1655TIP3    H126524   0.100   1.615   3.718 -0.2656  0.6813 -0.4760
 1655TIP3    H226525  -0.040   1.620   3.776  0.1590 -0.0168  0.6462
 1656TIP3   OH226526   2.440   4.314   0.432  0.0371 -0.2670  0.9211
 1656TIP3    H126527   2.429   4.409   0.436  0.0893 -0.1650 -0.7130
 1656TIP3    H226528   2.350   4.280   0.432 -0.0792 -0.0543 -0.9927
 1657TIP3   OH226529   6.701   6.274   2.279 -0.1940 -0.4014 -0.4111
 1657TIP3    H126530   6.621   6.326   2.281 -0.6694 -1.1293  0.7932
 1657TIP3    H226531   6.759   6.321   2.219 -1.2765  0.4889 -0.7964
 1658TIP3   OH226532   4.764   6.304   0.559 -0.3542 -0.0738  0.2479
 1658TIP3    H126533   4.778   6.322   0.652 -2.8122  1.0037  0.4918
 1658TIP3    H226534   4.692   6.362   0.534 -1.0224 -1.6696 -1.8377
 1659TIP3   OH226535   4.824   6.342   8.224  0.1423  0.4414  0.0262
 1659TIP3    H126536   4.826   6.429   8.183  0.8442  0.3417 -0.1680
 1659TIP3    H226537   4.912   6.307   8.210 -0.8600 -1.4238 -2.2860
 1660TIP3   OH226538   4.602   4.855   1.448  0.0374 -0.2246  0.1667
 1660TIP3    H126539   4.689   4.861   1.409 -0.7332  0.6300 -1.5767
 1660TIP3    H226540   4.597   4.931   1.506  0.4861 -0.3337  0.3526
 1661TIP3   OH226541   3.237   6.026   1.171  0.2033  0.3307  0.8476
 1661TIP3    H126542   3.240   5.986   1.084  0.3444  2.3469 -0.1230
 1661TIP3    H226543   3.299   6.099   1.166  0.2345  0.4720  2.6625
 1662TIP3   OH226544   5.609   3.408   2.860 -0.0869  0.8055 -0.4564
 1662TIP3    H126545   5.584   3.461   2.784 -0.4243  1.3025 -0.0078
 1662TIP3    H226546   5.529   3.361   2.883 -0.2535  1.3804  0.1657
 1663TIP3   OH226547   4.016   1.666   8.183 -0.2263 -0.3387 -0.3581
 1663TIP3    H126548   4.064   1.734   8.135  2.0688 -0.6341  1.3395
 1663TIP3    H226549   3.970   1.714   8.252  1.5998 -0.4283  1.0017
 1664TIP3   OH226550   3.121   1.240   0.561  0.3032 -0.6516 -0.4372
 1664TIP3    H126551   3.032   1.228   0.527 -0.2842  2.1547 -0.1554
 1664TIP3    H226552   3.107   1.281   0.647  1.8650  0.2880 -0.6041
 1665TIP3   OH226553   5.122   4.246   1.665  0.5403 -0.1715  0.2286
 1665TIP3    H126554   5.063   4.322   1.661  1.1446  0.3310  0.6582
 1665TIP3    H226555   5.209   4.284   1.660  0.8378 -0.9483 -0.9280
 1666TIP3   OH226556   4.701   0.098   8.016 -0.0802  0.1568 -0.1539
 1666TIP3    H126557   4.714   0.193   8.021 -0.1340  0.1520  0.1126
 1666TIP3    H226558   4.618   0.083   8.061  0.4545 -0.1310  0.7752
 1667TIP3   OH226559   5.775   4.485   1.063 -0.1180  0.1651 -0.3773
 1667TIP3    H126560   5.833   4.466   0.990  0.4295  1.8079 -0.3969
 1667TIP3    H226561   5.689   4.501   1.023  0.1383  0.8746 -0.6496
 1668TIP3   OH226562   4.386   4.926   0.512  0.5682  0.3553 -0.4262
 1668TIP3    H126563   4.329   4.949   0.585 -1.1313 -0.1352 -1.5387
 1668TIP3    H226564   4.407   5.009   0.470  0.2005  0.4870 -0.3511
 1669TIP3   OH226565   0.902   0.269   2.571  0.2193  0.1977 -0.0557
 1669TIP3    H126566   0.909   0.209   2.497 -2.7514 -0.9539  0.4511
 1669TIP3    H226567   0.869   0.350   2.535  0.0050  0.0659 -0.1520
 1670TIP3   OH226568   2.371   2.078   1.466  0.1681 -0.3105  0.3607
 1670TIP3    H126569   2.415   2.121   1.539 -0.2242  0.4384  0.1644
 1670TIP3    H226570   2.296   2.034   1.506 -0.0525  0.1075  0.4129
 1671TIP3   OH226571   3.399   5.533   1.463  0.4788 -0.3643 -0.2474
 1671TIP3    H126572   3.484   5.561   1.495  1.0687 -0.5706 -1.6022
 1671TIP3    H226573   3.386   5.580   1.381  0.3920 -2.0938 -1.2913
 1672TIP3   OH226574   0.391   0.677   0.110  0.1864  0.2738 -0.2246
 1672TIP3    H126575   0.340   0.707   0.035  2.3101  0.4832 -1.6736
 1672TIP3    H226576   0.381   0.581   0.109 -1.2848  0.3908  0.4089
 1673TIP3   OH226577   4.629   3.495   3.805  0.6751  0.2477 -0.1492
 1673TIP3    H126578   4.668   3.433   3.742 -2.9131 -0.9404 -1.4533
 1673TIP3    H226579   4.623   3.577   3.756  1.2436  0.3617 -0.0348
 1674TIP3   OH226580   2.646   5.926   0.250 -0.0096  0.2713 -0.8094
 1674TIP3    H126581   2.586   5.995   0.225  1.6624  2.0052 -0.3275
 1674TIP3    H226582   2.731   5.953   0.214  0.9576 -0.8714  0.4651
 1675TIP3   OH226583   3.829   2.665   0.415  0.5595  0.3526  0.0626
 1675TIP3    H126584   3.751   2.693   0.463  1.1210 -3.6534  4.0601
 1675TIP3    H226585   3.795   2.612   0.343 -0.3463  1.4679 -0.3596
 1676TIP3   OH226586   2.401   6.820   1.192  0.1350 -0.4248 -0.1272
 1676TIP3    H126587   2.334   6.885   1.170 -0.7016 -1.1437  0.2456
 1676TIP3    H226588   2.381   6.745   1.138  0.6724 -0.6350 -0.0416
 1677TIP3   OH226589   2.110   1.320   0.044  0.0389 -0.2460  0.4056
 1677TIP3    H126590   2.039   1.384   0.052 -0.3204 -0.4426 -0.9227
 1677TIP3    H226591   2.077   1.256  -0.019  1.6146 -0.0230 -0.6905
 1678TIP3   OH226592   5.744   0.252   2.675  0.1319 -0.0427 -0.2895
 1678TIP3    H126593   5.819   0.296   2.713  0.0789  0.4355 -0.7284
 1678TIP3    H226594   5.687   0.233   2.749 -0.2843  1.4838 -0.1917
 1679TIP3   OH226595   4.672   1.575   1.716 -0.3749 -0.1977 -0.6403
 1679TIP3    H126596   4.595   1.518   1.715 -1.5729  1.3585 -1.2639
 1679TIP3    H226597   4.638   1.661   1.693  1.5894  0.5212 -1.0296
 1680TIP3   OH226598   3.534   1.538   2.411  0.0443  0.1812 -0.2341
 1680TIP3    H126599   3.604   1.572   2.355 -1.7540  3.1564 -0.9370
 1680TIP3    H226600   3.543   1.588   2.493  0.0533 -1.0358  0.5300
 1681TIP3   OH226601   1.246   6.626   0.963  0.2808  0.3202 -0.8990
 1681TIP3    H126602   1.245   6.578   1.046  0.2775  0.0484 -1.0535
 1681TIP3    H226603   1.331   6.605   0.925  0.3363  0.5518 -0.9023
 1682TIP3   OH226604   0.534   0.456   8.414 -0.6678  0.9867 -0.0112
 1682TIP3    H126605   0.537   0.483   8.322  0.2216  0.1161 -0.2494
 1682TIP3    H226606   0.623   0.426   8.433 -1.4840 -1.3687  0.3404
 1683TIP3   OH226607   4.066   0.193   0.290 -0.5124 -0.0705 -0.3551
 1683TIP3    H126608   4.016   0.169   0.211 -0.6485 -0.5195 -0.1396
 1683TIP3    H226609   4.149   0.146   0.281  0.0147  0.9262 -0.8652
 1684TIP3   OH226610   6.254   1.865   7.355 -0.1099  0.2775 -0.1970
 1684TIP3    H126611   6.212   1.941   7.314  0.7152  0.9588  0.1850
 1684TIP3    H226612   6.198   1.845   7.430 -1.2074 -0.5085 -1.1800
 1685TIP3   OH226613   1.790   1.232   0.953  0.5008 -0.3641  0.1133
 1685TIP3    H126614   1.851   1.305   0.965 -0.3789  0.5187 -0.6181
 1685TIP3    H226615   1.718   1.252   1.013  1.2524 -1.8208  1.5844
 1686TIP3   OH226616   4.034   0.331   1.678 -0.6387 -0.3657  0.1071
 1686TIP3    H126617   4.098   0.267   1.647  1.1619  0.5240  1.7976
 1686TIP3    H226618   4.007   0.378   1.599  1.3468 -0.3013 -0.5693
 1687TIP3   OH226619   3.757   0.890   1.851 -0.0561  0.2581  0.6409
 1687TIP3    H126620   3.783   0.890   1.759 -0.6850 -0.5102  0.4575
 1687TIP3    H226621   3.824   0.838   1.896  0.2651  0.6560  0.6297
 1688TIP3   OH226622   1.564   0.603   1.495  0.1889 -0.8554 -0.3124
 1688TIP3    H126623   1.516   0.641   1.421  2.5257 -0.8007 -1.9159
 1688TIP3    H226624   1.501   0.600   1.566 -1.7014  0.6600 -1.8271
 1689TIP3   OH226625   5.803   0.713   0.391  0.2439 -0.0039 -0.4725
 1689TIP3    H126626   5.791   0.730   0.297  0.2674 -0.4402 -0.5567
 1689TIP3    H226627   5.714   0.701   0.424  0.2881 -0.8733 -0.6412
 1690TIP3   OH226628   2.393   4.936   8.587 -0.0376 -0.0574 -0.6037
 1690TIP3    H126629   2.309   4.977   8.608 -0.1701 -1.1050  1.1297
 1690TIP3    H226630   2.454   4.973   8.652  0.3898 -0.7670 -0.5982
 1691TIP3   OH226631   0.818   5.111   2.355 -0.1310 -0.2280  0.0869
 1691TIP3    H126632   0.892   5.070   2.310  0.1783 -0.4814  0.8243
 1691TIP3    H226633   0.854   5.146   2.436  0.0662  3.3274 -1.3596
 1692TIP3   OH226634   3.093   1.572   1.318 -0.5556  0.1388  0.0863
 1692TIP3    H126635   3.046   1.555   1.400  0.1161 -2.1187  0.0710
 1692TIP3    H226636   3.185   1.558   1.339 -0.2086  1.0847 -0.7084
 1693TIP3   OH226637   1.052   3.749   0.708 -0.6101  0.2265 -0.2077
 1693TIP3    H126638   0.972   3.801   0.705  0.3223  1.7304  0.0393
 1693TIP3    H226639   1.072   3.728   0.617 -0.7229  0.7314 -0.3468
 1694TIP3   OH226640   5.783   4.349   3.019 -0.6112  0.1038 -0.0963
 1694TIP3    H126641   5.815   4.401   2.945  0.9479 -2.0801 -1.0614
 1694TIP3    H226642   5.858   4.341   3.078 -0.6370 -1.3793 -0.2128
 1695TIP3   OH226643   4.350   3.879   2.948 -0.2165  0.3618  0.3619
 1695TIP3    H126644   4.376   3.815   3.013  0.8832 -0.4581 -0.8394
 1695TIP3    H226645   4.268   3.846   2.912  0.0860 -0.1136  0.1034
 1696TIP3   OH226646   2.775   5.116   0.401  0.2453 -0.6918 -0.4939
 1696TIP3    H126647   2.706   5.162   0.353 -0.4060 -1.4621 -0.3191
 1696TIP3    H226648   2.830   5.077   0.333 -0.2265 -1.1303 -0.6298
 1697TIP3   OH226649   1.465   3.144   1.851 -0.7786 -0.3730  0.3075
 1697TIP3    H126650   1.521   3.091   1.908 -1.3528 -1.4474 -0.1041
 1697TIP3    H226651   1.391   3.088   1.831 -0.4846 -0.1172 -1.7003
 1698TIP3   OH226652   5.460   4.614   2.876  0.0178 -0.3659  0.2952
 1698TIP3    H126653   5.542   4.663   2.870  1.0326 -2.0063  0.3140
 1698TIP3    H226654   5.414   4.655   2.949  0.2730  1.3253 -0.4407
 1699TIP3   OH226655   1.883   4.025   0.101 -0.0843  0.2847  0.3849
 1699TIP3    H126656   1.815   4.092   0.098  0.2170  0.5728 -0.1551
 1699TIP3    H226657   1.859   3.964   0.031  1.1048  1.2718 -0.9401
 1700TIP3   OH226658   3.272   1.260   7.614 -0.7340 -0.4241  0.2212
 1700TIP3    H126659   3.196   1.291   7.565  0.0822 -1.6950 -1.9997
 1700TIP3    H226660   3.346   1.274   7.554  0.8460  0.8448  2.3252
 1701TIP3   OH226661   3.649   2.844   2.499 -0.0282 -0.6903 -0.2428
 1701TIP3    H126662   3.634   2.750   2.510  0.2808 -0.5334  1.9082
 1701TIP3    H226663   3.635   2.881   2.586 -2.2220  1.5873 -1.4206
 1702TIP3   OH226664   3.073   2.145   1.063  0.7654  0.4473 -0.4680
 1702TIP3    H126665   3.029   2.103   1.136  2.1241 -0.2348  0.0032
 1702TIP3    H226666   3.003   2.176   1.006 -0.3466  1.8062  1.5585
 1703TIP3   OH226667   2.633   4.484   8.606 -0.1078 -0.0536 -0.1574
 1703TIP3    H126668   2.582   4.420   8.656  0.6297  0.0073  0.6919
 1703TIP3    H226669   2.703   4.512   8.666 -0.3194  1.4394 -0.5733
 1704TIP3   OH226670   3.563   5.428   2.711  0.7915 -0.8230 -0.4038
 1704TIP3    H126671   3.551   5.421   2.616  1.3761 -1.1287 -0.4653
 1704TIP3    H226672   3.634   5.366   2.730 -0.3979 -1.9733  0.4706
 1705TIP3   OH226673   2.999   1.501   1.579  0.0088 -0.1271 -0.4447
 1705TIP3    H126674   2.909   1.502   1.547  0.2407 -0.6337 -1.1306
 1705TIP3    H226675   3.023   1.408   1.579  0.4483 -0.0188 -0.0238
 1706TIP3   OH226676   3.163   5.162   1.722 -0.3101  0.1867 -0.0841
 1706TIP3    H126677   3.071   5.174   1.744 -0.3634 -0.1839 -0.1077
 1706TIP3    H226678   3.208   5.229   1.774 -0.5774  0.2708  0.0413
 1707TIP3   OH226679   2.309   4.759   8.329  0.6731  0.0976 -0.2350
 1707TIP3    H126680   2.357   4.839   8.351 -0.5149  0.9965 -0.7358
 1707TIP3    H226681   2.260   4.783   8.250 -0.6466 -0.7261  0.3040
 1708TIP3   OH226682   6.809   3.403   0.546 -0.2337  0.3082  0.0142
 1708TIP3    H126683   6.782   3.339   0.480  0.3476  2.0005 -1.9647
 1708TIP3    H226684   6.754   3.383   0.622 -2.0852 -0.7355 -1.4946
 1709TIP3   OH226685   5.696   6.031   3.114  0.4893  0.4021 -0.4048
 1709TIP3    H126686   5.721   6.104   3.171 -0.7640  1.4488 -1.1332
 1709TIP3    H226687   5.621   6.065   3.065  0.5805 -1.0177 -1.5565
 1710TIP3   OH226688   4.607   6.204   8.326 -0.0407 -0.2427  0.5717
 1710TIP3    H126689   4.689   6.197   8.277  0.2200 -0.8551  1.0746
 1710TIP3    H226690   4.539   6.177   8.263  0.3066 -1.1860  0.5751
 1711TIP3   OH226691   6.623   2.295   1.678 -0.6251  0.1881 -0.1488
 1711TIP3    H126692   6.535   2.313   1.645 -0.7265  0.8219  0.4582
 1711TIP3    H226693   6.670   2.378   1.669 -1.5165  1.3600  4.0021
 1712TIP3   OH226694   4.649   1.106   7.683 -0.3659  0.0397  0.6437
 1712TIP3    H126695   4.705   1.032   7.702 -2.2127 -1.2902  1.2194
 1712TIP3    H226696   4.572   1.068   7.640 -1.2187  1.6507  0.6442
 1713TIP3   OH226697   1.336   5.161   3.288 -0.4165  0.6269  0.1119
 1713TIP3    H126698   1.288   5.209   3.220  2.4368 -0.9442 -3.3366
 1713TIP3    H226699   1.421   5.204   3.293 -0.1854  0.0356  1.9775
 1714TIP3   OH226700   3.905   3.007   2.759  0.8846 -0.3088 -0.0875
 1714TIP3    H126701   3.849   2.929   2.748  0.8491 -0.1759 -0.9332
 1714TIP3    H226702   3.889   3.035   2.849 -0.7875 -0.0100 -0.4376
 1715TIP3   OH226703   1.774   6.633   1.972  0.3486 -0.0241  0.2872
 1715TIP3    H126704   1.805   6.556   2.020  0.8065  0.5815  0.9959
 1715TIP3    H226705   1.840   6.648   1.905  1.4269  1.0076  1.5194
 1716TIP3   OH226706   6.163   5.663   2.432 -0.3998 -0.3200  0.1132
 1716TIP3    H126707   6.228   5.665   2.362 -1.0958  2.1657 -0.5869
 1716TIP3    H226708   6.211   5.631   2.508  0.7627 -1.6432 -1.1151
 1717TIP3   OH226709   3.237   3.507   0.357 -0.7450 -0.0325 -0.5761
 1717TIP3    H126710   3.188   3.512   0.275  0.4278 -1.6416 -1.4159
 1717TIP3    H226711   3.308   3.570   0.347 -0.7197 -0.0821 -0.7029
 1718TIP3   OH226712   1.105   1.932   0.664  0.3375  0.0637  0.1358
 1718TIP3    H126713   1.073   1.932   0.754 -0.2241 -1.5878 -0.0272
 1718TIP3    H226714   1.091   2.022   0.634  0.8810  0.7510  1.7809
 1719TIP3   OH226715   2.852   3.938   1.986 -0.1095 -0.4023  0.0212
 1719TIP3    H126716   2.907   3.860   1.974  4.0046  1.9798  1.5493
 1719TIP3    H226717   2.848   3.978   1.899 -0.3255 -1.1240 -0.3093
 1720TIP3   OH226718   0.311   6.561   2.947  0.1745 -0.2689  0.1563
 1720TIP3    H126719   0.298   6.653   2.968 -0.8226 -0.3522 -0.0367
 1720TIP3    H226720   0.299   6.515   3.030  1.4193 -0.1783  0.4058
 1721TIP3   OH226721   2.102   1.089   0.479  0.0517  0.0300 -0.6404
 1721TIP3    H126722   2.064   1.059   0.562  1.1447 -1.8520 -0.7472
 1721TIP3    H226723   2.103   1.184   0.486 -0.1875 -0.0685  1.3852
 1722TIP3   OH226724   2.179   0.203   2.290  0.2106 -0.2696  0.2794
 1722TIP3    H126725   2.236   0.135   2.325  1.6330  1.8244  2.3274
 1722TIP3    H226726   2.112   0.215   2.357  0.1257  0.5018  0.0719
 1723TIP3   OH226727   2.331   0.903   1.595  0.2454  0.0337  0.1767
 1723TIP3    H126728   2.271   0.869   1.662 -0.2997 -1.1744 -0.8847
 1723TIP3    H226729   2.377   0.826   1.563  3.4451  1.0522  1.8945
 1724TIP3   OH226730   0.259   2.127   2.928  0.0954  0.2981  0.3187
 1724TIP3    H126731   0.184   2.169   2.886  0.2014  1.5788  1.3595
 1724TIP3    H226732   0.253   2.153   3.020  1.7786  0.3593  0.4399
 1725TIP3   OH226733   2.553   0.232   0.761  0.4736  0.0193  0.1349
 1725TIP3    H126734   2.458   0.218   0.755 -0.1787  2.4364  2.9317
 1725TIP3    H226735   2.573   0.292   0.689  0.8346 -3.5574 -3.1065
 1726TIP3   OH226736   5.984   6.129   3.255  0.0837  0.1922  0.2640
 1726TIP3    H126737   5.895   6.164   3.244 -0.0934 -0.4390 -0.3408
 1726TIP3    H226738   5.992   6.114   3.349  0.0388  1.5263  0.5011
 1727TIP3   OH226739   1.960   3.120   0.733  0.0237  0.2756  0.1247
 1727TIP3    H126740   1.926   3.030   0.738  1.0913 -0.4516 -2.9117
 1727TIP3    H226741   2.026   3.124   0.802 -0.5148 -1.0490  0.7612
 1728TIP3   OH226742   0.787   3.347   0.429 -1.2245  0.0247  0.3979
 1728TIP3    H126743   0.732   3.298   0.490 -1.1566  0.3145  0.6953
 1728TIP3    H226744   0.833   3.410   0.484  1.1005 -1.6460  0.5312
 1729TIP3   OH226745   2.996   4.785   0.128  0.5993 -0.0719  0.3762
 1729TIP3    H126746   2.916   4.829   0.156 -0.3391 -0.7189 -1.1574
 1729TIP3    H226747   3.031   4.841   0.059  0.8447 -0.3820  0.2471
 1730TIP3   OH226748   6.267   2.072   0.516  0.5618 -0.1219 -0.2174
 1730TIP3    H126749   6.284   2.068   0.610 -0.7579  0.0948  0.0520
 1730TIP3    H226750   6.257   2.165   0.497  0.9428 -0.1550 -0.6084
 1731TIP3   OH226751   5.347   3.358   1.940 -0.1385  0.2959 -0.7667
 1731TIP3    H126752   5.305   3.444   1.934 -0.4904  0.1330 -0.7033
 1731TIP3    H226753   5.299   3.304   1.877  0.3782  0.2643 -1.1319
 1732TIP3   OH226754   5.029   3.762   2.704 -0.8421  0.5266 -0.0221
 1732TIP3    H126755   4.998   3.780   2.793 -0.3788  0.0553  0.2399
 1732TIP3    H226756   5.124   3.765   2.711 -0.8010  1.5582 -0.7360
 1733TIP3   OH226757   1.141   5.873   7.614 -0.4489 -0.0466  0.4808
 1733TIP3    H126758   1.172   5.808   7.677 -0.8719 -0.3542  0.3740
 1733TIP3    H226759   1.089   5.934   7.667  0.0240  0.2620  0.5967
 1734TIP3   OH226760   5.517   3.186   3.907 -0.0909  0.4359 -0.5646
 1734TIP3    H126761   5.547   3.275   3.890 -1.5224  0.9574 -0.4502
 1734TIP3    H226762   5.437   3.177   3.856 -0.3566 -0.5480 -0.0064
 1735TIP3   OH226763   3.825   1.479   1.061 -0.1773  0.0314 -0.2871
 1735TIP3    H126764   3.893   1.534   1.023 -0.3106  0.1243 -0.3889
 1735TIP3    H226765   3.812   1.409   0.997  0.7237 -0.7075  0.2951
 1736TIP3   OH226766   0.663   3.507   2.848  0.6817 -0.5371  0.6014
 1736TIP3    H126767   0.682   3.421   2.884  0.5803 -0.0791  1.8122
 1736TIP3    H226768   0.603   3.547   2.911 -0.3448 -0.0753 -0.6150
 1737TIP3   OH226769   0.305   4.755   1.948 -0.4505 -0.1093  0.2665
 1737TIP3    H126770   0.319   4.849   1.948 -0.8643 -0.0324  1.3001
 1737TIP3    H226771   0.393   4.717   1.955 -0.3814  0.2496  1.5831
 1738TIP3   OH226772   4.297   4.943   3.067 -0.1059  0.4960  0.3241
 1738TIP3    H126773   4.273   4.933   3.159 -0.5466  0.5766  0.2176
 1738TIP3    H226774   4.338   5.030   3.063  1.4366 -0.1719  0.7595
 1739TIP3   OH226775   4.340   0.357   2.014 -0.3058 -0.4726 -0.0902
 1739TIP3    H126776   4.416   0.324   1.967  0.4933  0.4647  0.5079
 1739TIP3    H226777   4.273   0.290   2.001  0.5796 -1.2671 -0.7108
 1740TIP3   OH226778   2.683   4.989   1.537 -0.2074 -0.7759 -0.2338
 1740TIP3    H126779   2.719   4.932   1.604  1.0000 -1.2583 -1.2651
 1740TIP3    H226780   2.607   5.031   1.580  0.1658 -1.5103  1.2138
 1741TIP3   OH226781   4.902   0.653   8.052  0.1130  0.0302  0.1985
 1741TIP3    H126782   4.945   0.738   8.041  3.2170 -1.3493  0.5995
 1741TIP3    H226783   4.892   0.619   7.963 -0.0821  0.3156  0.1109
 1742TIP3   OH226784   0.735   4.470   1.987  0.1270 -0.1285  0.6346
 1742TIP3    H126785   0.694   4.405   1.930  0.6258  0.2311 -0.1463
 1742TIP3    H226786   0.810   4.424   2.025  0.6794  0.0727 -0.1792
 1743TIP3   OH226787   2.209   1.659   0.544 -0.2274 -0.0051  0.3046
 1743TIP3    H126788   2.154   1.729   0.579 -0.3967  0.9595 -1.7630
 1743TIP3    H226789   2.295   1.700   0.532 -0.2027 -0.2700 -0.4748
 1744TIP3   OH226790   4.466   6.232   3.059 -0.3369 -0.2441  0.2408
 1744TIP3    H126791   4.447   6.279   2.978 -0.7696 -0.2224  0.3519
 1744TIP3    H226792   4.392   6.252   3.116  1.4957  2.4814  1.8762
 1745TIP3   OH226793   6.724   4.028   7.980 -0.0726  0.0849  0.3249
 1745TIP3    H126794   6.811   3.998   8.006 -0.0847 -0.3522 -0.1150
 1745TIP3    H226795   6.735   4.122   7.966  0.7825 -0.2410 -1.4629
 1746TIP3   OH226796   4.021   3.112   3.052 -0.1085 -0.3716 -0.2316
 1746TIP3    H126797   4.038   3.151   3.138  0.5006 -0.0781 -0.4800
 1746TIP3    H226798   3.987   3.025   3.072 -0.9718  0.0673  0.3227
 1747TIP3   OH226799   4.084   2.012   1.554  0.0447 -0.0241  0.0249
 1747TIP3    H126800   4.174   2.010   1.520 -0.2259 -0.1615 -0.6972
 1747TIP3    H226801   4.031   1.974   1.484 -0.4706 -0.7709  0.8001
 1748TIP3   OH226802   0.602   3.547   1.564 -0.1857 -0.4912 -0.4361
 1748TIP3    H126803   0.579   3.617   1.503  1.9297  0.7198  0.0551
 1748TIP3    H226804   0.568   3.576   1.648 -0.7086 -0.8408 -0.5232
 1749TIP3   OH226805   1.356   1.646   0.035 -0.5516 -0.2151 -0.4385
 1749TIP3    H126806   1.362   1.575  -0.029  0.9157 -0.1974 -0.3652
 1749TIP3    H226807   1.266   1.678   0.027 -0.8142 -1.1367 -1.4860
 1750TIP3   OH226808   1.696   2.885   3.361 -0.7126  0.1025  0.4505
 1750TIP3    H126809   1.747   2.806   3.371 -0.6519  0.2435  1.2703
 1750TIP3    H226810   1.669   2.909   3.450  1.2253  2.2997  0.5581
 1751TIP3   OH226811   6.565   6.513   2.840 -0.1693 -0.0386 -0.6936
 1751TIP3    H126812   6.565   6.592   2.786 -1.3436  0.6940  0.3318
 1751TIP3    H226813   6.653   6.508   2.877 -0.7255  2.0858  1.0510
 1752TIP3   OH226814   6.461   0.504   8.101  0.0853 -0.1756 -0.5202
 1752TIP3    H126815   6.440   0.560   8.026 -0.3122  0.4442  0.0391
 1752TIP3    H226816   6.451   0.415   8.068  2.2423  0.0101 -1.8768
 1753TIP3   OH226817   4.171   3.442   3.058  0.9662 -0.1251  0.6888
 1753TIP3    H126818   4.164   3.361   3.109 -1.0739  0.2223  1.0404
 1753TIP3    H226819   4.101   3.435   2.993  0.9552  1.2302  0.5315
 1754TIP3   OH226820   2.923   2.040   1.258 -0.2057 -0.4348  0.4771
 1754TIP3    H126821   2.920   1.956   1.304 -0.0398 -0.1535  1.0092
 1754TIP3    H226822   2.921   2.105   1.327 -0.8286  0.0160  0.0479
 1755TIP3   OH226823   3.932   1.089   0.124 -0.1833 -0.0963  0.0437
 1755TIP3    H126824   4.021   1.110   0.096 -0.0615 -0.8826 -0.1886
 1755TIP3    H226825   3.894   1.173   0.149  0.7872  0.1786  0.6429
 1756TIP3   OH226826   5.907   2.199   2.820 -0.2767  0.4383 -0.3420
 1756TIP3    H126827   5.829   2.179   2.872  0.0875 -1.9798 -0.6128
 1756TIP3    H226828   5.907   2.134   2.750  3.1657 -1.2898  0.9934
 1757TIP3   OH226829   1.173   5.702   2.817 -0.3130  0.3780  0.0541
 1757TIP3    H126830   1.119   5.720   2.740  1.7579  1.0387 -1.3358
 1757TIP3    H226831   1.226   5.781   2.829  0.4418 -0.2742  1.2625
 1758TIP3   OH226832   3.626   5.628   2.322 -0.1746 -0.3602  0.1379
 1758TIP3    H126833   3.561   5.565   2.355 -1.0983  0.5837  0.1511
 1758TIP3    H226834   3.592   5.655   2.236  0.4739 -0.2430 -0.0901
 1759TIP3   OH226835   3.877   2.225   1.940  0.0857 -0.1611  0.0893
 1759TIP3    H126836   3.949   2.183   1.987 -0.3249  1.3079  2.1761
 1759TIP3    H226837   3.905   2.226   1.849  1.8057 -1.3980  0.5539
 1760TIP3   OH226838   5.108   5.409   2.616 -0.0978 -0.4069 -0.0790
 1760TIP3    H126839   5.091   5.342   2.682 -0.6954 -0.7693 -0.5944
 1760TIP3    H226840   5.073   5.490   2.654  2.0858 -0.0094  1.2585
 1761TIP3   OH226841   3.154   2.381   2.580 -0.0880 -0.0297  0.0442
 1761TIP3    H126842   3.161   2.364   2.674  0.7700  2.6276  0.5434
 1761TIP3    H226843   3.068   2.423   2.570  0.5427  1.2996 -0.0228
 1762TIP3   OH226844   2.747   4.647   0.452  0.3105 -0.0426 -0.0849
 1762TIP3    H126845   2.723   4.722   0.506  1.4902  1.2229 -1.2404
 1762TIP3    H226846   2.696   4.657   0.372  1.1021  0.0217 -0.5923
 1763TIP3   OH226847   2.205   2.586   1.749  0.1763  0.2195  0.0148
 1763TIP3    H126848   2.200   2.652   1.680 -0.0361  0.8826  0.6530
 1763TIP3    H226849   2.126   2.599   1.801 -1.0054 -1.9689 -1.0750
 1764TIP3   OH226850   1.432   2.535   0.495 -0.0057  0.5454 -0.3815
 1764TIP3    H126851   1.497   2.540   0.565 -0.0629  0.8999 -0.3501
 1764TIP3    H226852   1.449   2.452   0.451 -2.1276 -1.4714  2.2073
 1765TIP3   OH226853   4.027   0.254   8.092  0.0155  0.4223 -0.0674
 1765TIP3    H126854   3.976   0.178   8.118  1.8419 -0.8588 -0.0363
 1765TIP3    H226855   3.995   0.277   8.005 -2.3427  1.3087  0.9327
 1766TIP3   OH226856   0.434   1.804   1.951 -0.3121  0.3975  0.7248
 1766TIP3    H126857   0.407   1.844   1.868  0.0608  0.3088  0.5584
 1766TIP3    H226858   0.529   1.799   1.945 -0.4202 -2.2603 -0.0964
 1767TIP3   OH226859   1.241   5.205   2.859 -0.1908 -0.1879  0.2310
 1767TIP3    H126860   1.245   5.300   2.852 -1.2653 -0.1005  0.6345
 1767TIP3    H226861   1.148   5.184   2.850 -0.0376 -1.1413  0.7764
 1768TIP3   OH226862   4.907   1.994   0.887  0.2137  0.8351 -0.3722
 1768TIP3    H126863   4.836   2.047   0.852 -0.4536 -0.1748 -0.6090
 1768TIP3    H226864   4.904   1.913   0.835  0.5471  0.1550  0.6402
 1769TIP3   OH226865   0.141   0.579   1.538  0.7421 -0.4865 -0.3080
 1769TIP3    H126866   0.216   0.607   1.590  1.9315  1.4439 -2.8483
 1769TIP3    H226867   0.121   0.655   1.482 -0.1159 -2.5412 -3.0005
 1770TIP3   OH226868   1.233   0.795   1.781  0.2697  0.2867 -0.2116
 1770TIP3    H126869   1.186   0.833   1.707 -2.5404  0.8918  1.7208
 1770TIP3    H226870   1.302   0.859   1.801 -0.0223  0.9388 -1.2394
 1771TIP3   OH226871   3.868   0.145   8.414 -0.1499  0.3365 -0.3966
 1771TIP3    H126872   3.891   0.102   8.332  1.8096  1.3364 -0.4235
 1771TIP3    H226873   3.856   0.237   8.392  0.3237  0.6055  0.4165
 1772TIP3   OH226874   2.040   3.615   1.666  0.2320  0.3374 -0.2045
 1772TIP3    H126875   1.957   3.625   1.712 -0.2042  1.3701 -1.1631
 1772TIP3    H226876   2.100   3.673   1.712  0.1682  0.3307 -0.1119
 1773TIP3   OH226877   4.267   5.269   0.301  0.5322 -0.2009 -0.0046
 1773TIP3    H126878   4.356   5.267   0.336  0.6484  1.2914 -0.1349
 1773TIP3    H226879   4.213   5.238   0.373  0.9980  0.6024  0.7261
 1774TIP3   OH226880   4.366   1.999   8.646 -0.0414 -0.7339  0.0909
 1774TIP3    H126881   4.413   2.058   8.587 -2.1039  0.7744 -0.1455
 1774TIP3    H226882   4.416   2.001   8.727  0.6716  0.2804 -0.3567
 1775TIP3   OH226883   6.607   3.678   8.176  0.6096 -0.2823  0.0644
 1775TIP3    H126884   6.700   3.675   8.152  1.2150 -0.5893  2.2796
 1775TIP3    H226885   6.603   3.639   8.263 -1.2378  2.0003  1.1132
 1776TIP3   OH226886   1.170   3.997   3.009 -0.1399 -0.0775  0.1536
 1776TIP3    H126887   1.088   3.957   3.039 -0.3373  0.4022  0.2689
 1776TIP3    H226888   1.198   3.942   2.936 -1.2685  0.5269 -0.7603
 1777TIP3   OH226889   1.414   0.106   3.574 -0.0778  0.5289  0.8286
 1777TIP3    H126890   1.423   0.152   3.657  1.1401  1.1278  0.3803
 1777TIP3    H226891   1.395   0.015   3.599 -1.6225  1.0587  1.7233
 1778TIP3   OH226892   0.746   5.296   0.466  0.1996  0.4673  0.2655
 1778TIP3    H126893   0.738   5.383   0.427 -3.4986  0.4777  0.6271
 1778TIP3    H226894   0.675   5.293   0.531 -0.9188 -3.3278 -0.8513
 1779TIP3   OH226895   0.157   2.358   8.467 -0.0815 -0.1981  0.3767
 1779TIP3    H126896   0.136   2.444   8.430 -0.3885 -0.1966  0.5543
 1779TIP3    H226897   0.253   2.353   8.461 -0.1416 -0.2815 -0.5900
 1780TIP3   OH226898   1.305   6.248   2.927 -0.0227  0.1788 -0.9544
 1780TIP3    H126899   1.389   6.205   2.939 -0.5487 -1.5077 -2.8210
 1780TIP3    H226900   1.240   6.183   2.955 -0.7782  1.6662  1.0583
 1781TIP3   OH226901   1.015   1.709   7.624 -0.1553 -0.2021 -0.2339
 1781TIP3    H126902   1.083   1.774   7.614 -0.8403  0.7158  0.9045
 1781TIP3    H226903   0.984   1.692   7.534  0.7503  0.2335 -0.6306
 1782TIP3   OH226904   1.052   4.167   8.472  0.1412  0.1268  0.0831
 1782TIP3    H126905   0.980   4.108   8.449 -0.0722 -0.8652  2.9094
 1782TIP3    H226906   1.123   4.141   8.413 -0.4083 -1.9817  0.2666
 1783TIP3   OH226907   5.168   3.511   1.591  0.3089 -0.0084 -0.2405
 1783TIP3    H126908   5.113   3.502   1.514  1.3505  0.1920 -1.0256
 1783TIP3    H226909   5.176   3.422   1.625  1.9061 -0.5310 -1.8523
 1784TIP3   OH226910   4.348   5.461   3.713 -0.1094  1.0513 -0.7685
 1784TIP3    H126911   4.293   5.456   3.635 -0.7575  0.0141 -0.2745
 1784TIP3    H226912   4.286   5.465   3.786  0.4810  2.2265 -0.2949
 1785TIP3   OH226913   2.879   6.365   8.358  0.2284  0.3175 -0.5503
 1785TIP3    H126914   2.826   6.421   8.415  0.8463  2.3214 -1.8537
 1785TIP3    H226915   2.967   6.368   8.395  0.2164 -0.0173 -0.4859
 1786TIP3   OH226916   2.726   3.279   1.784 -0.0501 -0.9678  0.8032
 1786TIP3    H126917   2.656   3.282   1.719  1.9254  1.0834 -1.4017
 1786TIP3    H226918   2.681   3.294   1.868 -2.3229 -0.5117 -0.4208
 1787TIP3   OH226919   6.513   3.215   2.477 -0.4230 -0.0158 -0.1275
 1787TIP3    H126920   6.573   3.287   2.492  0.8169 -0.3979 -2.6839
 1787TIP3    H226921   6.563   3.136   2.498 -1.1317 -0.2406  0.8026
 1788TIP3   OH226922   1.274   2.442   0.732 -0.2609  0.5953  0.4332
 1788TIP3    H126923   1.191   2.483   0.708 -0.5939 -0.9962 -1.2761
 1788TIP3    H226924   1.340   2.508   0.709 -0.9708  1.7642  1.5560
 1789TIP3   OH226925   0.998   4.949   0.037  0.2432 -0.0718 -0.0998
 1789TIP3    H126926   1.063   4.902   0.088  0.5749 -0.4657 -0.8834
 1789TIP3    H226927   0.971   4.888  -0.032 -1.8685 -0.3974  0.9145
 1790TIP3   OH226928   4.939   2.331   2.794 -0.4739  0.0983 -0.2164
 1790TIP3    H126929   4.991   2.299   2.868  0.9135 -0.0926 -1.2263
 1790TIP3    H226930   4.885   2.256   2.768 -0.3460 -0.0958  0.0708
 1791TIP3   OH226931   5.163   0.177   7.941 -0.5523  0.2105 -0.1033
 1791TIP3    H126932   5.080   0.202   7.901 -1.0995  1.4602  1.6888
 1791TIP3    H226933   5.195   0.258   7.982  0.4822 -0.7584  1.0836
 1792TIP3   OH226934   6.192   1.064   7.737  0.1837 -0.0809 -0.0595
 1792TIP3    H126935   6.260   1.102   7.681  0.3259 -1.5851 -0.9633
 1792TIP3    H226936   6.121   1.127   7.734  0.6497  0.4200 -1.0125
 1793TIP3   OH226937   4.863   0.557   3.107 -0.1937 -0.1036  0.4109
 1793TIP3    H126938   4.849   0.501   3.183 -1.2282 -0.3623  0.0420
 1793TIP3    H226939   4.823   0.640   3.131  0.4793  0.1818  0.5766
 1794TIP3   OH226940   2.909   1.999   3.232  0.3245 -0.1907 -0.6457
 1794TIP3    H126941   2.840   2.038   3.178  1.5535  0.1423 -2.0591
 1794TIP3    H226942   2.887   1.906   3.237  0.3320 -0.2786 -1.9833
 1795TIP3   OH226943   2.571   6.143   0.807  0.4304  0.3675  0.2978
 1795TIP3    H126944   2.653   6.094   0.803 -1.2039 -2.5614  0.0868
 1795TIP3    H226945   2.555   6.153   0.901  0.5368  0.0161  0.3566
 1796TIP3   OH226946   0.982   0.356   1.913  0.5508  0.0130  0.2531
 1796TIP3    H126947   0.923   0.411   1.963  2.8190 -0.0698  3.3178
 1796TIP3    H226948   0.967   0.267   1.946 -2.6498 -1.4958 -4.1972
 1797TIP3   OH226949   5.135   0.684   0.119  0.3016  0.6508  0.7070
 1797TIP3    H126950   5.202   0.689   0.051  0.4111  2.7052  0.8775
 1797TIP3    H226951   5.069   0.625   0.084  2.1673 -1.4620  0.5454
 1798TIP3   OH226952   1.915   3.311   8.224  0.6969  0.2580  0.3700
 1798TIP3    H126953   1.974   3.238   8.207 -0.1397 -0.3979  0.2255
 1798TIP3    H226954   1.960   3.387   8.186  1.5048 -0.1972  0.3931
 1799TIP3   OH226955   5.902   6.695   7.789 -0.1211  0.1735  0.0116
 1799TIP3    H126956   5.993   6.671   7.805  0.1889  2.1806  1.6219
 1799TIP3    H226957   5.906   6.764   7.723 -0.5438 -0.2408 -0.4528
 1800TIP3   OH226958   4.699   2.702   2.245 -0.1366 -0.4088  0.4172
 1800TIP3    H126959   4.616   2.668   2.210  0.1198 -1.5139  0.8344
 1800TIP3    H226960   4.755   2.625   2.253  1.3848  0.4920 -0.9947
 1801TIP3   OH226961   0.106   1.371   8.064  0.0063  0.2369 -0.4933
 1801TIP3    H126962   0.131   1.327   8.146 -0.7386  1.0308  0.1836
 1801TIP3    H226963   0.188   1.400   8.025  0.5403 -1.8447 -1.0314
 1802TIP3   OH226964   2.965   4.489   1.020 -0.2008 -0.7529 -0.2053
 1802TIP3    H126965   2.958   4.409   1.071  0.1983 -0.8453 -0.2884
 1802TIP3    H226966   2.908   4.475   0.944 -0.8136 -0.6033  0.2296
 1803TIP3   OH226967   6.451   4.073   3.436  0.6954  0.2728  0.3598
 1803TIP3    H126968   6.410   4.015   3.372 -1.1416  2.3902 -0.4885
 1803TIP3    H226969   6.532   4.028   3.461 -0.0456 -2.0431 -1.1355
 1804TIP3   OH226970   6.330   6.814   2.377 -0.3516 -0.4337  0.7593
 1804TIP3    H126971   6.307   6.726   2.409 -0.7673 -0.5319  0.2102
 1804TIP3    H226972   6.318   6.871   2.453 -0.0328 -0.8610  1.1347
 1805TIP3   OH226973   0.418   5.274   2.691 -0.1383 -0.7329  0.3996
 1805TIP3    H126974   0.326   5.253   2.709 -0.8233  1.6917  0.1007
 1805TIP3    H226975   0.439   5.224   2.611 -1.6984 -0.1732 -0.4020
 1806TIP3   OH226976   4.932   4.584   7.526 -0.2357  0.6430 -0.1032
 1806TIP3    H126977   4.927   4.582   7.430  1.3476 -0.6196 -0.1781
 1806TIP3    H226978   4.859   4.529   7.555 -0.2350  0.3851 -0.5877
 1807TIP3   OH226979   6.179   5.617   2.736  0.2538 -0.6086  0.0786
 1807TIP3    H126980   6.090   5.605   2.768  0.5435 -3.6083 -0.0227
 1807TIP3    H226981   6.228   5.647   2.812 -0.8383  1.5425  0.0256
 1808TIP3   OH226982   4.644   5.370   0.923 -0.0930 -0.4509 -0.7170
 1808TIP3    H126983   4.705   5.398   0.992 -1.1559 -0.2902  0.1844
 1808TIP3    H226984   4.560   5.405   0.951 -0.4704 -0.0173 -2.3402
 1809TIP3   OH226985   4.185   0.230   3.214 -0.1625 -0.1916 -0.8393
 1809TIP3    H126986   4.246   0.233   3.287 -0.1412 -0.1501 -0.8592
 1809TIP3    H226987   4.219   0.161   3.157  0.7628  0.8883 -1.6467
 1810TIP3   OH226988   1.891   4.395   0.001 -0.2274 -0.2701 -0.3660
 1810TIP3    H126989   1.866   4.487   0.014 -0.8417 -0.3977 -0.5805
 1810TIP3    H226990   1.828   4.346   0.055 -0.9033 -0.6392 -1.4539
 1811TIP3   OH226991   0.772   5.522   0.709  0.1459  0.7723 -0.1000
 1811TIP3    H126992   0.812   5.594   0.758 -0.7322  1.3056 -0.1473
 1811TIP3    H226993   0.708   5.564   0.652 -0.4348 -0.0475 -0.0775
 1812TIP3   OH226994   5.556   1.001   2.663  0.2427  0.3083  0.0253
 1812TIP3    H126995   5.506   0.943   2.606 -0.4226  2.0571 -1.2141
 1812TIP3    H226996   5.605   1.058   2.604  0.9761  0.9660  1.2157
 1813TIP3   OH226997   3.584   5.148   2.227  0.2450  0.1587  0.3831
 1813TIP3    H126998   3.676   5.163   2.205  0.6622 -2.2662  0.2497
 1813TIP3    H226999   3.585   5.122   2.319  0.3243 -3.8758 -0.5647
 1814TIP3   OH227000   4.310   1.310   2.865  0.2080 -0.4934  0.0940
 1814TIP3    H127001   4.346   1.397   2.851 -0.7882 -0.0868 -0.0144
 1814TIP3    H227002   4.380   1.262   2.909  1.1971  0.0070 -0.8630
 1815TIP3   OH227003   0.760   5.895   0.669 -0.9801  0.4146 -0.4748
 1815TIP3    H127004   0.847   5.902   0.631 -1.1783 -1.3842 -1.3736
 1815TIP3    H227005   0.763   5.948   0.748 -0.3933  3.9703 -2.6653
 1816TIP3   OH227006   6.628   0.679   8.241 -0.7657 -0.5483 -0.4198
 1816TIP3    H127007   6.562   0.618   8.210 -0.2943 -0.9953 -0.5613
 1816TIP3    H227008   6.591   0.717   8.321 -0.3831 -2.2592  0.6274
 1817TIP3   OH227009   6.636   6.070   8.373  0.1878 -0.5022 -0.3413
 1817TIP3    H127010   6.680   6.144   8.330 -0.4947 -0.2704 -0.6601
 1817TIP3    H227011   6.683   6.058   8.455 -0.3052  0.9494  0.1901
 1818TIP3   OH227012   5.670   4.867   7.660  0.2168  0.3518  0.4652
 1818TIP3    H127013   5.745   4.904   7.706  0.6051 -0.6437  0.6622
 1818TIP3    H227014   5.681   4.894   7.569  1.6436 -1.0112  0.1945
 1819TIP3   OH227015   4.236   6.310   7.937  0.3437 -0.0137  0.2416
 1819TIP3    H127016   4.295   6.309   7.862 -1.2729 -1.6650 -1.1181
 1819TIP3    H227017   4.159   6.359   7.907 -0.4009 -0.8575  0.7172
 1820TIP3   OH227018   4.198   4.675   0.762  0.3017  0.3207 -0.0141
 1820TIP3    H127019   4.152   4.623   0.827  1.5290 -0.7413  0.0363
 1820TIP3    H227020   4.227   4.753   0.809 -0.3211  0.3961  0.2572
 1821TIP3   OH227021   0.558   6.644   8.117  0.1838 -0.3342  0.3248
 1821TIP3    H127022   0.499   6.690   8.057  0.5084  0.1953  0.3975
 1821TIP3    H227023   0.616   6.713   8.150  0.8382 -0.8389  0.2508
 1822TIP3   OH227024   0.920   5.352   0.887 -0.6847 -0.4209  0.7300
 1822TIP3    H127025   0.853   5.390   0.831  0.3321  1.5931  0.7973
 1822TIP3    H227026   0.986   5.318   0.826  0.7806  2.4183  0.5571
 1823TIP3   OH227027   3.288   1.549   1.065  0.5178 -0.0595 -1.1822
 1823TIP3    H127028   3.339   1.489   1.119 -1.0886  0.0489  0.5523
 1823TIP3    H227029   3.207   1.502   1.047  0.1080  0.7853 -1.6098
 1824TIP3   OH227030   5.387   3.762   2.187 -0.3196 -0.6791  0.5724
 1824TIP3    H127031   5.308   3.813   2.170 -1.7169 -2.7819  0.4674
 1824TIP3    H227032   5.452   3.797   2.126 -0.8531  1.6352  1.2136
 1825TIP3   OH227033   4.439   4.317   2.049  0.4188  0.3766 -0.1128
 1825TIP3    H127034   4.433   4.412   2.058  2.5839  0.5779 -0.1734
 1825TIP3    H227035   4.532   4.301   2.029 -0.3973 -1.4946 -3.0963
 1826TIP3   OH227036   0.592   6.193   0.109  0.1135  0.3063  0.6230
 1826TIP3    H127037   0.514   6.247   0.100  0.9574  1.3590 -0.7420
 1826TIP3    H227038   0.628   6.187   0.020  0.7128 -1.5240  0.9279
 1827TIP3   OH227039   5.006   4.677   2.518 -0.4851  0.8261 -0.2467
 1827TIP3    H127040   4.943   4.611   2.491  1.1428 -1.1664  0.5727
 1827TIP3    H227041   5.039   4.714   2.435 -1.3848  0.6099 -0.7151
 1828TIP3   OH227042   4.715   0.403   7.938  0.0019  0.0685  0.1449
 1828TIP3    H127043   4.686   0.418   7.848 -1.9481 -2.9764  0.1386
 1828TIP3    H227044   4.662   0.464   7.990 -1.3623 -0.5056 -0.5114
 1829TIP3   OH227045   6.537   5.396   2.832 -0.3503 -0.2008 -0.0987
 1829TIP3    H127046   6.630   5.418   2.821 -0.0861 -1.5308 -0.6979
 1829TIP3    H227047   6.506   5.376   2.744 -1.0265 -0.4475  0.1866
 1830TIP3   OH227048   3.538   0.747   2.109 -0.0028  0.2950  0.2637
 1830TIP3    H127049   3.626   0.785   2.114  0.6983 -1.2850  0.4915
 1830TIP3    H227050   3.501   0.761   2.196 -0.7593  2.6369 -0.3476
 1831TIP3   OH227051   3.566   3.557   2.553 -0.0599  0.3154  0.1883
 1831TIP3    H127052   3.649   3.575   2.598 -1.0698  1.4807  1.6904
 1831TIP3    H227053   3.500   3.566   2.621 -1.6083  1.3750 -1.3857
 1832TIP3   OH227054   4.084   4.493   3.501 -0.6454  0.0992  0.5849
 1832TIP3    H127055   4.082   4.564   3.437 -0.2823  0.2905  0.7829
 1832TIP3    H227056   3.995   4.488   3.535 -1.2278 -1.0037 -1.0225
 1833TIP3   OH227057   1.187   1.099   1.714 -0.0628 -0.3172  0.0852
 1833TIP3    H127058   1.273   1.115   1.675  0.1198 -1.5526 -0.0736
 1833TIP3    H227059   1.145   1.036   1.655 -0.6471 -0.5472  0.7345
 1834TIP3   OH227060   1.496   4.635   2.116 -0.6253  0.5151  0.0955
 1834TIP3    H127061   1.444   4.583   2.055 -2.3948  2.2353  0.0336
 1834TIP3    H227062   1.579   4.589   2.122 -2.1689 -2.4865  0.3387
 1835TIP3   OH227063   1.528   4.775   2.962 -0.0402  0.0506  0.0782
 1835TIP3    H127064   1.487   4.861   2.972  0.9170  0.7446 -1.5115
 1835TIP3    H227065   1.514   4.752   2.870  1.0627 -0.7596  0.0862
 1836TIP3   OH227066   4.103   2.718   0.687  0.1390 -0.3652  0.3980
 1836TIP3    H127067   4.179   2.749   0.735 -0.0019  0.6868 -0.0381
 1836TIP3    H227068   4.028   2.755   0.733 -0.0099  0.3672 -0.3978
 1837TIP3   OH227069   3.158   0.470   2.934 -0.1331  0.3905 -0.1978
 1837TIP3    H127070   3.216   0.458   3.009 -0.1927 -0.4856 -0.2800
 1837TIP3    H227071   3.194   0.545   2.887 -0.0280  0.8829  0.6392
 1838TIP3   OH227072   2.346   2.922   8.606  0.0059 -0.1147 -0.2681
 1838TIP3    H127073   2.416   2.897   8.546  0.2291 -2.7282  0.9441
 1838TIP3    H227074   2.292   2.983   8.557 -0.5691 -3.0497 -3.6436
 1839TIP3   OH227075   2.285   0.801   0.963  0.6844  0.3796  0.0488
 1839TIP3    H127076   2.309   0.870   0.900  2.8110 -0.9962 -0.7578
 1839TIP3    H227077   2.369   0.771   0.998 -0.3013 -0.8179  1.4974
 1840TIP3   OH227078   3.084   1.270   2.064  0.7575  0.3931  0.1306
 1840TIP3    H127079   3.061   1.186   2.103 -1.6729  1.0807  0.3492
 1840TIP3    H227080   3.099   1.249   1.971 -0.9214 -0.1731 -0.0572
 1841TIP3   OH227081   4.684   2.008   1.459 -0.3964  1.0030 -0.4307
 1841TIP3    H127082   4.738   2.058   1.397 -2.7151  2.9180 -1.0667
 1841TIP3    H227083   4.617   1.967   1.404 -0.4804 -0.1264  0.4908
 1842TIP3   OH227084   3.844   3.322   0.744 -0.3744  0.0193 -0.4235
 1842TIP3    H127085   3.920   3.374   0.772 -1.9860  2.8715 -0.9303
 1842TIP3    H227086   3.845   3.329   0.649 -1.2265  0.0453 -0.4355
 1843TIP3   OH227087   0.030   2.575   0.352 -0.2456 -0.1870  0.5902
 1843TIP3    H127088  -0.032   2.549   0.284 -0.3592  0.4195  0.4580
 1843TIP3    H227089   0.005   2.664   0.375  0.0376 -0.2438  1.1540
 1844TIP3   OH227090   1.357   2.209   3.289  0.1471  0.2582  0.2026
 1844TIP3    H127091   1.442   2.182   3.254 -0.7109 -1.3085 -0.7790
 1844TIP3    H227092   1.377   2.247   3.374  1.8708  0.3783 -0.2203
 1845TIP3   OH227093   2.576   3.398   2.458 -0.2984  0.0448 -0.2122
 1845TIP3    H127094   2.668   3.418   2.443 -0.7118  0.9734 -1.7095
 1845TIP3    H227095   2.573   3.302   2.463  0.6383 -0.0530 -1.1022
 1846TIP3   OH227096   0.126   5.519   1.801  0.6405  0.2844 -0.3085
 1846TIP3    H127097   0.056   5.481   1.855 -1.4787  0.6061 -2.6213
 1846TIP3    H227098   0.182   5.565   1.863 -1.9874  1.1874  1.5955
 1847TIP3   OH227099   4.125   1.661   0.083 -0.0539 -0.1379  0.0462
 1847TIP3    H127100   4.218   1.644   0.097 -0.2606 -0.1788  1.4329
 1847TIP3    H227101   4.119   1.689  -0.009  1.1702 -1.2152 -0.3847
 1848TIP3   OH227102   2.567   3.985   0.672  0.2014 -0.0267 -0.3969
 1848TIP3    H127103   2.509   3.976   0.596 -0.6569 -0.8659  0.3304
 1848TIP3    H227104   2.607   3.898   0.681 -0.3125 -0.1667  0.5878
 1849TIP3   OH227105   4.780   6.462   1.248  0.4190 -0.0844 -0.2286
 1849TIP3    H127106   4.840   6.533   1.227  0.1950 -0.3745 -2.0809
 1849TIP3    H227107   4.693   6.501   1.239  0.2799  0.1290  1.6532
 1850TIP3   OH227108   6.662   3.862   0.013 -0.2087  0.2214 -0.2794
 1850TIP3    H127109   6.589   3.922   0.029 -0.7852 -0.6142  0.3171
 1850TIP3    H227110   6.669   3.810   0.094 -0.3599 -1.1653 -1.1198
 1851TIP3   OH227111   0.738   6.256   1.086 -0.2305 -0.4750 -0.2078
 1851TIP3    H127112   0.769   6.254   0.996  2.5041  1.2044  0.5709
 1851TIP3    H227113   0.649   6.290   1.081  0.0947  0.1854 -2.2146
 1852TIP3   OH227114   2.925   5.736   1.428  0.3344  0.0901 -0.2408
 1852TIP3    H127115   2.970   5.799   1.484  1.3470 -0.7551 -0.0841
 1852TIP3    H227116   2.995   5.682   1.391 -0.5187 -1.1025 -0.1760
 1853TIP3   OH227117   2.802   6.667   3.115  0.3076 -0.6327  0.3815
 1853TIP3    H127118   2.803   6.592   3.055  0.8970 -0.0953 -0.2875
 1853TIP3    H227119   2.864   6.644   3.184  0.6326 -0.6767  0.0748
 1854TIP3   OH227120   2.980   4.624   1.341  0.1401 -0.2600 -0.1297
 1854TIP3    H127121   2.982   4.549   1.401  0.2680 -2.0639 -2.2465
 1854TIP3    H227122   2.922   4.687   1.383 -1.1771 -2.1762  1.0830
 1855TIP3   OH227123   3.084   3.792   0.873 -0.1957  0.1447 -0.4991
 1855TIP3    H127124   3.034   3.844   0.809 -0.4514 -1.8136 -1.9866
 1855TIP3    H227125   3.100   3.709   0.828  1.3660 -0.5727  1.2841
 1856TIP3   OH227126   5.415   0.743   0.002  0.7056  0.4424 -0.3346
 1856TIP3    H127127   5.453   0.688   0.071 -1.5671 -0.4970  0.2826
 1856TIP3    H227128   5.422   0.690  -0.078 -1.6644 -0.9984  0.2936
 1857TIP3   OH227129   2.428   5.476   2.695 -0.0344 -0.3868  0.0515
 1857TIP3    H127130   2.351   5.467   2.752 -1.1087 -0.5100 -1.3534
 1857TIP3    H227131   2.502   5.481   2.755 -1.0051 -1.6259  1.4245
 1858TIP3   OH227132   0.762   6.162   0.498 -0.3821  0.0066  0.0247
 1858TIP3    H127133   0.850   6.185   0.528 -0.3131  1.1767 -0.9707
 1858TIP3    H227134   0.774   6.081   0.448  0.5742  1.3001 -1.9913
 1859TIP3   OH227135   5.710   0.837   2.432 -0.1597 -0.2274  0.1436
 1859TIP3    H127136   5.748   0.924   2.446 -0.9351  0.1832 -0.2628
 1859TIP3    H227137   5.763   0.779   2.487  2.0906  0.0557 -1.5598
 1860TIP3   OH227138   0.475   0.879   0.518  0.2452  0.4103  0.0724
 1860TIP3    H127139   0.501   0.970   0.530  1.6218  0.2475 -1.3401
 1860TIP3    H227140   0.553   0.828   0.540 -0.9278 -0.5846  2.3007
 1861TIP3   OH227141   3.451   2.416   0.665 -0.2941  0.6125  0.1994
 1861TIP3    H127142   3.408   2.459   0.591 -0.9256  0.4499  0.4597
 1861TIP3    H227143   3.516   2.359   0.626 -1.7961 -0.7881 -0.3490
 1862TIP3   OH227144   6.537   0.378   0.912  0.2658  0.0870 -0.2332
 1862TIP3    H127145   6.507   0.469   0.911  0.4313  0.1387 -0.7788
 1862TIP3    H227146   6.467   0.330   0.868  0.8922  0.1825 -1.3559
 1863TIP3   OH227147   1.868   3.094   2.344 -0.3123  0.0353 -0.3056
 1863TIP3    H127148   1.791   3.111   2.397 -0.5579 -0.4753 -0.4942
 1863TIP3    H227149   1.899   3.008   2.373  0.9945  0.8144  0.7373
 1864TIP3   OH227150   4.151   6.282   2.969  0.2292  0.0253 -0.3256
 1864TIP3    H127151   4.141   6.349   2.900 -1.0100  0.0922 -0.1029
 1864TIP3    H227152   4.207   6.324   3.034  0.5524  0.3547 -0.8032
 1865TIP3   OH227153   2.336   6.738   2.623  0.0107 -0.3252 -0.0070
 1865TIP3    H127154   2.399   6.728   2.694 -0.1161 -0.8926  0.0276
 1865TIP3    H227155   2.311   6.649   2.600 -1.5845 -0.0845  0.6935
 1866TIP3   OH227156   0.900   4.514   3.831  0.0171  0.0847 -0.3279
 1866TIP3    H127157   0.820   4.471   3.861 -0.1050 -0.0973 -0.8849
 1866TIP3    H227158   0.869   4.581   3.770  0.2668  0.2648 -0.2541
 1867TIP3   OH227159   6.392   0.268   8.574  0.1737 -0.3016 -0.2044
 1867TIP3    H127160   6.428   0.343   8.620 -0.5605 -0.1041  0.0720
 1867TIP3    H227161   6.355   0.304   8.493  0.5997 -0.4998 -0.4885
 1868TIP3   OH227162   3.481   0.804   0.388  0.3329 -0.0387 -0.2442
 1868TIP3    H127163   3.547   0.757   0.338 -0.7075 -1.1191 -0.6643
 1868TIP3    H227164   3.431   0.851   0.322 -1.2353 -1.7063 -0.3406
 1869TIP3   OH227165   1.421   3.289   0.631  0.1108 -0.8039  0.6311
 1869TIP3    H127166   1.435   3.256   0.543  0.1376  1.1397 -0.1548
 1869TIP3    H227167   1.469   3.372   0.633 -1.4240  0.1107  1.8365
 1870TIP3   OH227168   6.711   6.598   2.462 -0.1536 -0.2932 -0.1625
 1870TIP3    H127169   6.732   6.690   2.442 -3.6754  1.3608  2.6412
 1870TIP3    H227170   6.755   6.582   2.545 -1.7063 -0.1214  0.7340
 1871TIP3   OH227171   4.985   3.834   1.520  0.3527 -0.4936  0.5149
 1871TIP3    H127172   4.925   3.781   1.572 -0.4004 -0.4072 -0.2493
 1871TIP3    H227173   4.931   3.873   1.452  1.2450 -0.2846 -0.1004
 1872TIP3   OH227174   1.433   0.910   3.087 -0.1480  0.0262  0.2461
 1872TIP3    H127175   1.349   0.945   3.058  0.5705  0.5558 -1.2933
 1872TIP3    H227176   1.437   0.931   3.181 -1.6026  0.2353  0.2751
 1873TIP3   OH227177   1.297   1.844   1.197  0.1222  0.0812 -0.5250
 1873TIP3    H127178   1.355   1.798   1.137 -0.9766 -1.3786 -0.5149
 1873TIP3    H227179   1.218   1.861   1.146  0.0317  0.8613 -0.1450
 1874TIP3   OH227180   1.937   6.414   0.935 -0.1520  0.3520 -0.1991
 1874TIP3    H127181   2.006   6.349   0.950  0.5784  1.2490  0.4529
 1874TIP3    H227182   1.888   6.416   1.017 -0.7685 -0.0480 -0.5497
 1875TIP3   OH227183   4.361   2.329   8.584  0.1833 -0.0890  0.0238
 1875TIP3    H127184   4.338   2.386   8.510 -1.9630 -2.2886 -1.1441
 1875TIP3    H227185   4.456   2.322   8.580  0.3649  2.0774 -0.7516
 1876TIP3   OH227186   5.831   6.713   2.064 -0.6750 -0.0386  0.0988
 1876TIP3    H127187   5.840   6.705   2.159  2.5682 -1.8534 -0.2176
 1876TIP3    H227188   5.800   6.626   2.037  1.7339 -0.7154 -0.6997
 1877TIP3   OH227189   4.080   5.473   2.761 -0.3134  0.8120  0.3643
 1877TIP3    H127190   4.053   5.421   2.836 -2.0486 -2.0050 -1.9698
 1877TIP3    H227191   3.998   5.510   2.727  0.0106 -0.0054 -1.4431
 1878TIP3   OH227192   2.935   0.842   3.698 -1.1011 -0.0900 -0.3197
 1878TIP3    H127193   2.959   0.930   3.727 -2.6339  0.1163  0.4437
 1878TIP3    H227194   2.844   0.851   3.668 -0.2980 -0.7715 -3.2156
 1879TIP3   OH227195   5.610   1.784   3.030 -0.8118  0.1975  0.6212
 1879TIP3    H127196   5.530   1.735   3.050 -2.1239  2.3175  0.8263
 1879TIP3    H227197   5.653   1.794   3.115 -0.3573 -0.8309  0.5303
 1880TIP3   OH227198   4.276   1.785   1.687 -0.5336 -0.1354  0.0405
 1880TIP3    H127199   4.279   1.794   1.592 -0.5205 -0.6296 -0.0115
 1880TIP3    H227200   4.366   1.800   1.716 -0.1811 -1.6518 -0.1979
 1881TIP3   OH227201   1.854   3.178   1.892 -0.6377 -0.0433  0.2635
 1881TIP3    H127202   1.841   3.208   1.981 -1.6707  0.0560  0.0912
 1881TIP3    H227203   1.929   3.228   1.860 -2.1014  2.2017  0.0788
 1882TIP3   OH227204   1.460   1.114   1.647 -0.1245 -0.0406 -0.0709
 1882TIP3    H127205   1.526   1.089   1.582 -0.8325 -1.8103 -0.1624
 1882TIP3    H227206   1.477   1.055   1.721  1.0804  2.3587  1.6828
 1883TIP3   OH227207   2.919   2.440   1.725  0.4460 -0.1339  0.3365
 1883TIP3    H127208   2.992   2.393   1.684 -0.1243  0.7939 -1.8814
 1883TIP3    H227209   2.881   2.377   1.786  0.4451 -2.1767 -1.6574
 1884TIP3   OH227210   2.055   6.450   8.143  0.3047  0.1558 -0.1474
 1884TIP3    H127211   1.979   6.394   8.127 -0.4665  0.8663  0.9360
 1884TIP3    H227212   2.043   6.523   8.082 -0.4026  0.7469  0.6836
 1885TIP3   OH227213   2.232   1.108   1.437  0.0461  0.3729  0.2063
 1885TIP3    H127214   2.290   1.124   1.362  1.0594 -2.2468  0.3110
 1885TIP3    H227215   2.273   1.035   1.483 -1.3179  0.9824  2.5481
 1886TIP3   OH227216   6.426   2.690   2.776  0.2980 -0.7300  0.7269
 1886TIP3    H127217   6.387   2.619   2.726  0.1741  1.0027 -1.8260
 1886TIP3    H227218   6.356   2.720   2.834 -0.7343 -0.6136 -0.5276
 1887TIP3   OH227219   1.757   4.617   1.404 -0.5402 -0.5643 -0.5503
 1887TIP3    H127220   1.793   4.592   1.489  1.9906  2.0565 -0.6699
 1887TIP3    H227221   1.833   4.616   1.345 -1.3594  1.5895 -1.7606
 1888TIP3   OH227222   0.049   5.872   0.247 -0.3791  0.2318  0.0581
 1888TIP3    H127223   0.044   5.953   0.196  1.3944 -1.1343 -2.4968
 1888TIP3    H227224   0.141   5.865   0.273 -1.0024  0.2864  2.6406
 1889TIP3   OH227225   0.803   1.823   1.663  0.5341 -0.3095 -0.3643
 1889TIP3    H127226   0.862   1.896   1.646  1.8174 -0.6432  2.1211
 1889TIP3    H227227   0.850   1.745   1.632  0.6873 -0.4130  0.1221
 1890TIP3   OH227228   1.864   5.225   0.965 -0.5284 -0.7641  1.0282
 1890TIP3    H127229   1.917   5.168   1.021 -1.0620 -1.8360  0.4809
 1890TIP3    H227230   1.792   5.254   1.021  0.0405 -0.1748  1.4652
 1891TIP3   OH227231   4.832   5.415   2.149  0.3541  0.3099  0.7634
 1891TIP3    H127232   4.880   5.437   2.229 -0.0774  0.6617  0.9315
 1891TIP3    H227233   4.799   5.326   2.165  3.2645 -1.1288 -0.4697
 1892TIP3   OH227234   6.504   3.630   2.019 -0.1046 -0.6959 -0.0270
 1892TIP3    H127235   6.458   3.571   2.078 -1.3927  0.1649 -0.1212
 1892TIP3    H227236   6.581   3.659   2.068  0.2551 -1.9966  0.2161
 1893TIP3   OH227237   4.603   2.007   8.444  0.3616  0.2623 -0.2685
 1893TIP3    H127238   4.629   2.084   8.495  1.1677  1.1722 -1.9842
 1893TIP3    H227239   4.662   1.937   8.475 -0.1362  0.3963  1.0411
 1894TIP3   OH227240   5.935   4.467   2.812 -0.0591 -0.1939  0.8496
 1894TIP3    H127241   5.856   4.470   2.758  0.7474  3.8157 -0.4072
 1894TIP3    H227242   6.005   4.444   2.751  0.5306  2.2316  0.5027
 1895TIP3   OH227243   0.753   2.543   2.951 -0.2738 -0.3049 -0.3376
 1895TIP3    H127244   0.678   2.517   3.004 -1.4276  1.5167 -1.0108
 1895TIP3    H227245   0.820   2.477   2.971 -1.7382 -1.4832  0.9261
 1896TIP3   OH227246   1.492   6.401   1.035 -0.2357 -0.4253  0.0610
 1896TIP3    H127247   1.568   6.456   1.015  1.0550 -1.8493  0.8017
 1896TIP3    H227248   1.497   6.328   0.973 -1.2275 -0.3389 -0.1397
 1897TIP3   OH227249   3.352   4.138   2.033 -0.3143  0.7266 -0.0075
 1897TIP3    H127250   3.361   4.233   2.041 -2.2897  0.9634 -0.2846
 1897TIP3    H227251   3.364   4.105   2.122  1.0565  1.1465 -0.0125
 1898TIP3   OH227252   1.176   4.343   0.073 -0.3647 -0.2408 -0.0217
 1898TIP3    H127253   1.209   4.407   0.010  0.2677 -0.2267  0.3135
 1898TIP3    H227254   1.129   4.394   0.138  1.2427  0.0505  0.9582
 1899TIP3   OH227255   3.654   6.068   2.219 -0.5404  0.1936 -0.1659
 1899TIP3    H127256   3.676   6.147   2.169  0.6743  0.4137  0.6807
 1899TIP3    H227257   3.731   6.012   2.213 -1.0279 -0.5195  0.0402
 1900TIP3   OH227258   0.024   0.719   8.218  0.1158 -0.1285  0.1400
 1900TIP3    H127259  -0.070   0.701   8.224  0.2400 -0.6076  0.7814
 1900TIP3    H227260   0.065   0.637   8.245  0.7204  0.0747 -0.1587
 1901TIP3   OH227261   5.478   2.618   1.881 -0.1541 -0.5046  0.3086
 1901TIP3    H127262   5.446   2.681   1.817  1.0778  1.2352  1.3223
 1901TIP3    H227263   5.399   2.582   1.921 -0.9001  1.1659  0.4132
 1902TIP3   OH227264   3.671   1.007   0.558  0.7386 -0.2603  0.5195
 1902TIP3    H127265   3.744   0.987   0.617  0.4056 -0.5987  0.8241
 1902TIP3    H227266   3.603   0.944   0.582 -0.1844  0.9692  1.2190
 1903TIP3   OH227267   0.438   6.367   0.712  0.5579  0.3601 -0.2630
 1903TIP3    H127268   0.415   6.275   0.723  1.7019  0.2375  1.3395
 1903TIP3    H227269   0.376   6.415   0.767  1.3316  0.3599  0.6290
 1904TIP3   OH227270   6.162   5.214   8.580 -0.3490 -0.3395 -0.4947
 1904TIP3    H127271   6.194   5.221   8.490 -1.1054  0.7559 -0.6898
 1904TIP3    H227272   6.241   5.203   8.633  0.1622 -0.1037 -1.2034
 1905TIP3   OH227273   5.956   5.648   3.413  0.1545 -0.5688 -0.1497
 1905TIP3    H127274   5.945   5.563   3.455 -0.6434  0.5452  2.0900
 1905TIP3    H227275   5.909   5.640   3.330  0.0829 -2.2843  0.0201
 1906TIP3   OH227276   5.751   3.271   3.668  0.6753  0.3394  0.1848
 1906TIP3    H127277   5.825   3.211   3.670  0.1035 -0.4011 -0.1043
 1906TIP3    H227278   5.682   3.222   3.622 -0.1237  0.8473  0.8131
 1907TIP3   OH227279   5.989   6.481   1.456 -0.0215 -0.4079  0.2605
 1907TIP3    H127280   6.077   6.476   1.494 -0.1945 -0.5125  0.6436
 1907TIP3    H227281   5.973   6.393   1.422 -0.5542 -0.7873  1.4666
 1908TIP3   OH227282   3.769   3.336   7.447 -0.6035 -0.0463 -0.0863
 1908TIP3    H127283   3.683   3.367   7.476 -0.1690  2.4870 -1.1799
 1908TIP3    H227284   3.798   3.276   7.516 -2.6404  0.1058  0.9831
 1909TIP3   OH227285   3.397   6.216   3.016 -0.7069 -0.1412 -0.4935
 1909TIP3    H127286   3.369   6.164   3.091  0.1723 -1.3838 -0.9999
 1909TIP3    H227287   3.317   6.257   2.984 -1.3556 -0.8838  0.1433
 1910TIP3   OH227288   2.326   3.024   2.714 -0.2257  0.8453 -0.0771
 1910TIP3    H127289   2.249   3.079   2.697 -1.7274 -0.9014  0.8174
 1910TIP3    H227290   2.371   3.068   2.786 -1.7217  0.6648  1.0191
 1911TIP3   OH227291   2.376   0.161   1.753  0.3934  0.1050  0.0614
 1911TIP3    H127292   2.348   0.129   1.839 -0.0967 -1.0049 -0.5010
 1911TIP3    H227293   2.455   0.110   1.733  1.5989  1.6375  0.6324
 1912TIP3   OH227294   3.311   0.310   8.442 -0.2595 -0.0553 -0.0626
 1912TIP3    H127295   3.398   0.339   8.471 -0.2258  0.3703 -0.5682
 1912TIP3    H227296   3.313   0.321   8.347 -0.7962 -0.2440 -0.0987
 1913TIP3   OH227297   5.557   1.120   1.346 -0.0930  0.8620  0.0456
 1913TIP3    H127298   5.486   1.170   1.386  1.3842  0.9213  2.8932
 1913TIP3    H227299   5.540   1.030   1.374 -1.3274  0.0806 -2.9077
 1914TIP3   OH227300   5.155   3.041   3.287  0.3795  0.0589 -0.2089
 1914TIP3    H127301   5.089   2.974   3.307 -0.1546  0.8336  0.6964
 1914TIP3    H227302   5.216   3.036   3.360  1.0916 -0.3469 -0.8227
 1915TIP3   OH227303   4.526   2.779   0.447  0.3279 -0.0478  0.2281
 1915TIP3    H127304   4.527   2.835   0.524  2.4816  3.4870 -2.0418
 1915TIP3    H227305   4.443   2.799   0.403 -0.4166 -1.2654  1.0244
 1916TIP3   OH227306   5.766   3.813   1.565  0.2022  0.0857 -0.1974
 1916TIP3    H127307   5.812   3.897   1.571  0.4185 -0.0538  0.1549
 1916TIP3    H227308   5.674   3.835   1.581  0.4457  0.0683  1.3905
 1917TIP3   OH227309   0.493   2.351   3.443  0.3102  0.0204 -0.1894
 1917TIP3    H127310   0.463   2.426   3.391  0.1142 -0.8873 -1.4221
 1917TIP3    H227311   0.583   2.374   3.467 -0.1694  1.2247  0.6090
 1918TIP3   OH227312   6.078   2.280   0.971 -0.1135 -0.3238  0.4696
 1918TIP3    H127313   6.008   2.340   0.944 -1.4799 -1.8238  0.5449
 1918TIP3    H227314   6.149   2.298   0.909 -0.1643  1.8794  0.9594
 1919TIP3   OH227315   0.288   3.941   0.171  0.0576  0.0785 -0.5002
 1919TIP3    H127316   0.370   3.984   0.197 -0.9652  1.4247  0.6807
 1919TIP3    H227317   0.315   3.855   0.139  1.8686  0.1907  0.5815
 1920TIP3   OH227318   4.858   0.801   2.337  0.2815 -0.4913  0.0597
 1920TIP3    H127319   4.786   0.774   2.394  0.7163 -1.2068  0.2736
 1920TIP3    H227320   4.876   0.725   2.283 -0.2773  0.2532 -1.2152
 1921TIP3   OH227321   6.323   2.940   1.413  0.2447 -0.2436 -0.1868
 1921TIP3    H127322   6.332   2.996   1.490 -0.1630  0.0715 -0.3628
 1921TIP3    H227323   6.232   2.950   1.386  0.3111 -0.5644 -0.5514
 1922TIP3   OH227324   3.296   3.915   1.618  0.4286  0.0143  0.5577
 1922TIP3    H127325   3.230   3.946   1.556  0.5058  1.0942  1.0003
 1922TIP3    H227326   3.264   3.942   1.704  1.2338  0.1683  0.8221
 1923TIP3   OH227327   6.430   3.827   0.638  0.0240  0.6375 -0.4637
 1923TIP3    H127328   6.419   3.837   0.544  0.0167  0.9956 -0.4285
 1923TIP3    H227329   6.373   3.754   0.662 -0.9563  1.3536 -0.5484
 1924TIP3   OH227330   4.252   4.652   1.187 -0.0963  0.2536 -0.4309
 1924TIP3    H127331   4.180   4.667   1.248 -0.3706 -1.2629 -0.3348
 1924TIP3    H227332   4.312   4.725   1.202 -0.3012  0.0925  1.4274
 1925TIP3   OH227333   3.070   1.756   3.519  0.0342 -0.1695  0.1452
 1925TIP3    H127334   3.071   1.778   3.612  1.9921 -2.3821  0.7400
 1925TIP3    H227335   3.132   1.818   3.479  0.2602 -0.1281  0.5588
 1926TIP3   OH227336   5.517   4.484   0.934  0.2136 -0.0606  0.6875
 1926TIP3    H127337   5.437   4.514   0.976  0.5929 -0.0564  1.4262
 1926TIP3    H227338   5.505   4.505   0.841 -1.0327 -0.9222  0.6368
 1927TIP3   OH227339   6.863   1.610   8.092  0.9013 -0.5355 -0.3260
 1927TIP3    H127340   6.926   1.629   8.162  3.5974  0.4716 -2.8417
 1927TIP3    H227341   6.894   1.528   8.054  1.0130  0.2241 -1.9271
 1928TIP3   OH227342   3.427   5.318   2.084  0.1656 -0.0039 -0.0551
 1928TIP3    H127343   3.429   5.412   2.098 -0.2961  0.2336 -1.4364
 1928TIP3    H227344   3.453   5.280   2.168 -2.2565  1.2646  1.3861
 1929TIP3   OH227345   6.381   6.509   0.899  0.0045  0.1559  0.1138
 1929TIP3    H127346   6.352   6.454   0.826  0.3549  0.1946 -0.0537
 1929TIP3    H227347   6.463   6.470   0.928 -0.0035  0.2922  0.3223
 1930TIP3   OH227348   6.411   2.107   8.651 -0.7470  0.2927 -0.0322
 1930TIP3    H127349   6.506   2.091   8.653 -0.9530 -0.9926 -0.1532
 1930TIP3    H227350   6.375   2.046   8.714 -1.6753 -0.5466 -1.3246
 1931TIP3   OH227351   6.183   1.665   1.098 -0.8903 -0.4633 -0.2939
 1931TIP3    H127352   6.241   1.650   1.173 -0.6443  2.8604  0.3657
 1931TIP3    H227353   6.186   1.584   1.048  1.1370 -1.8287  1.8351
 1932TIP3   OH227354   6.548   2.808   0.485 -0.5429 -0.3096  0.5482
 1932TIP3    H127355   6.641   2.830   0.489 -0.5844 -0.2119  1.0115
 1932TIP3    H227356   6.512   2.869   0.420  0.0740 -1.6516 -1.1602
 1933TIP3   OH227357   0.530   3.522   3.338 -0.1214  0.3781  0.3975
 1933TIP3    H127358   0.621   3.498   3.354 -0.2444  0.6189  1.6350
 1933TIP3    H227359   0.480   3.444   3.364 -0.2546  0.1063 -0.6522
 1934TIP3   OH227360   3.006   2.679   3.805 -0.1103  0.4785  0.2322
 1934TIP3    H127361   3.042   2.605   3.755 -1.6079  0.3163 -0.6587
 1934TIP3    H227362   3.073   2.747   3.799  1.1361 -0.6582  0.7556
 1935TIP3   OH227363   5.869   3.075   8.565 -0.2036 -0.2340 -0.0292
 1935TIP3    H127364   5.930   3.142   8.597 -1.6371  0.9004  0.4881
 1935TIP3    H227365   5.782   3.109   8.589 -1.0661 -1.6115 -1.0465
 1936TIP3   OH227366   0.504   3.948   0.907 -0.6176 -0.2502  0.2184
 1936TIP3    H127367   0.464   3.948   0.820 -1.5481  1.0823  0.6190
 1936TIP3    H227368   0.558   4.027   0.909 -0.5296 -0.3205  0.8300
 1937TIP3   OH227369   2.936   4.812   1.546 -0.2985  0.2168  0.5966
 1937TIP3    H127370   3.014   4.867   1.540 -0.7421  0.8171  0.1636
 1937TIP3    H227371   2.904   4.826   1.634  0.3590 -0.4261  0.9485
 1938TIP3   OH227372   1.685   4.931   8.192  0.1492  0.4081 -0.7147
 1938TIP3    H127373   1.606   4.950   8.143 -0.1932 -0.2911 -0.4481
 1938TIP3    H227374   1.753   4.983   8.149 -0.8253  2.6323  0.3167
 1939TIP3   OH227375   0.916   5.192   7.758 -0.0579  0.1665  0.0894
 1939TIP3    H127376   0.858   5.241   7.701  0.4834 -2.5521 -3.1687
 1939TIP3    H227377   0.859   5.158   7.827 -1.2800  1.6419 -0.1477
 1940TIP3   OH227378   2.450   2.741   1.740  0.1841  0.5820 -0.0752
 1940TIP3    H127379   2.356   2.729   1.759 -0.0499  1.5975 -0.5225
 1940TIP3    H227380   2.453   2.755   1.645  0.5526  2.5445  0.1922
 1941TIP3   OH227381   3.911   0.130   7.572 -0.1410  0.2544  0.3809
 1941TIP3    H127382   3.818   0.134   7.554 -0.4448  2.1082  2.0196
 1941TIP3    H227383   3.940   0.047   7.533 -2.2596  0.0722 -0.9458
 1942TIP3   OH227384   6.422   3.460   3.198  0.3658  0.0367 -0.5398
 1942TIP3    H127385   6.478   3.511   3.256  1.1974 -0.9282 -0.4595
 1942TIP3    H227386   6.368   3.525   3.153  0.0571  0.8307  0.9328
 1943TIP3   OH227387   0.242   2.219   1.554 -0.8111  0.4406  0.0185
 1943TIP3    H127388   0.202   2.174   1.628 -1.1785 -0.4879 -0.7198
 1943TIP3    H227389   0.332   2.185   1.552 -0.4219  1.3868  0.7612
 1944TIP3   OH227390   5.772   6.777   1.759  0.5482 -0.2780  0.4145
 1944TIP3    H127391   5.859   6.800   1.794  1.2593 -0.6859 -0.9928
 1944TIP3    H227392   5.713   6.785   1.834  1.4859  1.7692  1.0185
 1945TIP3   OH227393   2.953   3.483   0.332 -0.3216 -0.0838 -0.3233
 1945TIP3    H127394   3.046   3.485   0.354 -0.0779  0.6417 -1.3808
 1945TIP3    H227395   2.920   3.570   0.356 -0.8807 -0.5496  0.6508
 1946TIP3   OH227396   0.425   1.584   7.659 -0.1846 -0.4451 -0.0010
 1946TIP3    H127397   0.508   1.614   7.623 -0.3898 -1.4327 -1.3554
 1946TIP3    H227398   0.362   1.653   7.636 -0.1328 -0.6424 -0.7342
 1947TIP3   OH227399   3.722   0.572   1.426 -0.1411 -0.5126 -0.0724
 1947TIP3    H127400   3.733   0.514   1.350  2.7892 -0.4444  0.1799
 1947TIP3    H227401   3.736   0.515   1.502 -0.8770 -0.1611  0.3283
 1948TIP3   OH227402   5.974   5.819   8.241 -0.0626  0.7069  0.5393
 1948TIP3    H127403   5.884   5.790   8.258 -0.5185  0.9407 -1.2900
 1948TIP3    H227404   6.020   5.739   8.216 -0.5636  0.9900 -1.5003
 1949TIP3   OH227405   0.911   2.319   0.113 -0.3355 -0.0361  0.4317
 1949TIP3    H127406   0.911   2.255   0.184 -0.0701 -1.9022 -1.1664
 1949TIP3    H227407   0.942   2.400   0.154  1.2347 -1.3942  2.1415
 1950TIP3   OH227408   6.559   1.865   8.199  0.5471 -0.7975  0.0255
 1950TIP3    H127409   6.609   1.814   8.135 -0.8092  0.0073 -1.7292
 1950TIP3    H227410   6.468   1.848   8.177  0.0587  0.9985  0.5406
 1951TIP3   OH227411   2.000   5.817   1.723 -0.7812 -0.9069 -0.9102
 1951TIP3    H127412   1.969   5.835   1.634 -1.8934 -0.4027 -0.4463
 1951TIP3    H227413   2.061   5.745   1.713 -1.3169 -1.2360 -2.0228
 1952TIP3   OH227414   2.383   3.646   0.646  0.3291  0.2663  0.0978
 1952TIP3    H127415   2.383   3.572   0.585  1.6567  0.7513 -0.5246
 1952TIP3    H227416   2.312   3.702   0.615 -1.1996 -1.0629  1.0302
 1953TIP3   OH227417   6.071   1.026   8.489  0.5345  0.4847 -0.3696
 1953TIP3    H127418   6.033   1.099   8.538  2.6382  1.9440 -0.7794
 1953TIP3    H227419   6.143   0.995   8.544  0.7164 -0.1660 -0.9595
 1954TIP3   OH227420   2.312   5.556   1.929  0.2220 -0.3198 -0.0607
 1954TIP3    H127421   2.328   5.504   2.008  2.5141 -0.4077 -0.5159
 1954TIP3    H227422   2.245   5.619   1.956  2.3953  1.0682  2.6748
 1955TIP3   OH227423   4.551   6.859   0.019 -0.7942  0.2610  0.7167
 1955TIP3    H127424   4.544   6.914  -0.059  0.8532 -0.9753 -0.3510
 1955TIP3    H227425   4.608   6.909   0.078 -0.4639  0.3212  0.3443
 1956TIP3   OH227426   1.624   0.395   2.460 -0.1198  0.1755 -0.0642
 1956TIP3    H127427   1.545   0.413   2.410  0.0014 -0.8657 -0.6596
 1956TIP3    H227428   1.694   0.437   2.410 -0.0451 -0.5672 -0.5957
 1957TIP3   OH227429   3.459   5.428   2.423  0.2649  0.0852  0.1275
 1957TIP3    H127430   3.411   5.345   2.417  0.8373 -0.1658 -1.4806
 1957TIP3    H227431   3.391   5.495   2.432 -0.4478 -0.2916 -1.8179
 1958TIP3   OH227432   3.490   3.391   1.704 -0.7427 -0.6903 -0.5239
 1958TIP3    H127433   3.408   3.434   1.728 -0.4790  0.4986 -1.6564
 1958TIP3    H227434   3.508   3.332   1.777 -1.2006  1.0272  1.0598
 1959TIP3   OH227435   2.431   3.979   2.954 -0.4162  0.0701 -0.1783
 1959TIP3    H127436   2.445   3.928   2.874  0.6581  0.8860 -0.5281
 1959TIP3    H227437   2.419   4.069   2.923 -1.2248  0.2143  0.5092
 1960TIP3   OH227438   6.857   0.388   2.131  1.0047  0.3828  0.2809
 1960TIP3    H127439   6.888   0.393   2.222  1.7082 -0.4000  0.1035
 1960TIP3    H227440   6.782   0.447   2.128 -0.0804 -0.8318  1.8159
 1961TIP3   OH227441   4.042   0.993   2.314 -0.3124  0.0220  0.4834
 1961TIP3    H127442   4.051   0.976   2.407  2.6944  0.3121  0.3305
 1961TIP3    H227443   4.132   0.998   2.281 -1.1969  2.2093 -1.9981
 1962TIP3   OH227444   5.247   3.151   2.206  0.5376  0.3327 -0.5069
 1962TIP3    H127445   5.172   3.117   2.156  0.2308  0.6095 -0.2413
 1962TIP3    H227446   5.322   3.136   2.149  0.2608  0.1706 -0.8346
 1963TIP3   OH227447   2.317   5.264   3.393  0.3173 -0.1558 -0.0249
 1963TIP3    H127448   2.326   5.170   3.409  0.0160 -0.0151  1.0645
 1963TIP3    H227449   2.353   5.305   3.472 -2.1221  0.5632  0.8174
 1964TIP3   OH227450   4.843   6.215   1.389 -0.3254 -0.1748 -0.0921
 1964TIP3    H127451   4.809   6.260   1.312  0.5434  0.7344  0.0396
 1964TIP3    H227452   4.905   6.276   1.428  0.3246 -1.1830  0.5248
 1965TIP3   OH227453   5.688   5.849   0.062  0.3496  0.4253  0.0285
 1965TIP3    H127454   5.630   5.774   0.071  0.0752  0.6455  0.1108
 1965TIP3    H227455   5.632   5.919   0.026  0.2405  1.0221  1.3006
 1966TIP3   OH227456   2.510   0.654   8.155  0.3844 -0.4907 -0.1322
 1966TIP3    H127457   2.425   0.609   8.154  0.6286 -0.9543 -1.5996
 1966TIP3    H227458   2.487   0.747   8.157 -0.1476 -0.6192  0.0818
 1967TIP3   OH227459   4.780   6.549   7.742  0.1576  0.2161  0.3805
 1967TIP3    H127460   4.728   6.625   7.715  0.9059  0.0401 -1.7007
 1967TIP3    H227461   4.714   6.483   7.765 -0.5361  0.5632 -0.5354
 1968TIP3   OH227462   0.948   0.075   1.479 -0.0229 -0.2298  0.0686
 1968TIP3    H127463   0.942   0.008   1.412  1.8473 -2.7004  2.1729
 1968TIP3    H227464   1.024   0.050   1.532 -0.9439  1.9395  2.6904
 1969TIP3   OH227465   2.210   4.376   0.779  0.0717 -0.0473 -0.0704
 1969TIP3    H127466   2.215   4.458   0.729 -1.8073  0.7119  0.8530
 1969TIP3    H227467   2.214   4.404   0.870 -1.0573 -0.9011  0.2684
 1970TIP3   OH227468   0.239   6.754   1.446  0.3357 -0.7354  0.4212
 1970TIP3    H127469   0.185   6.775   1.523  1.0929  0.5076  0.6474
 1970TIP3    H227470   0.325   6.734   1.482  0.9797  0.8795 -0.1355
 1971TIP3   OH227471   4.648   6.041   1.279  0.2236 -0.3013 -0.1804
 1971TIP3    H127472   4.692   6.084   1.352 -0.0646 -1.5180  0.7445
 1971TIP3    H227473   4.556   6.038   1.305  0.4789 -3.3712  0.8830
 1972TIP3   OH227474   0.989   4.120   1.250  0.3550  0.1070  0.0870
 1972TIP3    H127475   0.893   4.126   1.248  0.2277 -1.4874  0.4553
 1972TIP3    H227476   1.018   4.211   1.242 -1.2115  0.7504  1.0902
 1973TIP3   OH227477   5.820   0.008   7.987  0.6058  0.4425 -0.2961
 1973TIP3    H127478   5.744   0.039   7.938  0.1027  0.6631  0.6134
 1973TIP3    H227479   5.850  -0.068   7.937  0.5441  1.0838 -1.3381
 1974TIP3   OH227480   5.971   3.943   2.773 -0.9213  0.0047  0.5785
 1974TIP3    H127481   6.060   3.979   2.771 -0.3426 -1.3692 -0.2148
 1974TIP3    H227482   5.930   3.982   2.850 -0.1725  1.8974  0.0715
 1975TIP3   OH227483   4.701   3.210   8.084  0.1488 -0.8017 -0.0559
 1975TIP3    H127484   4.744   3.128   8.064  0.6596  0.0484 -2.9630
 1975TIP3    H227485   4.723   3.268   8.010 -0.1183  1.9816  1.8699
 1976TIP3   OH227486   3.069   1.747   1.897  0.1460 -0.1355  0.0577
 1976TIP3    H127487   3.131   1.675   1.913  0.5572  0.2781  0.3280
 1976TIP3    H227488   3.122   1.826   1.904 -0.1284  0.1681 -1.0902
 1977TIP3   OH227489   0.512   3.626   3.075 -0.4608 -0.1448 -0.5299
 1977TIP3    H127490   0.480   3.715   3.090 -2.4652 -0.5594 -2.0115
 1977TIP3    H227491   0.503   3.583   3.160 -1.7471  0.4156 -0.3689
 1978TIP3   OH227492   5.882   1.673   2.186 -0.4044 -0.2312 -0.0437
 1978TIP3    H127493   5.845   1.718   2.111 -2.5453 -0.4084  0.8394
 1978TIP3    H227494   5.868   1.580   2.168 -2.5361 -0.2325  1.2691
 1979TIP3   OH227495   5.480   2.141   1.481  0.5384  0.0701 -0.2669
 1979TIP3    H127496   5.453   2.219   1.530 -0.3068 -1.7774  2.4137
 1979TIP3    H227497   5.544   2.098   1.538  1.4946 -0.8878 -1.9863
 1980TIP3   OH227498   4.690   4.638   2.245 -0.3486 -0.2684 -0.3292
 1980TIP3    H127499   4.682   4.609   2.336 -3.7984  0.4819 -0.2730
 1980TIP3    H227500   4.651   4.567   2.194  0.8714 -0.3402 -1.1978
 1981TIP3   OH227501   2.425   1.664   3.959 -0.2883  0.0696  0.3227
 1981TIP3    H127502   2.355   1.676   3.895  0.5668  1.3170 -0.4278
 1981TIP3    H227503   2.399   1.719   4.033  0.4297  1.4447 -0.4243
 1982TIP3   OH227504   3.957   1.889   2.209 -0.1317 -0.7738  0.2461
 1982TIP3    H127505   3.963   1.977   2.172 -0.2942 -1.4955 -1.5961
 1982TIP3    H227506   3.864   1.880   2.233 -0.6331 -1.1597 -1.6118
 1983TIP3   OH227507   3.417   0.904   0.960 -0.1095  0.8957  0.1071
 1983TIP3    H127508   3.508   0.931   0.948 -0.1688  0.8232 -0.5347
 1983TIP3    H227509   3.373   0.932   0.880 -0.2171 -0.9140 -0.4995
 1984TIP3   OH227510   5.835   2.860   3.247 -0.1107  0.3129  0.2092
 1984TIP3    H127511   5.800   2.775   3.272 -0.5524  0.6776  0.8800
 1984TIP3    H227512   5.761   2.920   3.255  0.3747  0.8946  0.5136
 1985TIP3   OH227513   4.560   1.445   0.321  0.0136  0.5046 -0.3862
 1985TIP3    H127514   4.586   1.480   0.407  0.8882  1.5542 -1.0589
 1985TIP3    H227515   4.642   1.420   0.280 -0.3923  0.1682 -0.9956
 1986TIP3   OH227516   2.533   3.463   0.271 -0.3179  0.3168  0.4171
 1986TIP3    H127517   2.515   3.556   0.281 -2.3012 -0.0489  0.7924
 1986TIP3    H227518   2.450   3.426   0.239  1.3217 -0.8541 -3.0467
 1987TIP3   OH227519   6.769   0.568   8.611 -0.5769 -0.1410 -0.4366
 1987TIP3    H127520   6.824   0.496   8.580 -0.7633 -0.1572 -0.7329
 1987TIP3    H227521   6.770   0.560   8.707  2.3425  1.6338 -0.2180
 1988TIP3   OH227522   5.508   4.828   2.566  0.2693 -0.6895  0.5729
 1988TIP3    H127523   5.475   4.740   2.553 -1.2196 -0.1634  0.5740
 1988TIP3    H227524   5.598   4.817   2.594  0.6629 -2.1513 -1.1515
 1989TIP3   OH227525   4.761   5.923   0.194  0.6420 -0.1459 -0.3561
 1989TIP3    H127526   4.816   5.976   0.252 -0.5829 -0.8957  1.6326
 1989TIP3    H227527   4.690   5.982   0.168  1.8204  0.5498 -2.1729
 1990TIP3   OH227528   5.132   3.224   8.215  0.8047 -0.9433  0.5408
 1990TIP3    H127529   5.227   3.237   8.212  0.7210 -0.3860  0.2884
 1990TIP3    H227530   5.121   3.143   8.266  1.3449 -0.2879  1.7501
 1991TIP3   OH227531   1.262   2.188   0.685  0.3618  0.1632  0.2902
 1991TIP3    H127532   1.298   2.138   0.758  1.2953  0.0024 -0.2646
 1991TIP3    H227533   1.265   2.279   0.715 -0.5825 -0.0185  0.9852
 1992TIP3   OH227534   2.881   1.626   3.911  0.5773 -0.2525 -0.1942
 1992TIP3    H127535   2.949   1.559   3.903  0.1330 -0.8216  0.6801
 1992TIP3    H227536   2.915   1.700   3.860  0.1523 -1.8147 -2.9149
 1993TIP3   OH227537   1.521   2.050   1.868  0.4078 -0.0857  0.1347
 1993TIP3    H127538   1.540   2.126   1.812 -1.7706  0.9359  0.6720
 1993TIP3    H227539   1.431   2.028   1.848  0.9484 -2.4887  0.1263
 1994TIP3   OH227540   5.774   1.960   8.320 -0.4756  0.0642 -0.2375
 1994TIP3    H127541   5.791   2.039   8.268  0.0319 -0.0568 -0.2620
 1994TIP3    H227542   5.858   1.942   8.364 -0.8932  0.1733  0.6301
 1995TIP3   OH227543   3.642   2.833   2.770  0.5198 -0.3433  0.3295
 1995TIP3    H127544   3.675   2.748   2.797  1.9168  0.3104  0.7637
 1995TIP3    H227545   3.599   2.868   2.848 -0.7186 -0.9412 -0.0628
 1996TIP3   OH227546   4.938   5.619   1.315  0.1428  1.0275 -0.2008
 1996TIP3    H127547   4.890   5.680   1.370 -1.0917 -1.3823  1.5687
 1996TIP3    H227548   4.880   5.543   1.307  1.5671  0.0640 -2.3339
 1997TIP3   OH227549   0.711   2.182   2.841  0.7547 -0.3730  0.1470
 1997TIP3    H127550   0.772   2.237   2.792 -0.1263  0.6856  0.2067
 1997TIP3    H227551   0.748   2.177   2.929  0.9380 -0.0287  0.0902
 1998TIP3   OH227552   6.298   2.774   0.605 -0.2769 -0.6947 -0.8584
 1998TIP3    H127553   6.392   2.759   0.606  0.1953  1.8523  0.1350
 1998TIP3    H227554   6.288   2.861   0.567 -1.8518  0.7628  2.4867
 1999TIP3   OH227555   2.219   1.662   0.939 -0.1923  0.4957 -0.4527
 1999TIP3    H127556   2.136   1.702   0.968  0.6371  1.3294  0.9105
 1999TIP3    H227557   2.278   1.675   1.013  1.9492  2.2862 -2.3106
 2000TIP3   OH227558   4.225   0.748   1.705 -0.4224 -0.3179  0.0742
 2000TIP3    H127559   4.186   0.822   1.658 -1.2683 -0.0144  1.2124
 2000TIP3    H227560   4.188   0.670   1.663 -0.6319 -0.0649 -0.2112
 2001TIP3   OH227561   4.634   6.234   7.948 -0.6569 -0.2220  0.1812
 2001TIP3    H127562   4.725   6.264   7.955 -0.4328 -0.7005 -0.5964
 2001TIP3    H227563   4.588   6.309   7.912  0.0465 -0.9780 -2.4897
 2002TIP3   OH227564   6.044   6.471   8.585  0.3405  0.2593  0.3477
 2002TIP3    H127565   6.031   6.382   8.552  0.2960  0.7074 -0.8911
 2002TIP3    H227566   5.970   6.485   8.644 -0.6567  0.0912 -0.8278
 2003TIP3   OH227567   0.954   1.632   1.521  0.0639 -0.2079  0.4251
 2003TIP3    H127568   0.935   1.661   1.432 -1.5922  1.3350  1.2192
 2003TIP3    H227569   1.045   1.604   1.518  0.1795  0.2279 -1.6472
 2004TIP3   OH227570   6.867   2.446   1.521 -0.3247 -0.1272  0.1928
 2004TIP3    H127571   6.831   2.500   1.591  0.2169 -0.7573  0.9741
 2004TIP3    H227572   6.827   2.481   1.441 -2.2547 -0.4511  0.9555
 2005TIP3   OH227573   2.076   3.315   2.933  0.2874  0.2347  0.5580
 2005TIP3    H127574   2.146   3.377   2.914  0.5853 -0.5808 -1.1823
 2005TIP3    H227575   2.092   3.289   3.024  1.8841  0.5278  0.4020
 2006TIP3   OH227576   3.526   6.043   3.715 -0.0241  0.7423  0.0466
 2006TIP3    H127577   3.571   5.964   3.685  1.4419  0.6670  2.1946
 2006TIP3    H227578   3.480   6.075   3.638  0.3297 -1.5204 -1.2062
 2007TIP3   OH227579   4.521   5.999   2.766  0.2991  0.2550 -0.5394
 2007TIP3    H127580   4.607   6.041   2.759  0.9796 -1.1166 -0.6847
 2007TIP3    H227581   4.540   5.911   2.798 -1.2488  0.6133  1.5778
 2008TIP3   OH227582   5.464   5.133   8.459 -0.1769  0.3852 -0.2501
 2008TIP3    H127583   5.508   5.217   8.471 -0.9176  0.9269 -1.1305
 2008TIP3    H227584   5.372   5.151   8.480 -0.4687 -0.0043 -1.1325
 2009TIP3   OH227585   3.398   4.506   2.492  0.0981 -0.1427 -0.5204
 2009TIP3    H127586   3.396   4.579   2.554 -0.3286 -0.0575 -0.6315
 2009TIP3    H227587   3.313   4.462   2.504  1.4228 -2.3486  1.5959
 2010TIP3   OH227588   3.395   1.911   2.003 -0.5715  0.0262  0.1781
 2010TIP3    H127589   3.464   1.976   2.003 -0.2549 -0.2999  0.7345
 2010TIP3    H227590   3.331   1.943   1.939  0.4644 -0.0754 -0.9532
 2011TIP3   OH227591   1.478   3.868   3.844  0.6632  0.6013  0.2120
 2011TIP3    H127592   1.462   3.869   3.750 -0.6585  2.4843  0.4052
 2011TIP3    H227593   1.393   3.889   3.883  0.5783 -2.4974  1.9930
 2012TIP3   OH227594   2.170   4.047   0.073 -0.1766  0.4979  0.1455
 2012TIP3    H127595   2.100   3.993   0.037 -1.1984  1.5899  0.4323
 2012TIP3    H227596   2.169   4.029   0.167 -1.0666  1.5691  0.3674
 2013TIP3   OH227597   6.864   6.835   1.241  0.2173  0.1480 -0.4813
 2013TIP3    H127598   6.930   6.901   1.263  0.0670  0.1323  0.0303
 2013TIP3    H227599   6.908   6.751   1.254  0.4603  0.1432 -1.2939
 2014TIP3   OH227600   6.050   6.303   1.154  0.2740  0.4401 -0.0296
 2014TIP3    H127601   6.097   6.385   1.162 -1.2385  1.2993  0.5090
 2014TIP3    H227602   6.030   6.295   1.061  1.2381  0.1895 -0.2224
 2015TIP3   OH227603   5.916   3.777   8.657  0.4547 -0.3906  0.2164
 2015TIP3    H127604   5.977   3.850   8.652  0.4500 -0.3609  0.5864
 2015TIP3    H227605   5.967   3.700   8.633  0.0629 -0.0595 -1.8844
 2016TIP3   OH227606   4.586   5.720   0.659  0.6483  0.0867  0.2268
 2016TIP3    H127607   4.671   5.720   0.703  0.6732  0.6938  0.1808
 2016TIP3    H227608   4.589   5.796   0.601  0.2699 -0.1869 -0.1568
 2017TIP3   OH227609   2.572   2.350   8.616 -0.2734 -0.3781  0.3875
 2017TIP3    H127610   2.573   2.435   8.660 -0.1954  0.9223 -1.9531
 2017TIP3    H227611   2.583   2.287   8.686  2.4102  1.6503  2.0022
 2018TIP3   OH227612   6.827   1.011   7.380 -0.0543  0.3615  0.2874
 2018TIP3    H127613   6.901   0.962   7.417  0.1398 -0.6621 -1.3530
 2018TIP3    H227614   6.751   0.955   7.396  0.1479 -0.4815 -1.4712
 2019TIP3   OH227615   1.324   2.072   8.156  0.2317 -0.3838 -0.5453
 2019TIP3    H127616   1.333   1.991   8.107  0.3783 -0.5407 -0.2614
 2019TIP3    H227617   1.264   2.051   8.228  0.4681 -0.3110 -0.3242
 2020TIP3   OH227618   5.547   2.224   2.233 -0.2246 -0.1458 -0.4220
 2020TIP3    H127619   5.596   2.287   2.286 -2.6031  0.3952  1.3034
 2020TIP3    H227620   5.531   2.270   2.150  1.1860  0.0662 -0.5971
 2021TIP3   OH227621   0.663   1.578   1.781  0.0199 -0.3682 -0.5854
 2021TIP3    H127622   0.605   1.559   1.855  0.6450  0.1698  0.0628
 2021TIP3    H227623   0.667   1.674   1.778 -0.6896 -0.3631 -1.8848
 2022TIP3   OH227624   5.407   6.149   1.820 -0.8615 -0.3635 -0.2629
 2022TIP3    H127625   5.453   6.230   1.844 -2.0291 -0.0724  1.1191
 2022TIP3    H227626   5.429   6.136   1.727 -1.4029  2.0908 -0.8144
 2023TIP3   OH227627   3.446   2.990   1.642 -0.0235  0.1780 -0.1363
 2023TIP3    H127628   3.354   3.007   1.662 -0.3280 -0.4723 -0.9449
 2023TIP3    H227629   3.451   2.896   1.626  1.2080 -0.1900  2.0360
 2024TIP3   OH227630   2.805   4.893   2.056  0.0339 -0.0436  0.1163
 2024TIP3    H127631   2.900   4.907   2.054 -0.1240  1.1623 -1.9283
 2024TIP3    H227632   2.777   4.933   2.138  1.4941 -2.3476  1.8572
 2025TIP3   OH227633   4.741   1.675   1.389  0.1109 -0.1146 -0.3010
 2025TIP3    H127634   4.782   1.762   1.389  0.5924 -0.3151 -1.5953
 2025TIP3    H227635   4.769   1.635   1.471 -1.3320  1.4726  1.0655
 2026TIP3   OH227636   5.176   1.028   0.480  0.5034  0.4423 -0.1722
 2026TIP3    H127637   5.222   1.080   0.546 -0.6611  2.0215 -0.5499
 2026TIP3    H227638   5.083   1.046   0.496  0.1303 -0.3515 -1.2865
 2027TIP3   OH227639   5.955   0.374   2.764  0.0056 -0.5089 -0.0362
 2027TIP3    H127640   5.980   0.317   2.837  0.1664 -1.2385 -0.6456
 2027TIP3    H227641   6.036   0.420   2.741  0.0937 -0.7017 -0.1176
 2028TIP3   OH227642   2.659   5.082   3.993  0.1399  0.0631  0.4311
 2028TIP3    H127643   2.564   5.067   3.988  0.1974 -0.9092  1.7057
 2028TIP3    H227644   2.697   4.995   4.002  1.1415  0.4613  0.1646
 2029TIP3   OH227645   3.047   5.704   1.142  0.1934 -0.3560  0.2439
 2029TIP3    H127646   3.029   5.610   1.146 -1.0369 -0.2583 -1.7922
 2029TIP3    H227647   3.116   5.712   1.076 -1.3227  0.3159 -1.3203
 2030TIP3   OH227648   3.308   2.623   2.845 -0.5360  0.0019  0.0047
 2030TIP3    H127649   3.364   2.586   2.914  0.5952  0.3163 -0.7320
 2030TIP3    H227650   3.220   2.624   2.885 -0.0676 -0.6421  1.1218
 2031TIP3   OH227651   0.331   0.307   2.058  0.4762  1.0572 -0.1003
 2031TIP3    H127652   0.323   0.402   2.069  1.7877  1.0634  1.0409
 2031TIP3    H227653   0.375   0.297   1.974  0.0515  1.4371 -0.3753
 2032TIP3   OH227654   6.006   2.145   0.004  0.4286  0.0796 -0.3730
 2032TIP3    H127655   6.067   2.182  -0.059  1.1923  1.5799  1.1567
 2032TIP3    H227656   5.944   2.216   0.022  0.5399 -0.1183  0.9206
 2033TIP3   OH227657   3.892   6.664   1.814  0.0542 -0.0238 -0.3175
 2033TIP3    H127658   3.854   6.627   1.734 -1.1416  1.5218 -0.5093
 2033TIP3    H227659   3.828   6.644   1.882  0.8261 -0.8865  0.1753
 2034TIP3   OH227660   2.131   0.982   0.235  0.1677  0.3167 -0.4163
 2034TIP3    H127661   2.192   1.041   0.190  0.2942  0.1790 -0.4249
 2034TIP3    H227662   2.111   1.027   0.317  1.2157 -0.1894  0.1286
 2035TIP3   OH227663   4.841   3.480   3.438 -0.0199  0.7875  0.1752
 2035TIP3    H127664   4.850   3.397   3.484 -1.6240  0.3633 -0.2352
 2035TIP3    H227665   4.808   3.457   3.351  0.5680  1.7801 -0.3350
 2036TIP3   OH227666   3.487   6.435   2.776  0.9478  0.4341  0.4987
 2036TIP3    H127667   3.522   6.391   2.854  1.7166  0.4857  0.1943
 2036TIP3    H227668   3.444   6.513   2.810  0.8336  0.1915  0.9177
 2037TIP3   OH227669   3.963   4.494   3.188  0.4262  0.3651  0.0888
 2037TIP3    H127670   3.891   4.454   3.238  1.1422  1.1101  1.7838
 2037TIP3    H227671   3.966   4.584   3.219  0.4498  1.0819 -1.8669
 2038TIP3   OH227672   1.393   2.811   3.527 -0.2121 -0.5400  0.8205
 2038TIP3    H127673   1.343   2.833   3.606 -0.7692 -0.3740  0.4358
 2038TIP3    H227674   1.440   2.892   3.506 -0.9595 -0.2100  0.3479
 2039TIP3   OH227675   0.133   2.525   2.003 -0.1116 -0.1004 -0.5334
 2039TIP3    H127676   0.200   2.591   2.023  0.1087  0.2340 -2.1904
 2039TIP3    H227677   0.182   2.452   1.966 -0.5911 -0.0938 -1.2060
 2040TIP3   OH227678   4.462   5.927   3.093  0.1000 -0.2760 -0.0177
 2040TIP3    H127679   4.503   5.895   3.173  0.1404 -1.1553 -0.3762
 2040TIP3    H227680   4.455   6.022   3.105 -0.1655 -0.4331  1.1419
 2041TIP3   OH227681   5.803   3.761   0.247 -0.0546 -0.5626 -0.6891
 2041TIP3    H127682   5.833   3.817   0.319  1.1833 -1.1933 -0.6945
 2041TIP3    H227683   5.854   3.789   0.172 -1.3245  0.0711 -1.3414
 2042TIP3   OH227684   6.817   1.728   1.782  0.6384  0.5918 -0.0234
 2042TIP3    H127685   6.781   1.684   1.705  1.0298 -0.0565  0.1488
 2042TIP3    H227686   6.895   1.676   1.804  0.8643  1.1214  0.4540
 2043TIP3   OH227687   5.548   2.273   1.135  0.8151  0.0831 -1.1679
 2043TIP3    H127688   5.525   2.365   1.148 -0.3513 -0.3852  0.2310
 2043TIP3    H227689   5.588   2.246   1.218 -1.0960 -1.3164 -0.6525
 2044TIP3   OH227690   4.708   0.469   2.063 -0.1480 -0.0342  0.4374
 2044TIP3    H127691   4.674   0.557   2.078  3.0642  1.5579 -0.7645
 2044TIP3    H227692   4.780   0.460   2.125  2.8374  0.3397 -2.6494
 2045TIP3   OH227693   5.209   4.362   2.892 -0.2483  0.0537 -0.2235
 2045TIP3    H127694   5.232   4.452   2.869  0.0189  0.1186  0.2822
 2045TIP3    H227695   5.259   4.308   2.830  1.4736  0.1833  0.9819
 2046TIP3   OH227696   1.337   6.365   1.879  0.1349 -0.5009 -0.3157
 2046TIP3    H127697   1.357   6.300   1.812  1.1698  2.3270 -2.9286
 2046TIP3    H227698   1.419   6.376   1.927  0.1928 -0.5180 -0.4114
 2047TIP3   OH227699   5.663   4.910   3.193  0.1403  0.7652 -0.4117
 2047TIP3    H127700   5.662   5.006   3.201 -0.0760  0.6420  1.9605
 2047TIP3    H227701   5.751   4.885   3.223 -0.1054  0.1813 -0.1687
 2048TIP3   OH227702   2.417   6.235   1.387 -0.0475  0.4534 -0.5649
 2048TIP3    H127703   2.510   6.224   1.371  0.3532  1.8917  0.5245
 2048TIP3    H227704   2.397   6.176   1.459  0.5298  1.6233  0.6039
 2049TIP3   OH227705   3.847   6.518   7.529 -0.1574 -0.0354  0.4984
 2049TIP3    H127706   3.816   6.443   7.478  2.2729 -1.5993  1.1608
 2049TIP3    H227707   3.817   6.501   7.618  3.4146 -2.3608  1.4871
 2050TIP3   OH227708   1.168   5.381   3.849 -0.4836  0.1525 -0.2606
 2050TIP3    H127709   1.257   5.414   3.842  0.1385 -0.8851  2.0880
 2050TIP3    H227710   1.122   5.447   3.900 -0.0509 -1.0300  1.7340
 2051TIP3   OH227711   1.628   4.639   1.133 -0.4023  0.5354 -0.1784
 2051TIP3    H127712   1.585   4.681   1.207 -1.4390  0.7128 -0.8626
 2051TIP3    H227713   1.558   4.627   1.068  0.4219  0.1188 -1.0106
 2052TIP3   OH227714   3.570   6.438   3.431 -0.1846  0.1979 -0.1386
 2052TIP3    H127715   3.560   6.532   3.446  2.0430  0.5421 -0.4488
 2052TIP3    H227716   3.532   6.424   3.344  0.5737  1.0729 -0.6304
 2053TIP3   OH227717   0.773   0.132   1.657  0.2680  0.2670  0.5725
 2053TIP3    H127718   0.852   0.145   1.605  0.2515  2.9388  1.1081
 2053TIP3    H227719   0.724   0.065   1.609  1.2964  0.9748 -1.5829
 2054TIP3   OH227720   5.308   5.301   2.812 -0.0063 -0.0193 -0.1101
 2054TIP3    H127721   5.294   5.276   2.903  0.2753 -0.8517 -0.2883
 2054TIP3    H227722   5.296   5.220   2.762  1.5807  0.0452 -0.6371
 2055TIP3   OH227723   1.127   2.014   8.349 -0.2180 -0.3357 -0.6414
 2055TIP3    H127724   1.085   2.020   8.435  0.3860  2.3734 -0.4285
 2055TIP3    H227725   1.059   2.043   8.288  0.2933  0.8472 -0.6725
 2056TIP3   OH227726   6.393   6.072   1.973 -0.6171 -0.1207 -0.3457
 2056TIP3    H127727   6.382   6.054   1.880  0.3194  0.9816 -0.6934
 2056TIP3    H227728   6.327   6.018   2.016 -0.7511 -0.9974 -1.6102
 2057TIP3   OH227729   1.434   4.351   2.245 -0.0088 -0.2656 -0.2689
 2057TIP3    H127730   1.516   4.400   2.236 -0.3229 -0.1026 -2.7524
 2057TIP3    H227731   1.462   4.261   2.266  0.8725 -0.3643 -1.7457
 2058TIP3   OH227732   1.892   1.481   1.263 -0.3127 -0.1740 -0.1296
 2058TIP3    H127733   1.941   1.468   1.182 -0.2590 -1.0891  0.0318
 2058TIP3    H227734   1.805   1.446   1.245 -1.2217  2.2070 -0.6823
 2059TIP3   OH227735   0.716   0.501   1.232  0.4345  0.0292 -0.0494
 2059TIP3    H127736   0.731   0.496   1.137  2.4931  0.9320  0.1526
 2059TIP3    H227737   0.731   0.412   1.263 -5.6394 -1.7423 -1.0294
 2060TIP3   OH227738   2.907   6.106   1.487 -0.8223 -0.1248  0.4211
 2060TIP3    H127739   2.932   6.103   1.395 -0.9626  1.3606  0.3048
 2060TIP3    H227740   2.972   6.052   1.532 -1.0736 -1.3027 -0.5983
 2061TIP3   OH227741   5.010   1.637   2.439 -0.2807  0.5628  0.3215
 2061TIP3    H127742   5.015   1.683   2.355 -2.7406  1.3046  0.5113
 2061TIP3    H227743   5.004   1.707   2.504 -1.0716 -0.0117  0.8754
 2062TIP3   OH227744   3.939   1.888   7.899 -0.0954 -0.1026 -0.0203
 2062TIP3    H127745   3.964   1.811   7.849  0.8160  0.3650 -0.3046
 2062TIP3    H227746   3.974   1.873   7.987  0.2757  0.0839 -0.1356
 2063TIP3   OH227747   3.805   6.820   2.375  0.2609  0.4537 -0.3515
 2063TIP3    H127748   3.755   6.771   2.440  1.2199 -0.4868 -0.2856
 2063TIP3    H227749   3.857   6.882   2.426  1.1515 -0.4073 -0.1529
 2064TIP3   OH227750   3.337   0.308   3.381 -0.0997 -0.5754 -0.2188
 2064TIP3    H127751   3.260   0.311   3.438 -0.8805 -0.2996 -1.2397
 2064TIP3    H227752   3.343   0.216   3.354 -1.1081 -0.3172 -1.4439
 2065TIP3   OH227753   0.050   3.593   0.113  0.4855  0.5249 -0.0442
 2065TIP3    H127754  -0.011   3.648   0.161  1.6602  0.1221  2.0186
 2065TIP3    H227755  -0.006   3.530   0.066 -0.7567  1.9800 -0.5803
 2066TIP3   OH227756   0.044   0.484   0.906  0.3175  0.5708  0.3741
 2066TIP3    H127757  -0.006   0.402   0.896  0.4935  0.5884 -0.7993
 2066TIP3    H227758   0.094   0.472   0.986  0.8942 -0.7848 -0.1634
 2067TIP3   OH227759   1.425   1.632   7.864  0.0052  0.2326 -0.4943
 2067TIP3    H127760   1.369   1.587   7.800  1.0049 -1.3484 -0.3125
 2067TIP3    H227761   1.514   1.618   7.832  0.3695  1.9317 -0.2915
 2068TIP3   OH227762   4.397   4.246   0.519  0.1591  0.1250 -0.2580
 2068TIP3    H127763   4.461   4.305   0.479  0.7677 -0.0915  0.3810
 2068TIP3    H227764   4.389   4.276   0.609 -0.1786 -0.2364 -0.1641
 2069TIP3   OH227765   4.395   2.290   1.082 -0.4002  0.2454  0.1775
 2069TIP3    H127766   4.417   2.349   1.010  0.6462  1.2922  1.3155
 2069TIP3    H227767   4.478   2.253   1.109 -0.5588  1.0140  1.8053
 2070TIP3   OH227768   4.522   0.319   3.333  0.2364  0.4046 -0.6068
 2070TIP3    H127769   4.469   0.253   3.377  1.3172 -0.0458  0.0755
 2070TIP3    H227770   4.596   0.270   3.296  0.0628  0.9726 -1.7652
 2071TIP3   OH227771   5.201   3.668   0.167  0.0710 -0.3034 -0.4945
 2071TIP3    H127772   5.267   3.635   0.106  0.7106  1.7511 -1.0062
 2071TIP3    H227773   5.250   3.720   0.230 -0.7185 -1.4988  1.1809
 2072TIP3   OH227774   4.082   3.927   1.255 -0.0729 -0.7538 -0.1355
 2072TIP3    H127775   4.094   3.925   1.350 -1.8422  1.5621  0.2454
 2072TIP3    H227776   3.988   3.912   1.243  0.3610 -2.5653 -1.6791
 2073TIP3   OH227777   2.104   0.587   2.519  0.7473  0.0577  0.5226
 2073TIP3    H127778   2.177   0.531   2.494 -0.3297 -1.8368  1.4486
 2073TIP3    H227779   2.030   0.554   2.467 -0.0689  0.1409  1.6028
 2074TIP3   OH227780   5.309   5.941   0.325  0.1066  0.5766 -0.1840
 2074TIP3    H127781   5.403   5.955   0.329  0.2656 -0.4238  0.0353
 2074TIP3    H227782   5.285   5.913   0.414 -0.1087 -0.6972 -0.6109
 2075TIP3   OH227783   5.970   1.537   0.644  0.1390 -0.0612 -0.2765
 2075TIP3    H127784   5.926   1.456   0.615 -1.7361  0.6029  0.5648
 2075TIP3    H227785   6.009   1.572   0.564 -0.6726 -0.8267 -1.0341
 2076TIP3   OH227786   4.387   1.075   8.476 -0.3005 -0.1097  0.8283
 2076TIP3    H127787   4.314   1.018   8.502 -0.7329 -0.4155 -0.9462
 2076TIP3    H227788   4.437   1.023   8.414  0.7676  0.5418  1.1284
 2077TIP3   OH227789   0.167   0.262   1.560 -0.5547 -0.0238  0.2758
 2077TIP3    H127790   0.108   0.203   1.607 -0.9192 -0.5716 -0.8349
 2077TIP3    H227791   0.254   0.223   1.573 -0.7732 -0.7460 -0.3231
 2078TIP3   OH227792   0.546   0.166   1.247 -0.2550  0.1556  0.1613
 2078TIP3    H127793   0.632   0.198   1.273 -0.3529 -0.8683  1.9014
 2078TIP3    H227794   0.492   0.244   1.240  0.6140  0.7401 -0.1830
 2079TIP3   OH227795   2.873   6.799   2.259 -0.3870 -0.3150  0.2812
 2079TIP3    H127796   2.829   6.856   2.323 -1.3413 -0.6116 -0.0860
 2079TIP3    H227797   2.829   6.715   2.269 -2.2689  0.2213 -2.4094
 2080TIP3   OH227798   0.908   0.158   0.796 -0.0326  0.3437  0.1521
 2080TIP3    H127799   0.995   0.127   0.823 -0.2673  0.7043  1.3711
 2080TIP3    H227800   0.865   0.080   0.761  1.3260  0.4754 -2.0426
 2081TIP3   OH227801   0.946   3.135   1.206 -0.4946  0.6346 -0.1681
 2081TIP3    H127802   1.035   3.167   1.192 -0.2947 -0.0322 -0.4834
 2081TIP3    H227803   0.890   3.204   1.170 -0.0330 -0.2292 -2.7638
 2082TIP3   OH227804   6.811   6.514   0.237  0.0665 -0.4917  0.1959
 2082TIP3    H127805   6.843   6.579   0.298  0.7307 -1.5928  1.0624
 2082TIP3    H227806   6.818   6.556   0.151  0.4361  0.5776  0.7320
 2083TIP3   OH227807   1.320   1.074   0.016  0.1139 -0.3344 -0.4371
 2083TIP3    H127808   1.409   1.064   0.052  1.5248  0.0126 -3.4908
 2083TIP3    H227809   1.319   1.162  -0.021 -0.7124 -1.0995 -2.3513
 2084TIP3   OH227810   5.557   0.413   0.564 -0.1879 -0.0782  0.9899
 2084TIP3    H127811   5.572   0.319   0.559 -0.0635  0.0037 -1.6143
 2084TIP3    H227812   5.638   0.448   0.602  0.7435 -0.8583 -0.2021
 2085TIP3   OH227813   3.911   2.048   7.656 -0.3394 -0.2577 -0.4223
 2085TIP3    H127814   3.924   2.006   7.741  0.1979  0.0280 -0.3623
 2085TIP3    H227815   3.836   2.105   7.670  1.7352  2.3600  0.8543
 2086TIP3   OH227816   0.555   6.092   2.897 -0.0254  0.2538  0.2442
 2086TIP3    H127817   0.609   6.055   2.827 -0.2353  1.9574 -0.8754
 2086TIP3    H227818   0.585   6.183   2.905 -0.8312  0.4334  1.5533
 2087TIP3   OH227819   5.206   2.350   2.711  0.1166 -0.0621  0.8892
 2087TIP3    H127820   5.118   2.314   2.720 -1.5880  2.9911 -1.6749
 2087TIP3    H227821   5.207   2.427   2.769  1.0804 -0.0031  0.8184
 2088TIP3   OH227822   5.578   1.068   1.943 -0.0440  0.0693  0.1173
 2088TIP3    H127823   5.672   1.066   1.962  0.2935  0.5956 -1.3649
 2088TIP3    H227824   5.557   0.979   1.916 -0.2203 -0.3182  1.4614
 2089TIP3   OH227825   0.679   3.401   2.013 -0.0898  0.3688 -0.1269
 2089TIP3    H127826   0.669   3.314   2.052 -0.5557  0.5538  0.1812
 2089TIP3    H227827   0.721   3.385   1.928 -1.6009 -0.3306 -0.7846
 2090TIP3   OH227828   1.986   6.132   1.948 -0.4176 -0.7190  0.5779
 2090TIP3    H127829   1.926   6.193   1.905 -2.2102 -1.5365  1.8205
 2090TIP3    H227830   2.035   6.186   2.010 -0.4702 -0.1863  0.1602
 2091TIP3   OH227831   1.146   2.475   1.414  0.5272  0.2991 -0.4322
 2091TIP3    H127832   1.100   2.405   1.366  0.0364  0.5251 -0.2981
 2091TIP3    H227833   1.129   2.554   1.364 -0.0475  0.5508  0.1375
 2092TIP3   OH227834   4.828   3.551   8.146  0.7825 -0.3252  0.4948
 2092TIP3    H127835   4.858   3.620   8.087  0.0710 -0.7419 -0.3896
 2092TIP3    H227836   4.808   3.595   8.228 -0.3603  0.6560 -0.2771
 2093TIP3   OH227837   2.754   4.084   1.772 -0.2341 -0.3948 -1.0027
 2093TIP3    H127838   2.687   4.100   1.839  1.6224  2.6779  0.3227
 2093TIP3    H227839   2.732   4.146   1.702  0.4921 -0.2568 -1.1111
 2094TIP3   OH227840   0.262   5.517   8.311  0.7625  0.1106  0.6198
 2094TIP3    H127841   0.230   5.463   8.238 -0.8944  0.2721  1.1754
 2094TIP3    H227842   0.252   5.607   8.280  1.6195  0.1476  0.4413
 2095TIP3   OH227843   6.566   4.839   1.844 -0.0447  0.1965 -0.4411
 2095TIP3    H127844   6.647   4.867   1.886 -1.1582 -0.3244  2.2909
 2095TIP3    H227845   6.516   4.797   1.914 -1.2852 -2.5502 -2.7943
 2096TIP3   OH227846   6.536   1.567   2.980  0.2299 -0.4355 -0.0648
 2096TIP3    H127847   6.594   1.604   2.913  0.2724 -1.5074 -0.6403
 2096TIP3    H227848   6.593   1.555   3.056  0.0687  1.2585  0.3739
 2097TIP3   OH227849   4.584   3.049   1.171 -0.6095  0.2095  0.2111
 2097TIP3    H127850   4.556   3.137   1.148 -2.2339 -0.4401 -0.4173
 2097TIP3    H227851   4.587   3.048   1.266 -0.3977  0.9786  0.2187
 2098TIP3   OH227852   4.162   2.544   1.455 -0.5908  0.4844 -0.0190
 2098TIP3    H127853   4.070   2.520   1.449 -0.1956 -0.8746 -1.3864
 2098TIP3    H227854   4.164   2.636   1.428 -1.6748  0.9324  1.3242
 2099TIP3   OH227855   4.561   4.134   2.657 -0.1833 -0.1555 -0.1329
 2099TIP3    H127856   4.548   4.049   2.700  1.1967 -0.5916 -0.5040
 2099TIP3    H227857   4.556   4.198   2.729 -0.5791 -0.6165  0.2564
 2100TIP3   OH227858   3.609   5.812   8.485 -0.1723  0.1517  0.3420
 2100TIP3    H127859   3.639   5.903   8.491 -0.8287  0.5030 -1.2194
 2100TIP3    H227860   3.687   5.763   8.460  0.1647  0.2946  1.1017
 2101TIP3   OH227861   3.753   3.380   2.873 -0.1742 -0.3589 -0.0566
 2101TIP3    H127862   3.764   3.360   2.966  0.3804  1.2467  0.2706
 2101TIP3    H227863   3.659   3.368   2.857 -0.8281  1.9407  1.4512
 2102TIP3   OH227864   4.731   6.591   1.788 -0.3241  0.1016 -0.0538
 2102TIP3    H127865   4.656   6.538   1.760 -0.1676  0.0335 -0.3529
 2102TIP3    H227866   4.725   6.593   1.883 -1.1042  0.6763 -0.1016
 2103TIP3   OH227867   6.426   6.095   0.022  0.2574 -0.9555 -0.3905
 2103TIP3    H127868   6.346   6.058   0.058 -0.8418  0.8543 -0.9023
 2103TIP3    H227869   6.446   6.170   0.078  0.4043 -0.1275 -1.5150
 2104TIP3   OH227870   1.750   2.879   0.744 -0.5933 -0.2113 -0.1011
 2104TIP3    H127871   1.672   2.882   0.688  0.4524  2.7538 -1.6059
 2104TIP3    H227872   1.723   2.921   0.825 -0.1246  2.8709 -1.4223
 2105TIP3   OH227873   1.350   0.728   0.874 -0.3671  0.6064 -0.2141
 2105TIP3    H127874   1.339   0.821   0.894  0.6936  0.2825  2.2460
 2105TIP3    H227875   1.443   0.719   0.853 -0.1317 -0.0776  1.0102
 2106TIP3   OH227876   1.853   1.749   0.225  0.2653  0.1594 -0.5761
 2106TIP3    H127877   1.761   1.727   0.207 -0.2261  0.9072  0.8645
 2106TIP3    H227878   1.856   1.762   0.320  1.9270 -0.1049 -0.5764
 2107TIP3   OH227879   0.257   6.248   1.563 -1.2013  0.1123  0.3218
 2107TIP3    H127880   0.299   6.300   1.631 -0.0432  0.0798 -0.3313
 2107TIP3    H227881   0.300   6.275   1.482 -1.7043 -0.7095 -0.2398
 2108TIP3   OH227882   6.482   4.759   1.263 -0.4086 -0.3420  0.0588
 2108TIP3    H127883   6.490   4.752   1.358 -0.1537  0.8556  0.1451
 2108TIP3    H227884   6.525   4.842   1.242 -1.2652 -0.1515 -0.9999
 2109TIP3   OH227885   3.944   6.041   1.057  0.4415  0.3981 -0.0014
 2109TIP3    H127886   3.852   6.065   1.044  0.6520  0.6560 -1.1999
 2109TIP3    H227887   3.988   6.072   0.977  1.2524 -1.3412 -0.2710
 2110TIP3   OH227888   2.736   3.205   3.818 -0.1080  0.1320 -0.5734
 2110TIP3    H127889   2.759   3.203   3.911 -0.9531 -0.3467 -0.3661
 2110TIP3    H227890   2.656   3.258   3.814 -1.4232 -1.7766 -0.6999
 2111TIP3   OH227891   3.723   4.188   1.975  0.0657  0.4593  0.3140
 2111TIP3    H127892   3.776   4.210   2.052  2.8755 -0.2599 -1.2997
 2111TIP3    H227893   3.676   4.108   2.002  0.9480  0.2480  1.3137
 2112TIP3   OH227894   2.462   5.775   1.605  0.6288 -0.5630  0.2230
 2112TIP3    H127895   2.408   5.713   1.655 -0.5310  0.6615  0.5340
 2112TIP3    H227896   2.528   5.720   1.563 -0.5688 -2.0569  0.2125
 2113TIP3   OH227897   0.341   1.065   0.238 -0.5253 -0.0067 -0.3511
 2113TIP3    H127898   0.404   1.075   0.166  0.1321  0.4597  0.2771
 2113TIP3    H227899   0.285   0.992   0.211 -0.1117 -0.0188 -1.2063
 2114TIP3   OH227900   1.737   2.559   0.962 -0.0059 -0.5340  0.1558
 2114TIP3    H127901   1.748   2.468   0.934 -0.3827 -0.1069 -1.5040
 2114TIP3    H227902   1.824   2.587   0.989 -0.0868 -1.6920  1.7643
 2115TIP3   OH227903   2.298   5.817   0.623 -0.6989 -0.3793  0.1606
 2115TIP3    H127904   2.334   5.731   0.602  1.2057 -0.1485  2.1464
 2115TIP3    H227905   2.210   5.798   0.657 -0.1168 -1.6003  1.0471
 2116TIP3   OH227906   2.675   6.707   1.471 -0.3023  0.3558  0.1879
 2116TIP3    H127907   2.729   6.687   1.547  1.0946 -0.8027 -1.0438
 2116TIP3    H227908   2.630   6.624   1.451 -1.3683  0.8992  0.2926
 2117TIP3   OH227909   4.470   0.927   8.251  0.0627 -0.4530 -0.1895
 2117TIP3    H127910   4.563   0.923   8.231  1.0663  1.0121  3.4183
 2117TIP3    H227911   4.451   0.844   8.296  0.4941  0.4375  1.7669
 2118TIP3   OH227912   0.853   6.528   1.623 -0.3208  0.3513 -0.0881
 2118TIP3    H127913   0.948   6.534   1.607 -0.1752  2.2998  1.2087
 2118TIP3    H227914   0.841   6.562   1.711 -2.2240 -0.1458 -0.1123
 2119TIP3   OH227915   2.327   4.148   2.358 -0.6499  0.6279 -0.0916
 2119TIP3    H127916   2.332   4.243   2.348  0.5166  0.5430 -0.4590
 2119TIP3    H227917   2.405   4.115   2.314 -0.0090 -0.3834  1.6901
 2120TIP3   OH227918   4.464   4.658   7.500 -0.3660 -0.8284 -0.4910
 2120TIP3    H127919   4.507   4.608   7.569 -0.5557 -0.0056  0.2403
 2120TIP3    H227920   4.451   4.745   7.538  1.1731  0.2132 -2.1795
 2121TIP3   OH227921   5.906   3.839   7.822  0.8502 -0.5842 -0.0482
 2121TIP3    H127922   5.895   3.859   7.729  1.0517  2.2879  0.4613
 2121TIP3    H227923   5.865   3.753   7.833 -3.0964  0.7946 -2.0126
 2122TIP3   OH227924   6.280   1.230   0.064  0.3905 -0.8756 -0.9494
 2122TIP3    H127925   6.197   1.276   0.051  0.2939 -0.4381  0.9537
 2122TIP3    H227926   6.347   1.297   0.048  0.2722 -0.3368  0.6045
 2123TIP3   OH227927   3.693   4.222   2.454 -0.2206  0.3306 -0.2083
 2123TIP3    H127928   3.724   4.200   2.542 -2.2731 -1.0842  0.2587
 2123TIP3    H227929   3.666   4.138   2.417 -3.2808  1.3187 -0.5244
 2124TIP3   OH227930   5.520   0.477   3.146 -0.0623  0.4445  0.0415
 2124TIP3    H127931   5.472   0.554   3.116 -0.2402  0.0495 -0.6961
 2124TIP3    H227932   5.548   0.500   3.234  0.7342  1.7470 -0.5252
 2125TIP3   OH227933   2.267   4.802   1.613  0.3408  0.1053  0.4459
 2125TIP3    H127934   2.191   4.744   1.621  0.7946 -0.3736  1.3750
 2125TIP3    H227935   2.229   4.889   1.598 -0.3962 -0.1253  0.9461
 2126TIP3   OH227936   5.328   1.206   1.069  0.2781 -0.7405 -0.1151
 2126TIP3    H127937   5.382   1.128   1.071  0.1660 -0.8194 -0.1450
 2126TIP3    H227938   5.242   1.175   1.038  0.1220 -0.6735  0.2504
 2127TIP3   OH227939   2.105   5.717   1.965  0.4094  0.1673  0.2625
 2127TIP3    H127940   2.088   5.749   2.053 -1.1710  0.0850  0.0123
 2127TIP3    H227941   2.049   5.771   1.909  0.5896 -0.4921 -0.5738
 2128TIP3   OH227942   0.500   5.832   0.799  0.0928  0.1789  0.0071
 2128TIP3    H127943   0.595   5.837   0.802  0.0384  1.1128  0.4340
 2128TIP3    H227944   0.478   5.751   0.845  0.6715 -0.0172 -0.0600
 2129TIP3   OH227945   2.695   6.732   2.466 -0.3240 -0.0431 -0.8769
 2129TIP3    H127946   2.635   6.805   2.483 -1.5488 -1.2372  0.1490
 2129TIP3    H227947   2.746   6.724   2.546  0.1175 -0.0511 -1.1562
 2130TIP3   OH227948   3.178   0.971   8.509  0.3085  0.1588 -0.4931
 2130TIP3    H127949   3.227   1.040   8.464  2.0057 -0.2365  0.6684
 2130TIP3    H227950   3.236   0.942   8.579 -0.5883 -2.0826 -0.6036
 2131TIP3   OH227951   5.164   5.261   1.857 -0.6222 -0.5511  0.1392
 2131TIP3    H127952   5.200   5.250   1.945 -1.4772  2.0423  0.9045
 2131TIP3    H227953   5.101   5.189   1.848  0.0441 -1.3240  1.3060
 2132TIP3   OH227954   2.967   2.897   7.631 -0.2857  0.1992 -0.1729
 2132TIP3    H127955   3.021   2.968   7.596  0.4597 -0.5048 -0.4950
 2132TIP3    H227956   2.943   2.927   7.718 -0.8768  1.3051 -0.6847
 2133TIP3   OH227957   2.991   4.258   8.061  0.3975 -0.0830 -0.1960
 2133TIP3    H127958   2.929   4.255   7.988 -0.6959 -0.5833  0.7248
 2133TIP3    H227959   2.963   4.334   8.112  0.6283 -0.2312  0.1511
 2134TIP3   OH227960   6.088   4.145   2.170 -0.1282  0.4832 -0.4710
 2134TIP3    H127961   6.129   4.135   2.256  0.3732 -2.1503 -0.9406
 2134TIP3    H227962   6.161   4.140   2.108 -0.7268 -0.3794 -1.1370
 2135TIP3   OH227963   6.505   2.343   2.818 -0.0913 -0.0385 -0.1050
 2135TIP3    H127964   6.447   2.385   2.755  2.4837 -1.1001 -3.5281
 2135TIP3    H227965   6.466   2.257   2.833 -1.1575  0.5251  0.4651
 2136TIP3   OH227966   0.815   2.180   7.085  0.5035 -0.0187 -0.3613
 2136TIP3    H127967   0.771   2.185   7.169  0.0761 -0.5213 -0.5517
 2136TIP3    H227968   0.811   2.270   7.051  1.9808  0.5205  0.7828
 2137TIP3   OH227969   6.203   1.464   7.468 -0.1331 -0.2861  0.3751
 2137TIP3    H127970   6.239   1.441   7.382 -1.2386 -0.8039  0.0329
 2137TIP3    H227971   6.279   1.477   7.524  0.5862 -2.1964 -0.1008
 2138TIP3   OH227972   0.529   4.989   3.125 -0.3171 -0.3127 -0.3219
 2138TIP3    H127973   0.541   5.066   3.070 -0.7977 -0.5013 -0.6966
 2138TIP3    H227974   0.499   5.024   3.209  1.6025  0.0741  0.2426
 2139TIP3   OH227975   4.890   2.343   1.001 -0.1157 -0.4598  0.0510
 2139TIP3    H127976   4.819   2.302   1.050 -0.0430 -0.4309  0.1794
 2139TIP3    H227977   4.870   2.325   0.909 -0.2454 -0.5215  0.0926
 2140TIP3   OH227978   5.765   3.809   1.127 -0.3092 -0.3230  0.8841
 2140TIP3    H127979   5.815   3.786   1.206 -0.4113 -0.9061  0.7841
 2140TIP3    H227980   5.687   3.753   1.131 -0.1817 -0.5563  0.2345
 2141TIP3   OH227981   3.527   5.940   7.926  0.1622 -0.5891  0.1688
 2141TIP3    H127982   3.572   5.858   7.945  0.1108 -0.7055 -0.1999
 2141TIP3    H227983   3.452   5.914   7.872  0.1714 -0.2963  0.0151
 2142TIP3   OH227984   5.127   5.076   2.656  0.1208  0.1506 -0.3993
 2142TIP3    H127985   5.071   5.122   2.719  2.3342  1.6089  0.6544
 2142TIP3    H227986   5.142   4.990   2.695  1.6767  1.1235  1.3077
 2143TIP3   OH227987   1.364   0.536   3.713 -0.7879 -0.1120 -0.6538
 2143TIP3    H127988   1.281   0.576   3.739 -0.6245 -1.2348  1.8444
 2143TIP3    H227989   1.428   0.571   3.774 -0.0492 -1.6993 -0.4697
 2144TIP3   OH227990   2.228   0.185   1.489  0.7537  0.1511 -0.5127
 2144TIP3    H127991   2.306   0.129   1.490 -0.5150 -1.7861  2.0042
 2144TIP3    H227992   2.189   0.174   1.576 -1.1263  2.8277 -0.8948
 2145TIP3   OH227993   0.927   5.465   8.584  0.3873  0.0252  0.0058
 2145TIP3    H127994   0.835   5.453   8.609  0.0621 -0.3780 -1.3342
 2145TIP3    H227995   0.962   5.377   8.575  0.8852  0.1754  0.4077
 2146TIP3   OH227996   0.310   2.573   0.548 -0.2216 -0.2001  0.1814
 2146TIP3    H127997   0.245   2.615   0.605  0.0811  1.3304 -0.5414
 2146TIP3    H227998   0.386   2.631   0.552  0.4492 -1.0221 -0.3947
 2147TIP3   OH227999   6.662   3.013   0.044 -0.2567  0.1996 -0.1824
 2147TIP3    H128000   6.701   3.008  -0.043 -0.5423 -1.5084 -0.2310
 2147TIP3    H228001   6.729   3.056   0.097 -0.3105  1.8129 -1.3389
 2148TIP3   OH228002   6.638   0.034   0.285  0.4136  0.0213  0.1688
 2148TIP3    H128003   6.553  -0.007   0.301  0.5797  0.1903  1.6186
 2148TIP3    H228004   6.686  -0.030   0.231  0.6985 -1.8049  2.4231
 2149TIP3   OH228005   4.552   2.824   1.682  0.1279  0.4293 -0.3158
 2149TIP3    H128006   4.458   2.841   1.688 -0.1063  0.0189 -2.2144
 2149TIP3    H228007   4.558   2.730   1.663  0.9037  0.5077 -0.4660
 2150TIP3   OH228008   4.009   4.889   2.927  0.7099 -0.3606 -0.3298
 2150TIP3    H128009   4.094   4.883   2.971  0.9210  1.4202 -0.4342
 2150TIP3    H228010   3.948   4.912   2.997  1.1180  2.9186 -0.9032
 2151TIP3   OH228011   5.033   5.093   0.636 -0.3400  0.3731 -0.5787
 2151TIP3    H128012   4.955   5.130   0.595 -0.6395  1.0322  0.5196
 2151TIP3    H228013   5.091   5.167   0.649  0.2089 -0.0091 -0.8049
 2152TIP3   OH228014   4.667   4.168   8.362  0.5270 -0.3516 -0.2966
 2152TIP3    H128015   4.632   4.079   8.368 -0.1617 -0.0684 -0.0050
 2152TIP3    H228016   4.720   4.178   8.441 -2.5168  0.7933  1.7903
 2153TIP3   OH228017   3.513   0.276   8.126 -0.5199  0.3978  0.3538
 2153TIP3    H128018   3.460   0.301   8.050 -1.2406  1.9894  1.3279
 2153TIP3    H228019   3.498   0.181   8.134 -5.4251  1.0057  2.0624
 2154TIP3   OH228020   4.659   6.320   0.825 -0.0197  0.2836  0.0932
 2154TIP3    H128021   4.647   6.297   0.917 -1.9158  2.1407  0.3770
 2154TIP3    H228022   4.639   6.239   0.777  0.1381 -0.4701  1.2652
 2155TIP3   OH228023   3.757   3.995   2.963  0.4560 -0.6799  0.1524
 2155TIP3    H128024   3.848   4.000   2.933  0.8112 -1.3780  1.0863
 2155TIP3    H228025   3.716   3.933   2.902  0.0312  1.1907 -1.5842
 2156TIP3   OH228026   0.118   1.131   2.935  0.2143 -0.5424  0.1901
 2156TIP3    H128027   0.206   1.139   2.897  0.1765  1.8953  0.4562
 2156TIP3    H228028   0.060   1.123   2.859  0.6649 -2.9444  0.0305
 2157TIP3   OH228029   2.149   6.760   8.344  0.4931  0.2240  0.3203
 2157TIP3    H128030   2.064   6.725   8.317  0.9458  0.0978 -0.9863
 2157TIP3    H228031   2.213   6.700   8.306  1.1856  0.2889  1.3293
 2158TIP3   OH228032   2.736   2.476   0.905  0.5636 -0.1898  0.0313
 2158TIP3    H128033   2.753   2.526   0.985  1.1797 -0.8780  0.3447
 2158TIP3    H228034   2.641   2.479   0.895  0.4479 -0.3469  0.9580
 2159TIP3   OH228035   1.253   2.720   0.531  0.3761  0.1219  0.0752
 2159TIP3    H128036   1.179   2.673   0.568 -0.3448 -1.8835 -3.4823
 2159TIP3    H228037   1.319   2.652   0.515  1.8346  1.3869  0.4101
 2160TIP3   OH228038   0.698   2.457   7.532  0.4950  0.1206  0.1638
 2160TIP3    H128039   0.687   2.549   7.556 -2.2573 -0.4056  1.2601
 2160TIP3    H228040   0.732   2.415   7.612 -0.7010 -0.2020  0.5298
 2161TIP3   OH228041   4.581   4.037   2.408 -0.4990 -0.1805  0.2737
 2161TIP3    H128042   4.602   4.079   2.491  0.6801 -0.1621 -0.0162
 2161TIP3    H228043   4.546   3.951   2.432 -0.8075  0.0896  0.8000
 2162TIP3   OH228044   1.357   5.608   3.387 -0.4302  0.4252 -0.0346
 2162TIP3    H128045   1.266   5.580   3.380 -0.3811  0.2165  0.1452
 2162TIP3    H228046   1.405   5.528   3.409 -0.0905  0.3655 -0.9180
 2163TIP3   OH228047   6.020   3.258   2.130 -0.8963  0.2588 -0.9410
 2163TIP3    H128048   5.953   3.310   2.087  0.3701  2.7951 -0.0433
 2163TIP3    H228049   6.003   3.269   2.224  0.2037  0.2123 -0.7187
 2164TIP3   OH228050   3.127   3.987   3.831 -0.1095  0.1396 -0.3398
 2164TIP3    H128051   3.157   4.070   3.793  0.5411  1.0658  2.0216
 2164TIP3    H228052   3.205   3.947   3.868 -0.7260 -0.5788  0.2352
 2165TIP3   OH228053   5.065   4.782   0.225 -0.0081 -0.2548 -0.4429
 2165TIP3    H128054   5.125   4.763   0.298 -0.9566 -0.1058  0.3937
 2165TIP3    H228055   5.054   4.877   0.227 -1.6806 -0.4315  0.5866
 2166TIP3   OH228056   5.559   3.116   8.606 -0.7278  0.1001 -0.1181
 2166TIP3    H128057   5.565   3.039   8.661 -1.1657 -2.6217 -3.5217
 2166TIP3    H228058   5.468   3.143   8.611 -0.9740 -0.7012 -0.1894
 2167TIP3   OH228059   2.822   1.446   7.828 -0.2690 -0.0702  0.4953
 2167TIP3    H128060   2.862   1.359   7.828 -0.5443 -0.1983  0.9023
 2167TIP3    H228061   2.889   1.503   7.865  0.3939  0.1258 -0.9274
 2168TIP3   OH228062   4.459   4.941   7.599 -0.3733 -0.1671 -0.0233
 2168TIP3    H128063   4.487   5.019   7.550  1.5417  0.5963  2.1168
 2168TIP3    H228064   4.372   4.965   7.633 -0.2753  0.6068 -0.2851
 2169TIP3   OH228065   3.413   2.532   2.219  0.1410 -0.6315 -0.3093
 2169TIP3    H128066   3.414   2.454   2.164  1.1212 -0.4740 -0.5281
 2169TIP3    H228067   3.505   2.554   2.232 -0.1078  0.0735  0.3449
 2170TIP3   OH228068   2.513   4.010   2.139  0.3293  0.1851 -0.4116
 2170TIP3    H128069   2.524   3.919   2.114  0.9054  0.6104 -1.7714
 2170TIP3    H228070   2.582   4.027   2.203  0.0454 -0.3904  0.0560
 2171TIP3   OH228071   3.886   5.919   2.240  0.4941  0.4149 -0.3673
 2171TIP3    H128072   3.977   5.936   2.260  0.0224  0.7496  1.6677
 2171TIP3    H228073   3.844   5.906   2.325 -1.2865 -0.0807 -1.2669
 2172TIP3   OH228074   0.013   6.389   1.062 -0.4768 -0.2467  0.8574
 2172TIP3    H128075   0.039   6.443   0.988  1.2915 -0.0031  1.5995
 2172TIP3    H228076  -0.033   6.315   1.023 -0.4469  0.3738 -0.3958
 2173TIP3   OH228077   1.560   3.793   3.070 -0.1662 -0.1185  0.0471
 2173TIP3    H128078   1.619   3.717   3.068 -0.9290 -0.7017 -0.7737
 2173TIP3    H228079   1.523   3.792   3.158  0.6191 -0.0617  0.3945
 2174TIP3   OH228080   6.338   0.037   8.445  0.7848  0.1748  0.0875
 2174TIP3    H128081   6.342   0.028   8.350  0.1422 -0.9831  0.1452
 2174TIP3    H228082   6.377   0.122   8.463 -1.1924  1.5150 -1.4230
 2175TIP3   OH228083   6.819   4.402   2.012 -0.1442  0.7161  0.0943
 2175TIP3    H128084   6.770   4.323   1.989 -1.6105  1.7984 -0.7399
 2175TIP3    H228085   6.909   4.384   1.985 -0.1432 -1.1223  1.1120
 2176TIP3   OH228086   6.527   5.219   8.561  0.0938  0.0630  0.2692
 2176TIP3    H128087   6.488   5.305   8.575 -2.9863 -1.0225 -0.8731
 2176TIP3    H228088   6.582   5.230   8.484 -0.7791  0.8618 -0.2523
 2177TIP3   OH228089   1.291   3.704   0.132 -0.5766 -0.8396  0.1335
 2177TIP3    H128090   1.257   3.749   0.054 -1.2627 -0.6657  0.5307
 2177TIP3    H228091   1.349   3.637   0.096 -0.7133 -0.6199 -0.5224
 2178TIP3   OH228092   2.291   3.326   0.266 -0.3328 -0.3537 -0.3305
 2178TIP3    H128093   2.250   3.379   0.198  0.1057 -0.7663 -0.9227
 2178TIP3    H228094   2.266   3.236   0.245 -0.7243 -0.4295  0.4257
 2179TIP3   OH228095   1.973   3.826   2.981  0.1802 -0.4719  0.1204
 2179TIP3    H128096   2.029   3.870   2.917 -1.8354  1.6597 -0.2742
 2179TIP3    H228097   1.965   3.736   2.947 -0.6671  0.5203 -2.6220
 2180TIP3   OH228098   5.546   5.388   8.471 -0.0505  0.7399 -0.3846
 2180TIP3    H128099   5.629   5.392   8.423 -0.0549 -1.3103 -0.6352
 2180TIP3    H228100   5.506   5.474   8.457  1.3511  1.2493 -1.4758
 2181TIP3   OH228101   2.307   0.319   0.437 -0.6564  0.2754  0.2477
 2181TIP3    H128102   2.307   0.295   0.530 -2.3292  0.5767  0.3638
 2181TIP3    H228103   2.286   0.413   0.436  0.7993  0.6171 -0.3948
 2182TIP3   OH228104   4.682   1.786   0.951 -0.0637 -0.3928 -0.2730
 2182TIP3    H128105   4.742   1.785   0.877 -0.3573 -0.8405 -0.5129
 2182TIP3    H228106   4.630   1.706   0.941 -0.3965 -0.2407  0.1766
 2183TIP3   OH228107   6.570   0.173   2.426 -0.3799  0.0024  0.0916
 2183TIP3    H128108   6.587   0.127   2.344  1.2086  0.4328  0.1324
 2183TIP3    H228109   6.519   0.112   2.478  1.1397 -1.4826 -0.0950
 2184TIP3   OH228110   2.529   3.654   7.726  0.4907 -0.1154  0.6119
 2184TIP3    H128111   2.609   3.696   7.758  0.2714  0.9005 -0.1200
 2184TIP3    H228112   2.554   3.617   7.641  0.7176 -1.6464  1.3020
 2185TIP3   OH228113   2.963   0.202   8.045 -0.1718  0.0001  0.0794
 2185TIP3    H128114   2.926   0.114   8.059 -0.0970  0.3257  2.9589
 2185TIP3    H228115   2.895   0.261   8.076  0.7590  0.8449  0.5296
 2186TIP3   OH228116   1.169   0.669   3.852 -0.4233  0.4993  0.2571
 2186TIP3    H128117   1.199   0.726   3.923 -0.3112  0.3352  0.3391
 2186TIP3    H228118   1.079   0.698   3.835  0.1635  1.8552 -0.8379
 2187TIP3   OH228119   6.036   6.721   0.393 -0.1577  0.0475 -0.9688
 2187TIP3    H128120   6.108   6.674   0.350  0.4076 -0.4812  0.4920
 2187TIP3    H228121   6.043   6.811   0.359  0.6038 -0.2204 -1.5609
 2188TIP3   OH228122   1.183   2.345   3.115  0.2799  0.1447  0.3871
 2188TIP3    H128123   1.247   2.348   3.044 -0.3032  3.3472 -0.1792
 2188TIP3    H228124   1.233   2.317   3.191  1.3179 -1.6854 -0.8966
 2189TIP3   OH228125   1.198   3.509   1.382 -0.3862  0.2553 -0.4463
 2189TIP3    H128126   1.237   3.588   1.345 -0.5068  1.4148  1.7242
 2189TIP3    H228127   1.272   3.460   1.417 -0.5721  1.5195  1.9429
 2190TIP3   OH228128   3.070   2.455   0.874  0.3894 -0.4276  0.5413
 2190TIP3    H128129   2.980   2.454   0.906 -0.5689  0.4127 -1.8914
 2190TIP3    H228130   3.107   2.537   0.907  0.0462 -0.4586  1.0041
 2191TIP3   OH228131   6.143   5.474   0.051 -0.0832 -1.0824  0.2763
 2191TIP3    H128132   6.174   5.387   0.026  0.5737 -0.8267  0.1909
 2191TIP3    H228133   6.105   5.509  -0.030  1.6287 -0.4362 -0.2944
 2192TIP3   OH228134   4.712   6.443   2.871  0.4795 -0.3257  0.2231
 2192TIP3    H128135   4.767   6.481   2.940  0.0875 -0.2367  0.4914
 2192TIP3    H228136   4.771   6.432   2.797  0.7320  0.2945  0.3246
 2193TIP3   OH228137   2.382   2.497   0.444  0.2185 -0.0836 -0.0226
 2193TIP3    H128138   2.453   2.528   0.387  0.3970  0.7763  0.6456
 2193TIP3    H228139   2.312   2.562   0.432  0.2914  0.1486  0.7997
 2194TIP3   OH228140   6.090   3.257   8.631  0.4476  0.0678  0.5867
 2194TIP3    H128141   6.087   3.351   8.614 -0.3243 -0.0713 -0.0541
 2194TIP3    H228142   6.160   3.224   8.575 -0.2115  0.0502 -0.2377
 2195TIP3   OH228143   6.669   0.887   0.649  0.4612  0.2809  0.3544
 2195TIP3    H128144   6.704   0.972   0.674 -0.9000  0.9109  0.1863
 2195TIP3    H228145   6.717   0.824   0.704  0.8558  1.2180  1.1094
 2196TIP3   OH228146   5.234   3.505   2.274 -0.3813  0.0285 -0.2333
 2196TIP3    H128147   5.298   3.576   2.272 -0.0537 -0.1324 -4.8298
 2196TIP3    H228148   5.283   3.428   2.303  1.4686  0.0460 -3.0384
 2197TIP3   OH228149   0.633   0.513   2.829  0.3997  0.1182 -0.0236
 2197TIP3    H128150   0.681   0.594   2.846  1.5069 -0.3587 -0.7785
 2197TIP3    H228151   0.598   0.524   2.740 -0.0239  0.0386  0.1294
 2198TIP3   OH228152   2.968   5.141   0.211 -0.1570 -0.1374  0.1468
 2198TIP3    H128153   2.964   5.109   0.121 -1.5288 -0.4986  0.3027
 2198TIP3    H228154   3.049   5.106   0.246 -0.4921 -1.5164 -0.4025
 2199TIP3   OH228155   5.644   0.794   3.488  0.6703  0.3875  0.0125
 2199TIP3    H128156   5.672   0.837   3.407  2.2806 -0.8502 -0.1442
 2199TIP3    H228157   5.632   0.702   3.464 -0.9831  0.3929  0.7212
 2200TIP3   OH228158   1.884   3.149   2.909  0.1183  0.4203 -0.1615
 2200TIP3    H128159   1.963   3.203   2.917 -1.0472  2.0760  0.9119
 2200TIP3    H228160   1.884   3.096   2.989  0.3874  0.0710 -0.3928
 2201TIP3   OH228161   0.909   2.925   2.251 -0.1946  0.1181  0.1623
 2201TIP3    H128162   0.960   3.004   2.267  0.7045 -0.9145  3.0335
 2201TIP3    H228163   0.957   2.878   2.183 -0.2086  1.5258 -0.8663
 2202TIP3   OH228164   5.033   2.993   8.358 -0.1891  0.0913  0.2200
 2202TIP3    H128165   5.069   2.928   8.419 -2.3432 -0.3947  1.0916
 2202TIP3    H228166   5.004   2.941   8.283 -4.2127 -0.5535  1.9445
 2203TIP3   OH228167   2.717   5.720   1.950  0.2676  0.5662 -0.3713
 2203TIP3    H128168   2.685   5.810   1.943  0.6286  0.6549 -0.9467
 2203TIP3    H228169   2.811   5.727   1.934  0.3854  0.1536  0.1063
 2204TIP3   OH228170   0.232   4.457   0.414 -0.0947 -0.0782  0.5378
 2204TIP3    H128171   0.197   4.515   0.482 -1.8684  3.5237 -3.0198
 2204TIP3    H228172   0.154   4.416   0.376  0.2290  1.4469 -2.0152
 2205TIP3   OH228173   0.976   6.793   1.253  0.6810 -0.2953  0.7028
 2205TIP3    H128174   0.954   6.700   1.245  1.2084 -0.3257 -0.5061
 2205TIP3    H228175   0.913   6.837   1.197  0.3349  0.1093  1.3925
 2206TIP3   OH228176   3.964   3.838   1.901  0.6735 -0.2024  0.3229
 2206TIP3    H128177   3.872   3.847   1.876  0.8121 -0.1015 -0.1749
 2206TIP3    H228178   3.992   3.759   1.856  1.0110  0.1483 -0.0902
 2207TIP3   OH228179   3.026   2.922   0.849  0.6476 -0.5591  0.2212
 2207TIP3    H128180   3.009   3.005   0.894  0.8477 -0.6616  0.4851
 2207TIP3    H228181   2.940   2.891   0.822  0.6449  0.2742 -0.8370
 2208TIP3   OH228182   1.588   1.522   3.169 -0.3582 -0.4270  0.2347
 2208TIP3    H128183   1.609   1.437   3.132 -1.9465 -1.0061  0.5842
 2208TIP3    H228184   1.660   1.579   3.141  1.7626 -2.2677  1.5590
 2209TIP3   OH228185   1.661   3.249   8.078  0.2636 -0.1156 -0.0722
 2209TIP3    H128186   1.656   3.345   8.076 -1.3816 -0.0958  1.5483
 2209TIP3    H228187   1.728   3.230   8.144 -1.8144  0.0344  2.2291
 2210TIP3   OH228188   4.845   2.641   1.699  0.0717 -0.0647 -0.4304
 2210TIP3    H128189   4.818   2.659   1.789  0.9947  0.6793 -0.2828
 2210TIP3    H228190   4.766   2.652   1.647 -0.5630 -0.9283  0.3354
 2211TIP3   OH228191   1.560   3.002   2.063  0.6042  0.4842 -0.6279
 2211TIP3    H128192   1.595   2.921   2.026  1.3906  1.1858 -1.4580
 2211TIP3    H228193   1.587   2.999   2.155 -0.3964 -0.7381 -0.3401
 2212TIP3   OH228194   1.367   4.986   2.984 -0.5414  0.2176  0.0944
 2212TIP3    H128195   1.323   5.058   2.938 -1.8346 -0.2991  0.4850
 2212TIP3    H228196   1.300   4.948   3.040 -0.6109 -2.7728 -1.7913
 2213TIP3   OH228197   3.922   2.880   1.281 -0.1223 -0.0716 -0.2294
 2213TIP3    H128198   3.838   2.887   1.234 -0.8655 -1.0491  0.9004
 2213TIP3    H228199   3.977   2.827   1.224 -0.1653  0.7932 -1.1038
 2214TIP3   OH228200   4.590   5.130   2.903 -1.2304  0.1076 -0.0214
 2214TIP3    H128201   4.634   5.094   2.826 -0.1373 -2.4976  1.6779
 2214TIP3    H228202   4.497   5.129   2.880 -0.8092  1.9815 -2.2294
 2215TIP3   OH228203   2.111   2.999   1.290 -0.3571  0.4953 -0.6292
 2215TIP3    H128204   2.055   3.066   1.329  1.2393  1.2476  0.4987
 2215TIP3    H228205   2.053   2.925   1.275 -1.9109  1.6842 -0.7393
 2216TIP3   OH228206   4.382   5.153   2.445 -0.3241  0.7005  0.8186
 2216TIP3    H128207   4.387   5.101   2.526 -2.1560 -2.5671 -0.9583
 2216TIP3    H228208   4.467   5.198   2.441  1.3703 -1.9948  2.7087
 2217TIP3   OH228209   5.134   6.222   2.174 -0.1818 -0.1174 -0.4843
 2217TIP3    H128210   5.179   6.155   2.121 -0.5599  0.1347 -1.1313
 2217TIP3    H228211   5.089   6.277   2.110 -0.6385  0.2023  0.1065
 2218TIP3   OH228212   0.285   2.490   0.268 -0.1776  0.0866 -0.4239
 2218TIP3    H128213   0.321   2.532   0.346  0.3671  0.6858 -0.9883
 2218TIP3    H228214   0.191   2.481   0.287  0.0391 -0.2927  0.5226
 2219TIP3   OH228215   3.909   3.633   3.112  0.3099  0.2075 -0.1901
 2219TIP3    H128216   3.945   3.718   3.137 -0.4759  0.4226  0.2400
 2219TIP3    H228217   3.982   3.588   3.068  0.3724  1.5649 -1.5342
 2220TIP3   OH228218   5.056   6.685   2.681 -0.1677 -0.7285 -0.1464
 2220TIP3    H128219   4.962   6.689   2.659 -0.5357 -0.6855  1.3654
 2220TIP3    H228220   5.060   6.636   2.763  0.9805  0.6151  0.6501
 2221TIP3   OH228221   5.062   2.461   1.643  0.1125  0.1072  0.8299
 2221TIP3    H128222   5.002   2.529   1.673  1.2650  1.1758  0.7980
 2221TIP3    H228223   5.011   2.380   1.647 -1.9014  1.1793 -0.8096
 2222TIP3   OH228224   0.858   0.292   2.232 -0.3090 -0.1266  0.2190
 2222TIP3    H128225   0.774   0.325   2.200  0.0193  0.4223 -0.1030
 2222TIP3    H228226   0.919   0.365   2.219 -0.2814  0.4100  2.7317
 2223TIP3   OH228227   6.613   2.524   1.188  0.4959 -0.2458 -0.5127
 2223TIP3    H128228   6.529   2.500   1.228 -0.1337  1.3621 -0.8000
 2223TIP3    H228229   6.647   2.595   1.243  0.5738  0.6366 -1.6652
 2224TIP3   OH228230   1.707   1.470   2.333 -0.0245  0.1290 -0.0857
 2224TIP3    H128231   1.686   1.560   2.307  0.2758 -0.5307 -2.8922
 2224TIP3    H228232   1.624   1.423   2.327  0.1591 -0.1623 -0.3364
 2225TIP3   OH228233   2.475   1.062   2.173 -0.3025  0.0196  0.6753
 2225TIP3    H128234   2.508   1.073   2.084 -1.1190  1.8194  0.5624
 2225TIP3    H228235   2.392   1.016   2.162  0.8844 -2.3609  0.7911
 2226TIP3   OH228236   0.167   0.962   0.458  0.0791  0.1445 -0.1534
 2226TIP3    H128237   0.219   1.023   0.405  1.4091 -1.9386 -1.3982
 2226TIP3    H228238   0.216   0.879   0.454 -1.2981 -0.8589  1.9954
 2227TIP3   OH228239   6.037   2.900   0.196  0.2008  0.8172  0.1532
 2227TIP3    H128240   5.962   2.879   0.141 -2.6894  2.3368  3.2105
 2227TIP3    H228241   6.033   2.839   0.269  1.8733  1.0605  0.5097
 2228TIP3   OH228242   2.795   5.163   7.529  0.2156 -0.7556 -0.0478
 2228TIP3    H128243   2.799   5.168   7.625  0.9427  0.5224 -0.1126
 2228TIP3    H228244   2.874   5.114   7.505 -0.5376 -2.0495  0.0377
 2229TIP3   OH228245   0.521   2.792   3.157 -0.1657 -0.0601  0.6214
 2229TIP3    H128246   0.483   2.838   3.082 -2.1796 -1.6259  0.5730
 2229TIP3    H228247   0.612   2.821   3.160 -1.3075  4.2322  0.9033
 2230TIP3   OH228248   5.838   1.951   0.155 -0.2338  0.9473 -0.6171
 2230TIP3    H128249   5.901   2.007   0.111 -1.3616  2.3354 -0.5595
 2230TIP3    H228250   5.890   1.881   0.193  1.2370  1.9069 -0.7693
 2231TIP3   OH228251   0.592   4.200   7.908 -1.2443  0.0491 -0.2581
 2231TIP3    H128252   0.650   4.212   7.982  0.4776  2.1853 -1.8124
 2231TIP3    H228253   0.571   4.289   7.879 -3.9899 -0.6797 -0.7821
 2232TIP3   OH228254   3.850   2.059   1.128  0.2496 -0.0219 -0.1768
 2232TIP3    H128255   3.869   2.078   1.036 -2.0750 -1.6167 -1.0936
 2232TIP3    H228256   3.886   1.971   1.142 -1.2145 -0.6693 -0.2534
 2233TIP3   OH228257   6.258   6.758   3.260 -0.1538 -0.4060 -0.4987
 2233TIP3    H128258   6.338   6.722   3.298  0.1187  0.1841 -0.5044
 2233TIP3    H228259   6.209   6.681   3.231 -0.7412 -0.9519  1.7340
 2234TIP3   OH228260   6.541   4.441   0.298 -0.0966 -0.0480 -0.7215
 2234TIP3    H128261   6.461   4.453   0.350 -1.5061  0.4780 -2.9159
 2234TIP3    H228262   6.608   4.421   0.364 -1.5128  1.6704  1.4215
 2235TIP3   OH228263   5.079   5.298   1.350  0.2083  0.4243 -0.5445
 2235TIP3    H128264   5.108   5.280   1.439  1.2377  2.5558 -0.3904
 2235TIP3    H228265   5.146   5.257   1.294 -0.9976 -1.8509 -0.4435
 2236TIP3   OH228266   2.102   4.467   2.895 -0.4628  0.4628  0.0229
 2236TIP3    H128267   2.047   4.419   2.957  1.8034 -1.1043  0.9507
 2236TIP3    H228268   2.143   4.536   2.947 -0.5842  0.8591 -0.3891
 2237TIP3   OH228269   4.134   3.117   3.633 -0.0196 -0.0305  0.0555
 2237TIP3    H128270   4.108   3.086   3.720  2.4553  2.4150  1.8785
 2237TIP3    H228271   4.220   3.078   3.619 -0.2083 -0.0504 -1.1325
 2238TIP3   OH228272   3.090   2.992   8.453  0.0858  0.3162  0.2141
 2238TIP3    H128273   3.026   3.062   8.466 -0.4956 -0.3953  1.3490
 2238TIP3    H228274   3.038   2.914   8.438  0.6882 -0.1672  0.5688
 2239TIP3   OH228275   0.873   0.606   8.537  0.2365 -0.2260 -0.2021
 2239TIP3    H128276   0.926   0.555   8.476 -0.0082  0.4973 -1.0347
 2239TIP3    H228277   0.806   0.545   8.568  0.7660 -0.7804 -0.1348
 2240TIP3   OH228278   4.874   3.899   2.309  0.2185 -0.1162  0.4580
 2240TIP3    H128279   4.951   3.851   2.338  0.0148  0.7690  2.6579
 2240TIP3    H228280   4.809   3.883   2.378 -1.7685 -1.1995 -1.5308
 2241TIP3   OH228281   0.945   4.858   1.392  0.2958 -0.4689  0.3865
 2241TIP3    H128282   0.981   4.941   1.362  2.1197 -0.7927  1.4800
 2241TIP3    H228283   0.892   4.826   1.318  2.4353  0.0016 -1.4805
 2242TIP3   OH228284   4.293   5.666   7.955  0.0669 -0.2250  0.2113
 2242TIP3    H128285   4.289   5.762   7.961 -0.9045 -0.2178 -0.3354
 2242TIP3    H228286   4.222   5.643   7.895  1.4922 -1.1542 -1.2146
 2243TIP3   OH228287   3.719   3.414   2.093 -0.3891 -0.5394  0.1606
 2243TIP3    H128288   3.814   3.402   2.095 -0.3519 -0.4914 -0.9026
 2243TIP3    H228289   3.704   3.494   2.142  0.0512 -0.9096  0.9190
 2244TIP3   OH228290   0.228   0.073   0.240 -0.3245 -0.0099 -0.1331
 2244TIP3    H128291   0.233   0.070   0.145  0.8752  2.1178 -0.1865
 2244TIP3    H228292   0.308   0.117   0.268 -2.2442  2.7314  1.6070
 2245TIP3   OH228293   2.193   3.746   1.885 -0.1798 -0.2028  0.1257
 2245TIP3    H128294   2.218   3.838   1.873 -0.7451  0.1612  1.5308
 2245TIP3    H228295   2.276   3.698   1.881  0.1693  0.4123 -0.2164
 2246TIP3   OH228296   0.347   1.294   0.364  0.1308  0.4736 -0.3773
 2246TIP3    H128297   0.364   1.206   0.333 -1.1112  0.0149  0.1684
 2246TIP3    H228298   0.271   1.285   0.421  0.7751  1.6859  0.7443
 2247TIP3   OH228299   4.213   6.643   1.592  0.1704  0.1904 -0.4654
 2247TIP3    H128300   4.254   6.658   1.507 -1.2409 -0.0464 -1.2248
 2247TIP3    H228301   4.142   6.582   1.573 -1.2778  1.4904  0.5543
 2248TIP3   OH228302   4.050   4.737   1.371 -0.1653 -0.4518 -0.3970
 2248TIP3    H128303   4.002   4.699   1.445  0.4012  2.9329  1.9485
 2248TIP3    H228304   3.981   4.773   1.315 -0.5320  0.0283  0.3475
 2249TIP3   OH228305   5.541   1.588   8.635 -0.0923 -0.0326  0.3009
 2249TIP3    H128306   5.478   1.623   8.572  0.8503 -0.1300 -0.7365
 2249TIP3    H228307   5.493   1.583   8.717 -1.0918  0.9548 -0.2016
 2250TIP3   OH228308   3.927   0.668   2.640  0.2741  0.1926 -0.0829
 2250TIP3    H128309   3.993   0.734   2.661  1.8933 -1.0068 -1.1436
 2250TIP3    H228310   3.933   0.604   2.711 -0.8212  0.7967  0.5885
 2251TIP3   OH228311   1.417   3.114   8.128  0.6943  0.5227  0.0569
 2251TIP3    H128312   1.507   3.148   8.128  0.8471  0.1168  0.0119
 2251TIP3    H228313   1.392   3.111   8.036  0.8603  0.0350  0.0286
 2252TIP3   OH228314   2.431   4.560   0.853  0.2225 -0.0032  0.2131
 2252TIP3    H128315   2.340   4.575   0.878  0.0735  0.5298 -0.6107
 2252TIP3    H228316   2.470   4.647   0.849 -0.1789  0.1658 -2.8969
 2253TIP3   OH228317   3.932   2.121   0.871 -0.7350  0.7621  0.2246
 2253TIP3    H128318   3.957   2.059   0.802 -1.4216  0.9892 -0.2283
 2253TIP3    H228319   4.003   2.185   0.871 -0.3692  0.3639  0.2219
 2254TIP3   OH228320   3.693   4.445   8.231  0.5431  0.4063 -0.4934
 2254TIP3    H128321   3.714   4.504   8.159  0.8350  2.4855  1.2100
 2254TIP3    H228322   3.604   4.415   8.212  0.7115  0.6933 -1.8323
 2255TIP3   OH228323   1.947   4.620   2.494 -0.0551  0.4361 -0.2017
 2255TIP3    H128324   2.035   4.652   2.515 -0.0946 -0.1779  0.9822
 2255TIP3    H228325   1.951   4.526   2.509 -1.0943  0.4951  0.6009
 2256TIP3   OH228326   6.327   4.472   0.920  0.4956 -0.4756  0.3091
 2256TIP3    H128327   6.367   4.485   0.834  0.7277 -1.3557  0.2750
 2256TIP3    H228328   6.247   4.423   0.902  0.1934 -0.0778  0.5368
 2257TIP3   OH228329   4.570   1.005   0.863  0.1523  0.1091 -0.5350
 2257TIP3    H128330   4.508   0.934   0.879  0.8087 -0.1542  1.0169
 2257TIP3    H228331   4.639   0.992   0.927  1.5549  0.7308 -1.8407
 2258TIP3   OH228332   2.731   1.340   1.886 -0.0555 -0.2610 -0.1244
 2258TIP3    H128333   2.783   1.336   1.807 -0.4591 -0.1238 -0.4015
 2258TIP3    H228334   2.661   1.403   1.866  1.4821  2.0789  1.3164
 2259TIP3   OH228335   6.267   5.692   8.491  0.2005 -0.8027  0.0221
 2259TIP3    H128336   6.181   5.652   8.475  0.2482 -1.7672  1.8861
 2259TIP3    H228337   6.247   5.780   8.523 -0.1967 -1.4578  1.6724
 2260TIP3   OH228338   0.931   5.643   7.658 -0.5810 -0.5194  0.1350
 2260TIP3    H128339   0.962   5.618   7.745 -0.6260  1.2110  0.6907
 2260TIP3    H228340   0.977   5.725   7.640 -0.7201 -0.7610 -1.4036
 2261TIP3   OH228341   2.453   5.029   8.280 -0.1697 -0.4768 -0.0732
 2261TIP3    H128342   2.491   5.020   8.367 -1.1239 -0.8758  0.3197
 2261TIP3    H228343   2.518   5.078   8.230  1.1910 -1.8044  0.3313
 2262TIP3   OH228344   1.597   1.801   8.528 -0.3923  0.1740 -0.1640
 2262TIP3    H128345   1.606   1.871   8.592 -2.0009  0.6918 -0.4520
 2262TIP3    H228346   1.508   1.812   8.492  1.0305  1.1035 -3.8880
 2263TIP3   OH228347   5.183   1.721   0.740  0.4160  0.4518 -0.1081
 2263TIP3    H128348   5.212   1.722   0.831 -0.0183  1.2206  0.0296
 2263TIP3    H228349   5.264   1.720   0.689  0.8579  4.3646  0.2317
 2264TIP3   OH228350   1.920   3.216   3.710  0.0009  0.5084 -0.2394
 2264TIP3    H128351   2.003   3.264   3.714  0.0074  0.5707 -1.0027
 2264TIP3    H228352   1.853   3.284   3.698  0.1212  0.3040 -2.6219
 2265TIP3   OH228353   6.706   3.168   1.051 -0.1605  0.3616 -0.4030
 2265TIP3    H128354   6.666   3.091   1.091 -0.0557 -0.0161 -1.0128
 2265TIP3    H228355   6.717   3.230   1.123 -0.4107 -0.1263  0.0578
 2266TIP3   OH228356   2.626   2.468   1.619  0.4314  0.2910 -0.4213
 2266TIP3    H128357   2.561   2.399   1.613 -0.0250  0.6708  0.0530
 2266TIP3    H228358   2.587   2.533   1.678  0.6078  1.2277 -1.3072
 2267TIP3   OH228359   0.272   4.803   0.134 -0.0840  0.1150 -0.3259
 2267TIP3    H128360   0.221   4.882   0.153 -0.4311 -0.4688  1.3251
 2267TIP3    H228361   0.343   4.833   0.078  0.7609  1.9581  1.5990
 2268TIP3   OH228362   5.771   5.809   2.964 -0.2405  0.0903  0.0413
 2268TIP3    H128363   5.747   5.892   3.006  0.7541  0.5186 -0.2236
 2268TIP3    H228364   5.734   5.815   2.876  1.3623  1.0422 -0.6024
 2269TIP3   OH228365   5.251   2.696   0.812 -0.2138  0.0369  0.4554
 2269TIP3    H128366   5.261   2.677   0.719 -0.7567  0.0150  0.3970
 2269TIP3    H228367   5.164   2.663   0.834 -0.1156  0.0976  0.9578
 2270TIP3   OH228368   1.011   0.725   8.267 -0.2379 -0.1644 -0.1196
 2270TIP3    H128369   1.075   0.796   8.257  0.9396 -1.4174 -2.6013
 2270TIP3    H228370   0.930   0.768   8.293  1.2239  1.6598  1.6744
 2271TIP3   OH228371   2.999   4.501   8.167 -0.1736  0.1173 -0.0153
 2271TIP3    H128372   3.088   4.534   8.156  0.2084 -0.6569  0.6112
 2271TIP3    H228373   2.944   4.560   8.116  0.7802  0.2257 -0.9376
 2272TIP3   OH228374   5.814   3.157   1.909  0.1982  0.1448  0.1114
 2272TIP3    H128375   5.805   3.143   2.003 -2.7079 -0.2907 -0.1283
 2272TIP3    H228376   5.804   3.251   1.897  0.7463  0.2219  0.2343
 2273TIP3   OH228377   1.554   0.596   2.798 -0.1535  0.0411  0.3747
 2273TIP3    H128378   1.626   0.534   2.806  0.9204  0.9656 -1.5642
 2273TIP3    H228379   1.488   0.549   2.747  0.5210  0.3441 -0.8072
 2274TIP3   OH228380   4.801   0.758   1.481 -0.4899  0.2206  0.2173
 2274TIP3    H128381   4.787   0.786   1.571 -0.1394  0.1896  0.2794
 2274TIP3    H228382   4.881   0.801   1.453 -0.3663 -0.1032  0.0597
 2275TIP3   OH228383   2.152   5.417   2.145  0.0874 -0.3582 -0.3235
 2275TIP3    H128384   2.125   5.429   2.236  2.2665  1.2632  0.1804
 2275TIP3    H228385   2.229   5.359   2.151 -1.0900 -2.1458 -1.4014
 2276TIP3   OH228386   6.735   1.181   1.522  0.5882 -1.0720  0.2295
 2276TIP3    H128387   6.819   1.207   1.485  0.1265 -0.2519 -0.2911
 2276TIP3    H228388   6.756   1.148   1.609  1.2414  1.2878  1.0497
 2277TIP3   OH228389   2.765   3.774   2.725  0.4905  0.8858  0.0116
 2277TIP3    H128390   2.837   3.711   2.727 -0.0489  0.2459 -0.4694
 2277TIP3    H228391   2.686   3.721   2.737 -0.0574  1.3240 -1.4757
 2278TIP3   OH228392   1.875   0.145   1.486  0.1491 -0.2838 -0.1058
 2278TIP3    H128393   1.825   0.193   1.551 -0.3811  0.6760 -1.1820
 2278TIP3    H228394   1.938   0.209   1.452 -0.3958 -0.3870 -1.3822
 2279TIP3   OH228395   4.678   3.779   0.454 -0.0593 -0.0116  0.0879
 2279TIP3    H128396   4.656   3.852   0.396  1.4095  1.3736  1.1713
 2279TIP3    H228397   4.635   3.703   0.415  0.1341  1.0158 -2.3003
 2280TIP3   OH228398   2.586   4.713   8.325  0.1844  0.5910 -0.6089
 2280TIP3    H128399   2.616   4.718   8.234  0.2803 -0.1103 -0.6267
 2280TIP3    H228400   2.490   4.706   8.318  0.2534 -0.4944 -0.7208
 2281TIP3   OH228401   2.191   5.491   1.293  0.2614 -0.4088 -0.2330
 2281TIP3    H128402   2.124   5.503   1.226 -0.9309 -2.5556  0.4781
 2281TIP3    H228403   2.244   5.570   1.288 -1.3093  0.6231 -1.9717
 2282TIP3   OH228404   5.962   5.876   2.336 -0.2829  0.0542  0.1754
 2282TIP3    H128405   6.044   5.829   2.351 -1.9542 -3.0080  0.6215
 2282TIP3    H228406   5.951   5.931   2.414  0.8184 -0.3377  0.6219
 2283TIP3   OH228407   6.180   4.757   2.506 -0.0793 -0.0624 -0.4063
 2283TIP3    H128408   6.133   4.819   2.451 -0.0856  0.5575  0.2954
 2283TIP3    H228409   6.117   4.688   2.524 -1.2684  1.5137  1.8149
 2284TIP3   OH228410   1.407   5.524   3.894 -0.1851 -0.0529 -0.5240
 2284TIP3    H128411   1.501   5.502   3.899 -0.4802 -1.0172  2.5201
 2284TIP3    H228412   1.404   5.602   3.838  2.2725 -0.6328 -1.6319
 2285TIP3   OH228413   5.056   4.618   8.461  0.9520 -0.0728  0.7537
 2285TIP3    H128414   5.081   4.698   8.415 -1.0368 -1.1973 -2.6222
 2285TIP3    H228415   5.138   4.571   8.474  1.5940 -0.2751 -3.0408
 2286TIP3   OH228416   3.178   0.050   2.640  0.5065  0.3306  0.1790
 2286TIP3    H128417   3.162   0.144   2.631 -0.4337  0.0859 -1.0815
 2286TIP3    H228418   3.274   0.043   2.644  0.5810  1.3624  0.6960
 2287TIP3   OH228419   1.005   5.204   8.610 -0.5219 -0.1463  0.0116
 2287TIP3    H128420   0.993   5.181   8.518  1.0707  1.1919 -0.5671
 2287TIP3    H228421   1.020   5.120   8.653 -1.6707 -0.8335 -0.8485
 2288TIP3   OH228422   4.035   6.867   2.237 -0.3929 -0.2349 -0.6724
 2288TIP3    H128423   3.943   6.874   2.263 -0.5874 -0.9207 -1.1719
 2288TIP3    H228424   4.041   6.784   2.190  0.3262  0.1693 -1.3124
 2289TIP3   OH228425   6.353   6.619   2.112 -0.5055  0.1307 -0.0818
 2289TIP3    H128426   6.262   6.621   2.140 -0.6736  1.1609 -0.6564
 2289TIP3    H228427   6.366   6.530   2.080 -1.0693 -0.2635  0.7581
 2290TIP3   OH228428   0.374   5.747   1.576  0.4842 -0.2005 -0.4099
 2290TIP3    H128429   0.443   5.711   1.632 -2.5487 -0.6244  3.4605
 2290TIP3    H228430   0.320   5.671   1.553 -0.7037  0.5615 -0.2212
 2291TIP3   OH228431   4.444   2.164   7.944  0.4310 -0.1063 -0.6184
 2291TIP3    H128432   4.496   2.086   7.965  0.9991  0.5389  0.4147
 2291TIP3    H228433   4.386   2.135   7.873  0.4055 -1.5671 -0.0405
 2292TIP3   OH228434   6.787   0.716   2.344  0.5146  0.2017 -0.3183
 2292TIP3    H128435   6.823   0.668   2.418 -0.5729 -1.4593 -0.8300
 2292TIP3    H228436   6.785   0.807   2.374  3.0726  0.0805  0.5026
 2293TIP3   OH228437   5.104   0.802   0.621 -0.1584 -0.5688  0.3821
 2293TIP3    H128438   5.134   0.883   0.579 -0.2760 -0.2604  0.8940
 2293TIP3    H228439   5.176   0.740   0.607 -0.5999 -0.7916 -1.1765
 2294TIP3   OH228440   5.875   0.608   1.329 -0.0031 -0.2424 -0.1330
 2294TIP3    H128441   5.958   0.599   1.376  0.3243  2.1984 -0.1149
 2294TIP3    H228442   5.813   0.639   1.395  0.2014  2.1761 -0.9801
 2295TIP3   OH228443   5.681   2.875   2.278 -0.4436 -0.0843 -0.0048
 2295TIP3    H128444   5.656   2.850   2.189  0.4251  2.0789 -0.9266
 2295TIP3    H228445   5.730   2.956   2.267 -1.1261  0.7611  2.5407
 2296TIP3   OH228446   5.353   5.707   1.727  0.0726  0.5878 -0.1231
 2296TIP3    H128447   5.312   5.743   1.648  0.6302 -2.0240 -1.7148
 2296TIP3    H228448   5.447   5.722   1.714  0.4625 -2.3886 -1.4838
 2297TIP3   OH228449   1.136   6.866   0.883 -0.4268 -0.2051 -0.1343
 2297TIP3    H128450   1.199   6.938   0.894 -0.6295 -0.2301  1.3309
 2297TIP3    H228451   1.175   6.792   0.929 -0.1832 -1.1003 -1.6965
 2298TIP3   OH228452   3.483   6.390   0.964  0.8095 -0.4631  0.0111
 2298TIP3    H128453   3.553   6.334   0.930 -0.3640 -1.2703 -1.1922
 2298TIP3    H228454   3.471   6.361   1.054  2.2443 -0.0453  0.3765
 2299TIP3   OH228455   3.258   3.383   0.618 -0.0759  0.0932  0.5255
 2299TIP3    H128456   3.178   3.333   0.603 -0.2542  0.8985 -1.4959
 2299TIP3    H228457   3.279   3.421   0.533  2.2667  0.2071  1.0909
 2300TIP3   OH228458   1.451   3.187   0.369 -0.2034  0.0845 -0.2355
 2300TIP3    H128459   1.526   3.133   0.394  0.0961  1.7209  2.9296
 2300TIP3    H228460   1.375   3.135   0.395 -0.0270 -0.0694 -0.0153
 2301TIP3   OH228461   4.857   1.830   7.965  0.8070 -0.0021 -0.6268
 2301TIP3    H128462   4.873   1.825   7.871 -0.2343 -0.7261 -0.7927
 2301TIP3    H228463   4.941   1.810   8.006  1.2563  0.2942 -1.4067
 2302TIP3   OH228464   6.760   4.273   7.763 -0.3446  0.8258  0.2002
 2302TIP3    H128465   6.815   4.347   7.789 -1.0089  1.6254 -0.5904
 2302TIP3    H228466   6.670   4.305   7.773 -0.6394  0.6286 -1.4411
 2303TIP3   OH228467   3.619   2.382   3.636  0.4001  0.1482 -0.3369
 2303TIP3    H128468   3.569   2.463   3.646  0.5099  0.2365 -0.4986
 2303TIP3    H228469   3.701   2.398   3.684 -0.2787 -0.4837  1.0677
 2304TIP3   OH228470   3.871   5.152   2.243  0.2611  0.0485  0.5233
 2304TIP3    H128471   3.964   5.134   2.249  0.3166  0.7287  3.1683
 2304TIP3    H228472   3.829   5.075   2.281  0.0502  1.2570  3.0154
 2305TIP3   OH228473   6.185   6.757   0.649 -0.3839 -0.0808  0.2885
 2305TIP3    H128474   6.134   6.682   0.678  0.8903 -1.0378  0.1329
 2305TIP3    H228475   6.248   6.721   0.586  0.7551  0.9629  0.7742
 2306TIP3   OH228476   6.762   3.361   0.091  0.4989 -0.2296  0.1396
 2306TIP3    H128477   6.678   3.341   0.051  0.7999 -0.5006 -0.3750
 2306TIP3    H228478   6.757   3.321   0.178 -0.1563  0.3581  0.3783
 2307TIP3   OH228479   4.054   2.568   1.069  0.2026  0.1157  0.3559
 2307TIP3    H128480   3.963   2.546   1.089  0.7062 -1.0018  1.6422
 2307TIP3    H228481   4.051   2.658   1.038 -1.5653 -0.5066 -1.5715
 2308TIP3   OH228482   4.659   4.459   8.638  0.0963  0.1041  0.3324
 2308TIP3    H128483   4.657   4.496   8.726 -1.4203  0.9987 -0.0455
 2308TIP3    H228484   4.622   4.527   8.582  0.2315 -0.7767 -0.8723
 2309TIP3   OH228485   4.008   1.649   2.155  0.0065  0.4057 -0.2260
 2309TIP3    H128486   3.998   1.659   2.060 -1.1009 -0.0881 -0.1695
 2309TIP3    H228487   4.004   1.738   2.189  1.9738  0.7564 -0.7509
 2310TIP3   OH228488   6.244   3.305   2.547 -0.5534  0.1501 -0.1318
 2310TIP3    H128489   6.338   3.295   2.533 -0.7009  0.2380 -1.2148
 2310TIP3    H228490   6.226   3.248   2.623  0.6695  1.5623  1.2929
 2311TIP3   OH228491   3.845   5.694   8.142  0.0186  0.0672  0.6872
 2311TIP3    H128492   3.924   5.654   8.106 -0.2082  0.7511 -0.6060
 2311TIP3    H228493   3.829   5.770   8.087 -1.3021  0.1897  1.2011
 2312TIP3   OH228494   2.841   0.574   0.668 -0.3333 -0.3796 -0.2183
 2312TIP3    H128495   2.933   0.602   0.668 -0.0297 -1.2684 -2.2104
 2312TIP3    H228496   2.844   0.480   0.652 -1.6365 -0.0951 -2.5385
 2313TIP3   OH228497   1.215   5.403   3.125 -0.1891  0.0019 -0.5312
 2313TIP3    H128498   1.305   5.427   3.101 -0.4228 -0.0782 -1.5274
 2313TIP3    H228499   1.190   5.468   3.191  0.5288  0.1460 -0.3865
 2314TIP3   OH228500   0.568   3.689   1.013  0.2868  0.3845  0.2768
 2314TIP3    H128501   0.522   3.773   1.006 -0.9733 -0.2321  0.8008
 2314TIP3    H228502   0.500   3.626   1.038  1.3306 -0.6735  0.5720
 2315TIP3   OH228503   3.979   0.497   2.832  0.3414  0.1486 -0.1000
 2315TIP3    H128504   4.044   0.458   2.890  0.0648  0.2235  0.2678
 2315TIP3    H228505   3.895   0.470   2.870  0.1608  0.1086 -0.5296
 2316TIP3   OH228506   5.734   4.968   1.160  0.1257  0.4570  0.3234
 2316TIP3    H128507   5.642   4.939   1.156  0.5252 -0.7856 -0.4046
 2316TIP3    H228508   5.757   4.962   1.252 -1.0230  2.5225  0.8291
 2317TIP3   OH228509   5.499   6.781   3.514 -0.1347  0.0007 -0.3098
 2317TIP3    H128510   5.453   6.719   3.570  1.4964 -0.9399  0.0317
 2317TIP3    H228511   5.433   6.848   3.493 -1.3378 -0.7282  1.0156
 2318TIP3   OH228512   1.255   0.207   2.472  0.1743  0.2914 -0.4000
 2318TIP3    H128513   1.250   0.111   2.476  0.2647  0.2090 -1.8218
 2318TIP3    H228514   1.180   0.237   2.524 -1.0504 -0.5908 -1.5832
 2319TIP3   OH228515   5.120   3.884   2.090  0.1470 -0.1371 -0.4627
 2319TIP3    H128516   5.108   3.925   2.004 -0.5782 -1.4767 -1.0289
 2319TIP3    H228517   5.044   3.911   2.141 -1.1489 -1.9355 -1.3389
 2320TIP3   OH228518   6.120   4.970   8.275  0.3578  0.0580 -0.0884
 2320TIP3    H128519   6.057   5.041   8.288  0.8084  0.1543  2.0172
 2320TIP3    H228520   6.193   5.010   8.228  0.3728  0.8867  0.6091
 2321TIP3   OH228521   1.475   4.164   1.987  0.1642 -0.1264  0.3341
 2321TIP3    H128522   1.506   4.239   2.039 -2.3077 -0.3064  2.2669
 2321TIP3    H228523   1.498   4.088   2.040 -0.6219 -0.4471  0.2343
 2322TIP3   OH228524   4.529   5.858   1.902 -0.0496  0.1307 -0.1034
 2322TIP3    H128525   4.441   5.861   1.939 -0.8953 -0.5258 -1.9519
 2322TIP3    H228526   4.586   5.841   1.977 -1.3328  1.7850  1.3228
 2323TIP3   OH228527   6.082   0.195   1.638 -0.2231  0.5716 -0.6446
 2323TIP3    H128528   6.044   0.171   1.723  0.1872  2.9627  0.2781
 2323TIP3    H228529   6.085   0.112   1.590 -1.8869 -0.5904  1.0823
 2324TIP3   OH228530   2.738   2.092   2.069  0.1388  0.1800 -0.2064
 2324TIP3    H128531   2.723   2.127   2.157  0.6590  0.4177 -0.2081
 2324TIP3    H228532   2.797   2.018   2.083 -0.9241 -0.7081 -0.2051
 2325TIP3   OH228533   2.936   0.814   8.657  0.5996 -0.2261 -0.0214
 2325TIP3    H128534   3.000   0.830   8.726  0.5514  0.5244 -0.1441
 2325TIP3    H228535   2.934   0.896   8.606 -0.4051 -0.2649 -0.0643
 2326TIP3   OH228536   0.366   2.270   3.693  0.3545 -0.4858  0.4458
 2326TIP3    H128537   0.416   2.273   3.611  0.6357 -0.8160  0.6051
 2326TIP3    H228538   0.357   2.362   3.718  2.5076 -0.4691  1.3934
 2327TIP3   OH228539   6.651   2.643   2.478 -0.0938  0.9045 -0.2129
 2327TIP3    H128540   6.723   2.629   2.417  0.3128  0.3908  0.3689
 2327TIP3    H228541   6.636   2.557   2.517 -0.0940  1.2978  0.6808
 2328TIP3   OH228542   6.498   2.198   7.547  0.0848  0.6857 -0.1772
 2328TIP3    H128543   6.552   2.121   7.527  1.4172  1.4128  0.4614
 2328TIP3    H228544   6.546   2.243   7.616 -0.3232  2.4616 -0.9979
 2329TIP3   OH228545   3.921   2.682   1.514  0.0803 -0.2467 -0.1213
 2329TIP3    H128546   3.958   2.702   1.600  0.0047  0.9263 -0.3482
 2329TIP3    H228547   3.838   2.730   1.512 -0.2980 -0.9036 -0.5526
 2330TIP3   OH228548   5.675   0.723   2.967 -0.3048 -0.1483 -0.7241
 2330TIP3    H128549   5.584   0.700   2.986 -0.6866 -1.5808 -3.6528
 2330TIP3    H228550   5.727   0.654   3.008 -0.4997  0.5443  0.7517
 2331TIP3   OH228551   6.015   4.643   0.386 -0.3284 -0.2741  0.1414
 2331TIP3    H128552   6.045   4.579   0.321 -1.0343  0.4963 -0.9884
 2331TIP3    H228553   6.067   4.625   0.464  0.2449 -1.5111 -0.5022
 2332TIP3   OH228554   0.932   5.286   1.465 -0.2160  0.4085 -0.0079
 2332TIP3    H128555   0.916   5.262   1.374 -1.3975  1.5321 -0.1271
 2332TIP3    H228556   0.951   5.203   1.509 -0.5977 -0.2704 -1.0891
 2333TIP3   OH228557   2.229   4.532   2.667  0.0646 -0.7969  0.3855
 2333TIP3    H128558   2.188   4.479   2.735 -0.1692 -1.4439 -0.2593
 2333TIP3    H228559   2.192   4.620   2.680 -0.9497 -1.2004  0.2915
 2334TIP3   OH228560   6.489   6.816   3.673  0.1387 -0.6922  0.3268
 2334TIP3    H128561   6.519   6.727   3.692  1.0861 -0.8872 -1.7995
 2334TIP3    H228562   6.566   6.871   3.688 -0.0480 -0.4119  0.2750
 2335TIP3   OH228563   5.434   1.314   0.797  0.2221 -0.2496 -0.3955
 2335TIP3    H128564   5.521   1.353   0.799 -0.2201  0.9166 -1.8241
 2335TIP3    H228565   5.410   1.303   0.889  1.4869  0.2947  0.0182
 2336TIP3   OH228566   2.635   5.536   2.870 -0.1780 -0.4892 -0.1812
 2336TIP3    H128567   2.685   5.506   2.945  0.9248  0.8674 -0.3324
 2336TIP3    H228568   2.667   5.625   2.854 -2.8844  0.6000 -0.0683
 2337TIP3   OH228569   1.261   2.593   1.002  0.2399  0.4030  0.1853
 2337TIP3    H128570   1.290   2.669   1.053 -0.4964  0.0960  1.0951
 2337TIP3    H228571   1.261   2.624   0.912 -0.1491  1.5368  0.5502
 2338TIP3   OH228572   3.125   4.106   0.376  0.4459 -0.1299  0.4458
 2338TIP3    H128573   3.147   4.183   0.323 -0.7981  0.9755  1.4444
 2338TIP3    H228574   3.174   4.119   0.458  0.8254 -0.8092  0.3295
 2339TIP3   OH228575   0.441   3.517   0.178  0.2019  0.2775 -0.3031
 2339TIP3    H128576   0.390   3.535   0.257  0.9963  3.0198 -0.3221
 2339TIP3    H228577   0.515   3.577   0.182  1.9024 -1.5556 -1.7206
 2340TIP3   OH228578   0.436   0.221   0.352  0.2141 -0.2436  0.5324
 2340TIP3    H128579   0.517   0.231   0.402  0.3226 -1.8382  0.7379
 2340TIP3    H228580   0.376   0.285   0.389  1.0097  0.1505  1.1615
 2341TIP3   OH228581   6.739   5.545   3.157 -0.1748 -0.7855  0.2503
 2341TIP3    H128582   6.720   5.598   3.235 -1.0558  0.7282 -0.9425
 2341TIP3    H228583   6.799   5.598   3.106 -0.8619 -1.0335 -0.8531
 2342TIP3   OH228584   0.943   0.085   2.374 -0.4019 -0.2046 -0.1049
 2342TIP3    H128585   1.032   0.074   2.342  0.1067 -0.2661  1.2533
 2342TIP3    H228586   0.903   0.147   2.314  0.2982 -0.7931 -1.1999
 2343TIP3   OH228587   5.746   0.384   1.055  0.0841 -0.2822 -0.1435
 2343TIP3    H128588   5.665   0.356   1.011  0.2581 -0.7702 -0.1546
 2343TIP3    H228589   5.792   0.303   1.074 -0.3149 -0.1533  1.5911
 2344TIP3   OH228590   5.597   2.781   0.594  0.0044 -0.0744 -0.1376
 2344TIP3    H128591   5.602   2.812   0.504  1.6944  0.5340  0.1458
 2344TIP3    H228592   5.615   2.687   0.588 -1.0217 -0.2644 -0.5328
 2345TIP3   OH228593   1.216   2.880   2.383  0.2820 -0.1999 -0.4433
 2345TIP3    H128594   1.255   2.964   2.406 -1.5758  0.9895 -1.3893
 2345TIP3    H228595   1.251   2.859   2.297  0.4936 -0.2195 -0.3514
 2346TIP3   OH228596   4.248   0.183   8.427  0.0005 -0.6971  0.3515
 2346TIP3    H128597   4.237   0.225   8.512 -1.2487 -1.2784  0.5045
 2346TIP3    H228598   4.309   0.111   8.444 -0.7312 -1.2015  0.9170
 2347TIP3   OH228599   6.249   0.056   3.007 -0.5738 -0.3652  0.4190
 2347TIP3    H128600   6.230   0.067   3.100 -0.5092  1.1344  0.2732
 2347TIP3    H228601   6.180  -0.002   2.975  1.2017 -3.6204  2.0097
 2348TIP3   OH228602   6.539   4.516   1.895  0.5366 -1.1168 -0.2781
 2348TIP3    H128603   6.461   4.549   1.939  0.9304 -0.3277 -0.1501
 2348TIP3    H228604   6.602   4.503   1.966  1.3069  0.5350 -0.6039
 2349TIP3   OH228605   1.300   0.383   8.094 -0.4762 -0.3730  0.5784
 2349TIP3    H128606   1.386   0.358   8.060 -0.8358  0.6677 -1.2424
 2349TIP3    H228607   1.246   0.305   8.081  0.0923 -0.9231  1.4234
 2350TIP3   OH228608   1.866   4.745   8.582  0.3729 -0.1112 -0.2756
 2350TIP3    H128609   1.833   4.765   8.494  0.4047  0.7980 -0.0940
 2350TIP3    H228610   1.954   4.710   8.568  0.0104 -0.9036 -0.6537
 2351TIP3   OH228611   1.562   3.813   0.746 -0.0095 -0.3915 -0.4861
 2351TIP3    H128612   1.482   3.864   0.752  1.1863  1.7040 -1.5218
 2351TIP3    H228613   1.624   3.870   0.701  2.4436 -1.4662  1.3212
 2352TIP3   OH228614   2.040   3.429   0.602 -0.4847 -0.1310 -0.7301
 2352TIP3    H128615   2.055   3.372   0.526  0.1459 -1.0506  0.0720
 2352TIP3    H228616   1.972   3.384   0.653 -1.5925  0.9463 -1.1925
 2353TIP3   OH228617   2.066   2.410   2.057 -0.2253 -0.4718  0.9784
 2353TIP3    H128618   2.108   2.348   1.996 -0.4391  0.9123 -0.6633
 2353TIP3    H228619   1.973   2.390   2.051 -0.3306  0.1849  0.1809
 2354TIP3   OH228620   3.618   0.728   2.842  0.2229  0.0859 -1.0635
 2354TIP3    H128621   3.573   0.806   2.876 -0.4537 -0.7792  0.0713
 2354TIP3    H228622   3.669   0.761   2.767  0.3407  1.6996 -0.3135
 2355TIP3   OH228623   5.990   0.641   1.826 -0.6483 -0.1444 -0.5768
 2355TIP3    H128624   5.905   0.620   1.863 -0.7102 -0.5618 -0.9502
 2355TIP3    H228625   6.049   0.575   1.863  0.0191  1.5142  1.5562
 2356TIP3   OH228626   3.598   5.853   2.926 -0.3568  0.1859 -0.0181
 2356TIP3    H128627   3.529   5.912   2.894  0.2702  0.5115 -0.8076
 2356TIP3    H228628   3.579   5.769   2.884  0.0523  0.4242 -0.6804
 2357TIP3   OH228629   3.635   6.619   2.205  0.0364 -0.1288  0.7057
 2357TIP3    H128630   3.689   6.684   2.250 -0.3589  1.0636 -0.4551
 2357TIP3    H228631   3.625   6.548   2.268  3.9577 -1.0206  0.5565
 2358TIP3   OH228632   2.382   5.808   3.587 -0.1588 -0.1031 -0.5724
 2358TIP3    H128633   2.358   5.839   3.674  0.0568  0.9139 -0.8658
 2358TIP3    H228634   2.371   5.713   3.592 -1.0111  0.0275  0.2881
 2359TIP3   OH228635   3.114   6.823   8.232  0.0066 -0.1291  0.3788
 2359TIP3    H128636   3.166   6.868   8.298 -0.0534  0.7687 -0.1615
 2359TIP3    H228637   3.178   6.777   8.178  0.4042  1.8789 -0.9655
 2360TIP3   OH228638   0.598   6.670   1.758 -0.2643  0.4435 -0.1753
 2360TIP3    H128639   0.604   6.702   1.668 -0.8118  0.9626 -0.0333
 2360TIP3    H228640   0.689   6.657   1.785 -0.1078 -1.0118 -1.2433
 2361TIP3   OH228641   3.271   4.624   2.116 -0.3454 -0.2604 -0.0131
 2361TIP3    H128642   3.201   4.586   2.169 -1.8282  1.5081 -0.6124
 2361TIP3    H228643   3.276   4.715   2.144  0.1076  0.2386 -1.6248
 2362TIP3   OH228644   3.136   2.009   1.898 -0.4609  0.1800 -0.2413
 2362TIP3    H128645   3.151   2.077   1.964 -1.1121  1.4265 -1.3406
 2362TIP3    H228646   3.064   2.042   1.845 -2.0078 -2.1800  0.2338
 2363TIP3   OH228647   2.885   1.204   1.642  0.4106  0.4552 -0.6461
 2363TIP3    H128648   2.917   1.212   1.553 -1.0531  0.4313 -1.2022
 2363TIP3    H228649   2.855   1.113   1.649  2.3107 -0.1366  0.5288
 2364TIP3   OH228650   3.343   6.856   1.669  0.2192  0.4997  0.3748
 2364TIP3    H128651   3.425   6.858   1.720  1.5764  1.5487 -1.7046
 2364TIP3    H228652   3.338   6.766   1.636 -0.0586  0.1317  1.3928
 2365TIP3   OH228653   2.910   2.417   0.019  0.1883 -0.4448 -0.2942
 2365TIP3    H128654   2.917   2.322   0.006  0.2693 -0.3291 -1.1176
 2365TIP3    H228655   2.989   2.440   0.069  0.4407 -0.7304 -0.5595
 2366TIP3   OH228656   2.012   0.948   1.421 -0.2867  0.1392 -0.1265
 2366TIP3    H128657   2.079   1.015   1.433  0.6897 -0.4018 -2.1122
 2366TIP3    H228658   1.958   0.980   1.349 -0.9925 -0.3255  0.1840
 2367TIP3   OH228659   5.118   5.596   0.831 -0.3404 -0.4825 -0.4599
 2367TIP3    H128660   5.071   5.536   0.889 -0.4039  1.1341  1.2398
 2367TIP3    H228661   5.156   5.661   0.890  1.2118  0.1544 -2.0931
 2368TIP3   OH228662   1.076   4.311   2.762  0.1480 -0.3924  0.0861
 2368TIP3    H128663   1.159   4.271   2.735  0.1978  0.6429 -1.3883
 2368TIP3    H228664   1.089   4.332   2.855  1.1991 -1.0476  0.1086
 2369TIP3   OH228665   2.276   1.659   8.116  0.3579 -0.0755 -0.2767
 2369TIP3    H128666   2.189   1.630   8.089 -0.4530  0.5190  1.5917
 2369TIP3    H228667   2.298   1.730   8.054 -0.7066  0.1298 -0.4296
 2370TIP3   OH228668   1.026   3.985   8.245  0.6458  0.0336 -0.0637
 2370TIP3    H128669   1.011   3.891   8.245  0.4036  0.0604  0.5472
 2370TIP3    H228670   1.084   4.001   8.171 -0.8706 -0.3328 -1.3902
 2371TIP3   OH228671   0.378   2.663   4.012 -0.5127  0.3289  0.1355
 2371TIP3    H128672   0.388   2.652   4.106 -0.0656 -0.5899 -0.0107
 2371TIP3    H228673   0.293   2.707   4.002 -3.0220 -3.8657  0.7644
 2372TIP3   OH228674   5.195   0.565   2.285  0.1621 -0.9440  0.1210
 2372TIP3    H128675   5.247   0.485   2.285 -0.4007 -1.3408  1.4829
 2372TIP3    H228676   5.259   0.636   2.279  0.5824 -1.4502 -3.3737
 2373TIP3   OH228677   0.858   2.718   1.332  0.1335  0.1295  0.1169
 2373TIP3    H128678   0.814   2.711   1.247  2.0501 -1.1662 -0.8620
 2373TIP3    H228679   0.794   2.684   1.395 -1.1291  0.6021 -0.8750
 2374TIP3   OH228680   3.151   2.776   0.310 -0.5779 -0.3581  0.1555
 2374TIP3    H128681   3.114   2.718   0.376 -1.1923  1.8717  1.9332
 2374TIP3    H228682   3.087   2.777   0.239 -0.2591 -2.2462 -0.2104
 2375TIP3   OH228683   2.908   1.806   1.415 -0.1465  0.0178  0.2887
 2375TIP3    H128684   2.971   1.788   1.485  1.0180  1.4670 -0.3277
 2375TIP3    H228685   2.922   1.736   1.351  0.1395 -0.2242  0.6141
 2376TIP3   OH228686   2.315   3.652   2.528  0.3793 -0.0996 -0.2331
 2376TIP3    H128687   2.228   3.684   2.552 -0.0684 -1.7835  0.5050
 2376TIP3    H228688   2.307   3.629   2.435  0.2205  0.3189 -0.3255
 2377TIP3   OH228689   5.693   1.384   0.868 -0.0082 -0.3343 -0.7710
 2377TIP3    H128690   5.698   1.326   0.943  0.9541  0.1410 -0.4420
 2377TIP3    H228691   5.747   1.459   0.892  0.9002 -0.4806 -2.1977
 2378TIP3   OH228692   0.572   5.898   2.486 -0.6346 -0.6522  0.3794
 2378TIP3    H128693   0.525   5.969   2.443  0.5959  1.6939  2.6350
 2378TIP3    H228694   0.557   5.821   2.430 -0.9754  1.6178 -2.9120
 2379TIP3   OH228695   6.499   6.814   1.250  0.2242  0.2671  0.5064
 2379TIP3    H128696   6.521   6.725   1.223  0.2338 -0.0185  1.3963
 2379TIP3    H228697   6.477   6.805   1.343  1.6095  1.4265  0.9719
 2380TIP3   OH228698   1.909   1.536   8.600 -0.1555  0.3165 -0.2836
 2380TIP3    H128699   1.821   1.519   8.566  0.7498  0.4519 -2.8381
 2380TIP3    H228700   1.962   1.552   8.523  1.7269  2.2362  1.3082
 2381TIP3   OH228701   4.003   1.620   0.944  0.1059  0.0043 -0.3140
 2381TIP3    H128702   4.032   1.702   0.984 -1.9551  0.8623 -0.4607
 2381TIP3    H228703   4.082   1.581   0.908  1.1124  1.9932 -0.3436
 2382TIP3   OH228704   4.306   5.934   7.953 -0.2460 -0.1579 -0.0291
 2382TIP3    H128705   4.377   5.958   7.894  0.6557 -1.0104  0.6641
 2382TIP3    H228706   4.268   6.018   7.980  0.6861  0.3338 -0.1883
 2383TIP3   OH228707   1.332   3.848   0.357  0.4137 -0.1615  0.2281
 2383TIP3    H128708   1.284   3.930   0.350 -1.0562 -0.8772  1.2865
 2383TIP3    H228709   1.328   3.809   0.270 -1.3969 -0.4286  0.4074
 2384TIP3   OH228710   1.167   4.720   2.269 -0.6944  0.5858 -0.7212
 2384TIP3    H128711   1.228   4.690   2.202 -0.9623 -1.6468 -0.0189
 2384TIP3    H228712   1.082   4.724   2.225 -0.9445 -1.2617 -0.4626
 2385TIP3   OH228713   0.078   1.016   1.924 -0.0263 -0.0856 -0.4907
 2385TIP3    H128714   0.159   1.064   1.908 -0.1046 -0.2206 -1.3384
 2385TIP3    H228715   0.099   0.957   1.996  0.2896  0.6800  0.0547
 2386TIP3   OH228716   2.121   5.018   1.550  0.8067  0.0073  0.2534
 2386TIP3    H128717   2.087   5.057   1.631  0.3381 -0.1419  0.1364
 2386TIP3    H228718   2.108   5.086   1.484 -0.5452 -0.5226 -0.0698
 2387TIP3   OH228719   2.810   6.287   2.438  0.2599 -0.7654  0.2751
 2387TIP3    H128720   2.874   6.217   2.431  1.1662  0.0636  0.0430
 2387TIP3    H228721   2.803   6.305   2.532  0.7222 -0.5458  0.2699
 2388TIP3   OH228722   1.292   5.898   0.646  0.6098  0.6551  0.0432
 2388TIP3    H128723   1.359   5.959   0.675  0.4632  1.5976 -1.4896
 2388TIP3    H228724   1.340   5.821   0.617  1.1605  1.6577 -1.8801
 2389TIP3   OH228725   6.352   5.138   2.929 -0.5444  0.0235  0.0871
 2389TIP3    H128726   6.341   5.166   3.020  0.7805 -0.0090  0.2699
 2389TIP3    H228727   6.310   5.206   2.877  0.5182  1.1290  0.6363
 2390TIP3   OH228728   2.834   4.385   2.184 -0.1607 -0.2301  0.4158
 2390TIP3    H128729   2.896   4.313   2.193  1.0239  0.7885  0.5579
 2390TIP3    H228730   2.806   4.404   2.274  0.0915 -0.0371  0.4554
 2391TIP3   OH228731   0.390   0.377   1.357  0.3821 -0.0544  0.3828
 2391TIP3    H128732   0.466   0.402   1.409  2.0835 -2.6850 -0.6294
 2391TIP3    H228733   0.333   0.331   1.419 -0.5689  2.1053  1.1927
 2392TIP3   OH228734   4.180   3.316   0.617 -0.0781 -0.4931 -0.7412
 2392TIP3    H128735   4.142   3.228   0.623 -2.9843  0.5999 -1.5629
 2392TIP3    H228736   4.145   3.362   0.693  1.6297 -0.0595 -0.1824
 2393TIP3   OH228737   0.496   0.897   8.645  0.0901  0.0800 -0.2847
 2393TIP3    H128738   0.446   0.848   8.711 -0.4387 -2.1060 -2.1662
 2393TIP3    H228739   0.570   0.840   8.624  0.5009  0.9360 -1.2480
 2394TIP3   OH228740   3.938   1.172   1.340 -0.0422  1.0010 -0.0086
 2394TIP3    H128741   3.982   1.102   1.388  0.4940  0.3140 -1.4343
 2394TIP3    H228742   4.008   1.229   1.311 -0.1949  0.6052 -1.1945
 2395TIP3   OH228743   0.682   2.386   1.880 -0.2258 -0.5632 -0.1429
 2395TIP3    H128744   0.678   2.476   1.913  1.0729  0.6876 -3.0701
 2395TIP3    H228745   0.698   2.333   1.958  0.1542  1.8706  1.5467
 2396TIP3   OH228746   2.315   3.352   2.336 -0.1498  0.5522  0.0544
 2396TIP3    H128747   2.256   3.348   2.411  0.8203 -3.9171  0.8798
 2396TIP3    H228748   2.400   3.377   2.372 -0.0077 -0.1633  0.2383
 2397TIP3   OH228749   3.258   2.865   2.706  0.7271  0.5993 -0.2019
 2397TIP3    H128750   3.227   2.805   2.639  1.3929  1.6793 -1.5415
 2397TIP3    H228751   3.335   2.822   2.742  2.5482  1.4786 -2.6929
 2398TIP3   OH228752   3.147   6.746   0.450 -0.0835  0.6465 -0.3929
 2398TIP3    H128753   3.069   6.694   0.430  0.3774 -0.0602 -0.4078
 2398TIP3    H228754   3.212   6.717   0.385  0.4209  0.6724  0.0945
 2399TIP3   OH228755   2.953   3.828   8.344 -0.5115  0.0913 -0.3299
 2399TIP3    H128756   2.966   3.804   8.252 -1.1918  1.4723 -0.8069
 2399TIP3    H228757   2.961   3.923   8.345 -1.2770  0.1555  0.9145
 2400TIP3   OH228758   1.915   0.705   0.578  0.6781 -0.5174  0.1550
 2400TIP3    H128759   1.909   0.622   0.626 -0.1482 -0.5060  0.0862
 2400TIP3    H228760   1.867   0.689   0.497  0.6649 -0.0244  0.0630
 2401TIP3   OH228761   5.319   1.887   0.222 -0.2832 -0.9740 -0.5249
 2401TIP3    H128762   5.403   1.931   0.205  0.8503 -2.4647  0.8752
 2401TIP3    H228763   5.269   1.950   0.274  0.7667 -0.7659  0.2788
 2402TIP3   OH228764   0.823   5.188   1.213  0.1453 -0.4163  0.2262
 2402TIP3    H128765   0.736   5.184   1.173  0.0757 -1.4855  0.4465
 2402TIP3    H228766   0.883   5.164   1.143  0.0408 -2.0886  0.6777
 2403TIP3   OH228767   0.656   4.472   0.312 -0.5288  0.7915  0.6466
 2403TIP3    H128768   0.695   4.540   0.366 -0.2248  0.6889  0.5576
 2403TIP3    H228769   0.620   4.519   0.236  0.3400  0.7736  0.2162
 2404TIP3   OH228770   1.385   1.456   8.079  0.8128 -1.4077  0.0250
 2404TIP3    H128771   1.453   1.389   8.069  0.1535 -2.0709 -0.1037
 2404TIP3    H228772   1.398   1.515   8.004  1.3981 -1.3905  0.1379
 2405TIP3   OH228773   2.109   5.600   0.404 -0.7546 -0.1229 -0.0128
 2405TIP3    H128774   2.149   5.517   0.429 -1.4830 -0.3496  0.4071
 2405TIP3    H228775   2.159   5.628   0.328  0.3948 -0.2627  0.6620
 2406TIP3   OH228776   0.142   4.124   0.940 -0.3648  0.0448 -0.0695
 2406TIP3    H128777   0.166   4.087   1.025 -0.1111 -3.3223 -1.4624
 2406TIP3    H228778   0.065   4.073   0.913 -1.0806  1.7476 -1.4596
 2407TIP3   OH228779   2.325   4.988   3.420 -0.0246 -0.0053 -0.0823
 2407TIP3    H128780   2.389   4.922   3.446 -1.1422 -0.3711  1.9054
 2407TIP3    H228781   2.244   4.938   3.405 -0.8848  0.8634  1.4494
 2408TIP3   OH228782   1.093   2.268   1.604  0.3986 -0.0033 -0.2622
 2408TIP3    H128783   1.125   2.353   1.572  1.3914 -0.5812 -0.8603
 2408TIP3    H228784   1.066   2.286   1.694  1.8231  0.6851  0.0625
 2409TIP3   OH228785   6.315   1.925   8.047  0.5008  0.5431 -0.1480
 2409TIP3    H128786   6.288   1.888   7.963 -1.6990  0.6273  0.4613
 2409TIP3    H228787   6.238   1.973   8.078  0.0984 -1.8925  3.2685
 2410TIP3   OH228788   6.015   0.605   8.404  0.1982  0.3588 -0.2399
 2410TIP3    H128789   5.971   0.682   8.368  0.6402  1.3103  1.1439
 2410TIP3    H228790   6.108   0.619   8.384  0.0408 -1.2542 -2.4633
 2411TIP3   OH228791   0.643   2.111   8.423  0.0393 -0.0502 -0.6714
 2411TIP3    H128792   0.673   2.191   8.380  0.0698 -0.5372 -1.5683
 2411TIP3    H228793   0.721   2.057   8.431 -0.2186 -0.5223 -1.2559
 2412TIP3   OH228794   5.774   3.099   2.936 -0.1651 -0.2715  0.4322
 2412TIP3    H128795   5.803   3.008   2.933  0.6781 -0.0932  2.0714
 2412TIP3    H228796   5.854   3.150   2.949 -0.7970  0.5486  1.2763
 2413TIP3   OH228797   2.462   2.155   1.217 -0.2598 -0.0648 -0.1662
 2413TIP3    H128798   2.426   2.101   1.287 -0.2520 -0.1386 -0.2183
 2413TIP3    H228799   2.520   2.216   1.262 -2.1032  1.5158  0.1637
 2414TIP3   OH228800   3.148   3.234   2.249  0.1713 -0.4655  0.9616
 2414TIP3    H128801   3.158   3.254   2.156 -2.1358 -0.2451  0.6991
 2414TIP3    H228802   3.227   3.185   2.272  0.2249 -1.6131 -1.4276
 2415TIP3   OH228803   1.517   2.557   1.664  0.1766 -0.0002  0.3443
 2415TIP3    H128804   1.480   2.494   1.603  1.0234  0.4861 -0.6978
 2415TIP3    H228805   1.517   2.640   1.616  0.4878  0.4785  1.1525
 2416TIP3   OH228806   0.549   2.668   2.516  0.1070 -0.2774  0.0131
 2416TIP3    H128807   0.529   2.714   2.598 -0.9324 -0.0834 -0.3322
 2416TIP3    H228808   0.576   2.738   2.456 -1.7940 -0.0169 -0.6123
 2417TIP3   OH228809   4.606   6.532   0.414  0.7326 -0.0510 -0.4766
 2417TIP3    H128810   4.546   6.458   0.403 -1.0130  1.3570 -0.8833
 2417TIP3    H228811   4.573   6.577   0.491  0.8979  1.0657 -1.0446
 2418TIP3   OH228812   4.838   4.288   8.031 -0.0099 -0.0275 -0.7143
 2418TIP3    H128813   4.768   4.324   7.976 -1.5506 -0.6079  0.7595
 2418TIP3    H228814   4.847   4.198   8.002  0.1784  0.0687 -0.9550
 2419TIP3   OH228815   4.343   6.755   1.388  0.1787  0.3045 -0.3248
 2419TIP3    H128816   4.433   6.776   1.365 -0.2167  0.1639 -2.2458
 2419TIP3    H228817   4.296   6.759   1.304 -0.9267 -2.9280 -0.0132
 2420TIP3   OH228818   3.073   0.859   2.632  0.3036  0.1673 -0.1831
 2420TIP3    H128819   3.106   0.808   2.706 -1.3816  1.2692  1.4218
 2420TIP3    H228820   2.986   0.823   2.615 -0.6571  1.9799  0.5667
 2421TIP3   OH228821   4.042   6.449   2.739  0.2641 -0.5707 -0.5578
 2421TIP3    H128822   3.948   6.454   2.757  0.0174  1.6494 -2.1347
 2421TIP3    H228823   4.081   6.519   2.792  0.7769 -0.2643 -1.3230
 2422TIP3   OH228824   2.633   4.076   2.376 -0.1107 -0.0851  0.2192
 2422TIP3    H128825   2.625   4.050   2.468  0.5931  1.4106  0.7465
 2422TIP3    H228826   2.722   4.052   2.352  0.2711  1.0171  0.4668
 2423TIP3   OH228827   6.294   1.064   1.793 -0.5070 -0.0164 -0.5690
 2423TIP3    H128828   6.226   1.062   1.725 -0.5617  2.4540 -0.6819
 2423TIP3    H228829   6.291   1.154   1.826  1.4544 -0.3830  0.7333
 2424TIP3   OH228830   1.036   6.016   7.835 -0.3787 -0.1233  0.2657
 2424TIP3    H128831   0.944   6.039   7.821 -0.7705 -1.1391  0.9916
 2424TIP3    H228832   1.035   5.965   7.916  0.9264  0.4042  0.6346
 2425TIP3   OH228833   3.370   5.464   8.453 -0.1926 -0.3853  0.3092
 2425TIP3    H128834   3.381   5.551   8.489 -0.4860 -0.5919  0.9066
 2425TIP3    H228835   3.385   5.405   8.527  2.9981 -0.9981 -0.6601
 2426TIP3   OH228836   0.121   2.677   1.407  0.3623 -0.4578 -0.1902
 2426TIP3    H128837   0.136   2.596   1.455  0.8041  0.0493  0.5465
 2426TIP3    H228838   0.027   2.693   1.415  0.6493  0.5113  2.0050
 2427TIP3   OH228839   0.891   0.078   1.901 -0.4404 -0.0444  0.3371
 2427TIP3    H128840   0.963   0.016   1.893 -0.6078 -0.0835 -1.1584
 2427TIP3    H228841   0.862   0.093   1.811 -1.5251  0.8839  0.8135
 2428TIP3   OH228842   3.773   0.801   7.630 -0.8610 -0.0590 -0.4592
 2428TIP3    H128843   3.852   0.748   7.618  0.1935  1.3584 -0.0445
 2428TIP3    H228844   3.804   0.882   7.671 -2.6194  0.3059  0.2440
 2429TIP3   OH228845   5.370   2.839   2.201  0.4519 -0.6136 -0.3430
 2429TIP3    H128846   5.389   2.914   2.145 -0.2229  0.5774  0.9389
 2429TIP3    H228847   5.295   2.796   2.159  0.1498  0.0817 -0.5368
 2430TIP3   OH228848   6.569   2.160   8.270  0.9795 -0.1666 -0.2411
 2430TIP3    H128849   6.641   2.173   8.332  1.0205  0.7159 -0.4588
 2430TIP3    H228850   6.582   2.072   8.235  1.5614 -0.2666  0.2268
 2431TIP3   OH228851   5.057   4.604   1.284  0.0425 -0.3045 -0.1719
 2431TIP3    H128852   5.151   4.596   1.299  0.7518  1.5751 -2.8995
 2431TIP3    H228853   5.028   4.515   1.264  0.8499 -1.1787  2.1905
 2432TIP3   OH228854   4.750   4.529   2.506  0.1368  0.3784  0.1217
 2432TIP3    H128855   4.657   4.543   2.524 -0.3737 -0.2647 -1.8302
 2432TIP3    H228856   4.772   4.451   2.557 -0.4661  0.3758  0.3910
 2433TIP3   OH228857   4.563   1.671   0.638 -0.2027 -0.6691 -0.3555
 2433TIP3    H128858   4.502   1.655   0.710 -0.5625 -0.3615 -0.5927
 2433TIP3    H228859   4.623   1.596   0.641 -0.5241 -0.9176 -0.0523
 2434TIP3   OH228860   2.758   0.419   8.580  0.2300 -0.5693 -0.4363
 2434TIP3    H128861   2.670   0.392   8.607 -0.3832  1.1509 -0.5687
 2434TIP3    H228862   2.766   0.390   8.490 -0.0710 -1.0299 -0.3187
 2435TIP3   OH228863   1.417   6.626   0.330 -0.5550  0.8108  0.9442
 2435TIP3    H128864   1.453   6.538   0.345  1.0235  1.2885  0.1888
 2435TIP3    H228865   1.454   6.679   0.402 -0.9120  1.0122  0.9806
 2436TIP3   OH228866   2.776   2.533   4.091 -0.3410 -0.2618 -0.0690
 2436TIP3    H128867   2.833   2.548   4.167 -0.8824 -1.4539  0.6015
 2436TIP3    H228868   2.687   2.530   4.128 -0.7139  0.1396 -0.8998
 2437TIP3   OH228869   4.917   1.379   8.551  0.0309 -0.5074 -0.1182
 2437TIP3    H128870   4.875   1.437   8.488  1.0281  0.8291  0.3751
 2437TIP3    H228871   4.852   1.367   8.620 -0.2786 -0.1584 -0.3442
 2438TIP3   OH228872   2.185   3.487   8.478  0.3611 -0.5623 -0.4947
 2438TIP3    H128873   2.099   3.497   8.438  0.8284  0.7116 -1.2402
 2438TIP3    H228874   2.241   3.452   8.409  0.8336  0.2772 -0.5573
 2439TIP3   OH228875   6.167   4.138   0.514 -0.1995 -0.5338 -0.2746
 2439TIP3    H128876   6.168   4.088   0.595 -0.7405  0.2567  0.2306
 2439TIP3    H228877   6.075   4.161   0.502 -0.0514 -0.2488 -0.8721
 2440TIP3   OH228878   3.312   2.434   1.208 -0.0947  0.0321  0.1644
 2440TIP3    H128879   3.288   2.391   1.290 -1.4582  0.3782 -0.0306
 2440TIP3    H228880   3.303   2.528   1.226  0.8311  0.1654 -0.0194
 2441TIP3   OH228881   1.026   4.508   1.020 -0.0992  0.3009 -0.3592
 2441TIP3    H128882   1.078   4.587   1.035  1.5642 -0.7908 -0.1519
 2441TIP3    H228883   0.936   4.540   1.014  0.5968  2.2930 -0.9953
 2442TIP3   OH228884   4.966   6.017   3.342 -0.1148 -0.4329 -0.4234
 2442TIP3    H128885   4.961   6.098   3.394 -2.0010 -0.2278 -0.8633
 2442TIP3    H228886   4.878   5.980   3.347  0.6955 -2.4520 -0.2934
 2443TIP3   OH228887   3.912   4.771   2.683 -0.5180  0.1149  0.7817
 2443TIP3    H128888   3.887   4.705   2.748 -0.1563 -0.1589  0.6416
 2443TIP3    H228889   3.990   4.812   2.720 -0.7687  0.5043  0.8917
 2444TIP3   OH228890   4.819   5.164   3.382  0.0927 -0.6527 -0.1553
 2444TIP3    H128891   4.812   5.151   3.287 -1.3492  0.4663 -0.2510
 2444TIP3    H228892   4.764   5.096   3.419  0.9030 -1.2842 -0.0887
 2445TIP3   OH228893   3.906   3.086   8.291  0.4254 -0.1160 -0.2825
 2445TIP3    H128894   3.841   3.071   8.223  1.9228 -0.8661 -1.6142
 2445TIP3    H228895   3.981   3.034   8.264  1.1477 -0.2923  1.8660
 2446TIP3   OH228896   0.687   3.060   2.103 -0.2774 -0.0194 -0.0037
 2446TIP3    H128897   0.721   3.094   2.185 -0.0535 -2.9157  1.2128
 2446TIP3    H228898   0.764   3.046   2.049 -0.0366 -1.4216  0.6713
 2447TIP3   OH228899   4.903   3.812   8.317 -0.2642  0.1798 -0.0370
 2447TIP3    H128900   4.954   3.833   8.239 -1.3896  0.4770 -0.7129
 2447TIP3    H228901   4.921   3.884   8.378  2.4863 -1.2266  0.9674
 2448TIP3   OH228902   2.289   3.706   1.498 -0.0618 -0.6486  0.6016
 2448TIP3    H128903   2.279   3.800   1.516 -1.8831 -0.6923 -0.0344
 2448TIP3    H228904   2.204   3.668   1.518  0.0117 -1.8308 -1.0941
 2449TIP3   OH228905   3.146   4.989   1.512 -0.4009 -0.2771  0.0521
 2449TIP3    H128906   3.201   5.054   1.555 -0.0918 -1.4820  1.5835
 2449TIP3    H228907   3.118   5.031   1.430 -2.2092  2.7113  2.0257
 2450TIP3   OH228908   6.485   1.566   1.024  0.4371 -0.4297  0.3484
 2450TIP3    H128909   6.476   1.595   0.933  2.2289  0.6693  0.4877
 2450TIP3    H228910   6.496   1.471   1.018 -0.8122 -0.5459 -0.4572
 2451TIP3   OH228911   1.434   0.992   1.048  0.2935 -0.2514 -0.2402
 2451TIP3    H128912   1.508   0.997   0.987 -0.8385 -0.5021 -1.6748
 2451TIP3    H228913   1.468   0.941   1.122  1.3981 -0.7936 -1.0954
 2452TIP3   OH228914   4.095   3.335   3.498 -0.0559  0.3204  0.0681
 2452TIP3    H128915   4.098   3.251   3.544  1.1309 -0.4421 -1.3086
 2452TIP3    H228916   4.141   3.396   3.556  2.4183 -0.8672 -0.4931
 2453TIP3   OH228917   2.460   4.590   2.821  0.1693  0.6534  0.2257
 2453TIP3    H128918   2.391   4.568   2.758  0.4958  0.0907  0.0645
 2453TIP3    H228919   2.488   4.678   2.795  1.9823 -0.4732 -1.9660
 2454TIP3   OH228920   2.615   2.020   3.698  0.7815 -0.3432  0.1572
 2454TIP3    H128921   2.593   2.112   3.711 -0.6779 -0.0190 -3.4069
 2454TIP3    H228922   2.711   2.017   3.702  0.8701  1.3897  0.0472
 2455TIP3   OH228923   1.980   2.607   3.112  0.2286  0.5975  0.6897
 2455TIP3    H128924   2.010   2.516   3.121  0.0389  0.3081 -1.2033
 2455TIP3    H228925   2.040   2.646   3.050 -2.5975  0.2471 -2.5636
 2456TIP3   OH228926   3.720   5.639   0.598 -0.0701  0.5575  0.3366
 2456TIP3    H128927   3.756   5.673   0.516  0.3862  0.3030  0.4291
 2456TIP3    H228928   3.741   5.707   0.663  1.0775 -0.0084  0.5741
 2457TIP3   OH228929   3.148   0.125   3.816 -0.1011  0.2628  0.1591
 2457TIP3    H128930   3.100   0.056   3.771 -0.1161  0.6350 -0.4028
 2457TIP3    H228931   3.199   0.079   3.883 -0.1998 -0.2777 -0.1312
 2458TIP3   OH228932   0.771   5.500   3.947 -0.2574  0.1846  0.0856
 2458TIP3    H128933   0.773   5.469   3.856  1.5619  1.5439 -0.3763
 2458TIP3    H228934   0.680   5.485   3.975 -1.1417  0.6900 -2.2939
 2459TIP3   OH228935   2.544   5.676   0.235 -0.1092 -1.3192 -0.2576
 2459TIP3    H128936   2.563   5.608   0.170 -1.5487 -0.4063 -1.7104
 2459TIP3    H228937   2.594   5.752   0.206 -0.7587 -0.9038 -0.3019
 2460TIP3   OH228938   3.823   3.331   1.277 -0.7692 -0.1607 -0.4614
 2460TIP3    H128939   3.838   3.282   1.358 -1.1388 -0.8807 -0.8213
 2460TIP3    H228940   3.811   3.421   1.306  1.2014 -0.0300  0.0963
 2461TIP3   OH228941   5.319   1.059   0.748 -1.0731  0.5206 -0.1940
 2461TIP3    H128942   5.230   1.024   0.747 -1.2319  0.7815  1.4271
 2461TIP3    H228943   5.315   1.131   0.812  0.3139  0.4961 -0.0583
 2462TIP3   OH228944   5.368   2.026   1.929  0.0403 -0.0158 -0.3631
 2462TIP3    H128945   5.391   1.957   1.866  2.4839  0.0253  0.3773
 2462TIP3    H228946   5.418   2.102   1.900  0.7274  0.1803  1.2291
 2463TIP3   OH228947   3.953   4.875   0.469  0.8549  0.1867  0.0727
 2463TIP3    H128948   3.911   4.952   0.430 -0.4275 -0.2949  0.4556
 2463TIP3    H228949   4.038   4.870   0.425  0.2320  0.7701 -1.2646
 2464TIP3   OH228950   0.772   3.197   2.370 -0.1408 -0.3546 -0.2531
 2464TIP3    H128951   0.800   3.176   2.460 -0.1762 -0.6778 -0.3166
 2464TIP3    H228952   0.832   3.266   2.342 -0.4176  0.0701  0.1825
 2465TIP3   OH228953   6.423   3.733   1.772  0.2559  0.0301  0.2148
 2465TIP3    H128954   6.441   3.819   1.810 -0.1079  0.0759  0.2893
 2465TIP3    H228955   6.445   3.671   1.841 -0.2564  0.1060  0.4517
 2466TIP3   OH228956   0.374   0.804   0.769  0.0958 -0.9649 -0.1014
 2466TIP3    H128957   0.457   0.788   0.814  0.2557  1.3543  0.5646
 2466TIP3    H228958   0.397   0.812   0.677  0.6669 -0.2395  0.0919
 2467TIP3   OH228959   4.266   1.920   7.636  0.0019  0.3106 -0.4152
 2467TIP3    H128960   4.361   1.906   7.635  0.1757  1.3130  0.3861
 2467TIP3    H228961   4.232   1.849   7.689  0.0856 -1.0753 -2.1133
 2468TIP3   OH228962   3.144   5.142   8.216 -0.2082  0.2781  0.3243
 2468TIP3    H128963   3.143   5.141   8.120  0.2844 -1.1423  0.3090
 2468TIP3    H228964   3.086   5.071   8.242  0.6952 -0.2200  1.0450
 2469TIP3   OH228965   2.866   6.174   3.077  0.0527 -0.3107  0.1350
 2469TIP3    H128966   2.927   6.101   3.085  0.5814  0.1544  0.4650
 2469TIP3    H228967   2.781   6.137   3.099  0.1635 -1.0398 -0.6296
 2470TIP3   OH228968   2.401   4.491   1.239 -0.4939 -0.4851  0.7525
 2470TIP3    H128969   2.449   4.564   1.278  0.3839 -0.9036  0.4795
 2470TIP3    H228970   2.468   4.426   1.219 -1.0722 -0.7582 -0.3832
 2471TIP3   OH228971   3.259   5.244   1.434 -0.4210  0.0788  0.0906
 2471TIP3    H128972   3.212   5.291   1.504  0.9866 -0.8078  1.7187
 2471TIP3    H228973   3.309   5.312   1.390 -0.6398  0.5388  0.5307
 2472TIP3   OH228974   3.535   1.293   2.070  0.4761  0.0910  0.5811
 2472TIP3    H128975   3.478   1.299   2.147 -0.4322  0.6251 -0.1079
 2472TIP3    H228976   3.529   1.202   2.043  0.5695 -0.0326  0.9673
 2473TIP3   OH228977   2.323   3.916   3.438 -0.9925  0.1659 -0.3723
 2473TIP3    H128978   2.332   3.826   3.469  2.0136  0.0707 -1.1895
 2473TIP3    H228979   2.403   3.932   3.387 -1.7311  3.0942 -0.8011
 2474TIP3   OH228980   4.143   0.898   1.447 -0.2950  1.0260 -0.4683
 2474TIP3    H128981   4.188   0.891   1.363 -0.9998  0.1953 -0.7869
 2474TIP3    H228982   4.099   0.813   1.458  0.6901  0.6822  1.2566
 2475TIP3   OH228983   1.643   0.001   3.799 -0.3633  0.2926  0.2231
 2475TIP3    H128984   1.694  -0.076   3.825  0.8934  1.2420  0.6842
 2475TIP3    H228985   1.698   0.044   3.734 -0.8220  1.0781  0.3494
 2476TIP3   OH228986   2.215   4.524   7.970  0.9545  0.1581 -0.1275
 2476TIP3    H128987   2.132   4.476   7.968 -0.1846  2.0394 -0.3802
 2476TIP3    H228988   2.281   4.459   7.943 -0.7561 -0.7747 -2.4052
 2477TIP3   OH228989   6.112   5.987   3.500 -0.2117 -0.0833  0.2437
 2477TIP3    H128990   6.185   5.935   3.467 -0.3012  0.5703 -1.0492
 2477TIP3    H228991   6.152   6.053   3.556  0.1779  0.1192 -0.2670
 2478TIP3   OH228992   2.202   4.202   0.552 -0.4170 -0.7561  0.3079
 2478TIP3    H128993   2.215   4.252   0.632 -1.2451  1.3315 -0.8012
 2478TIP3    H228994   2.114   4.165   0.560  0.3046 -2.3758  1.2570
 2479TIP3   OH228995   3.972   6.386   1.924 -0.3335 -0.5213  0.1452
 2479TIP3    H128996   3.946   6.314   1.867  2.7349 -1.0821 -0.7328
 2479TIP3    H228997   4.026   6.443   1.868  0.1667  0.5954  1.6904
 2480TIP3   OH228998   1.840   3.861   2.329 -0.1048 -0.0147 -0.2247
 2480TIP3    H128999   1.764   3.885   2.276 -0.3377  0.3024  0.2467
 2480TIP3    H229000   1.907   3.838   2.265 -1.2159 -2.3928 -0.6680
 2481TIP3   OH229001   5.450   1.694   0.544 -0.1995  0.1853  0.2045
 2481TIP3    H129002   5.404   1.675   0.462  0.1391  0.8583 -0.1572
 2481TIP3    H229003   5.481   1.609   0.575 -0.1091 -0.0492 -0.5049
 2482TIP3   OH229004   5.750   6.667   2.987  0.1410  0.7149  0.6722
 2482TIP3    H129005   5.806   6.610   2.934 -1.8514 -0.5748 -0.1325
 2482TIP3    H229006   5.765   6.637   3.077 -0.0842 -0.3960  0.3564
 2483TIP3   OH229007   4.609   2.953   0.651 -0.1423  0.0641 -0.0932
 2483TIP3    H129008   4.635   2.998   0.732  0.9628 -0.3082 -0.2212
 2483TIP3    H229009   4.543   3.011   0.612 -0.2079  0.5745  0.7365
 2484TIP3   OH229010   3.757   0.321   7.761  0.4178  0.3502  1.2570
 2484TIP3    H129011   3.663   0.323   7.743  0.2941 -2.2047  1.3056
 2484TIP3    H229012   3.797   0.287   7.681  1.2950  1.2068  1.3100
 2485TIP3   OH229013   6.010   2.484   8.144 -0.0444  0.2592 -0.5227
 2485TIP3    H129014   6.043   2.447   8.062  0.2904 -1.4860  0.3546
 2485TIP3    H229015   6.080   2.540   8.175  0.1192  0.3677 -1.0790
 2486TIP3   OH229016   2.533   6.501   1.413 -0.3497  0.1032  0.1983
 2486TIP3    H129017   2.566   6.475   1.327  2.7391 -1.4099  1.6659
 2486TIP3    H229018   2.476   6.429   1.440  0.9580 -0.8681  0.5019
 2487TIP3   OH229019   3.099   2.664   7.727 -0.2544  0.1072 -0.0906
 2487TIP3    H129020   3.044   2.717   7.671 -1.2790 -1.6886 -0.8696
 2487TIP3    H229021   3.144   2.727   7.783 -0.3919  1.8460 -1.8404
 2488TIP3   OH229022   0.775   4.690   0.774  0.3861 -0.1062 -0.0743
 2488TIP3    H129023   0.697   4.645   0.807  0.1965 -0.0759 -0.4719
 2488TIP3    H229024   0.770   4.681   0.679  0.9811 -0.2869 -0.0935
 2489TIP3   OH229025   0.894   0.787   1.790  0.0210  0.0795  0.3867
 2489TIP3    H129026   0.968   0.804   1.732  0.0952  3.8928  1.3632
 2489TIP3    H229027   0.930   0.731   1.859  1.0159 -0.9937 -0.9468
 2490TIP3   OH229028   2.115   4.301   1.735 -0.0643  0.2195 -0.3290
 2490TIP3    H129029   2.064   4.359   1.679 -0.4441 -0.0084 -0.2206
 2490TIP3    H229030   2.100   4.334   1.824 -2.1840 -1.4300  0.0004
 2491TIP3   OH229031   6.693   1.434   1.206  0.6323  0.3169 -0.1176
 2491TIP3    H129032   6.639   1.358   1.183  0.9809  0.1935 -0.5445
 2491TIP3    H229033   6.634   1.509   1.197  0.4224  0.1420 -0.1996
 2492TIP3   OH229034   3.442   5.299   0.487 -0.3095 -0.1077  0.0122
 2492TIP3    H129035   3.451   5.339   0.573  1.4384  1.5476 -0.8769
 2492TIP3    H229036   3.481   5.362   0.426  0.6502 -2.2289 -1.7189
 2493TIP3   OH229037   5.899   3.989   7.595 -0.3688 -0.4502 -0.3404
 2493TIP3    H129038   5.986   3.997   7.556 -0.0679  0.0511  0.4072
 2493TIP3    H229039   5.840   4.024   7.529  0.3211  2.3389  0.3922
 2494TIP3   OH229040   3.321   1.998   0.526  0.2475 -0.1320  0.8116
 2494TIP3    H129041   3.399   1.982   0.579  0.4822 -2.1618 -0.0442
 2494TIP3    H229042   3.307   1.916   0.479 -1.6759  0.6177 -0.0264
 2495TIP3   OH229043   0.584   1.102   1.001  0.2147 -0.3022  0.6480
 2495TIP3    H129044   0.522   1.133   0.936 -0.6819  1.0718  2.0845
 2495TIP3    H229045   0.594   1.008   0.983 -2.5803 -0.6484  0.5889
 2496TIP3   OH229046   1.600   1.943   2.108 -0.0380 -0.4427 -0.3848
 2496TIP3    H129047   1.522   1.968   2.158  0.3104 -0.3262  0.1081
 2496TIP3    H229048   1.600   2.003   2.033  0.4092  0.6039  0.4225
 2497TIP3   OH229049   4.681   2.942   0.294  0.2700 -1.0125  0.4854
 2497TIP3    H129050   4.641   2.909   0.374  0.8996 -1.3045  0.6918
 2497TIP3    H229051   4.711   2.863   0.248  0.7197 -0.8024  0.4078
 2498TIP3   OH229052   5.397   0.390   2.278  0.9278  0.3838  0.4551
 2498TIP3    H129053   5.403   0.297   2.253  0.1012  0.6052 -0.6397
 2498TIP3    H229054   5.462   0.400   2.347  2.0401 -0.6957 -0.3783
 2499TIP3   OH229055   4.244   3.026   0.880 -0.4049 -0.2925  0.3765
 2499TIP3    H129056   4.319   2.973   0.907 -0.6973 -0.7544  0.2809
 2499TIP3    H229057   4.220   3.075   0.958 -1.3699 -1.7619  1.0340
 2500TIP3   OH229058   6.859   4.473   2.374 -0.0962  0.0057 -0.6014
 2500TIP3    H129059   6.813   4.533   2.314  1.2144  3.0912  1.2209
 2500TIP3    H229060   6.949   4.474   2.343  0.2526  0.3019  0.3829
 2501TIP3   OH229061   5.158   3.479   0.484  1.0087  0.0405 -0.3445
 2501TIP3    H129062   5.072   3.521   0.486  0.8626 -0.2868  0.5643
 2501TIP3    H229063   5.170   3.452   0.393 -0.6646 -1.6014 -0.1140
 2502TIP3   OH229064   0.773   2.691   8.172 -0.2765 -0.8303  0.1080
 2502TIP3    H129065   0.761   2.783   8.194  1.0033 -0.4654 -0.6050
 2502TIP3    H229066   0.744   2.644   8.250 -1.8226  0.1184  0.1379
 2503TIP3   OH229067   2.598   5.211   8.520  0.3401 -0.0600  0.0470
 2503TIP3    H129068   2.668   5.224   8.456  0.6250  0.2723  0.4154
 2503TIP3    H229069   2.527   5.268   8.491  1.3003  1.8150  1.2363
 2504TIP3   OH229070   4.270   4.579   1.803  0.2157  0.4697 -0.1097
 2504TIP3    H129071   4.295   4.516   1.871 -1.4859  1.4207  1.5153
 2504TIP3    H229072   4.353   4.615   1.771  1.1115 -1.0325  0.4597
 2505TIP3   OH229073   6.042   5.895   2.709 -0.1493 -0.1497  0.4178
 2505TIP3    H129074   5.997   5.812   2.724 -2.1148  0.9526  0.9469
 2505TIP3    H229075   6.047   5.937   2.795 -0.0380  0.6899  0.0206
 2506TIP3   OH229076   5.847   1.030   0.756 -0.5053 -0.1406 -0.1995
 2506TIP3    H129077   5.875   1.122   0.751 -0.9662 -0.0121 -0.4409
 2506TIP3    H229078   5.862   0.996   0.668 -0.0566 -0.3839 -0.0335
 2507TIP3   OH229079   4.400   6.411   1.367  0.3308 -0.4196  0.0078
 2507TIP3    H129080   4.313   6.376   1.348  0.6180 -1.9758  1.3487
 2507TIP3    H229081   4.444   6.342   1.415  2.0282  0.6740  0.1235
 2508TIP3   OH229082   6.533   3.081   7.790  0.3285  0.1734  0.5276
 2508TIP3    H129083   6.487   3.043   7.715  1.8918  0.6823 -0.7647
 2508TIP3    H229084   6.511   3.175   7.786 -0.1114  0.0967  1.1131
 2509TIP3   OH229085   2.952   2.330   2.279  0.2216 -0.5871  0.6661
 2509TIP3    H129086   2.987   2.272   2.347  0.2598  0.4021  1.5158
 2509TIP3    H229087   2.863   2.349   2.308 -0.3939 -1.5358 -0.4839
 2510TIP3   OH229088   0.250   5.040   1.079  1.0271 -0.5987 -0.3982
 2510TIP3    H129089   0.310   4.984   1.128  1.6967  0.2729 -0.2127
 2510TIP3    H229090   0.238   4.995   0.995  2.2072 -0.6119 -0.5675
 2511TIP3   OH229091   5.446   5.619   8.408  0.7908  0.2355 -0.1256
 2511TIP3    H129092   5.407   5.698   8.444  0.5108  0.4596 -0.8857
 2511TIP3    H229093   5.420   5.620   8.315  0.4114 -0.9623 -0.0536
 2512TIP3   OH229094   2.728   0.232   8.254 -0.2007 -0.0570 -0.0819
 2512TIP3    H129095   2.706   0.171   8.183  0.1735  0.2374 -0.4547
 2512TIP3    H229096   2.747   0.315   8.209 -0.3602  0.2414  0.3943
 2513TIP3   OH229097   3.193   6.611   3.168 -0.6875 -0.4755  0.1037
 2513TIP3    H129098   3.194   6.680   3.102 -0.6846  0.4374  1.0306
 2513TIP3    H229099   3.132   6.642   3.235  1.4363  0.0284  1.9471
 2514TIP3   OH229100   3.893   3.554   0.018  0.2986  0.2823 -0.1276
 2514TIP3    H129101   3.941   3.474   0.034  1.3621  1.1529  1.2521
 2514TIP3    H229102   3.802   3.526   0.004  0.8712 -1.2309 -0.9830
 2515TIP3   OH229103   6.031   0.325   1.402 -0.5272 -0.0472  0.1025
 2515TIP3    H129104   6.049   0.273   1.323  0.0537 -1.3512  1.0729
 2515TIP3    H229105   6.081   0.283   1.471 -1.8890  0.4104  1.4300
 2516TIP3   OH229106   3.901   5.355   7.959  0.1016 -0.6440  0.6207
 2516TIP3    H129107   3.961   5.282   7.975  0.2628 -0.2400  1.9402
 2516TIP3    H229108   3.947   5.431   7.993  0.2270  0.2251 -1.3459
 2517TIP3   OH229109   4.539   5.214   0.037 -0.1956  0.2729 -0.2364
 2517TIP3    H129110   4.608   5.244   0.097  0.2945  0.5085 -0.9012
 2517TIP3    H229111   4.499   5.295   0.005  0.8456  0.2310 -1.7153
 2518TIP3   OH229112   2.557   2.598   8.204 -0.1739  0.2324 -0.0174
 2518TIP3    H129113   2.511   2.674   8.167 -0.8132 -0.8080 -1.4325
 2518TIP3    H229114   2.507   2.576   8.283 -1.4079 -0.1270 -0.8722
 2519TIP3   OH229115   4.727   5.639   1.490  0.4574 -0.1040  0.1512
 2519TIP3    H129116   4.767   5.553   1.498 -1.7140 -1.3345 -1.2267
 2519TIP3    H229117   4.640   5.629   1.530  0.2929  1.5544  0.2848
 2520TIP3   OH229118   1.943   1.169   3.073  0.0893 -0.0188  0.4571
 2520TIP3    H129119   1.985   1.245   3.114  0.4751  0.0432 -0.0507
 2520TIP3    H229120   1.995   1.152   2.995  1.6311 -2.4334  1.8971
 2521TIP3   OH229121   2.026   6.511   3.296 -0.0698  0.1251 -0.1443
 2521TIP3    H129122   2.036   6.421   3.263  0.7787  0.1380  0.0512
 2521TIP3    H229123   2.064   6.507   3.384  1.0501  0.9444 -0.5697
 2522TIP3   OH229124   2.447   5.705   8.562  0.0400 -0.2422 -0.2575
 2522TIP3    H129125   2.419   5.744   8.645 -0.0552 -1.5539  0.3537
 2522TIP3    H229126   2.431   5.774   8.497  1.4121  1.3239  0.9740
 2523TIP3   OH229127   3.269   6.308   1.556  0.8570 -0.3824 -0.1973
 2523TIP3    H129128   3.212   6.264   1.619  0.3522 -1.9328 -1.6632
 2523TIP3    H229129   3.222   6.302   1.473  2.8407 -1.1228 -1.3313
 2524TIP3   OH229130   6.363   6.323   2.581 -0.6435  0.7537  0.2323
 2524TIP3    H129131   6.455   6.343   2.596 -0.1439 -0.7251 -0.6695
 2524TIP3    H229132   6.362   6.272   2.500 -2.2525  0.6638  0.2670
 2525TIP3   OH229133   4.964   4.888   2.841 -0.4745  0.1176 -0.3715
 2525TIP3    H129134   5.057   4.865   2.829 -0.7557  0.0822 -3.0710
 2525TIP3    H229135   4.917   4.808   2.819 -1.1906  0.6918 -0.9801
 2526TIP3   OH229136   2.225   3.599   2.946  0.2318  0.7821 -0.0074
 2526TIP3    H129137   2.236   3.662   2.876  0.6227  0.3342 -0.3523
 2526TIP3    H229138   2.284   3.629   3.016  0.1495  0.9957 -0.0308
 2527TIP3   OH229139   6.275   4.316   0.320 -0.1219 -0.1025  0.0113
 2527TIP3    H129140   6.224   4.387   0.283 -0.7014 -0.6692 -0.2982
 2527TIP3    H229141   6.216   4.274   0.382  0.0481 -0.6209 -0.1716
 2528TIP3   OH229142   0.082   2.020   8.383 -0.4424  0.1647  0.0128
 2528TIP3    H129143   0.146   2.042   8.450 -2.0024 -1.5541  2.2243
 2528TIP3    H229144   0.012   2.084   8.393 -1.2415 -0.8111  0.9337
 2529TIP3   OH229145   0.774   5.436   3.314 -0.1380  0.6808 -0.3079
 2529TIP3    H129146   0.805   5.366   3.372  0.3242 -0.5540 -1.9754
 2529TIP3    H229147   0.777   5.515   3.369  0.8005 -0.3241  1.1806
 2530TIP3   OH229148   5.552   6.035   0.378  0.9327 -0.1441 -0.5452
 2530TIP3    H129149   5.618   5.976   0.415  1.1452  0.6080  0.3175
 2530TIP3    H229150   5.585   6.056   0.290  1.0634 -0.9715 -0.6981
 2531TIP3   OH229151   5.823   2.513   0.361 -0.7223  0.3389 -0.1981
 2531TIP3    H129152   5.864   2.428   0.381 -1.6395 -0.0904 -0.1225
 2531TIP3    H229153   5.897   2.571   0.346 -0.0702 -0.5283 -0.4824
 2532TIP3   OH229154   4.267   5.102   1.219 -0.4374  0.0064  0.8354
 2532TIP3    H129155   4.173   5.122   1.223 -0.6822  0.0704 -2.3695
 2532TIP3    H229156   4.308   5.182   1.187  0.2220 -0.9324 -0.7939
 2533TIP3   OH229157   1.889   6.686   8.286  0.0870 -0.1017 -0.2367
 2533TIP3    H129158   1.814   6.735   8.320 -0.1538 -0.1790 -0.6456
 2533TIP3    H229159   1.853   6.600   8.264  0.3720 -0.2512 -0.1148
 2534TIP3   OH229160   5.550   5.979   2.395 -1.2267  0.3905  0.1850
 2534TIP3    H129161   5.515   6.050   2.341 -0.0776  0.4443 -0.5105
 2534TIP3    H229162   5.547   5.902   2.339 -2.1864 -0.0716  0.8381
 2535TIP3   OH229163   2.952   4.890   2.374  0.5517  0.2746 -0.1164
 2535TIP3    H129164   2.939   4.972   2.327 -1.5029 -0.4209 -0.8738
 2535TIP3    H229165   2.913   4.823   2.318 -0.7079 -0.7904  1.8953
 2536TIP3   OH229166   0.607   5.108   3.442 -0.1531 -0.5550  0.0699
 2536TIP3    H129167   0.523   5.143   3.414  0.5653 -0.5198 -2.2791
 2536TIP3    H229168   0.586   5.025   3.485 -1.4315 -0.1417  0.2833
 2537TIP3   OH229169   4.423   1.740   8.463  0.4088 -0.1760 -0.0758
 2537TIP3    H129170   4.456   1.652   8.482  1.2786 -0.2956 -1.8860
 2537TIP3    H229171   4.476   1.798   8.518  1.1209 -0.6569 -0.2411
 2538TIP3   OH229172   4.369   0.797   0.313 -0.0378 -0.4328  0.0927
 2538TIP3    H129173   4.395   0.786   0.405  2.3199 -0.9630 -0.5577
 2538TIP3    H229174   4.335   0.711   0.288 -0.3290 -0.3973  0.3522
 2539TIP3   OH229175   0.552   4.356   8.361  0.1274  0.0117 -0.3716
 2539TIP3    H129176   0.592   4.329   8.443  1.7751  0.3176 -1.0447
 2539TIP3    H229177   0.574   4.448   8.352 -0.7226  0.1858 -0.7805
 2540TIP3   OH229178   0.847   5.500   1.745  0.1502  1.1120 -0.1639
 2540TIP3    H129179   0.810   5.501   1.657 -0.9378 -0.2497  0.2360
 2540TIP3    H229180   0.921   5.440   1.740  1.2991  2.5002 -0.5563
 2541TIP3   OH229181   2.336   2.406   1.373  0.6840  0.1295  0.1921
 2541TIP3    H129182   2.360   2.334   1.314  0.5374  0.3721 -0.1704
 2541TIP3    H229183   2.387   2.480   1.341  0.3999  0.3303  0.2038
 2542TIP3   OH229184   3.424   4.410   2.129  0.9540 -0.0639  0.6067
 2542TIP3    H129185   3.493   4.398   2.195  1.3576  0.3456  0.2665
 2542TIP3    H229186   3.394   4.500   2.143  1.7620  0.3841 -0.4393
 2543TIP3   OH229187   1.600   6.066   1.532 -0.1378  0.1391  0.1798
 2543TIP3    H129188   1.661   6.009   1.485  0.9246  1.5875 -0.2752
 2543TIP3    H229189   1.513   6.038   1.502  0.2942 -1.7261  0.5681
 2544TIP3   OH229190   5.200   4.867   8.376 -0.4486  0.0458 -0.2704
 2544TIP3    H129191   5.202   4.881   8.282  0.7268  0.7776 -0.1607
 2544TIP3    H229192   5.133   4.928   8.408 -0.4075  0.2468 -0.5642
 2545TIP3   OH229193   5.820   6.360   0.084 -0.1401  0.0543  0.1195
 2545TIP3    H129194   5.801   6.266   0.084 -0.1501 -0.0011  2.7831
 2545TIP3    H229195   5.741   6.400   0.120 -0.7691  1.3216 -2.4448
 2546TIP3   OH229196   1.294   1.100   1.284  0.5604  0.5829  0.2639
 2546TIP3    H129197   1.370   1.112   1.227  0.9108  0.2754  0.6632
 2546TIP3    H229198   1.236   1.043   1.234  1.7676 -1.3957  1.0187
 2547TIP3   OH229199   2.177   2.422   1.060 -0.0546 -0.1333 -0.1932
 2547TIP3    H129200   2.259   2.443   1.017 -0.1865 -1.1231 -0.9545
 2547TIP3    H229201   2.165   2.328   1.046 -1.9572  0.2073 -1.2578
 2548TIP3   OH229202   4.085   0.920   0.430  0.1429  0.2733  0.1382
 2548TIP3    H129203   4.072   0.868   0.509  1.3377  1.3514  1.0986
 2548TIP3    H229204   4.008   0.903   0.376 -0.8604 -0.2385  1.6840
 2549TIP3   OH229205   2.738   4.888   0.757 -0.3203 -0.3129 -0.2452
 2549TIP3    H129206   2.779   4.973   0.740 -0.8235  0.4023  1.8398
 2549TIP3    H229207   2.805   4.824   0.730  1.9667  0.8074  2.2170
 2550TIP3   OH229208   3.385   0.402   1.451 -0.1107 -0.5657  0.0131
 2550TIP3    H129209   3.424   0.438   1.371  1.7018  0.9088  1.4725
 2550TIP3    H229210   3.309   0.458   1.469  0.1592 -0.1769 -0.0584
 2551TIP3   OH229211   1.057   5.608   8.030  0.5398  0.0385  0.7082
 2551TIP3    H129212   1.107   5.653   7.962  1.4397 -1.5556  0.2429
 2551TIP3    H229213   1.007   5.542   7.983  1.4896 -1.3630  1.5691
 2552TIP3   OH229214   0.166   3.207   2.031 -0.1558  0.6617  0.1259
 2552TIP3    H129215   0.226   3.277   2.056 -2.0893  1.6244  2.5388
 2552TIP3    H229216   0.170   3.205   1.936  2.8297  1.3820  0.1533
 2553TIP3   OH229217   0.610   5.400   1.329 -0.3048 -0.5372 -0.2696
 2553TIP3    H129218   0.520   5.386   1.359 -0.8326  0.1758 -1.4591
 2553TIP3    H229219   0.601   5.443   1.244  1.1524 -1.5582 -0.9786
 2554TIP3   OH229220   3.288   2.314   0.887  0.0421 -0.1377  0.6639
 2554TIP3    H129221   3.204   2.354   0.866  0.4197  0.8710  1.0255
 2554TIP3    H229222   3.348   2.347   0.819  0.2814 -0.3822  0.7525
 2555TIP3   OH229223   0.851   6.462   1.225  0.3980 -0.3775 -0.8522
 2555TIP3    H129224   0.848   6.367   1.214 -0.7216 -0.4550 -0.0851
 2555TIP3    H229225   0.937   6.479   1.263 -0.2111 -1.3726  1.1215
 2556TIP3   OH229226   0.086   6.699   2.267  0.7857 -0.1230 -0.1145
 2556TIP3    H129227   0.050   6.762   2.329 -1.7432 -1.9355  0.4638
 2556TIP3    H229228   0.118   6.627   2.322  0.9391 -0.6197 -0.8330
 2557TIP3   OH229229   0.524   3.497   7.845 -0.6721  1.0576 -0.0037
 2557TIP3    H129230   0.556   3.584   7.821 -2.4692  1.3266 -1.6828
 2557TIP3    H229231   0.531   3.446   7.764 -0.1876 -0.2117  0.8108
 2558TIP3   OH229232   6.254   1.128   0.985  0.0007 -0.2230  0.0294
 2558TIP3    H129233   6.298   1.072   0.922  0.1444  1.5019 -1.4648
 2558TIP3    H229234   6.177   1.161   0.938 -0.2752  0.5422  0.9894
 2559TIP3   OH229235   6.819   3.861   8.462 -0.2910 -0.2570 -0.4206
 2559TIP3    H129236   6.767   3.851   8.542 -0.3530 -0.1351 -0.4463
 2559TIP3    H229237   6.839   3.771   8.435  1.4981 -0.3078  0.8798
 2560TIP3   OH229238   1.588   6.330   2.025 -0.2468 -0.3156  0.0531
 2560TIP3    H129239   1.580   6.380   2.107  0.2331  0.0756 -0.1328
 2560TIP3    H229240   1.634   6.251   2.050 -0.2946 -0.2979  0.2016
 2561TIP3   OH229241   6.835   3.442   1.711 -0.5623 -0.0322  0.3026
 2561TIP3    H129242   6.802   3.354   1.727  0.8703 -0.6131  0.1942
 2561TIP3    H229243   6.805   3.463   1.622 -2.0989  0.1970  0.8271
 2562TIP3   OH229244   6.130   4.593   3.470  0.1981  0.3367  0.3718
 2562TIP3    H129245   6.190   4.650   3.519 -1.6026  3.3640 -0.6345
 2562TIP3    H229246   6.166   4.591   3.381  0.5656 -0.6592  0.5307
 2563TIP3   OH229247   3.034   4.094   8.321  0.3813  0.7506 -0.1137
 2563TIP3    H129248   3.110   4.150   8.338 -0.7770  2.4662 -0.2109
 2563TIP3    H229249   2.963   4.137   8.369 -0.4275 -1.1413  0.4893
 2564TIP3   OH229250   2.661   3.223   0.678 -0.1846  0.0446  0.2135
 2564TIP3    H129251   2.674   3.286   0.607 -2.1415  0.7938  0.4536
 2564TIP3    H229252   2.683   3.272   0.757 -3.3754  1.1727  0.5794
 2565TIP3   OH229253   2.965   4.440   8.465  0.3301 -0.1076  0.1826
 2565TIP3    H129254   2.919   4.369   8.421 -0.5758  0.1852  0.6360
 2565TIP3    H229255   2.981   4.505   8.397  1.4432 -0.8477 -0.3096
 2566TIP3   OH229256   4.550   2.108   2.844 -0.5757 -0.4864 -0.1708
 2566TIP3    H129257   4.535   2.027   2.893  0.8452 -0.0468  1.0582
 2566TIP3    H229258   4.495   2.173   2.887  0.2085 -0.2355  0.4534
 2567TIP3   OH229259   6.487   3.040   0.321  0.1687 -0.8623  0.2561
 2567TIP3    H129260   6.501   2.997   0.237 -1.1018 -2.9889  1.0361
 2567TIP3    H229261   6.402   3.083   0.313  0.3128 -0.5703  0.2744
 2568TIP3   OH229262   3.954   4.117   0.564 -0.2206 -0.6897 -0.4743
 2568TIP3    H129263   4.022   4.092   0.627 -0.8747 -1.5245 -0.0793
 2568TIP3    H229264   3.978   4.071   0.484  1.9506  2.1877 -1.6752
 2569TIP3   OH229265   2.877   2.638   2.147  0.4455  0.3745 -0.8070
 2569TIP3    H129266   2.857   2.553   2.108 -0.4772  0.4052 -0.4201
 2569TIP3    H229267   2.964   2.627   2.186 -0.1161 -0.7426  0.1885
 2570TIP3   OH229268   5.134   0.959   8.456  0.1496 -0.6520 -0.0683
 2570TIP3    H129269   5.162   0.910   8.378 -3.0319 -2.4764 -0.2446
 2570TIP3    H229270   5.109   1.045   8.423  0.0202 -0.9902 -0.8701
 2571TIP3   OH229271   4.367   4.227   2.449  0.0925 -0.2266 -0.4818
 2571TIP3    H129272   4.451   4.181   2.451 -0.7249 -1.7777  0.5264
 2571TIP3    H229273   4.323   4.193   2.371 -0.0592 -0.2879 -0.3690
 2572TIP3   OH229274   5.806   0.793   0.125  0.0663 -0.0713  0.3937
 2572TIP3    H129275   5.785   0.879   0.088 -1.6624 -1.3304 -1.7690
 2572TIP3    H229276   5.900   0.782   0.108 -0.3005  0.1704 -2.1345
 2573TIP3   OH229277   0.894   2.569   8.431  0.1451 -0.0142 -0.0036
 2573TIP3    H129278   0.896   2.509   8.357 -2.4045 -0.7933  0.4422
 2573TIP3    H229279   0.914   2.654   8.394  0.2140 -0.5911 -1.3499
 2574TIP3   OH229280   1.566   1.605   1.287 -0.4932 -0.3422 -0.2682
 2574TIP3    H129281   1.536   1.660   1.215 -0.0858  0.0632 -0.1342
 2574TIP3    H229282   1.507   1.530   1.287 -2.9242  1.4034  1.3202
 2575TIP3   OH229283   0.650   0.252   0.538 -0.2428 -0.2903 -0.3330
 2575TIP3    H129284   0.731   0.200   0.535  0.2830  0.5243 -0.4587
 2575TIP3    H229285   0.676   0.334   0.579  0.0310  1.7059 -4.0441
 2576TIP3   OH229286   1.942   4.609   0.777 -0.4012 -0.2912  0.1629
 2576TIP3    H129287   1.960   4.608   0.683 -3.1079  2.7147 -0.5805
 2576TIP3    H229288   2.000   4.677   0.811 -2.0425  1.3253 -0.1320
 2577TIP3   OH229289   5.313   0.824   2.205 -0.2629  0.0074 -0.7667
 2577TIP3    H129290   5.293   0.918   2.208  1.9760  0.5818  3.7566
 2577TIP3    H229291   5.407   0.820   2.185 -0.3405 -1.3113 -0.9566
 2578TIP3   OH229292   1.387   4.128   8.620 -0.0033  0.1379  0.6216
 2578TIP3    H129293   1.405   4.221   8.606  1.1004 -0.1625 -0.1324
 2578TIP3    H229294   1.324   4.105   8.552  0.4324  0.1327  0.2154
 2579TIP3   OH229295   5.878   6.708   1.377 -0.1809  0.4105  0.2960
 2579TIP3    H129296   5.941   6.775   1.404  2.1752 -0.2866 -2.8738
 2579TIP3    H229297   5.919   6.625   1.399 -1.1497 -0.0656  0.3753
 2580TIP3   OH229298   1.503   0.964   1.885 -0.4416  0.4970  0.2817
 2580TIP3    H129299   1.554   0.883   1.888 -2.7924 -1.0807  1.3312
 2580TIP3    H229300   1.474   0.978   1.975 -0.6183  2.1689  0.0000
 2581TIP3   OH229301   2.695   0.334   1.153  0.3448  0.4298  0.3293
 2581TIP3    H129302   2.647   0.362   1.231 -1.4580  0.2497 -0.6507
 2581TIP3    H229303   2.694   0.410   1.095  0.6757  0.2162  0.0343
 2582TIP3   OH229304   3.494   6.141   3.451  0.3118 -0.0998  0.4475
 2582TIP3    H129305   3.407   6.112   3.423  0.4382 -1.0851  1.0198
 2582TIP3    H229306   3.505   6.227   3.409 -1.1616  0.3090  0.8159
 2583TIP3   OH229307   6.659   4.263   0.971 -0.1409  0.0034  0.5990
 2583TIP3    H129308   6.694   4.214   1.045 -0.2919 -0.6170  0.2674
 2583TIP3    H229309   6.616   4.339   1.010  0.7104  0.2506  1.0731
 2584TIP3   OH229310   0.390   0.010   1.902 -0.0208 -0.2194 -0.8001
 2584TIP3    H129311   0.452  -0.049   1.859  0.3260  0.1683 -0.8382
 2584TIP3    H229312   0.443   0.064   1.960 -0.7598 -2.5479  2.3127
 2585TIP3   OH229313   5.465   4.149   7.817  0.1172 -0.4828  0.0703
 2585TIP3    H129314   5.399   4.214   7.843  1.5163  1.1966 -0.3201
 2585TIP3    H229315   5.548   4.187   7.846  1.1088 -1.5542 -1.2123
 2586TIP3   OH229316   1.209   3.315   1.215 -0.5365  0.6897 -0.4777
 2586TIP3    H129317   1.279   3.354   1.162 -0.3285 -0.6407 -1.2402
 2586TIP3    H229318   1.186   3.383   1.279  1.2851  1.2498 -0.3620
 2587TIP3   OH229319   1.306   6.104   8.018  0.5091  0.0937 -0.5200
 2587TIP3    H129320   1.344   6.183   7.979  2.2692 -0.8242 -0.7219
 2587TIP3    H229321   1.315   6.037   7.951  2.3835 -1.1800  0.9199
 2588TIP3   OH229322   2.038   6.652   3.045 -0.1625  0.4965  0.5016
 2588TIP3    H129323   2.001   6.734   3.079 -0.3603  0.3228  0.7100
 2588TIP3    H229324   2.012   6.586   3.109 -2.2129 -0.1801 -0.9229
 2589TIP3   OH229325   2.675   3.015   8.410  0.1926  0.6733  0.0753
 2589TIP3    H129326   2.696   2.925   8.435  1.4634  1.1409  0.8038
 2589TIP3    H229327   2.742   3.068   8.453 -0.6044  1.9881 -0.2443
 2590TIP3   OH229328   4.789   0.843   2.019  0.0647 -0.6507 -0.0399
 2590TIP3    H129329   4.747   0.929   2.013 -0.9359 -1.1608 -0.5914
 2590TIP3    H229330   4.722   0.786   2.057  0.5829 -1.2717 -0.0373
 2591TIP3   OH229331   0.392   4.565   2.653 -0.4954  0.0726 -0.0734
 2591TIP3    H129332   0.430   4.554   2.566 -0.4604  0.8565 -0.1698
 2591TIP3    H229333   0.458   4.532   2.713 -0.1821  0.2625 -0.3064
 2592TIP3   OH229334   1.403   2.487   1.904  0.4305  0.5836 -0.0656
 2592TIP3    H129335   1.429   2.498   1.812 -0.1691 -0.1838 -0.3343
 2592TIP3    H229336   1.477   2.443   1.944 -0.0015 -0.6573 -0.5901
 2593TIP3   OH229337   4.341   4.890   8.551  0.2274  0.4535 -0.0013
 2593TIP3    H129338   4.276   4.821   8.568  1.1910 -1.0073 -1.8265
 2593TIP3    H229339   4.289   4.969   8.538 -1.0664 -0.3136  0.3364
 2594TIP3   OH229340   0.582   1.445   2.874  0.5580 -0.0290 -0.6618
 2594TIP3    H129341   0.526   1.419   2.947  0.5154  1.5464 -0.1071
 2594TIP3    H229342   0.624   1.363   2.846 -0.6170 -0.9291  0.0875
 2595TIP3   OH229343   1.549   1.800   1.495 -0.1200  0.5371  0.2041
 2595TIP3    H129344   1.626   1.792   1.551 -0.1288  0.3968  0.1987
 2595TIP3    H229345   1.547   1.718   1.446 -0.4207  0.4239  0.3979
 2596TIP3   OH229346   4.912   1.799   7.310 -0.0052  0.2963  0.4928
 2596TIP3    H129347   4.850   1.790   7.382 -0.5578 -2.1490 -0.1765
 2596TIP3    H229348   4.919   1.893   7.296 -3.8230  0.7318  0.4203
 2597TIP3   OH229349   3.779   5.181   1.432  0.4684 -0.0298  0.1984
 2597TIP3    H129350   3.720   5.116   1.469  0.1621  0.9974  1.5843
 2597TIP3    H229351   3.748   5.264   1.467  0.3760  1.0023 -2.1150
 2598TIP3   OH229352   6.557   4.433   2.157  0.8044  0.7274  0.3623
 2598TIP3    H129353   6.650   4.416   2.174  0.3743 -0.4901  1.6815
 2598TIP3    H229354   6.535   4.505   2.216  0.5072 -0.1574  1.3506
 2599TIP3   OH229355   1.221   0.462   0.380  0.0382 -0.2256 -0.3836
 2599TIP3    H129356   1.160   0.446   0.308 -0.8562  1.1339  0.0346
 2599TIP3    H229357   1.305   0.429   0.348 -0.5882 -0.7000 -1.5899
 2600TIP3   OH229358   4.401   4.896   8.005  0.1429  0.5182 -0.1829
 2600TIP3    H129359   4.306   4.901   7.992 -0.2140 -0.2790  1.7719
 2600TIP3    H229360   4.436   4.877   7.918 -1.7066 -1.3924 -0.6007
 2601TIP3   OH229361   4.625   0.307   2.356 -0.5524 -0.0638  0.3984
 2601TIP3    H129362   4.551   0.361   2.328  0.4207  1.1069 -0.0405
 2601TIP3    H229363   4.629   0.236   2.292  0.7465  1.7637 -1.7024
 2602TIP3   OH229364   3.081   1.182   8.073  0.2580  0.0103  0.4386
 2602TIP3    H129365   3.118   1.121   8.009  1.3749  0.9894  0.1170
 2602TIP3    H229366   3.102   1.269   8.038 -1.3911  0.6082  0.8340
 2603TIP3   OH229367   4.876   4.628   0.839 -0.0239  0.6345  0.3385
 2603TIP3    H129368   4.782   4.637   0.856 -0.3023  0.7617 -1.1417
 2603TIP3    H229369   4.900   4.710   0.794  0.4432 -0.0388 -0.6856
 2604TIP3   OH229370   4.613   4.333   1.635  0.1684  0.0569  0.0732
 2604TIP3    H129371   4.561   4.283   1.698  1.3238 -0.0191  1.0010
 2604TIP3    H229372   4.549   4.388   1.590 -0.7862 -0.4137  0.8140
 2605TIP3   OH229373   6.673   3.081   0.637  0.2542  0.1984 -0.2136
 2605TIP3    H129374   6.685   3.013   0.704  1.8530  1.1082  0.4798
 2605TIP3    H229375   6.702   3.040   0.556  0.1238 -0.3108 -0.0065
 2606TIP3   OH229376   2.159   1.389   1.851  0.3599 -0.0750 -0.4971
 2606TIP3    H129377   2.067   1.371   1.872  0.6573 -0.3975  0.6272
 2606TIP3    H229378   2.204   1.306   1.866  0.8441  0.0805 -1.0320
 2607TIP3   OH229379   4.189   3.557   7.792  0.5032  0.4773 -0.2565
 2607TIP3    H129380   4.284   3.548   7.783  0.3453 -0.1194 -1.5715
 2607TIP3    H229381   4.158   3.467   7.801 -0.2671  0.1704 -4.1353
 2608TIP3   OH229382   1.431   5.675   1.085  0.2278  0.9074 -0.0145
 2608TIP3    H129383   1.421   5.687   0.991 -0.6837  1.8436  0.1860
 2608TIP3    H229384   1.365   5.732   1.124 -0.1367 -0.2557  1.1727
 2609TIP3   OH229385   6.438   0.679   0.250 -0.2411 -0.1040  1.0208
 2609TIP3    H129386   6.516   0.623   0.242 -1.0181 -1.0751 -0.1538
 2609TIP3    H229387   6.451   0.728   0.331  2.0369  0.4526  0.3991
 2610TIP3   OH229388   3.534   1.791   2.675 -0.1019  0.1390  0.0129
 2610TIP3    H129389   3.536   1.881   2.644  0.2976  0.3779  0.7121
 2610TIP3    H229390   3.497   1.796   2.763 -0.7499 -0.4667 -0.2153
 2611TIP3   OH229391   1.075   3.023   0.931 -0.4565 -0.5105  0.6356
 2611TIP3    H129392   0.997   2.999   0.880 -0.1885  0.0889 -0.0827
 2611TIP3    H229393   1.040   3.056   1.014 -1.3253  3.5347 -1.0723
 2612TIP3   OH229394   2.590   3.181   0.100  0.9005  0.0936  0.0053
 2612TIP3    H129395   2.655   3.111   0.099  0.3082 -0.4739 -0.6063
 2612TIP3    H229396   2.640   3.261   0.094  1.5350 -0.3494 -0.8590
 2613TIP3   OH229397   5.582   3.614   1.923 -0.1031 -0.1793  0.5535
 2613TIP3    H129398   5.599   3.564   2.003 -0.6760  0.1903  0.9185
 2613TIP3    H229399   5.495   3.585   1.896  0.7614 -1.5609 -0.9039
 2614TIP3   OH229400   4.069   5.539   8.077 -0.0887  0.6519 -0.3576
 2614TIP3    H129401   4.161   5.560   8.058 -0.2445  0.2279 -1.7238
 2614TIP3    H229402   4.072   5.454   8.120  0.1726  0.6811 -0.3177
 2615TIP3   OH229403   1.499   6.138   3.168 -0.3369 -0.1602  0.1575
 2615TIP3    H129404   1.424   6.180   3.210 -0.5302  0.7005 -0.9782
 2615TIP3    H229405   1.464   6.056   3.133 -1.1554  0.8891 -1.6085
 2616TIP3   OH229406   6.470   3.342   2.915 -1.0116  0.0819  0.0146
 2616TIP3    H129407   6.387   3.380   2.945 -0.6164  0.7786  0.2484
 2616TIP3    H229408   6.468   3.252   2.948 -2.3122 -0.3715 -1.2277
 2617TIP3   OH229409   1.406   2.722   0.163 -0.6198  0.0966  0.0558
 2617TIP3    H129410   1.498   2.709   0.188 -0.9220  0.8836  1.6836
 2617TIP3    H229411   1.374   2.634   0.144  0.4117 -0.2093 -0.3337
 2618TIP3   OH229412   2.538   1.178   7.727  0.1684 -0.1269  0.2106
 2618TIP3    H129413   2.523   1.167   7.633  0.0596  0.7776  0.1141
 2618TIP3    H229414   2.454   1.204   7.762  0.0155 -1.2257  0.7028
 2619TIP3   OH229415   0.137   1.608   8.340 -0.1367 -0.5978 -0.0815
 2619TIP3    H129416   0.056   1.623   8.389 -0.1024  1.3648 -0.5331
 2619TIP3    H229417   0.163   1.519   8.364 -1.9658 -0.9734  0.7237
 2620TIP3   OH229418   5.744   4.547   1.330  0.4697 -0.2416 -0.1665
 2620TIP3    H129419   5.779   4.504   1.252  0.2438 -0.0106 -0.3967
 2620TIP3    H229420   5.820   4.555   1.388  0.6783 -0.2568 -0.4324
 2621TIP3   OH229421   6.329   5.141   3.228  0.2039 -0.8371  0.5455
 2621TIP3    H129422   6.299   5.231   3.225  1.0029 -0.5639 -2.1610
 2621TIP3    H229423   6.259   5.094   3.274  0.1570  1.2148  2.7839
 2622TIP3   OH229424   3.484   1.985   0.746 -0.2648 -0.6185 -0.0181
 2622TIP3    H129425   3.475   2.001   0.840 -0.9087 -0.6910 -0.0649
 2622TIP3    H229426   3.527   2.065   0.713  2.3324 -1.6162  0.6985
 2623TIP3   OH229427   3.188   0.956   1.524  0.5339 -0.5570 -0.8344
 2623TIP3    H129428   3.107   0.917   1.492  0.5940 -0.9240 -0.5416
 2623TIP3    H229429   3.170   0.979   1.615 -0.0055  1.5049 -1.4135
 2624TIP3   OH229430   4.356   2.886   1.113  0.0142  0.1285 -0.3110
 2624TIP3    H129431   4.411   2.964   1.124 -0.3513  0.1099  2.6393
 2624TIP3    H229432   4.413   2.813   1.135 -0.5788 -0.0767  0.6061
 2625TIP3   OH229433   6.716   6.172   1.687 -0.1251 -0.6367 -0.2037
 2625TIP3    H129434   6.684   6.214   1.767  1.6270 -0.6364  0.5370
 2625TIP3    H229435   6.736   6.244   1.628  1.1367 -0.4807  0.3858
 2626TIP3   OH229436   1.213   3.785   2.092  0.0444  0.2013  0.0384
 2626TIP3    H129437   1.149   3.820   2.030  0.2132 -0.2647 -0.4104
 2626TIP3    H229438   1.297   3.789   2.045  0.2678  0.3608  0.4425
 2627TIP3   OH229439   0.705   1.871   1.240 -0.0424 -0.4436  0.1646
 2627TIP3    H129440   0.639   1.866   1.171 -0.6703 -0.2553  0.7416
 2627TIP3    H229441   0.761   1.795   1.225 -0.6257 -0.8322 -0.0955
 2628TIP3   OH229442   6.785   6.127   2.830 -0.0277 -0.2472  0.2857
 2628TIP3    H129443   6.742   6.172   2.758 -1.1469 -1.8779 -0.1193
 2628TIP3    H229444   6.854   6.187   2.858 -0.1259  0.8024 -1.5589
 2629TIP3   OH229445   1.853   4.047   8.280 -0.4558 -0.0029 -0.6045
 2629TIP3    H129446   1.904   3.976   8.240 -2.1296 -0.9664 -1.2027
 2629TIP3    H229447   1.825   4.101   8.205 -1.8461 -0.5980 -0.5540
 2630TIP3   OH229448   0.558   2.091   2.618  0.2019 -0.2552 -0.3641
 2630TIP3    H129449   0.492   2.156   2.595  0.3584 -0.1081 -0.3979
 2630TIP3    H229450   0.605   2.130   2.692  1.0326  0.1713 -1.0982
 2631TIP3   OH229451   4.538   5.040   3.543  0.4378  0.1093 -0.1059
 2631TIP3    H129452   4.510   5.125   3.577 -0.0094 -0.1274  0.1246
 2631TIP3    H229453   4.588   5.001   3.614 -2.5544 -1.4402  1.3109
 2632TIP3   OH229454   0.442   5.516   8.532 -0.3732 -0.2344 -0.0338
 2632TIP3    H129455   0.431   5.599   8.578 -0.4416 -0.4547  0.3468
 2632TIP3    H229456   0.369   5.514   8.469 -0.6024 -0.1896  0.2302
 2633TIP3   OH229457   6.313   3.477   0.628 -0.0873  0.0777  0.1537
 2633TIP3    H129458   6.350   3.400   0.587  0.8303  1.0491 -0.9180
 2633TIP3    H229459   6.371   3.494   0.703  0.1056  0.1139 -0.0041
 2634TIP3   OH229460   1.187   2.697   8.124 -0.1892  0.3928  0.3170
 2634TIP3    H129461   1.140   2.702   8.041  1.3330  1.0689 -0.5465
 2634TIP3    H229462   1.167   2.780   8.168  0.8422  1.0657 -0.4391
 2635TIP3   OH229463   1.702   4.340   3.144 -0.0733  0.6935  0.3619
 2635TIP3    H129464   1.741   4.415   3.099  0.7735  1.4957  2.2813
 2635TIP3    H229465   1.612   4.368   3.164 -1.1321 -0.4199 -2.3953
 2636TIP3   OH229466   0.804   4.486   1.644 -0.1184 -0.1421  0.3039
 2636TIP3    H129467   0.747   4.427   1.594 -0.8077  0.9976 -0.3157
 2636TIP3    H229468   0.760   4.571   1.638  1.1727  0.5669  0.6364
 2637TIP3   OH229469   4.265   2.227   7.709 -0.0036  0.2078 -0.0162
 2637TIP3    H129470   4.281   2.318   7.733 -1.2286  0.3728  0.2097
 2637TIP3    H229471   4.345   2.200   7.663  0.8979  0.9858  1.0466
 2638TIP3   OH229472   6.707   3.990   2.450 -0.2808  0.2524  0.3250
 2638TIP3    H129473   6.752   3.941   2.381  1.0843  0.9301  0.7138
 2638TIP3    H229474   6.643   4.043   2.403  0.8686  0.9673 -0.4896
 2639TIP3   OH229475   3.211   1.337   2.505 -0.0555 -0.6807 -0.4513
 2639TIP3    H129476   3.131   1.317   2.457 -0.8075  2.8724 -0.9500
 2639TIP3    H229477   3.189   1.325   2.597 -1.0250 -0.2143 -0.6147
 2640TIP3   OH229478   0.330   5.699   0.053  0.3133 -0.2179 -0.1707
 2640TIP3    H129479   0.358   5.756   0.125 -1.5780  0.5903  0.0030
 2640TIP3    H229480   0.299   5.760  -0.014  1.0349 -0.9975 -1.2452
 2641TIP3   OH229481   4.961   4.007   8.494 -0.2757 -0.0570  0.0160
 2641TIP3    H129482   4.958   4.102   8.487 -1.9995  0.1173  2.1039
 2641TIP3    H229483   4.953   3.989   8.587 -4.0353 -2.2231 -0.4966
 2642TIP3   OH229484   0.257   6.524   1.062 -0.1545  0.1236  0.0817
 2642TIP3    H129485   0.204   6.525   0.982  0.4049 -1.5210 -0.3598
 2642TIP3    H229486   0.197   6.553   1.131 -1.6742 -1.6303 -0.4104
 2643TIP3   OH229487   3.618   3.066   0.687  0.1990  0.2789  0.7843
 2643TIP3    H129488   3.606   3.070   0.592  1.4528  0.9530  0.6296
 2643TIP3    H229489   3.629   2.973   0.706 -2.5019 -0.1573  0.6435
 2644TIP3   OH229490   2.980   1.474   3.193  0.8685 -0.0150 -0.6619
 2644TIP3    H129491   2.945   1.446   3.109  1.9323  0.9002 -1.4393
 2644TIP3    H229492   3.067   1.434   3.197  0.5273 -0.6922  0.3685
 2645TIP3   OH229493   5.407   0.700   3.019 -0.5229  0.2551  0.2276
 2645TIP3    H129494   5.319   0.663   3.006 -0.2500 -0.4462  0.3742
 2645TIP3    H229495   5.397   0.792   2.993 -1.5351  0.4299  1.1096
 2646TIP3   OH229496   4.909   0.629   0.504 -0.6762  0.2018  0.1245
 2646TIP3    H129497   4.924   0.562   0.571 -0.3695  0.4823  0.3379
 2646TIP3    H229498   4.968   0.700   0.527  0.1878 -0.1185 -1.0324
 2647TIP3   OH229499   2.820   0.583   1.411 -0.3146 -0.4123 -0.0327
 2647TIP3    H129500   2.816   0.505   1.466 -1.0892 -0.3901 -0.0381
 2647TIP3    H229501   2.901   0.626   1.435 -0.9917 -0.0037  1.6538
 2648TIP3   OH229502   3.995   2.751   8.202  0.8721  0.5691  0.1938
 2648TIP3    H129503   3.920   2.713   8.156  1.2168 -0.8772  0.7523
 2648TIP3    H229504   4.016   2.831   8.154  0.4939 -0.2770 -1.4364
 2649TIP3   OH229505   2.725   0.204   3.840 -0.4612  0.3727  0.5913
 2649TIP3    H129506   2.689   0.129   3.792 -0.6370  1.2420 -0.6953
 2649TIP3    H229507   2.804   0.171   3.882  0.3172 -0.1696 -1.2219
 2650TIP3   OH229508   0.795   3.697   0.846  0.2292 -0.3834 -0.1220
 2650TIP3    H129509   0.728   3.705   0.914 -0.4477  0.9209 -0.9074
 2650TIP3    H229510   0.782   3.609   0.810 -1.4509  0.0371 -0.6324
 2651TIP3   OH229511   3.760   3.295   1.566  0.2077  0.3582  0.3778
 2651TIP3    H129512   3.814   3.366   1.602 -0.3505  0.7896  0.3795
 2651TIP3    H229513   3.681   3.295   1.620 -0.2416  0.4200 -0.2642
 2652TIP3   OH229514   3.780   0.113   1.588 -0.3240  0.1000 -0.6392
 2652TIP3    H129515   3.686   0.127   1.573 -0.4166  0.4839  0.2787
 2652TIP3    H229516   3.816   0.200   1.602  0.1891 -0.0429 -1.0200
 2653TIP3   OH229517   0.262   6.124   2.632 -0.5730  0.2485 -0.0476
 2653TIP3    H129518   0.334   6.096   2.576 -0.4366  0.6114 -0.0557
 2653TIP3    H229519   0.285   6.213   2.658 -0.1944 -0.2043  1.2977
 2654TIP3   OH229520   3.686   3.822   0.458 -0.2830 -0.2973  0.3514
 2654TIP3    H129521   3.644   3.890   0.406 -0.7567  0.0885  1.2213
 2654TIP3    H229522   3.682   3.854   0.548 -0.2370 -1.3350  0.7402
 2655TIP3   OH229523   1.957   0.262   2.829 -0.3796  0.4239 -0.0668
 2655TIP3    H129524   1.961   0.170   2.854 -0.7833  0.5320  0.4050
 2655TIP3    H229525   2.033   0.302   2.870 -0.1456  0.2853 -0.3583
 2656TIP3   OH229526   3.364   5.733   8.584  0.3175  0.1757 -0.2321
 2656TIP3    H129527   3.445   5.730   8.533  0.5725  0.0511  0.1769
 2656TIP3    H229528   3.349   5.826   8.599 -0.9377  0.3737 -2.3822
 2657TIP3   OH229529   3.523   3.334   0.152  0.1465  0.0857  0.1262
 2657TIP3    H129530   3.616   3.315   0.139 -0.0195  0.3332 -1.6029
 2657TIP3    H229531   3.523   3.417   0.201  0.8708  1.1445 -1.5704
 2658TIP3   OH229532   6.445   6.770   0.948 -0.4931 -0.4111 -0.3796
 2658TIP3    H129533   6.392   6.691   0.939 -1.3752  0.3349 -2.2909
 2658TIP3    H229534   6.395   6.825   1.009 -0.2027 -1.0350  0.4422
 2659TIP3   OH229535   4.237   6.205   3.594  0.3033 -0.4459 -0.2984
 2659TIP3    H129536   4.185   6.127   3.574 -0.2002 -0.2417  0.1715
 2659TIP3    H229537   4.315   6.172   3.637 -0.5769 -0.6282  1.2460
 2660TIP3   OH229538   5.246   4.139   0.184 -0.0577 -0.2739 -0.3217
 2660TIP3    H129539   5.332   4.099   0.201 -0.4759 -0.6658  0.9567
 2660TIP3    H229540   5.207   4.082   0.117 -0.4986 -1.8962  1.2164
 2661TIP3   OH229541   3.809   5.587   2.940  0.2969  0.3977  0.4995
 2661TIP3    H129542   3.835   5.679   2.938 -0.5731  0.6806  1.5242
 2661TIP3    H229543   3.812   5.560   2.848  0.8460  1.3586  0.2162
 2662TIP3   OH229544   0.414   4.101   3.261  0.3079 -0.3985  0.1894
 2662TIP3    H129545   0.399   4.190   3.295 -0.7439 -0.8058  0.8438
 2662TIP3    H229546   0.372   4.044   3.325  5.2099 -1.8118  2.6420
 2663TIP3   OH229547   4.583   5.484   8.406 -0.3166  0.2787 -0.3680
 2663TIP3    H129548   4.577   5.579   8.397  1.0401  0.3216 -1.0665
 2663TIP3    H229549   4.598   5.452   8.317 -1.1397 -0.6387 -0.1958
 2664TIP3   OH229550   1.504   6.361   0.355  0.3721 -0.2225 -0.2652
 2664TIP3    H129551   1.581   6.310   0.379  0.4646 -0.9882 -2.0585
 2664TIP3    H229552   1.433   6.321   0.406  0.7693 -0.9552 -0.2687
 2665TIP3   OH229553   5.522   3.671   1.186  0.7052  0.3911  0.2411
 2665TIP3    H129554   5.493   3.602   1.125 -0.6885  2.1623 -1.2274
 2665TIP3    H229555   5.504   3.635   1.273 -1.3689 -0.5759 -0.5088
 2666TIP3   OH229556   5.717   5.848   2.687  0.4273 -0.1943 -0.3394
 2666TIP3    H129557   5.699   5.781   2.621  0.5834  0.4785 -1.0722
 2666TIP3    H229558   5.778   5.908   2.645  1.1107 -0.1597  0.6822
 2667TIP3   OH229559   3.330   5.189   2.373  0.0665 -0.3986  0.2300
 2667TIP3    H129560   3.307   5.184   2.281  1.4519 -0.5823 -0.1256
 2667TIP3    H229561   3.337   5.098   2.402  0.7675 -0.3526  0.2136
 2668TIP3   OH229562   6.857   1.461   2.030  0.0434 -0.2836 -0.7693
 2668TIP3    H129563   6.851   1.533   1.967  1.2782  2.2677  1.8164
 2668TIP3    H229564   6.950   1.447   2.043 -0.1709 -1.8960 -0.6348
 2669TIP3   OH229565   2.352   3.724   8.228 -0.1936 -0.5464 -0.1541
 2669TIP3    H129566   2.411   3.761   8.162  2.6215  0.0834  2.4742
 2669TIP3    H229567   2.398   3.647   8.261 -1.4247 -0.7731  1.1358
 2670TIP3   OH229568   1.180   0.248   0.704 -0.0338 -0.1889  0.3311
 2670TIP3    H129569   1.270   0.280   0.699 -0.8411  2.0916 -2.1576
 2670TIP3    H229570   1.177   0.175   0.642 -0.4684  1.5710 -1.8237
 2671TIP3   OH229571   5.720   2.499   3.076 -0.7627  0.5354 -0.1952
 2671TIP3    H129572   5.723   2.466   3.166 -1.1512 -2.1605 -1.1072
 2671TIP3    H229573   5.679   2.585   3.084 -0.9893  0.2767  2.1682
 2672TIP3   OH229574   0.828   1.531   2.079 -0.1480 -0.3434 -0.2534
 2672TIP3    H129575   0.771   1.454   2.073  1.2155 -1.3581 -0.6290
 2672TIP3    H229576   0.815   1.563   2.168 -0.2612 -1.3912  0.1202
 2673TIP3   OH229577   3.334   2.038   8.579  0.6351  0.0443  0.3849
 2673TIP3    H129578   3.252   2.049   8.531  1.2624 -0.9903 -1.0030
 2673TIP3    H229579   3.308   2.045   8.671 -1.1703 -1.0894  0.0311
 2674TIP3   OH229580   3.035   4.660   3.856  0.6142  0.6714  0.4202
 2674TIP3    H129581   3.094   4.610   3.800  2.1271  0.1212  2.3734
 2674TIP3    H229582   3.067   4.750   3.851  0.4673  0.7088  0.0978
 2675TIP3   OH229583   2.688   5.785   2.999 -0.6621  0.0392 -0.4189
 2675TIP3    H129584   2.615   5.754   3.052 -0.7425 -5.0427 -2.8551
 2675TIP3    H229585   2.765   5.775   3.056 -1.2935  0.2836  0.5019
 2676TIP3   OH229586   3.613   2.423   2.460  0.2589  0.1590  0.2037
 2676TIP3    H129587   3.645   2.497   2.408  1.1811  0.3188  0.9905
 2676TIP3    H229588   3.557   2.464   2.526 -1.0911 -0.0629 -0.7538
 2677TIP3   OH229589   1.572   6.345   0.759  0.8666 -0.2768 -0.2350
 2677TIP3    H129590   1.519   6.424   0.769  0.4915 -0.5322 -0.1973
 2677TIP3    H229591   1.661   6.378   0.745  1.0516  0.1261  1.6428
 2678TIP3   OH229592   1.071   5.275   0.683  0.3778  0.4105  0.3115
 2678TIP3    H129593   1.150   5.225   0.701  1.4835  2.4983  1.7286
 2678TIP3    H229594   1.040   5.243   0.598  1.6948 -1.7056  0.5757
 2679TIP3   OH229595   1.702   2.152   8.135  0.0613  0.4093 -0.3497
 2679TIP3    H129596   1.662   2.065   8.129 -1.9086  1.2662 -0.3904
 2679TIP3    H229597   1.634   2.212   8.106  1.1647  2.0427  0.2729
 2680TIP3   OH229598   1.936   2.955   0.126  0.5417 -0.0006 -0.3715
 2680TIP3    H129599   1.844   2.950   0.153  0.4685 -0.7295 -0.7314
 2680TIP3    H229600   1.943   2.892   0.054  1.5113 -0.5095  0.1598
 2681TIP3   OH229601   4.028   4.030   2.964 -0.1838 -0.2295  0.6363
 2681TIP3    H129602   4.029   3.983   3.047  1.4961 -0.0618  0.7431
 2681TIP3    H229603   4.031   4.123   2.988  0.9466 -0.1914  0.4088
 2682TIP3   OH229604   0.014   3.570   2.756 -0.2273 -0.3177 -0.2371
 2682TIP3    H129605  -0.048   3.498   2.765 -0.1727 -0.4919 -1.1142
 2682TIP3    H229606  -0.038   3.649   2.772 -0.2999 -0.5345  0.6698
 2683TIP3   OH229607   5.118   3.356   0.012  0.0304 -0.0301  0.0599
 2683TIP3    H129608   5.063   3.410   0.069 -1.8050 -0.7020 -0.9858
 2683TIP3    H229609   5.121   3.271   0.056 -1.6566 -0.6472 -0.9086
 2684TIP3   OH229610   4.902   5.190   2.472  0.0276 -0.1227 -0.2277
 2684TIP3    H129611   4.922   5.133   2.398  1.1635  0.1639 -0.1692
 2684TIP3    H229612   4.851   5.136   2.531 -2.1416  0.0452 -1.8090
 2685TIP3   OH229613   0.547   2.687   1.001  0.4643  0.0166 -0.1262
 2685TIP3    H129614   0.519   2.610   1.051  0.3898 -0.4459 -0.8763
 2685TIP3    H229615   0.470   2.712   0.950  0.5242  0.5265  0.0236
 2686TIP3   OH229616   2.227   4.120   2.094 -0.3534  0.4926 -0.0361
 2686TIP3    H129617   2.284   4.159   2.028  0.2584 -1.2898 -0.6142
 2686TIP3    H229618   2.287   4.091   2.163 -0.8996  1.4609  0.8902
 2687TIP3   OH229619   5.755   6.384   1.183  0.3505  0.2488 -0.1263
 2687TIP3    H129620   5.836   6.352   1.222 -0.1955  1.0416  1.7780
 2687TIP3    H229621   5.712   6.433   1.254 -0.2037  2.7027 -2.0507
 2688TIP3   OH229622   3.231   1.573   2.325 -0.0564  0.1311  0.1549
 2688TIP3    H129623   3.262   1.492   2.366 -0.1109  0.4815  0.8992
 2688TIP3    H229624   3.308   1.630   2.322 -0.6592  1.1594  2.3871
 2689TIP3   OH229625   1.769   2.747   3.941 -0.1551  0.3686  0.3172
 2689TIP3    H129626   1.709   2.750   4.016 -0.5772  0.9345 -0.0331
 2689TIP3    H229627   1.746   2.666   3.895  1.7493 -1.2915  2.1056
 2690TIP3   OH229628   6.710   6.185   2.539  0.2638  0.3854 -0.1746
 2690TIP3    H129629   6.709   6.224   2.452  0.8451 -1.9856 -1.3343
 2690TIP3    H229630   6.802   6.189   2.566  0.2895  0.0337 -0.2059
 2691TIP3   OH229631   0.209   5.304   2.376 -0.1541  0.1099 -0.3971
 2691TIP3    H129632   0.190   5.397   2.382 -0.4293 -0.0252  2.0378
 2691TIP3    H229633   0.292   5.293   2.423 -0.5884 -0.9532  0.1744
 2692TIP3   OH229634   5.573   3.398   2.143  0.3802  0.0938  0.1559
 2692TIP3    H129635   5.526   3.416   2.224 -2.0041  3.6053 -1.7430
 2692TIP3    H229636   5.509   3.351   2.089  0.6002  1.0297 -0.9393
 2693TIP3   OH229637   6.838   4.614   3.653 -1.0932 -0.0470 -0.5827
 2693TIP3    H129638   6.749   4.593   3.627 -1.0393  0.9221 -1.6190
 2693TIP3    H229639   6.888   4.535   3.632 -1.3816  0.0633 -1.7599
 2694TIP3   OH229640   2.885   3.387   3.198  0.4309  0.0187  0.6257
 2694TIP3    H129641   2.873   3.464   3.254  0.5776  0.3414  0.2175
 2694TIP3    H229642   2.855   3.313   3.252  0.9590  0.2715  1.2748
 2695TIP3   OH229643   1.777   3.294   3.209  0.0843 -0.2205 -0.0791
 2695TIP3    H129644   1.716   3.270   3.279  2.5042 -1.4202  1.7643
 2695TIP3    H229645   1.807   3.210   3.174  1.0373  0.3412 -0.6409
 2696TIP3   OH229646   4.528   1.495   8.486  0.3203 -0.2716 -0.3427
 2696TIP3    H129647   4.620   1.498   8.511  0.3775 -2.6310  0.0160
 2696TIP3    H229648   4.500   1.406   8.509 -2.2084  0.5379  0.0839
 2697TIP3   OH229649   1.510   4.385   8.596  0.1244 -0.1538 -0.4157
 2697TIP3    H129650   1.441   4.442   8.563  1.4520  0.4212 -2.3451
 2697TIP3    H229651   1.583   4.397   8.535  1.1763 -2.3767  0.2997
 2698TIP3   OH229652   0.819   5.053   2.853  0.3982 -0.1300  0.3512
 2698TIP3    H129653   0.834   5.056   2.947 -0.9719  0.2365  0.5789
 2698TIP3    H229654   0.887   4.994   2.820  0.9763 -0.1599  1.5436
 2699TIP3   OH229655   1.731   6.446   8.303 -0.2550 -0.1290  0.1014
 2699TIP3    H129656   1.697   6.406   8.383  1.2613 -0.4858  0.6011
 2699TIP3    H229657   1.687   6.400   8.232  0.6942 -2.0104  0.6841
 2700TIP3   OH229658   3.088   3.593   0.664 -0.2319 -0.1171  0.0235
 2700TIP3    H129659   3.162   3.532   0.663 -1.1640 -1.2956 -0.8455
 2700TIP3    H229660   3.117   3.666   0.610  0.7368  0.0097  0.6907
 2701TIP3   OH229661   0.599   6.863   1.467 -0.4727 -0.0792  0.1764
 2701TIP3    H129662   0.574   6.926   1.400 -2.1161 -0.8638  0.0164
 2701TIP3    H229663   0.653   6.799   1.421 -0.9171 -0.1691 -0.2236
 2702TIP3   OH229664   2.067   3.057   3.387  0.0436 -0.0318 -0.1308
 2702TIP3    H129665   2.027   2.996   3.449 -0.6910  1.7228  1.2313
 2702TIP3    H229666   2.161   3.053   3.406  0.1784 -1.6478 -0.9711
 2703TIP3   OH229667   1.747   5.384   2.778 -0.1653  0.6688  0.7039
 2703TIP3    H129668   1.675   5.352   2.832 -0.6856  2.4422  1.1362
 2703TIP3    H229669   1.821   5.391   2.839 -0.0387  0.2362  0.5988
 2704TIP3   OH229670   5.704   5.489   2.631  0.1721  0.5580  0.4716
 2704TIP3    H129671   5.736   5.550   2.564 -0.9798  0.5948 -0.0701
 2704TIP3    H229672   5.609   5.495   2.625  0.0405 -0.7775  0.8905
 2705TIP3   OH229673   4.747   0.242   0.713 -0.7607 -0.4748 -0.0532
 2705TIP3    H129674   4.759   0.151   0.739  0.6397  0.2471  2.1339
 2705TIP3    H229675   4.697   0.281   0.785 -1.1615  0.5306 -0.8587
 2706TIP3   OH229676   5.656   3.986   8.226  0.1706 -0.0421 -0.1809
 2706TIP3    H129677   5.692   3.971   8.139  0.4908 -0.1029 -0.0375
 2706TIP3    H229678   5.614   4.072   8.220  0.9257  0.3346 -0.1589
 2707TIP3   OH229679   1.433   2.897   2.688  0.3428  0.0072 -0.6674
 2707TIP3    H129680   1.376   2.955   2.637 -0.2119  0.1018  0.0361
 2707TIP3    H229681   1.505   2.953   2.717  0.8046 -0.1123 -1.5612
 2708TIP3   OH229682   4.162   2.800   8.398 -0.3739  0.0449 -0.7453
 2708TIP3    H129683   4.099   2.759   8.340  0.9605  1.0413 -3.0234
 2708TIP3    H229684   4.202   2.870   8.346  0.7233  1.1894  1.4617
 2709TIP3   OH229685   4.839   0.472   0.297 -0.0154  0.2908 -0.0245
 2709TIP3    H129686   4.885   0.504   0.373  1.2094 -0.5588 -0.3780
 2709TIP3    H229687   4.761   0.429   0.332  0.2588  0.3837  0.7008
 2710TIP3   OH229688   0.420   3.589   1.761 -0.2349 -0.3536 -0.2110
 2710TIP3    H129689   0.339   3.538   1.769  0.7389 -1.8819  0.3989
 2710TIP3    H229690   0.441   3.615   1.851 -2.3384  3.9491 -0.7258
 2711TIP3   OH229691   1.214   4.683   3.087  0.2805  0.0414 -0.0838
 2711TIP3    H129692   1.188   4.774   3.079 -0.6580 -0.1450  0.7279
 2711TIP3    H229693   1.136   4.638   3.120  1.1558 -0.8003  0.9052
 2712TIP3   OH229694   3.915   5.841   8.533  0.6122  0.4839  0.3059
 2712TIP3    H129695   3.889   5.909   8.471  0.3423 -0.7946 -1.0234
 2712TIP3    H229696   3.993   5.801   8.494  0.6386 -0.1260  0.9572
 2713TIP3   OH229697   4.575   5.060   1.683  0.0153  0.0047 -0.6267
 2713TIP3    H129698   4.519   5.039   1.758 -0.5132 -1.3560 -1.3620
 2713TIP3    H229699   4.617   5.143   1.706 -1.6415  0.6208  0.3070
 2714TIP3   OH229700   3.575   3.580   0.284  0.0263 -0.3856 -0.4908
 2714TIP3    H129701   3.595   3.620   0.200 -1.4834  1.0115 -0.2269
 2714TIP3    H229702   3.596   3.646   0.349 -1.8109 -0.2122  0.0019
 2715TIP3   OH229703   3.297   4.730   2.768  0.1093  0.0650  1.1659
 2715TIP3    H129704   3.218   4.768   2.729 -0.2084  0.2407  1.9658
 2715TIP3    H229705   3.270   4.700   2.854  1.1484  1.0550  1.8712
 2716TIP3   OH229706   1.611   4.207   0.472  0.2888  0.2538 -0.2312
 2716TIP3    H129707   1.684   4.269   0.462  0.8075 -0.4662 -1.0835
 2716TIP3    H229708   1.534   4.256   0.443  0.5671  0.7418 -0.1631
 2717TIP3   OH229709   5.568   2.443   7.795 -0.3016  0.3896  0.0790
 2717TIP3    H129710   5.477   2.426   7.817 -0.7820  1.1949 -1.1435
 2717TIP3    H229711   5.596   2.510   7.857  0.2442 -1.5119  2.0196
 2718TIP3   OH229712   6.779   0.991   2.422  0.0465  0.1094  0.0432
 2718TIP3    H129713   6.736   1.048   2.486  1.3366 -0.9768  1.9944
 2718TIP3    H229714   6.775   1.040   2.340 -0.1577  2.3823  1.3235
 2719TIP3   OH229715   4.581   0.001   3.153  0.3312 -0.0166 -0.1674
 2719TIP3    H129716   4.627   0.082   3.177  1.4917 -0.1786 -1.7418
 2719TIP3    H229717   4.492   0.029   3.133 -0.2140  0.3798  2.3737
 2720TIP3   OH229718   3.822   3.614   0.876 -0.4070  0.5639  0.3509
 2720TIP3    H129719   3.817   3.528   0.834 -1.4715 -0.5157  2.5298
 2720TIP3    H229720   3.904   3.612   0.926  0.7568  1.7644 -1.4121
 2721TIP3   OH229721   5.370   1.854   2.633 -0.8892  0.3993 -0.1261
 2721TIP3    H129722   5.449   1.892   2.673 -0.3852 -1.4142  0.6870
 2721TIP3    H229723   5.368   1.764   2.665 -4.8807  1.1172  2.2995
 2722TIP3   OH229724   4.402   1.237   0.829 -0.2845 -0.7608 -0.6330
 2722TIP3    H129725   4.405   1.142   0.827  1.6926 -0.8331  1.5700
 2722TIP3    H229726   4.491   1.264   0.853 -1.0995  1.5551  0.1116
 2723TIP3   OH229727   0.215   4.018   2.824 -0.6280 -0.0608  0.6399
 2723TIP3    H129728   0.232   3.953   2.755  0.4583  0.4889  0.3590
 2723TIP3    H229729   0.254   4.098   2.790 -1.0780  0.4961  1.4203
 2724TIP3   OH229730   2.400   2.183   2.132 -0.3040 -0.1927 -0.1396
 2724TIP3    H129731   2.361   2.105   2.174  0.8007 -0.4371  0.4684
 2724TIP3    H229732   2.488   2.187   2.168  0.0756  0.6244 -1.1419
 2725TIP3   OH229733   3.679   3.082   8.136  0.2568  0.0463  0.2137
 2725TIP3    H129734   3.590   3.118   8.133  0.6613  1.0906  0.3368
 2725TIP3    H229735   3.704   3.072   8.044  0.2912  0.4708  0.1753
 2726TIP3   OH229736   4.907   0.360   1.017  0.3245  0.5754 -0.4945
 2726TIP3    H129737   4.884   0.272   0.988 -0.5419  1.1539 -1.6191
 2726TIP3    H229738   4.998   0.371   0.988 -0.7113  1.4164 -3.9189
 2727TIP3   OH229739   0.216   2.890   4.001 -0.1979  0.2149  0.5517
 2727TIP3    H129740   0.282   2.958   4.014 -0.7673  0.6623  1.1711
 2727TIP3    H229741   0.160   2.924   3.931 -0.5905  0.4759  0.9866
 2728TIP3   OH229742   4.968   1.992   8.566  0.1233  0.1093 -0.0700
 2728TIP3    H129743   5.038   1.931   8.589  1.3193  1.2504 -0.5634
 2728TIP3    H229744   4.929   1.954   8.487 -1.5895 -1.8809  1.5848
 2729TIP3   OH229745   5.304   2.334   7.822 -0.0105 -0.2301  0.7156
 2729TIP3    H129746   5.236   2.371   7.765  1.8356 -1.4057 -2.5290
 2729TIP3    H229747   5.261   2.264   7.870 -1.4385  0.1145 -0.0198
 2730TIP3   OH229748   3.536   6.762   8.474 -0.5647  0.0455 -0.1246
 2730TIP3    H129749   3.572   6.841   8.514 -0.2599  0.3635 -1.0045
 2730TIP3    H229750   3.508   6.708   8.548 -0.0314  0.6235  0.5108
 2731TIP3   OH229751   1.004   0.654   1.979  0.9580 -0.3831  0.3506
 2731TIP3    H129752   1.073   0.711   2.014  2.5281 -1.9121 -0.0941
 2731TIP3    H229753   1.051   0.580   1.941 -0.9554 -1.5560  0.1114
 2732TIP3   OH229754   2.852   3.140   8.585 -0.0040 -0.4312 -0.8549
 2732TIP3    H129755   2.835   3.232   8.608 -2.0880 -0.6428 -1.3779
 2732TIP3    H229756   2.846   3.093   8.668  0.8290 -0.1480 -0.6219
 2733TIP3   OH229757   6.383   1.372   8.272  0.0484  0.2520 -0.3038
 2733TIP3    H129758   6.397   1.463   8.299  0.3405  0.5548 -1.4454
 2733TIP3    H229759   6.330   1.378   8.193  1.1381 -0.4973 -1.1214
 2734TIP3   OH229760   5.204   2.045   2.556 -0.0157  0.6700 -0.5894
 2734TIP3    H129761   5.255   2.126   2.555  0.2005  0.8210  3.4690
 2734TIP3    H229762   5.269   1.977   2.572 -0.4536 -0.0630 -1.7845
 2735TIP3   OH229763   3.399   3.235   1.217  0.0970  0.5528 -0.2979
 2735TIP3    H129764   3.439   3.186   1.289 -0.9323  1.6650  1.0987
 2735TIP3    H229765   3.473   3.267   1.166  0.8111 -2.0875 -1.0688
 2736TIP3   OH229766   0.362   5.483   3.524 -0.0483  0.4668 -0.4495
 2736TIP3    H129767   0.398   5.517   3.443 -0.1593 -0.9840 -1.1367
 2736TIP3    H229768   0.415   5.523   3.593 -0.4272  2.2924 -1.1760
 2737TIP3   OH229769   1.542   4.020   1.672  0.1441 -0.4492 -0.0388
 2737TIP3    H129770   1.553   3.978   1.586  1.4540  3.2765 -1.9323
 2737TIP3    H229771   1.625   4.005   1.717  0.3956 -0.4192 -0.4809
 2738TIP3   OH229772   0.695   3.277   0.156 -0.3876 -0.3606 -0.4959
 2738TIP3    H129773   0.711   3.306   0.246 -4.6593  0.2597  0.2959
 2738TIP3    H229774   0.658   3.190   0.165 -0.4786 -0.4624 -1.7036
 2739TIP3   OH229775   3.797   4.352   0.863 -0.7055 -0.3565  0.0343
 2739TIP3    H129776   3.779   4.397   0.946 -0.6379 -0.8939  0.3450
 2739TIP3    H229777   3.832   4.266   0.889  2.2064  0.5558 -0.5394
 2740TIP3   OH229778   3.595   3.907   8.376 -1.0028 -0.0200  0.2268
 2740TIP3    H129779   3.657   3.950   8.318 -1.3485 -0.7101 -0.6840
 2740TIP3    H229780   3.621   3.814   8.374 -0.9033 -0.0339  1.3351
 2741TIP3   OH229781   6.431   0.675   2.952  0.9009 -0.4659  0.0419
 2741TIP3    H129782   6.405   0.726   3.029  1.2448  0.0513 -0.1794
 2741TIP3    H229783   6.357   0.617   2.935 -0.4824  1.5444 -1.0659
 2742TIP3   OH229784   6.829   6.050   8.157  0.1628  0.2046 -0.2918
 2742TIP3    H129785   6.924   6.066   8.158  0.0399  0.9359  0.0452
 2742TIP3    H229786   6.790   6.137   8.151 -0.4919 -0.1017 -0.5566
 2743TIP3   OH229787   3.755   5.413   2.444 -1.0324 -0.2226 -0.5912
 2743TIP3    H129788   3.722   5.461   2.368 -1.2860 -0.2319 -0.4852
 2743TIP3    H229789   3.804   5.340   2.406 -2.0883 -0.8692 -0.7442
 2744TIP3   OH229790   4.992   0.667   1.886 -0.0991 -0.0847 -0.2489
 2744TIP3    H129791   4.921   0.728   1.907 -0.4904 -1.3786  2.7365
 2744TIP3    H229792   4.950   0.598   1.836 -0.6712 -0.1335  0.2789
 2745TIP3   OH229793   2.687   2.847   2.434 -0.1262  0.2273 -0.5206
 2745TIP3    H129794   2.681   2.751   2.438 -1.2218  0.3110  0.5670
 2745TIP3    H229795   2.748   2.864   2.363  0.5169 -1.2961 -0.3806
 2746TIP3   OH229796   1.591   5.816   2.389 -0.7448 -0.6491 -0.1458
 2746TIP3    H129797   1.545   5.769   2.320  0.1590 -0.6815 -0.7412
 2746TIP3    H229798   1.599   5.905   2.356 -2.7301  0.0719  1.1101
 2747TIP3   OH229799   0.582   2.205   0.234  0.7959 -0.1307 -0.4947
 2747TIP3    H129800   0.632   2.129   0.203  1.4078 -0.4451  1.1773
 2747TIP3    H229801   0.644   2.254   0.287  0.1590  1.1078 -0.8642
 2748TIP3   OH229802   2.786   5.938   0.835 -0.2028  0.8010  0.5743
 2748TIP3    H129803   2.786   5.889   0.917  2.1763 -0.4354 -0.0711
 2748TIP3    H229804   2.775   5.872   0.767  2.0594  1.1974 -0.2626
 2749TIP3   OH229805   0.047   4.295   0.286  0.0301  0.0128  0.2901
 2749TIP3    H129806   0.081   4.261   0.203 -1.3315 -1.8945  0.4367
 2749TIP3    H229807  -0.035   4.247   0.299  0.5789 -0.3066  3.0991
 2750TIP3   OH229808   3.279   0.072   8.012  0.1584 -0.1228  0.5501
 2750TIP3    H129809   3.255  -0.003   7.957  0.5913  0.3402 -0.2832
 2750TIP3    H229810   3.325   0.132   7.953 -2.3454  1.9806  0.5278
 2751TIP3   OH229811   0.496   4.972   2.580  0.1647 -0.0002 -0.2274
 2751TIP3    H129812   0.438   4.917   2.634  1.9648 -0.9059  0.8567
 2751TIP3    H229813   0.565   4.913   2.551  0.9648  1.2244 -0.8626
 2752TIP3   OH229814   2.090   4.160   3.259  0.1715  0.0276  0.1147
 2752TIP3    H129815   2.060   4.070   3.244 -0.4565  0.5952 -2.4664
 2752TIP3    H229816   2.036   4.213   3.201  1.2188  1.9853  0.8519
 2753TIP3   OH229817   0.407   1.599   3.848  0.8217  0.2499 -0.0577
 2753TIP3    H129818   0.453   1.516   3.835  0.0602 -0.7968  3.0375
 2753TIP3    H229819   0.384   1.628   3.760  3.4371 -1.4243 -1.4266
 2754TIP3   OH229820   1.514   3.043   0.697 -0.5182 -0.5583 -0.1326
 2754TIP3    H129821   1.505   3.138   0.702 -0.0828 -0.4767 -0.8312
 2754TIP3    H229822   1.429   3.009   0.727 -0.6244  0.0476  0.2436
 2755TIP3   OH229823   5.874   5.208   8.645 -0.4638  0.1432  0.6314
 2755TIP3    H129824   5.968   5.223   8.638 -0.5672  1.1348  1.1744
 2755TIP3    H229825   5.855   5.141   8.579  0.9496 -1.6472  1.9435
 2756TIP3   OH229826   0.280   0.049   1.240 -0.7959 -0.4323  0.0651
 2756TIP3    H129827   0.264  -0.009   1.315 -0.2466  1.5323  1.7812
 2756TIP3    H229828   0.372   0.074   1.248 -1.3882  1.8516  0.2766
 2757TIP3   OH229829   3.612   4.028   7.846  0.6402 -0.2677  0.0340
 2757TIP3    H129830   3.622   4.085   7.922 -0.9175  1.4460 -0.9605
 2757TIP3    H229831   3.671   4.064   7.780  0.3721 -0.3953 -0.2826
 2758TIP3   OH229832   4.507   0.820   1.086  0.2595 -0.1446 -0.4508
 2758TIP3    H129833   4.446   0.750   1.110  0.7101  0.1109  1.6138
 2758TIP3    H229834   4.593   0.778   1.086  0.1970 -0.4351 -3.0732
 2759TIP3   OH229835   2.973   2.517   4.281  0.2033 -0.0611 -0.1905
 2759TIP3    H129836   2.989   2.425   4.301  1.2136 -0.1193 -1.1527
 2759TIP3    H229837   3.041   2.540   4.217 -1.6017  0.6381 -1.9580
 2760TIP3   OH229838   4.221   5.308   1.596  0.2808  0.4603  0.0551
 2760TIP3    H129839   4.270   5.377   1.552  0.5622  0.2785  0.0758
 2760TIP3    H229840   4.237   5.230   1.543  0.3057  0.3230  0.2622
 2761TIP3   OH229841   6.499   6.848   3.406 -0.5443  0.7574 -0.1489
 2761TIP3    H129842   6.428   6.897   3.363  0.1633 -0.6427 -3.2518
 2761TIP3    H229843   6.475   6.847   3.498 -3.7102  1.7322 -0.8183
 2762TIP3   OH229844   2.620   6.089   3.134 -0.4522  0.1809  0.0364
 2762TIP3    H129845   2.577   6.095   3.220 -0.5878 -0.2055 -0.0031
 2762TIP3    H229846   2.629   5.995   3.118  0.5391  0.2583  0.1016
 2763TIP3   OH229847   6.223   5.940   0.890 -0.4339  0.3192 -0.0876
 2763TIP3    H129848   6.267   5.930   0.974 -1.5640 -1.7775  0.3320
 2763TIP3    H229849   6.282   5.899   0.827 -0.3451  0.3702 -0.0370
 2764TIP3   OH229850   1.042   2.880   0.077  0.0902  0.3812 -0.3905
 2764TIP3    H129851   1.039   2.899   0.170 -1.5180 -2.2562  0.2216
 2764TIP3    H229852   1.131   2.902   0.050  1.3884 -1.0462  2.3537
 2765TIP3   OH229853   1.787   0.534   0.398  0.1440 -0.1130  0.0870
 2765TIP3    H129854   1.702   0.526   0.354  0.4444 -0.0890 -0.5063
 2765TIP3    H229855   1.776   0.485   0.480  0.3668 -2.3737 -1.1488
 2766TIP3   OH229856   6.791   5.754   2.578  0.0842  0.3688  0.4761
 2766TIP3    H129857   6.862   5.818   2.577 -0.5952  1.1639 -1.5935
 2766TIP3    H229858   6.711   5.807   2.586 -0.4306 -0.2861 -0.2002
 2767TIP3   OH229859   2.674   1.723   0.590 -0.1459  0.1350 -0.5627
 2767TIP3    H129860   2.669   1.751   0.681 -1.2507  0.1440 -0.6062
 2767TIP3    H229861   2.736   1.784   0.549 -0.2627  0.6444  0.0026
 2768TIP3   OH229862   0.820   5.922   3.120 -0.4500 -0.0149 -0.2015
 2768TIP3    H129863   0.888   5.969   3.168 -0.8504 -0.0721  0.4296
 2768TIP3    H229864   0.867   5.853   3.074 -0.3845 -2.0664  2.6909
 2769TIP3   OH229865   6.436   6.282   0.321 -0.1975  0.5610 -0.0868
 2769TIP3    H129866   6.423   6.326   0.237 -2.0120  1.8973  0.8021
 2769TIP3    H229867   6.361   6.223   0.329 -0.0722  0.4844  0.5972
 2770TIP3   OH229868   6.576   1.985   7.905  0.0941 -0.3538 -0.5829
 2770TIP3    H129869   6.510   1.984   7.974  0.2916  1.7654 -0.2791
 2770TIP3    H229870   6.657   2.008   7.950  0.3195  0.5916 -1.4239
 2771TIP3   OH229871   5.676   5.084   2.774 -0.1973 -0.1919  0.1507
 2771TIP3    H129872   5.658   5.131   2.855  1.2653  1.5452 -0.4823
 2771TIP3    H229873   5.646   5.143   2.704  0.3557 -0.8065 -0.6267
 2772TIP3   OH229874   0.763   3.409   1.744 -0.1386  0.1867 -0.2218
 2772TIP3    H129875   0.725   3.447   1.665  2.3271 -0.0632 -1.6318
 2772TIP3    H229876   0.854   3.390   1.721  0.2270 -1.4997  2.1522
 2773TIP3   OH229877   0.755   0.818   0.018 -0.7569  0.5635 -0.0080
 2773TIP3    H129878   0.783   0.726   0.011  0.1485  0.7347  1.1296
 2773TIP3    H229879   0.835   0.868   0.004 -1.2259  1.1897 -0.4897
 2774TIP3   OH229880   0.199   2.766   2.291 -0.0720 -0.1534  0.3613
 2774TIP3    H129881   0.261   2.712   2.340 -0.1974 -0.3961  0.2540
 2774TIP3    H229882   0.113   2.740   2.324 -0.1783 -0.5368 -0.1976
 2775TIP3   OH229883   2.760   0.782   2.542  0.2095  0.1572 -0.3754
 2775TIP3    H129884   2.670   0.800   2.570  0.1870 -1.0311  0.3989
 2775TIP3    H229885   2.780   0.852   2.480 -1.3011  0.3533 -0.6912
 2776TIP3   OH229886   5.337   3.991   8.319  0.0661  0.4601  0.6856
 2776TIP3    H129887   5.380   3.939   8.251  0.2702 -2.0001  2.5547
 2776TIP3    H229888   5.409   4.026   8.371 -0.1104  1.6682  0.1501
 2777TIP3   OH229889   4.573   5.638   3.496  0.1940 -0.0660  0.2935
 2777TIP3    H129890   4.523   5.585   3.558 -1.2333  1.1788  0.2686
 2777TIP3    H229891   4.636   5.577   3.457 -0.3582 -1.3614  1.3650
 2778TIP3   OH229892   1.440   6.712   1.736 -0.1336 -0.2679  0.0296
 2778TIP3    H129893   1.495   6.640   1.766 -0.3142 -0.3607  0.1401
 2778TIP3    H229894   1.375   6.724   1.805  0.7912  0.9987  0.7263
 2779TIP3   OH229895   4.441   5.112   2.186  0.1563 -0.2627 -0.2060
 2779TIP3    H129896   4.432   5.125   2.280  1.6722  0.5377 -0.1285
 2779TIP3    H229897   4.391   5.033   2.167 -0.9449  0.0880  1.1019
 2780TIP3   OH229898   3.080   6.297   1.303  0.0493  0.2835 -0.3672
 2780TIP3    H129899   3.116   6.299   1.214  1.3073 -0.7432  0.0866
 2780TIP3    H229900   3.032   6.379   1.311 -1.6927 -0.4003 -2.6250
 2781TIP3   OH229901   2.411   0.836   0.132  0.4745  0.6148  0.1624
 2781TIP3    H129902   2.444   0.802   0.215  0.7297 -0.2980 -0.2914
 2781TIP3    H229903   2.350   0.905   0.156  0.4956  0.3147  1.1065
 2782TIP3   OH229904   3.632   0.089   0.935  0.4347  0.6132 -0.4478
 2782TIP3    H129905   3.543   0.076   0.903  0.1541 -1.5465  0.9425
 2782TIP3    H229906   3.620   0.123   1.024  1.0096  1.1268 -0.5689
 2783TIP3   OH229907   3.495   5.500   1.114 -0.0734 -0.7900 -0.5963
 2783TIP3    H129908   3.582   5.474   1.145 -0.1670 -0.9789 -0.4932
 2783TIP3    H229909   3.504   5.593   1.093  0.8064 -1.3008 -2.7810
 2784TIP3   OH229910   4.554   6.040   8.585 -0.4603 -0.3159 -0.1404
 2784TIP3    H129911   4.462   6.024   8.564 -0.8778  1.4415  0.2283
 2784TIP3    H229912   4.579   6.115   8.532  0.0775  0.6950  1.4630
 2785TIP3   OH229913   4.914   1.842   1.844  0.3051  0.1612  0.0534
 2785TIP3    H129914   4.933   1.868   1.754  2.5091 -1.0578  0.0857
 2785TIP3    H229915   4.970   1.898   1.898 -1.5408  1.3959  0.7739
 2786TIP3   OH229916   4.973   5.140   8.645  0.5580  0.5322 -0.3002
 2786TIP3    H129917   4.971   5.128   8.740 -1.3376 -0.6070 -0.4314
 2786TIP3    H229918   4.900   5.199   8.627 -0.7361 -1.2831 -1.2464
 2787TIP3   OH229919   6.369   3.463   8.509  0.0068  0.4773 -0.2142
 2787TIP3    H129920   6.403   3.527   8.446 -1.3122  1.2395 -0.1877
 2787TIP3    H229921   6.377   3.506   8.594  0.5576 -0.0288 -0.0008
 2788TIP3   OH229922   5.198   5.781   1.406 -0.5677 -0.3854 -0.3876
 2788TIP3    H129923   5.266   5.723   1.441  0.9158 -0.5761 -3.2701
 2788TIP3    H229924   5.123   5.724   1.390 -1.0330 -0.4160  1.6440
 2789TIP3   OH229925   4.649   1.184   0.500 -0.0879 -0.4872  0.4130
 2789TIP3    H129926   4.578   1.181   0.436 -1.5459 -1.3157  1.9900
 2789TIP3    H229927   4.654   1.094   0.534  0.0317  0.1270  2.0816
 2790TIP3   OH229928   4.355   0.136   3.427  0.4526 -0.1962  0.0529
 2790TIP3    H129929   4.318   0.174   3.506 -0.2721 -0.2074 -0.2618
 2790TIP3    H229930   4.335   0.042   3.434 -1.5523  0.0709 -1.0997
 2791TIP3   OH229931   4.158   3.522   3.695  0.1146  0.1295  0.6386
 2791TIP3    H129932   4.116   3.604   3.722 -0.6051 -0.5160  1.5262
 2791TIP3    H229933   4.204   3.492   3.773  1.3607  0.2689 -0.0153
 2792TIP3   OH229934   5.244   1.097   2.218  0.1343  0.7860 -0.3639
 2792TIP3    H129935   5.217   1.137   2.300 -1.3554  0.7729 -0.8273
 2792TIP3    H229936   5.163   1.061   2.180  1.0470 -0.6608 -1.0434
 2793TIP3   OH229937   4.110   3.923   2.404 -0.7262  0.1539 -0.2970
 2793TIP3    H129938   4.062   3.888   2.479 -2.9997  0.9869 -1.2866
 2793TIP3    H229939   4.061   3.893   2.328 -1.2816  3.1979 -1.2872
 2794TIP3   OH229940   6.172   5.947   0.117  0.6457  0.1607  0.2916
 2794TIP3    H129941   6.150   5.862   0.154  2.7797  0.2336  1.9321
 2794TIP3    H229942   6.139   5.944   0.028 -2.0952 -1.1778  1.2537
 2795TIP3   OH229943   2.923   5.235   3.136 -0.3968 -0.1362 -0.2357
 2795TIP3    H129944   2.994   5.300   3.135 -0.2235 -0.3363 -0.8409
 2795TIP3    H229945   2.953   5.168   3.197 -2.0200  1.9441  3.1437
 2796TIP3   OH229946   0.659   4.111   2.101 -0.0558  0.1782 -0.8418
 2796TIP3    H129947   0.645   4.203   2.121 -0.3131  0.0632 -0.4799
 2796TIP3    H229948   0.754   4.104   2.085 -0.0579  0.5270 -1.0064
 2797TIP3   OH229949   4.312   0.327   0.724  0.3179 -0.2233 -0.0774
 2797TIP3    H129950   4.313   0.350   0.631 -0.1193  0.6723  0.1241
 2797TIP3    H229951   4.366   0.394   0.765 -0.3825  0.0380  0.4433
 2798TIP3   OH229952   2.998   1.070   2.460 -0.1135  0.1203 -0.1260
 2798TIP3    H129953   2.907   1.065   2.487  0.1116 -0.1546  0.6135
 2798TIP3    H229954   3.045   1.013   2.522  0.1603 -2.2590 -2.3343
 2799TIP3   OH229955   3.363   1.021   3.225 -0.1377 -0.4500  0.2898
 2799TIP3    H129956   3.362   1.058   3.136 -0.7104 -2.3302 -0.5528
 2799TIP3    H229957   3.419   1.080   3.275 -2.3235  2.5206 -0.4679
 2800TIP3   OH229958   2.671   0.267   2.905  0.2962 -0.4109 -0.3696
 2800TIP3    H129959   2.762   0.296   2.904 -0.5339  2.5997 -2.3767
 2800TIP3    H229960   2.674   0.180   2.947  3.9577 -0.2417  0.0686
 2801TIP3   OH229961   1.371   1.862   8.398  0.1736  0.1764 -0.1518
 2801TIP3    H129962   1.393   1.784   8.347  0.3930  0.9492 -1.2930
 2801TIP3    H229963   1.282   1.885   8.370  0.4372  0.8209 -0.5040
 2802TIP3   OH229964   0.293   6.752   7.547 -0.3601  0.0613 -0.4523
 2802TIP3    H129965   0.222   6.811   7.522  0.7945  0.9072 -1.9491
 2802TIP3    H229966   0.251   6.683   7.598 -2.0665  1.1053 -0.3771
 2803TIP3   OH229967   0.070   1.340   7.766  0.0476  0.5600  0.3430
 2803TIP3    H129968   0.064   1.373   7.855  0.1963  1.5218  0.0082
 2803TIP3    H229969   0.104   1.251   7.775  0.3824  0.7706  1.2193
 2804TIP3   OH229970   6.739   4.564   1.709  0.2296  0.4436 -0.4274
 2804TIP3    H129971   6.817   4.604   1.747  1.0796 -1.0285 -0.5563
 2804TIP3    H229972   6.675   4.564   1.780  0.1322  2.1655 -0.4786
 2805TIP3   OH229973   4.279   1.774   1.357 -0.0751  0.1081  0.2447
 2805TIP3    H129974   4.324   1.702   1.312 -0.4342  0.1754 -0.2203
 2805TIP3    H229975   4.344   1.845   1.360 -0.9459  1.1392 -2.7347
 2806TIP3   OH229976   4.026   0.797   0.099  0.1948  0.0292 -0.0171
 2806TIP3    H129977   4.005   0.888   0.123  0.1989 -0.0968  0.4750
 2806TIP3    H229978   3.942   0.756   0.082  0.1507 -0.0394  0.3638
 2807TIP3   OH229979   0.794   1.266   0.611  0.1586  0.2748 -0.6096
 2807TIP3    H129980   0.870   1.311   0.650  0.6424 -0.3921 -0.7748
 2807TIP3    H229981   0.759   1.330   0.548 -0.2950  1.1459  0.4852
 2808TIP3   OH229982   2.781   2.898   2.188  0.0684 -0.2145  0.3597
 2808TIP3    H129983   2.709   2.912   2.127  0.3408  1.6489  0.3866
 2808TIP3    H229984   2.819   2.815   2.162  0.0599  0.4242 -1.9014
 2809TIP3   OH229985   1.292   0.092   7.921  0.5371 -0.5390 -0.0607
 2809TIP3    H129986   1.367   0.144   7.893  1.2622 -0.7655  1.3912
 2809TIP3    H229987   1.325   0.038   7.993 -0.2540 -2.7972 -1.2711
 2810TIP3   OH229988   1.889   1.162   0.698  0.1239 -0.0306  1.0038
 2810TIP3    H129989   1.852   1.188   0.782  0.1643 -0.1638  1.0641
 2810TIP3    H229990   1.975   1.204   0.696 -0.1213  0.4600  0.7659
 2811TIP3   OH229991   5.599   0.344   8.214 -0.5924 -0.0495  0.2997
 2811TIP3    H129992   5.507   0.364   8.231 -0.5190  3.6460 -2.3884
 2811TIP3    H229993   5.597   0.274   8.150 -1.5168 -0.2136  0.4931
 2812TIP3   OH229994   4.342   3.073   0.126  0.0947  0.1174 -0.1272
 2812TIP3    H129995   4.374   3.150   0.173 -0.2517  0.0397  0.2434
 2812TIP3    H229996   4.422   3.029   0.095  0.3462 -0.0395  0.7294
 2813TIP3   OH229997   4.882   2.614   8.026 -0.0424  0.0966  0.5548
 2813TIP3    H129998   4.799   2.621   8.073  0.2204  2.4329  0.7976
 2813TIP3    H229999   4.935   2.685   8.061  1.6235 -0.5781 -0.4889
 2814TIP3   OH230000   6.208   3.055   0.385  0.1446 -0.0854 -0.1238
 2814TIP3    H130001   6.118   3.024   0.386  0.2687 -0.4690  1.2352
 2814TIP3    H230002   6.202   3.147   0.360 -0.9904  0.7918  2.8592
 2815TIP3   OH230003   5.541   4.234   8.146 -0.2159 -0.0065  0.1455
 2815TIP3    H130004   5.462   4.274   8.110 -0.5008  0.3857  1.1720
 2815TIP3    H230005   5.602   4.230   8.072 -1.0126  0.1395 -0.5382
 2816TIP3   OH230006   4.016   3.398   1.099  0.8233  0.5474  0.0044
 2816TIP3    H130007   3.950   3.348   1.146 -1.7957  2.1740 -1.7145
 2816TIP3    H230008   4.020   3.482   1.145 -0.5522  1.5358 -1.5643
 2817TIP3   OH230009   1.081   5.175   8.354  0.0583  0.6746  0.1589
 2817TIP3    H130010   1.013   5.165   8.288 -0.8998  0.7748  1.0998
 2817TIP3    H230011   1.156   5.210   8.307  0.3934 -1.9037 -1.4378
 2818TIP3   OH230012   0.056   0.600   7.837  0.0251  0.0171  0.3302
 2818TIP3    H130013   0.102   0.682   7.815  1.6058 -1.1920 -1.1479
 2818TIP3    H230014   0.119   0.551   7.890 -0.0163 -1.1511 -0.6674
 2819TIP3   OH230015   1.315   0.122   2.938  0.2765 -0.2920  0.4639
 2819TIP3    H130016   1.389   0.158   2.888 -0.4640  1.0287  0.2676
 2819TIP3    H230017   1.238   0.145   2.886 -0.3784 -0.3661  1.3854
 2820TIP3   OH230018   6.051   2.178   1.594 -0.0827 -0.1027  0.2104
 2820TIP3    H130019   6.016   2.110   1.537  1.1523 -1.0890  0.5746
 2820TIP3    H230020   6.099   2.236   1.535  0.1825 -0.4428  0.0868
 2821TIP3   OH230021   5.232   4.404   8.591  0.0456  0.0187  0.0533
 2821TIP3    H130022   5.259   4.355   8.669  1.0653 -0.3862 -0.5387
 2821TIP3    H230023   5.291   4.375   8.523 -0.6579  0.5817 -0.8171
 2822TIP3   OH230024   6.238   4.813   0.463  0.0705  0.0395  0.0589
 2822TIP3    H130025   6.174   4.802   0.393  0.7215  0.6977 -0.6647
 2822TIP3    H230026   6.256   4.907   0.465  0.2253 -0.0011  0.9641
 2823TIP3   OH230027   3.381   4.583   1.843 -0.0855  0.0510 -0.2107
 2823TIP3    H130028   3.378   4.566   1.937  2.0294 -1.0243 -0.2721
 2823TIP3    H230029   3.308   4.533   1.807 -0.8444  0.3784  0.8213
 2824TIP3   OH230030   2.392   4.145   3.274 -0.3677 -0.3475 -0.0608
 2824TIP3    H130031   2.342   4.213   3.319 -0.7203  0.0634 -1.0559
 2824TIP3    H230032   2.348   4.063   3.298 -1.2215 -0.0317 -0.5288
 2825TIP3   OH230033   0.539   5.949   0.207  0.4154  0.7352  0.4756
 2825TIP3    H130034   0.524   5.941   0.302 -3.0628  0.6952  0.0381
 2825TIP3    H230035   0.565   6.040   0.194  1.1833  0.6767  1.4615
 2826TIP3   OH230036   0.817   1.394   3.226 -0.5283  0.3199  0.3781
 2826TIP3    H130037   0.772   1.477   3.208 -0.2506  0.4038  0.0622
 2826TIP3    H230038   0.888   1.391   3.162 -0.1763  0.1138  0.7739
 2827TIP3   OH230039   3.181   1.390   7.859 -0.1703 -0.1463 -0.7240
 2827TIP3    H130040   3.194   1.451   7.787  1.6823 -2.0564 -2.1256
 2827TIP3    H230041   3.163   1.306   7.817 -3.8873 -0.5184  1.1208
 2828TIP3   OH230042   5.795   4.446   0.352 -0.5371 -0.0088  0.5624
 2828TIP3    H130043   5.795   4.493   0.268  1.0764 -0.1157  0.4701
 2828TIP3    H230044   5.814   4.513   0.417 -1.1259 -0.0417  0.7698
 2829TIP3   OH230045   1.052   6.108   1.205  0.1451 -0.1713  0.3923
 2829TIP3    H130046   1.059   6.162   1.127  1.2131 -0.2128  0.4363
 2829TIP3    H230047   1.131   6.129   1.256  0.3056 -1.3460  0.6645
 2830TIP3   OH230048   6.581   1.343   2.812  0.5879  0.4403 -0.0353
 2830TIP3    H130049   6.589   1.377   2.723  0.1913  0.9595  0.1299
 2830TIP3    H230050   6.534   1.411   2.860  1.4523  0.4951  0.7571
 2831TIP3   OH230051   5.128   1.536   8.658  0.5426 -0.3394  0.4486
 2831TIP3    H130052   5.079   1.600   8.710  0.3481  0.1252 -0.2931
 2831TIP3    H230053   5.060   1.477   8.625  0.9075 -2.4253  3.0541
 2832TIP3   OH230054   0.311   5.373   1.368 -0.3728 -0.4749 -0.2847
 2832TIP3    H130055   0.274   5.424   1.440  0.4172  0.7222 -0.7002
 2832TIP3    H230056   0.262   5.291   1.369  0.0031 -0.7120  1.9632
 2833TIP3   OH230057   4.219   4.772   2.643 -0.0002 -0.1787 -0.2871
 2833TIP3    H130058   4.202   4.730   2.728 -2.0169  1.1930  0.0745
 2833TIP3    H230059   4.312   4.791   2.644  0.1632 -0.8791  1.3173
 2834TIP3   OH230060   2.106   1.124   2.843  0.0432 -0.2101 -0.5792
 2834TIP3    H130061   2.068   1.061   2.782  0.6548 -0.4864 -0.6885
 2834TIP3    H230062   2.180   1.161   2.795 -0.3245  0.6173 -0.5243
 2835TIP3   OH230063   3.718   5.326   0.318 -0.1556 -0.4031  0.0113
 2835TIP3    H130064   3.714   5.384   0.243 -0.1652  0.0034  0.3215
 2835TIP3    H230065   3.756   5.379   0.388  2.6085 -1.5617 -0.4461
 2836TIP3   OH230066   0.650   0.043   2.854 -0.0131  0.1076  0.0489
 2836TIP3    H130067   0.709   0.111   2.887  1.2685 -1.4206  1.0214
 2836TIP3    H230068   0.630  -0.011   2.930 -1.4133 -0.3502 -0.6063
 2837TIP3   OH230069   2.560   2.970   1.975  0.1654 -0.6475 -0.1273
 2837TIP3    H130070   2.572   2.949   1.882 -0.1061  2.5773 -0.9965
 2837TIP3    H230071   2.471   2.940   1.995 -0.1401 -0.4941 -1.1879
 2838TIP3   OH230072   1.503   3.883   8.297 -0.3687  0.4479  0.0693
 2838TIP3    H130073   1.531   3.859   8.208 -2.0999 -0.0860 -0.3572
 2838TIP3    H230074   1.567   3.839   8.354 -0.9097 -1.6336 -0.8382
 2839TIP3   OH230075   0.751   0.796   8.377  0.4940  0.3948 -0.5045
 2839TIP3    H130076   0.776   0.736   8.447  1.7600  0.4490 -0.8864
 2839TIP3    H230077   0.758   0.883   8.417 -2.5947  0.3391  0.4501
 2840TIP3   OH230078   1.003   5.241   1.780  0.1042 -0.2184  0.6050
 2840TIP3    H130079   0.969   5.243   1.869  1.1578 -1.0013  1.0496
 2840TIP3    H230080   1.044   5.154   1.772  0.7116  0.1424 -0.3638
 2841TIP3   OH230081   3.337   3.621   0.942 -0.1784 -0.1554 -0.3204
 2841TIP3    H130082   3.407   3.583   0.889 -0.5846  0.3891 -1.2632
 2841TIP3    H230083   3.308   3.698   0.893 -0.7791  0.1814  0.5360
 2842TIP3   OH230084   4.522   6.452   7.847  0.1006  0.5715  0.0163
 2842TIP3    H130085   4.513   6.534   7.896  0.7104  0.6541  0.0057
 2842TIP3    H230086   4.474   6.467   7.766 -0.5453  0.5929  0.3943
 2843TIP3   OH230087   0.284   1.762   0.187  0.5926  0.6200  0.1573
 2843TIP3    H130088   0.325   1.802   0.110 -0.0869  1.5516  0.2526
 2843TIP3    H230089   0.306   1.822   0.259 -0.0753  0.5876  0.3908
 2844TIP3   OH230090   1.773   4.215   2.143  0.4216  0.1436 -0.1405
 2844TIP3    H130091   1.805   4.210   2.233 -1.9372 -0.2142  0.7439
 2844TIP3    H230092   1.755   4.124   2.120  1.0729  0.2261 -1.0349
 2845TIP3   OH230093   4.497   1.428   3.050  0.0599  0.1460  0.1112
 2845TIP3    H130094   4.552   1.506   3.053  1.0864 -0.5404 -0.4088
 2845TIP3    H230095   4.454   1.425   3.136  0.9195  0.6309  0.5655
 2846TIP3   OH230096   0.615   1.902   1.492 -0.6545 -0.1712  0.8739
 2846TIP3    H130097   0.639   1.869   1.405 -0.5757 -0.6124  1.0560
 2846TIP3    H230098   0.684   1.868   1.549 -1.8315 -1.7251  1.4685
 2847TIP3   OH230099   0.084   0.440   2.369 -0.1233  0.5447  0.0700
 2847TIP3    H130100   0.158   0.399   2.412 -0.8550  2.0727  3.0127
 2847TIP3    H230101   0.027   0.469   2.440 -2.0640  2.1605 -1.9797
 2848TIP3   OH230102   3.143   5.300   2.614  0.4911  0.6728  0.1166
 2848TIP3    H130103   3.214   5.248   2.651  0.6292  1.2073  0.6029
 2848TIP3    H230104   3.181   5.386   2.597  0.5678  0.3171 -1.7199
 2849TIP3   OH230105   3.089   4.510   2.278  0.2212 -0.1441 -0.2176
 2849TIP3    H130106   3.099   4.416   2.265  1.0594  0.1702 -2.2655
 2849TIP3    H230107   3.007   4.532   2.233  0.6191  0.2414 -0.7830
 2850TIP3   OH230108   3.327   0.993   0.693 -0.5666 -0.7997 -0.1020
 2850TIP3    H130109   3.277   1.049   0.753 -1.6484 -0.1431 -1.5722
 2850TIP3    H230110   3.311   1.030   0.606 -0.4622 -2.7705 -1.0059
 2851TIP3   OH230111   4.396   3.185   2.097 -0.7481  0.2603  0.1831
 2851TIP3    H130112   4.486   3.164   2.124 -0.5177  1.0102  0.0173
 2851TIP3    H230113   4.360   3.101   2.069 -0.1651 -0.0869  0.4386
 2852TIP3   OH230114   5.232   0.238   1.230  0.5434  0.3984 -0.2677
 2852TIP3    H130115   5.147   0.282   1.225  1.0319  1.2548 -1.2214
 2852TIP3    H230116   5.265   0.260   1.317  0.6310  1.6572 -0.6041
 2853TIP3   OH230117   6.555   5.728   2.089 -0.4304  0.5175  0.0880
 2853TIP3    H130118   6.629   5.766   2.041 -1.0363  2.0949  0.3432
 2853TIP3    H230119   6.581   5.733   2.181 -0.8174  0.9748  0.1702
 2854TIP3   OH230120   2.548   5.609   1.011 -0.1573  0.1264  0.0797
 2854TIP3    H130121   2.619   5.668   1.036  0.4772 -1.1877  1.5571
 2854TIP3    H230122   2.536   5.553   1.087  0.0136 -2.3525 -1.6028
 2855TIP3   OH230123   3.389   1.860   8.298  0.4137  0.6287 -0.3270
 2855TIP3    H130124   3.334   1.926   8.339 -2.9541 -0.7286 -2.2546
 2855TIP3    H230125   3.422   1.903   8.218 -0.1683  0.5935 -0.5893
 2856TIP3   OH230126   1.281   4.300   3.318 -0.2702  0.2489 -0.1636
 2856TIP3    H130127   1.340   4.319   3.390  1.9577 -2.9039 -0.9493
 2856TIP3    H230128   1.239   4.218   3.342 -3.3649  1.6237 -0.3418
 2857TIP3   OH230129   2.709   5.401   3.107 -0.1499 -0.5185 -0.6693
 2857TIP3    H130130   2.722   5.441   3.194 -0.9625 -1.4853 -0.0774
 2857TIP3    H230131   2.770   5.328   3.106  0.2506 -0.1821 -1.1467
 2858TIP3   OH230132   6.112   1.934   1.177 -0.0330 -0.2633  0.4422
 2858TIP3    H130133   6.119   1.839   1.164  0.1756 -0.3904  1.3906
 2858TIP3    H230134   6.201   1.966   1.160 -0.2009 -0.1791 -0.2911
 2859TIP3   OH230135   1.559   5.550   2.252 -0.2027  0.4117  0.0357
 2859TIP3    H130136   1.597   5.488   2.314 -2.3125  1.6107  2.7308
 2859TIP3    H230137   1.464   5.539   2.262 -0.6157  1.9325 -1.7015
 2860TIP3   OH230138   3.080   2.585   2.993  0.0671  0.4010 -0.1987
 2860TIP3    H130139   3.012   2.549   2.937  2.0959 -1.2947 -1.7267
 2860TIP3    H230140   3.068   2.541   3.077 -1.7910  1.5027  0.1593
 2861TIP3   OH230141   3.264   6.254   2.666 -0.3719  0.2181  0.1120
 2861TIP3    H130142   3.191   6.298   2.624 -0.1564  0.0770 -0.4251
 2861TIP3    H230143   3.316   6.324   2.705 -0.8061  0.3159  0.5307
 2862TIP3   OH230144   0.207   4.964   1.628 -0.2411  0.0085 -1.4069
 2862TIP3    H130145   0.113   4.952   1.620 -0.2589 -2.7428  1.1825
 2862TIP3    H230146   0.217   5.040   1.685 -0.7937  1.0036 -2.5913
 2863TIP3   OH230147   4.963   2.990   2.708  0.4677  0.6701  0.1816
 2863TIP3    H130148   4.956   2.936   2.787  3.2045 -0.0376  0.0237
 2863TIP3    H230149   4.913   2.942   2.642  0.7707 -0.3603  0.6912
 2864TIP3   OH230150   3.416   3.231   8.115 -0.4746  0.0962  0.0674
 2864TIP3    H130151   3.390   3.234   8.207 -0.3332  0.7319  0.0915
 2864TIP3    H230152   3.372   3.307   8.075  0.2520  0.3931 -0.1792
 2865TIP3   OH230153   2.345   5.702   1.268  0.1325  0.0942 -0.0309
 2865TIP3    H130154   2.369   5.785   1.228 -1.5563  0.7843  0.3163
 2865TIP3    H230155   2.419   5.680   1.325  0.9716  0.9013 -0.7857
 2866TIP3   OH230156   0.641   6.129   8.104  0.0168 -0.4027 -0.2895
 2866TIP3    H130157   0.607   6.215   8.083  0.0015  0.1669  1.8118
 2866TIP3    H230158   0.712   6.115   8.042  0.2669  1.2998 -0.4286
 2867TIP3   OH230159   2.347   5.908   0.088  0.2752  0.0344 -0.4630
 2867TIP3    H130160   2.304   5.960   0.156 -0.8383  0.7846 -1.6940
 2867TIP3    H230161   2.423   5.960   0.063  0.5834 -0.1539  0.0560
 2868TIP3   OH230162   2.330   4.992   2.244  0.1062  0.0789 -0.3193
 2868TIP3    H130163   2.369   4.960   2.163  0.5760 -0.5122  0.1214
 2868TIP3    H230164   2.384   4.952   2.313  0.4722  1.5110  0.2733
 2869TIP3   OH230165   4.729   1.497   1.983  0.4780  0.1982 -0.2663
 2869TIP3    H130166   4.722   1.517   1.889  0.7250 -0.2405 -0.3828
 2869TIP3    H230167   4.670   1.559   2.025  0.8184  0.8051 -0.6612
 2870TIP3   OH230168   5.903   5.587   2.819  0.0035 -0.6370 -0.5288
 2870TIP3    H130169   5.867   5.590   2.908 -0.7510  0.8554 -0.8536
 2870TIP3    H230170   5.829   5.561   2.764  0.3225 -0.9759 -0.8069
 2871TIP3   OH230171   0.453   6.145   2.432 -0.0626 -0.0283 -0.1211
 2871TIP3    H130172   0.519   6.213   2.436  0.9933 -0.8082 -2.6118
 2871TIP3    H230173   0.371   6.192   2.416 -0.0782  0.8813  2.2430
 2872TIP3   OH230174   0.367   0.370   7.656 -0.3780 -0.2076  0.2647
 2872TIP3    H130175   0.392   0.462   7.668  0.0831  0.1474 -2.5289
 2872TIP3    H230176   0.439   0.320   7.694  0.6321  0.6646 -0.4355
 2873TIP3   OH230177   6.549   1.307   0.013 -0.2368  0.2866 -0.3088
 2873TIP3    H130178   6.612   1.370  -0.021 -0.6659 -0.2436 -2.2190
 2873TIP3    H230179   6.554   1.233  -0.048 -1.0593 -0.7343  0.8263
 2874TIP3   OH230180   2.254   3.423   0.789  1.0297  0.0786 -0.2031
 2874TIP3    H130181   2.193   3.391   0.723 -0.4742  0.1519  1.0844
 2874TIP3    H230182   2.307   3.489   0.744 -1.5336  1.8807 -0.8191
 2875TIP3   OH230183   2.617   1.590   0.874 -0.4834 -0.0150  0.0954
 2875TIP3    H130184   2.572   1.670   0.846 -1.2034 -0.1791  0.7604
 2875TIP3    H230185   2.659   1.615   0.956  1.2503  0.3354 -0.8421
 2876TIP3   OH230186   1.757   0.034   0.499  0.2887 -0.2581  0.1470
 2876TIP3    H130187   1.672  -0.007   0.514  0.6860 -0.9669  0.5154
 2876TIP3    H230188   1.800  -0.021   0.434  0.3193  0.3213 -0.3351
 2877TIP3   OH230189   4.551   3.429   1.435  0.0317 -0.0221  0.1651
 2877TIP3    H130190   4.600   3.349   1.451 -0.6442 -0.2473  1.2022
 2877TIP3    H230191   4.563   3.446   1.341  0.9454 -0.8141  0.1239
 2878TIP3   OH230192   0.967   6.062   0.148  0.5786 -0.1240 -0.0151
 2878TIP3    H130193   0.936   5.979   0.111  0.4963  0.4865 -1.3660
 2878TIP3    H230194   0.887   6.105   0.179  0.5044 -0.1055 -0.2317
 2879TIP3   OH230195   3.102   0.536   0.065  0.3129 -0.1644  0.7453
 2879TIP3    H130196   3.122   0.448   0.033  0.7642 -0.1524  0.9819
 2879TIP3    H230197   3.174   0.557   0.125  0.6277  0.6629  0.1051
 2880TIP3   OH230198   3.895   4.592   0.569  0.5569  0.9239  0.0615
 2880TIP3    H130199   3.963   4.624   0.510  1.0232 -1.1344 -0.5928
 2880TIP3    H230200   3.936   4.522   0.618 -0.4741  1.1368  1.2972
 2881TIP3   OH230201   4.093   6.101   1.289 -0.1968  0.2049  0.1151
 2881TIP3    H130202   4.036   6.085   1.214 -2.2411  1.2061  1.3501
 2881TIP3    H230203   4.050   6.058   1.363  0.6019  1.0402  1.1171
 2882TIP3   OH230204   2.264   5.659   0.186  0.3611 -0.0278 -0.0582
 2882TIP3    H130205   2.307   5.744   0.185  2.0219 -0.7012  2.9160
 2882TIP3    H230206   2.320   5.603   0.133  0.1456  0.3178 -0.6671
 2883TIP3   OH230207   6.514   1.657   1.879 -0.6062  0.2302 -0.6933
 2883TIP3    H130208   6.574   1.688   1.810 -0.1379  2.5181  0.6296
 2883TIP3    H230209   6.427   1.664   1.839 -0.4460  2.6212 -0.7688
 2884TIP3   OH230210   6.397   2.506   8.084 -0.4090 -0.4465  0.2581
 2884TIP3    H130211   6.329   2.573   8.093  0.1148  0.1941 -0.4695
 2884TIP3    H230212   6.475   2.554   8.055  0.1089 -1.3007  0.1954
 2885TIP3   OH230213   5.205   2.399   0.513  0.0585 -0.3303  0.1822
 2885TIP3    H130214   5.125   2.385   0.462  0.4041  0.1535 -0.5057
 2885TIP3    H230215   5.181   2.375   0.603 -0.2795 -2.2094 -0.3682
 2886TIP3   OH230216   6.311   1.489   2.332  0.6834  0.0521  0.0626
 2886TIP3    H130217   6.334   1.517   2.244 -0.5344 -1.3285 -0.7503
 2886TIP3    H230218   6.341   1.398   2.337 -0.0149 -0.1504  0.7567
 2887TIP3   OH230219   5.050   1.779   8.157  0.1745 -0.2061 -0.0210
 2887TIP3    H130220   5.065   1.685   8.150  1.0919 -0.0655 -0.0275
 2887TIP3    H230221   5.131   1.819   8.125 -0.1177  0.5786  0.2038
 2888TIP3   OH230222   6.403   0.758   2.686 -0.2557  0.3451  0.8050
 2888TIP3    H130223   6.309   0.758   2.670 -0.1749 -0.0569  0.2836
 2888TIP3    H230224   6.412   0.732   2.778 -0.6011 -1.4972  0.3582
 2889TIP3   OH230225   3.115   1.104   1.128 -0.0727  0.7147  0.4594
 2889TIP3    H130226   3.069   1.021   1.113 -0.8843  1.5340 -2.1238
 2889TIP3    H230227   3.199   1.079   1.166  0.7082 -1.5818 -2.4397
 2890TIP3   OH230228   1.675   4.990   3.158 -0.5775  0.0935 -0.1290
 2890TIP3    H130229   1.646   5.057   3.220 -0.8075  0.4945 -0.6622
 2890TIP3    H230230   1.657   4.907   3.202 -1.2344  0.3651  0.1271
 2891TIP3   OH230231   4.114   4.480   0.965 -0.1175  0.0435  0.2854
 2891TIP3    H130232   4.040   4.536   0.989 -0.9308 -0.7365 -0.3330
 2891TIP3    H230233   4.175   4.489   1.038 -2.0363 -1.4198  2.2182
 2892TIP3   OH230234   0.956   0.882   0.273  0.3240 -0.1741  0.4391
 2892TIP3    H130235   0.972   0.830   0.194  1.0707  0.4773  0.1552
 2892TIP3    H230236   1.042   0.915   0.298 -0.2690  1.8612 -0.0458
 2893TIP3   OH230237   4.030   1.159   8.205  0.4312  0.0174 -0.6104
 2893TIP3    H130238   4.112   1.122   8.174  0.4424  2.2058 -3.6233
 2893TIP3    H230239   3.963   1.122   8.148 -0.6098 -0.8673  1.0873
 2894TIP3   OH230240   4.888   3.487   1.385  0.7795  0.0855 -0.1000
 2894TIP3    H130241   4.876   3.396   1.412  1.6594  0.3740  1.3903
 2894TIP3    H230242   4.857   3.539   1.459 -0.6470  1.0678 -1.3096
 2895TIP3   OH230243   1.671   2.487   8.309 -0.2489 -0.3669 -0.2505
 2895TIP3    H130244   1.716   2.413   8.269 -2.7480 -1.5656 -1.0555
 2895TIP3    H230245   1.710   2.564   8.268  2.8822 -1.1043  1.0976
 2896TIP3   OH230246   3.989   4.722   3.363  0.3995  0.4713 -0.5983
 2896TIP3    H130247   3.929   4.690   3.430 -0.5466 -0.9042 -2.0343
 2896TIP3    H230248   4.045   4.785   3.409 -0.1658 -0.4529  1.4823
 2897TIP3   OH230249   6.524   5.758   3.208  0.4922  0.1134 -0.1012
 2897TIP3    H130250   6.499   5.676   3.166 -0.3431  0.0656  0.4717
 2897TIP3    H230251   6.591   5.732   3.272 -0.4425 -0.2821  0.7450
 2898TIP3   OH230252   6.582   0.443   2.666 -0.3979 -0.4153 -0.2439
 2898TIP3    H130253   6.584   0.352   2.635 -1.0736 -0.5409  0.0626
 2898TIP3    H230254   6.489   0.463   2.675 -0.2387  0.0634  0.4090
 2899TIP3   OH230255   6.399   1.615   2.639 -0.1345 -0.4060 -0.3857
 2899TIP3    H130256   6.325   1.566   2.603  1.9330 -2.6592 -1.9248
 2899TIP3    H230257   6.444   1.650   2.562  2.0001 -1.6392  0.1967
 2900TIP3   OH230258   4.128   3.013   8.602 -0.5884 -0.8643  0.1830
 2900TIP3    H130259   4.127   2.918   8.587 -1.8133 -0.9897  0.8871
 2900TIP3    H230260   4.192   3.025   8.672 -1.4776 -1.3720  1.1166
 2901TIP3   OH230261   1.921   1.250   1.892 -0.3010 -0.0681 -0.0908
 2901TIP3    H130262   1.932   1.205   1.808  0.7388  1.2994 -0.7285
 2901TIP3    H230263   1.847   1.308   1.879  0.5913  1.0231 -0.5030
 2902TIP3   OH230264   3.013   4.854   8.053  0.2765 -0.5185 -0.2932
 2902TIP3    H130265   3.055   4.868   7.969 -0.7524 -0.0039 -0.7389
 2902TIP3    H230266   2.952   4.782   8.037 -1.2100  0.7245 -0.4964
 2903TIP3   OH230267   0.899   3.213   2.678 -0.0108 -0.1486 -0.3577
 2903TIP3    H130268   0.953   3.292   2.679  0.6119 -0.5089 -1.9389
 2903TIP3    H230269   0.917   3.170   2.762  1.8584 -0.0328 -0.6554
 2904TIP3   OH230270   0.228   1.811   3.931 -0.1887 -0.2724 -0.4289
 2904TIP3    H130271   0.294   1.873   3.899 -0.3540  1.7075  2.6117
 2904TIP3    H230272   0.266   1.725   3.914  1.2565  0.6691 -2.4554
 2905TIP3   OH230273   3.723   1.310   1.264 -0.4516  0.0494 -0.1492
 2905TIP3    H130274   3.760   1.376   1.205 -0.8119  0.9336  0.6123
 2905TIP3    H230275   3.800   1.271   1.307 -0.3097  0.8344  0.3159
 2906TIP3   OH230276   4.758   3.926   7.610 -0.1937  0.1100 -0.1964
 2906TIP3    H130277   4.722   3.853   7.559  0.3499  0.3048 -0.8752
 2906TIP3    H230278   4.845   3.897   7.635  0.1456  0.6457 -0.7394
 2907TIP3   OH230279   4.984   3.345   8.018  0.1558 -0.3481 -0.4505
 2907TIP3    H130280   4.911   3.399   8.048  2.7236  3.5082 -0.4386
 2907TIP3    H230281   5.020   3.306   8.098 -0.4643 -0.3645 -0.1762
 2908TIP3   OH230282   6.190   6.109   0.398  0.2003  0.5440 -0.3981
 2908TIP3    H130283   6.112   6.162   0.411 -0.3582 -0.5886  1.2250
 2908TIP3    H230284   6.163   6.040   0.338  0.7048  1.5730 -1.8672
 2909TIP3   OH230285   0.936   5.089   0.993 -0.1589  0.0098  0.1592
 2909TIP3    H130286   0.940   5.017   0.930  2.0947  0.6947 -0.6084
 2909TIP3    H230287   0.917   5.166   0.940 -0.9158  0.2161  0.7247
 2910TIP3   OH230288   1.005   5.255   3.071  0.5991 -0.4457 -0.4046
 2910TIP3    H130289   0.956   5.303   3.004 -0.7644  1.2834  1.6956
 2910TIP3    H230290   1.080   5.310   3.091 -1.3209  1.4062  2.4939
 2911TIP3   OH230291   1.369   2.081   0.922 -0.1830  0.0286 -0.3128
 2911TIP3    H130292   1.327   2.007   0.966  0.5832 -1.0770 -1.3838
 2911TIP3    H230293   1.335   2.159   0.968  0.1081 -1.0247  1.8117
 2912TIP3   OH230294   6.373   3.744   1.276 -0.3667  0.0202 -0.1080
 2912TIP3    H130295   6.385   3.811   1.209 -0.2463 -1.1141 -1.2628
 2912TIP3    H230296   6.435   3.675   1.252 -0.1666 -0.3221  1.3067
 2913TIP3   OH230297   3.978   0.355   0.514 -0.1570  0.0918 -0.2028
 2913TIP3    H130298   3.995   0.294   0.442 -0.3779  0.8083 -0.8711
 2913TIP3    H230299   3.885   0.376   0.507 -0.1908  0.1344  0.3240
 2914TIP3   OH230300   1.067   3.691   3.620 -0.6288 -0.5632  0.0990
 2914TIP3    H130301   0.995   3.650   3.668  0.2509 -0.0012  2.0131
 2914TIP3    H230302   1.045   3.784   3.617 -0.3009 -0.4839  0.1025
 2915TIP3   OH230303   4.505   3.491   8.414 -0.0536 -0.2561 -0.5443
 2915TIP3    H130304   4.553   3.419   8.372  1.6739  1.1366 -1.0796
 2915TIP3    H230305   4.554   3.569   8.391  0.2239  0.7654  3.0017
 2916TIP3   OH230306   1.722   1.173   8.248 -0.1508  1.1023 -0.4555
 2916TIP3    H130307   1.687   1.131   8.327  1.9997  1.4935  0.7962
 2916TIP3    H230308   1.805   1.129   8.233 -0.2058  1.5255 -2.1225
 2917TIP3   OH230309   2.503   1.353   1.102 -0.4042 -0.0183  0.1013
 2917TIP3    H130310   2.572   1.351   1.167  0.8654 -0.7365 -1.2024
 2917TIP3    H230311   2.507   1.440   1.064  1.5531 -0.8077 -1.7037
 2918TIP3   OH230312   4.898   1.484   0.849 -0.0539 -0.1413 -0.4286
 2918TIP3    H130313   4.812   1.443   0.850 -0.1950  0.1428  0.9364
 2918TIP3    H230314   4.914   1.509   0.940  1.1978  0.3822 -0.7682
 2919TIP3   OH230315   6.702   2.773   0.198  0.1006 -0.1028  0.4584
 2919TIP3    H130316   6.747   2.803   0.276  2.2041 -0.6675 -0.4691
 2919TIP3    H230317   6.714   2.844   0.134  2.1670 -1.3541 -0.6590
 2920TIP3   OH230318   0.586   2.585   8.367  0.0395 -0.3636 -0.2694
 2920TIP3    H130319   0.535   2.645   8.313  0.8413 -0.4906 -1.2129
 2920TIP3    H230320   0.529   2.509   8.379 -0.8974  0.4659  0.7511
 2921TIP3   OH230321   1.696   3.952   2.523 -0.2467  0.0266 -0.0277
 2921TIP3    H130322   1.699   3.883   2.589  0.5067  0.3505  0.2940
 2921TIP3    H230323   1.764   3.928   2.461 -1.1254 -0.4145 -0.8441
 2922TIP3   OH230324   2.331   5.881   3.840  0.0424  0.1419 -0.0591
 2922TIP3    H130325   2.341   5.972   3.869 -0.9077 -0.5153  2.6343
 2922TIP3    H230326   2.241   5.875   3.807  0.6184  0.5177 -1.7644
 2923TIP3   OH230327   2.085   0.624   2.073  0.8298  0.2504 -0.7351
 2923TIP3    H130328   2.030   0.681   2.128 -1.1641 -1.5177 -0.7643
 2923TIP3    H230329   2.172   0.628   2.114 -0.0428  0.7885  1.1675
 2924TIP3   OH230330   2.666   0.686   2.915  0.6671 -0.0695 -0.0137
 2924TIP3    H130331   2.699   0.604   2.950  0.0870 -0.3955 -0.2122
 2924TIP3    H230332   2.582   0.663   2.874  0.4199  0.6441  0.0649
 2925TIP3   OH230333   6.658   3.297   0.774 -0.0966 -0.1446 -0.6581
 2925TIP3    H130334   6.581   3.297   0.831 -1.1295  1.0054 -1.9619
 2925TIP3    H230335   6.662   3.208   0.739 -1.0517 -0.1397 -0.8134
 2926TIP3   OH230336   1.482   2.551   3.235 -0.6427 -0.3051  0.1928
 2926TIP3    H130337   1.546   2.494   3.192  0.3873 -0.5207  1.9453
 2926TIP3    H230338   1.473   2.625   3.175  1.2633 -0.2601 -0.1047
 2927TIP3   OH230339   2.309   2.757   2.700 -0.4038  0.1536 -0.2002
 2927TIP3    H130340   2.316   2.852   2.710 -0.3644  0.3496 -1.7214
 2927TIP3    H230341   2.217   2.738   2.714  0.0298 -0.0769  3.2166
 2928TIP3   OH230342   5.433   3.346   2.403 -0.0921 -0.2999 -0.2636
 2928TIP3    H130343   5.433   3.254   2.427 -1.0211  0.3345  2.5089
 2928TIP3    H230344   5.507   3.384   2.450 -1.6189  0.9174  1.2783
 2929TIP3   OH230345   3.624   4.618   0.619  0.7743  0.1059 -0.0426
 2929TIP3    H130346   3.596   4.564   0.693  1.5967  1.2613  1.1434
 2929TIP3    H230347   3.714   4.589   0.601  0.6965  0.0669 -0.3847
 2930TIP3   OH230348   2.054   5.322   2.790 -0.0012  0.2136 -0.1931
 2930TIP3    H130349   2.093   5.409   2.782 -1.3832  0.8086 -0.8117
 2930TIP3    H230350   2.127   5.264   2.814  0.8336  1.6252  0.7941
 2931TIP3   OH230351   3.964   1.278   2.451 -0.0046 -0.4257 -0.4874
 2931TIP3    H130352   3.930   1.351   2.503 -0.9255 -1.1206 -0.0851
 2931TIP3    H230353   4.059   1.281   2.464 -0.0239  0.7314 -0.5341
 2932TIP3   OH230354   4.792   5.383   2.863 -0.2425 -0.4961 -0.2590
 2932TIP3    H130355   4.697   5.387   2.873 -0.2936 -1.4308 -0.2289
 2932TIP3    H230356   4.826   5.433   2.936 -0.7192  0.7856 -0.8905
 2933TIP3   OH230357   1.739   0.448   8.600  0.0426  0.7015 -0.4323
 2933TIP3    H130358   1.826   0.427   8.565  0.0818 -0.3025  0.2170
 2933TIP3    H230359   1.678   0.420   8.532  0.1937  0.4942 -0.4840
 2934TIP3   OH230360   0.687   6.399   0.612 -0.3526  0.3011 -0.1833
 2934TIP3    H130361   0.722   6.325   0.563 -0.7339 -0.6890  0.9855
 2934TIP3    H230362   0.595   6.377   0.626 -0.2762  0.5990  0.8771
 2935TIP3   OH230363   0.362   1.477   2.678  0.0013  0.5812 -0.0424
 2935TIP3    H130364   0.306   1.532   2.733 -0.4915  0.4119 -0.3672
 2935TIP3    H230365   0.450   1.489   2.714 -0.2969  0.5320  0.7322
 2936TIP3   OH230366   5.195   6.502   7.680 -0.6405  0.0136 -0.0375
 2936TIP3    H130367   5.237   6.466   7.758 -1.3846  0.0420  0.3850
 2936TIP3    H230368   5.156   6.585   7.710 -0.0561  0.5346 -0.6858
 2937TIP3   OH230369   2.294   5.901   2.122  0.3783 -0.0795 -0.0711
 2937TIP3    H130370   2.299   5.813   2.084 -1.5299 -0.4309  0.3877
 2937TIP3    H230371   2.306   5.959   2.047  0.4828 -0.7369 -0.5777
 2938TIP3   OH230372   3.522   1.194   1.477 -0.7227  0.8187  0.4221
 2938TIP3    H130373   3.571   1.140   1.414 -0.7384 -0.0073  1.0960
 2938TIP3    H230374   3.430   1.172   1.461 -0.7344  0.7044  0.6339
 2939TIP3   OH230375   0.369   2.304   0.046  0.2607  0.4232  0.6487
 2939TIP3    H130376   0.448   2.259   0.073  0.1827 -0.8854 -1.1015
 2939TIP3    H230377   0.333   2.341   0.126  2.5991  1.0147  1.4872
 2940TIP3   OH230378   1.511   2.241   3.596  0.0552 -0.5532 -0.0444
 2940TIP3    H130379   1.559   2.220   3.676 -1.5778 -1.2207  0.7975
 2940TIP3    H230380   1.553   2.186   3.529  1.5572  0.1466  0.2741
 2941TIP3   OH230381   4.781   3.917   2.771 -0.1423  0.0432 -0.3242
 2941TIP3    H130382   4.687   3.916   2.749 -0.0228  0.8970 -0.9780
 2941TIP3    H230383   4.822   3.865   2.703 -0.1289 -0.2167 -0.1165
 2942TIP3   OH230384   3.167   6.307   0.068 -0.3920  0.0512 -0.2755
 2942TIP3    H130385   3.252   6.297   0.027 -1.2653  1.3169 -2.5997
 2942TIP3    H230386   3.152   6.225   0.115  0.6115 -1.6290 -2.7340
 2943TIP3   OH230387   6.122   4.024   1.767 -0.0279  0.0045 -0.8824
 2943TIP3    H130388   6.190   3.977   1.719  0.7474 -3.0524  2.7794
 2943TIP3    H230389   6.040   3.998   1.724  0.7990  1.0627 -3.2569
 2944TIP3   OH230390   1.208   6.563   2.022  0.2306 -0.1215  0.8701
 2944TIP3    H130391   1.275   6.596   2.082  0.0634 -1.0005  1.5661
 2944TIP3    H230392   1.254   6.503   1.964  0.5151  1.2124 -0.3282
 2945TIP3   OH230393   0.120   2.667   3.163  0.3033 -0.4072 -0.5754
 2945TIP3    H130394   0.135   2.597   3.099 -1.4394 -1.1976 -0.1840
 2945TIP3    H230395   0.026   2.665   3.180  0.6859 -0.2991  2.0655
 2946TIP3   OH230396   6.162   5.442   1.054 -0.2573 -0.0161  0.3623
 2946TIP3    H130397   6.206   5.491   0.984 -1.6469  0.6890 -0.0576
 2946TIP3    H230398   6.232   5.391   1.095  0.7881  0.4126 -0.8139
 2947TIP3   OH230399   0.168   2.244   3.244 -0.5115  0.0565  0.6305
 2947TIP3    H130400   0.187   2.270   3.334 -0.4398  1.1921  0.3120
 2947TIP3    H230401   0.129   2.323   3.205 -1.1667 -0.6356 -0.1403
 2948TIP3   OH230402   4.056   6.752   8.641 -0.1525 -0.0595 -0.1756
 2948TIP3    H130403   4.134   6.784   8.595  0.4199  1.2540  1.5621
 2948TIP3    H230404   4.091   6.696   8.710 -0.5769  1.4390  1.3482
 2949TIP3   OH230405   4.488   1.583   1.297 -0.1309  0.5947  0.7628
 2949TIP3    H130406   4.551   1.602   1.366  0.2817  1.4676  0.1528
 2949TIP3    H230407   4.541   1.568   1.219 -0.6021 -0.2584  0.5835
 2950TIP3   OH230408   3.377   2.818   2.346 -0.2835 -0.1740  0.3528
 2950TIP3    H130409   3.399   2.813   2.439  1.1239 -1.2460  0.0012
 2950TIP3    H230410   3.416   2.740   2.308 -0.8210  0.2540 -1.1567
 2951TIP3   OH230411   1.832   1.519   2.948 -0.3685 -0.6148  0.2967
 2951TIP3    H130412   1.853   1.598   2.898  0.3611 -1.3977 -0.6782
 2951TIP3    H230413   1.880   1.529   3.030  0.1756 -0.3053 -0.0535
 2952TIP3   OH230414   4.584   4.690   8.528 -0.3673 -0.1045 -0.0386
 2952TIP3    H130415   4.495   4.696   8.562 -0.2096  0.5879  0.2714
 2952TIP3    H230416   4.625   4.773   8.553 -0.5180  0.8601 -2.7183
 2953TIP3   OH230417   5.635   0.485   3.401  0.4809  0.3579 -0.0671
 2953TIP3    H130418   5.721   0.445   3.388  0.3225 -0.0285  0.0746
 2953TIP3    H230419   5.573   0.415   3.384  0.1233  1.0373 -1.8281
 2954TIP3   OH230420   5.762   4.064   1.007  0.7128  0.5239 -0.0529
 2954TIP3    H130421   5.678   4.104   1.029 -0.1608 -0.7999 -0.8767
 2954TIP3    H230422   5.770   3.989   1.067  1.9748  1.4044  0.9496
 2955TIP3   OH230423   6.708   5.905   1.136 -0.6458 -0.5670 -0.1327
 2955TIP3    H130424   6.658   5.829   1.163 -0.9158 -0.0420  0.8892
 2955TIP3    H230425   6.747   5.880   1.052  1.1835 -2.6925  1.2434
 2956TIP3   OH230426   2.657   1.539   2.809  0.0105  0.0117 -0.0040
 2956TIP3    H130427   2.674   1.545   2.903 -1.5060 -0.9327  0.3724
 2956TIP3    H230428   2.730   1.488   2.775 -1.6003 -3.7507  1.5035
 2957TIP3   OH230429   3.872   5.613   2.631  0.0813 -0.4950  0.6191
 2957TIP3    H130430   3.841   5.565   2.554  0.9079 -1.1892  0.7119
 2957TIP3    H230431   3.869   5.705   2.605  1.9440 -0.8113 -0.8485
 2958TIP3   OH230432   4.380   5.850   2.504 -0.1618 -0.0026 -0.8932
 2958TIP3    H130433   4.452   5.905   2.533 -0.1347  0.7734 -2.3251
 2958TIP3    H230434   4.324   5.841   2.581  0.1659  1.5122 -0.4465
 2959TIP3   OH230435   0.126   5.013   0.229 -0.0980 -0.0688  0.0563
 2959TIP3    H130436   0.076   5.006   0.147 -0.0858  0.4095  0.0025
 2959TIP3    H230437   0.205   5.061   0.204  0.4834 -0.9858  0.1012
 2960TIP3   OH230438   4.046   4.886   1.977 -0.4471 -0.0882 -0.7518
 2960TIP3    H130439   4.041   4.845   2.063  1.0460 -0.0925 -0.6365
 2960TIP3    H230440   4.054   4.980   1.996 -1.9086  0.1081 -0.9619
 2961TIP3   OH230441   3.812   5.204   3.268 -0.4218 -0.2538  0.3944
 2961TIP3    H130442   3.900   5.219   3.303  1.1481 -2.2758 -2.3456
 2961TIP3    H230443   3.773   5.291   3.264  1.0344  0.6016  2.5508
 2962TIP3   OH230444   2.560   2.875   0.308 -0.2275  0.0156 -0.5116
 2962TIP3    H130445   2.561   2.900   0.216 -3.3312  0.4269 -0.5334
 2962TIP3    H230446   2.603   2.949   0.353  1.1714 -0.1209 -1.5590
 2963TIP3   OH230447   5.242   2.895   0.287  0.8975  0.3887 -0.2389
 2963TIP3    H130448   5.335   2.910   0.306  0.5513 -0.6342  2.9004
 2963TIP3    H230449   5.201   2.891   0.373 -1.9833  0.1250 -1.5205
 2964TIP3   OH230450   3.343   2.524   0.416 -0.1928 -0.4950  0.3060
 2964TIP3    H130451   3.298   2.442   0.395 -0.8422 -0.0431 -0.1213
 2964TIP3    H230452   3.273   2.585   0.438  0.1866  0.2735 -0.5334
 2965TIP3   OH230453   2.388   4.846   2.028 -0.0420  0.4985 -0.3703
 2965TIP3    H130454   2.389   4.756   2.060 -1.0113  0.5461 -0.1682
 2965TIP3    H230455   2.421   4.840   1.938  1.5776  0.2036  0.2213
 2966TIP3   OH230456   1.024   2.111   3.893  0.6443 -0.0261  0.0685
 2966TIP3    H130457   1.117   2.102   3.876  0.7751 -0.3399  0.9170
 2966TIP3    H230458   0.989   2.153   3.814  1.3955 -0.4574 -0.5035
 2967TIP3   OH230459   6.018   3.769   0.673 -0.3147 -0.2637 -0.0813
 2967TIP3    H130460   5.975   3.800   0.593 -0.9281  0.2597  0.4390
 2967TIP3    H230461   5.947   3.759   0.736 -0.1461 -2.7588 -0.1978
 2968TIP3   OH230462   0.238   3.365   1.707  0.5370  0.3426 -0.0682
 2968TIP3    H130463   0.142   3.365   1.705  0.5185  1.2279 -2.0556
 2968TIP3    H230464   0.262   3.273   1.707 -0.3184  0.1098  0.3607
 2969TIP3   OH230465   3.859   3.053   7.402  0.1386  0.1278  0.2311
 2969TIP3    H130466   3.768   3.026   7.403 -0.6396  2.3519 -1.5828
 2969TIP3    H230467   3.877   3.081   7.492 -1.2026  0.2851  0.4725
 2970TIP3   OH230468   4.423   1.935   2.384 -0.4407 -0.5651 -0.0036
 2970TIP3    H130469   4.330   1.919   2.399 -0.8451  0.1184 -1.5847
 2970TIP3    H230470   4.449   1.866   2.322  0.1597 -0.8618  0.5725
 2971TIP3   OH230471   3.356   3.867   2.783  0.0913 -0.1021  0.0733
 2971TIP3    H130472   3.276   3.815   2.780  0.5696 -0.8513  0.1339
 2971TIP3    H230473   3.327   3.954   2.810 -0.4259 -0.9343  2.4608
 2972TIP3   OH230474   1.294   2.412   2.683 -0.2042 -0.5855  0.2779
 2972TIP3    H130475   1.318   2.414   2.775 -1.1016 -0.0234  0.5150
 2972TIP3    H230476   1.228   2.481   2.674 -3.1899 -3.2115  0.1072
 2973TIP3   OH230477   2.388   3.146   7.715 -0.4006  0.5398  0.1688
 2973TIP3    H130478   2.401   3.086   7.789  2.0653 -0.1645 -0.7205
 2973TIP3    H230479   2.315   3.108   7.666  0.2959 -1.1007  0.3066
 2974TIP3   OH230480   4.305   4.398   1.564  0.4564 -0.4743  0.1917
 2974TIP3    H130481   4.258   4.468   1.609 -0.3944 -1.8156  1.4561
 2974TIP3    H230482   4.303   4.324   1.624 -0.2312 -2.1800 -1.8000
 2975TIP3   OH230483   4.518   6.143   3.415  0.4038  0.4316  0.3385
 2975TIP3    H130484   4.595   6.151   3.358  0.8232 -0.5916  0.7332
 2975TIP3    H230485   4.551   6.102   3.495 -0.7044 -0.8981  0.1536
 2976TIP3   OH230486   2.132   5.370   0.579 -0.1033 -0.4233  0.0819
 2976TIP3    H130487   2.224   5.389   0.566  0.1102 -0.0919  1.8113
 2976TIP3    H230488   2.129   5.312   0.655 -1.3898  0.9899  1.1851
 2977TIP3   OH230489   1.728   6.072   8.597 -0.8636  0.3390 -0.1491
 2977TIP3    H130490   1.795   6.037   8.538 -0.0591  0.6554  0.5595
 2977TIP3    H230491   1.680   6.135   8.543  0.9518  1.9038 -0.0582
 2978TIP3   OH230492   6.690   3.903   0.720 -0.5140 -0.2446 -0.4176
 2978TIP3    H130493   6.733   3.819   0.708  2.4691  1.3896 -2.4105
 2978TIP3    H230494   6.605   3.893   0.678  0.1069 -2.0110 -1.3691
 2979TIP3   OH230495   2.229   0.950   2.179 -0.3825 -0.5998  0.4790
 2979TIP3    H130496   2.199   1.019   2.239  2.1770 -0.1790  1.4103
 2979TIP3    H230497   2.243   0.874   2.236  1.0583 -0.5148  0.2701
 2980TIP3   OH230498   4.305   2.673   8.100 -0.2778 -0.3242  0.8453
 2980TIP3    H130499   4.343   2.760   8.089 -1.4157  0.2326  1.1266
 2980TIP3    H230500   4.237   2.668   8.033  1.5867 -2.1160 -1.0752
 2981TIP3   OH230501   5.482   3.446   1.008  0.2448 -0.5533  0.0063
 2981TIP3    H130502   5.577   3.444   1.013  0.4119  1.6466 -1.0464
 2981TIP3    H230503   5.461   3.416   0.920  0.0748  0.2161 -0.2268
 2982TIP3   OH230504   1.035   0.186   3.434  0.5371  0.2297 -0.0712
 2982TIP3    H130505   1.042   0.182   3.529  0.6525 -0.2525 -0.0978
 2982TIP3    H230506   0.977   0.113   3.411  1.5434 -0.4606 -0.4673
 2983TIP3   OH230507   6.261   0.634   0.044 -0.5743  0.1700  0.6882
 2983TIP3    H130508   6.327   0.668   0.105 -0.4028  0.9583  0.0803
 2983TIP3    H230509   6.310   0.574  -0.013  0.1182  2.2671 -1.0652
 2984TIP3   OH230510   0.913   5.708   0.881 -0.0568 -0.4533  0.2490
 2984TIP3    H130511   0.992   5.727   0.932  0.6341 -1.0655 -0.5428
 2984TIP3    H230512   0.899   5.787   0.829  0.9240 -0.8633 -0.6872
 2985TIP3   OH230513   1.107   5.604   0.659 -0.3103 -0.3030  0.5727
 2985TIP3    H130514   1.040   5.577   0.721 -1.0828 -1.2760 -0.6435
 2985TIP3    H230515   1.143   5.522   0.624  0.8466  0.2133  0.4960
 2986TIP3   OH230516   1.628   2.325   0.386 -0.1183 -0.0014  0.3953
 2986TIP3    H130517   1.586   2.271   0.319 -1.6790  0.4401  0.9693
 2986TIP3    H230518   1.644   2.265   0.459 -1.2338  0.1345  0.7744
 2987TIP3   OH230519   4.490   4.273   3.643 -0.2132 -0.4793 -0.1102
 2987TIP3    H130520   4.569   4.219   3.641 -0.5478 -0.9575 -1.0321
 2987TIP3    H230521   4.520   4.361   3.619  0.1853 -0.4346  0.5164
 2988TIP3   OH230522   3.903   2.894   0.760 -0.0729  0.1721  0.1633
 2988TIP3    H130523   3.875   2.977   0.799 -1.6723  0.9038 -2.3283
 2988TIP3    H230524   3.822   2.848   0.741  0.5912 -0.0877 -2.3173
 2989TIP3   OH230525   4.564   3.953   3.142  0.0827  0.3550  0.3332
 2989TIP3    H130526   4.614   3.996   3.073  1.9152 -0.1197  1.3145
 2989TIP3    H230527   4.495   4.016   3.164  0.5450  1.2512 -0.6785
 2990TIP3   OH230528   3.415   0.014   0.798  0.3829  0.0070  0.3744
 2990TIP3    H130529   3.345   0.026   0.734  0.5771 -0.9038 -0.0362
 2990TIP3    H230530   3.376  -0.040   0.866  0.7609 -0.7990 -0.0266
 2991TIP3   OH230531   1.927   3.682   0.538 -0.2622  0.0137 -0.5441
 2991TIP3    H130532   1.900   3.700   0.628 -1.8102  0.0700 -0.9919
 2991TIP3    H230533   1.935   3.587   0.535 -2.5079 -0.2197 -0.9076
 2992TIP3   OH230534   0.086   3.938   1.925  0.0831  0.3203 -0.0097
 2992TIP3    H130535   0.016   3.997   1.951  0.1669  0.5735 -0.3509
 2992TIP3    H230536   0.047   3.850   1.931 -0.0173  0.4001  0.5657
 2993TIP3   OH230537   6.503   2.243   3.894 -0.0384  0.4846  0.4893
 2993TIP3    H130538   6.587   2.285   3.876  1.1359 -2.0425 -0.4015
 2993TIP3    H230539   6.517   2.199   3.978  0.6529 -2.3647 -0.9960
 2994TIP3   OH230540   6.621   0.206   2.012 -0.5483 -0.0036 -0.0671
 2994TIP3    H130541   6.709   0.235   2.035 -1.0463  2.2728 -0.8043
 2994TIP3    H230542   6.635   0.139   1.945  0.6301 -1.2746  1.3406
 2995TIP3   OH230543   6.392   3.559   8.006 -0.2456  0.3498 -0.3540
 2995TIP3    H130544   6.332   3.633   8.008 -0.2613  0.3322  1.1050
 2995TIP3    H230545   6.452   3.574   8.079  0.1379 -0.7478 -0.4153
 2996TIP3   OH230546   4.644   4.887   0.527  0.7022  0.1977  0.1848
 2996TIP3    H130547   4.548   4.884   0.529  0.6758 -0.8021 -0.9810
 2996TIP3    H230548   4.665   4.917   0.438  1.4575 -0.6896  0.0486
 2997TIP3   OH230549   3.211   3.802   0.509  0.1093  0.2126  0.0798
 2997TIP3    H130550   3.234   3.797   0.416  1.5944 -0.7885  0.4640
 2997TIP3    H230551   3.165   3.885   0.518 -2.3112 -0.7847 -1.9935
 2998TIP3   OH230552   1.100   1.315   8.541  0.1924 -0.1917 -0.0749
 2998TIP3    H130553   1.020   1.351   8.501  1.0509  0.8439 -0.9230
 2998TIP3    H230554   1.106   1.226   8.506 -1.3106 -0.8068  1.0972
 2999TIP3   OH230555   3.458   0.953   0.146 -0.5296  0.2604  0.1252
 2999TIP3    H130556   3.534   1.001   0.115 -0.2419 -0.7869 -0.8281
 2999TIP3    H230557   3.383   0.998   0.107 -0.2004 -0.7835 -1.8417
 3000TIP3   OH230558   5.111   0.656   3.184 -0.2873  0.1794  0.3340
 3000TIP3    H130559   5.103   0.751   3.171 -0.6367  0.0133 -0.7813
 3000TIP3    H230560   5.031   0.620   3.147  0.3698 -0.6387 -0.3397
 3001TIP3   OH230561   1.584   2.102   3.200 -0.2325 -0.2925  0.4024
 3001TIP3    H130562   1.574   2.057   3.284 -0.4637 -0.5237  0.2517
 3001TIP3    H230563   1.591   2.031   3.135 -0.1832 -0.1142  0.2114
 3002TIP3   OH230564   5.900   2.046   1.309 -0.3709  0.1571 -0.0398
 3002TIP3    H130565   5.978   2.010   1.265 -0.0975  0.0318  0.5402
 3002TIP3    H230566   5.858   2.099   1.242 -0.4368 -0.7344 -0.7332
 3003TIP3   OH230567   4.424   6.497   0.665  1.1797 -0.0325 -0.5521
 3003TIP3    H130568   4.389   6.448   0.739 -1.3460  0.2178 -1.4851
 3003TIP3    H230569   4.420   6.436   0.591  2.2680  0.1921 -0.8208
 3004TIP3   OH230570   3.858   1.438   8.301 -0.3298  0.5344 -0.1093
 3004TIP3    H130571   3.823   1.407   8.385  1.2452 -1.0621  0.0152
 3004TIP3    H230572   3.786   1.424   8.239 -0.8548 -0.1154  0.6187
 3005TIP3   OH230573   0.016   0.863   1.451  0.0597  0.5974  0.3168
 3005TIP3    H130574  -0.074   0.893   1.456  0.0547  0.4483  2.7002
 3005TIP3    H230575   0.014   0.789   1.392 -1.2264  1.0637 -0.2559
 3006TIP3   OH230576   6.405   3.791   7.735  0.2396  0.0162 -0.2748
 3006TIP3    H130577   6.452   3.815   7.816  0.9414  0.3887 -0.7838
 3006TIP3    H230578   6.475   3.776   7.671 -0.3467  1.4258 -1.2827
 3007TIP3   OH230579   4.331   2.548   3.497 -0.1867 -0.5728 -0.6511
 3007TIP3    H130580   4.367   2.627   3.458  0.2798  0.2876  1.3605
 3007TIP3    H230581   4.262   2.520   3.437  1.4132 -0.2021 -2.7610
 3008TIP3   OH230582   2.094   3.797   2.662 -0.5667 -0.4123  0.4019
 3008TIP3    H130583   2.139   3.860   2.718 -1.7415  0.2709  0.6091
 3008TIP3    H230584   2.077   3.846   2.581 -0.3236 -0.8848  0.0609
 3009TIP3   OH230585   4.640   2.566   1.527 -0.3622 -0.3268  0.6677
 3009TIP3    H130586   4.640   2.486   1.578 -0.8216 -0.5816  0.2702
 3009TIP3    H230587   4.605   2.541   1.442 -2.4729  0.6760  1.1573
 3010TIP3   OH230588   0.118   1.499   3.006 -0.0086  0.0030  0.5839
 3010TIP3    H130589   0.157   1.431   3.061  1.9190  0.4462 -0.1313
 3010TIP3    H230590   0.184   1.568   3.004 -0.9905  0.9532 -0.4805
 3011TIP3   OH230591   1.284   6.081   0.301 -0.0590  0.4161  0.0052
 3011TIP3    H130592   1.317   6.143   0.236  1.1325  0.1772  0.3576
 3011TIP3    H230593   1.318   6.114   0.385 -0.3743 -0.0717  0.3312
 3012TIP3   OH230594   4.788   2.629   0.494  0.0616  0.1990  0.2592
 3012TIP3    H130595   4.825   2.716   0.512  1.1000 -0.7271  3.1678
 3012TIP3    H230596   4.708   2.626   0.545  0.7762 -0.9964  1.3714
 3013TIP3   OH230597   5.783   5.436   2.294 -0.3382  0.1090 -0.0018
 3013TIP3    H130598   5.743   5.470   2.214  0.3878 -0.8156 -0.7771
 3013TIP3    H230599   5.761   5.343   2.295 -0.4129  0.1225  0.9296
 3014TIP3   OH230600   2.706   6.344   0.355  0.3821 -0.5003  0.5211
 3014TIP3    H130601   2.620   6.302   0.344  0.7557 -1.1200 -0.1179
 3014TIP3    H230602   2.752   6.324   0.273  1.1355 -0.1718  0.8661
 3015TIP3   OH230603   4.314   2.575   8.439  0.2630  0.1396  0.0954
 3015TIP3    H130604   4.339   2.582   8.347 -0.9780 -0.9180 -0.3546
 3015TIP3    H230605   4.233   2.627   8.446  0.4966  0.4329  0.6469
 3016TIP3   OH230606   0.869   2.662   3.227 -0.1075  0.1620 -0.2970
 3016TIP3    H130607   0.933   2.727   3.198  1.1320 -0.9670 -0.2263
 3016TIP3    H230608   0.890   2.583   3.176 -1.3338 -0.2956 -0.1359
 3017TIP3   OH230609   3.541   3.373   0.724 -0.4296  0.1371  0.2158
 3017TIP3    H130610   3.568   3.331   0.642 -0.3788 -1.0509  0.8073
 3017TIP3    H230611   3.446   3.359   0.728 -0.3963 -0.0438  0.4663
 3018TIP3   OH230612   2.482   4.329   0.730  0.2562  0.3647 -0.2605
 3018TIP3    H130613   2.474   4.418   0.767 -0.1976  0.4484 -0.5550
 3018TIP3    H230614   2.394   4.308   0.700  0.2787 -0.3491  0.1629
 3019TIP3   OH230615   1.827   5.874   8.393 -0.1581 -0.1089  0.6038
 3019TIP3    H130616   1.741   5.875   8.350  0.5049 -1.2488 -0.8612
 3019TIP3    H230617   1.889   5.863   8.320  1.3365  1.8538  1.4931
 3020TIP3   OH230618   2.623   3.533   8.476 -0.2235  0.3989 -0.0613
 3020TIP3    H130619   2.555   3.565   8.535 -0.2525 -1.2070  0.8601
 3020TIP3    H230620   2.603   3.440   8.465  0.4390  0.4142 -1.7290
 3021TIP3   OH230621   3.060   3.589   3.091  0.9363  0.1137  0.0892
 3021TIP3    H130622   3.126   3.573   3.024 -0.0335 -0.6082 -0.7211
 3021TIP3    H230623   3.036   3.502   3.123 -1.3160  0.1259 -1.3257
 3022TIP3   OH230624   1.647   5.723   1.268 -0.4737 -0.4309 -0.1996
 3022TIP3    H130625   1.719   5.661   1.254 -1.7955 -1.6648 -2.1359
 3022TIP3    H230626   1.580   5.695   1.205 -2.7123  0.5692  1.6297
 3023TIP3   OH230627   4.136   3.266   1.623  0.5033  0.5183 -0.5483
 3023TIP3    H130628   4.082   3.214   1.564  0.9983 -1.3844  0.6188
 3023TIP3    H230629   4.080   3.284   1.698  0.7856  0.4358 -0.3158
 3024TIP3   OH230630   4.257   1.320   8.603  0.5649  0.2987  0.7287
 3024TIP3    H130631   4.282   1.237   8.564 -0.0092  0.6338 -0.3882
 3024TIP3    H230632   4.231   1.298   8.693 -1.4970 -1.0600 -0.1395
 3025TIP3   OH230633   2.331   3.423   8.226  0.0975  0.1613  0.0558
 3025TIP3    H130634   2.321   3.336   8.187 -0.1560  0.8806 -1.5824
 3025TIP3    H230635   2.381   3.473   8.161  2.5636  0.5625  2.0592
 3026TIP3   OH230636   5.459   5.749   0.840 -0.1456 -0.3377  0.1297
 3026TIP3    H130637   5.502   5.684   0.784 -1.5085 -0.5539 -0.7366
 3026TIP3    H230638   5.414   5.697   0.906  0.2947 -0.1609  0.5700
 3027TIP3   OH230639   3.700   0.670   0.291 -1.3967  0.5008 -0.1384
 3027TIP3    H130640   3.741   0.756   0.292 -0.0881 -0.0504 -1.5840
 3027TIP3    H230641   3.712   0.638   0.202 -1.5148 -1.3353  0.4437
 3028TIP3   OH230642   1.154   5.118   1.422 -0.3412 -0.1150  0.0061
 3028TIP3    H130643   1.149   5.097   1.329 -0.9767 -0.6256  0.1434
 3028TIP3    H230644   1.168   5.033   1.465 -0.5594  0.0506  0.4109
 3029TIP3   OH230645   5.690   2.011   7.776  0.1165  0.0629  0.2689
 3029TIP3    H130646   5.684   2.097   7.817  1.5373 -0.1258  0.9499
 3029TIP3    H230647   5.783   1.988   7.783 -0.3613 -1.8729  0.8111
 3030TIP3   OH230648   4.042   6.558   2.391 -0.5587 -0.2314  0.5486
 3030TIP3    H130649   4.076   6.622   2.454 -1.6581 -0.3525  1.2882
 3030TIP3    H230650   3.997   6.493   2.445 -0.7403 -0.8304 -0.3055
 3031TIP3   OH230651   5.290   3.102   8.581  0.3025 -0.0257  0.2532
 3031TIP3    H130652   5.263   3.018   8.545  1.1983 -0.0974 -0.2818
 3031TIP3    H230653   5.232   3.166   8.539 -0.1696 -0.3338  0.4259
 3032TIP3   OH230654   3.457   1.311   0.930  0.1341  0.2920 -0.2697
 3032TIP3    H130655   3.510   1.379   0.889 -1.5446  0.9706 -1.4230
 3032TIP3    H230656   3.509   1.231   0.921  1.3916  1.0951 -0.4127
 3033TIP3   OH230657   4.926   4.992   1.570 -0.2754 -0.2019  0.2964
 3033TIP3    H130658   4.929   5.026   1.481  0.8513 -2.0715 -0.4574
 3033TIP3    H230659   4.859   4.923   1.567 -1.0889  0.5145  1.2396
 3034TIP3   OH230660   3.505   6.336   0.218  0.2119 -0.0751 -0.1737
 3034TIP3    H130661   3.459   6.325   0.301 -1.8026 -0.3297 -1.2454
 3034TIP3    H230662   3.574   6.399   0.236 -1.9358  2.0744  1.0777
 3035TIP3   OH230663   6.759   3.419   1.155  0.5768  0.2010 -0.0629
 3035TIP3    H130664   6.787   3.470   1.080 -3.0472  2.2693 -0.2538
 3035TIP3    H230665   6.831   3.359   1.172  3.1873  2.3152 -2.6881
 3036TIP3   OH230666   2.115   2.085   1.565  0.4394 -0.4682  0.2131
 3036TIP3    H130667   2.073   2.159   1.520 -0.9956 -0.1752  1.8955
 3036TIP3    H230668   2.071   2.008   1.530  1.8838 -0.5631 -1.4904
 3037TIP3   OH230669   1.857   3.311   2.686 -0.1493 -0.6044 -0.1751
 3037TIP3    H130670   1.914   3.387   2.696 -0.4258 -0.2031 -1.5337
 3037TIP3    H230671   1.861   3.267   2.771  0.7514  0.4067  0.3248
 3038TIP3   OH230672   1.937   5.763   8.140 -0.6425  0.3241  0.1373
 3038TIP3    H130673   1.910   5.699   8.205  0.1373 -0.7741 -0.5844
 3038TIP3    H230674   2.029   5.743   8.123 -0.2378  1.9315  0.2114
 3039TIP3   OH230675   1.470   0.816   0.302  0.0866 -0.3285  0.1536
 3039TIP3    H130676   1.506   0.841   0.388  1.0373  2.3100 -0.8983
 3039TIP3    H230677   1.377   0.799   0.319  0.5368 -1.3131  1.9191
 3040TIP3   OH230678   2.793   6.460   0.601 -0.1347  0.7945 -0.2534
 3040TIP3    H130679   2.829   6.400   0.667  0.8724  0.0453 -1.4474
 3040TIP3    H230680   2.772   6.404   0.526 -2.0528  1.5070 -0.3089
 3041TIP3   OH230681   4.117   6.488   7.618 -0.5546  0.5315 -0.2800
 3041TIP3    H130682   4.042   6.524   7.570 -0.8201  0.6247  0.1954
 3041TIP3    H230683   4.087   6.483   7.709  0.0911  0.7717 -0.0489
 3042TIP3   OH230684   5.569   3.503   0.145 -0.7780  0.2249 -0.0090
 3042TIP3    H130685   5.585   3.590   0.110 -0.1353  0.2529  0.3397
 3042TIP3    H230686   5.643   3.451   0.115 -1.4919 -0.3787 -0.7763
 3043TIP3   OH230687   2.966   4.441   1.585 -1.0895 -0.4020  0.3809
 3043TIP3    H130688   2.987   4.370   1.646 -1.6391 -0.3111  0.6754
 3043TIP3    H230689   2.978   4.521   1.636  0.0724 -0.2439 -0.1051
 3044TIP3   OH230690   3.002   3.046   2.727 -0.0584 -0.2595  0.0135
 3044TIP3    H130691   2.960   2.981   2.784  0.1156  1.2697  1.9769
 3044TIP3    H230692   3.040   2.994   2.656 -1.1103 -2.1508  0.7547
 3045TIP3   OH230693   1.223   1.828   2.475  0.0581 -0.3981 -0.4788
 3045TIP3    H130694   1.189   1.857   2.560  0.3575  0.2944 -0.5903
 3045TIP3    H230695   1.146   1.822   2.419  0.2615  3.3575 -1.3915
 3046TIP3   OH230696   1.864   0.078   8.614 -0.3890  0.2764 -0.1636
 3046TIP3    H130697   1.796   0.140   8.640 -1.7628 -1.6857  1.1970
 3046TIP3    H230698   1.816   0.006   8.572  0.8446 -0.9908  0.5034
 3047TIP3   OH230699   0.939   4.305   2.076 -0.5304 -0.0015  0.1224
 3047TIP3    H130700   0.939   4.229   2.135 -0.4591 -0.2843 -0.2384
 3047TIP3    H230701   1.002   4.282   2.008 -0.7429  0.2525 -0.1591
 3048TIP3   OH230702   6.041   0.918   1.270 -0.0214  0.0141  0.7940
 3048TIP3    H130703   6.058   0.899   1.363  1.3230  0.8582  0.7522
 3048TIP3    H230704   5.995   1.002   1.271  0.5365  0.3241  0.6771
 3049TIP3   OH230705   6.312   3.120   1.660 -0.2446 -0.0666 -0.3529
 3049TIP3    H130706   6.366   3.049   1.695  2.6874  2.2748  0.2425
 3049TIP3    H230707   6.295   3.177   1.735  0.5848  1.6774 -1.4187
 3050TIP3   OH230708   4.939   4.522   8.174  0.5523 -0.2701  0.0586
 3050TIP3    H130709   5.029   4.499   8.197  0.6386 -1.9643 -1.7816
 3050TIP3    H230710   4.906   4.446   8.126 -1.6237  0.6317  0.0156
 3051TIP3   OH230711   0.264   4.433   0.126  0.1118 -0.0840 -0.1530
 3051TIP3    H130712   0.273   4.344   0.093  0.0608  0.2300 -1.0517
 3051TIP3    H230713   0.254   4.423   0.220 -1.3283 -1.1216 -0.3868
 3052TIP3   OH230714   1.880   2.550   2.396 -0.1479 -0.0897  0.4774
 3052TIP3    H130715   1.971   2.575   2.379 -0.0242  0.0704  1.3231
 3052TIP3    H230716   1.855   2.604   2.471 -1.2235  0.5137 -0.2886
 3053TIP3   OH230717   0.879   3.317   8.443 -0.3842 -0.4547 -0.0227
 3053TIP3    H130718   0.941   3.247   8.462 -0.5868 -0.4415  0.6902
 3053TIP3    H230719   0.793   3.280   8.463 -0.4889  0.0024  0.3952
 3054TIP3   OH230720   1.959   4.078   0.541  0.6548 -0.1367  0.3530
 3054TIP3    H130721   1.884   4.020   0.556  0.1530  0.9388  2.4443
 3054TIP3    H230722   1.946   4.150   0.602  3.3513  0.1593  0.7204
 3055TIP3   OH230723   3.218   2.235   3.299 -0.0511 -0.0722  0.5580
 3055TIP3    H130724   3.241   2.248   3.391 -1.4448 -0.5477  1.0099
 3055TIP3    H230725   3.172   2.314   3.274 -1.0084 -0.5605  0.7396
 3056TIP3   OH230726   6.638   1.981   0.396 -0.4599 -0.0994  0.0333
 3056TIP3    H130727   6.701   2.052   0.396  1.1485 -1.4243 -1.8254
 3056TIP3    H230728   6.637   1.949   0.487  2.0471 -0.4324 -0.0022
 3057TIP3   OH230729   2.124   5.009   0.012  0.2911  0.2454  0.2467
 3057TIP3    H130730   2.063   4.961  -0.044  0.3766  0.2643  0.1374
 3057TIP3    H230731   2.073   5.083   0.045  0.3140  0.3663  0.0051
 3058TIP3   OH230732   6.052   3.710   1.863  0.0139 -0.2831  0.2143
 3058TIP3    H130733   6.007   3.764   1.798 -1.4164 -0.6664  0.8398
 3058TIP3    H230734   6.025   3.747   1.947 -0.2283 -1.3703  0.6306
 3059TIP3   OH230735   4.017   3.407   2.803  0.2971  0.1741 -0.7803
 3059TIP3    H130736   4.060   3.322   2.803  1.7535  0.8799 -0.5806
 3059TIP3    H230737   3.926   3.388   2.827  1.4287 -0.9506  3.5569
 3060TIP3   OH230738   5.741   6.660   0.326 -0.2221  0.5162  0.0734
 3060TIP3    H130739   5.648   6.661   0.307 -0.1249  0.7630 -0.3971
 3060TIP3    H230740   5.774   6.743   0.292  0.1342  0.5151  0.4085
 3061TIP3   OH230741   4.037   6.806   3.199 -0.6491  0.2537 -0.0838
 3061TIP3    H130742   4.018   6.781   3.289 -0.4010 -0.0500 -0.1113
 3061TIP3    H230743   4.124   6.769   3.181 -0.3914  0.9058 -0.2248
 3062TIP3   OH230744   3.935   2.788   7.371  0.5820  0.3726  0.0811
 3062TIP3    H130745   3.994   2.775   7.445 -1.1048 -0.1765  1.3744
 3062TIP3    H230746   3.895   2.874   7.388 -1.0336 -0.4786  0.7230
 3063TIP3   OH230747   5.241   0.046   1.839 -0.7536  0.6112 -0.3789
 3063TIP3    H130748   5.225   0.038   1.745 -0.0627 -1.2151 -0.3754
 3063TIP3    H230749   5.154   0.037   1.878 -0.7825 -1.1288 -0.7493
 3064TIP3   OH230750   3.157   4.030   1.859 -0.3854  0.0714 -0.6229
 3064TIP3    H130751   3.088   3.975   1.897  1.3759 -1.7176  0.1646
 3064TIP3    H230752   3.221   4.039   1.929  0.6344  0.8966 -1.6331
 3065TIP3   OH230753   2.865   3.729   0.383  0.2955  0.0256  0.0171
 3065TIP3    H130754   2.937   3.784   0.414  1.4633 -1.1641 -0.5061
 3065TIP3    H230755   2.816   3.785   0.323  0.1557  1.1706  1.1420
 3066TIP3   OH230756   6.375   4.672   8.202  0.1944 -0.3109  0.1283
 3066TIP3    H130757   6.380   4.579   8.226 -1.2859 -0.4007  0.1508
 3066TIP3    H230758   6.427   4.677   8.121  0.5521 -1.0970  0.2929
 3067TIP3   OH230759   4.411   3.620   2.772  0.2388  0.2492 -0.3396
 3067TIP3    H130760   4.444   3.560   2.838 -0.7336  1.1020  0.9689
 3067TIP3    H230761   4.318   3.598   2.764  0.2623  0.4094 -1.1523
 3068TIP3   OH230762   0.245   3.386   8.427  0.4992  0.5916  0.2188
 3068TIP3    H130763   0.265   3.303   8.470  3.1143 -0.1175 -2.1203
 3068TIP3    H230764   0.165   3.368   8.378  0.2050 -0.0500  0.8992
 3069TIP3   OH230765   2.194   3.156   0.886  0.3181  0.8410  0.0619
 3069TIP3    H130766   2.200   3.251   0.875 -3.2114  0.8881 -4.8470
 3069TIP3    H230767   2.257   3.120   0.824 -2.5961  0.3867 -2.9472
 3070TIP3   OH230768   1.021   5.389   2.784  0.2507  0.1288  0.1403
 3070TIP3    H130769   1.114   5.410   2.778 -0.5348  4.0938 -1.8071
 3070TIP3    H230770   0.980   5.470   2.815 -2.7338 -0.6937 -1.2856
 3071TIP3   OH230771   1.688   3.108   0.917  0.1110  0.4323 -0.0907
 3071TIP3    H130772   1.594   3.100   0.936  0.1334  1.6531  0.6582
 3071TIP3    H230773   1.692   3.127   0.824 -0.2315 -1.7642 -0.6233
 3072TIP3   OH230774   5.608   2.264   0.870  0.0404  0.2819 -0.2296
 3072TIP3    H130775   5.613   2.263   0.965  1.8043 -2.1996 -0.2430
 3072TIP3    H230776   5.567   2.347   0.849 -0.0272  1.0885  2.6701
 3073TIP3   OH230777   6.853   4.427   0.860  0.1444  0.2882  0.4474
 3073TIP3    H130778   6.909   4.352   0.841 -0.6522 -0.0333 -0.7049
 3073TIP3    H230779   6.772   4.390   0.894 -0.4362  0.5863 -0.5842
 3074TIP3   OH230780   0.993   0.100   8.468  0.2292 -0.2804 -0.4691
 3074TIP3    H130781   0.966   0.033   8.406  2.0795 -1.3602 -0.1674
 3074TIP3    H230782   1.066   0.145   8.426  2.3996 -1.8941  1.3159
 3075TIP3   OH230783   4.268   5.553   0.471  0.6137  0.6588  0.0810
 3075TIP3    H130784   4.266   5.482   0.407  1.4946 -1.0348  1.8540
 3075TIP3    H230785   4.239   5.514   0.553 -0.7721  2.8451  0.7437
 3076TIP3   OH230786   4.894   4.945   1.060 -0.0372 -0.6274 -0.1021
 3076TIP3    H130787   4.977   4.898   1.050  0.8620  0.5347  1.4679
 3076TIP3    H230788   4.829   4.876   1.070  0.2376 -1.6717 -3.9298
 3077TIP3   OH230789   0.098   4.972   2.501  0.0290  0.1637 -0.6252
 3077TIP3    H130790   0.065   5.059   2.519 -3.1678 -1.3544  1.8792
 3077TIP3    H230791   0.161   4.954   2.570  2.6249  1.2522 -2.5664
 3078TIP3   OH230792   4.572   0.273   1.912  0.6886  0.2451  0.2750
 3078TIP3    H130793   4.631   0.324   1.968  0.6133 -0.4066  0.9722
 3078TIP3    H230794   4.601   0.182   1.924 -1.0351 -0.2131  1.3955
 3079TIP3   OH230795   4.119   0.164   1.977  0.0532  0.6611  0.3396
 3079TIP3    H130796   4.103   0.083   1.928  2.4751 -0.1832  0.7911
 3079TIP3    H230797   4.042   0.175   2.032 -1.4007  0.0027 -1.4401
 3080TIP3   OH230798   2.238   4.559   1.035 -0.0743  0.4239  0.0016
 3080TIP3    H130799   2.305   4.521   1.091  0.2367 -1.0408 -1.3087
 3080TIP3    H230800   2.171   4.492   1.029  0.0365  0.4375 -1.6088
 3081TIP3   OH230801   3.301   1.668   2.608 -0.3932 -0.0937 -0.8769
 3081TIP3    H130802   3.381   1.708   2.643  0.3336 -1.6599 -0.6503
 3081TIP3    H230803   3.243   1.741   2.591  1.1412  1.1143 -1.1465
 3082TIP3   OH230804   1.776   1.776   1.266 -0.5078 -0.3220  0.1336
 3082TIP3    H130805   1.816   1.767   1.353 -0.4052  1.3304  0.2827
 3082TIP3    H230806   1.718   1.700   1.259  0.4311 -1.1669  1.1164
 3083TIP3   OH230807   0.232   0.758   3.780 -0.8539 -0.9404 -0.0187
 3083TIP3    H130808   0.146   0.789   3.808 -1.3454 -2.0259 -0.2822
 3083TIP3    H230809   0.258   0.694   3.847 -1.3820 -2.4597 -1.2039
 3084TIP3   OH230810   1.978   1.804   1.042  0.3607  0.1950  0.1570
 3084TIP3    H130811   2.043   1.857   1.088  0.9770  0.1025 -0.5943
 3084TIP3    H230812   1.903   1.800   1.102  1.0828  0.2168  1.0771
 3085TIP3   OH230813   3.665   2.307   0.527 -0.1856 -0.0750 -0.1189
 3085TIP3    H130814   3.626   2.343   0.447  1.3458  1.0605 -0.3945
 3085TIP3    H230815   3.695   2.220   0.501  0.8898  0.5332 -0.9943
 3086TIP3   OH230816   0.334   1.677   8.038  0.1396 -0.3445  0.0962
 3086TIP3    H130817   0.356   1.765   8.008 -0.4027 -0.0079  0.6624
 3086TIP3    H230818   0.339   1.682   8.134 -0.8342 -0.6683  0.1716
 3087TIP3   OH230819   3.835   1.074   2.605  0.4120 -0.1793 -0.1649
 3087TIP3    H130820   3.799   1.129   2.675 -0.3432 -0.2389 -0.4921
 3087TIP3    H230821   3.868   1.136   2.541  2.7826 -0.1048  1.0331
 3088TIP3   OH230822   0.710   1.767   3.676  0.4966  0.3754  0.4592
 3088TIP3    H130823   0.742   1.857   3.679 -0.9341  0.8832  1.5151
 3088TIP3    H230824   0.739   1.727   3.758 -1.1255  0.7154  1.2315
 3089TIP3   OH230825   6.361   5.581   1.902 -0.2367  0.0847  0.2736
 3089TIP3    H130826   6.329   5.599   1.814  0.1231  0.0097  0.1271
 3089TIP3    H230827   6.418   5.656   1.923 -1.2922  0.7329  0.9293
 3090TIP3   OH230828   6.035   6.787   2.922 -0.0464 -0.2241  0.0508
 3090TIP3    H130829   5.971   6.802   2.853  0.8228  0.5726 -0.6038
 3090TIP3    H230830   6.043   6.691   2.927 -0.0786 -0.2969 -1.0053
 3091TIP3   OH230831   4.005   4.322   0.218  0.0996  0.5131  0.4901
 3091TIP3    H130832   4.064   4.272   0.275 -0.1033  0.8236  0.9801
 3091TIP3    H230833   3.924   4.328   0.268 -0.9677 -1.3896 -0.8552
 3092TIP3   OH230834   4.799   5.218   0.535  0.4148  0.3880  0.3345
 3092TIP3    H130835   4.813   5.305   0.572 -1.9099  1.0802 -0.2427
 3092TIP3    H230836   4.759   5.167   0.605  0.7932  0.1036  0.3464
 3093TIP3   OH230837   2.737   1.278   1.307  0.3330  0.2984  0.1657
 3093TIP3    H130838   2.703   1.234   1.385  1.6871  0.3064  0.8005
 3093TIP3    H230839   2.789   1.351   1.342  0.1711  0.8825 -0.7813
 3094TIP3   OH230840   6.203   0.463   0.362  0.1127  1.0947 -0.0163
 3094TIP3    H130841   6.260   0.448   0.438 -1.1213 -1.0451  0.5744
 3094TIP3    H230842   6.247   0.418   0.290 -1.5935 -2.3240  0.8633
 3095TIP3   OH230843   3.257   1.133   0.092 -0.2183 -0.2316 -0.3475
 3095TIP3    H130844   3.308   1.194   0.145 -0.2301 -0.0498 -0.5427
 3095TIP3    H230845   3.174   1.179   0.077 -0.3904 -0.4742 -0.1341
 3096TIP3   OH230846   3.424   1.332   1.200  0.0911 -0.1568 -0.1807
 3096TIP3    H130847   3.511   1.314   1.237 -0.5791 -2.9607  0.2839
 3096TIP3    H230848   3.423   1.284   1.117 -0.4140  1.3707 -1.0792
 3097TIP3   OH230849   1.882   1.806   0.495  0.3386 -0.0428 -0.0649
 3097TIP3    H130850   1.926   1.830   0.577 -0.1381 -0.9420  0.4727
 3097TIP3    H230851   1.868   1.889   0.450  0.8419  0.4405  0.6445
 3098TIP3   OH230852   4.803   3.997   0.588 -0.5372  0.1431  0.3549
 3098TIP3    H130853   4.783   3.912   0.548  1.5259 -0.2334  0.0335
 3098TIP3    H230854   4.743   4.004   0.662 -0.9980 -1.4104  0.1508
 3099TIP3   OH230855   4.046   4.931   1.079 -0.5221 -0.4924 -0.6380
 3099TIP3    H130856   4.036   4.993   1.151 -1.6293 -1.5603  0.1857
 3099TIP3    H230857   4.001   4.972   1.005 -1.2747 -0.3174 -0.0918
 3100TIP3   OH230858   6.747   6.850   0.990 -0.7061 -0.0925 -0.5592
 3100TIP3    H130859   6.773   6.821   1.077  2.0427 -2.0297 -1.8701
 3100TIP3    H230860   6.653   6.834   0.987 -0.4488 -2.5869  1.1827
 3101TIP3   OH230861   2.232   0.623   3.629 -0.1142  0.3314 -0.0363
 3101TIP3    H130862   2.315   0.668   3.616  0.4210 -0.6455 -0.1435
 3101TIP3    H230863   2.165   0.687   3.604  0.5194  1.6549  1.4513
 3102TIP3   OH230864   5.543   2.119   8.194  0.2175  0.0170  0.3077
 3102TIP3    H130865   5.609   2.178   8.231 -0.2968  1.1668 -0.5514
 3102TIP3    H230866   5.572   2.032   8.219  1.5179  0.5698  0.8024
 3103TIP3   OH230867   6.764   6.573   0.626  0.0419 -0.1985  0.1444
 3103TIP3    H130868   6.779   6.628   0.549  2.9847  0.4208  1.0300
 3103TIP3    H230869   6.696   6.618   0.675  0.6288  1.3357 -0.3861
 3104TIP3   OH230870   5.943   4.743   1.042  0.1035 -0.5923 -0.0359
 3104TIP3    H130871   5.940   4.720   0.950 -0.9947 -0.2098 -0.1127
 3104TIP3    H230872   5.856   4.720   1.076 -1.5621  4.0230 -0.3409
 3105TIP3   OH230873   6.171   2.394   1.458  0.2198  0.0645 -0.6297
 3105TIP3    H130874   6.154   2.470   1.513  0.9138  0.4532 -0.9319
 3105TIP3    H230875   6.092   2.386   1.403  0.0073  0.3647 -0.3703
 3106TIP3   OH230876   5.007   4.481   1.543 -0.4584  0.3219  0.0918
 3106TIP3    H130877   4.968   4.464   1.457 -1.2374  1.8643  0.1194
 3106TIP3    H230878   4.993   4.574   1.558 -0.8998 -0.0313  2.1791
 3107TIP3   OH230879   0.308   5.104   0.531 -0.2063  0.0285 -0.4323
 3107TIP3    H130880   0.227   5.057   0.510 -0.1562 -0.9344  1.3130
 3107TIP3    H230881   0.378   5.048   0.497 -0.2389  0.1469 -0.6895
 3108TIP3   OH230882   2.679   4.153   0.404  0.0643 -0.0897 -0.5379
 3108TIP3    H130883   2.603   4.193   0.448  0.8798  0.3057  0.5574
 3108TIP3    H230884   2.715   4.224   0.350  1.6226  0.8184  1.5493
 3109TIP3   OH230885   4.787   5.765   2.707 -0.4445  0.3018 -0.0843
 3109TIP3    H130886   4.744   5.747   2.791  2.0436  0.4633  1.3221
 3109TIP3    H230887   4.728   5.826   2.663 -1.9913 -0.0482  1.3804
 3110TIP3   OH230888   6.223   5.287   2.358  1.0019 -0.8388 -0.0840
 3110TIP3    H130889   6.171   5.216   2.321 -1.5806  0.7857  0.1756
 3110TIP3    H230890   6.259   5.333   2.283 -1.4481  0.4442 -0.5817
 3111TIP3   OH230891   0.120   1.196   8.322 -0.4611  0.0129  0.2749
 3111TIP3    H130892   0.032   1.229   8.340 -0.9709 -1.3719  0.4700
 3111TIP3    H230893   0.113   1.102   8.336  1.0724 -0.1158  0.3211
 3112TIP3   OH230894   4.956   0.606   2.153 -0.0253 -0.0316  0.3105
 3112TIP3    H130895   4.959   0.564   2.067  1.4437  0.9237 -0.1459
 3112TIP3    H230896   5.042   0.586   2.192 -0.5752 -0.2344  1.4497
 3113TIP3   OH230897   2.716   2.632   1.131  0.0095 -0.2211  0.3780
 3113TIP3    H130898   2.783   2.594   1.189  0.2376 -0.8948 -0.3066
 3113TIP3    H230899   2.633   2.603   1.169  0.1865 -3.3415 -1.3016
 3114TIP3   OH230900   2.007   4.377   8.381 -0.3944 -0.1794  0.5812
 3114TIP3    H130901   1.979   4.362   8.471  2.3718 -0.6038  1.4626
 3114TIP3    H230902   2.021   4.472   8.376  1.1842 -0.3603  1.1962
 3115TIP3   OH230903   2.174   2.688   0.411 -0.1615 -0.7042 -0.4562
 3115TIP3    H130904   2.100   2.648   0.457  0.0511  0.5463  1.0328
 3115TIP3    H230905   2.135   2.759   0.361 -0.2347 -1.3956 -1.4252
 3116TIP3   OH230906   1.321   3.486   1.989 -0.2592 -0.4927 -0.0707
 3116TIP3    H130907   1.342   3.501   2.081 -0.6729  1.1096 -0.2147
 3116TIP3    H230908   1.233   3.522   1.979  0.5544  1.1721 -1.5362
 3117TIP3   OH230909   2.690   2.338   0.241  0.0742 -0.1003  0.6743
 3117TIP3    H130910   2.704   2.387   0.160 -0.4713 -0.5762  0.2893
 3117TIP3    H230911   2.672   2.405   0.306 -1.5916  0.1897 -0.0352
 3118TIP3   OH230912   6.798   4.234   2.688 -0.4981  0.4896 -0.4251
 3118TIP3    H130913   6.834   4.321   2.671  0.2306  0.0604 -1.1305
 3118TIP3    H230914   6.874   4.177   2.694 -0.9723 -0.1122  0.0275
 3119TIP3   OH230915   4.113   1.270   3.426  0.5055  0.2967  0.0795
 3119TIP3    H130916   4.144   1.206   3.490 -0.1687  1.3904  1.5566
 3119TIP3    H230917   4.072   1.217   3.357  0.7265 -0.8867  0.8273
 3120TIP3   OH230918   5.821   0.348   8.410  0.0218 -0.3930  0.7058
 3120TIP3    H130919   5.842   0.441   8.403  2.1429 -0.7255  1.9184
 3120TIP3    H230920   5.748   0.335   8.348  0.8666  1.6852 -0.8451
 3121TIP3   OH230921   4.844   0.156   2.089 -0.5741  0.3550 -0.2485
 3121TIP3    H130922   4.886   0.206   2.159 -0.6977  1.6508 -1.0707
 3121TIP3    H230923   4.762   0.124   2.128  0.5471 -1.1730  0.9851
 3122TIP3   OH230924   3.719   0.822   2.583  0.1960 -0.8138 -0.2061
 3122TIP3    H130925   3.790   0.758   2.589 -0.6835 -1.8136 -0.2455
 3122TIP3    H230926   3.763   0.907   2.588  1.3222 -1.4177  0.6334
 3123TIP3   OH230927   5.514   0.772   0.407  0.3352 -0.6422  0.3544
 3123TIP3    H130928   5.505   0.775   0.503 -1.1245 -1.2684  0.2652
 3123TIP3    H230929   5.490   0.860   0.378  0.7163 -0.4704  0.5547
 3124TIP3   OH230930   2.815   1.612   3.614 -0.4171  0.2519 -0.5129
 3124TIP3    H130931   2.738   1.642   3.662 -0.1622 -1.1429  0.8776
 3124TIP3    H230932   2.882   1.678   3.633 -0.3634 -0.1980  0.9985
 3125TIP3   OH230933   2.026   1.210   8.045 -0.1616 -0.1497 -0.2688
 3125TIP3    H130934   2.042   1.265   7.967  1.3301 -0.8705 -0.5142
 3125TIP3    H230935   2.095   1.236   8.106  1.2258 -2.4178 -0.7821
 3126TIP3   OH230936   1.676   1.941   1.044 -0.5504  0.1957  1.3261
 3126TIP3    H130937   1.739   2.013   1.053 -1.8376  1.2885  1.9657
 3126TIP3    H230938   1.701   1.878   1.111  1.1200 -0.4005  0.1967
 3127TIP3   OH230939   2.055   0.914   0.684 -0.1676 -0.1103 -0.2496
 3127TIP3    H130940   2.015   0.835   0.648 -0.0299 -1.2263  1.8841
 3127TIP3    H230941   1.982   0.963   0.722  0.1774 -1.4730  2.4081
 3128TIP3   OH230942   4.060   0.467   8.290  0.2130 -0.7444 -0.1116
 3128TIP3    H130943   4.105   0.537   8.242 -0.7629  0.0533  0.0967
 3128TIP3    H230944   4.054   0.395   8.228  2.3712 -1.1497  0.0713
 3129TIP3   OH230945   3.140   5.419   3.612 -0.3749  0.5804 -0.1674
 3129TIP3    H130946   3.179   5.398   3.527 -2.9362  0.0088 -1.2851
 3129TIP3    H230947   3.057   5.462   3.591 -0.9137  0.7879  2.0679
 3130TIP3   OH230948   0.974   3.645   1.147 -0.0850 -0.7401 -0.4294
 3130TIP3    H130949   0.903   3.592   1.184 -0.7510 -0.1946 -0.9008
 3130TIP3    H230950   1.013   3.690   1.222  0.3319 -1.6815 -0.0513
 3131TIP3   OH230951   4.944   3.102   1.225 -0.0952 -0.3549 -0.0346
 3131TIP3    H130952   4.958   3.008   1.217 -1.5978 -0.6048 -0.0987
 3131TIP3    H230953   5.008   3.141   1.166 -1.0041 -1.4764 -1.8743
 3132TIP3   OH230954   0.006   5.609   0.284  0.0465 -0.6040 -0.1570
 3132TIP3    H130955   0.012   5.703   0.267 -1.5455 -0.1650  1.3849
 3132TIP3    H230956   0.090   5.574   0.255  1.4590  1.5950  1.0019
 3133TIP3   OH230957   5.423   4.519   2.288 -0.0507 -0.1594  0.4415
 3133TIP3    H130958   5.448   4.532   2.380  3.1996  1.1591 -0.4953
 3133TIP3    H230959   5.378   4.435   2.287  2.6166 -1.7880  2.8340
 3134TIP3   OH230960   4.644   3.748   7.264 -0.3165 -0.1808 -0.1820
 3134TIP3    H130961   4.572   3.808   7.244 -1.0161 -0.5729  1.0816
 3134TIP3    H230962   4.629   3.720   7.354  1.6671  0.0529  0.2762
 3135TIP3   OH230963   5.088   2.851   1.930 -0.2802 -0.0752 -0.1094
 3135TIP3    H130964   5.100   2.917   1.861  0.6052 -0.8375 -0.7208
 3135TIP3    H230965   4.999   2.820   1.918 -0.1358 -0.2126 -0.9559
 3136TIP3   OH230966   0.575   1.708   2.589  0.4931  0.3515  1.0589
 3136TIP3    H130967   0.586   1.786   2.535 -2.5645  1.4267  1.7870
 3136TIP3    H230968   0.583   1.635   2.528  3.6427  1.0947  0.3952
 3137TIP3   OH230969   1.184   4.091   8.037  0.4745  0.4189  0.5611
 3137TIP3    H130970   1.203   4.185   8.041  0.7446  0.4509 -0.8477
 3137TIP3    H230971   1.147   4.078   7.950 -0.6437 -0.6089  1.1683
 3138TIP3   OH230972   2.322   2.629   3.016 -0.3732  0.0446 -0.3238
 3138TIP3    H130973   2.348   2.609   3.106 -2.9547  0.1872  0.5335
 3138TIP3    H230974   2.347   2.551   2.967  0.2542 -0.4184  0.6795
 3139TIP3   OH230975   6.461   0.813   8.479 -0.1532  0.5173  0.5578
 3139TIP3    H130976   6.407   0.850   8.548 -0.3740  0.7471  0.2672
 3139TIP3    H230977   6.488   0.889   8.427 -0.2495  0.3179  0.2131
 3140TIP3   OH230978   4.049   6.498   8.490  0.2432  0.1208  0.0486
 3140TIP3    H130979   4.126   6.458   8.531 -0.2301 -0.5695  0.2710
 3140TIP3    H230980   4.004   6.541   8.563 -0.0906 -0.2916  0.0857
 3141TIP3   OH230981   3.015   2.191   8.539  0.2503 -0.0599  0.2247
 3141TIP3    H130982   3.052   2.130   8.475 -0.4171 -1.2191  0.9096
 3141TIP3    H230983   3.041   2.277   8.507  0.8785 -0.6684 -0.9961
 3142TIP3   OH230984   2.507   1.113   0.877  0.0187  0.5445 -0.2144
 3142TIP3    H130985   2.493   1.199   0.917  0.5088  0.4543  0.1561
 3142TIP3    H230986   2.513   1.132   0.783  2.9402  1.3231  0.0502
 3143TIP3   OH230987   0.264   4.602   0.740  0.2237  0.3619 -0.3377
 3143TIP3    H130988   0.186   4.635   0.696 -0.0413 -0.2016 -0.3034
 3143TIP3    H230989   0.241   4.512   0.766  0.0818  0.9354  1.6760
 3144TIP3   OH230990   6.855   0.951   8.323 -0.1377  0.0781 -0.1548
 3144TIP3    H130991   6.826   0.924   8.411  1.1525  2.4217  1.0761
 3144TIP3    H230992   6.884   0.870   8.282  0.6458 -0.9135  2.1626
 3145TIP3   OH230993   1.256   1.822   0.474  0.4061 -0.0013  0.0646
 3145TIP3    H130994   1.217   1.861   0.397  0.3504 -1.1978 -0.5332
 3145TIP3    H230995   1.194   1.840   0.545 -1.8659 -2.7770 -1.0482
 3146TIP3   OH230996   3.729   1.238   2.819 -0.4082 -0.4448  0.1532
 3146TIP3    H130997   3.681   1.321   2.820  0.4905  0.1951 -2.3595
 3146TIP3    H230998   3.745   1.219   2.911 -1.1798  1.8512  0.8430
 3147TIP3   OH230999   3.290   3.378   7.925  0.1902 -0.2255 -0.6185
 3147TIP3    H131000   3.233   3.307   7.896 -0.1191  0.0787 -0.7611
 3147TIP3    H231001   3.322   3.418   7.844  0.3842 -0.2155 -0.5387
 3148TIP3   OH231002   4.606   1.704   7.244  0.0569 -0.1156  0.1145
 3148TIP3    H131003   4.638   1.755   7.319  0.0098  0.3759 -0.1971
 3148TIP3    H231004   4.685   1.668   7.205  0.0542 -0.6686  0.6082
 3149TIP3   OH231005   6.676   5.422   1.026 -0.0467  0.0693 -0.0154
 3149TIP3    H131006   6.696   5.491   0.962 -3.0539  0.7074 -0.4237
 3149TIP3    H231007   6.625   5.358   0.977  0.3840 -1.0807  1.0147
 3150TIP3   OH231008   6.197   4.467   0.576  0.1680 -0.1345 -1.3458
 3150TIP3    H131009   6.235   4.385   0.607  1.4172  0.4634 -1.2447
 3150TIP3    H231010   6.270   4.513   0.536 -0.3843  1.2146 -0.8305
 3151TIP3   OH231011   2.081   6.657   3.678 -0.3180  0.8072 -0.0879
 3151TIP3    H131012   2.089   6.573   3.633  0.6041  0.1144  1.2962
 3151TIP3    H231013   2.029   6.711   3.619 -0.1232 -0.4230 -1.4416
 3152TIP3   OH231014   1.304   5.545   2.372  0.9333 -0.0897 -0.0444
 3152TIP3    H131015   1.240   5.475   2.361  1.4655 -0.3519 -1.8095
 3152TIP3    H231016   1.252   5.625   2.375  0.4909 -0.2867 -1.5599
 3153TIP3   OH231017   5.481   0.422   8.582  0.7937 -0.1137  0.4727
 3153TIP3    H131018   5.563   0.442   8.628  0.8418  1.0545 -0.0737
 3153TIP3    H231019   5.492   0.463   8.496 -0.8573  1.2061  0.8353
 3154TIP3   OH231020   4.905   6.613   8.434 -0.0151 -0.1727 -0.2927
 3154TIP3    H131021   4.854   6.672   8.378  0.6129  0.4512 -0.2193
 3154TIP3    H231022   4.854   6.532   8.435 -1.1517  0.5216  0.0101
 3155TIP3   OH231023   0.514   1.131   3.181 -0.1943 -0.6458  0.2033
 3155TIP3    H131024   0.500   1.094   3.268 -1.2479 -2.4297 -0.6711
 3155TIP3    H231025   0.606   1.113   3.161 -0.3489 -1.6202  0.3425
 3156TIP3   OH231026   1.264   6.722   1.242  0.2333  0.2996 -0.2757
 3156TIP3    H131027   1.303   6.770   1.315 -1.5029 -0.2520  1.0658
 3156TIP3    H231028   1.176   6.758   1.234 -0.1994 -0.8677 -0.9694
 3157TIP3   OH231029   4.151   3.602   2.646 -0.3150 -0.0126  0.4156
 3157TIP3    H131030   4.113   3.524   2.685 -1.4811 -0.2346 -1.0765
 3157TIP3    H231031   4.112   3.675   2.695 -0.5886 -0.3152  0.6504
 3158TIP3   OH231032   2.909   2.178   7.689 -0.1896 -0.2557  0.4099
 3158TIP3    H131033   2.950   2.185   7.776 -0.0158  0.6692  0.2680
 3158TIP3    H231034   2.913   2.267   7.654  1.9854 -1.0325 -1.5550
 3159TIP3   OH231035   1.285   1.162   0.852  0.7277  0.2554  0.5232
 3159TIP3    H131036   1.279   1.105   0.774 -0.4398 -1.5165  1.8286
 3159TIP3    H231037   1.317   1.104   0.921  0.3035  1.4121  1.7316
 3160TIP3   OH231038   4.029   2.866   7.657  0.6692  0.3322  0.3182
 3160TIP3    H131039   4.036   2.849   7.751 -1.3149 -1.9053  0.1442
 3160TIP3    H231040   4.116   2.845   7.623  1.6607  1.9156  1.6640
 3161TIP3   OH231041   5.493   5.649   0.113 -0.2884 -0.4381  0.0706
 3161TIP3    H131042   5.474   5.567   0.067 -1.8572 -0.0948  0.0525
 3161TIP3    H231043   5.408   5.692   0.122  0.7902  2.6454 -2.5862
 3162TIP3   OH231044   5.559   3.682   3.688  0.2737  0.0757  0.5999
 3162TIP3    H131045   5.586   3.771   3.712 -1.4181  0.9005 -0.3721
 3162TIP3    H231046   5.498   3.694   3.616  0.5979 -1.9539 -0.0768
 3163TIP3   OH231047   6.557   4.290   1.759  0.0821 -0.0771  0.0662
 3163TIP3    H131048   6.601   4.252   1.835  0.3071 -0.5226 -0.2826
 3163TIP3    H231049   6.557   4.384   1.777  1.0949 -0.0697  0.1191
 3164TIP3   OH231050   3.086   1.375   3.620 -0.3436  0.1161 -0.1166
 3164TIP3    H131051   3.042   1.401   3.701 -1.2526  2.2274 -1.2166
 3164TIP3    H231052   3.164   1.431   3.616  1.0890 -1.7197  0.4622
 3165TIP3   OH231053   4.538   1.282   1.953  0.2008 -0.3271 -0.9420
 3165TIP3    H131054   4.496   1.298   1.869 -0.7238 -1.0972 -0.6490
 3165TIP3    H231055   4.505   1.352   2.010  0.4788 -0.0693 -1.0934
 3166TIP3   OH231056   4.793   2.844   1.273 -0.1113  0.0900 -0.4687
 3166TIP3    H131057   4.754   2.895   1.202  1.1304  0.9015 -0.6064
 3166TIP3    H231058   4.746   2.761   1.273 -3.1389  1.6636  0.5997
 3167TIP3   OH231059   0.619   4.389   2.579  0.1243  0.2494  0.1023
 3167TIP3    H131060   0.708   4.355   2.583  0.2679  0.5477 -0.4816
 3167TIP3    H231061   0.626   4.471   2.530 -0.4056  0.4976  0.4303
 3168TIP3   OH231062   0.012   1.030   3.715 -0.5227 -0.1705  0.0646
 3168TIP3    H131063  -0.041   1.091   3.766 -1.0817  0.5263 -1.2908
 3168TIP3    H231064  -0.019   1.041   3.625  0.1474 -1.6527 -0.3741
 3169TIP3   OH231065   1.487   5.418   3.030  0.5294 -0.5150  0.3200
 3169TIP3    H131066   1.492   5.340   2.975  1.5185 -0.0011 -0.3637
 3169TIP3    H231067   1.533   5.394   3.110  1.9182 -0.2760 -0.3742
 3170TIP3   OH231068   3.361   1.642   1.374 -0.3133  0.5175 -0.5185
 3170TIP3    H131069   3.385   1.727   1.336  0.6540  0.7067  0.4497
 3170TIP3    H231070   3.442   1.592   1.372 -0.0710  0.7113  1.6851
 3171TIP3   OH231071   6.759   5.268   1.445  0.1995 -0.2288 -0.1268
 3171TIP3    H131072   6.763   5.205   1.517  1.1876  1.2452  1.1987
 3171TIP3    H231073   6.847   5.265   1.406  0.2187  0.2165 -0.1276
 3172TIP3   OH231074   5.764   5.241   0.707  0.2984  0.1316  0.2523
 3172TIP3    H131075   5.784   5.253   0.800  0.9882  1.8649 -0.0869
 3172TIP3    H231076   5.670   5.254   0.701  0.4526  1.4388  0.5144
 3173TIP3   OH231077   6.720   4.932   2.233 -0.1326 -0.1245 -0.6734
 3173TIP3    H131078   6.696   4.889   2.315 -0.1225  1.4039  0.1689
 3173TIP3    H231079   6.790   4.993   2.257 -1.6810  2.0439 -1.2859
 3174TIP3   OH231080   5.899   6.254   2.943  0.1714  0.2314  0.5857
 3174TIP3    H131081   5.814   6.240   2.902 -0.0889  0.9717  0.8644
 3174TIP3    H231082   5.880   6.306   3.021  0.9107  0.6497  0.4936
 3175TIP3   OH231083   2.103   4.633   8.491  0.2237 -0.1957  0.2398
 3175TIP3    H131084   2.159   4.670   8.423  1.0083 -1.3428  0.2271
 3175TIP3    H231085   2.164   4.591   8.552 -0.6492 -3.9216 -1.2118
 3176TIP3   OH231086   4.717   4.339   2.091  0.0916 -0.4985 -0.5936
 3176TIP3    H131087   4.729   4.332   2.186  1.2803  0.6682 -0.6252
 3176TIP3    H231088   4.805   4.330   2.055 -0.3527 -0.9573 -1.6044
 3177TIP3   OH231089   1.668   1.664   0.675 -0.4926  0.4946 -0.3346
 3177TIP3    H131090   1.747   1.692   0.629  2.0548 -1.3580  2.5587
 3177TIP3    H231091   1.646   1.736   0.734  0.6023  0.0360  0.6544
 3178TIP3   OH231092   5.844   5.533   0.814  0.6015  0.6517 -0.1630
 3178TIP3    H131093   5.815   5.533   0.723 -0.6616  0.7167  0.2263
 3178TIP3    H231094   5.846   5.441   0.839 -2.6627  0.7327  0.8119
 3179TIP3   OH231095   2.991   6.603   3.335  0.1308 -0.5921 -0.5186
 3179TIP3    H131096   2.953   6.519   3.307 -0.5380 -1.2614  2.0629
 3179TIP3    H231097   2.946   6.622   3.418  1.3457  1.5800 -0.2996
 3180TIP3   OH231098   6.219   4.530   2.138  0.0757 -0.1422 -0.3540
 3180TIP3    H131099   6.255   4.443   2.120 -1.0297 -0.4042 -1.4143
 3180TIP3    H231100   6.124   4.517   2.139 -0.2073  1.3217 -2.1964
 3181TIP3   OH231101   4.724   6.383   2.136 -0.1114  0.6712 -0.8346
 3181TIP3    H131102   4.682   6.307   2.178  1.3272 -0.1003 -0.7392
 3181TIP3    H231103   4.650   6.436   2.104 -1.1668 -1.0327 -1.3843
 3182TIP3   OH231104   0.635   0.104   8.345  0.1905  0.4681 -0.2488
 3182TIP3    H131105   0.681   0.187   8.342 -1.3044  1.3085 -0.8889
 3182TIP3    H231106   0.601   0.099   8.435 -0.8550  1.2136 -0.5876
 3183TIP3   OH231107   4.899   1.465   2.253  0.2781  0.1109 -0.4549
 3183TIP3    H131108   4.933   1.540   2.302 -0.8482  0.4473 -0.1819
 3183TIP3    H231109   4.823   1.436   2.302 -0.5630  0.1125 -1.7162
 3184TIP3   OH231110   2.927   4.316   0.494  1.0044 -0.0096  0.1122
 3184TIP3    H131111   2.846   4.347   0.535 -0.0054 -2.8581  0.4479
 3184TIP3    H231112   2.984   4.294   0.568  1.0975 -0.4357 -0.0848
 3185TIP3   OH231113   5.959   3.787   8.355 -0.6245 -0.5746 -0.6079
 3185TIP3    H131114   5.910   3.810   8.276  1.2344  2.2096 -1.0807
 3185TIP3    H231115   6.023   3.722   8.326  0.3097  0.7214 -1.5813
 3186TIP3   OH231116   6.418   4.608   0.475 -0.6568  0.6646  0.0681
 3186TIP3    H131117   6.490   4.656   0.433  0.2888  0.4131  1.3584
 3186TIP3    H231118   6.359   4.677   0.505 -0.6466  0.8996 -0.4297
 3187TIP3   OH231119   4.558   4.805   7.799  1.0627 -0.1179 -0.7112
 3187TIP3    H131120   4.577   4.712   7.788 -2.0515 -0.8322 -0.7777
 3187TIP3    H231121   4.552   4.839   7.709 -1.0979 -0.6812 -0.8390
 3188TIP3   OH231122   5.910   3.407   1.914  0.5335  0.5360  0.3309
 3188TIP3    H131123   5.980   3.393   1.851  1.5995 -0.3372  1.6668
 3188TIP3    H231124   5.886   3.499   1.903  1.6810  0.7766 -0.3427
 3189TIP3   OH231125   6.378   4.753   2.779 -0.3369 -0.0858 -0.3128
 3189TIP3    H131126   6.330   4.777   2.700 -1.0916 -2.1354 -0.5409
 3189TIP3    H231127   6.468   4.743   2.750 -0.4548  0.0509 -0.7327
 3190TIP3   OH231128   2.522   0.288   0.093  0.0012 -0.3077 -0.0533
 3190TIP3    H131129   2.580   0.217   0.067 -1.3932 -0.5347 -2.9055
 3190TIP3    H231130   2.434   0.253   0.080 -0.7463  1.3231  0.3586
 3191TIP3   OH231131   1.318   4.068   0.939  0.2261 -0.3520  0.0020
 3191TIP3    H131132   1.287   4.031   1.021 -0.0453  0.6925  0.3930
 3191TIP3    H231133   1.305   3.999   0.874  0.9911 -1.4111  0.9336
 3192TIP3   OH231134   2.197   0.100   7.865 -0.5079  0.0822  0.1130
 3192TIP3    H131135   2.210   0.034   7.796 -0.2991  0.7055 -0.4538
 3192TIP3    H231136   2.285   0.129   7.886 -0.6591  1.0163 -0.4762
 3193TIP3   OH231137   0.376   6.718   8.470 -0.3918 -0.0797  0.2815
 3193TIP3    H131138   0.375   6.623   8.485  0.4267  0.0269  1.1329
 3193TIP3    H231139   0.331   6.730   8.387  0.8559 -1.3492 -0.6141
 3194TIP3   OH231140   6.003   1.850   2.841 -0.2721 -0.1531 -0.2217
 3194TIP3    H131141   5.953   1.853   2.760  0.2197  1.1065 -0.5137
 3194TIP3    H231142   6.049   1.766   2.839 -0.4748 -0.2470 -1.1122
 3195TIP3   OH231143   3.406   4.461   2.848  0.5324 -0.6218  0.1731
 3195TIP3    H131144   3.372   4.543   2.885 -3.6717 -1.1217 -1.8702
 3195TIP3    H231145   3.449   4.488   2.766 -0.6903 -0.3607 -0.4109
 3196TIP3   OH231146   3.427   1.227   3.056 -0.6259  0.5296 -0.2210
 3196TIP3    H131147   3.429   1.316   3.091  0.9267  1.0854 -1.5697
 3196TIP3    H231148   3.360   1.230   2.988 -0.5170  0.6900 -0.3219
 3197TIP3   OH231149   1.284   2.680   8.462 -0.1260  0.0305 -0.1755
 3197TIP3    H131150   1.205   2.681   8.407  1.0809 -0.2670 -1.9985
 3197TIP3    H231151   1.278   2.760   8.514 -0.2607  1.5334 -2.3737
 3198TIP3   OH231152   6.456   4.448   1.199  0.8963 -0.2939  0.2819
 3198TIP3    H131153   6.414   4.364   1.184 -0.1903  0.2607  0.1643
 3198TIP3    H231154   6.455   4.459   1.294 -1.2630  0.7079  0.1923
 3199TIP3   OH231155   5.405   4.412   3.095  0.3723  0.3407  0.0396
 3199TIP3    H131156   5.383   4.465   3.019 -0.7646  0.5594  0.4838
 3199TIP3    H231157   5.320   4.385   3.130  0.8629  0.1996  1.1857
 3200TIP3   OH231158   3.985   3.666   1.109  0.4234  0.0349 -0.5202
 3200TIP3    H131159   3.920   3.736   1.110 -0.2354 -0.5700  0.8381
 3200TIP3    H231160   4.068   3.711   1.091  0.1020  1.2611  0.8300
 3201TIP3   OH231161   1.939   5.072   2.318  0.3166  0.2017  0.5448
 3201TIP3    H131162   1.892   5.135   2.373 -0.8131 -0.4862  0.4002
 3201TIP3    H231163   1.911   5.093   2.229  1.8048  1.0293  0.2368
 3202TIP3   OH231164   4.778   4.683   2.781 -0.0783 -0.5122  0.5123
 3202TIP3    H131165   4.694   4.639   2.797 -0.4900  0.0155 -0.1149
 3202TIP3    H231166   4.822   4.627   2.717 -0.7933  0.1729 -0.6266
 3203TIP3   OH231167   1.640   4.870   0.500  0.1423  0.0953 -0.4449
 3203TIP3    H131168   1.593   4.817   0.563  0.5667 -1.0633 -1.0704
 3203TIP3    H231169   1.732   4.846   0.512  0.2382 -0.0666 -1.4070
 3204TIP3   OH231170   0.434   5.062   0.832 -0.3914 -0.3871  0.8749
 3204TIP3    H131171   0.396   5.014   0.759  1.8045  0.9076 -1.2606
 3204TIP3    H231172   0.446   4.996   0.901  0.2063 -2.3722 -1.0168
 3205TIP3   OH231173   1.795   5.863   1.473  0.5769  1.0234  0.2247
 3205TIP3    H131174   1.759   5.844   1.386  1.6212  0.2832 -0.0732
 3205TIP3    H231175   1.890   5.855   1.461  0.6999 -0.1467  1.6666
 3206TIP3   OH231176   0.878   1.463   0.250  0.1188  0.1066 -0.7574
 3206TIP3    H131177   0.829   1.408   0.311 -1.6298  1.2797 -1.0011
 3206TIP3    H231178   0.902   1.540   0.301  0.4633  0.1677 -1.0092
 3207TIP3   OH231179   5.179   2.190   3.322  0.0929 -0.1610  0.4082
 3207TIP3    H131180   5.271   2.215   3.323 -0.0810  0.5876 -0.7833
 3207TIP3    H231181   5.133   2.266   3.286 -0.9032 -0.8210  0.2340
 3208TIP3   OH231182   6.136   0.176   1.155 -0.6221 -0.0401 -0.2524
 3208TIP3    H131183   6.173   0.159   1.068  0.2622  1.4981 -0.2066
 3208TIP3    H231184   6.211   0.171   1.214 -0.9190  0.6410  0.1854
 3209TIP3   OH231185   1.631   1.723   2.281  0.4031  0.2574 -0.0340
 3209TIP3    H131186   1.617   1.790   2.214  4.1546  1.9707  0.6379
 3209TIP3    H231187   1.604   1.764   2.363  0.7245  0.1392  0.1323
 3210TIP3   OH231188   6.484   3.747   2.366 -0.3853  0.3360  0.2856
 3210TIP3    H131189   6.559   3.746   2.307  0.1949  0.2136  1.0088
 3210TIP3    H231190   6.408   3.747   2.308  0.1235 -1.7679 -0.4575
 3211TIP3   OH231191   5.760   5.394   3.058 -0.7837 -0.0097  0.4035
 3211TIP3    H131192   5.710   5.315   3.036 -1.3110  0.2204  0.7529
 3211TIP3    H231193   5.846   5.361   3.084 -0.5443 -0.3726 -0.7640
 3212TIP3   OH231194   3.243   3.971   1.013  0.2473 -1.0584 -0.1658
 3212TIP3    H131195   3.254   4.058   0.974 -1.1085  0.1073  1.9101
 3212TIP3    H231196   3.187   3.924   0.950  1.1042 -0.5223 -1.3747
 3213TIP3   OH231197   0.751   2.931   0.372  0.1567 -0.0047 -0.0844
 3213TIP3    H131198   0.820   2.998   0.371  0.3780 -0.2272  0.0078
 3213TIP3    H231199   0.797   2.850   0.347 -0.1265 -0.1028 -0.2835
 3214TIP3   OH231200   6.007   5.375   2.048 -0.2819  0.1640 -0.1099
 3214TIP3    H131201   5.974   5.462   2.073  2.2087  1.2878 -0.4161
 3214TIP3    H231202   5.992   5.371   1.954 -1.1265 -0.1074  0.0251
 3215TIP3   OH231203   5.118   3.249   1.046  0.6405 -0.4960  0.3461
 3215TIP3    H131204   5.177   3.315   1.083 -0.1186  0.7110 -0.5189
 3215TIP3    H231205   5.166   3.214   0.971 -0.3681  1.7998 -1.4908
 3216TIP3   OH231206   3.268   5.363   1.870 -0.5114 -0.1711  0.4473
 3216TIP3    H131207   3.274   5.319   1.955 -0.2836 -0.0261  0.5063
 3216TIP3    H231208   3.342   5.423   1.869 -2.6239  2.7023  1.7746
 3217TIP3   OH231209   6.125   4.310   8.461  0.4087  0.1164 -0.1929
 3217TIP3    H131210   6.081   4.315   8.545  1.3331  1.0315  0.2558
 3217TIP3    H231211   6.083   4.378   8.408  0.6918  0.3989 -0.0533
 3218TIP3   OH231212   3.875   4.160   8.378 -0.3577 -0.7352 -0.5499
 3218TIP3    H131213   3.845   4.142   8.289 -0.7450 -0.4632 -0.4770
 3218TIP3    H231214   3.869   4.076   8.424 -1.5601 -0.5656 -0.3788
 3219TIP3   OH231215   4.315   3.329   2.523  0.2563  0.0741 -0.1367
 3219TIP3    H131216   4.260   3.345   2.599  1.5213  1.0286  0.6179
 3219TIP3    H231217   4.396   3.293   2.559  0.6162 -0.1016 -1.0961
 3220TIP3   OH231218   3.513   1.661   2.039  0.5195  0.3398  0.5658
 3220TIP3    H131219   3.526   1.675   1.946 -0.6894  0.1921  0.3623
 3220TIP3    H231220   3.465   1.739   2.069 -1.4779 -0.8135  0.5022
 3221TIP3   OH231221   0.187   4.180   0.078  0.4030  0.3255 -0.1955
 3221TIP3    H131222   0.198   4.095   0.122  0.1200  1.3457  2.0087
 3221TIP3    H231223   0.116   4.166   0.015 -0.0062 -0.9513  0.5156
 3222TIP3   OH231224   2.222   0.532   8.137 -0.0107 -0.2793 -0.0868
 3222TIP3    H131225   2.168   0.536   8.216  0.4205 -1.5782  0.2944
 3222TIP3    H231226   2.200   0.612   8.089 -2.2718 -0.7331  0.0645
 3223TIP3   OH231227   4.771   0.107   1.307 -0.1934  0.1907  0.0433
 3223TIP3    H131228   4.762   0.190   1.354 -1.7405  0.5841 -0.8947
 3223TIP3    H231229   4.865   0.087   1.312 -0.0642  1.0376  1.8672
 3224TIP3   OH231230   4.336   6.186   2.653  0.2015 -0.2424 -0.5075
 3224TIP3    H131231   4.393   6.124   2.699  0.9806  0.2798 -0.7407
 3224TIP3    H231232   4.351   6.270   2.697  1.1532  0.3222 -1.8246
 3225TIP3   OH231233   3.515   0.788   8.501  0.2318 -0.7079 -0.1766
 3225TIP3    H131234   3.547   0.877   8.487  0.5814 -0.8500 -0.2943
 3225TIP3    H231235   3.591   0.739   8.530  0.0781 -1.0081 -0.2744
 3226TIP3   OH231236   6.644   6.028   0.726 -0.1133 -0.1724 -0.2408
 3226TIP3    H131237   6.609   6.092   0.663 -1.0610 -0.3753  0.0579
 3226TIP3    H231238   6.714   6.074   0.771 -1.7205  1.2044  0.9970
 3227TIP3   OH231239   5.583   4.989   0.727  0.2969 -0.3019 -0.0891
 3227TIP3    H131240   5.531   5.065   0.700 -0.4178  0.3632  2.8199
 3227TIP3    H231241   5.648   5.025   0.787  0.2956 -1.8934  0.9201
 3228TIP3   OH231242   3.806   3.385   3.173 -0.4075 -0.5936  0.0236
 3228TIP3    H131243   3.854   3.466   3.190 -0.2793 -0.7356  0.3464
 3228TIP3    H231244   3.801   3.342   3.258 -1.5031 -0.3738  0.0887
 3229TIP3   OH231245   2.135   3.318   3.592 -0.0656 -0.8378 -0.1771
 3229TIP3    H131246   2.203   3.368   3.547 -0.3685 -0.3251 -0.0693
 3229TIP3    H231247   2.183   3.250   3.640  0.3206 -0.8573 -0.5853
 3230TIP3   OH231248   1.146   2.195   0.438 -0.3754 -0.5058  0.0093
 3230TIP3    H131249   1.202   2.212   0.514  1.4650  2.5430 -1.8174
 3230TIP3    H231250   1.194   2.130   0.387  0.3230  0.2601 -0.3370
 3231TIP3   OH231251   2.320   0.401   1.644  0.3289 -0.2069 -0.6674
 3231TIP3    H131252   2.344   0.315   1.677  0.5777 -0.2626 -0.9833
 3231TIP3    H231253   2.382   0.461   1.686 -0.5743 -0.0271  0.4445
 3232TIP3   OH231254   0.650   5.362   8.590 -0.2144  0.3179  0.6245
 3232TIP3    H131255   0.569   5.409   8.568 -1.5816 -2.2745 -0.4240
 3232TIP3    H231256   0.635   5.274   8.556  1.7532 -1.1920  3.3265
 3233TIP3   OH231257   6.703   2.668   1.408  0.3696 -0.1428  0.6485
 3233TIP3    H131258   6.616   2.646   1.444 -0.0188 -2.3497 -1.3414
 3233TIP3    H231259   6.704   2.763   1.405 -1.0041  0.0328  2.9378
 3234TIP3   OH231260   4.108   0.473   3.119 -0.3168 -0.0258 -0.6639
 3234TIP3    H131261   4.123   0.387   3.159 -0.2861  0.6655  0.8741
 3234TIP3    H231262   4.147   0.535   3.180 -1.4099  1.1697 -1.1395
 3235TIP3   OH231263   1.638   5.777   3.633  0.3033 -0.5446 -0.2032
 3235TIP3    H131264   1.644   5.855   3.689 -0.8135 -0.5421 -0.0633
 3235TIP3    H231265   1.654   5.704   3.693 -0.6338 -0.5275  0.0809
 3236TIP3   OH231266   2.349   3.051   1.776  0.0117 -0.1938 -0.3101
 3236TIP3    H131267   2.304   2.991   1.716  1.0198 -0.4814 -0.8108
 3236TIP3    H231268   2.325   3.020   1.863 -2.9523  1.3445 -0.4777
 3237TIP3   OH231269   5.060   3.461   3.082  0.3319  0.2332 -0.0343
 3237TIP3    H131270   5.116   3.419   3.015  0.1868  0.0680 -0.0517
 3237TIP3    H231271   5.086   3.418   3.164 -1.5808 -1.7396 -0.3736
 3238TIP3   OH231272   2.759   1.999   1.629  0.1743 -0.2952  0.0986
 3238TIP3    H131273   2.813   2.013   1.551  0.7230  1.3027  0.7120
 3238TIP3    H231274   2.701   2.076   1.632 -1.0531 -1.2047  0.3220
 3239TIP3   OH231275   4.415   6.815   1.687 -0.4481  0.3737 -0.3529
 3239TIP3    H131276   4.368   6.738   1.653 -1.5982  0.6149  0.6429
 3239TIP3    H231277   4.503   6.806   1.651  0.0715 -2.4920  1.2854
 3240TIP3   OH231278   2.653   0.184   1.481  0.0700  0.8324  0.1772
 3240TIP3    H131279   2.601   0.138   1.548 -1.3532  0.9561 -0.7879
 3240TIP3    H231280   2.676   0.116   1.417  0.9070  0.8306  0.4696
 3241TIP3   OH231281   3.917   1.845   8.367 -0.2757 -0.2054 -0.8045
 3241TIP3    H131282   3.889   1.920   8.314 -0.5642  0.4699  0.2866
 3241TIP3    H231283   3.981   1.881   8.428 -0.3388 -0.8756 -0.3336
 3242TIP3   OH231284   1.108   3.355   2.813  0.4001 -0.9156  0.3969
 3242TIP3    H131285   1.053   3.330   2.887 -0.7269 -0.5423 -0.2951
 3242TIP3    H231286   1.143   3.441   2.836 -1.9955  0.3898 -0.5548
 3243TIP3   OH231287   4.784   2.797   2.495 -0.3564 -0.2531  0.0820
 3243TIP3    H131288   4.855   2.740   2.524  1.1443  0.8294 -1.2928
 3243TIP3    H231289   4.766   2.769   2.405 -2.5005 -1.2461  0.7524
 3244TIP3   OH231290   2.954   1.573   2.501 -0.0068 -0.0403  0.1875
 3244TIP3    H131291   2.888   1.578   2.432  0.2504 -2.4782 -0.3422
 3244TIP3    H231292   3.037   1.587   2.456  0.1750 -1.7855 -0.1163
 3245TIP3   OH231293   1.784   3.969   3.390 -0.0432 -0.2844 -0.8062
 3245TIP3    H131294   1.693   3.992   3.368 -0.6636  0.0695  1.8169
 3245TIP3    H231295   1.824   4.053   3.415  0.2468 -0.7657  0.4152
 3246TIP3   OH231296   2.082   2.150   2.369  0.2058  0.0955  0.3363
 3246TIP3    H131297   2.120   2.223   2.322 -0.8851 -0.4023 -1.3942
 3246TIP3    H231298   2.020   2.111   2.308 -1.9280 -0.0883  2.4601
 3247TIP3   OH231299   1.942   4.258   3.057 -0.1355  0.4097  0.4032
 3247TIP3    H131300   1.909   4.208   2.982  0.7451  0.6354 -0.1461
 3247TIP3    H231301   1.863   4.286   3.103 -0.6983  0.3925 -0.5265
 3248TIP3   OH231302   4.932   3.751   2.979 -0.0035 -0.2204  0.1284
 3248TIP3    H131303   4.880   3.822   2.941  1.9647  0.9106 -0.5506
 3248TIP3    H231304   4.876   3.673   2.968 -0.8959  0.6419 -2.0581
 3249TIP3   OH231305   5.675   2.171   3.410 -0.2667  0.5003 -0.5257
 3249TIP3    H131306   5.765   2.160   3.440 -0.1449  2.1065 -0.2316
 3249TIP3    H231307   5.636   2.084   3.420  1.8497 -0.8425 -2.8219
 3250TIP3   OH231308   0.884   3.888   3.800  0.4174  0.5040  0.7708
 3250TIP3    H131309   0.905   3.796   3.812 -2.0020 -0.3712 -0.9983
 3250TIP3    H231310   0.965   3.928   3.768  1.1179 -1.3063  0.1988
 3251TIP3   OH231311   2.887   6.037   0.212 -0.6183 -0.1075 -0.0699
 3251TIP3    H131312   2.893   6.131   0.194  0.6748  0.0535  1.0550
 3251TIP3    H231313   2.951   5.997   0.153 -0.8759 -0.2403 -0.2597
 3252TIP3   OH231314   5.851   5.619   3.164  0.5371  0.0450 -0.3912
 3252TIP3    H131315   5.812   5.693   3.118  0.8822  0.5821  0.1576
 3252TIP3    H231316   5.809   5.542   3.126 -0.5502  0.5645 -0.2959
 3253TIP3   OH231317   1.114   2.705   1.282 -0.3549  0.5254 -0.0386
 3253TIP3    H131318   1.143   2.778   1.337 -1.1302  0.1756  0.8739
 3253TIP3    H231319   1.020   2.700   1.298 -0.3695 -0.4281 -0.3957
 3254TIP3   OH231320   2.777   6.548   8.557 -0.2808  0.2465  0.1904
 3254TIP3    H131321   2.766   6.623   8.498 -0.2046  0.3439  0.2982
 3254TIP3    H231322   2.853   6.572   8.611  0.3933 -0.3661 -0.4697
 3255TIP3   OH231323   5.183   1.333   2.048  0.4175 -0.0798  0.3501
 3255TIP3    H131324   5.233   1.253   2.060  0.8174 -0.1268 -1.3422
 3255TIP3    H231325   5.242   1.403   2.074  0.5291 -0.2515  0.5660
 3256TIP3   OH231326   0.304   5.306   3.088 -0.2689  0.2314 -0.4709
 3256TIP3    H131327   0.261   5.359   3.155  1.5588  0.0591  0.9339
 3256TIP3    H231328   0.391   5.346   3.079  0.5143 -1.4389 -0.6631
 3257TIP3   OH231329   5.343   4.174   2.711  0.0750 -0.0743  0.6628
 3257TIP3    H131330   5.378   4.106   2.768  0.1887 -0.9045 -0.3652
 3257TIP3    H231331   5.285   4.128   2.651  0.4733  0.6703 -0.3182
 3258TIP3   OH231332   6.368   1.630   2.101  0.3962 -0.0541  0.6946
 3258TIP3    H131333   6.288   1.673   2.072 -0.7561 -2.2074  0.4264
 3258TIP3    H231334   6.429   1.639   2.028  0.5091  1.7702  0.9739
 3259TIP3   OH231335   0.428   2.336   8.439  0.1142 -0.3975 -0.1552
 3259TIP3    H131336   0.497   2.270   8.424  0.4304 -0.4601  1.3900
 3259TIP3    H231337   0.436   2.358   8.531  0.9239  2.8634 -0.8834
 3260TIP3   OH231338   3.732   6.805   2.755  0.0497  0.3620 -0.3021
 3260TIP3    H131339   3.750   6.733   2.694 -0.0713 -0.6379  0.7988
 3260TIP3    H231340   3.775   6.778   2.836 -1.8754  0.4359  0.8100
 3261TIP3   OH231341   5.607   3.485   0.605 -0.1298  0.5334 -0.2966
 3261TIP3    H131342   5.595   3.527   0.520  2.1288  0.5641 -0.6762
 3261TIP3    H231343   5.671   3.416   0.588  1.2478  1.2656  1.5405
 3262TIP3   OH231344   0.813   5.491   3.058  0.1803 -0.2378 -0.0879
 3262TIP3    H131345   0.722   5.509   3.032 -1.0097 -3.6376  1.1064
 3262TIP3    H231346   0.807   5.477   3.153  1.8923 -0.9151 -0.0629
 3263TIP3   OH231347   2.312   5.977   1.201 -0.1935 -0.0771  0.2418
 3263TIP3    H131348   2.366   6.055   1.192 -0.7310  0.1318 -1.5441
 3263TIP3    H231349   2.276   5.962   1.114 -1.5972 -1.2453  0.9704
 3264TIP3   OH231350   4.932   2.035   1.147 -0.3955 -0.2083 -0.0244
 3264TIP3    H131351   4.923   2.023   1.053 -0.0063  0.9733 -0.2313
 3264TIP3    H231352   4.862   2.095   1.170  1.2250  1.8146 -0.0868
 3265TIP3   OH231353   1.036   1.645   2.914 -0.1519 -0.1750 -0.2265
 3265TIP3    H131354   0.967   1.693   2.869 -0.5524 -0.4483  0.0804
 3265TIP3    H231355   1.068   1.706   2.981 -1.3838 -0.6677  0.8669
 3266TIP3   OH231356   3.076   0.942   0.210 -0.2991  0.3922 -0.5526
 3266TIP3    H131357   3.161   0.980   0.190 -0.1616  0.3366 -0.0784
 3266TIP3    H231358   3.032   1.009   0.263  0.1771 -0.3489  0.8050
 3267TIP3   OH231359   0.259   6.043   0.104  0.2638  0.2465  0.5652
 3267TIP3    H131360   0.232   6.133   0.123  0.3897 -0.2643  3.7750
 3267TIP3    H231361   0.350   6.039   0.131 -0.5581 -1.5060  3.6042
 3268TIP3   OH231362   2.168   6.088   2.823  0.7327  0.1140 -0.3130
 3268TIP3    H131363   2.208   6.016   2.872 -0.6513 -0.4594  0.0183
 3268TIP3    H231364   2.092   6.113   2.874  0.1776  0.6013 -1.3456
 3269TIP3   OH231365   5.083   0.097   0.315  0.4756  0.3386  0.0551
 3269TIP3    H131366   5.159   0.058   0.358  0.3317  2.2174  2.2297
 3269TIP3    H231367   5.109   0.189   0.302 -0.4946  0.4061 -1.5262
 3270TIP3   OH231368   0.530   6.656   0.558 -0.5976 -0.3956  0.2669
 3270TIP3    H131369   0.612   6.687   0.597 -1.0774 -0.1808  1.1331
 3270TIP3    H231370   0.517   6.569   0.596 -0.2241 -0.8974 -0.7122
 3271TIP3   OH231371   1.359   0.590   1.668  0.1714  0.0432  0.0785
 3271TIP3    H131372   1.322   0.513   1.712  2.6885 -0.4191  1.5549
 3271TIP3    H231373   1.337   0.663   1.725  2.0155 -0.3382  1.3900
 3272TIP3   OH231374   2.799   1.507   8.107 -0.1964  0.4644  0.2413
 3272TIP3    H131375   2.762   1.591   8.082 -0.5476  0.2316 -0.0217
 3272TIP3    H231376   2.876   1.530   8.160 -0.9290  0.9495  1.1335
 3273TIP3   OH231377   1.274   5.602   1.360 -0.3539 -0.6017  0.2351
 3273TIP3    H131378   1.226   5.535   1.410 -2.2260 -0.1174 -0.8052
 3273TIP3    H231379   1.358   5.562   1.340 -0.5804 -1.7905  1.5075
 3274TIP3   OH231380   6.696   0.627   2.863  0.5497  0.0852  0.0691
 3274TIP3    H131381   6.663   0.549   2.818  1.0916  0.4622 -1.0002
 3274TIP3    H231382   6.617   0.678   2.883  0.3624  0.4128 -1.4116
 3275TIP3   OH231383   0.487   2.135   1.559 -0.4807  0.4520 -0.1839
 3275TIP3    H131384   0.527   2.054   1.528 -1.3135  0.6137 -1.7889
 3275TIP3    H231385   0.561   2.190   1.583  0.1273 -0.4801  0.1382
 3276TIP3   OH231386   5.876   2.535   2.005  0.2636  0.0324 -0.1395
 3276TIP3    H131387   5.813   2.504   1.940  1.7428 -2.7564 -0.4151
 3276TIP3    H231388   5.823   2.557   2.081 -1.1199 -1.7987 -0.5000
 3277TIP3   OH231389   6.377   2.279   3.661 -0.0706  0.0523 -0.1421
 3277TIP3    H131390   6.340   2.191   3.650  1.8202 -0.7336 -0.5570
 3277TIP3    H231391   6.439   2.270   3.733 -0.1637  1.1615  0.0913
 3278TIP3   OH231392   3.567   5.847   7.589  0.6369  0.3570 -0.3060
 3278TIP3    H131393   3.513   5.874   7.663 -0.2128 -0.3053 -0.6661
 3278TIP3    H231394   3.510   5.789   7.538  1.7138 -0.4291 -0.6460
 3279TIP3   OH231395   3.268   5.608   2.439 -0.4875  0.5297 -0.0280
 3279TIP3    H131396   3.181   5.611   2.401 -0.4919  3.4057 -0.0001
 3279TIP3    H231397   3.254   5.590   2.532 -0.9844  0.3819 -0.1296
 3280TIP3   OH231398   3.761   2.519   8.263  0.0198 -0.4382  0.1869
 3280TIP3    H131399   3.759   2.611   8.237 -0.3162 -0.3533  0.5032
 3280TIP3    H231400   3.677   2.484   8.236  0.2463 -0.7200 -0.1616
 3281TIP3   OH231401   6.471   4.997   0.730  0.0723  0.4866 -0.1045
 3281TIP3    H131402   6.383   5.024   0.757 -0.8423 -1.1073 -1.3126
 3281TIP3    H231403   6.465   4.987   0.635  1.1506 -0.9992 -0.0503
 3282TIP3   OH231404   5.694   1.395   0.256 -0.2389 -0.2892  0.5202
 3282TIP3    H131405   5.774   1.359   0.295 -0.6400 -0.6836  0.9954
 3282TIP3    H231406   5.710   1.489   0.252  0.1698 -0.3414  0.8026
 3283TIP3   OH231407   1.956   0.458   1.859  0.1520 -0.2178  0.6510
 3283TIP3    H131408   1.892   0.528   1.846  0.3924 -0.1496 -0.2002
 3283TIP3    H231409   2.006   0.485   1.936  0.5282  0.7583  0.0770
 3284TIP3   OH231410   2.726   4.196   0.761  0.2246 -0.3268  0.4022
 3284TIP3    H131411   2.708   4.270   0.702  1.3609  0.0335  0.4926
 3284TIP3    H231412   2.666   4.128   0.731 -0.3479  0.3902 -0.1405
 3285TIP3   OH231413   3.263   0.109   0.597  0.3483  0.0263  0.0535
 3285TIP3    H131414   3.215   0.049   0.540  2.3872 -0.8205 -0.8300
 3285TIP3    H231415   3.274   0.189   0.546 -2.6725  1.4534  1.3506
 3286TIP3   OH231416   4.218   2.343   3.317 -0.5497  0.1542 -0.0387
 3286TIP3    H131417   4.132   2.302   3.326 -0.5344  0.2851  0.9037
 3286TIP3    H231418   4.280   2.273   3.340 -0.5580  0.8672  2.5281
 3287TIP3   OH231419   3.898   0.985   0.729  0.1916  0.4890 -0.0505
 3287TIP3    H131420   3.910   0.893   0.708 -0.8283  0.5555 -1.0468
 3287TIP3    H231421   3.952   1.000   0.807  0.8287 -0.7948 -0.2243
 3288TIP3   OH231422   6.146   3.620   1.371 -0.0093 -0.1627  0.2548
 3288TIP3    H131423   6.184   3.571   1.444  1.1021  0.2082 -0.0503
 3288TIP3    H231424   6.216   3.678   1.343 -0.9058  0.7216 -0.1892
 3289TIP3   OH231425   2.538   5.070   0.090 -0.0332 -0.0911 -0.4077
 3289TIP3    H131426   2.585   5.111   0.017  1.1179 -1.6586 -0.5930
 3289TIP3    H231427   2.541   5.135   0.160  1.6136  0.2127 -0.7274
 3290TIP3   OH231428   5.274   2.637   2.766 -0.5238 -0.1249  0.0663
 3290TIP3    H131429   5.230   2.708   2.719 -2.2275 -0.2331  1.4090
 3290TIP3    H231430   5.356   2.676   2.798 -0.5737  0.6816 -0.7558
 3291TIP3   OH231431   6.024   2.291   2.095  0.7784 -0.2135 -0.1067
 3291TIP3    H131432   6.051   2.210   2.053 -1.1640  0.1939 -2.4042
 3291TIP3    H231433   6.003   2.350   2.022  0.8563  1.9059  1.4718
 3292TIP3   OH231434   4.512   3.963   8.431  0.1630 -0.1600 -0.1089
 3292TIP3    H131435   4.475   4.003   8.509 -1.8077 -0.0797 -1.0308
 3292TIP3    H231436   4.437   3.925   8.385  1.3913 -1.0493 -1.4852
 3293TIP3   OH231437   3.369   0.709   1.352  0.4909 -0.1752 -0.2924
 3293TIP3    H131438   3.427   0.712   1.276 -0.3941  3.0925 -1.0166
 3293TIP3    H231439   3.421   0.745   1.424  0.2690  0.0347 -0.2346
 3294TIP3   OH231440   6.132   3.282   1.353  0.0218  0.3300  0.2976
 3294TIP3    H131441   6.114   3.189   1.370 -0.9922  0.3461 -0.5367
 3294TIP3    H231442   6.123   3.324   1.438 -2.1067  0.0159  0.2936
 3295TIP3   OH231443   5.476   0.806   1.855 -0.5442  0.2396 -0.0675
 3295TIP3    H131444   5.507   0.723   1.819 -0.2982  0.4101 -0.2508
 3295TIP3    H231445   5.386   0.814   1.823 -1.0150 -0.5635  0.9825
 3296TIP3   OH231446   6.401   0.924   1.149  0.0658 -0.1111  0.4790
 3296TIP3    H131447   6.472   0.946   1.089  1.0218 -4.5337 -0.3872
 3296TIP3    H231448   6.408   0.989   1.219  3.9739  0.6338 -0.3517
 3297TIP3   OH231449   3.030   2.245   0.225 -0.3112 -0.1490 -0.2038
 3297TIP3    H131450   3.104   2.240   0.286 -0.3153  0.2922 -0.1605
 3297TIP3    H231451   2.962   2.192   0.265 -0.8217  1.2663  0.8873
 3298TIP3   OH231452   2.884   6.613   7.614  0.2091 -0.1796  0.1194
 3298TIP3    H131453   2.864   6.657   7.531  0.6683  0.7008  0.4711
 3298TIP3    H231454   2.896   6.521   7.589 -0.5743 -0.0906 -0.6498
 3299TIP3   OH231455   3.929   3.922   7.709 -0.4779  0.1226  0.4390
 3299TIP3    H131456   3.843   3.962   7.699 -1.2150 -1.2251  1.1043
 3299TIP3    H231457   3.980   3.988   7.757 -1.8245  0.0867  2.0352
 3300TIP3   OH231458   1.565   5.937   1.002 -0.1216  0.4201 -0.0434
 3300TIP3    H131459   1.623   5.861   0.996  0.4773  0.9138 -0.6458
 3300TIP3    H231460   1.523   5.928   1.088  2.2924  1.0546  1.2876
 3301TIP3   OH231461   0.448   3.486   0.817  0.3210  0.2226  0.0596
 3301TIP3    H131462   0.368   3.454   0.776  0.3323 -0.9320  0.9151
 3301TIP3    H231463   0.461   3.573   0.777 -2.0422  1.0275  0.8443
 3302TIP3   OH231464   2.451   4.321   2.750  0.0112  0.1192 -0.5148
 3302TIP3    H131465   2.426   4.281   2.833  2.8678  0.0441  0.3964
 3302TIP3    H231466   2.464   4.414   2.770  1.2195  0.0117 -0.7162
 3303TIP3   OH231467   0.307   5.141   7.938 -0.0832  0.4027 -0.3727
 3303TIP3    H131468   0.215   5.146   7.914 -0.2049  0.5810  0.1194
 3303TIP3    H231469   0.317   5.053   7.975  0.6602 -0.8761 -3.2908
 3304TIP3   OH231470   0.873   1.219   1.910  0.2958  0.4092 -0.1674
 3304TIP3    H131471   0.831   1.224   1.824  0.0532  1.0847 -0.0177
 3304TIP3    H231472   0.951   1.274   1.902  0.3312  0.3865  0.0088
 3305TIP3   OH231473   0.839   4.596   7.949 -1.3134  0.2110 -0.0248
 3305TIP3    H131474   0.810   4.686   7.968 -1.2759  0.2731 -0.2575
 3305TIP3    H231475   0.929   4.607   7.917 -0.6606 -0.0549  1.5948
 3306TIP3   OH231476   6.535   4.981   8.066 -0.3555  0.0092  0.3787
 3306TIP3    H131477   6.591   5.057   8.082 -0.9803  0.7116 -0.6654
 3306TIP3    H231478   6.500   4.959   8.152  2.2228 -1.0497  1.2535
 3307TIP3   OH231479   6.501   3.753   2.896 -0.0377 -0.0193 -0.2057
 3307TIP3    H131480   6.499   3.758   2.992  0.6953 -0.6050 -0.1527
 3307TIP3    H231481   6.564   3.684   2.877 -0.9870 -0.6664 -1.1015
 3308TIP3   OH231482   3.559   5.516   1.771  0.8132  0.1349 -0.1980
 3308TIP3    H131483   3.523   5.562   1.847  1.1293  0.5152 -0.2726
 3308TIP3    H231484   3.567   5.584   1.704  0.9073 -0.1176 -0.4450
 3309TIP3   OH231485   2.746   1.342   0.870 -0.5982 -0.2902  0.0410
 3309TIP3    H131486   2.702   1.422   0.839 -1.2790 -0.9885 -0.8572
 3309TIP3    H231487   2.826   1.374   0.912 -1.2089  0.9137  0.3590
 3310TIP3   OH231488   2.189   2.043   0.002 -0.9077 -0.1537 -0.0048
 3310TIP3    H131489   2.140   1.968  -0.033 -0.6922  0.8013 -2.5589
 3310TIP3    H231490   2.275   2.007   0.022 -1.1706 -0.8302 -0.0402
 3311TIP3   OH231491   5.859   4.715   0.751  0.5409 -0.2636 -0.2016
 3311TIP3    H131492   5.818   4.772   0.686  0.7164  1.8233  1.4039
 3311TIP3    H231493   5.812   4.631   0.743 -1.2412  0.7700 -1.1930
 3312TIP3   OH231494   1.559   5.051   1.222 -0.3272  0.4598  0.1887
 3312TIP3    H131495   1.580   4.982   1.286 -0.4417 -0.0946 -0.3622
 3312TIP3    H231496   1.616   5.124   1.246 -0.1871  0.1708  0.7670
 3313TIP3   OH231497   4.472   1.983   1.300  0.3579  0.6735  0.5653
 3313TIP3    H131498   4.531   2.039   1.249 -0.9521  1.0114 -0.6374
 3313TIP3    H231499   4.416   2.045   1.347  0.0507  0.3676  0.6010
 3314TIP3   OH231500   0.967   5.876   8.060  0.1413 -0.5549  0.3939
 3314TIP3    H131501   0.982   5.783   8.081 -0.7830 -0.8964 -0.3741
 3314TIP3    H231502   0.913   5.874   7.981  0.0475  0.6468  0.4098
 3315TIP3   OH231503   2.379   3.969   0.484  0.3189 -0.3086 -0.2619
 3315TIP3    H131504   2.354   4.056   0.515  0.3886  0.0330 -1.1394
 3315TIP3    H231505   2.296   3.923   0.472  0.1664  0.2404 -1.4857
 3316TIP3   OH231506   4.443   5.319   2.015  0.4479  0.6567  0.0581
 3316TIP3    H131507   4.361   5.353   2.051  1.4762  0.1991  3.1236
 3316TIP3    H231508   4.455   5.235   2.060  2.5053  0.6323 -0.4649
 3317TIP3   OH231509   1.604   1.990   3.464 -0.0661 -0.2372 -0.1095
 3317TIP3    H131510   1.515   1.957   3.479 -0.3450  0.0084 -1.1887
 3317TIP3    H231511   1.660   1.915   3.482 -0.5398 -0.6269 -0.2313
 3318TIP3   OH231512   6.382   4.732   2.028  0.2204  0.1037  0.3252
 3318TIP3    H131513   6.351   4.659   2.083  0.7056 -0.9602 -0.7753
 3318TIP3    H231514   6.302   4.775   1.998 -0.2086 -1.5624 -1.0790
 3319TIP3   OH231515   6.256   0.096   2.585  0.3475  0.2285  0.0842
 3319TIP3    H131516   6.289   0.170   2.533  2.3499 -0.4525  0.2887
 3319TIP3    H231517   6.293   0.110   2.672 -0.4046 -0.2946  0.4919
 3320TIP3   OH231518   6.115   0.442   2.276 -0.1540 -0.2816  0.4420
 3320TIP3    H131519   6.077   0.357   2.300 -2.1277  0.9155  1.9840
 3320TIP3    H231520   6.044   0.487   2.230 -0.0125  1.3593  1.7361
 3321TIP3   OH231521   3.566   2.270   1.082  0.2714 -0.5117 -0.1867
 3321TIP3    H131522   3.586   2.226   1.000 -1.4029 -0.5266 -0.6250
 3321TIP3    H231523   3.563   2.363   1.060  0.3500 -0.4676 -0.0176
 3322TIP3   OH231524   3.383   3.623   2.168  0.1653 -0.2112 -0.8826
 3322TIP3    H131525   3.331   3.661   2.239 -0.0529 -0.4167 -0.9299
 3322TIP3    H231526   3.369   3.681   2.094  0.4660  0.0544 -0.7338
 3323TIP3   OH231527   4.044   4.552   2.008  0.0257 -0.2478 -0.4737
 3323TIP3    H131528   4.041   4.611   1.933 -0.7612 -1.7330 -1.6583
 3323TIP3    H231529   4.080   4.470   1.973 -1.0900 -1.2273  0.5591
 3324TIP3   OH231530   1.383   3.791   2.878 -0.0463 -0.0484  0.4139
 3324TIP3    H131531   1.418   3.704   2.859  1.5982  0.9962 -1.8336
 3324TIP3    H231532   1.449   3.833   2.933  2.1092  1.6051 -3.0854
 3325TIP3   OH231533   1.602   1.644   0.177  0.2013  0.4562  0.1527
 3325TIP3    H131534   1.515   1.682   0.163 -0.2214 -0.5196  0.0445
 3325TIP3    H231535   1.628   1.612   0.091 -0.1152 -0.8492  0.5220
 3326TIP3   OH231536   4.358   3.447   0.450  0.3687  0.5839  0.3204
 3326TIP3    H131537   4.291   3.410   0.507 -1.2310  0.9300 -1.2472
 3326TIP3    H231538   4.348   3.401   0.367  1.4638  1.2817 -0.2294
 3327TIP3   OH231539   4.448   4.642   3.322 -0.2181  0.5953  0.0791
 3327TIP3    H131540   4.398   4.561   3.328  0.4349  0.1979  0.3115
 3327TIP3    H231541   4.473   4.649   3.230  0.7890 -0.1407  0.2745
 3328TIP3   OH231542   3.261   6.807   2.051 -0.0362 -0.1769  0.4545
 3328TIP3    H131543   3.218   6.797   1.966 -1.6922  0.2536  1.2016
 3328TIP3    H231544   3.241   6.897   2.077 -1.2967 -0.8901  2.1729
 3329TIP3   OH231545   2.222   0.588   3.170 -0.4322  0.2903 -0.0079
 3329TIP3    H131546   2.304   0.552   3.202 -0.3295 -0.7710 -1.3747
 3329TIP3    H231547   2.233   0.683   3.176  0.6670  0.1502  0.3581
 3330TIP3   OH231548   2.392   2.718   1.455  0.1903  0.6930 -0.7711
 3330TIP3    H131549   2.305   2.679   1.457  0.2251  0.6379  0.2775
 3330TIP3    H231550   2.376   2.810   1.435 -0.1660  0.8086  0.0080
 3331TIP3   OH231551   0.332   3.279   2.491 -0.7759 -0.2678  0.2370
 3331TIP3    H131552   0.401   3.272   2.557 -1.2291 -1.7964  0.5927
 3331TIP3    H231553   0.317   3.189   2.461 -0.8467  0.3280 -1.7021
 3332TIP3   OH231554   1.873   6.120   0.207 -0.5956 -0.5163 -0.4119
 3332TIP3    H131555   1.840   6.113   0.118  0.3648  0.7633 -0.8890
 3332TIP3    H231556   1.873   6.029   0.239  0.0364 -1.1497 -2.0771
 3333TIP3   OH231557   1.926   0.359   8.427 -0.1869  0.0288 -0.2205
 3333TIP3    H131558   1.879   0.354   8.344 -1.7343 -0.8298  0.6489
 3333TIP3    H231559   1.987   0.286   8.424 -0.3812 -0.1246 -0.5287
 3334TIP3   OH231560   4.118   6.812   1.829  0.5688  0.3658  0.0207
 3334TIP3    H131561   4.148   6.802   1.738 -1.4926  2.3005 -0.9850
 3334TIP3    H231562   4.048   6.748   1.838 -0.6391  1.5608 -0.5122
 3335TIP3   OH231563   4.293   6.445   8.173 -0.0945 -0.2579 -0.2200
 3335TIP3    H131564   4.267   6.381   8.107 -0.7402  0.6558 -0.8902
 3335TIP3    H231565   4.356   6.501   8.128 -0.3015  0.1784  0.0255
 3336TIP3   OH231566   5.586   4.927   2.217  0.7121 -0.0859  0.1015
 3336TIP3    H131567   5.542   4.865   2.158  0.1539  0.4872 -0.0848
 3336TIP3    H231568   5.519   4.954   2.279  1.3063 -0.7097  1.0443
 3337TIP3   OH231569   5.484   1.297   1.731  0.0565 -0.0445 -0.2825
 3337TIP3    H131570   5.566   1.301   1.682 -0.3554  1.2225 -0.9024
 3337TIP3    H231571   5.487   1.212   1.777  1.6727 -0.0345 -0.3335
 3338TIP3   OH231572   5.995   5.797   1.477 -0.2235 -0.6426  0.1506
 3338TIP3    H131573   6.089   5.789   1.462 -0.0205  0.5895  0.5968
 3338TIP3    H231574   5.958   5.814   1.390  0.2034  0.6479  0.2037
 3339TIP3   OH231575   0.560   5.857   3.059 -0.2172 -0.1830  0.3984
 3339TIP3    H131576   0.651   5.885   3.074  1.0817 -2.3521 -2.5384
 3339TIP3    H231577   0.526   5.920   2.995 -0.8969  0.7113  1.6007
 3340TIP3   OH231578   6.090   0.413   1.973 -0.2953  0.0259 -0.0467
 3340TIP3    H131579   6.025   0.343   1.983  0.6682 -1.0406 -0.9833
 3340TIP3    H231580   6.171   0.368   1.948  1.3002  1.1402  2.6603
 3341TIP3   OH231581   6.147   0.821   1.512  0.0023  0.1391 -0.4045
 3341TIP3    H131582   6.168   0.734   1.544  0.3128  0.3926  0.1024
 3341TIP3    H231583   6.227   0.872   1.525 -0.6089  0.8782  0.6853
 3342TIP3   OH231584   0.504   3.273   2.263 -0.0346  0.3855  0.0989
 3342TIP3    H131585   0.434   3.274   2.328 -2.1973 -2.2992 -1.9246
 3342TIP3    H231586   0.576   3.225   2.305 -0.7425  0.1486  1.0789
 3343TIP3   OH231587   1.312   2.906   8.646  0.2080  0.5614  0.3671
 3343TIP3    H131588   1.370   2.848   8.695  1.6365 -0.7250 -2.6502
 3343TIP3    H231589   1.369   2.974   8.610 -0.6526  0.9878 -0.2444
 3344TIP3   OH231590   5.777   3.968   2.966 -0.1999 -0.3984  0.1248
 3344TIP3    H131591   5.776   3.901   3.035 -0.2993  1.0228  1.5780
 3344TIP3    H231592   5.740   4.045   3.009  0.6655  0.8149 -1.2572
 3345TIP3   OH231593   5.118   0.398   0.409  0.5008  0.4242  0.2986
 3345TIP3    H131594   5.159   0.484   0.408  2.9250 -0.6488 -1.6021
 3345TIP3    H231595   5.040   0.408   0.353  2.2740  0.8231 -2.2914
 3346TIP3   OH231596   2.366   5.635   2.934  0.4957  0.0613  0.4175
 3346TIP3    H131597   2.460   5.617   2.934  0.1957 -1.8117  2.1362
 3346TIP3    H231598   2.351   5.688   3.012  0.1159  0.4486  0.0916
 3347TIP3   OH231599   2.105   1.125   0.982 -0.6691 -0.0452  0.1073
 3347TIP3    H131600   2.092   1.143   0.888  1.1112  2.0106  0.1508
 3347TIP3    H231601   2.121   1.031   0.986 -0.6222 -0.1671 -1.6992
 3348TIP3   OH231602   5.527   3.720   2.925  0.0570 -0.5182  0.1767
 3348TIP3    H131603   5.617   3.701   2.900  0.1450  0.5622 -0.3538
 3348TIP3    H231604   5.482   3.636   2.917  0.5684 -0.6692 -1.5016
 3349TIP3   OH231605   1.536   0.164   7.797 -0.2008  0.0343  0.3424
 3349TIP3    H131606   1.536   0.156   7.702  0.9945  1.2803  0.2050
 3349TIP3    H231607   1.629   0.164   7.821 -0.4641  0.6297  1.4156
 3350TIP3   OH231608   2.772   1.354   3.711 -0.0630 -0.3912  0.1418
 3350TIP3    H131609   2.706   1.380   3.775 -0.6951 -1.0576 -0.2213
 3350TIP3    H231610   2.817   1.435   3.688  0.7130 -0.2404  1.9974
 3351TIP3   OH231611   3.371   6.688   0.249  0.2085 -0.0877  0.9689
 3351TIP3    H131612   3.379   6.781   0.228  0.7728 -0.4134 -0.3488
 3351TIP3    H231613   3.458   6.664   0.282  0.0581 -0.1546  1.3256
 3352TIP3   OH231614   2.574   2.701   0.693 -0.5662 -0.0292  0.0869
 3352TIP3    H131615   2.499   2.756   0.672 -0.6572 -0.2896 -0.2759
 3352TIP3    H231616   2.536   2.617   0.718 -0.3727 -0.3748 -0.7582
 3353TIP3   OH231617   4.178   4.898   0.317  0.3073  0.6461  0.2388
 3353TIP3    H131618   4.260   4.943   0.300  0.9153 -0.6772 -0.5079
 3353TIP3    H231619   4.203   4.818   0.364 -0.4501 -0.1304 -0.6265
 3354TIP3   OH231620   3.601   0.682   3.202 -0.1296  0.0854  0.0561
 3354TIP3    H131621   3.520   0.723   3.171  1.1296  2.5420 -0.2283
 3354TIP3    H231622   3.589   0.589   3.184 -3.3897  0.1458  1.2031
 3355TIP3   OH231623   0.914   5.452   7.862 -0.2678 -0.3334 -0.5629
 3355TIP3    H131624   0.958   5.368   7.862 -0.9314 -0.7153  0.9974
 3355TIP3    H231625   0.852   5.447   7.789  0.7715 -0.5732 -1.4550
 3356TIP3   OH231626   6.158   3.667   0.932  0.4902  0.0818 -0.5797
 3356TIP3    H131627   6.129   3.597   0.992 -2.5613  0.2880 -1.6401
 3356TIP3    H231628   6.105   3.654   0.853  0.6717  2.8657 -1.2603
 3357TIP3   OH231629   3.967   5.746   0.747  0.5175  0.1036 -0.3370
 3357TIP3    H131630   3.940   5.685   0.816 -1.0024  1.7069  0.5524
 3357TIP3    H231631   3.985   5.689   0.672 -1.1166 -1.4567  0.3548
 3358TIP3   OH231632   4.319   2.745   0.848 -0.3208  0.0292  0.2418
 3358TIP3    H131633   4.361   2.662   0.826 -2.2302 -1.2009  0.9624
 3358TIP3    H231634   4.369   2.778   0.923 -0.0851 -0.9207  0.5107
 3359TIP3   OH231635   5.610   1.236   2.162  0.3407  0.2318 -0.1406
 3359TIP3    H131636   5.589   1.189   2.082 -0.0530  1.1663 -0.6022
 3359TIP3    H231637   5.555   1.314   2.160  1.7770  1.3021  0.0273
 3360TIP3   OH231638   5.996   6.499   2.563 -0.1369  0.5334  0.0144
 3360TIP3    H131639   6.040   6.508   2.647  0.6854 -0.2017 -0.3202
 3360TIP3    H231640   5.904   6.487   2.585  0.0732  0.3549  0.8079
 3361TIP3   OH231641   0.245   2.093   8.603  0.0410 -0.1459 -0.5990
 3361TIP3    H131642   0.318   2.032   8.610 -0.8649 -1.1540  0.3503
 3361TIP3    H231643   0.284   2.178   8.623  0.5243 -0.9761  2.4624
 3362TIP3   OH231644   1.995   1.837   1.465 -0.0779 -0.1838 -0.7505
 3362TIP3    H131645   1.921   1.880   1.509  1.6598  0.2059  2.0872
 3362TIP3    H231646   1.989   1.745   1.492 -0.2284 -0.4252 -1.5811
 3363TIP3   OH231647   6.653   1.366   8.051 -0.3654  0.4960 -0.8030
 3363TIP3    H131648   6.632   1.361   7.957 -1.7675  2.0636 -0.6231
 3363TIP3    H231649   6.568   1.363   8.094  0.2967 -3.5851  0.7362
 3364TIP3   OH231650   4.595   5.935   0.492 -0.5707 -0.3684  0.1354
 3364TIP3    H131651   4.634   6.015   0.457 -0.6847  0.0285  0.8901
 3364TIP3    H231652   4.543   5.900   0.420  0.2745 -0.3080 -0.5284
 3365TIP3   OH231653   3.715   2.731   8.086  0.1133 -0.6332  0.0828
 3365TIP3    H131654   3.706   2.668   8.014  0.1658  0.0235 -0.5086
 3365TIP3    H231655   3.705   2.817   8.044 -0.8276 -0.2678  1.0148
 3366TIP3   OH231656   3.712   0.992   0.000 -0.0695  0.6992  0.0015
 3366TIP3    H131657   3.732   0.899  -0.012  0.0180  0.2655  2.6871
 3366TIP3    H231658   3.797   1.033   0.013 -0.0065  1.4375 -2.4011
 3367TIP3   OH231659   0.524   5.617   2.686  0.0746  0.4568  0.3909
 3367TIP3    H131660   0.430   5.626   2.699 -0.0284 -0.3210  0.2513
 3367TIP3    H231661   0.555   5.706   2.666 -0.3270  1.0539  2.2540
 3368TIP3   OH231662   2.552   0.361   2.360  0.0499 -0.0419  0.6421
 3368TIP3    H131663   2.565   0.278   2.313 -1.4663  0.3148 -0.5104
 3368TIP3    H231664   2.640   0.394   2.376  0.6595 -0.6010 -1.2599
 3369TIP3   OH231665   3.566   1.469   1.495  0.3447 -0.1702  0.2391
 3369TIP3    H131666   3.662   1.463   1.490  0.2385 -1.1360 -1.7362
 3369TIP3    H231667   3.537   1.378   1.495 -0.5805  0.1143  1.0988
 3370TIP3   OH231668   5.579   2.509   0.509  0.0595  0.0610  0.2920
 3370TIP3    H131669   5.669   2.504   0.475 -0.4137  1.0249 -1.1700
 3370TIP3    H231670   5.531   2.442   0.460 -1.0379  2.6454 -2.4570
 3371TIP3   OH231671   1.008   6.341   2.214 -0.9363 -0.0043 -0.0813
 3371TIP3    H131672   0.949   6.332   2.139  1.9831 -1.7996 -2.4077
 3371TIP3    H231673   0.993   6.262   2.266 -1.1755 -0.0294 -0.1875
 3372TIP3   OH231674   0.665   0.660   1.679  0.2873  0.4506 -0.3061
 3372TIP3    H131675   0.682   0.655   1.585 -0.4190  1.7744 -0.5303
 3372TIP3    H231676   0.727   0.726   1.711  1.1160 -0.6067  0.3237
 3373TIP3   OH231677   4.403   3.985   0.662  0.0470  0.1950  0.5953
 3373TIP3    H131678   4.419   4.071   0.702  1.0900  0.4163 -0.2533
 3373TIP3    H231679   4.319   3.995   0.616  0.3225  0.8723  0.2265
 3374TIP3   OH231680   2.181   1.929   0.640 -0.1702 -0.5793  0.9635
 3374TIP3    H131681   2.220   1.965   0.560 -0.7635 -1.4147  0.2669
 3374TIP3    H231682   2.242   1.952   0.710  0.7772 -0.5269  0.1412
 3375TIP3   OH231683   3.806   1.821   0.061  0.1439 -0.3434  0.5153
 3375TIP3    H131684   3.847   1.906   0.047  0.4324 -0.5791 -0.0854
 3375TIP3    H231685   3.791   1.786  -0.026 -0.8994 -0.4769  0.7404
 3376TIP3   OH231686   0.149   6.520   8.446 -0.0227 -0.0582  0.2700
 3376TIP3    H131687   0.215   6.487   8.507 -0.0468 -0.5185  0.0538
 3376TIP3    H231688   0.130   6.445   8.389 -1.6562 -0.3221  1.1101
 3377TIP3   OH231689   2.866   0.839   0.819 -0.5784  0.1496 -0.0158
 3377TIP3    H131690   2.794   0.862   0.878  1.3393  3.2161  1.3902
 3377TIP3    H231691   2.907   0.763   0.859 -0.7733  0.7183  1.3295
 3378TIP3   OH231692   6.604   0.864   3.504 -0.3850  0.1039 -0.2037
 3378TIP3    H131693   6.659   0.932   3.464  1.5458  0.3365  2.5338
 3378TIP3    H231694   6.534   0.913   3.547 -0.3648  0.1625 -0.2371
 3379TIP3   OH231695   1.202   0.639   8.434  0.5390 -0.2076  0.4466
 3379TIP3    H131696   1.239   0.724   8.459 -1.1719  0.2167  1.7027
 3379TIP3    H231697   1.129   0.660   8.376  2.2975 -1.0497 -2.2522
 3380TIP3   OH231698   3.156   5.213   0.512 -0.6994 -0.1434  0.1836
 3380TIP3    H131699   3.149   5.292   0.565  0.1481 -1.1434  1.8580
 3380TIP3    H231700   3.249   5.209   0.486 -1.1683  0.5492 -1.8049
 3381TIP3   OH231701   4.794   1.992   2.206 -0.1686  0.2001  0.1292
 3381TIP3    H131702   4.737   1.947   2.144  0.2687 -1.5699  0.9615
 3381TIP3    H231703   4.735   2.047   2.258 -0.7970  0.1010 -0.4648
 3382TIP3   OH231704   4.832   6.619   1.550 -0.1415 -0.5288  0.2770
 3382TIP3    H131705   4.804   6.609   1.640  0.2516  0.2946  0.4993
 3382TIP3    H231706   4.875   6.536   1.529 -0.3346 -0.7652  0.8046
 3383TIP3   OH231707   6.556   2.531   3.612  0.1464  0.6856  0.1867
 3383TIP3    H131708   6.592   2.522   3.701 -0.0584  1.0772  0.3099
 3383TIP3    H231709   6.551   2.441   3.580  4.6239  0.6885 -1.2311
 3384TIP3   OH231710   6.124   1.691   2.316  0.1345  0.1579  0.3093
 3384TIP3    H131711   6.161   1.612   2.277 -2.6542 -0.6202 -1.0483
 3384TIP3    H231712   6.037   1.698   2.276  0.1476  3.7616  0.6072
 3385TIP3   OH231713   3.505   2.966   8.327  0.2128 -0.8875 -0.0584
 3385TIP3    H131714   3.582   2.990   8.276 -1.2389  0.4679 -1.7691
 3385TIP3    H231715   3.477   2.881   8.291  0.9247 -1.4346  0.6402
 3386TIP3   OH231716   0.456   0.357   2.958  0.0822  0.0224  0.2422
 3386TIP3    H131717   0.477   0.384   3.047  0.2709  1.3559 -0.1817
 3386TIP3    H231718   0.512   0.411   2.902  0.8596 -1.6605 -0.6610
 3387TIP3   OH231719   0.667   6.339   2.463 -0.3165 -0.2668 -0.3116
 3387TIP3    H131720   0.642   6.413   2.517  0.3254  1.0063 -1.6857
 3387TIP3    H231721   0.734   6.294   2.514 -0.5191  0.2384  0.4253
 3388TIP3   OH231722   2.101   0.517   7.859  0.1824  0.3448  0.6497
 3388TIP3    H131723   2.157   0.501   7.783 -0.7678 -1.1539  0.2068
 3388TIP3    H231724   2.149   0.479   7.933  0.0976 -0.2713  0.3960
 3389TIP3   OH231725   2.364   5.658   2.500  0.1769  0.2827 -0.3991
 3389TIP3    H131726   2.397   5.602   2.570  0.6695 -0.9915 -1.6039
 3389TIP3    H231727   2.287   5.701   2.538 -0.1661 -1.1455  0.6041
 3390TIP3   OH231728   1.131   4.946   3.110  0.3866 -0.5518  0.2008
 3390TIP3    H131729   1.074   5.017   3.079  0.8697  0.1468  0.8827
 3390TIP3    H231730   1.150   4.969   3.201  0.7978 -1.4043  0.3371
 3391TIP3   OH231731   4.872   6.126   7.693 -0.2864 -0.0811  0.0255
 3391TIP3    H131732   4.919   6.155   7.771 -1.1881 -1.2430  1.0382
 3391TIP3    H231733   4.841   6.207   7.652 -1.2263  0.4936  1.7878
 3392TIP3   OH231734   4.249   4.226   8.461 -0.2346 -0.3540  0.0354
 3392TIP3    H131735   4.252   4.310   8.415 -1.4417 -1.7091 -2.7005
 3392TIP3    H231736   4.328   4.226   8.515 -0.9913  3.1609  1.4255
 3393TIP3   OH231737   3.734   4.300   0.594  0.7621 -0.0172  0.5379
 3393TIP3    H131738   3.747   4.342   0.679  0.5679  1.9656 -0.3557
 3393TIP3    H231739   3.799   4.230   0.592  0.9619  0.0829  2.1955
 3394TIP3   OH231740   5.753   0.095   8.518 -1.1729 -0.0633  0.0195
 3394TIP3    H131741   5.810   0.172   8.524  3.6934 -2.8058 -3.7464
 3394TIP3    H231742   5.744   0.065   8.608  1.8374  1.6703  1.0599
 3395TIP3   OH231743   3.823   3.097   0.964  0.1014  0.1089  0.3073
 3395TIP3    H131744   3.903   3.109   1.014  0.1018 -2.1831  0.9703
 3395TIP3    H231745   3.765   3.050   1.023  0.3204 -3.3023 -1.9554
 3396TIP3   OH231746   3.457   4.817   3.229  0.1444 -0.5111  0.1202
 3396TIP3    H131747   3.376   4.799   3.277 -0.1650  1.0891  0.2587
 3396TIP3    H231748   3.500   4.886   3.279  1.2060 -0.7698 -0.4081
 3397TIP3   OH231749   5.620   6.127   0.641 -0.2913  0.1001 -0.0110
 3397TIP3    H131750   5.626   6.040   0.600 -1.2506  0.1460 -0.2624
 3397TIP3    H231751   5.565   6.178   0.582  0.0765  0.8242  0.2511
 3398TIP3   OH231752   2.312   6.110   1.930  0.4640  0.8761 -0.4854
 3398TIP3    H131753   2.393   6.072   1.899  0.2453  0.0068 -0.0142
 3398TIP3    H231754   2.270   6.145   1.851 -0.0925 -1.3048 -1.2110
 3399TIP3   OH231755   5.294   1.505   8.247  0.1713  0.0665 -0.0862
 3399TIP3    H131756   5.217   1.458   8.217  0.4314  0.2376 -1.0598
 3399TIP3    H231757   5.368   1.461   8.205  0.8531 -1.4148  2.4170
 3400TIP3   OH231758   0.537   4.158   1.719  0.6968 -0.1994  0.4772
 3400TIP3    H131759   0.473   4.126   1.782 -0.3473 -0.7713 -0.8314
 3400TIP3    H231760   0.559   4.082   1.666  0.2736  0.6245 -0.9234
 3401TIP3   OH231761   1.130   5.482   1.551 -0.2754  0.4049  0.4650
 3401TIP3    H131762   1.086   5.401   1.525 -1.1892  1.1321 -0.3254
 3401TIP3    H231763   1.190   5.455   1.621  1.3009 -1.4207 -1.4376
 3402TIP3   OH231764   6.539   4.444   3.089  0.2953  0.4608 -0.2596
 3402TIP3    H131765   6.470   4.382   3.110  0.9710 -0.3855 -0.4483
 3402TIP3    H231766   6.546   4.501   3.165 -1.9549  1.8739 -1.0129
 3403TIP3   OH231767   1.115   1.347   1.839 -0.5244 -0.1449 -0.1190
 3403TIP3    H131768   1.168   1.416   1.878 -0.5172 -0.8842  1.2485
 3403TIP3    H231769   1.178   1.282   1.808 -0.5274 -1.9327  3.1987
 3404TIP3   OH231770   1.275   5.046   2.372 -0.1158  0.1019  0.3265
 3404TIP3    H131771   1.273   5.065   2.466  1.4253 -0.1035  0.4382
 3404TIP3    H231772   1.304   4.955   2.366  2.0226  0.7436 -0.3270
 3405TIP3   OH231773   3.497   3.457   1.973 -0.2321  0.1726  0.1631
 3405TIP3    H131774   3.448   3.503   2.041  0.3286  0.3742  0.4429
 3405TIP3    H231775   3.581   3.437   2.014 -0.2045 -0.4694 -0.1944
 3406TIP3   OH231776   5.323   0.182   0.987 -0.4589 -0.2446  0.6975
 3406TIP3    H131777   5.398   0.221   0.942 -1.9815  0.4670 -1.4139
 3406TIP3    H231778   5.314   0.234   1.067  1.7494 -0.8951  1.4366
 3407TIP3   OH231779   4.310   2.588   1.161  0.7928 -0.0063  0.1229
 3407TIP3    H131780   4.358   2.538   1.096  0.1960  0.0930 -0.4041
 3407TIP3    H231781   4.218   2.563   1.149  0.6039  0.4612  0.5193
 3408TIP3   OH231782   0.173   6.145   8.495 -0.1088 -0.5488  0.6638
 3408TIP3    H131783   0.266   6.148   8.517 -0.1726  0.8905  0.8872
 3408TIP3    H231784   0.168   6.183   8.407 -0.5785  0.4474  1.1027
 3409TIP3   OH231785   2.602   6.818   0.154 -0.9294 -0.3665  0.1886
 3409TIP3    H131786   2.553   6.881   0.207  1.2384  0.7338  1.0208
 3409TIP3    H231787   2.632   6.752   0.217 -0.6779 -0.5862 -0.1591
 3410TIP3   OH231788   1.276   3.901   0.746  0.6315  0.8906 -0.0937
 3410TIP3    H131789   1.247   3.979   0.698  0.6042 -0.5047 -2.5469
 3410TIP3    H231790   1.203   3.840   0.738  1.9309 -0.6076 -1.3310
 3411TIP3   OH231791   6.639   6.658   1.552  0.4521  0.2878 -0.1928
 3411TIP3    H131792   6.696   6.720   1.506  0.5564 -0.0685 -0.5440
 3411TIP3    H231793   6.553   6.701   1.552  0.6426  0.6819  0.0599
 3412TIP3   OH231794   0.138   4.299   1.398  0.0911 -0.2864  0.1477
 3412TIP3    H131795   0.068   4.237   1.419 -2.7789  2.2018 -1.1714
 3412TIP3    H231796   0.124   4.372   1.459  1.6362  0.2284 -0.0804
 3413TIP3   OH231797   6.247   2.102   2.034  0.4690 -0.3452  0.6397
 3413TIP3    H131798   6.234   2.072   1.944  0.9328 -0.2642  0.5450
 3413TIP3    H231799   6.294   2.030   2.077  0.6668 -0.1890  0.6876
 3414TIP3   OH231800   3.941   5.882   2.920 -0.1834  0.0564 -0.0196
 3414TIP3    H131801   4.015   5.937   2.944  0.6868 -1.5976  1.3468
 3414TIP3    H231802   3.930   5.896   2.826  1.6947  0.5613 -0.2063
 3415TIP3   OH231803   1.626   1.075   0.580 -0.0415 -0.3319  0.4207
 3415TIP3    H131804   1.564   1.147   0.569 -0.5491 -0.9166 -0.7228
 3415TIP3    H231805   1.692   1.109   0.640 -1.1000  0.5382  1.1333
 3416TIP3   OH231806   1.626   3.111   7.710 -0.5099  0.5043 -0.3853
 3416TIP3    H131807   1.620   3.039   7.647 -1.7237 -0.8692  1.2053
 3416TIP3    H231808   1.600   3.188   7.661 -0.5313 -0.3709 -1.7966
 3417TIP3   OH231809   4.709   2.425   8.184  0.2134  0.0422 -0.0706
 3417TIP3    H131810   4.720   2.332   8.167 -0.6667 -0.4154  1.6729
 3417TIP3    H231811   4.737   2.437   8.275  0.0529  1.4326 -0.1788
 3418TIP3   OH231812   2.187   3.521   1.047  0.7650  0.2954  0.4665
 3418TIP3    H131813   2.147   3.602   1.013 -0.5288 -0.9079 -1.0472
 3418TIP3    H231814   2.215   3.474   0.968  0.1121 -1.4036  1.2145
 3419TIP3   OH231815   1.119   6.870   0.575  0.3439  0.3605  0.0726
 3419TIP3    H131816   1.071   6.810   0.632  1.0242 -2.1648 -1.8556
 3419TIP3    H231817   1.150   6.815   0.503 -0.5488  3.3535 -2.8377
 3420TIP3   OH231818   6.523   6.674   8.270  0.2920  0.3186  0.2952
 3420TIP3    H131819   6.494   6.763   8.248 -1.8774 -1.1044 -3.5510
 3420TIP3    H231820   6.606   6.664   8.224 -0.0432  0.0229 -0.2559
 3421TIP3   OH231821   1.155   1.441   1.592 -0.3896 -0.1672  0.5258
 3421TIP3    H131822   1.133   1.384   1.666 -0.0054  0.0682  0.8280
 3421TIP3    H231823   1.247   1.420   1.573 -0.8006 -1.0110 -0.5995
 3422TIP3   OH231824   0.829   6.290   0.838 -0.6144  0.2320 -0.1726
 3422TIP3    H131825   0.832   6.374   0.884  0.0847 -0.1716  0.5440
 3422TIP3    H231826   0.785   6.309   0.756  0.3732  1.5193 -0.4408
 3423TIP3   OH231827   0.964   2.220   8.523 -0.1363 -0.0323 -0.1710
 3423TIP3    H131828   0.969   2.129   8.552  0.1186  0.5765  1.8508
 3423TIP3    H231829   0.984   2.271   8.601 -1.0837  1.7894 -1.0568
 3424TIP3   OH231830   1.407   3.514   8.624 -0.3814  0.3318 -1.2783
 3424TIP3    H131831   1.466   3.441   8.606  0.5362  0.3439  1.2754
 3424TIP3    H231832   1.320   3.474   8.625 -0.0320 -0.4413 -1.3327
 3425TIP3   OH231833   0.620   6.368   2.885  0.2531  0.0125  0.1485
 3425TIP3    H131834   0.575   6.408   2.811  2.0460  1.4795 -0.2417
 3425TIP3    H231835   0.615   6.433   2.955  0.1351 -0.5911  0.7114
 3426TIP3   OH231836   6.691   4.936   2.536 -0.0396 -0.4092 -0.1599
 3426TIP3    H131837   6.699   4.860   2.593 -0.7879  0.7164  1.5316
 3426TIP3    H231838   6.782   4.962   2.519  0.2446  0.1470  1.8795
 3427TIP3   OH231839   2.437   1.100   3.047 -0.4372 -0.1299  0.2797
 3427TIP3    H131840   2.517   1.072   3.002  0.5524 -0.0553  1.8926
 3427TIP3    H231841   2.371   1.038   3.018  0.2465 -0.2981 -0.9777
 3428TIP3   OH231842   6.174   3.061   2.401 -0.0460 -0.1576 -0.4377
 3428TIP3    H131843   6.134   2.988   2.448 -1.4502  0.6794 -0.2782
 3428TIP3    H231844   6.180   3.131   2.466  1.3202 -0.1117 -0.5818
 3429TIP3   OH231845   5.217   1.058   1.643  0.1152  0.0900  0.6401
 3429TIP3    H131846   5.249   1.148   1.647 -1.9171  0.9266 -0.2697
 3429TIP3    H231847   5.194   1.038   1.734  0.0706  0.6991  0.7715
 3430TIP3   OH231848   5.349   3.318   0.268  0.1508  0.2167 -0.5522
 3430TIP3    H131849   5.372   3.346   0.179  3.1357  0.5929  0.2388
 3430TIP3    H231850   5.433   3.302   0.311 -1.2108 -0.4965  2.0675
 3431TIP3   OH231851   2.852   3.480   1.399 -0.6105  0.4691  0.3324
 3431TIP3    H131852   2.848   3.534   1.320  0.9338  0.4701  0.2212
 3431TIP3    H231853   2.768   3.436   1.403 -1.3225  1.7187 -0.4160
 3432TIP3   OH231854   3.763   4.038   8.169 -0.4111 -0.0101 -0.8378
 3432TIP3    H131855   3.828   3.993   8.114 -1.5491 -1.1097 -1.3184
 3432TIP3    H231856   3.719   4.098   8.109 -0.1748  0.3833 -0.6201
 3433TIP3   OH231857   0.425   1.994   2.206 -0.2649  0.2470  0.2444
 3433TIP3    H131858   0.447   1.909   2.167 -0.2799 -0.0207  0.8039
 3433TIP3    H231859   0.436   2.057   2.135  2.0712  0.1119  0.4079
 3434TIP3   OH231860   1.868   3.311   0.389 -0.3327  0.4360 -0.0692
 3434TIP3    H131861   1.905   3.295   0.302  0.1703  0.1120  0.1966
 3434TIP3    H231862   1.802   3.242   0.400  0.0789  0.0592  0.0736
 3435TIP3   OH231863   0.253   5.830   1.851 -0.1918  0.1426  0.4435
 3435TIP3    H131864   0.223   5.917   1.877 -1.2193 -0.0375 -0.1038
 3435TIP3    H231865   0.260   5.834   1.756  1.0570  0.0161  0.5076
 3436TIP3   OH231866   3.727   5.838   2.464 -0.3136 -0.0376 -1.0791
 3436TIP3    H131867   3.675   5.766   2.429  0.8341 -1.2003 -0.4857
 3436TIP3    H231868   3.675   5.873   2.536 -0.3559 -1.1110 -0.5698
 3437TIP3   OH231869   6.420   4.592   0.069 -0.3012 -0.5577  0.5345
 3437TIP3    H131870   6.497   4.590   0.126 -1.2656  0.2631  1.9196
 3437TIP3    H231871   6.435   4.666   0.011  0.4742 -1.1090  0.0088
 3438TIP3   OH231872   3.260   1.684   8.533  0.2989  0.1867  0.5400
 3438TIP3    H131873   3.350   1.668   8.563  0.2178  3.7346  3.3196
 3438TIP3    H231874   3.270   1.739   8.455  0.4812 -0.5335  0.0395
 3439TIP3   OH231875   4.480   1.466   2.506 -0.0685  0.1269 -0.3022
 3439TIP3    H131876   4.498   1.425   2.591 -0.1346  0.0282 -0.3370
 3439TIP3    H231877   4.412   1.531   2.525  0.0982  0.2841 -0.2307
 3440TIP3   OH231878   6.505   3.260   8.654  0.1742  0.3156 -0.3166
 3440TIP3    H131879   6.428   3.284   8.705  1.3012  3.5989  0.0196
 3440TIP3    H231880   6.511   3.326   8.585  2.3063 -0.2733 -0.7694
 3441TIP3   OH231881   6.123   3.511   3.788  0.1457 -0.0837  0.4619
 3441TIP3    H131882   6.212   3.476   3.791 -0.1337 -0.9435 -0.6943
 3441TIP3    H231883   6.128   3.586   3.729 -0.1115 -0.8340 -0.5312
 3442TIP3   OH231884   2.922   2.638   2.626  0.2438  0.4438  0.1694
 3442TIP3    H131885   2.988   2.666   2.563  0.6046  0.3717  0.5108
 3442TIP3    H231886   2.943   2.687   2.706  0.5925 -0.4301  0.6335
 3443TIP3   OH231887   1.735   1.120   2.561  0.5270  0.1340 -0.3574
 3443TIP3    H131888   1.672   1.099   2.630  2.3326 -2.6155  0.6424
 3443TIP3    H231889   1.771   1.204   2.586 -0.9085  0.5613  0.4138
 3444TIP3   OH231890   0.828   6.179   7.910 -0.1828  0.2987 -0.1534
 3444TIP3    H131891   0.835   6.210   7.819 -0.8563  1.6598  0.2339
 3444TIP3    H231892   0.761   6.235   7.949 -0.6672 -0.9653  0.9082
 3445TIP3   OH231893   1.071   6.750   1.872 -0.0080 -0.0845  0.5640
 3445TIP3    H131894   1.073   6.657   1.896 -1.1468  0.2864  2.2909
 3445TIP3    H231895   1.153   6.786   1.905  0.1027 -0.3205  0.5497
 3446TIP3   OH231896   3.675   3.008   1.174  0.0926 -0.0293 -0.9021
 3446TIP3    H131897   3.602   2.948   1.158 -1.0955  1.6157 -1.8830
 3446TIP3    H231898   3.660   3.041   1.262  0.1596 -0.3497 -0.7675
 3447TIP3   OH231899   4.967   3.495   2.455 -0.2994 -0.7754 -0.4666
 3447TIP3    H131900   5.032   3.444   2.407  0.4218  0.2932 -0.6486
 3447TIP3    H231901   4.902   3.519   2.389 -0.5292 -1.2474 -0.4225
 3448TIP3   OH231902   2.970   1.148   7.767 -0.4541 -0.1231 -0.1983
 3448TIP3    H131903   2.928   1.089   7.704 -1.2375  0.3150 -0.1030
 3448TIP3    H231904   3.051   1.104   7.791  1.0862  0.7451 -3.3019
 3449TIP3   OH231905   4.327   6.098   2.349 -0.1905 -0.6331  0.9331
 3449TIP3    H131906   4.340   6.114   2.443  0.3109 -0.7234  0.8850
 3449TIP3    H231907   4.266   6.025   2.345 -2.3166  1.0581  1.1628
 3450TIP3   OH231908   1.442   6.553   0.061  0.0156 -0.3590 -0.3272
 3450TIP3    H131909   1.414   6.604   0.137 -2.8480 -1.0476 -0.7911
 3450TIP3    H231910   1.523   6.511   0.088 -0.2378  0.4478  1.8739
 3451TIP3   OH231911   1.691   6.784   2.883 -0.3541 -0.3817 -0.0868
 3451TIP3    H131912   1.783   6.810   2.885  0.4735 -3.0249 -0.6469
 3451TIP3    H231913   1.654   6.832   2.808  0.6765  0.2849 -0.1833
 3452TIP3   OH231914   3.471   5.480   3.715  0.5299 -0.7375  0.3324
 3452TIP3    H131915   3.427   5.560   3.686 -0.2643 -1.4276 -0.4082
 3452TIP3    H231916   3.406   5.435   3.769 -0.2615 -2.4728 -1.9539
 3453TIP3   OH231917   4.260   6.407   8.629  0.3999  0.1464  0.3894
 3453TIP3    H131918   4.281   6.318   8.656  0.2117 -0.0146  0.0059
 3453TIP3    H231919   4.313   6.463   8.687  3.1907 -0.2601 -1.5420
 3454TIP3   OH231920   1.724   5.335   1.197 -0.3952 -0.4979 -0.0523
 3454TIP3    H131921   1.791   5.403   1.195 -0.2159 -0.6175  1.1780
 3454TIP3    H231922   1.648   5.375   1.155 -0.5927  0.8173  1.4573
 3455TIP3   OH231923   6.465   3.460   1.769 -0.0541 -0.3278 -0.2596
 3455TIP3    H131924   6.549   3.505   1.760  0.3284 -1.2178 -1.4224
 3455TIP3    H231925   6.477   3.401   1.844  0.5633 -0.8357 -0.7404
 3456TIP3   OH231926   2.613   2.112   0.403  0.6335  0.1528  0.9243
 3456TIP3    H131927   2.600   2.180   0.338 -0.2967 -1.5357 -0.7647
 3456TIP3    H231928   2.536   2.055   0.394  2.5173 -2.5136  0.4005
 3457TIP3   OH231929   5.769   2.299   0.091 -0.0194  0.4222  0.2924
 3457TIP3    H131930   5.703   2.329   0.154 -0.9600  1.3116 -1.0630
 3457TIP3    H231931   5.731   2.220   0.052  0.9250 -0.6078  1.3790
 3458TIP3   OH231932   6.819   3.118   1.435  0.0177  0.6995  0.2596
 3458TIP3    H131933   6.759   3.131   1.508 -0.2253  2.0885 -0.1548
 3458TIP3    H231934   6.899   3.085   1.474 -0.0612  1.5547  1.1829
 3459TIP3   OH231935   4.738   5.828   3.169 -0.1813 -0.2573 -0.3150
 3459TIP3    H131936   4.771   5.909   3.132  2.2309 -1.0697 -0.1391
 3459TIP3    H231937   4.728   5.846   3.263  1.3649 -0.4061 -0.0935
 3460TIP3   OH231938   2.210   5.565   3.596 -0.2730 -0.5426 -0.1335
 3460TIP3    H131939   2.144   5.516   3.645  0.5987 -0.1692  1.4911
 3460TIP3    H231940   2.183   5.557   3.505 -0.4621 -3.6434  0.0716
 3461TIP3   OH231941   6.085   0.932   8.037 -0.0852 -0.3828 -0.1888
 3461TIP3    H131942   6.142   1.008   8.026 -1.3435  0.5668 -0.4829
 3461TIP3    H231943   6.018   0.943   7.969 -0.4008 -1.6542 -0.1007
 3462TIP3   OH231944   5.773   2.604   2.533 -0.2992  0.2910 -0.4696
 3462TIP3    H131945   5.726   2.599   2.616 -0.8371  0.3673 -0.7618
 3462TIP3    H231946   5.851   2.657   2.552 -1.2139  1.6602 -0.3706
 3463TIP3   OH231947   1.273   4.558   1.524  0.0304 -0.5514  0.1132
 3463TIP3    H131948   1.357   4.546   1.480  0.5869 -1.8797  1.4743
 3463TIP3    H231949   1.254   4.474   1.564 -1.9260 -0.2517 -0.0796
 3464TIP3   OH231950   0.284   0.558   0.735  0.0609 -0.1026  0.6692
 3464TIP3    H131951   0.198   0.565   0.778  0.0611  0.0979  0.6386
 3464TIP3    H231952   0.312   0.649   0.723  1.0578 -0.1652  2.2118
 3465TIP3   OH231953   2.516   5.108   0.573  0.0591  0.0128  0.1666
 3465TIP3    H131954   2.608   5.081   0.577 -0.0601 -0.6208 -1.0859
 3465TIP3    H231955   2.467   5.027   0.579 -0.4234  0.3216  0.4557
 3466TIP3   OH231956   0.627   1.573   3.478  1.0261  0.3236 -0.1079
 3466TIP3    H131957   0.618   1.494   3.532  3.4593  0.1693  0.1933
 3466TIP3    H231958   0.634   1.644   3.542  0.0492  0.6429 -0.3476
 3467TIP3   OH231959   5.577   6.127   1.284 -0.3390 -0.1334 -0.2307
 3467TIP3    H131960   5.533   6.044   1.299  0.0178  0.0930  2.6888
 3467TIP3    H231961   5.525   6.192   1.332  0.0626  1.1238 -1.4247
 3468TIP3   OH231962   1.895   0.497   2.349 -0.4458 -0.2582  0.3390
 3468TIP3    H131963   1.903   0.420   2.293  4.1892  0.4670 -0.3851
 3468TIP3    H231964   1.892   0.571   2.289 -2.2400  0.3347  1.0777
 3469TIP3   OH231965   0.141   0.248   7.757 -0.1910  0.2581  0.1592
 3469TIP3    H131966   0.063   0.269   7.706 -0.8384  0.3179  1.1322
 3469TIP3    H231967   0.209   0.306   7.723 -0.0021 -1.1566 -2.0353
 3470TIP3   OH231968   1.145   4.627   3.969  0.2002  0.1404  0.2752
 3470TIP3    H131969   1.123   4.627   4.062 -1.4708 -1.6115 -0.0497
 3470TIP3    H231970   1.060   4.627   3.924  0.9713  0.9687 -1.2575
 3471TIP3   OH231971   1.807   1.884   8.356 -0.2785  0.2776 -1.1330
 3471TIP3    H131972   1.733   1.848   8.404  0.2970  2.3434  1.5105
 3471TIP3    H231973   1.772   1.904   8.269 -1.8803 -1.7654 -1.0307
 3472TIP3   OH231974   4.134   5.095   8.496 -0.0715 -0.0447  0.5235
 3472TIP3    H131975   4.093   5.089   8.583 -1.6141  0.2288 -0.1485
 3472TIP3    H231976   4.084   5.163   8.451 -1.8281 -2.6390 -1.8397
 3473TIP3   OH231977   6.610   3.224   3.248  0.0190 -0.2798  0.2582
 3473TIP3    H131978   6.592   3.239   3.341  0.4107  0.1513  0.2696
 3473TIP3    H231979   6.554   3.287   3.202  1.3210  0.9307  0.2872
 3474TIP3   OH231980   3.756   5.479   0.067 -0.7352 -0.0676 -0.1556
 3474TIP3    H131981   3.739   5.573   0.062  1.5219  0.4193  0.2731
 3474TIP3    H231982   3.826   5.464   0.004 -1.8464 -1.7183 -1.0799
 3475TIP3   OH231983   3.228   5.381   3.859  0.4760  0.3007  0.0947
 3475TIP3    H131984   3.177   5.434   3.920 -2.6748 -3.4253  1.0699
 3475TIP3    H231985   3.193   5.402   3.773 -0.8874 -0.2594  0.4914
 3476TIP3   OH231986   3.481   1.924   8.045 -0.3806  0.0305 -0.3023
 3476TIP3    H131987   3.429   1.888   7.972  0.0526 -1.9116  0.2777
 3476TIP3    H231988   3.563   1.950   8.005  1.1130 -3.8491 -0.2368
 3477TIP3   OH231989   4.140   6.635   2.899  0.5038 -0.2800  0.3343
 3477TIP3    H131990   4.073   6.698   2.927  0.0892 -0.6915  0.2790
 3477TIP3    H231991   4.193   6.621   2.977 -0.0134 -0.6246  0.6328
 3478TIP3   OH231992   2.600   1.060   0.441  0.3385  0.5678 -0.0885
 3478TIP3    H131993   2.560   0.992   0.386 -1.4216  1.7663 -0.3794
 3478TIP3    H231994   2.660   1.013   0.498  0.8687 -0.9426 -1.8180
 3479TIP3   OH231995   2.594   5.519   0.019 -0.1007  0.0731 -0.7227
 3479TIP3    H131996   2.683   5.504  -0.014 -0.5907 -1.0790 -1.5988
 3479TIP3    H231997   2.552   5.573  -0.048 -0.2906 -0.0356 -0.6925
 3480TIP3   OH231998   2.261   1.094   7.888  0.3199 -0.0493  0.4087
 3480TIP3    H131999   2.263   1.156   7.815 -1.9391 -0.8499 -0.4449
 3480TIP3    H232000   2.347   1.102   7.929  0.6477  2.5231 -0.5722
 3481TIP3   OH232001   6.035   4.065   8.246 -0.0709 -0.6590  0.2211
 3481TIP3    H132002   5.997   4.084   8.160  0.2566 -0.7504  0.0548
 3481TIP3    H232003   6.024   4.146   8.295 -1.3733 -0.9806  0.5135
 3482TIP3   OH232004   0.642   2.627   2.020 -0.0093  0.2934  0.2872
 3482TIP3    H132005   0.550   2.626   2.043  0.1470 -0.1140  0.9376
 3482TIP3    H232006   0.688   2.620   2.104  0.5998 -0.0246 -0.0597
 3483TIP3   OH232007   6.140   3.197   7.802  0.1544 -0.4208  0.1984
 3483TIP3    H132008   6.092   3.139   7.743  0.0866 -0.7821  0.5944
 3483TIP3    H232009   6.209   3.142   7.838 -0.0156 -0.3126  0.7116
 3484TIP3   OH232010   6.355   3.649   0.214 -0.1237 -0.1625  0.0200
 3484TIP3    H132011   6.283   3.672   0.273 -1.3881  1.2246 -1.8991
 3484TIP3    H232012   6.433   3.655   0.268 -1.0674  2.3852  1.2958
 3485TIP3   OH232013   5.479   6.742   0.166  0.0282 -0.0390  0.4361
 3485TIP3    H132014   5.411   6.774   0.107 -1.6817 -0.4311  2.0871
 3485TIP3    H232015   5.557   6.794   0.145 -0.8418  0.6015 -1.3438
 3486TIP3   OH232016   1.981   0.760   2.270  0.6904  0.1034  0.1486
 3486TIP3    H132017   2.063   0.772   2.317  0.2732  0.4250  0.7962
 3486TIP3    H232018   1.918   0.816   2.315 -0.5005 -1.9569  1.2228
 3487TIP3   OH232019   5.539   6.170   3.452 -0.3132 -0.6298  0.3417
 3487TIP3    H132020   5.561   6.096   3.509 -2.1782 -1.6194 -0.1636
 3487TIP3    H232021   5.618   6.182   3.399  0.2643 -1.8422  0.8614
 3488TIP3   OH232022   4.230   5.011   7.732  0.4345  0.2848  0.1322
 3488TIP3    H132023   4.247   5.085   7.790  2.1125 -0.0824  0.1613
 3488TIP3    H232024   4.145   4.976   7.761  0.4884  1.0721  1.2980
 3489TIP3   OH232025   4.640   2.132   3.288  0.2702  0.1983  0.0747
 3489TIP3    H132026   4.594   2.089   3.216 -0.1068 -0.2153  0.5556
 3489TIP3    H232027   4.727   2.093   3.288  0.3967  0.4710 -0.3877
 3490TIP3   OH232028   3.508   6.177   8.067  0.1352 -0.6157 -0.0984
 3490TIP3    H132029   3.427   6.223   8.043  1.1812  0.5817 -1.4752
 3490TIP3    H232030   3.511   6.103   8.006  1.0393  0.4665 -1.4228
 3491TIP3   OH232031   2.590   4.630   2.449 -0.1879 -0.4935 -0.1383
 3491TIP3    H132032   2.512   4.578   2.466 -0.3056  0.0591  1.0817
 3491TIP3    H232033   2.663   4.569   2.465 -0.3496 -0.6868 -0.1332
 3492TIP3   OH232034   6.588   5.941   2.562 -0.2213 -0.0769  0.0419
 3492TIP3    H132035   6.494   5.948   2.578 -0.6740 -0.5841 -2.1498
 3492TIP3    H232036   6.615   6.031   2.543 -0.6364 -0.1724 -1.0697
 3493TIP3   OH232037   5.122   4.504   1.819 -0.3564  0.5683  0.0869
 3493TIP3    H132038   5.060   4.563   1.776 -0.9884  1.1643  1.7668
 3493TIP3    H232039   5.184   4.480   1.749 -1.4112  1.3909 -1.1804
 3494TIP3   OH232040   4.950   4.085   0.127  0.1596 -0.2484 -0.1065
 3494TIP3    H132041   4.884   4.092   0.195 -0.6140 -1.3769 -0.7040
 3494TIP3    H232042   5.031   4.115   0.168 -0.4596 -0.1054  1.0370
 3495TIP3   OH232043   2.802   0.648   7.980 -0.1700 -0.5275  0.9160
 3495TIP3    H132044   2.881   0.694   7.949  0.1739 -0.3913  1.9599
 3495TIP3    H232045   2.735   0.669   7.915  0.6772 -0.7421 -0.0587
 3496TIP3   OH232046   1.977   5.480   0.841 -0.0854 -0.2912 -0.2174
 3496TIP3    H132047   2.066   5.459   0.814  0.5164  0.2203  1.2555
 3496TIP3    H232048   1.941   5.396   0.871  0.2592 -0.3230  0.1223
 3497TIP3   OH232049   1.297   3.782   2.336 -0.6071  0.1037  0.1334
 3497TIP3    H132050   1.270   3.807   2.248 -3.6382 -0.0987  0.8936
 3497TIP3    H232051   1.318   3.689   2.330  3.8940  0.9658 -1.2295
 3498TIP3   OH232052   4.908   0.576   7.775  0.1240  0.1997  0.1405
 3498TIP3    H132053   4.917   0.487   7.809 -0.0347  0.3595  0.6055
 3498TIP3    H232054   4.989   0.590   7.726  1.2230  0.6186  1.9926
 3499TIP3   OH232055   6.605   1.113   0.191  0.4638 -0.7309 -0.3243
 3499TIP3    H132056   6.589   1.202   0.159 -0.8085 -0.8851 -0.1681
 3499TIP3    H232057   6.692   1.117   0.230  1.0512  0.0649 -1.6475
 3500TIP3   OH232058   1.753   1.193   2.122  0.3745  0.4104 -0.0771
 3500TIP3    H132059   1.804   1.213   2.201  0.8637  2.5137 -0.8551
 3500TIP3    H232060   1.818   1.166   2.057  0.0823 -0.3274 -0.0722
 3501TIP3   OH232061   0.872   4.601   3.232 -0.2596  0.7089 -0.3982
 3501TIP3    H132062   0.812   4.666   3.270 -1.2760 -0.7950  0.7063
 3501TIP3    H232063   0.942   4.592   3.296 -0.4745  0.2418 -0.2240
 3502TIP3   OH232064   2.440   3.700   1.277  0.5319 -0.6904 -0.4118
 3502TIP3    H132065   2.396   3.698   1.362  2.5076 -0.9210  0.6387
 3502TIP3    H232066   2.399   3.773   1.231 -0.3100 -0.3247  0.8605
 3503TIP3   OH232067   5.106   4.632   0.534 -0.1850 -0.1084  0.4573
 3503TIP3    H132068   5.175   4.679   0.487  1.5253 -0.9136  2.0295
 3503TIP3    H232069   5.056   4.700   0.579  2.0134  0.3737  2.4004
 3504TIP3   OH232070   2.616   1.155   8.292 -0.0693  0.0904 -0.8077
 3504TIP3    H132071   2.670   1.189   8.221 -2.6867  0.9195 -2.5592
 3504TIP3    H232072   2.556   1.094   8.249 -2.0870  1.0140  0.5200
 3505TIP3   OH232073   6.729   3.819   2.665 -0.5492 -0.2905  0.5309
 3505TIP3    H132074   6.739   3.907   2.627 -0.8659  0.4445  2.0379
 3505TIP3    H232075   6.699   3.765   2.593  1.7717  0.3098 -1.0128
 3506TIP3   OH232076   4.392   3.062   0.532  0.1681  0.4005  0.5207
 3506TIP3    H132077   4.398   3.036   0.440  0.7398  0.6441  0.4866
 3506TIP3    H232078   4.298   3.057   0.552 -0.0752  1.2774 -0.3361
 3507TIP3   OH232079   2.412   2.051   0.735 -0.0894  0.0630  0.2037
 3507TIP3    H132080   2.403   2.115   0.664  2.9005  0.2965 -0.0857
 3507TIP3    H232081   2.446   2.101   0.809  0.6859 -0.8629  0.4990
 3508TIP3   OH232082   5.751   4.463   0.678  0.4893 -0.3852  0.1981
 3508TIP3    H132083   5.657   4.478   0.664  0.3935  0.0970  1.2432
 3508TIP3    H232084   5.757   4.372   0.707  0.2978 -0.2938  0.5261
 3509TIP3   OH232085   3.057   1.635   0.294  0.5429  0.1641  0.0695
 3509TIP3    H132086   2.992   1.614   0.361  1.1989 -1.0479  0.3564
 3509TIP3    H232087   3.007   1.637   0.212 -0.0459  0.3558  0.4324
 3510TIP3   OH232088   2.927   3.551   2.791  0.9912 -0.3348 -0.0805
 3510TIP3    H132089   2.849   3.527   2.841  1.0022  0.8178  0.5003
 3510TIP3    H232090   2.952   3.470   2.746  0.9282 -1.3878  1.6887
 3511TIP3   OH232091   4.420   5.194   3.176  0.2384 -0.5574 -0.3218
 3511TIP3    H132092   4.429   5.144   3.257 -0.0514  0.8126  0.5834
 3511TIP3    H232093   4.446   5.283   3.200 -0.8144  0.0887 -1.4968
 3512TIP3   OH232094   1.552   3.913   0.023 -0.4176 -0.0906 -0.0323
 3512TIP3    H132095   1.479   3.972   0.009 -0.0660  0.4418  0.3386
 3512TIP3    H232096   1.576   3.926   0.115  0.9107  0.6409 -0.4589
 3513TIP3   OH232097   5.252   3.616   1.965  0.1009 -0.2419 -0.2808
 3513TIP3    H132098   5.193   3.663   1.906  0.3204 -1.4233 -1.4959
 3513TIP3    H232099   5.246   3.663   2.048 -2.2394 -0.0757 -0.4805
 3514TIP3   OH232100   4.384   6.549   8.424  0.5096 -0.0191  0.2941
 3514TIP3    H132101   4.359   6.499   8.501 -0.8279  0.0444 -0.0822
 3514TIP3    H232102   4.339   6.506   8.351  0.1626  1.1107 -0.1755
 3515TIP3   OH232103   4.980   5.081   3.748  0.3828 -0.1490  0.5421
 3515TIP3    H132104   4.885   5.080   3.745  0.3810 -1.3090  0.4829
 3515TIP3    H232105   5.006   5.136   3.673 -0.2350  2.2649  1.9958
 3516TIP3   OH232106   1.344   2.169   2.565 -0.1918 -0.2563  0.3798
 3516TIP3    H132107   1.355   2.261   2.589  1.5303 -0.4723  0.5748
 3516TIP3    H232108   1.252   2.149   2.584  0.2624  0.4229  3.8941
 3517TIP3   OH232109   0.673   3.542   8.484  0.4115 -0.9195  0.2004
 3517TIP3    H132110   0.750   3.489   8.464  1.8540  1.0237  0.3044
 3517TIP3    H232111   0.674   3.551   8.580  1.6737  1.2564  0.0606
 3518TIP3   OH232112   2.216   0.546   0.575 -0.4986  0.2802  0.4194
 3518TIP3    H132113   2.150   0.497   0.624 -1.2542  0.1482 -0.7100
 3518TIP3    H232114   2.165   0.611   0.526  0.2902  0.6822  0.1233
 3519TIP3   OH232115   5.645   5.344   0.062 -1.0997 -0.2314  0.1028
 3519TIP3    H132116   5.716   5.281   0.050 -1.1722 -0.3364  0.2296
 3519TIP3    H232117   5.614   5.361  -0.027  1.0431  2.0865 -0.3158
 3520TIP3   OH232118   4.099   2.219   1.355 -0.2824 -0.0582  0.7505
 3520TIP3    H132119   4.006   2.241   1.345 -0.0497  1.4445  1.5200
 3520TIP3    H232120   4.140   2.302   1.382  1.4134 -0.4949 -0.3356
 3521TIP3   OH232121   1.313   1.993   2.936 -0.5870 -0.2952  0.5554
 3521TIP3    H132122   1.293   1.900   2.943 -2.3082  0.0966  1.1987
 3521TIP3    H232123   1.258   2.035   3.001  1.5202  1.0247  1.6125
 3522TIP3   OH232124   3.460   2.678   0.128  0.1032 -0.5326  0.2131
 3522TIP3    H132125   3.417   2.595   0.146 -0.4446 -0.4113 -0.4603
 3522TIP3    H232126   3.400   2.744   0.165 -1.5507 -0.2151 -2.7054
 3523TIP3   OH232127   5.681   2.498   1.752 -0.6524 -0.1420 -0.2645
 3523TIP3    H132128   5.615   2.565   1.772 -0.3300  0.0153  0.2694
 3523TIP3    H232129   5.635   2.438   1.693 -1.0746  0.3175 -0.4177
 3524TIP3   OH232130   0.105   6.795   0.752 -0.7010  1.0826  0.3913
 3524TIP3    H132131   0.173   6.828   0.811 -1.0314 -1.0004  2.0709
 3524TIP3    H232132   0.025   6.839   0.779 -0.8582  0.1084  1.6082
 3525TIP3   OH232133   2.880   2.135   0.424 -0.4782  0.3309  0.2101
 3525TIP3    H132134   2.849   2.045   0.421 -0.3991  0.3119 -0.0585
 3525TIP3    H232135   2.803   2.187   0.399 -0.7515  0.3934  1.1622
 3526TIP3   OH232136   2.107   0.578   8.397 -0.6669  0.1043 -0.8939
 3526TIP3    H132137   2.046   0.515   8.435 -3.0032  4.3563  3.5177
 3526TIP3    H232138   2.193   0.551   8.431 -1.4384 -1.0999  0.2143
 3527TIP3   OH232139   5.816   3.734   0.864 -0.3262  0.1762  0.3623
 3527TIP3    H132140   5.831   3.778   0.948  0.4574 -0.0772  0.3675
 3527TIP3    H232141   5.733   3.769   0.833  0.0275  1.3041  0.6071
 3528TIP3   OH232142   2.074   0.249   2.551 -0.2749  0.0839  0.2710
 3528TIP3    H132143   2.048   0.340   2.569  0.5785  0.6144 -0.9902
 3528TIP3    H232144   1.992   0.201   2.545 -0.7395  0.7690  0.9250
 3529TIP3   OH232145   5.955   6.178   2.102 -0.1431 -0.5251 -0.0434
 3529TIP3    H132146   6.018   6.140   2.165 -1.3639 -1.3431  0.7345
 3529TIP3    H232147   5.871   6.175   2.148 -0.8303  0.1613 -1.2153
 3530TIP3   OH232148   0.726   6.643   1.396  0.1023  0.5037  0.5521
 3530TIP3    H132149   0.793   6.611   1.458  0.5087  0.7334  0.2382
 3530TIP3    H232150   0.730   6.581   1.323 -1.6993 -0.8960  1.5549
 3531TIP3   OH232151   1.432   6.459   1.349 -0.2891 -1.0738  0.1337
 3531TIP3    H132152   1.431   6.548   1.383 -2.3455 -0.2793 -1.7446
 3531TIP3    H232153   1.417   6.469   1.255 -0.4989 -3.3938 -0.1416
 3532TIP3   OH232154   1.481   0.581   1.131 -0.1142  0.0101 -0.2874
 3532TIP3    H132155   1.434   0.613   1.207  0.1788 -0.8593  0.2766
 3532TIP3    H232156   1.572   0.607   1.146 -0.1208  0.1840 -0.5380
 3533TIP3   OH232157   6.259   4.380   2.948 -0.4329  0.3382  0.3279
 3533TIP3    H132158   6.201   4.391   2.873 -1.0109 -1.6818  0.4135
 3533TIP3    H232159   6.343   4.354   2.909 -0.7290 -0.6971  0.3373
 3534TIP3   OH232160   3.205   6.463   0.283  0.0722  0.4977 -0.5025
 3534TIP3    H132161   3.246   6.542   0.249  1.4292 -0.2063 -0.5635
 3534TIP3    H232162   3.174   6.416   0.205 -0.0225  0.5846 -0.5175
 3535TIP3   OH232163   2.725   4.176   2.936  0.1909  0.2018 -0.1236
 3535TIP3    H132164   2.696   4.112   3.001 -0.7657  1.1556  0.4234
 3535TIP3    H232165   2.795   4.225   2.981  0.6659 -0.2067 -0.4098
 3536TIP3   OH232166   4.417   2.401   2.725  0.0700  0.0197  0.3059
 3536TIP3    H132167   4.390   2.343   2.654  1.5017  0.2612 -0.4848
 3536TIP3    H232168   4.406   2.350   2.805  1.1567 -1.2953 -0.3564
 3537TIP3   OH232169   1.823   0.683   2.618 -0.4254 -0.1512 -0.1285
 3537TIP3    H132170   1.841   0.630   2.696  4.4688 -0.0061 -0.8418
 3537TIP3    H232171   1.878   0.644   2.549 -1.7621  1.8866 -2.5383
 3538TIP3   OH232172   1.096   4.624   1.318 -0.2235 -0.4537  0.1218
 3538TIP3    H132173   1.166   4.610   1.382  0.9723  0.1769 -1.0035
 3538TIP3    H232174   1.057   4.707   1.344  2.4924  1.6391 -1.7991
 3539TIP3   OH232175   6.304   1.787   2.861  0.1865 -0.4739  0.1170
 3539TIP3    H132176   6.356   1.811   2.784  2.3584 -2.1040  0.9591
 3539TIP3    H232177   6.262   1.705   2.837  0.3312 -0.6417  0.4305
 3540TIP3   OH232178   4.382   3.875   0.317 -0.1567 -0.4470 -0.1867
 3540TIP3    H132179   4.320   3.857   0.387 -0.9945 -0.9871 -1.0404
 3540TIP3    H232180   4.391   3.792   0.271  0.4126 -0.1119 -0.6970
 3541TIP3   OH232181   2.390   0.825   1.264  0.0227 -0.1601 -0.0922
 3541TIP3    H132182   2.380   0.919   1.250 -2.9989  0.4091  4.1155
 3541TIP3    H232183   2.306   0.788   1.240  1.2724 -1.9747 -1.9933
 3542TIP3   OH232184   1.323   5.974   2.516 -0.1730  0.1457  0.2840
 3542TIP3    H132185   1.401   5.967   2.461  1.3654 -0.2780  2.3859
 3542TIP3    H232186   1.257   5.922   2.470  1.2173 -0.7189 -0.8334
 3543TIP3   OH232187   2.565   6.827   0.539 -0.1414  0.3873  0.6752
 3543TIP3    H132188   2.635   6.812   0.602 -0.7385  0.0375  1.2702
 3543TIP3    H232189   2.544   6.740   0.504 -0.6243  0.4199  0.8782
 3544TIP3   OH232190   4.723   3.927   1.411 -0.1972 -0.0428 -0.1865
 3544TIP3    H132191   4.631   3.937   1.388 -0.8185 -2.0565  1.1407
 3544TIP3    H232192   4.735   3.983   1.488 -0.2910  0.2932 -0.4157
 3545TIP3   OH232193   2.027   1.811   8.584  0.0480  0.8770  0.2252
 3545TIP3    H132194   1.980   1.797   8.502  1.8173  1.1424 -0.8867
 3545TIP3    H232195   1.986   1.750   8.646 -1.0518  0.3754 -0.9516
 3546TIP3   OH232196   3.181   3.677   8.412  0.5156  0.9004  0.0319
 3546TIP3    H132197   3.104   3.720   8.376 -0.4910 -0.6492  0.2600
 3546TIP3    H232198   3.225   3.745   8.463 -0.8570  1.7334  0.1550
 3547TIP3   OH232199   0.373   6.374   1.356 -0.1143 -0.1135  0.2187
 3547TIP3    H132200   0.457   6.330   1.347  0.9675  1.9400 -0.1644
 3547TIP3    H232201   0.393   6.456   1.401 -2.0528  0.0302  0.9119
 3548TIP3   OH232202   6.773   0.709   7.505  0.1699  0.4023  0.1998
 3548TIP3    H132203   6.749   0.725   7.414  2.3620 -2.2272 -1.0160
 3548TIP3    H232204   6.864   0.739   7.511  0.0201  0.6507  1.5818
 3549TIP3   OH232205   4.074   3.449   0.835  0.3086 -0.1416 -0.5829
 3549TIP3    H132206   4.055   3.435   0.928 -1.6763  1.4189 -0.6876
 3549TIP3    H232207   4.131   3.526   0.834 -0.5011  0.4695 -0.6786
 3550TIP3   OH232208   2.948   5.426   0.192  0.1009 -0.6636 -0.4538
 3550TIP3    H132209   3.043   5.434   0.190  0.0144  0.7473  0.1056
 3550TIP3    H232210   2.932   5.334   0.214  1.3774 -0.4592  1.5595
 3551TIP3   OH232211   2.008   3.517   2.591  0.1264  0.1173  0.1122
 3551TIP3    H132212   2.022   3.612   2.601  2.1513  0.1408 -2.0665
 3551TIP3    H232213   2.003   3.503   2.497  2.4548 -2.2139  0.2287
 3552TIP3   OH232214   2.704   3.695   8.275 -0.3347  0.1242 -0.1583
 3552TIP3    H132215   2.790   3.734   8.292 -0.2684 -1.0706  2.7956
 3552TIP3    H232216   2.690   3.635   8.349 -3.2204 -0.5783 -1.1625
 3553TIP3   OH232217   4.161   3.255   3.256 -0.0433 -0.1090  0.2462
 3553TIP3    H132218   4.196   3.166   3.264 -2.3191 -1.1553 -0.5290
 3553TIP3    H232219   4.116   3.270   3.339 -1.0040 -0.3567 -0.2087
 3554TIP3   OH232220   4.620   1.195   8.567 -0.1404  0.1761  0.0886
 3554TIP3    H132221   4.537   1.154   8.544 -0.0726 -0.2552  0.6146
 3554TIP3    H232222   4.685   1.148   8.515 -0.2058  0.4365 -0.2342
 3555TIP3   OH232223   0.398   0.642   7.766 -0.1727 -0.0618 -0.8851
 3555TIP3    H132224   0.479   0.692   7.752 -0.4431  0.8045  0.4954
 3555TIP3    H232225   0.328   0.707   7.764 -0.8652 -0.7845 -1.9105
 3556TIP3   OH232226   6.324   6.158   8.024 -0.6368  0.0787  0.1848
 3556TIP3    H132227   6.311   6.126   7.935 -0.5452 -2.1919  0.9402
 3556TIP3    H232228   6.259   6.112   8.076  0.5259 -0.0405  1.5984
 3557TIP3   OH232229   1.871   5.887   2.065  0.8932 -0.0654  0.6315
 3557TIP3    H132230   1.901   5.965   2.018  0.0941  0.1703  0.4914
 3557TIP3    H232231   1.777   5.900   2.074  0.7215 -1.0994  0.4568
 3558TIP3   OH232232   3.634   2.781   3.150 -0.2852  0.1425  0.1762
 3558TIP3    H132233   3.639   2.783   3.246  0.8206 -0.1799  0.1458
 3558TIP3    H232234   3.590   2.698   3.131  1.0571 -0.6681  0.4029
 3559TIP3   OH232235   6.123   3.117   2.957  0.0982 -0.4502 -0.2908
 3559TIP3    H132236   6.074   3.071   3.026 -0.6594  1.6444  0.6627
 3559TIP3    H232237   6.193   3.161   3.004 -0.6867  1.3655 -0.7391
 3560TIP3   OH232238   3.728   5.207   2.706 -0.4899 -0.6762  0.2777
 3560TIP3    H132239   3.716   5.120   2.743  0.5199 -1.0283 -0.1868
 3560TIP3    H232240   3.823   5.222   2.709 -0.5969  0.1670 -0.1775
 3561TIP3   OH232241   6.244   0.129   0.564  0.4858  0.1807 -0.4849
 3561TIP3    H132242   6.219   0.040   0.588  0.0706  0.7813  1.4067
 3561TIP3    H232243   6.164   0.167   0.526  0.4242  0.0168 -0.5193
 3562TIP3   OH232244   6.677   4.905   8.457  0.3858 -0.3959 -0.1214
 3562TIP3    H132245   6.622   4.857   8.519  0.1928 -0.0629 -0.0327
 3562TIP3    H232246   6.689   4.844   8.384  0.0891 -0.5549 -0.0398
 3563TIP3   OH232247   5.204   3.779   3.827  0.0526  0.2952  0.0338
 3563TIP3    H132248   5.265   3.839   3.870  0.2126  0.2338 -0.1104
 3563TIP3    H232249   5.241   3.692   3.840 -1.1955 -0.0062  2.0101
 3564TIP3   OH232250   3.936   6.559   1.281  0.8409 -0.0657  0.2405
 3564TIP3    H132251   3.934   6.638   1.334  3.3678 -1.0622  2.0043
 3564TIP3    H232252   3.988   6.497   1.332 -0.6226 -2.7305 -1.2762
 3565TIP3   OH232253   5.751   1.846   1.468  0.5727 -0.3458 -0.3918
 3565TIP3    H132254   5.819   1.895   1.422 -1.8080  0.6121 -3.1660
 3565TIP3    H232255   5.705   1.912   1.520 -0.2025 -0.3233 -1.0795
 3566TIP3   OH232256   1.962   0.302   3.222  0.8325 -0.3254  0.0838
 3566TIP3    H132257   1.905   0.253   3.282  0.8478 -1.8225 -1.0552
 3566TIP3    H232258   1.905   0.371   3.188  0.6412  0.1545  1.3098
 3567TIP3   OH232259   5.142   1.745   1.228  0.8775 -0.2270  0.1162
 3567TIP3    H132260   5.142   1.798   1.308 -0.7147 -1.1563  0.7816
 3567TIP3    H232261   5.131   1.808   1.157 -1.6843  0.3677  0.9361
 3568TIP3   OH232262   2.382   1.689   1.174  0.0892 -0.3899  0.4577
 3568TIP3    H132263   2.476   1.706   1.181 -0.0397  1.3548 -1.3640
 3568TIP3    H232264   2.347   1.716   1.259  1.1137 -0.2206  0.8435
 3569TIP3   OH232265   0.951   5.350   3.509  0.8956 -0.3311  0.4379
 3569TIP3    H132266   1.012   5.409   3.554  2.6171 -0.7489 -1.2229
 3569TIP3    H232267   0.978   5.262   3.537  0.6499 -0.4863  0.1860
 3570TIP3   OH232268   4.238   1.915   2.041 -0.3462 -0.1575  0.0558
 3570TIP3    H132269   4.321   1.884   2.078 -0.3313  0.4389  0.5399
 3570TIP3    H232270   4.195   1.836   2.010  0.3518 -0.4885 -0.0954
 3571TIP3   OH232271   1.453   6.082   8.338  0.2735  0.9295  0.4231
 3571TIP3    H132272   1.429   5.995   8.306  1.2355  0.9261 -0.3591
 3571TIP3    H232273   1.432   6.141   8.266 -0.9920  1.4500  1.1986
 3572TIP3   OH232274   5.227   1.881   8.640  0.1647  0.4100 -0.3715
 3572TIP3    H132275   5.306   1.874   8.586  0.2128 -0.4836 -0.2064
 3572TIP3    H232276   5.261   1.887   8.730  0.0727  1.4374 -0.3917
 3573TIP3   OH232277   6.743   1.499   8.640 -0.5663 -0.4592 -0.2472
 3573TIP3    H132278   6.809   1.556   8.680  0.0737 -1.3059 -0.0609
 3573TIP3    H232279   6.686   1.559   8.592 -0.5920  0.4603  0.8680
 3574TIP3   OH232280   5.479   6.049   8.660  0.1252  0.3240 -0.0882
 3574TIP3    H132281   5.438   6.051   8.746  0.9175  0.8499  0.2879
 3574TIP3    H232282   5.481   6.141   8.632  0.7578  0.2743 -0.2347
 3575TIP3   OH232283   3.909   1.066   2.027 -0.0220  0.4132 -0.0975
 3575TIP3    H132284   3.977   1.012   1.986 -0.4384  0.1180 -0.4051
 3575TIP3    H232285   3.827   1.024   2.002 -0.3276  0.9037  0.0765
 3576TIP3   OH232286   0.123   5.018   8.229 -0.0978 -0.3342  0.0677
 3576TIP3    H132287   0.172   4.983   8.155 -0.0608  1.3438 -0.7564
 3576TIP3    H232288   0.041   5.049   8.190 -1.4768 -2.2295  1.2686
 3577TIP3   OH232289   4.513   5.556   1.719  0.0766  0.2276 -0.0174
 3577TIP3    H132290   4.533   5.605   1.798  0.1959  0.5120 -0.2260
 3577TIP3    H232291   4.540   5.466   1.739  1.0962  0.5052 -0.1211
 3578TIP3   OH232292   0.693   0.056   3.542  0.2830  0.1877 -0.9423
 3578TIP3    H132293   0.725   0.093   3.624  0.8225  1.3527 -1.6638
 3578TIP3    H232294   0.627  -0.008   3.570  2.4462 -1.5754  0.5409
 3579TIP3   OH232295   6.534   6.729   0.685 -0.3068  0.6022  0.7664
 3579TIP3    H132296   6.565   6.820   0.678  1.4559  0.0436  0.7199
 3579TIP3    H232297   6.498   6.722   0.773  1.9491  0.7093  1.7666
 3580TIP3   OH232298   2.821   2.405   3.214 -0.4464 -0.6968  0.2151
 3580TIP3    H132299   2.886   2.446   3.271 -0.0128 -1.1604  0.0622
 3580TIP3    H232300   2.794   2.475   3.155  2.4029 -1.2667 -1.9482
 3581TIP3   OH232301   4.122   5.944   0.694 -0.3548  0.4406  0.3153
 3581TIP3    H132302   4.048   5.885   0.698 -0.3837  0.2686 -1.7861
 3581TIP3    H232303   4.194   5.896   0.736 -0.8448 -0.3211  0.2961
 3582TIP3   OH232304   5.031   3.586   0.837  0.2325  0.4112 -0.0497
 3582TIP3    H132305   5.014   3.679   0.854  1.5074  0.9877 -1.7573
 3582TIP3    H232306   5.069   3.554   0.918  0.9728  1.6942  0.1356
 3583TIP3   OH232307   1.982   2.610   1.119 -0.1477  0.0731 -0.4032
 3583TIP3    H132308   2.062   2.559   1.108 -0.7354 -0.8732 -0.4105
 3583TIP3    H232309   1.999   2.691   1.072  0.9841  0.0923  0.0020
 3584TIP3   OH232310   4.914   6.865   7.634 -0.0394  0.1486  0.1491
 3584TIP3    H132311   4.830   6.905   7.651 -0.1725 -0.0189 -0.1015
 3584TIP3    H232312   4.929   6.806   7.708  0.0391  0.4695  0.3874
 3585TIP3   OH232313   0.816   6.118   1.352  0.0974  0.4512  0.7491
 3585TIP3    H132314   0.893   6.141   1.301 -0.3010  1.9135  0.7714
 3585TIP3    H232315   0.752   6.087   1.288  0.5071 -0.2978  0.6815
 3586TIP3   OH232316   1.536   1.865   0.537  0.3849 -0.2428  0.2211
 3586TIP3    H132317   1.444   1.862   0.510  1.1701 -1.0089 -2.7961
 3586TIP3    H232318   1.534   1.853   0.632 -2.5866 -0.5582  0.2113
 3587TIP3   OH232319   6.472   5.504   3.095 -0.1681  0.3942  0.2300
 3587TIP3    H132320   6.475   5.464   3.008 -0.2672 -1.2499  0.9503
 3587TIP3    H232321   6.564   5.507   3.123 -0.2634 -0.4665  0.6600
 3588TIP3   OH232322   1.866   6.463   1.560  0.5025  0.4537  0.6285
 3588TIP3    H132323   1.866   6.542   1.507 -1.0181  0.4786  0.6355
 3588TIP3    H232324   1.774   6.440   1.570  0.8950 -2.6073 -1.2789
 3589TIP3   OH232325   1.866   0.978   3.288 -0.3461 -0.0274  0.2159
 3589TIP3    H132326   1.778   1.013   3.301 -0.3569 -0.0089  0.0976
 3589TIP3    H232327   1.905   1.038   3.224 -0.3495 -0.2083  0.0437
 3590TIP3   OH232328   5.687   4.100   1.351 -0.2008  0.1459  0.4122
 3590TIP3    H132329   5.623   4.030   1.367 -0.9099  0.9432  1.2476
 3590TIP3    H232330   5.635   4.180   1.355  0.7454  0.7718  0.3842
 3591TIP3   OH232331   6.436   0.494   0.508 -0.3020 -0.4604  0.1900
 3591TIP3    H132332   6.514   0.449   0.475 -0.7894 -0.5347 -0.9168
 3591TIP3    H232333   6.447   0.585   0.481 -0.4922 -0.4273  0.2256
 3592TIP3   OH232334   2.177   4.609   0.608 -0.6676 -0.3350  0.5588
 3592TIP3    H132335   2.114   4.596   0.537  0.1603 -1.7886  0.0332
 3592TIP3    H232336   2.160   4.697   0.640 -1.4900  0.1205 -1.0326
 3593TIP3   OH232337   6.186   6.669   3.565  0.0120  0.3037 -0.1599
 3593TIP3    H132338   6.206   6.614   3.641 -0.6807  0.0740 -0.1365
 3593TIP3    H232339   6.239   6.632   3.494  0.0274 -0.0016  0.0079
 3594TIP3   OH232340   3.592   4.631   1.060 -0.2363  0.1712  0.4123
 3594TIP3    H132341   3.654   4.579   1.113  0.1179 -1.3628 -1.3853
 3594TIP3    H232342   3.646   4.701   1.023  0.2204 -0.5031 -0.2485
 3595TIP3   OH232343   4.283   4.170   1.706 -0.8112 -0.7320  0.2088
 3595TIP3    H132344   4.351   4.117   1.748 -0.0051 -0.3077 -0.5288
 3595TIP3    H232345   4.235   4.209   1.779  1.2727  0.9010  0.8108
 3596TIP3   OH232346   5.565   5.486   1.286  0.2089 -0.0575  0.1054
 3596TIP3    H132347   5.586   5.579   1.296 -0.1261  0.4650 -2.9306
 3596TIP3    H232348   5.649   5.442   1.286  0.3476  0.1217  2.0754
 3597TIP3   OH232349   3.713   5.746   0.112 -0.0511 -0.1547  0.1713
 3597TIP3    H132350   3.765   5.822   0.087 -1.1268  0.1765 -1.2546
 3597TIP3    H232351   3.626   5.764   0.074 -0.4988 -1.7848  0.3609
 3598TIP3   OH232352   2.714   1.945   2.689 -0.5551 -0.4665 -0.3121
 3598TIP3    H132353   2.765   1.904   2.759 -0.5119  1.1620  0.6750
 3598TIP3    H232354   2.646   1.994   2.735  0.7798  2.4382 -1.2412
 3599TIP3   OH232355   5.759   3.525   3.073 -0.2732  0.3233  0.1125
 3599TIP3    H132356   5.725   3.447   3.029  1.8921 -1.4931  1.4297
 3599TIP3    H232357   5.800   3.576   3.004 -0.3979 -0.4857 -0.5785
 3600TIP3   OH232358   5.284   5.082   3.331  0.6582  0.6794 -0.4931
 3600TIP3    H132359   5.332   5.163   3.353  3.5983 -0.9294 -0.4191
 3600TIP3    H232360   5.285   5.031   3.412 -0.6241  0.2933 -0.7035
 3601TIP3   OH232361   5.284   6.540   0.162  0.3356  0.0971  0.1566
 3601TIP3    H132362   5.217   6.549   0.094 -0.5791  2.1964  1.2245
 3601TIP3    H232363   5.350   6.606   0.140 -0.1213  1.0123  1.4152
 3602TIP3   OH232364   1.483   0.235   3.849 -0.2995 -0.1341 -0.0995
 3602TIP3    H132365   1.523   0.295   3.912  1.3509  0.5170 -1.6757
 3602TIP3    H232366   1.551   0.172   3.828 -0.5253  0.1308 -1.7885
 3603TIP3   OH232367   1.158   6.402   0.654 -0.1869  0.4654  0.1979
 3603TIP3    H132368   1.242   6.449   0.653 -0.0142  0.2258 -2.2498
 3603TIP3    H232369   1.095   6.465   0.688  1.1165  0.2806  3.2354
 3604TIP3   OH232370   4.862   2.206   1.985  0.3869  0.4750  0.1328
 3604TIP3    H132371   4.869   2.150   2.063  1.5821 -0.0468 -0.3170
 3604TIP3    H232372   4.768   2.216   1.971  0.0885 -1.9597 -0.1309
 3605TIP3   OH232373   6.487   5.075   1.585 -0.0864  0.2534  0.7328
 3605TIP3    H132374   6.481   4.981   1.605 -0.5477  0.2740  0.7209
 3605TIP3    H232375   6.549   5.109   1.649 -1.9281  0.4099  2.5539
 3606TIP3   OH232376   0.531   6.035   7.787 -0.5396  0.0907 -0.1982
 3606TIP3    H132377   0.560   6.124   7.770  0.6814 -0.2724 -0.0952
 3606TIP3    H232378   0.438   6.035   7.766 -0.7337  1.5882  0.5851
 3607TIP3   OH232379   4.288   3.501   3.374  0.1150  0.4388 -0.0446
 3607TIP3    H132380   4.252   3.578   3.418  0.4061  0.1854  0.6530
 3607TIP3    H232381   4.223   3.432   3.390 -1.2061  1.0074 -2.4477
 3608TIP3   OH232382   6.586   4.640   0.932  0.6677  0.2171  0.0340
 3608TIP3    H132383   6.627   4.716   0.889 -0.5076  1.2879  0.7206
 3608TIP3    H232384   6.592   4.570   0.867  2.6922  0.5755 -0.2471
 3609TIP3   OH232385   3.811   0.535   1.701 -0.3211 -0.3182  0.0545
 3609TIP3    H132386   3.824   0.443   1.723  0.9994 -0.2151 -0.1848
 3609TIP3    H232387   3.733   0.561   1.749  0.9853 -0.7743  2.6335
 3610TIP3   OH232388   3.526   3.534   1.450  0.4796 -0.2075  0.1456
 3610TIP3    H132389   3.621   3.530   1.445  0.6013 -0.6474  1.9761
 3610TIP3    H232390   3.504   3.479   1.526 -1.4137 -2.0312 -1.6072
 3611TIP3   OH232391   4.629   5.155   1.178 -0.3170  0.1975  0.0161
 3611TIP3    H132392   4.666   5.069   1.199  0.5958  0.5135 -0.2396
 3611TIP3    H232393   4.573   5.139   1.102 -0.4125 -0.2271  0.1735
 3612TIP3   OH232394   4.751   1.049   1.090 -0.3074  0.1495  0.3291
 3612TIP3    H132395   4.790   0.964   1.106 -0.8625 -0.3321 -0.7541
 3612TIP3    H232396   4.810   1.111   1.133 -0.5551 -0.8471  2.1940
 3613TIP3   OH232397   5.795   4.773   0.434  0.2085 -0.2734 -0.1030
 3613TIP3    H132398   5.866   4.711   0.413 -0.6582 -1.1954 -0.3831
 3613TIP3    H232399   5.841   4.854   0.457  1.4471 -1.3584  1.5417
 3614TIP3   OH232400   6.743   2.258   1.920  1.0111  0.5870  0.6514
 3614TIP3    H132401   6.724   2.171   1.955  2.6085 -0.2892 -0.5132
 3614TIP3    H232402   6.696   2.261   1.837  0.5990  1.0135  0.8993
 3615TIP3   OH232403   1.894   4.677   8.121 -0.2569 -0.1123  0.6240
 3615TIP3    H132404   1.983   4.710   8.135 -1.2256  3.4044 -0.4805
 3615TIP3    H232405   1.884   4.673   8.026 -1.1268 -1.0096  0.7328
 3616TIP3   OH232406   3.502   2.762   3.411  0.3187 -0.3698 -0.3163
 3616TIP3    H132407   3.450   2.833   3.374  2.5284  0.9489 -1.1548
 3616TIP3    H232408   3.445   2.719   3.473 -2.2711 -0.0856 -2.3316
 3617TIP3   OH232409   0.378   4.449   1.495 -0.0604  0.1336  0.3653
 3617TIP3    H132410   0.295   4.443   1.543 -1.5328  0.6694 -1.9546
 3617TIP3    H232411   0.386   4.364   1.450 -0.2755  0.7149 -0.7962
 3618TIP3   OH232412   1.289   0.601   2.086  0.2704  1.2089 -0.8422
 3618TIP3    H132413   1.266   0.693   2.102 -0.4807  0.8483  0.2312
 3618TIP3    H232414   1.314   0.567   2.172 -0.3848  0.1491 -1.0590
 3619TIP3   OH232415   5.322   4.076   2.142  0.1781  0.2089  0.3524
 3619TIP3    H132416   5.269   4.149   2.173 -0.5484  0.1075 -0.6057
 3619TIP3    H232417   5.266   3.999   2.153  1.1562 -0.3315  1.9350
 3620TIP3   OH232418   5.047   4.732   1.620 -0.2486  0.3781 -0.0443
 3620TIP3    H132419   5.009   4.818   1.602 -0.2676  0.9978  2.5022
 3620TIP3    H232420   5.140   4.749   1.634 -0.5047  0.3746  2.1304
 3621TIP3   OH232421   5.012   0.921   1.532  0.3660  0.3099 -0.0810
 3621TIP3    H132422   4.954   0.979   1.581 -0.0833  2.4535 -2.8899
 3621TIP3    H232423   5.098   0.936   1.570 -0.1005  1.1344  0.7058
 3622TIP3   OH232424   3.127   0.573   2.555 -0.2886 -0.1911 -0.3409
 3622TIP3    H132425   3.068   0.583   2.630 -1.3377 -2.8502 -0.7222
 3622TIP3    H232426   3.103   0.646   2.497 -0.8807  0.6897  0.9589
 3623TIP3   OH232427   2.946   6.577   0.430  0.1877 -0.0695 -0.1358
 3623TIP3    H132428   2.894   6.550   0.506 -0.3258 -0.7524 -0.7186
 3623TIP3    H232429   3.006   6.503   0.415  0.3347  0.0926 -0.3546
 3624TIP3   OH232430   1.466   4.917   8.400  0.4096  0.4202 -0.2037
 3624TIP3    H132431   1.451   4.828   8.370  0.2461  0.8645 -1.5100
 3624TIP3    H232432   1.550   4.941   8.362  0.0857  1.0918 -0.5035
 3625TIP3   OH232433   3.878   4.447   7.992 -0.4777 -0.2129 -0.5662
 3625TIP3    H132434   3.960   4.408   7.963  0.7146  0.0015  2.1920
 3625TIP3    H232435   3.870   4.528   7.941  0.5656 -0.6421 -1.4478
 3626TIP3   OH232436   1.718   3.999   2.973  0.2422 -0.2180  0.2523
 3626TIP3    H132437   1.648   3.935   2.959 -1.5249  1.3827  1.2497
 3626TIP3    H232438   1.795   3.947   2.995 -0.9874 -2.0058  0.5089
 3627TIP3   OH232439   1.296   2.922   0.358  0.3584  0.0898  0.3810
 3627TIP3    H132440   1.279   2.872   0.437 -1.9943  0.4604  0.1807
 3627TIP3    H232441   1.310   2.856   0.290  2.1647 -0.2263  1.0097
 3628TIP3   OH232442   2.484   0.809   1.897  0.4046 -0.0515  0.0570
 3628TIP3    H132443   2.550   0.794   1.829  2.0611  1.7938  1.1292
 3628TIP3    H232444   2.525   0.872   1.956 -1.8158  0.0806  1.5837
 3629TIP3   OH232445   4.499   3.740   0.689 -0.2101  0.2152 -0.3438
 3629TIP3    H132446   4.577   3.741   0.635  0.6923  0.9375  0.9186
 3629TIP3    H232447   4.471   3.832   0.693  0.7075  0.4656  1.6944
 3630TIP3   OH232448   5.317   5.552   2.133  0.4712 -0.2062  0.3314
 3630TIP3    H132449   5.375   5.481   2.107  1.3281  0.4913  0.3025
 3630TIP3    H232450   5.277   5.522   2.215  0.8766 -0.6929  0.3538
 3631TIP3   OH232451   4.655   0.635   2.880  0.1267 -0.1071  0.7025
 3631TIP3    H132452   4.667   0.717   2.832 -0.2927 -1.5596 -2.0747
 3631TIP3    H232453   4.739   0.619   2.922  0.3031  1.5625  1.0605
 3632TIP3   OH232454   4.521   0.902   0.113 -0.0396 -0.5207  0.6733
 3632TIP3    H132455   4.475   0.860   0.186  0.9810 -2.4354  0.2922
 3632TIP3    H232456   4.479   0.866   0.035 -0.3170  0.5708  0.3123
 3633TIP3   OH232457   4.682   3.176   3.335  0.2036  0.5825 -0.3982
 3633TIP3    H132458   4.722   3.183   3.248 -0.4699  1.8054 -0.6393
 3633TIP3    H232459   4.618   3.247   3.338 -0.3763  0.0453  0.7997
 3634TIP3   OH232460   0.867   6.547   8.440 -0.7517  0.2425  0.2474
 3634TIP3    H132461   0.928   6.523   8.370  0.3019  3.0858  0.0586
 3634TIP3    H232462   0.810   6.613   8.401 -1.9245 -0.0519  1.3618
 3635TIP3   OH232463   0.186   2.961   1.506 -0.5748 -0.3003  0.4131
 3635TIP3    H132464   0.205   2.901   1.578 -0.6523  0.4912  1.1095
 3635TIP3    H232465   0.197   2.908   1.427 -1.6912 -1.5292  1.0277
 3636TIP3   OH232466   3.692   4.243   7.991 -0.1433 -0.3356  0.2990
 3636TIP3    H132467   3.623   4.293   7.946 -0.8532 -0.7076  0.9674
 3636TIP3    H232468   3.763   4.307   8.002 -0.0116 -0.1819 -1.1758
 3637TIP3   OH232469   0.079   0.547   0.473 -0.5919  0.6603  0.2689
 3637TIP3    H132470   0.116   0.470   0.431 -0.9490  0.1422  0.8871
 3637TIP3    H232471   0.122   0.621   0.430  1.3922  0.0877  1.1897
 3638TIP3   OH232472   5.452   4.807   0.872 -0.2485 -0.2847  0.3909
 3638TIP3    H132473   5.418   4.748   0.805  1.1852  0.4947 -1.0918
 3638TIP3    H232474   5.521   4.857   0.827 -1.7837  2.9699  1.3340
 3639TIP3   OH232475   0.013   6.308   0.568  0.3552  0.2161 -0.5322
 3639TIP3    H132476  -0.028   6.394   0.581 -2.0652 -0.8777 -0.4012
 3639TIP3    H232477   0.056   6.289   0.652 -1.3358  0.2070  0.3733
 3640TIP3   OH232478   2.767   0.527   8.212 -0.0528 -0.2224  0.5622
 3640TIP3    H132479   2.677   0.559   8.217 -0.0514 -0.3846  2.0606
 3640TIP3    H232480   2.804   0.572   8.136 -1.2954  0.0679  0.0954
 3641TIP3   OH232481   0.527   2.763   0.274  0.5366 -0.1642  0.0584
 3641TIP3    H132482   0.579   2.842   0.288 -0.8816  1.0423 -1.1436
 3641TIP3    H232483   0.442   2.783   0.314  0.6883 -1.8068  1.3191
 3642TIP3   OH232484   2.049   0.677   0.938  0.3001  0.2804 -0.8674
 3642TIP3    H132485   2.040   0.694   1.032 -1.0263 -0.2083 -0.8885
 3642TIP3    H232486   2.134   0.714   0.915  0.7272  0.2455  0.5618
 3643TIP3   OH232487   2.442   2.022   1.887 -0.0872 -0.0801  0.3508
 3643TIP3    H132488   2.496   2.066   1.821 -0.0847 -1.2694 -0.4611
 3643TIP3    H232489   2.480   2.048   1.971  1.3968 -0.4365 -0.1866
 3644TIP3   OH232490   2.223   1.115   1.945 -0.1417 -0.3498 -0.1476
 3644TIP3    H132491   2.132   1.137   1.926  0.3546  3.5408  1.2186
 3644TIP3    H232492   2.219   1.050   2.015 -1.9099  1.0141  1.0731
 3645TIP3   OH232493   2.317   0.002   2.387  0.0216 -0.5905  0.0466
 3645TIP3    H132494   2.325  -0.065   2.454  0.7328 -0.4501  0.1044
 3645TIP3    H232495   2.407   0.024   2.364 -0.0978  2.1707  1.8402
 3646TIP3   OH232496   3.335   2.934   0.414 -0.0934  0.5717 -0.1294
 3646TIP3    H132497   3.269   2.878   0.371  2.3216 -0.6170 -2.6173
 3646TIP3    H232498   3.373   2.985   0.342  1.1169  1.8734  1.3587
 3647TIP3   OH232499   2.740   4.366   2.693 -0.1620 -0.1247  0.1413
 3647TIP3    H132500   2.649   4.346   2.672 -0.1018  0.0330 -0.2897
 3647TIP3    H232501   2.761   4.308   2.765 -0.5187 -0.3643  0.0587
 3648TIP3   OH232502   3.439   0.887   2.637 -0.1742  0.0011 -0.0488
 3648TIP3    H132503   3.422   0.978   2.659  1.0347  0.1072  0.5299
 3648TIP3    H232504   3.534   0.882   2.628 -0.1491 -1.3597  0.7088
 3649TIP3   OH232505   1.494   4.755   2.693  0.4923 -0.3248  0.9813
 3649TIP3    H132506   1.445   4.728   2.616 -2.1993  2.1070  1.6371
 3649TIP3    H232507   1.563   4.813   2.659 -1.2185  1.4456  0.3324
 3650TIP3   OH232508   5.016   6.697   0.805  0.7011  0.0288 -0.8140
 3650TIP3    H132509   5.094   6.723   0.757  2.3256 -2.5206  0.1908
 3650TIP3    H232510   5.005   6.763   0.873  1.0873  1.1857 -1.8483
 3651TIP3   OH232511   2.595   1.621   0.126  0.2921  0.0152  0.2624
 3651TIP3    H132512   2.564   1.587   0.209 -1.5882  1.2212  0.1204
 3651TIP3    H232513   2.554   1.565   0.060 -0.0665  0.4515  0.1100
 3652TIP3   OH232514   2.465   2.525   3.223 -0.7989  0.4058  0.2900
 3652TIP3    H132515   2.501   2.585   3.289  0.5753  0.0176 -0.0855
 3652TIP3    H232516   2.429   2.453   3.275 -0.5581  0.5417  0.6551
 3653TIP3   OH232517   5.746   1.220   8.015  0.3436 -0.0048 -0.1473
 3653TIP3    H132518   5.806   1.163   7.967 -0.1651 -0.2348 -0.5163
 3653TIP3    H232519   5.668   1.224   7.960  0.0829  0.4285  0.2483
 3654TIP3   OH232520   3.348   6.228   0.465  0.4679  0.3499  0.2009
 3654TIP3    H132521   3.336   6.290   0.538 -0.0363 -0.9953  1.3075
 3654TIP3    H232522   3.261   6.219   0.426  0.7143  0.9772 -0.5116
 3655TIP3   OH232523   0.288   2.971   0.140  0.2781  0.5415  0.3593
 3655TIP3    H132524   0.280   2.929   0.226  1.5787  1.8639  1.1760
 3655TIP3    H232525   0.320   2.902   0.082  2.8755  0.4376  1.7730
 3656TIP3   OH232526   4.809   5.551   3.120 -0.2727 -0.3267  0.7489
 3656TIP3    H132527   4.783   5.641   3.137  0.7421  0.1429 -0.0737
 3656TIP3    H232528   4.890   5.539   3.169  2.6287  1.0116 -3.2150
 3657TIP3   OH232529   1.685   3.493   8.326 -0.4136  0.1569 -0.5813
 3657TIP3    H132530   1.770   3.468   8.290 -0.4186  0.0288 -0.5040
 3657TIP3    H232531   1.629   3.504   8.249 -1.0669 -2.4305 -0.5554
 3658TIP3   OH232532   3.827   2.304   2.821  0.0960 -0.5932  0.2253
 3658TIP3    H132533   3.865   2.294   2.908  0.1451  0.1372  0.2930
 3658TIP3    H232534   3.893   2.268   2.762 -0.4968 -2.3403  0.5617
 3659TIP3   OH232535   1.984   2.282   1.800  0.9152 -0.3665  0.2371
 3659TIP3    H132536   1.955   2.341   1.730  1.3035 -1.5563 -0.9786
 3659TIP3    H232537   2.079   2.284   1.794  0.9426 -2.2077 -0.8460
 3660TIP3   OH232538   0.665   1.455   0.463 -0.6677 -0.0065 -0.2137
 3660TIP3    H132539   0.616   1.472   0.383  0.4403  0.9338 -0.7400
 3660TIP3    H232540   0.600   1.457   0.533 -1.5257  0.0325 -0.9981
 3661TIP3   OH232541   4.804   0.272   1.603  0.5730 -0.6621  0.5093
 3661TIP3    H132542   4.820   0.352   1.553 -1.9379 -0.1433  0.4004
 3661TIP3    H232543   4.834   0.292   1.692  0.5164  0.2064  0.3388
 3662TIP3   OH232544   5.631   2.467   2.725  0.2002 -0.1746 -0.5701
 3662TIP3    H132545   5.719   2.431   2.713  0.5495 -0.4971  2.3047
 3662TIP3    H232546   5.583   2.398   2.771 -1.3963  0.2505 -1.5126
 3663TIP3   OH232547   1.934   1.352   2.385 -0.1607  0.4579 -0.5390
 3663TIP3    H132548   1.847   1.379   2.355  0.5987  0.3420 -3.1558
 3663TIP3    H232549   1.989   1.429   2.370  0.2949  0.4038  0.7189
 3664TIP3   OH232550   2.430   1.241   8.529 -0.2954 -0.5227  0.2972
 3664TIP3    H132551   2.432   1.216   8.436  0.2286 -1.9671  0.6552
 3664TIP3    H232552   2.423   1.157   8.575 -0.7686  0.1928  1.5624
 3665TIP3   OH232553   6.332   2.695   1.092 -0.0412 -0.0550  0.2922
 3665TIP3    H132554   6.290   2.612   1.115  1.8977 -1.8251 -1.9422
 3665TIP3    H232555   6.426   2.679   1.105  0.4484  1.4563 -1.0457
 3666TIP3   OH232556   1.022   2.338   1.224 -0.2119 -0.3193 -0.5209
 3666TIP3    H132557   1.009   2.371   1.135 -1.4445 -0.4956 -0.4260
 3666TIP3    H232558   0.995   2.246   1.220 -1.0532 -0.1174  0.2026
 3667TIP3   OH232559   5.461   4.487   0.659 -0.1737 -0.1863 -0.1963
 3667TIP3    H132560   5.389   4.424   0.668 -1.1271  0.7720 -0.8731
 3667TIP3    H232561   5.446   4.529   0.575 -0.4317  1.9795  0.8508
 3668TIP3   OH232562   2.532   1.579   2.161 -0.4761 -0.4677  0.3926
 3668TIP3    H132563   2.557   1.671   2.150 -0.4839 -0.4608  0.4327
 3668TIP3    H232564   2.445   1.573   2.121 -0.0590 -0.6779 -0.4884
 3669TIP3   OH232565   2.102   5.528   8.662  0.1629  0.3458 -0.3725
 3669TIP3    H132566   2.139   5.612   8.636  0.9462 -0.1316 -0.8522
 3669TIP3    H232567   2.174   5.481   8.703 -0.6401  0.4405  1.2017
 3670TIP3   OH232568   1.371   0.961   0.689  0.2424  0.5522  0.5189
 3670TIP3    H132569   1.453   0.998   0.656  0.5485 -0.0163  0.6337
 3670TIP3    H232570   1.362   0.877   0.644 -0.8473  1.0968 -0.3346
 3671TIP3   OH232571   4.270   5.053   1.475  0.5006  0.1004 -0.0518
 3671TIP3    H132572   4.345   4.994   1.480  0.7822  0.4065 -0.6313
 3671TIP3    H232573   4.270   5.084   1.385 -0.8093 -0.5272 -0.2946
 3672TIP3   OH232574   5.826   5.474   0.235 -0.1920  0.3041 -0.4430
 3672TIP3    H132575   5.888   5.507   0.170  0.0388  0.1836 -0.2862
 3672TIP3    H232576   5.746   5.458   0.185  0.6570 -2.0115 -1.2004
 3673TIP3   OH232577   1.786   1.162   8.655  0.0982 -0.0263 -0.8599
 3673TIP3    H132578   1.727   1.135   8.726  0.3053 -0.1218 -0.7257
 3673TIP3    H232579   1.804   1.254   8.673  0.6895 -0.2287 -0.4120
 3674TIP3   OH232580   2.301   0.149   2.701  0.3968 -0.2451  0.2023
 3674TIP3    H132581   2.237   0.185   2.639  0.2422 -1.4096 -0.3392
 3674TIP3    H232582   2.280   0.056   2.706  2.8171 -0.9204 -0.9208
 3675TIP3   OH232583   2.523   6.126   0.133 -0.3839 -0.1292  0.2586
 3675TIP3    H132584   2.592   6.166   0.080 -0.2942 -2.6442 -1.7274
 3675TIP3    H232585   2.444   6.178   0.113  0.3357  1.0665  0.4095
 3676TIP3   OH232586   5.982   5.324   1.774  0.0860 -0.2827  0.1896
 3676TIP3    H132587   6.046   5.363   1.715  1.4635 -2.3191  0.2488
 3676TIP3    H232588   5.987   5.230   1.756 -2.0790 -0.6269  1.0220
 3677TIP3   OH232589   4.901   3.228   8.519  0.5190  0.5689  0.3054
 3677TIP3    H132590   4.884   3.135   8.531  1.6886  0.1171 -1.2621
 3677TIP3    H232591   4.977   3.247   8.573  0.4794  0.5426  0.3699
 3678TIP3   OH232592   0.842   3.830   1.675 -0.1748  0.1503 -0.2578
 3678TIP3    H132593   0.853   3.761   1.609 -2.8590 -1.0785  0.4539
 3678TIP3    H232594   0.902   3.900   1.647 -1.1221 -0.3241 -3.9640
 3679TIP3   OH232595   3.361   0.088   0.177 -0.5901  0.1407 -0.5556
 3679TIP3    H132596   3.283   0.145   0.179  0.0933  1.1420  2.0754
 3679TIP3    H232597   3.432   0.146   0.152 -0.0431  0.3112  1.2320
 3680TIP3   OH232598   2.650   5.216   1.764 -0.5291  0.4962 -0.3837
 3680TIP3    H132599   2.568   5.177   1.735  0.1287 -0.2158 -1.3615
 3680TIP3    H232600   2.626   5.303   1.794 -1.5116  0.6493 -1.5463
 3681TIP3   OH232601   3.173   6.376   3.008 -0.3572 -0.2615 -0.3585
 3681TIP3    H132602   3.185   6.470   2.999 -1.0894 -0.2298 -1.1948
 3681TIP3    H232603   3.078   6.364   3.017 -0.2740 -0.9123 -0.2668
 3682TIP3   OH232604   1.595   3.542   0.324 -0.4776  0.0177 -0.0915
 3682TIP3    H132605   1.625   3.632   0.312  2.1346 -0.5421  1.3805
 3682TIP3    H232606   1.624   3.497   0.244 -0.1644  0.1298 -0.0426
 3683TIP3   OH232607   0.055   3.400   8.224  0.4984  0.7496  0.2834
 3683TIP3    H132608  -0.000   3.435   8.155 -1.2843  1.2182  1.8561
 3683TIP3    H232609   0.010   3.320   8.251  0.9197  0.8071  1.1781
 3684TIP3   OH232610   6.633   3.504   2.793 -0.3667 -0.0350 -0.0567
 3684TIP3    H132611   6.577   3.439   2.835 -0.6094  0.4574  0.3820
 3684TIP3    H232612   6.588   3.524   2.711 -0.2339 -0.5023 -0.2473
 3685TIP3   OH232613   6.310   0.168   1.356 -0.2580  1.1395  0.1678
 3685TIP3    H132614   6.316   0.245   1.413 -0.3048  1.3207 -0.0709
 3685TIP3    H232615   6.342   0.095   1.410 -0.1107  1.3450  0.3574
 3686TIP3   OH232616   1.198   3.131   3.287  0.3773  0.7271  0.1858
 3686TIP3    H132617   1.113   3.152   3.326  0.2464 -0.3043  0.4822
 3686TIP3    H232618   1.261   3.179   3.340 -0.1311  3.4295 -1.4588
 3687TIP3   OH232619   5.601   1.699   0.886 -0.0959 -0.2131  0.1903
 3687TIP3    H132620   5.646   1.784   0.880  0.2290 -0.4799 -1.7309
 3687TIP3    H232621   5.673   1.635   0.890 -0.3101 -0.4112  2.9531
 3688TIP3   OH232622   0.114   1.836   7.878 -0.0663 -0.2212  0.5275
 3688TIP3    H132623   0.063   1.766   7.836  0.6612 -1.3450  1.4545
 3688TIP3    H232624   0.199   1.795   7.897  1.3883  1.6994 -1.3418
 3689TIP3   OH232625   3.989   2.194   0.287 -0.5545 -0.3437  0.3931
 3689TIP3    H132626   4.084   2.188   0.277 -0.3212  3.3097 -1.1319
 3689TIP3    H232627   3.977   2.243   0.369 -0.9657  0.9229 -0.3913
 3690TIP3   OH232628   3.534   6.231   1.639 -0.1524 -0.6632 -0.1605
 3690TIP3    H132629   3.549   6.250   1.731  0.9709 -0.2191 -0.4117
 3690TIP3    H232630   3.447   6.268   1.620  0.5373  1.2585  0.1947
 3691TIP3   OH232631   3.312   0.335   1.914  0.4737 -0.1667 -0.1867
 3691TIP3    H132632   3.295   0.277   1.988  0.4908  0.2501  0.1465
 3691TIP3    H232633   3.288   0.422   1.945 -0.0310 -0.0579 -0.8473
 3692TIP3   OH232634   2.585   3.752   1.706  0.0733  0.8718  0.2429
 3692TIP3    H132635   2.591   3.806   1.785  1.2450  0.0567  0.7506
 3692TIP3    H232636   2.665   3.772   1.658 -0.1776  0.6550 -0.2653
 3693TIP3   OH232637   2.207   3.504   0.092  0.4864  0.6188 -0.5227
 3693TIP3    H132638   2.144   3.548   0.149  1.0982 -1.0121  1.5279
 3693TIP3    H232639   2.181   3.529   0.004 -2.3637  0.8906  0.2959
 3694TIP3   OH232640   4.845   5.454   0.644  0.3853  1.1724 -0.0330
 3694TIP3    H132641   4.862   5.548   0.652  0.0162  1.3159 -0.8226
 3694TIP3    H232642   4.840   5.422   0.735  1.2461  1.7735  0.2292
 3695TIP3   OH232643   4.627   1.178   0.180 -0.2214  0.3629 -0.8610
 3695TIP3    H132644   4.609   1.085   0.166  0.4730  0.1211 -0.2008
 3695TIP3    H232645   4.633   1.215   0.091 -0.9579 -0.1195 -1.1234
 3696TIP3   OH232646   0.025   5.830   8.326 -0.0395 -0.3566 -0.2913
 3696TIP3    H132647   0.076   5.788   8.257  1.3403  1.0994 -0.2102
 3696TIP3    H232648  -0.023   5.900   8.282  0.5526  0.3360  0.1533
 3697TIP3   OH232649   2.252   5.183   1.827 -1.1370 -0.1339 -0.0879
 3697TIP3    H132650   2.173   5.235   1.806  1.0211  3.4104 -0.2399
 3697TIP3    H232651   2.283   5.220   1.909  1.1487 -0.3697 -0.7962
 3698TIP3   OH232652   5.429   2.912   0.847 -0.2612 -0.1492 -0.4851
 3698TIP3    H132653   5.491   2.885   0.779  1.5554  0.5615  0.7937
 3698TIP3    H232654   5.376   2.834   0.863  3.1328 -2.4000  1.3080
 3699TIP3   OH232655   2.004   2.957   1.995  0.2411 -0.1182 -0.2677
 3699TIP3    H132656   1.964   3.043   1.984  1.1006  0.3142 -0.1340
 3699TIP3    H232657   1.966   2.903   1.926 -0.5578  0.2666 -0.1470
 3700TIP3   OH232658   2.221   1.730   3.802 -0.0329  0.6423  0.1872
 3700TIP3    H132659   2.162   1.675   3.751  0.6878  0.1839 -0.1707
 3700TIP3    H232660   2.182   1.818   3.797 -0.0118  0.6001 -1.1311
 3701TIP3   OH232661   3.087   0.659   3.220  0.5961  0.0852  0.6404
 3701TIP3    H132662   3.144   0.583   3.216 -0.9762 -1.1541  1.0705
 3701TIP3    H232663   3.093   0.689   3.310 -2.8188 -2.8621  2.0869
 3702TIP3   OH232664   4.278   0.467   1.726 -0.0757  0.2631  0.0961
 3702TIP3    H132665   4.190   0.433   1.743 -0.1432  0.4885  0.2108
 3702TIP3    H232666   4.317   0.405   1.664 -0.4404  0.3464 -0.2196
 3703TIP3   OH232667   2.770   6.025   8.516 -0.3597  0.0180  0.0003
 3703TIP3    H132668   2.785   6.026   8.421 -0.4750  0.1612 -0.0177
 3703TIP3    H232669   2.723   6.106   8.533  0.1828  0.2873  0.2647
 3704TIP3   OH232670   1.044   5.987   8.295  0.3640 -0.6212  0.3037
 3704TIP3    H132671   1.004   5.994   8.208  2.2869  1.2670 -0.5273
 3704TIP3    H232672   1.011   6.063   8.342  0.5146 -0.7972  0.6970
 3705TIP3   OH232673   5.960   4.307   3.236 -0.5271 -0.1997  0.0459
 3705TIP3    H132674   6.009   4.235   3.276 -0.1129 -0.3080 -0.6557
 3705TIP3    H232675   5.943   4.367   3.309  1.2344  0.1735  0.1837
 3706TIP3   OH232676   0.794   1.746   8.446  0.7262 -0.1651  0.3406
 3706TIP3    H132677   0.714   1.743   8.499 -0.2476 -1.1692 -1.1214
 3706TIP3    H232678   0.852   1.805   8.494 -1.1165  1.0953  1.1183
 3707TIP3   OH232679   2.357   3.410   1.956  0.4790 -0.3075  0.1278
 3707TIP3    H132680   2.352   3.477   1.887 -2.4253  1.4694  1.8433
 3707TIP3    H232681   2.444   3.421   1.994  0.5057  1.7079 -0.4072
 3708TIP3   OH232682   0.426   0.751   8.356 -0.4769  0.1058 -0.0914
 3708TIP3    H132683   0.442   0.685   8.423  1.1652 -1.4889 -1.9020
 3708TIP3    H232684   0.436   0.704   8.273 -2.7999  1.8756 -1.5061
 3709TIP3   OH232685   0.698   0.865   0.891 -0.0524 -0.3772 -0.5493
 3709TIP3    H132686   0.752   0.917   0.831 -0.2163 -1.4833 -1.6857
 3709TIP3    H232687   0.759   0.805   0.932  0.0088  0.1829  0.2016
 3710TIP3   OH232688   5.990   2.550   1.050  0.7318 -0.8074  0.1511
 3710TIP3    H132689   6.050   2.563   0.977  0.2502  0.5284 -0.0447
 3710TIP3    H232690   5.906   2.582   1.017  0.4686 -0.3470  1.2310
 3711TIP3   OH232691   4.949   2.867   3.344 -0.4810  0.1232  0.3511
 3711TIP3    H132692   4.913   2.795   3.396 -2.5237 -0.3184 -1.5775
 3711TIP3    H232693   4.941   2.838   3.253 -1.1736  2.6804 -0.4709
 3712TIP3   OH232694   2.909   2.737   0.479 -0.3113  0.1077  0.2309
 3712TIP3    H132695   2.892   2.828   0.504  1.9608  0.7571 -0.3435
 3712TIP3    H232696   2.915   2.690   0.562 -2.5419  0.2047  0.5159
 3713TIP3   OH232697   3.578   1.533   0.849  0.1206 -0.5762  0.2581
 3713TIP3    H132698   3.568   1.573   0.762  0.1256 -2.3452 -0.5970
 3713TIP3    H232699   3.594   1.607   0.907 -0.8857  0.7604 -1.0733
 3714TIP3   OH232700   5.339   6.191   3.226  0.2913 -0.2764  0.5564
 3714TIP3    H132701   5.406   6.196   3.294 -0.1034 -1.9066  1.0973
 3714TIP3    H232702   5.283   6.119   3.253 -1.6647  0.9952  0.0717
 3715TIP3   OH232703   5.409   0.873   1.550  0.2934  0.0907 -0.2454
 3715TIP3    H132704   5.335   0.933   1.559 -0.4828 -0.8831  0.0962
 3715TIP3    H232705   5.383   0.795   1.600  1.6739 -0.1679  0.1245
 3716TIP3   OH232706   4.867   1.171   2.792 -0.0656 -0.1072 -0.0605
 3716TIP3    H132707   4.855   1.095   2.850 -1.4207 -0.9007 -1.3420
 3716TIP3    H232708   4.939   1.219   2.833 -0.7227 -0.8040  2.1035
 3717TIP3   OH232709   3.439   2.608   2.607 -0.2990  0.3340  0.1738
 3717TIP3    H132710   3.416   2.602   2.700 -2.3295 -1.1243 -0.3424
 3717TIP3    H232711   3.379   2.547   2.564  1.1119  0.3943 -2.0246
 3718TIP3   OH232712   4.402   0.580   3.438  0.5652  0.0441 -0.3304
 3718TIP3    H132713   4.425   0.490   3.417 -0.3311 -0.1452 -0.5760
 3718TIP3    H232714   4.485   0.628   3.439  1.1864 -1.0161  1.0032
 3719TIP3   OH232715   4.326   4.178   2.938  0.2561 -0.1748 -0.2305
 3719TIP3    H132716   4.346   4.202   3.029 -0.9463 -0.9071  0.2580
 3719TIP3    H232717   4.369   4.093   2.926  0.8346  0.1528 -0.5242
 3720TIP3   OH232718   4.997   1.107   0.054  0.2705 -0.6026  0.0880
 3720TIP3    H132719   4.953   1.023   0.065  0.8594 -0.8267  0.7761
 3720TIP3    H232720   4.992   1.148   0.140  0.0396  0.0530 -0.2278
 3721TIP3   OH232721   2.703   4.424   0.586  0.2800  0.6382  0.8544
 3721TIP3    H132722   2.722   4.501   0.532 -1.7562 -0.8319 -2.2974
 3721TIP3    H232723   2.608   4.414   0.580  0.5059 -2.2952  0.8405
 3722TIP3   OH232724   3.895   3.754   8.487  0.1205  0.5844 -0.6170
 3722TIP3    H132725   3.984   3.719   8.487  0.0011  0.2835 -0.5360
 3722TIP3    H232726   3.851   3.707   8.558  0.4180  2.0357  0.5894
 3723TIP3   OH232727   1.382   4.594   3.798  0.0337 -0.0562 -0.0055
 3723TIP3    H132728   1.318   4.591   3.869 -1.2671 -0.2569 -1.1359
 3723TIP3    H232729   1.389   4.687   3.776  1.9859  0.2765  1.6581
 3724TIP3   OH232730   5.296   5.164   3.068 -0.4709  0.5732  0.0821
 3724TIP3    H132731   5.312   5.133   3.157 -0.4338 -1.1380 -0.4840
 3724TIP3    H232732   5.201   5.168   3.060 -0.4915 -0.0212 -0.0287
 3725TIP3   OH232733   6.770   0.251   0.897  0.0829 -0.1013 -0.1860
 3725TIP3    H132734   6.684   0.293   0.890  0.3878  1.1751  2.6044
 3725TIP3    H232735   6.754   0.170   0.945  0.0273 -1.6143 -2.5905
 3726TIP3   OH232736   0.389   6.298   2.087 -0.1805 -0.2988 -0.7796
 3726TIP3    H132737   0.330   6.223   2.089 -2.8885  1.7035  0.1268
 3726TIP3    H232738   0.345   6.362   2.031  1.3604  1.1187 -0.4421
 3727TIP3   OH232739   1.939   1.805   2.713  0.1913 -0.3832 -0.3696
 3727TIP3    H132740   1.927   1.726   2.660 -0.3163 -2.7933  3.0023
 3727TIP3    H232741   2.034   1.810   2.725  0.2859  0.0099 -1.1916
 3728TIP3   OH232742   2.087   0.006   0.416 -0.3283 -0.3109 -0.1444
 3728TIP3    H132743   2.093   0.037   0.325  0.8678  1.2575  0.4154
 3728TIP3    H232744   2.062   0.084   0.466  2.4516 -0.2066  1.2886
 3729TIP3   OH232745   5.454   4.929   1.157 -0.1615 -0.5518  0.6746
 3729TIP3    H132746   5.366   4.921   1.193 -0.0510 -0.3243  1.0090
 3729TIP3    H232747   5.449   4.890   1.070 -0.6759 -0.2291  0.5568
 3730TIP3   OH232748   2.941   3.049   0.293 -0.4076  0.1738 -0.5162
 3730TIP3    H132749   2.864   3.078   0.341 -0.5910 -0.7904 -0.1963
 3730TIP3    H232750   2.970   2.970   0.340  0.3803  0.1506 -1.0206
 3731TIP3   OH232751   3.725   5.257   0.639  0.0928  0.0025  0.4663
 3731TIP3    H132752   3.788   5.223   0.576  2.1296  0.8478  1.9447
 3731TIP3    H232753   3.711   5.348   0.613  1.1675  0.4424  1.3389
 3732TIP3   OH232754   2.036   3.346   1.618 -0.1968 -0.3585  0.2804
 3732TIP3    H132755   2.076   3.338   1.704 -2.1808  0.7258  1.3746
 3732TIP3    H232756   2.016   3.439   1.609  0.0402 -0.4310 -1.4086
 3733TIP3   OH232757   1.500   4.099   2.384 -0.1542  0.1495  0.0843
 3733TIP3    H132758   1.542   4.079   2.467 -0.3080 -0.7388 -0.0390
 3733TIP3    H232759   1.548   4.048   2.319 -0.0619  0.8036 -0.3730
 3734TIP3   OH232760   1.479   2.166   8.383  0.4904  0.5938 -0.5068
 3734TIP3    H132761   1.435   2.136   8.303  0.3622  0.2117 -0.2966
 3734TIP3    H232762   1.513   2.086   8.422 -0.0605  0.6904  0.1859
 3735TIP3   OH232763   2.412   4.579   0.483  0.2147 -0.3047 -0.3667
 3735TIP3    H132764   2.469   4.640   0.530  0.6386 -0.5230 -0.5938
 3735TIP3    H232765   2.329   4.582   0.531  0.6368 -0.5114  0.3971
 3736TIP3   OH232766   2.346   4.978   2.935  0.3357 -0.0931 -0.1292
 3736TIP3    H132767   2.355   4.944   3.024 -0.6550 -0.0776 -0.0138
 3736TIP3    H232768   2.254   4.963   2.913  0.8462 -1.2374 -1.6228
 3737TIP3   OH232769   6.340   0.381   8.337  0.6345 -0.1208 -0.2657
 3737TIP3    H132770   6.347   0.475   8.351  1.3676 -0.3660  1.1035
 3737TIP3    H232771   6.359   0.369   8.244 -1.0947  1.2310 -0.8450
 3738TIP3   OH232772   6.195   0.013   0.891 -0.2117  0.0048 -0.4769
 3738TIP3    H132773   6.122  -0.026   0.940 -0.6214 -0.7167 -1.6338
 3738TIP3    H232774   6.191  -0.028   0.805  0.6898  1.0224 -1.0263
 3739TIP3   OH232775   3.498   6.128   1.379  0.0338  0.4705  0.0650
 3739TIP3    H132776   3.507   6.033   1.384 -2.6097  0.0354 -1.2101
 3739TIP3    H232777   3.537   6.160   1.460  0.1642 -1.7755  0.9782
 3740TIP3   OH232778   3.990   0.378   1.407 -0.1502  1.2316  0.4327
 3740TIP3    H132779   3.963   0.431   1.332  2.1791  1.1716 -0.5361
 3740TIP3    H232780   4.006   0.291   1.370  0.6952  1.1147  1.0549
 3741TIP3   OH232781   4.161   6.622   0.484 -0.5357  0.3457  0.4800
 3741TIP3    H132782   4.112   6.539   0.485 -3.0927  1.7243  2.3060
 3741TIP3    H232783   4.146   6.659   0.571  0.4826  2.7808 -0.3008
 3742TIP3   OH232784   6.610   3.586   0.489  0.2216  0.1397 -0.5724
 3742TIP3    H132785   6.640   3.497   0.508 -0.5423  0.1725  0.9332
 3742TIP3    H232786   6.654   3.640   0.554 -1.4741  0.4552  0.3739
 3743TIP3   OH232787   1.209   1.213   2.960  0.0427  0.1004 -0.0483
 3743TIP3    H132788   1.262   1.254   3.028  1.2631  0.6134 -1.2694
 3743TIP3    H232789   1.214   1.119   2.980  0.0959  0.2596  0.7449
 3744TIP3   OH232790   6.170   4.538   0.165 -0.4706  1.0767  0.4540
 3744TIP3    H132791   6.128   4.585   0.093 -0.0147  1.7166  0.5928
 3744TIP3    H232792   6.264   4.546   0.147 -0.3942 -0.6643 -0.0606
 3745TIP3   OH232793   5.956   0.228   2.221  0.0425  0.2041 -0.1950
 3745TIP3    H132794   6.035   0.175   2.212  1.0297  1.2884  1.5256
 3745TIP3    H232795   5.899   0.176   2.277 -0.6380 -0.7104 -1.6741
 3746TIP3   OH232796   0.519   3.604   2.595 -0.7245 -0.0698 -0.1200
 3746TIP3    H132797   0.530   3.569   2.683 -1.0813 -1.9116 -0.7572
 3746TIP3    H232798   0.606   3.600   2.556 -0.5134  0.9940  0.2084
 3747TIP3   OH232799   2.827   6.303   1.708  0.5772 -0.5271 -0.0256
 3747TIP3    H132800   2.847   6.263   1.623  1.8111 -0.0643  0.0328
 3747TIP3    H232801   2.908   6.347   1.734 -0.4277  1.1864  0.3651
 3748TIP3   OH232802   5.247   3.984   8.605 -0.2310  0.2379  0.2390
 3748TIP3    H132803   5.332   4.017   8.576 -0.1423  0.3863  0.6617
 3748TIP3    H232804   5.192   3.988   8.527 -0.4096  2.0021  0.4184
 3749TIP3   OH232805   3.717   1.143   3.095  0.3558 -0.4685 -0.0129
 3749TIP3    H132806   3.676   1.199   3.161  0.8490 -0.5452  0.3552
 3749TIP3    H232807   3.781   1.091   3.143 -0.6441 -1.9344 -0.2180
 3750TIP3   OH232808   6.622   6.275   1.186 -0.3801  0.1031 -0.0724
 3750TIP3    H132809   6.693   6.267   1.250 -0.7623 -1.0157  0.2540
 3750TIP3    H232810   6.542   6.271   1.239 -0.6955  1.7883 -0.3954
 3751TIP3   OH232811   2.844   6.321   0.120  0.1849  0.0602 -0.6262
 3751TIP3    H132812   2.829   6.283   0.033 -0.0465 -2.0092  0.2779
 3751TIP3    H232813   2.895   6.400   0.102  0.7085 -0.6606 -2.6048
 3752TIP3   OH232814   4.333   0.066   0.186 -0.1533  0.0197 -0.1371
 3752TIP3    H132815   4.403   0.057   0.251  0.2845  2.0985 -0.2471
 3752TIP3    H232816   4.321  -0.022   0.150  2.3571 -0.4107 -0.0547
 3753TIP3   OH232817   1.802   5.654   2.162 -0.1800 -0.1667  0.6143
 3753TIP3    H132818   1.712   5.665   2.193 -1.6175  0.4866 -3.2024
 3753TIP3    H232819   1.832   5.743   2.142  0.0457 -0.6098 -1.1726
 3754TIP3   OH232820   0.545   3.756   1.394 -0.0644 -0.5014  0.3837
 3754TIP3    H132821   0.498   3.808   1.329 -1.0499 -0.9626  0.7137
 3754TIP3    H232822   0.544   3.810   1.473  2.2365  0.6343 -0.2464
 3755TIP3   OH232823   5.748   3.400   8.650  0.4526 -0.0569  0.0904
 3755TIP3    H132824   5.707   3.382   8.566 -0.3516  1.0435  0.2213
 3755TIP3    H232825   5.798   3.480   8.636  0.8498 -0.2239  0.4980
 3756TIP3   OH232826   4.639   0.598   1.321 -0.1111 -0.4506  0.0858
 3756TIP3    H132827   4.710   0.650   1.358  0.4153  2.2073 -4.0583
 3756TIP3    H232828   4.561   0.627   1.370  0.7366  1.4698  0.4028
 3757TIP3   OH232829   0.795   5.153   3.680 -0.6374  0.1547 -0.3377
 3757TIP3    H132830   0.774   5.152   3.587 -1.8127 -1.5656 -0.0960
 3757TIP3    H232831   0.762   5.069   3.714  1.2656 -0.0371  1.2980
 3758TIP3   OH232832   4.376   5.438   8.559  0.0594 -0.3653 -0.3580
 3758TIP3    H132833   4.452   5.448   8.501  0.2408 -1.3526 -0.3222
 3758TIP3    H232834   4.302   5.427   8.499 -0.1082  0.8668 -0.3935
 3759TIP3   OH232835   6.632   2.909   0.869 -0.3397 -0.1736  0.4808
 3759TIP3    H132836   6.579   2.976   0.910 -0.2199  1.3367 -1.6590
 3759TIP3    H232837   6.569   2.841   0.844 -1.2271  1.1585 -1.1615
 3760TIP3   OH232838   2.184   1.945   2.843  0.1912  0.6588  0.5789
 3760TIP3    H132839   2.219   2.028   2.809  0.5058  0.2743 -0.0612
 3760TIP3    H232840   2.110   1.971   2.898  1.2252  1.4770  1.6472
 3761TIP3   OH232841   5.577   6.672   1.118 -0.3978  0.1635  0.0995
 3761TIP3    H132842   5.598   6.722   1.197 -1.1908  0.9477 -0.1719
 3761TIP3    H232843   5.641   6.702   1.053 -2.3233  2.6871 -0.7805
 3762TIP3   OH232844   1.480   0.155   1.249 -0.3584  0.1254 -0.7137
 3762TIP3    H132845   1.508   0.069   1.280  1.2844 -0.4511 -3.4236
 3762TIP3    H232846   1.515   0.217   1.313  1.0381 -1.0649 -0.2625
 3763TIP3   OH232847   3.198   1.820   1.234  0.6825  0.7035 -0.2114
 3763TIP3    H132848   3.191   1.835   1.140  1.1182  1.5294 -0.1300
 3763TIP3    H232849   3.188   1.726   1.245 -0.9192  0.7616 -0.9235
 3764TIP3   OH232850   1.607   0.121   2.408 -0.5897 -0.3802 -0.2622
 3764TIP3    H132851   1.603   0.216   2.420  2.3781 -0.1618 -0.2269
 3764TIP3    H232852   1.571   0.106   2.321  0.2910  0.9972 -0.8969
 3765TIP3   OH232853   3.252   5.092   3.049  0.0416  0.6317  0.0561
 3765TIP3    H132854   3.248   5.050   3.134 -1.6137 -0.3478 -0.4520
 3765TIP3    H232855   3.338   5.069   3.014  0.2464  0.0175  0.9443
 3766TIP3   OH232856   1.200   0.234   1.222 -0.0903 -0.5852 -0.4147
 3766TIP3    H132857   1.188   0.294   1.295  0.6465 -0.0071 -0.7535
 3766TIP3    H232858   1.287   0.197   1.235  0.6062  0.5205 -1.6883
 3767TIP3   OH232859   3.947   0.184   2.943  0.0396  0.8569  0.0816
 3767TIP3    H132860   3.891   0.258   2.919  0.4784  0.9466 -0.7101
 3767TIP3    H232861   4.003   0.171   2.866 -0.6139 -0.8464 -0.1428
 3768TIP3   OH232862   0.748   5.952   0.948  0.3463 -0.3649  0.8010
 3768TIP3    H132863   0.785   5.904   1.022 -1.6133 -0.7135  1.6207
 3768TIP3    H232864   0.757   6.044   0.972  0.3560 -0.4558  1.1443
 3769TIP3   OH232865   4.620   2.643   1.205  0.1693  0.8920  0.1760
 3769TIP3    H132866   4.529   2.627   1.231 -0.0725 -0.9654 -1.6007
 3769TIP3    H232867   4.670   2.574   1.248  0.5929  1.2869  0.3191
 3770TIP3   OH232868   2.683   1.016   2.335 -0.0146 -0.4273 -0.1755
 3770TIP3    H132869   2.603   1.038   2.286 -1.6590 -0.8409  2.1296
 3770TIP3    H232870   2.725   0.947   2.284 -0.3844  0.7432 -2.1430
 3771TIP3   OH232871   6.402   2.609   1.724  0.1728  0.0751  0.0462
 3771TIP3    H132872   6.443   2.609   1.811 -0.0205 -1.8681  0.1820
 3771TIP3    H232873   6.346   2.686   1.725 -0.3540 -0.2645  1.9267
 3772TIP3   OH232874   6.032   5.902   3.056 -0.1145  0.0142 -0.1482
 3772TIP3    H132875   5.942   5.873   3.072 -0.3077  1.5592  2.0022
 3772TIP3    H232876   6.038   5.987   3.100  2.2637  0.1888 -0.6697
 3773TIP3   OH232877   5.077   2.856   8.592  0.1197  0.2912 -0.0967
 3773TIP3    H132878   5.063   2.930   8.650  0.9392  0.1684  0.2715
 3773TIP3    H232879   4.993   2.809   8.592  0.6148 -0.7676  2.4837
 3774TIP3   OH232880   4.490   6.463   1.693 -0.5529 -0.2115  0.1389
 3774TIP3    H132881   4.452   6.390   1.741 -2.2850  0.3118 -0.3697
 3774TIP3    H232882   4.417   6.502   1.645  0.8185  0.1740 -1.7956
 3775TIP3   OH232883   2.646   6.276   8.574 -0.1072 -0.3949 -0.2868
 3775TIP3    H132884   2.661   6.370   8.577 -2.3141 -0.0031  0.2975
 3775TIP3    H232885   2.564   6.266   8.526 -0.5871 -1.9083  0.7641
 3776TIP3   OH232886   4.405   0.030   1.957 -0.7712 -1.0291  0.6132
 3776TIP3    H132887   4.311   0.028   1.971 -1.0720  0.2707 -0.9551
 3776TIP3    H232888   4.416   0.009   1.864  0.4153 -0.1763  0.5401
 3777TIP3   OH232889   0.033   1.879   2.687 -0.5093 -0.4516 -0.1704
 3777TIP3    H132890   0.007   1.833   2.767 -1.3848 -0.0267 -0.1896
 3777TIP3    H232891   0.128   1.877   2.687 -0.5078 -0.6852  0.7521
 3778TIP3   OH232892   3.557   2.210   8.139 -0.5634  0.2952 -0.1534
 3778TIP3    H132893   3.481   2.169   8.099 -0.1451 -1.0413  0.3573
 3778TIP3    H232894   3.621   2.217   8.067 -0.8863  0.7026 -0.4025
 3779TIP3   OH232895   0.633   4.086   1.307 -0.0323 -0.2592 -0.6486
 3779TIP3    H132896   0.637   4.036   1.225 -0.5473 -0.1428 -0.7471
 3779TIP3    H232897   0.544   4.072   1.340  0.6284 -1.5484  0.6848
 3780TIP3   OH232898   6.216   3.713   0.469 -0.3654  0.4696 -0.5498
 3780TIP3    H132899   6.161   3.742   0.542 -0.0628  1.6773 -0.7857
 3780TIP3    H232900   6.262   3.637   0.504 -1.0933  0.3187  0.1283
 3781TIP3   OH232901   0.455   1.928   0.025 -0.4618  0.1145 -0.0500
 3781TIP3    H132902   0.466   1.916  -0.069  0.1294 -0.0943  0.0435
 3781TIP3    H232903   0.537   1.897   0.063 -0.6268  0.3687  0.5215
 3782TIP3   OH232904   4.026   3.646   0.458 -0.0926 -0.0279  0.0931
 3782TIP3    H132905   4.024   3.669   0.366 -0.6713  1.9779  0.5742
 3782TIP3    H232906   4.103   3.691   0.493  0.2452 -0.9364  0.5625
 3783TIP3   OH232907   4.008   6.623   2.111 -0.0886  0.0341  0.2117
 3783TIP3    H132908   3.978   6.569   2.038  0.0575  0.7774 -0.4218
 3783TIP3    H232909   3.996   6.569   2.188 -1.0412 -0.4657 -0.2684
 3784TIP3   OH232910   2.199   1.328   8.215  0.3101 -0.2574  0.1941
 3784TIP3    H132911   2.218   1.392   8.284 -1.4829 -0.5287  1.0099
 3784TIP3    H232912   2.206   1.243   8.259  0.9832 -0.5359 -0.4415
 3785TIP3   OH232913   6.229   0.152   3.276 -0.5434  0.3176 -0.0659
 3785TIP3    H132914   6.194   0.174   3.362 -0.0618  1.2519 -0.0925
 3785TIP3    H232915   6.243   0.057   3.279  0.5345  0.4810  1.3077
 3786TIP3   OH232916   1.690   3.136   1.679  0.0485 -1.4204 -0.1526
 3786TIP3    H132917   1.744   3.170   1.751 -1.0457  0.4748 -0.1545
 3786TIP3    H232918   1.600   3.154   1.707 -0.4119 -0.8509 -1.8918
 3787TIP3   OH232919   1.116   2.342   4.192  0.5221  0.1781  0.1615
 3787TIP3    H132920   1.100   2.374   4.281 -0.4773 -1.5671  0.6440
 3787TIP3    H232921   1.042   2.284   4.174  2.3120 -1.9747 -0.5922
 3788TIP3   OH232922   1.628   6.000   7.883  0.4163 -0.6075 -0.7184
 3788TIP3    H132923   1.670   5.948   7.951  0.0653  1.0035  0.8247
 3788TIP3    H232924   1.661   6.089   7.897 -0.8961  0.0552 -1.6275
 3789TIP3   OH232925   5.437   0.951   2.898 -0.3437 -0.2871  0.2716
 3789TIP3    H132926   5.472   0.982   2.815 -1.3629 -0.8037 -0.3760
 3789TIP3    H232927   5.431   1.030   2.953  2.2847 -0.2542  0.6335
 3790TIP3   OH232928   1.159   6.655   0.396 -0.0254  0.4405  0.2737
 3790TIP3    H132929   1.246   6.634   0.364  0.2904 -0.3300  1.5787
 3790TIP3    H232930   1.100   6.600   0.345  0.4198 -0.4073  0.6641
 3791TIP3   OH232931   2.797   4.574   3.900 -0.5364  0.0493  0.2156
 3791TIP3    H132932   2.885   4.607   3.882 -0.9281  0.4834 -1.0651
 3791TIP3    H232933   2.811   4.493   3.950  0.6891 -0.9616 -1.6249
 3792TIP3   OH232934   6.701   3.452   1.451  0.0484  0.0161  0.0022
 3792TIP3    H132935   6.722   3.476   1.361 -0.4895 -1.6383 -0.6053
 3792TIP3    H232936   6.658   3.530   1.487  1.1184  1.0264 -0.8560
 3793TIP3   OH232937   0.024   0.319   8.613  0.1097  0.3986 -0.0903
 3793TIP3    H132938   0.018   0.251   8.546  0.6172  0.3701 -0.1141
 3793TIP3    H232939   0.117   0.322   8.635 -0.3435 -1.6074  2.6716
 3794TIP3   OH232940   0.401   2.006   0.298  0.4019 -0.3729  0.1086
 3794TIP3    H132941   0.425   1.971   0.212  0.0903 -1.5791  0.5013
 3794TIP3    H232942   0.448   2.089   0.303  0.6209 -0.3957 -1.1277
 3795TIP3   OH232943   0.490   2.421   1.170 -1.2257 -0.2091  0.1216
 3795TIP3    H132944   0.526   2.333   1.180 -2.3397 -0.7572 -0.4518
 3795TIP3    H232945   0.489   2.457   1.259  0.8960 -0.0579  0.1336
 3796TIP3   OH232946   4.157   5.708   8.448 -0.3360 -0.2336 -0.1156
 3796TIP3    H132947   4.153   5.616   8.423  1.9075 -0.4848  0.2295
 3796TIP3    H232948   4.212   5.709   8.526 -0.2291  1.4302 -0.1809
 3797TIP3   OH232949   1.114   5.273   7.989  0.1746  0.3048 -0.0923
 3797TIP3    H132950   1.189   5.281   8.047  0.6993  1.0709 -0.8563
 3797TIP3    H232951   1.048   5.227   8.041  1.3895 -0.9850  0.3643
 3798TIP3   OH232952   3.019   6.836   7.411 -0.0957 -0.2068  0.5571
 3798TIP3    H132953   3.078   6.760   7.421 -1.2627 -1.1106  0.8189
 3798TIP3    H232954   3.027   6.882   7.494 -0.9590 -1.2327  1.2362
 3799TIP3   OH232955   6.867   4.019   2.209  0.4745 -0.2578  0.2807
 3799TIP3    H132956   6.862   3.925   2.196  2.0379 -0.3519  0.1625
 3799TIP3    H232957   6.799   4.055   2.152  0.3480 -1.2772 -0.2282
 3800TIP3   OH232958   5.164   3.187   2.612 -0.0063 -0.0765 -0.4296
 3800TIP3    H132959   5.112   3.130   2.668 -0.8862 -0.9701 -2.0840
 3800TIP3    H232960   5.255   3.164   2.632 -0.3176 -0.7050  0.2824
 3801TIP3   OH232961   4.295   1.003   0.738  0.0509 -0.2388 -0.3745
 3801TIP3    H132962   4.295   0.919   0.692  0.1097  0.0676 -0.9470
 3801TIP3    H232963   4.312   1.068   0.669  1.7505  0.0979  0.3252
 3802TIP3   OH232964   2.411   0.301   1.038 -0.0710  0.1907 -0.1568
 3802TIP3    H132965   2.500   0.266   1.037 -0.5971 -1.2186  0.7099
 3802TIP3    H232966   2.409   0.362   0.964  1.9064  1.0199  0.4013
 3803TIP3   OH232967   2.799   4.838   3.989 -0.3165  0.2721 -0.3531
 3803TIP3    H132968   2.775   4.746   3.980 -0.8375 -0.0697  3.0332
 3803TIP3    H232969   2.887   4.844   3.953 -0.6429 -1.3237 -1.5030
 3804TIP3   OH232970   5.172   6.761   7.855 -0.0048  0.5245  0.4544
 3804TIP3    H132971   5.151   6.853   7.845  0.6968  0.9685  2.5596
 3804TIP3    H232972   5.119   6.732   7.929  0.3494 -0.5646  0.2990
 3805TIP3   OH232973   0.784   0.620   7.749  0.3627 -0.0711 -0.2477
 3805TIP3    H132974   0.731   0.698   7.735 -1.3267 -0.9969  0.7321
 3805TIP3    H232975   0.757   0.559   7.680 -0.8604 -1.0174  1.0020
 3806TIP3   OH232976   2.953   6.021   1.931 -0.3340  0.4428  0.7441
 3806TIP3    H132977   2.992   5.933   1.927 -0.7653  0.2743  0.1196
 3806TIP3    H232978   3.001   6.065   2.001  0.9344  0.2092  0.0566
 3807TIP3   OH232979   5.414   4.417   8.362  0.0248  0.1316 -0.4209
 3807TIP3    H132980   5.483   4.352   8.352 -0.5200 -0.4853 -0.2624
 3807TIP3    H232981   5.360   4.407   8.283 -1.5532 -1.4383  0.7955
 3808TIP3   OH232982   1.266   4.873   2.009 -0.0082 -0.0794 -0.3731
 3808TIP3    H132983   1.337   4.890   2.071 -0.0304  1.4926 -0.7231
 3808TIP3    H232984   1.259   4.778   2.005  2.1372 -0.2811 -0.3907
 3809TIP3   OH232985   5.105   6.658   8.227 -0.1835 -0.1928 -0.2662
 3809TIP3    H132986   5.039   6.726   8.216 -1.1554 -1.4679 -3.5299
 3809TIP3    H232987   5.070   6.601   8.296 -0.0652  1.7107  1.4476
 3810TIP3   OH232988   6.742   5.424   1.901 -0.0932 -0.0872 -0.4265
 3810TIP3    H132989   6.713   5.497   1.956  1.1567 -0.3782  0.6574
 3810TIP3    H232990   6.672   5.414   1.836 -0.1311  2.2603 -0.8111
 3811TIP3   OH232991   4.875   0.838   0.844 -0.1551  0.1903  0.2979
 3811TIP3    H132992   4.944   0.799   0.791 -1.4428  0.4266 -1.6650
 3811TIP3    H232993   4.905   0.829   0.934  1.7017 -1.0808 -0.4028
 3812TIP3   OH232994   6.684   0.423   0.405  0.0214  0.1739 -0.0692
 3812TIP3    H132995   6.673   0.361   0.333 -0.3185  0.4971 -0.3081
 3812TIP3    H232996   6.748   0.383   0.463 -0.0352 -0.2978 -0.3278
 3813TIP3   OH232997   2.946   0.354   3.229  0.3825  0.2894 -0.2685
 3813TIP3    H132998   2.877   0.393   3.282 -2.4774 -1.9828 -1.9828
 3813TIP3    H232999   2.977   0.278   3.279 -0.1623 -0.1047 -0.5155
 3814TIP3   OH233000   4.248   2.236   2.981  0.2637 -0.3465  0.0875
 3814TIP3    H133001   4.173   2.230   3.040  0.5879  0.0121  0.5465
 3814TIP3    H233002   4.223   2.186   2.904 -1.1360  1.1446 -0.4892
 3815TIP3   OH233003   6.169   2.063   2.885 -0.2332 -0.4028  0.1724
 3815TIP3    H133004   6.097   2.125   2.870  0.5544  1.3526  2.8872
 3815TIP3    H233005   6.128   1.977   2.878 -2.2158  0.4968 -0.0641
 3816TIP3   OH233006   1.871   4.880   0.973  0.1364 -0.2180  0.2646
 3816TIP3    H133007   1.887   4.938   1.047  1.0217  0.6993 -0.6067
 3816TIP3    H233008   1.949   4.891   0.917 -1.3321  0.6152 -1.7435
 3817TIP3   OH233009   5.538   6.510   8.616 -1.0392  0.0723  0.2814
 3817TIP3    H133010   5.537   6.431   8.562  0.1028  1.4313 -1.8912
 3817TIP3    H233011   5.460   6.559   8.589 -0.0244  1.1458 -0.8590
 3818TIP3   OH233012   1.249   6.751   3.046  0.3941 -0.0081  0.1499
 3818TIP3    H133013   1.283   6.831   3.006  0.4004  0.1540  0.4800
 3818TIP3    H233014   1.236   6.773   3.138 -0.4505 -0.1140  0.0646
 3819TIP3   OH233015   6.187   4.387   2.679 -0.0901  0.6436  0.4311
 3819TIP3    H133016   6.277   4.355   2.686 -0.5939 -0.5937  2.0256
 3819TIP3    H233017   6.165   4.376   2.587  0.2836 -2.3902  0.6022
 3820TIP3   OH233018   3.565   4.261   8.445  0.1989 -0.1423 -0.2568
 3820TIP3    H133019   3.639   4.246   8.386  1.3576  0.5974  0.9454
 3820TIP3    H233020   3.598   4.237   8.532 -1.2145 -0.4656  0.2279
 3821TIP3   OH233021   5.898   2.229   0.389 -0.3191  0.1942  0.0125
 3821TIP3    H133022   5.842   2.212   0.314  0.1657 -0.3740 -0.2307
 3821TIP3    H233023   5.918   2.142   0.425  0.4216  0.3830  0.0764
 3822TIP3   OH233024   6.007   2.099   7.939  0.9356 -0.4893  0.1549
 3822TIP3    H133025   5.992   2.032   7.872  2.1645 -0.6798  0.0502
 3822TIP3    H233026   6.045   2.173   7.891 -0.6271  0.4043  0.2279
 3823TIP3   OH233027   3.402   2.708   1.605  0.6235  0.3805  0.4385
 3823TIP3    H133028   3.370   2.640   1.664  1.7586 -0.0286  0.6111
 3823TIP3    H233029   3.353   2.694   1.524 -2.0707  1.9255  1.7016
 3824TIP3   OH233030   2.096   2.915   1.668  0.1611 -0.0340 -0.2724
 3824TIP3    H133031   2.081   2.857   1.593  0.7690  1.8210 -1.9113
 3824TIP3    H233032   2.009   2.925   1.707 -0.2417 -0.7391 -0.9449
 3825TIP3   OH233033   1.338   6.317   8.624 -0.1982  0.2069 -0.1773
 3825TIP3    H133034   1.353   6.392   8.682 -0.8360 -0.3683  0.7581
 3825TIP3    H233035   1.243   6.314   8.612 -0.3776 -1.5077  1.2752
 3826TIP3   OH233036   1.551   4.191   3.650 -0.1375  0.0515 -0.0083
 3826TIP3    H133037   1.609   4.130   3.696  0.3046  0.1979 -0.3687
 3826TIP3    H233038   1.548   4.159   3.560  0.7171  0.9929 -0.3904
 3827TIP3   OH233039   0.114   2.323   0.502  0.0271 -0.4338  0.5306
 3827TIP3    H133040   0.097   2.409   0.462 -2.8231 -2.1556 -2.4482
 3827TIP3    H233041   0.205   2.328   0.530  1.0577  2.4596 -2.6004
 3828TIP3   OH233042   5.785   3.232   2.634  0.0794  0.2989 -0.4348
 3828TIP3    H133043   5.771   3.216   2.728 -2.9254  1.6437 -0.5536
 3828TIP3    H233044   5.783   3.144   2.595 -1.5596 -0.1154  0.4837
 3829TIP3   OH233045   2.904   2.461   7.568 -0.6398 -0.7727 -0.3762
 3829TIP3    H133046   2.888   2.534   7.509  0.0717 -0.5158 -0.2547
 3829TIP3    H233047   2.999   2.450   7.568 -0.8250 -2.9618 -1.9299
 3830TIP3   OH233048   6.814   0.827   0.377 -0.2346  0.0973  0.6994
 3830TIP3    H133049   6.899   0.870   0.384 -0.3832  0.5764 -0.2602
 3830TIP3    H233050   6.771   0.844   0.461 -0.1959  1.6447  0.4333
 3831TIP3   OH233051   2.722   4.896   0.206 -0.4475 -0.4907 -0.2609
 3831TIP3    H133052   2.647   4.950   0.180 -0.3972  1.5678  3.2341
 3831TIP3    H233053   2.683   4.813   0.234 -1.5026  0.4742  1.3223
 3832TIP3   OH233054   3.107   4.222   2.242 -0.1341  0.0814 -0.1018
 3832TIP3    H133055   3.135   4.228   2.333 -1.2892  1.5658  0.2111
 3832TIP3    H233056   3.186   4.200   2.194  0.8834  1.0247  1.0704
 3833TIP3   OH233057   2.488   1.773   0.410  0.6238 -0.6629 -0.1025
 3833TIP3    H133058   2.561   1.754   0.469  1.3108 -0.8046 -0.9792
 3833TIP3    H233059   2.449   1.687   0.393 -0.8431 -0.4337  1.6840
 3834TIP3   OH233060   0.583   5.945   2.128  0.5517 -0.0401 -0.4459
 3834TIP3    H133061   0.575   5.864   2.178  0.1542  0.6235  0.6153
 3834TIP3    H233062   0.493   5.965   2.101  0.5803  0.2890 -0.2991
 3835TIP3   OH233063   0.160   3.373   0.249 -0.0446 -0.5140  0.1048
 3835TIP3    H133064   0.145   3.454   0.201  2.3930 -1.5444 -2.7593
 3835TIP3    H233065   0.111   3.307   0.199  0.5236 -1.2770  0.5382
 3836TIP3   OH233066   2.482   6.013   2.390 -0.1493  0.2616  0.3840
 3836TIP3    H133067   2.417   6.015   2.461  2.6049 -0.4299  3.1655
 3836TIP3    H233068   2.533   5.933   2.407  0.0003 -0.5327 -3.1295
 3837TIP3   OH233069   3.821   4.525   8.614 -0.0767  0.7522 -0.2998
 3837TIP3    H133070   3.828   4.435   8.645  1.6634 -0.0252 -2.6356
 3837TIP3    H233071   3.843   4.520   8.521  1.7519  3.7708 -0.1841
 3838TIP3   OH233072   2.405   2.524   2.208 -0.0547  0.4534  0.0929
 3838TIP3    H133073   2.420   2.576   2.287  1.8703 -1.1735  0.9037
 3838TIP3    H233074   2.370   2.441   2.241  0.7622 -0.2450 -0.7399
 3839TIP3   OH233075   4.332   6.768   8.571  0.0025 -0.3909  0.0370
 3839TIP3    H133076   4.340   6.709   8.496 -0.0279  0.9623 -1.0850
 3839TIP3    H233077   4.422   6.789   8.595  0.0293 -1.4970  0.9592
 3840TIP3   OH233078   4.475   1.766   2.187 -0.5111  0.5832  0.7415
 3840TIP3    H133079   4.490   1.672   2.197 -0.1956  0.6585  0.9963
 3840TIP3    H233080   4.525   1.792   2.110  0.1773  0.7156  1.2218
 3841TIP3   OH233081   4.264   4.391   0.216  0.3957  0.2415  0.0844
 3841TIP3    H133082   4.247   4.340   0.295  1.8852  0.0468  0.3004
 3841TIP3    H233083   4.178   4.403   0.177 -0.3183 -0.0265  1.5054
 3842TIP3   OH233084   0.494   2.442   2.777 -0.0412  0.1506 -0.4917
 3842TIP3    H133085   0.446   2.368   2.741 -0.7914  0.7591 -0.7749
 3842TIP3    H233086   0.586   2.422   2.760 -0.2643 -0.5339 -0.9110
 3843TIP3   OH233087   1.412   5.546   4.181 -0.4679 -0.2126  0.2043
 3843TIP3    H133088   1.379   5.532   4.093 -0.1385  0.2613  0.0042
 3843TIP3    H233089   1.469   5.471   4.197  0.1538  0.1330 -0.3212
 3844TIP3   OH233090   1.835   0.357   8.155  0.1903 -0.0954 -0.1548
 3844TIP3    H133091   1.904   0.293   8.135 -1.7669 -2.2814 -0.4282
 3844TIP3    H233092   1.800   0.381   8.070 -0.3709 -0.1982  0.0438
 3845TIP3   OH233093   1.525   6.643   8.451 -0.0466  0.5880 -0.6688
 3845TIP3    H133094   1.460   6.590   8.405  2.1148 -2.6187 -0.3616
 3845TIP3    H233095   1.491   6.651   8.540 -0.0485 -1.1502 -0.4807
 3846TIP3   OH233096   0.455   4.400   1.766  0.1717 -0.5691  0.3877
 3846TIP3    H133097   0.519   4.329   1.763  2.0557  0.9555  1.4269
 3846TIP3    H233098   0.427   4.412   1.675  0.3777 -2.1342  0.1037
 3847TIP3   OH233099   2.899   3.520   8.474 -0.6103  0.0447 -0.0533
 3847TIP3    H133100   2.816   3.551   8.511 -0.6197 -1.1072  0.9438
 3847TIP3    H233101   2.961   3.525   8.546 -0.0922 -0.2351 -0.4689
 3848TIP3   OH233102   4.957   6.273   2.405 -0.4062  0.1320 -0.5636
 3848TIP3    H133103   5.005   6.226   2.337  2.9704  0.9977  0.9645
 3848TIP3    H233104   4.918   6.204   2.459  3.1396 -1.1205  0.7397
 3849TIP3   OH233105   1.440   2.722   2.925 -0.1268  0.1949  0.4092
 3849TIP3    H133106   1.433   2.789   2.993 -0.3398  0.6037 -0.0056
 3849TIP3    H233107   1.423   2.769   2.843  1.0513 -0.1012 -0.0224
 3850TIP3   OH233108   5.886   3.672   1.355  0.4527 -0.1308 -0.3877
 3850TIP3    H133109   5.980   3.661   1.345  0.6153  1.9239 -1.6153
 3850TIP3    H233110   5.875   3.712   1.442  0.5643 -1.5110  0.2906
 3851TIP3   OH233111   1.669   4.373   8.376 -0.2340 -0.6104  0.5977
 3851TIP3    H133112   1.665   4.294   8.431 -3.0357  0.1362  1.6281
 3851TIP3    H233113   1.699   4.341   8.291  4.2251 -1.8297  2.3085
 3852TIP3   OH233114   1.937   5.926   0.499 -0.4060  0.3193 -0.2171
 3852TIP3    H133115   2.025   5.957   0.518 -0.1961 -0.7823  0.7000
 3852TIP3    H233116   1.950   5.840   0.460 -1.0583  0.2986 -0.3954
 3853TIP3   OH233117   2.031   6.711   1.848  0.6077  0.0687 -0.1019
 3853TIP3    H133118   2.007   6.801   1.870 -0.0211 -0.1222  0.0126
 3853TIP3    H233119   2.096   6.720   1.778  2.9754  0.6994  2.0203
 3854TIP3   OH233120   1.376   6.556   0.718  0.1087  0.0254  0.1548
 3854TIP3    H133121   1.394   6.644   0.748 -0.4521  0.2212 -0.0718
 3854TIP3    H233122   1.429   6.546   0.639 -0.0672  0.2779  0.0015
 3855TIP3   OH233123   3.792   5.675   7.585 -0.2462 -0.2993  0.0290
 3855TIP3    H133124   3.713   5.728   7.583 -0.4031 -0.5260  0.1922
 3855TIP3    H233125   3.769   5.599   7.638  0.1889 -0.1997  0.3617
 3856TIP3   OH233126   4.492   4.029   0.017 -0.5455 -0.2081  0.6962
 3856TIP3    H133127   4.465   4.120   0.029 -0.0002 -0.0496  0.7317
 3856TIP3    H233128   4.587   4.030   0.026  0.1093 -0.0109 -3.9371
 3857TIP3   OH233129   1.423   1.995   1.376 -0.2931  0.3274  0.3969
 3857TIP3    H133130   1.480   1.922   1.401  1.1896  0.7578 -1.4646
 3857TIP3    H233131   1.354   1.954   1.323  1.5458  0.3420 -2.2276
 3858TIP3   OH233132   1.061   1.608   2.643  0.4399  0.1501  0.7890
 3858TIP3    H133133   1.066   1.703   2.634 -1.2119  0.2499  0.6767
 3858TIP3    H233134   1.069   1.592   2.737  2.3089  0.2390  0.6960
 3859TIP3   OH233135   6.330   3.106   3.361  0.0778  0.2348  0.2681
 3859TIP3    H133136   6.370   3.178   3.410 -0.8944  0.5032  0.6840
 3859TIP3    H233137   6.238   3.108   3.386  0.3071 -2.1456  1.5245
 3860TIP3   OH233138   1.821   1.669   3.787 -0.1957  0.7908 -0.2462
 3860TIP3    H133139   1.780   1.748   3.823 -0.0496  0.4128  0.7614
 3860TIP3    H233140   1.875   1.702   3.715  0.7057  1.7565  0.8384
 3861TIP3   OH233141   2.435   4.759   7.540  0.3619 -0.2082  0.1208
 3861TIP3    H133142   2.480   4.833   7.499 -0.7160  0.1701 -0.4249
 3861TIP3    H233143   2.496   4.686   7.529  0.8355  0.2733 -0.6288
 3862TIP3   OH233144   3.547   0.451   8.507  0.1698  0.2451  0.1196
 3862TIP3    H133145   3.605   0.476   8.579  1.2887 -1.3130 -0.1862
 3862TIP3    H233146   3.606   0.427   8.436 -0.8105 -1.6402 -0.1261
 3863TIP3   OH233147   0.071   4.556   2.615 -0.0634  0.0604 -0.2955
 3863TIP3    H133148   0.165   4.569   2.621  0.1689 -0.7604 -1.6695
 3863TIP3    H233149   0.054   4.546   2.521 -1.5977  0.7006 -0.1178
 3864TIP3   OH233150   1.669   5.008   1.998 -0.2722  0.0590  0.3211
 3864TIP3    H133151   1.616   4.960   2.063 -0.9866 -0.1559 -0.4059
 3864TIP3    H233152   1.638   5.098   2.005 -1.4544 -0.2358 -0.7787
 3865TIP3   OH233153   4.681   2.263   8.551 -0.3649 -0.0334  0.1166
 3865TIP3    H133154   4.747   2.329   8.528 -0.0353 -1.0484 -2.1322
 3865TIP3    H233155   4.664   2.278   8.643  1.0123  2.0350  0.1166
 3866TIP3   OH233156   4.184   0.679   3.291  0.1469 -1.0263 -0.2073
 3866TIP3    H133157   4.145   0.761   3.322 -0.9161 -1.5582 -0.0710
 3866TIP3    H233158   4.256   0.662   3.351 -1.6934 -1.8865  1.8818
 3867TIP3   OH233159   5.484   3.895   1.363 -0.5858 -0.4687  0.5967
 3867TIP3    H133160   5.487   3.824   1.300 -0.7173 -0.1556  0.2298
 3867TIP3    H233161   5.411   3.951   1.333  0.7311  0.8588 -0.2663
 3868TIP3   OH233162   3.041   1.513   8.634  0.6705  0.5458  0.1438
 3868TIP3    H133163   3.087   1.588   8.597 -1.7026  2.5501  1.0141
 3868TIP3    H233164   2.963   1.550   8.676  1.4225 -1.8845  4.2671
 3869TIP3   OH233165   5.555   0.941   3.695 -0.4361 -0.1854 -0.0978
 3869TIP3    H133166   5.478   0.965   3.644 -0.6736 -0.9657 -0.1313
 3869TIP3    H233167   5.594   0.868   3.646 -0.7575 -1.0539  0.8902
 3870TIP3   OH233168   2.319   5.171   1.277 -0.2514 -0.4085 -0.3087
 3870TIP3    H133169   2.271   5.211   1.349 -1.1776  0.3296 -1.3026
 3870TIP3    H233170   2.408   5.158   1.311 -0.3692  0.9518  0.5921
 3871TIP3   OH233171   0.269   5.276   0.803 -0.6974  0.4159 -0.3865
 3871TIP3    H133172   0.302   5.312   0.885  0.2813 -0.1840 -0.5025
 3871TIP3    H233173   0.297   5.184   0.803 -0.5306  0.4461 -1.4597
 3872TIP3   OH233174   0.120   5.541   2.508  0.6231 -0.2604 -0.0746
 3872TIP3    H133175   0.163   5.596   2.574  1.8892 -1.2830 -0.0108
 3872TIP3    H233176   0.038   5.587   2.488  0.2097  0.0914  2.1830
 3873TIP3   OH233177   5.428   3.946   0.257 -0.0855 -0.0036 -0.1260
 3873TIP3    H133178   5.484   3.894   0.198 -1.1035 -1.9630  0.5471
 3873TIP3    H233179   5.377   3.881   0.304 -2.7095  1.6836 -0.4641
 3874TIP3   OH233180   2.791   3.023   1.495 -0.2025 -0.6390 -0.5752
 3874TIP3    H133181   2.725   3.043   1.429  0.0208  0.4836 -0.4949
 3874TIP3    H233182   2.853   3.096   1.489 -0.7052  0.0435  1.5365
 3875TIP3   OH233183   2.793   5.637   0.696 -0.3971 -0.2886 -0.3248
 3875TIP3    H133184   2.707   5.673   0.676 -0.4134  1.7564  2.6826
 3875TIP3    H233185   2.775   5.552   0.737 -0.8517 -0.5820 -1.1254
 3876TIP3   OH233186   4.640   3.718   2.175 -0.0685  0.2742  0.1627
 3876TIP3    H133187   4.553   3.719   2.214  0.2941  1.4476  1.0016
 3876TIP3    H233188   4.624   3.724   2.081 -0.8980 -0.2120  0.2615
 3877TIP3   OH233189   1.753   1.659   8.031 -0.0310  0.2322 -0.2318
 3877TIP3    H133190   1.762   1.607   7.951 -0.0018  1.1858 -0.8649
 3877TIP3    H233191   1.772   1.597   8.102  0.1860 -0.5689 -0.9672
 3878TIP3   OH233192   3.600   6.642   0.971  0.2741  0.0257 -0.2942
 3878TIP3    H133193   3.584   6.548   0.982 -1.1736  0.1704 -0.9560
 3878TIP3    H233194   3.695   6.650   0.966  0.5665 -1.1306  2.1026
 3879TIP3   OH233195   1.241   3.622   3.907 -0.1555 -0.4010  0.2586
 3879TIP3    H133196   1.287   3.698   3.944  1.0026 -0.8547 -0.2063
 3879TIP3    H233197   1.200   3.580   3.983 -0.1862  0.2728  0.6228
 3880TIP3   OH233198   0.212   5.921   3.099 -0.1892  0.3172 -0.4317
 3880TIP3    H133199   0.244   5.997   3.049 -0.2776  0.8766  0.3496
 3880TIP3    H233200   0.233   5.942   3.190 -0.1234 -0.6512 -0.2174
 3881TIP3   OH233201   4.902   0.836   1.159  0.1743  0.2101 -0.2492
 3881TIP3    H133202   4.839   0.764   1.157 -0.9745  1.1976 -0.2008
 3881TIP3    H233203   4.965   0.810   1.226 -0.2365 -0.7424 -0.2154
 3882TIP3   OH233204   3.270   5.970   1.975 -1.1149 -0.6357 -0.2486
 3882TIP3    H133205   3.365   5.959   1.978 -1.1174 -1.5639 -2.1221
 3882TIP3    H233206   3.237   5.905   2.037 -0.4929  1.8158  2.8422
 3883TIP3   OH233207   5.424   3.789   8.153  0.6156 -0.4661  0.0342
 3883TIP3    H133208   5.518   3.789   8.134  0.9891 -0.5191  1.7182
 3883TIP3    H233209   5.398   3.697   8.143  1.8232 -1.4440  4.0662
 3884TIP3   OH233210   4.755   5.552   2.490 -0.1097  0.0513  0.5707
 3884TIP3    H133211   4.834   5.557   2.436 -0.8528  1.0461 -0.4927
 3884TIP3    H233212   4.767   5.621   2.555  0.0225  0.0237  0.5762
 3885TIP3   OH233213   0.567   6.554   2.610  0.3635  0.2124 -0.4100
 3885TIP3    H133214   0.528   6.612   2.544 -0.0411  0.0183 -0.3428
 3885TIP3    H233215   0.636   6.607   2.650 -0.7612  1.0682  0.4495
 3886TIP3   OH233216   0.103   5.382   8.083 -0.2731 -0.3160  1.1944
 3886TIP3    H133217   0.008   5.397   8.078 -0.2818 -0.0965  1.9386
 3886TIP3    H233218   0.113   5.290   8.058 -0.9274 -1.0037  3.2511
 3887TIP3   OH233219   2.838   3.739   3.072 -0.5167 -0.1091 -0.3072
 3887TIP3    H133220   2.896   3.664   3.087  0.8341  1.0468  0.4757
 3887TIP3    H233221   2.821   3.736   2.977 -0.3796 -1.3131 -0.3163
 3888TIP3   OH233222   3.740   0.266   0.742  0.0852 -0.0119 -0.6554
 3888TIP3    H133223   3.689   0.209   0.800  1.9319 -1.1547 -0.0922
 3888TIP3    H233224   3.686   0.274   0.664 -0.6081 -1.8543 -0.4242
 3889TIP3   OH233225   0.738   0.832   0.536  0.0375  0.1844  0.0018
 3889TIP3    H133226   0.785   0.886   0.600  0.5079  1.0137 -1.0166
 3889TIP3    H233227   0.805   0.807   0.472 -0.6833  0.4746 -0.8847
 3890TIP3   OH233228   4.189   0.784   2.664 -0.5100 -0.3892  0.1367
 3890TIP3    H133229   4.212   0.718   2.598 -2.1321 -1.8297  0.9258
 3890TIP3    H233230   4.250   0.856   2.648  2.1690 -2.5099 -0.0560
 3891TIP3   OH233231   2.702   6.087   7.749 -0.4620 -0.0502 -0.3220
 3891TIP3    H133232   2.715   6.021   7.681 -0.7683 -0.0141 -0.4169
 3891TIP3    H233233   2.646   6.045   7.814 -0.4667  0.0376 -0.2681
 3892TIP3   OH233234   6.114   1.874   3.475 -0.2407  0.2206 -0.3548
 3892TIP3    H133235   6.037   1.819   3.461 -1.1625  1.1101  0.9759
 3892TIP3    H233236   6.182   1.813   3.503  0.6633 -1.1168 -4.6361
 3893TIP3   OH233237   0.795   1.187   3.415  0.3374 -0.3084  0.1566
 3893TIP3    H133238   0.753   1.231   3.489  1.2966  0.0396  0.4976
 3893TIP3    H233239   0.806   1.256   3.350 -0.0588 -0.5108 -0.1317
 3894TIP3   OH233240   1.548   0.458   3.490 -0.1101 -0.4443  0.0705
 3894TIP3    H133241   1.617   0.511   3.531 -0.7770  0.7394 -0.2850
 3894TIP3    H233242   1.502   0.417   3.563 -2.5301  3.1738  0.8291
 3895TIP3   OH233243   5.727   5.702   7.918 -0.3543  0.4050  0.2394
 3895TIP3    H133244   5.816   5.669   7.928 -0.9598 -1.9087 -1.2481
 3895TIP3    H233245   5.735   5.770   7.851  0.6835  2.4357  2.2855
 3896TIP3   OH233246   1.589   4.122   1.007 -0.1151  0.7075 -0.1045
 3896TIP3    H133247   1.626   4.059   1.069  0.9164  1.5754  0.1972
 3896TIP3    H233248   1.496   4.099   1.001  0.0460 -0.2167  0.7409
 3897TIP3   OH233249   6.202   1.405   1.869 -0.8717  0.1679  0.0055
 3897TIP3    H133250   6.185   1.489   1.825  1.0329 -0.0202 -1.2206
 3897TIP3    H233251   6.263   1.427   1.939 -0.8485 -0.1118  0.0721
 3898TIP3   OH233252   6.593   4.269   2.498  0.2754 -0.4667 -0.4022
 3898TIP3    H133253   6.672   4.223   2.527  0.0023 -0.6103  0.1273
 3898TIP3    H233254   6.575   4.233   2.411 -0.3424 -1.9037  0.2846
 3899TIP3   OH233255   5.742   5.869   0.599 -0.2838  0.3412 -0.1142
 3899TIP3    H133256   5.775   5.907   0.681 -1.4172  1.1468 -0.0183
 3899TIP3    H233257   5.819   5.826   0.561  0.2914  0.0252  1.3171
 3900TIP3   OH233258   2.924   6.010   0.548  0.6855  0.0991  0.2704
 3900TIP3    H133259   2.901   5.936   0.492  0.6478 -1.2265  1.9491
 3900TIP3    H233260   2.842   6.059   0.557  1.2541  1.9510 -2.9324
 3901TIP3   OH233261   2.145   1.238   0.745 -0.3784 -0.2649  0.3250
 3901TIP3    H133262   2.219   1.189   0.708 -0.0573 -1.7514  2.7349
 3901TIP3    H233263   2.176   1.329   0.747  0.9833 -0.7038  0.2815
 3902TIP3   OH233264   4.294   2.921   2.705  0.5221 -0.5571 -0.1013
 3902TIP3    H133265   4.344   2.840   2.721 -1.2594 -1.8900 -0.8580
 3902TIP3    H233266   4.219   2.892   2.653 -0.4912  1.5204  0.1075
 3903TIP3   OH233267   4.724   1.272   8.259  0.2970 -0.0174  0.0570
 3903TIP3    H133268   4.720   1.180   8.232  0.3307  0.3309 -1.2494
 3903TIP3    H233269   4.817   1.292   8.266  0.2799 -0.3695  1.4571
 3904TIP3   OH233270   4.732   2.480   3.009 -0.1927 -0.6299  0.2879
 3904TIP3    H133271   4.663   2.418   3.032  0.3576 -0.7115  1.8523
 3904TIP3    H233272   4.738   2.538   3.085  0.1207  0.5995 -0.6588
 3905TIP3   OH233273   5.646   2.007   1.661  0.5730 -0.4163  0.3426
 3905TIP3    H133274   5.574   1.946   1.676 -0.0076  0.3711  0.7964
 3905TIP3    H233275   5.672   2.036   1.748 -0.4507  1.4465  0.0971
 3906TIP3   OH233276   2.832   2.054   0.122  0.6159 -0.1419  0.0639
 3906TIP3    H133277   2.926   2.055   0.105  0.5446  0.8197 -0.3323
 3906TIP3    H233278   2.791   2.064   0.036  0.2067  1.6024  0.4106
 3907TIP3   OH233279   2.119   4.125   8.397  0.5393  0.1049  0.5991
 3907TIP3    H133280   2.039   4.171   8.372  0.0554  0.4496  2.5732
 3907TIP3    H233281   2.144   4.075   8.320 -0.7678  1.1237 -0.5257
 3908TIP3   OH233282   1.057   3.118   8.542 -0.3774  0.4397 -0.8615
 3908TIP3    H133283   1.015   3.055   8.600 -1.2361  0.3541 -1.5563
 3908TIP3    H233284   1.102   3.065   8.477  0.8369  0.5308 -0.1351
 3909TIP3   OH233285   1.495   6.796   0.545  0.1315  0.1982 -0.0628
 3909TIP3    H133286   1.435   6.848   0.493  3.1298  2.4675 -1.5737
 3909TIP3    H233287   1.475   6.818   0.636 -2.2041 -0.3279 -0.3922
 3910TIP3   OH233288   5.929   5.147   2.153  0.6853  0.3816 -0.0044
 3910TIP3    H133289   5.852   5.162   2.098  1.1713 -0.1765 -0.8733
 3910TIP3    H233290   5.978   5.229   2.149 -0.8826  1.5253  2.3158
 3911TIP3   OH233291   5.951   0.192   2.973  0.5205  0.0662  0.3654
 3911TIP3    H133292   5.881   0.189   3.038  0.0915 -1.5896 -0.1380
 3911TIP3    H233293   5.982   0.102   2.967  1.7189  0.5145 -0.4939
 3912TIP3   OH233294   6.151   4.295   1.820 -0.0864  0.0503  0.0736
 3912TIP3    H133295   6.212   4.288   1.893  0.1863  0.6111 -0.0881
 3912TIP3    H233296   6.140   4.206   1.789 -1.4531 -0.4364  1.7969
 3913TIP3   OH233297   0.571   3.936   2.592 -0.1130  0.0975  0.2635
 3913TIP3    H133298   0.499   3.897   2.543 -0.0555  0.7688 -0.3724
 3913TIP3    H233299   0.629   3.972   2.525  0.5364  0.0519  0.7857
 3914TIP3   OH233300   6.827   6.771   3.857  0.2262 -0.1409 -0.4847
 3914TIP3    H133301   6.809   6.702   3.921  1.1799 -1.2221 -1.3255
 3914TIP3    H233302   6.923   6.777   3.856  0.2122  0.0235 -1.6083
 3915TIP3   OH233303   1.519   1.788   2.534 -0.3242 -0.5587  0.1261
 3915TIP3    H133304   1.524   1.718   2.598 -0.9508 -2.1008 -1.4419
 3915TIP3    H233305   1.426   1.791   2.509  0.4000 -2.4770 -3.2832
 3916TIP3   OH233306   4.640   6.435   8.476  0.0597  0.4559 -0.3551
 3916TIP3    H133307   4.631   6.373   8.404 -3.8731 -1.3266  1.3505
 3916TIP3    H233308   4.565   6.494   8.465 -1.2828 -0.4881  2.6148
 3917TIP3   OH233309   2.498   4.799   3.497  0.2451 -0.1517  0.0711
 3917TIP3    H133310   2.501   4.734   3.427 -0.1364  0.4115 -0.4852
 3917TIP3    H233311   2.537   4.756   3.572  0.2562 -0.9231 -0.3697
 3918TIP3   OH233312   6.435   3.217   0.547  0.5712 -0.0936  0.3413
 3918TIP3    H133313   6.511   3.189   0.598 -0.2624 -1.8030  0.7240
 3918TIP3    H233314   6.414   3.142   0.492  1.0104  1.4453 -2.0796
 3919TIP3   OH233315   1.452   4.851   0.292 -0.2236  0.4455 -0.4150
 3919TIP3    H133316   1.523   4.884   0.346 -1.4837 -0.9224  2.2765
 3919TIP3    H233317   1.479   4.762   0.269 -0.2302  0.6078 -1.0774
 3920TIP3   OH233318   6.816   4.257   1.671 -0.4304  1.0165  0.3415
 3920TIP3    H133319   6.850   4.347   1.673 -0.5893  1.0785  0.2798
 3920TIP3    H233320   6.758   4.252   1.747  1.7820  0.0806  2.0968
 3921TIP3   OH233321   2.407   0.380   2.851 -0.4178 -0.3149  0.4117
 3921TIP3    H133322   2.385   0.308   2.792  0.7652 -0.0431 -0.4024
 3921TIP3    H233323   2.496   0.360   2.882 -0.1735  0.6584  0.3764
 3922TIP3   OH233324   4.843   2.462   8.462 -0.3034  0.4880  0.5150
 3922TIP3    H133325   4.906   2.448   8.533 -1.4414 -0.5107  1.3743
 3922TIP3    H233326   4.875   2.539   8.416  2.0999 -0.5453  0.2973
 3923TIP3   OH233327   1.362   4.615   3.386  0.6259  0.0480  0.0878
 3923TIP3    H133328   1.380   4.554   3.457  0.9570  0.6977  0.5838
 3923TIP3    H233329   1.267   4.623   3.385  0.6635  2.0758  2.3028
 3924TIP3   OH233330   4.777   3.538   2.658  0.1833 -0.0005  0.0848
 3924TIP3    H133331   4.695   3.494   2.634  0.4261 -0.9009  0.8389
 3924TIP3    H233332   4.846   3.486   2.618  0.5757 -1.3605  2.3740
 3925TIP3   OH233333   4.291   3.355   8.651 -0.3141 -0.0273  0.4777
 3925TIP3    H133334   4.373   3.306   8.648  0.6021  1.1949  2.6752
 3925TIP3    H233335   4.318   3.445   8.667 -2.0669  0.6132  0.0865
 3926TIP3   OH233336   5.710   0.515   0.073 -0.0055 -0.3143  0.2806
 3926TIP3    H133337   5.799   0.519   0.039 -0.3475  1.0547 -0.5627
 3926TIP3    H233338   5.698   0.599   0.119 -0.9510 -0.3294  0.0936
 3927TIP3   OH233339   2.516   6.009   1.770 -0.1018  0.0547 -0.0004
 3927TIP3    H133340   2.582   5.972   1.829 -0.0149  0.0431 -0.1067
 3927TIP3    H233341   2.520   5.955   1.691  0.9376  1.0865 -0.6775
 3928TIP3   OH233342   3.552   3.847   1.003  0.2228 -0.1404  0.1256
 3928TIP3    H133343   3.499   3.899   1.063  1.3365  1.7313 -0.4614
 3928TIP3    H233344   3.501   3.845   0.922 -0.0422 -0.3876  0.2962
 3929TIP3   OH233345   6.355   0.382   1.514  0.7825 -0.4730 -0.6017
 3929TIP3    H133346   6.415   0.397   1.587  0.7557 -0.6902 -0.5321
 3929TIP3    H233347   6.271   0.416   1.544  0.8664 -0.1800 -0.6943
 3930TIP3   OH233348   4.863   5.369   1.878  0.3382  0.2329  0.1070
 3930TIP3    H133349   4.918   5.291   1.876  0.2513  0.1588  0.4916
 3930TIP3    H233350   4.877   5.406   1.965  0.4735  0.7163 -0.1198
 3931TIP3   OH233351   5.967   0.838   8.270  0.4420  0.2054 -0.1034
 3931TIP3    H133352   6.020   0.877   8.200  2.4475 -0.2577  1.0919
 3931TIP3    H233353   5.987   0.891   8.347  0.9044 -1.3204  0.8664
 3932TIP3   OH233354   3.197   6.082   8.530 -0.6103 -0.6522  0.0409
 3932TIP3    H133355   3.291   6.098   8.520 -0.0850 -3.0398  0.3928
 3932TIP3    H233356   3.157   6.168   8.522  1.4421  0.2436 -1.8734
 3933TIP3   OH233357   0.261   5.713   2.699 -0.7327  0.1717  0.6066
 3933TIP3    H133358   0.280   5.722   2.792  0.9595  0.1351  0.3003
 3933TIP3    H233359   0.215   5.793   2.675  1.2385  1.4574  0.9297
 3934TIP3   OH233360   5.705   6.871   1.264  0.1043  0.0026  0.3540
 3934TIP3    H133361   5.763   6.798   1.288  1.2797  0.5844 -0.5979
 3934TIP3    H233362   5.685   6.914   1.347  0.2040 -0.8079  0.8158
 3935TIP3   OH233363   1.415   3.177   0.985 -0.4654  0.1430 -0.1566
 3935TIP3    H133364   1.394   3.237   0.913  0.0510 -1.0514 -1.3487
 3935TIP3    H233365   1.338   3.120   0.992 -0.9587  0.9283  0.9743
 3936TIP3   OH233366   6.734   2.706   2.749  0.0833  0.6399  0.5474
 3936TIP3    H133367   6.713   2.728   2.658 -0.0734 -1.9881 -0.1425
 3936TIP3    H233368   6.652   2.720   2.797 -0.8449 -1.1030 -0.4163
 3937TIP3   OH233369   6.709   2.029   1.587  0.3742  0.4117 -0.4991
 3937TIP3    H133370   6.629   1.978   1.597 -0.0830  1.4186  1.4672
 3937TIP3    H233371   6.687   2.116   1.620  2.6695  0.3085  1.6109
 3938TIP3   OH233372   2.803   5.792   0.429 -0.4987  0.4117  0.2432
 3938TIP3    H133373   2.747   5.753   0.496 -1.5845  1.1621 -0.1914
 3938TIP3    H233374   2.743   5.842   0.374 -0.0310 -1.9849 -2.7101
 3939TIP3   OH233375   0.950   2.680   1.654  0.0516  0.3029 -0.7005
 3939TIP3    H133376   0.904   2.728   1.723 -1.9173 -1.3302 -0.7956
 3939TIP3    H233377   1.027   2.643   1.697 -0.1444  0.8570  0.1430
 3940TIP3   OH233378   6.353   3.990   2.141  0.6266 -0.4497 -0.3111
 3940TIP3    H133379   6.287   3.928   2.171 -1.4719  1.0140 -1.5794
 3940TIP3    H233380   6.380   3.958   2.055  3.7674 -2.5338  1.2548
 3941TIP3   OH233381   3.946   1.531   2.585  0.0650 -0.3940 -0.5241
 3941TIP3    H133382   3.874   1.516   2.647  1.8473 -3.4159  1.0343
 3941TIP3    H233383   3.983   1.616   2.612 -1.7538  0.3488 -0.2032
 3942TIP3   OH233384   1.805   4.200   2.506 -0.1709  0.3956 -0.1991
 3942TIP3    H133385   1.733   4.263   2.518 -0.6915  0.0571 -1.3276
 3942TIP3    H233386   1.768   4.116   2.535  0.6057  0.6313  1.5423
 3943TIP3   OH233387   1.002   2.535   1.000  0.0890 -0.2063 -0.5392
 3943TIP3    H133388   1.042   2.579   1.074 -0.4304 -0.3117 -0.1890
 3943TIP3    H233389   1.072   2.528   0.935  0.5299 -0.0620 -0.0829
 3944TIP3   OH233390   3.760   4.145   2.705  0.6497  0.6893 -0.3381
 3944TIP3    H133391   3.693   4.200   2.746 -1.7095 -0.1248 -2.7550
 3944TIP3    H233392   3.734   4.055   2.724  1.8201  0.3546 -0.2366
 3945TIP3   OH233393   6.760   0.218   1.643  0.3881 -0.1364  0.0584
 3945TIP3    H133394   6.738   0.153   1.576 -0.2641 -0.8746  0.9592
 3945TIP3    H233395   6.695   0.204   1.712  0.6340  1.0526  0.5575
 3946TIP3   OH233396   1.815   3.881   7.685 -0.0536  0.2187  0.2577
 3946TIP3    H133397   1.905   3.846   7.690  0.2287  1.0692  1.5563
 3946TIP3    H233398   1.827   3.974   7.667 -0.7819 -0.1158 -2.2749
 3947TIP3   OH233399   2.878   4.542   0.060  0.5662 -0.0384 -0.9178
 3947TIP3    H133400   2.926   4.506  -0.015 -0.2849 -0.5805 -1.2174
 3947TIP3    H233401   2.921   4.626   0.078  1.6084 -0.5070 -1.1769
 3948TIP3   OH233402   2.605   0.384   4.050 -0.6926  0.3784  0.1099
 3948TIP3    H133403   2.637   0.306   4.003 -0.4476 -0.0064  0.9040
 3948TIP3    H233404   2.578   0.444   3.980 -0.4408 -0.2284 -0.5246
 3949TIP3   OH233405   2.654   2.563   3.028  0.1996 -0.4084  0.0111
 3949TIP3    H133406   2.605   2.634   2.986  0.3859 -0.3336 -0.0793
 3949TIP3    H233407   2.601   2.540   3.104  1.1282  1.2316  1.2430
 3950TIP3   OH233408   4.358   4.477   3.054 -0.3957 -0.1912 -0.3205
 3950TIP3    H133409   4.453   4.467   3.045 -0.5721 -1.9095 -0.7953
 3950TIP3    H233410   4.336   4.421   3.129 -0.8964  1.2337  0.6249
 3951TIP3   OH233411   5.854   0.439   1.591  0.3767  0.6576  0.1432
 3951TIP3    H133412   5.839   0.365   1.650  0.2951  0.5926  0.0413
 3951TIP3    H233413   5.940   0.423   1.554  0.2485  0.4803 -0.0741
 3952TIP3   OH233414   4.808   1.818   0.217  0.5324  0.3915  0.3588
 3952TIP3    H133415   4.800   1.830   0.312  0.4369  1.5728  0.2173
 3952TIP3    H233416   4.896   1.781   0.205  0.8901  1.0487  0.8545
 3953TIP3   OH233417   6.324   3.391   0.141  0.4747  0.0881  0.5311
 3953TIP3    H133418   6.319   3.485   0.160 -2.1137  0.0909  0.1906
 3953TIP3    H233419   6.304   3.349   0.224 -2.7998 -0.0091 -0.1739
 3954TIP3   OH233420   5.197   2.955   3.027 -0.4974  0.7613 -0.3092
 3954TIP3    H133421   5.184   2.989   3.116 -2.2493  2.5978 -1.2040
 3954TIP3    H233422   5.252   2.877   3.040  0.4583  1.7310  2.2288
 3955TIP3   OH233423   1.674   4.124   8.503  0.1786  0.0037  0.2446
 3955TIP3    H133424   1.767   4.118   8.479  0.0801  1.1050 -0.5057
 3955TIP3    H233425   1.651   4.036   8.533  1.1230 -0.6407 -0.8421
 3956TIP3   OH233426   2.948   2.918   3.582  0.0793 -0.2410  0.5906
 3956TIP3    H133427   3.034   2.909   3.622  0.6072  2.3159  0.2137
 3956TIP3    H233428   2.924   3.009   3.597 -1.0202  0.0359 -2.2436
 3957TIP3   OH233429   0.620   4.575   2.388  0.2342  0.1922 -0.5316
 3957TIP3    H133430   0.549   4.589   2.325  0.7193  0.3866 -1.0397
 3957TIP3    H233431   0.657   4.662   2.402  0.4423  0.0752 -0.3509
 3958TIP3   OH233432   5.815   3.768   3.206 -0.2330  0.3283 -0.0968
 3958TIP3    H133433   5.753   3.830   3.246 -1.1866  0.6345 -1.9152
 3958TIP3    H233434   5.766   3.686   3.200  0.2378  0.0177  0.2314
 3959TIP3   OH233435   5.163   4.271   2.256  0.2677 -0.0314  0.2188
 3959TIP3    H133436   5.121   4.328   2.192 -0.4479 -1.2260 -0.4165
 3959TIP3    H233437   5.099   4.262   2.326  1.6410  2.5258  1.9440
 3960TIP3   OH233438   2.980   5.604   2.794 -0.6701 -0.5335 -0.4842
 3960TIP3    H133439   2.928   5.588   2.715 -2.1176 -0.2122  0.3653
 3960TIP3    H233440   2.960   5.694   2.817  0.6845 -0.2399 -0.4056
 3961TIP3   OH233441   5.248   3.983   2.528 -0.3169 -0.1507 -0.1435
 3961TIP3    H133442   5.180   3.936   2.480  0.5667 -2.1675  0.4762
 3961TIP3    H233443   5.289   3.916   2.583 -0.2061  1.7343  2.2192
 3962TIP3   OH233444   5.601   3.103   1.758 -0.0239 -0.3319  0.1274
 3962TIP3    H133445   5.600   3.194   1.728  0.6729 -0.6698 -0.9638
 3962TIP3    H233446   5.690   3.090   1.790  0.3048 -1.0323 -1.0321
 3963TIP3   OH233447   2.035   1.378   0.479 -0.1154  0.4644 -0.1478
 3963TIP3    H133448   2.054   1.422   0.396 -0.5539 -1.8774 -1.5824
 3963TIP3    H233449   1.966   1.316   0.457 -1.7177  1.1845  2.4848
 3964TIP3   OH233450   5.812   0.942   2.034  0.3186 -0.0499  0.3293
 3964TIP3    H133451   5.876   0.884   2.076 -1.2016 -3.2088 -1.2919
 3964TIP3    H233452   5.864   1.014   1.999  3.1242 -2.5328 -1.0740
 3965TIP3   OH233453   3.143   2.046   8.340  0.5200 -0.7927  0.2520
 3965TIP3    H133454   3.150   2.094   8.258  0.0752 -0.4781  0.3998
 3965TIP3    H233455   3.106   1.961   8.316 -1.1085 -0.1285  0.3340
 3966TIP3   OH233456   4.192   6.641   0.188 -0.7698  0.3746  0.4296
 3966TIP3    H133457   4.170   6.664   0.278 -1.4473 -0.5251  0.5121
 3966TIP3    H233458   4.287   6.631   0.189 -0.5694  2.0790  0.6194
 3967TIP3   OH233459   4.955   2.032   3.356 -0.1746  0.4108 -0.4466
 3967TIP3    H133460   5.032   2.085   3.375 -0.6786  0.9472  0.1542
 3967TIP3    H233461   4.973   1.948   3.397 -0.2950  0.8371  0.5054
 3968TIP3   OH233462   4.732   5.141   2.208  0.7507 -0.1896 -0.6106
 3968TIP3    H133463   4.640   5.126   2.188 -0.0679  0.7509  2.0002
 3968TIP3    H233464   4.772   5.055   2.204 -0.3060 -0.6678 -1.4069
 3969TIP3   OH233465   5.824   4.981   1.441  0.2159 -0.6805  0.3882
 3969TIP3    H133466   5.834   5.075   1.454 -2.0928 -0.0552 -1.6551
 3969TIP3    H233467   5.800   4.948   1.528 -2.8311  1.3191  0.4927
 3970TIP3   OH233468   0.548   4.624   0.905 -0.0917 -0.1707  0.1469
 3970TIP3    H133469   0.507   4.562   0.965 -1.5835  0.3104 -0.3245
 3970TIP3    H233470   0.489   4.628   0.830 -0.1187  1.9089  0.2219
 3971TIP3   OH233471   0.849   0.926   8.047  0.2469 -0.0548 -0.0655
 3971TIP3    H133472   0.939   0.952   8.066  0.3757 -0.6330  0.1527
 3971TIP3    H233473   0.799   1.007   8.049  0.9897  0.4868 -1.6085
 3972TIP3   OH233474   0.236   5.865   8.525  0.1219  0.6797 -0.1303
 3972TIP3    H133475   0.153   5.843   8.481  1.1115 -0.6814 -1.3962
 3972TIP3    H233476   0.229   5.960   8.541 -3.5415  0.0630  3.8799
 3973TIP3   OH233477   0.400   3.093   4.026  1.0914  0.3277 -0.0409
 3973TIP3    H133478   0.490   3.101   3.993  1.1213  2.1733  0.3896
 3973TIP3    H233479   0.355   3.169   3.990 -0.4025 -0.7396 -0.4923
 3974TIP3   OH233480   5.049   0.913   2.083  0.1996 -0.0118 -0.2672
 3974TIP3    H133481   5.059   0.832   2.133  0.7604  0.0049 -0.3463
 3974TIP3    H233482   4.959   0.911   2.052 -0.2959  0.1672  1.0781
 3975TIP3   OH233483   3.168   3.963   0.159 -0.0839  0.3937 -0.6216
 3975TIP3    H133484   3.096   3.976   0.098 -1.1100 -1.4718  0.0966
 3975TIP3    H233485   3.131   3.984   0.245  0.8315  1.3326 -0.4429
 3976TIP3   OH233486   2.580   1.192   1.512 -0.6583  0.4077 -0.0274
 3976TIP3    H133487   2.639   1.138   1.564 -2.4724 -0.5861  1.0625
 3976TIP3    H233488   2.523   1.234   1.576 -0.6952  1.9478 -1.0124
 3977TIP3   OH233489   4.938   3.398   0.691 -0.3951 -0.3426 -0.0565
 3977TIP3    H133490   4.990   3.458   0.745 -0.9083  0.9327 -0.9227
 3977TIP3    H233491   4.856   3.445   0.675 -0.3162 -0.7248 -1.8063
 3978TIP3   OH233492   4.604   0.565   3.219 -0.3916 -0.5101  0.2498
 3978TIP3    H133493   4.554   0.483   3.219  0.1397 -0.9119 -2.2831
 3978TIP3    H233494   4.607   0.591   3.127  0.2453  1.8901  0.8999
 3979TIP3   OH233495   1.358   5.636   0.819 -0.8485 -0.0237 -0.3071
 3979TIP3    H133496   1.423   5.664   0.755 -0.2854  0.1371  0.3167
 3979TIP3    H233497   1.275   5.639   0.773 -0.6711  1.6149 -0.5787
 3980TIP3   OH233498   4.690   4.948   8.001  0.1879 -0.5876 -0.8882
 3980TIP3    H133499   4.666   4.918   7.913  1.2578 -2.8645 -0.4654
 3980TIP3    H233500   4.753   4.884   8.032 -0.2895  0.0566  1.6371
 3981TIP3   OH233501   2.793   5.960   2.697  0.2840  0.1900 -0.0114
 3981TIP3    H133502   2.816   5.968   2.604 -0.4626  2.3120 -0.0686
 3981TIP3    H233503   2.876   5.975   2.743  0.6084 -0.6226 -0.3148
 3982TIP3   OH233504   4.652   1.773   1.967  0.0319 -0.2889 -1.0357
 3982TIP3    H133505   4.602   1.801   1.891  0.0202 -0.0675 -0.9476
 3982TIP3    H233506   4.743   1.769   1.936  0.4254  2.2172 -0.4514
 3983TIP3   OH233507   5.817   1.560   1.489 -0.0249 -0.3211 -0.2416
 3983TIP3    H133508   5.890   1.541   1.430  2.3637  1.2617  1.9767
 3983TIP3    H233509   5.804   1.654   1.481 -1.1705 -0.4320  0.1449
 3984TIP3   OH233510   4.487   1.137   7.907 -0.0132  0.3080 -0.1251
 3984TIP3    H133511   4.559   1.118   7.846  0.9164  0.8437  0.7755
 3984TIP3    H233512   4.421   1.180   7.852  0.0547 -0.7911 -1.1009
 3985TIP3   OH233513   3.617   2.325   0.220  0.3079  0.7672  0.1880
 3985TIP3    H133514   3.695   2.380   0.209  0.6332  0.8072  2.2686
 3985TIP3    H233515   3.638   2.245   0.171  1.9929  0.4878  1.2755
 3986TIP3   OH233516   4.462   3.796   1.291  0.2913 -0.3464 -0.4520
 3986TIP3    H133517   4.479   3.718   1.238 -0.6878 -0.5326 -0.5196
 3986TIP3    H233518   4.447   3.762   1.379  0.1723 -0.2020 -0.4167
 3987TIP3   OH233519   6.298   5.161   1.877  0.3505 -0.3436  0.0113
 3987TIP3    H133520   6.392   5.148   1.891  0.1658 -1.2868  0.4755
 3987TIP3    H233521   6.259   5.150   1.964 -0.0262  1.9202  0.1898
 3988TIP3   OH233522   0.503   4.405   0.721  0.2318  0.7609 -0.6930
 3988TIP3    H133523   0.419   4.381   0.761  1.3858 -1.3888  0.6824
 3988TIP3    H233524   0.503   4.358   0.637 -0.0489  0.9901 -0.8236
 3989TIP3   OH233525   6.330   5.309   7.727 -0.0161 -0.1443 -0.0894
 3989TIP3    H133526   6.318   5.315   7.822  0.7246  0.0532  0.0037
 3989TIP3    H233527   6.420   5.339   7.713 -0.4268  0.7383 -0.9498
 3990TIP3   OH233528   1.463   4.901   2.189 -0.2242  0.4213  0.1212
 3990TIP3    H133529   1.463   4.806   2.176 -2.5218  0.2336  1.0438
 3990TIP3    H233530   1.516   4.914   2.268 -0.1387 -0.1204  0.1575
 3991TIP3   OH233531   3.880   6.602   1.000  0.1417  0.1960  0.3338
 3991TIP3    H133532   3.873   6.512   0.967  0.2927  0.2040  0.2786
 3991TIP3    H233533   3.910   6.591   1.091  1.9670  0.2396 -0.2199
 3992TIP3   OH233534   4.483   2.800   2.532 -0.2684  0.1128  0.3054
 3992TIP3    H133535   4.405   2.842   2.496 -0.9453 -1.5747 -0.3030
 3992TIP3    H233536   4.555   2.859   2.508 -1.0753  0.5498 -1.1507
 3993TIP3   OH233537   0.419   3.609   8.409 -0.2577 -0.6686 -0.0627
 3993TIP3    H133538   0.385   3.521   8.423  0.0023 -0.4659  2.2095
 3993TIP3    H233539   0.513   3.597   8.395 -0.4768 -0.8486 -1.5985
 3994TIP3   OH233540   2.929   3.683   1.789  0.0313 -0.2327  0.0284
 3994TIP3    H133541   2.888   3.735   1.720  1.4010  0.1691 -0.5319
 3994TIP3    H233542   2.916   3.592   1.761  0.5322 -0.0760 -0.7585
 3995TIP3   OH233543   4.647   3.778   3.333  0.4218 -0.2273  0.2659
 3995TIP3    H133544   4.609   3.826   3.260  1.4846 -1.5752 -1.2744
 3995TIP3    H233545   4.718   3.834   3.365  0.2819  0.1553 -0.0905
 3996TIP3   OH233546   1.874   4.276   1.497 -0.2488  0.2268 -0.3444
 3996TIP3    H133547   1.839   4.356   1.537  1.2928  0.9536 -0.3628
 3996TIP3    H233548   1.947   4.306   1.443  1.5132 -1.3298  1.0186
 3997TIP3   OH233549   4.414   2.219   2.515  0.6543  0.3676  0.4978
 3997TIP3    H133550   4.441   2.137   2.473  1.3186  0.1337  1.3567
 3997TIP3    H233551   4.331   2.240   2.473  1.5264  0.4285 -1.3116
 3998TIP3   OH233552   1.063   4.079   0.134 -0.4980  0.3214  0.5965
 3998TIP3    H133553   1.093   4.108   0.048 -1.1001  0.5834  0.4680
 3998TIP3    H233554   1.021   4.156   0.173 -1.8189 -0.2515  0.3845
 3999TIP3   OH233555   2.912   6.354   3.349  0.3077  0.0230  0.1806
 3999TIP3    H133556   2.945   6.329   3.435  0.3931  0.2467  0.2143
 3999TIP3    H233557   2.955   6.294   3.288  1.8447  1.1425  0.0733
 4000TIP3   OH233558   0.156   1.549   2.353  0.4921  0.0167  0.2960
 4000TIP3    H133559   0.125   1.477   2.299 -0.8362  0.3038  0.6342
 4000TIP3    H233560   0.128   1.526   2.442  0.3613  0.7907  0.4580
 4001TIP3   OH233561   1.219   3.948   1.241  0.0407  0.5231 -0.8027
 4001TIP3    H133562   1.127   3.932   1.218 -0.2318  0.9451 -0.0611
 4001TIP3    H233563   1.225   4.043   1.252  0.1200  0.3609  0.8371
 4002TIP3   OH233564   3.346   0.319   0.413 -0.7594  0.2273 -0.1121
 4002TIP3    H133565   3.272   0.279   0.367 -2.0082  1.3163  0.9032
 4002TIP3    H233566   3.392   0.369   0.346 -0.4587 -1.0586 -0.9127
 4003TIP3   OH233567   5.961   1.199   7.681 -0.6429  0.5556  0.5155
 4003TIP3    H133568   5.919   1.182   7.597 -0.6008  0.8892  0.4268
 4003TIP3    H233569   6.006   1.282   7.670  2.4682 -1.0712 -0.3360
 4004TIP3   OH233570   2.515   1.510   0.364  0.3984 -0.2543 -0.4274
 4004TIP3    H133571   2.551   1.479   0.447 -0.0716 -0.2509 -0.2212
 4004TIP3    H233572   2.442   1.451   0.346 -1.2032  1.3693  0.5211
 4005TIP3   OH233573   2.633   1.069   1.928  0.3150 -0.0636 -0.1560
 4005TIP3    H133574   2.683   1.151   1.937  0.3944 -0.1071 -0.2017
 4005TIP3    H233575   2.567   1.089   1.862 -1.1228  0.6822  1.4138
 4006TIP3   OH233576   4.392   4.969   1.883  0.0801 -0.9230  0.0364
 4006TIP3    H133577   4.345   5.048   1.910 -0.4631 -0.5996 -1.7142
 4006TIP3    H233578   4.366   4.903   1.947 -2.2630 -0.5691 -0.4659
 4007TIP3   OH233579   2.152   2.880   2.946 -0.1579 -0.4233 -0.2205
 4007TIP3    H133580   2.165   2.953   3.006 -1.2655 -0.1594 -0.2842
 4007TIP3    H233581   2.212   2.812   2.977  0.6275  0.3797  0.0522
 4008TIP3   OH233582   2.565   5.852   3.394  0.0171 -0.5735 -0.2139
 4008TIP3    H133583   2.529   5.866   3.482 -0.0161 -0.9978 -0.1579
 4008TIP3    H233584   2.632   5.784   3.407  0.3342 -0.3094 -0.4398
 4009TIP3   OH233585   4.579   2.373   0.744  0.5771  0.1383  0.5280
 4009TIP3    H133586   4.552   2.296   0.693 -0.0784  1.1145 -0.6540
 4009TIP3    H233587   4.661   2.346   0.787  1.5365 -0.5371 -1.5762
 4010TIP3   OH233588   6.116   6.826   1.435 -0.2789  0.1259 -0.1063
 4010TIP3    H133589   6.157   6.740   1.437  0.1967  0.2813 -1.7493
 4010TIP3    H233590   6.138   6.861   1.349 -0.5022  1.8770  0.5138
 4011TIP3   OH233591   6.091   2.628   8.657 -0.1478  0.5417 -0.6048
 4011TIP3    H133592   6.127   2.592   8.576  1.9624  0.4373  0.3235
 4011TIP3    H233593   6.068   2.718   8.636  1.2229  0.7880 -1.1022
 4012TIP3   OH233594   5.734   1.331   1.623 -0.5630  0.0333 -0.2304
 4012TIP3    H133595   5.754   1.401   1.561 -0.5599  0.2918  0.0630
 4012TIP3    H233596   5.778   1.254   1.587 -1.7264 -0.1574 -1.3003
 4013TIP3   OH233597   1.492   5.225   2.512 -0.4699 -0.2589 -0.0342
 4013TIP3    H133598   1.562   5.265   2.460  0.1285  1.6063  2.0117
 4013TIP3    H233599   1.413   5.234   2.459  0.4142 -0.2014 -1.3828
 4014TIP3   OH233600   0.235   1.441   0.903 -0.4390 -0.5649  0.2280
 4014TIP3    H133601   0.312   1.472   0.950 -0.9146  0.1214  0.5773
 4014TIP3    H233602   0.161   1.476   0.953 -0.9590  0.2726 -1.0756
 4015TIP3   OH233603   2.869   6.779   8.400  0.2929  0.1313 -0.4483
 4015TIP3    H133604   2.887   6.842   8.471  3.3211 -0.8397 -0.2018
 4015TIP3    H233605   2.942   6.790   8.340 -0.6769 -1.1453 -1.9172
 4016TIP3   OH233606   5.315   6.708   2.084 -0.4469  0.1206 -0.0077
 4016TIP3    H133607   5.252   6.636   2.095 -0.6301  0.2263 -0.3574
 4016TIP3    H233608   5.278   6.778   2.138 -0.4987  0.1008 -0.0162
 4017TIP3   OH233609   0.658   6.402   8.238  0.3712 -0.1346  0.5161
 4017TIP3    H133610   0.617   6.433   8.157 -0.0184 -4.1162 -1.0665
 4017TIP3    H233611   0.751   6.394   8.217  0.2400 -1.3806  0.2892
 4018TIP3   OH233612   4.838   2.488   7.775  0.0332 -0.5621  0.0861
 4018TIP3    H133613   4.855   2.526   7.861  0.1051  0.1966 -0.2536
 4018TIP3    H233614   4.745   2.467   7.776  0.1092 -0.8897  0.4743
 4019TIP3   OH233615   3.449   5.624   2.860  0.0907 -0.1747 -0.1791
 4019TIP3    H133616   3.514   5.581   2.805  1.8236  1.1526  0.7550
 4019TIP3    H233617   3.430   5.560   2.929  2.3588  0.3147  0.9836
 4020TIP3   OH233618   6.138   4.217   7.904 -0.4656  0.2286 -0.2637
 4020TIP3    H133619   6.053   4.190   7.940  0.0654  1.5631  2.2579
 4020TIP3    H233620   6.170   4.139   7.859 -2.2574 -0.8783  0.2516
 4021TIP3   OH233621   2.447   3.327   1.185  0.7594 -0.2204  0.4250
 4021TIP3    H133622   2.365   3.306   1.230 -0.0543  0.7977 -0.5284
 4021TIP3    H233623   2.456   3.258   1.119  0.1214  0.2184 -0.1373
 4022TIP3   OH233624   1.187   3.257   0.840 -0.2341  0.4172  0.0130
 4022TIP3    H133625   1.127   3.183   0.855  1.4360 -1.1140 -0.5075
 4022TIP3    H233626   1.235   3.233   0.761  1.2759  1.4486  0.5712
 4023TIP3   OH233627   1.042   4.422   3.580 -0.2175 -0.0716  0.5616
 4023TIP3    H133628   1.030   4.333   3.548  0.5255  0.3246 -0.9190
 4023TIP3    H233629   1.048   4.413   3.675  0.4774 -1.6743  0.4022
 4024TIP3   OH233630   1.152   2.587   1.854  0.5633  0.1563 -0.1707
 4024TIP3    H133631   1.243   2.578   1.882 -0.2278 -1.8702  2.0906
 4024TIP3    H233632   1.117   2.498   1.858 -2.0504  1.1492  1.1837
 4025TIP3   OH233633   1.934   0.820   1.652 -0.4249  0.2672 -0.2755
 4025TIP3    H133634   1.953   0.885   1.584 -0.0829 -0.2463 -0.6835
 4025TIP3    H233635   2.005   0.832   1.716  0.4117 -0.5915 -1.0179
 4026TIP3   OH233636   6.524   3.549   1.146 -0.2531 -0.0343  0.2753
 4026TIP3    H133637   6.461   3.487   1.182  0.0588  0.4702  1.7521
 4026TIP3    H233638   6.610   3.511   1.166 -0.0112 -1.0056 -2.2191
 4027TIP3   OH233639   6.748   6.073   0.028 -0.9863 -0.4087  0.0164
 4027TIP3    H133640   6.719   6.154   0.070  0.1034 -0.3380  0.6675
 4027TIP3    H233641   6.840   6.089   0.004 -1.0548 -1.0907 -0.7798
 4028TIP3   OH233642   4.545   3.641   3.599  0.9259  0.3606  0.3693
 4028TIP3    H133643   4.572   3.685   3.518  2.2253 -0.1193  0.5205
 4028TIP3    H233644   4.451   3.659   3.605  0.8399  0.5925 -1.1310
 4029TIP3   OH233645   2.920   3.663   1.125  0.1005 -0.5607  0.3309
 4029TIP3    H133646   3.015   3.651   1.133 -0.0028 -0.7855  1.3864
 4029TIP3    H233647   2.910   3.749   1.085  0.7549 -0.5700  0.1328
 4030TIP3   OH233648   0.293   1.163   0.934 -0.3924  0.2258 -0.1279
 4030TIP3    H133649   0.261   1.249   0.908  0.5335  0.2748 -1.1989
 4030TIP3    H233650   0.254   1.102   0.871 -0.2647 -0.0093  0.0192
 4031TIP3   OH233651   3.231   5.559   2.701 -0.0237 -0.6228 -0.3604
 4031TIP3    H133652   3.149   5.556   2.750 -0.6276 -0.9994 -1.3680
 4031TIP3    H233653   3.291   5.607   2.759 -1.0812  0.0845  0.1946
 4032TIP3   OH233654   2.018   5.021   1.829 -0.1599 -0.4340 -0.0786
 4032TIP3    H133655   2.068   5.097   1.858 -1.1541 -0.1473  0.9364
 4032TIP3    H233656   2.041   4.952   1.891 -0.7676 -0.3913  0.1995
 4033TIP3   OH233657   3.919   1.719   0.692  0.4984 -0.2289 -0.3065
 4033TIP3    H133658   3.845   1.764   0.732  0.8917  0.1463  0.0013
 4033TIP3    H233659   3.981   1.705   0.763  0.4357 -1.1657 -0.4146
 4034TIP3   OH233660   1.545   1.347   2.014 -0.6949 -0.5438  0.0978
 4034TIP3    H133661   1.621   1.294   2.039  0.4544  1.1726  0.4332
 4034TIP3    H233662   1.507   1.375   2.097 -0.3375  0.4260 -0.0506
 4035TIP3   OH233663   2.336   0.236   8.350  0.1186  0.6254 -0.1625
 4035TIP3    H133664   2.373   0.178   8.284 -0.7158  0.1952 -0.2609
 4035TIP3    H233665   2.249   0.200   8.368  0.0637  1.1439  0.6587
 4036TIP3   OH233666   2.435   5.696   2.233 -0.2283 -0.2071  0.0790
 4036TIP3    H133667   2.414   5.789   2.221  1.3615  0.3304  1.1543
 4036TIP3    H233668   2.415   5.679   2.325  1.8973 -0.1951  0.5999
 4037TIP3   OH233669   1.201   3.381   0.382  0.4233  0.5149  0.0224
 4037TIP3    H133670   1.273   3.325   0.352 -0.7236 -0.4487 -1.0163
 4037TIP3    H233671   1.245   3.456   0.423  2.0177 -0.0178 -0.6271
 4038TIP3   OH233672   2.753   2.170   3.027 -0.1173 -0.1938 -0.3620
 4038TIP3    H133673   2.719   2.176   3.116 -0.5569  1.4965 -0.5983
 4038TIP3    H233674   2.675   2.176   2.971  0.3023  0.7628 -0.8749
 4039TIP3   OH233675   4.661   2.502   2.626 -0.4865  0.0962  0.5513
 4039TIP3    H133676   4.643   2.507   2.532 -0.7176  0.7118  0.6271
 4039TIP3    H233677   4.580   2.468   2.665 -0.8339  1.0368  0.6688
 4040TIP3   OH233678   0.430   0.572   1.098  0.4705 -0.2400 -0.4315
 4040TIP3    H133679   0.457   0.643   1.155 -1.0537  2.0120 -2.3004
 4040TIP3    H233680   0.342   0.549   1.127  1.2031 -1.9505  0.6024
 4041TIP3   OH233681   4.176   4.186   7.420  0.1410  0.0868  0.2644
 4041TIP3    H133682   4.093   4.205   7.463 -1.7291 -0.7647 -2.6380
 4041TIP3    H233683   4.204   4.270   7.383 -0.4023  0.0615 -0.2253
 4042TIP3   OH233684   0.275   5.960   3.359  0.1197  0.1455  0.3175
 4042TIP3    H133685   0.209   6.001   3.415 -0.4486 -0.2457 -0.0617
 4042TIP3    H233686   0.334   5.916   3.420 -0.9188 -0.9118  0.5909
 4043TIP3   OH233687   1.494   2.862   3.182  0.0382 -0.3090 -0.4083
 4043TIP3    H133688   1.532   2.833   3.264  1.1088  0.1407 -0.7232
 4043TIP3    H233689   1.500   2.958   3.186  0.2592 -0.2878 -1.0639
 4044TIP3   OH233690   2.461   5.490   1.587  0.3048  0.1579  0.3073
 4044TIP3    H133691   2.543   5.443   1.569  0.7341  0.8469  0.4180
 4044TIP3    H233692   2.453   5.488   1.682 -0.2118 -0.5627  0.2599
 4045TIP3   OH233693   6.735   3.707   0.259  0.4820 -0.1530  0.0129
 4045TIP3    H133694   6.801   3.751   0.313 -1.0454  0.4015  1.5108
 4045TIP3    H233695   6.702   3.636   0.314  0.4816 -1.0314 -1.0847
 4046TIP3   OH233696   1.243   1.119   1.983  0.9094  0.2562  0.3665
 4046TIP3    H133697   1.325   1.168   1.986  0.0925  1.6673  0.7686
 4046TIP3    H233698   1.214   1.126   1.892  0.2500  1.5098  0.6514
 4047TIP3   OH233699   4.618   6.705   8.312  0.3109  0.3201  0.5574
 4047TIP3    H133700   4.613   6.780   8.253  0.6860 -1.5266 -2.0230
 4047TIP3    H233701   4.561   6.727   8.385 -1.8086  1.9909 -1.4609
 4048TIP3   OH233702   0.374   4.164   1.421  0.2568  0.6152 -0.0409
 4048TIP3    H133703   0.291   4.176   1.374  0.1239 -1.0143 -0.2767
 4048TIP3    H233704   0.350   4.118   1.502  0.9433 -0.0446 -0.1991
 4049TIP3   OH233705   0.287   4.965   8.502 -0.0916 -0.3111  0.9323
 4049TIP3    H133706   0.297   4.979   8.408 -0.4146 -2.2028  0.5728
 4049TIP3    H233707   0.374   4.980   8.538  0.4394 -1.2040  0.0795
 4050TIP3   OH233708   0.687   5.945   8.331 -0.2080  0.4017  0.3542
 4050TIP3    H133709   0.721   6.032   8.310  0.6869  0.0538  0.2958
 4050TIP3    H233710   0.613   5.933   8.272  0.0326  0.8890 -0.0593
 4051TIP3   OH233711   2.742   3.002   0.863 -0.2466 -0.3684 -0.4433
 4051TIP3    H133712   2.731   3.092   0.894 -0.9543 -0.3566 -0.7112
 4051TIP3    H233713   2.689   2.949   0.923  2.3692 -0.9984  1.4935
 4052TIP3   OH233714   3.770   6.303   2.134 -0.6437 -0.0101  0.2542
 4052TIP3    H133715   3.803   6.315   2.223 -1.7294 -0.5728  0.7400
 4052TIP3    H233716   3.835   6.346   2.079  1.3879 -1.7575  1.1101
 4053TIP3   OH233717   2.364   3.946   1.095  0.9471 -0.0496 -0.0344
 4053TIP3    H133718   2.427   3.880   1.067  0.5155 -0.4664 -0.0292
 4053TIP3    H233719   2.370   4.015   1.028 -0.2156 -1.1210 -1.3063
 4054TIP3   OH233720   5.103   0.032   1.021  0.7913 -0.2586 -0.4230
 4054TIP3    H133721   5.158   0.110   1.009  0.4509  0.1274  0.5155
 4054TIP3    H233722   5.127  -0.002   1.107 -0.8607  0.2533  0.2642
 4055TIP3   OH233723   3.952   5.896   2.624  0.5803 -0.0107 -0.7229
 4055TIP3    H133724   4.014   5.937   2.563  2.6946 -1.1969  0.5142
 4055TIP3    H233725   3.868   5.936   2.602  1.7695  1.7989 -2.4009
 4056TIP3   OH233726   6.321   1.814   0.897 -0.0896  0.4419  0.5908
 4056TIP3    H133727   6.276   1.732   0.914  0.8799 -0.5774 -1.3463
 4056TIP3    H233728   6.363   1.837   0.980  1.1396 -2.0254  0.7372
 4057TIP3   OH233729   1.543   4.446   1.499  0.2964  0.3452  0.2047
 4057TIP3    H133730   1.610   4.493   1.450  2.6095 -2.2788  0.5231
 4057TIP3    H233731   1.515   4.376   1.440  0.5301 -0.7358  1.3391
 4058TIP3   OH233732   2.623   6.028   1.416  0.3202 -0.0622 -0.5494
 4058TIP3    H133733   2.714   6.052   1.434  0.4251 -1.2240  0.6155
 4058TIP3    H233734   2.627   5.934   1.394 -0.6155 -0.1866 -0.2302
 4059TIP3   OH233735   1.600   0.357   8.394 -0.5116 -0.7802 -0.0998
 4059TIP3    H133736   1.576   0.354   8.301 -1.7102 -1.1055  0.2012
 4059TIP3    H233737   1.526   0.316   8.439 -0.6283  0.7098  1.1279
 4060TIP3   OH233738   3.594   0.636   1.855  0.4424 -0.7475 -0.1162
 4060TIP3    H133739   3.560   0.701   1.917  1.5063 -0.8960  0.6378
 4060TIP3    H233740   3.576   0.552   1.897  0.9048 -0.8622 -0.1507
 4061TIP3   OH233741   0.805   0.261   1.322  0.2262  0.8257  0.2831
 4061TIP3    H133742   0.880   0.250   1.379  0.1045  0.6972  0.4196
 4061TIP3    H233743   0.840   0.254   1.233  0.3628  0.7005  0.3487
 4062TIP3   OH233744   1.394   1.766   3.329  0.1125 -0.0634 -0.3028
 4062TIP3    H133745   1.480   1.738   3.361  0.4771  0.0616 -1.1462
 4062TIP3    H233746   1.364   1.830   3.394  1.7991  1.8173 -1.2510
 4063TIP3   OH233747   6.374   2.359   1.628 -0.0383  0.1680 -0.2176
 4063TIP3    H133748   6.365   2.442   1.675 -0.1815  1.5982 -2.5535
 4063TIP3    H233749   6.320   2.371   1.549  2.6570 -0.7527 -2.3643
 4064TIP3   OH233750   3.857   6.309   2.428 -0.2250  0.4447 -0.6007
 4064TIP3    H133751   3.788   6.373   2.444  0.0391  0.7526 -0.6756
 4064TIP3    H233752   3.888   6.285   2.516  0.0174  0.8014 -0.5858
 4065TIP3   OH233753   4.342   2.975   2.331 -0.1826 -0.0108 -0.4619
 4065TIP3    H133754   4.421   3.011   2.371 -0.8674  1.1264 -0.0907
 4065TIP3    H233755   4.294   3.052   2.301 -0.7998 -0.7299 -1.3600
 4066TIP3   OH233756   5.268   2.563   7.992  0.6613  0.8116 -0.1273
 4066TIP3    H133757   5.269   2.496   7.924 -0.4788  1.7620 -1.1188
 4066TIP3    H233758   5.321   2.635   7.956 -1.9871  2.3722 -1.2147
 4067TIP3   OH233759   3.080   5.471   1.343 -0.3935 -0.2535  0.5501
 4067TIP3    H133760   3.021   5.402   1.315 -1.3079  0.5275  0.5044
 4067TIP3    H233761   3.095   5.455   1.436  1.0782 -1.7093  0.1039
 4068TIP3   OH233762   0.191   4.470   1.684 -0.0222  0.0619  0.3840
 4068TIP3    H133763   0.246   4.456   1.761 -0.4634  1.2292  0.9308
 4068TIP3    H233764   0.153   4.557   1.697 -1.5383 -0.4726 -0.2562
 4069TIP3   OH233765   1.458   5.697   0.555  0.0071 -0.4442  0.2713
 4069TIP3    H133766   1.553   5.703   0.551 -0.0726  0.7556 -0.7000
 4069TIP3    H233767   1.429   5.711   0.464 -1.0711 -1.3111  0.4595
 4070TIP3   OH233768   2.704   6.869   2.949  0.2992 -0.4479  0.3686
 4070TIP3    H133769   2.703   6.807   2.876  2.9401 -0.8679  0.6198
 4070TIP3    H233770   2.764   6.831   3.013 -0.2455  0.9998  1.8165
 4071TIP3   OH233771   0.521   6.583   0.234 -0.2214 -0.0801 -0.6153
 4071TIP3    H133772   0.593   6.611   0.177 -0.5399 -0.1123 -1.0354
 4071TIP3    H233773   0.519   6.648   0.304 -0.6936  0.7333 -1.3686
 4072TIP3   OH233774   6.422   0.840   2.305  0.1103  0.5708  0.0637
 4072TIP3    H133775   6.448   0.819   2.215  0.8383  0.6386  0.2547
 4072TIP3    H233776   6.504   0.861   2.350 -0.0318 -1.0498  1.1714
 4073TIP3   OH233777   4.402   0.402   3.091 -0.0502 -0.0450  0.2348
 4073TIP3    H133778   4.454   0.340   3.040 -0.7271  0.5009 -1.1655
 4073TIP3    H233779   4.316   0.361   3.099 -0.8854  1.1740 -1.7641
 4074TIP3   OH233780   5.020   1.598   1.965 -0.3808  0.1275  0.1437
 4074TIP3    H133781   5.060   1.666   1.911 -0.2085  0.4651  0.6866
 4074TIP3    H233782   4.973   1.646   2.033  0.3824 -0.2848  0.9905
 4075TIP3   OH233783   4.719   5.144   0.783 -0.4759  0.5210 -0.2740
 4075TIP3    H133784   4.719   5.062   0.832  1.0735  0.3717 -0.4894
 4075TIP3    H233785   4.705   5.212   0.849 -0.3106  0.1946  0.0966
 4076TIP3   OH233786   3.073   6.703   2.493 -0.2070 -0.0727  0.5619
 4076TIP3    H133787   3.092   6.789   2.532 -0.6249 -0.4363  1.6019
 4076TIP3    H233788   3.066   6.720   2.399  0.5649  0.8806  0.6629
 4077TIP3   OH233789   0.505   1.545   0.948  0.3910  0.2032 -0.3198
 4077TIP3    H133790   0.493   1.609   1.019  1.9562  1.0229 -0.7342
 4077TIP3    H233791   0.569   1.483   0.983  0.0615 -0.2366 -0.4941
 4078TIP3   OH233792   0.759   2.795   1.844 -0.2043 -0.0235 -0.2709
 4078TIP3    H133793   0.727   2.738   1.913  0.1503 -1.7277 -1.4458
 4078TIP3    H233794   0.681   2.823   1.797 -0.5655  2.1080  1.4444
 4079TIP3   OH233795   1.649   4.549   0.717 -0.2670 -0.7338 -0.7387
 4079TIP3    H133796   1.737   4.579   0.740 -0.8818  2.0020 -1.6239
 4079TIP3    H233797   1.650   4.455   0.736  1.9625 -0.3007  1.9305
 4080TIP3   OH233798   3.902   2.526   3.695  0.1412  0.3519  0.0852
 4080TIP3    H133799   3.954   2.554   3.770  0.2833  0.2890  0.0101
 4080TIP3    H233800   3.931   2.582   3.623 -1.3258  1.7171  0.5111
 4081TIP3   OH233801   0.457   1.509   2.127  0.7879  0.1251 -0.3559
 4081TIP3    H133802   0.518   1.442   2.097  0.6288  0.0530 -0.5204
 4081TIP3    H233803   0.381   1.500   2.070  1.2371  1.2280 -1.1719
 4082TIP3   OH233804   0.720   1.849   0.920 -0.1062 -0.1699  0.5631
 4082TIP3    H133805   0.719   1.916   0.851 -0.4285 -0.7357  0.0065
 4082TIP3    H233806   0.812   1.835   0.939 -0.0453  1.2089  1.4672
 4083TIP3   OH233807   0.513   1.717   0.700  0.7113  0.8174  0.0142
 4083TIP3    H133808   0.466   1.794   0.667 -0.5894 -0.5482 -1.5059
 4083TIP3    H233809   0.497   1.717   0.794  1.3227  2.7446  0.1638
 4084TIP3   OH233810   0.220   6.734   3.886 -0.0039 -0.5852 -0.3356
 4084TIP3    H133811   0.304   6.776   3.905  0.1261 -1.1214  0.3141
 4084TIP3    H233812   0.237   6.641   3.895 -0.6321 -0.7074 -0.3492
 4085TIP3   OH233813   1.049   4.681   4.223  0.2328  0.3383  0.1479
 4085TIP3    H133814   1.017   4.682   4.314 -0.6872  0.3833 -0.1626
 4085TIP3    H233815   0.973   4.706   4.171  1.0419  1.4246 -0.5646
 4086TIP3   OH233816   2.186   6.732   7.721 -0.0056  0.1270 -0.5661
 4086TIP3    H133817   2.261   6.673   7.708  0.4289  0.8256 -1.2604
 4086TIP3    H233818   2.110   6.678   7.699  0.1248 -1.0655  1.5706
 4087TIP3   OH233819   4.520   0.538   0.498 -0.6390  0.4953 -0.0182
 4087TIP3    H133820   4.509   0.555   0.405  0.4428  1.5113  0.0121
 4087TIP3    H233821   4.568   0.456   0.503 -2.6755 -0.7639 -0.2754
 4088TIP3   OH233822   3.715   1.485   0.151  0.0584  0.1209 -0.4469
 4088TIP3    H133823   3.767   1.563   0.130 -0.2809  0.0673 -1.5854
 4088TIP3    H233824   3.774   1.429   0.200  0.5559  0.7577 -0.3058
 4089TIP3   OH233825   3.653   2.394   8.553 -0.3148 -0.0498  0.2362
 4089TIP3    H133826   3.614   2.309   8.530  1.2044 -0.4870 -0.8598
 4089TIP3    H233827   3.582   2.457   8.541 -1.4079 -1.1183  0.8424
 4090TIP3   OH233828   3.555   1.627   1.744 -0.3672 -0.1723 -0.2871
 4090TIP3    H133829   3.583   1.716   1.721  1.5271 -1.1989 -2.4264
 4090TIP3    H233830   3.534   1.587   1.660 -0.1778 -2.0403  0.5223
 4091TIP3   OH233831   6.310   1.058   0.285 -0.3536  0.0580 -0.3451
 4091TIP3    H133832   6.263   1.107   0.219  0.9381 -0.2390 -1.5428
 4091TIP3    H233833   6.403   1.071   0.263  0.0674 -1.0978  0.6329
 4092TIP3   OH233834   3.521   5.938   0.725  0.2708  0.4323 -0.0651
 4092TIP3    H133835   3.439   5.894   0.703 -0.0215  1.9456 -2.3502
 4092TIP3    H233836   3.495   6.014   0.777  0.4747 -0.3070  1.1491
 4093TIP3   OH233837   2.833   5.553   2.153  0.9909  0.2743  0.3112
 4093TIP3    H133838   2.806   5.583   2.067  0.6632 -1.4730 -0.2326
 4093TIP3    H233839   2.751   5.533   2.199  1.1954 -0.3285  0.4323
 4094TIP3   OH233840   6.201   0.680   1.284 -0.6758 -0.1739  0.1783
 4094TIP3    H133841   6.284   0.710   1.248 -0.6987  0.1045  0.3630
 4094TIP3    H233842   6.175   0.747   1.347 -1.0489 -0.2513  0.1106
 4095TIP3   OH233843   6.074   6.528   0.750  0.7367  0.0471  0.0288
 4095TIP3    H133844   5.991   6.496   0.715  0.0586 -0.6893  2.1624
 4095TIP3    H233845   6.137   6.460   0.728  0.4292 -0.1862 -0.1490
 4096TIP3   OH233846   2.634   1.471   3.917 -0.0100  0.1392  0.3762
 4096TIP3    H133847   2.695   1.541   3.895  0.8262 -0.2604  1.3628
 4096TIP3    H233848   2.548   1.514   3.919  0.0953  0.5398 -1.8056
 4097TIP3   OH233849   6.158   2.308   0.427  0.4775 -0.5593  0.3368
 4097TIP3    H133850   6.062   2.302   0.423  0.3998 -0.1925  1.3195
 4097TIP3    H233851   6.183   2.360   0.351 -0.1688 -0.0431  0.4698
 4098TIP3   OH233852   0.445   3.692   2.053  0.3160  0.0601  0.4234
 4098TIP3    H133853   0.357   3.667   2.081  0.8290 -2.0828  0.2800
 4098TIP3    H233854   0.463   3.774   2.099 -1.5715  0.3041  0.7846
 4099TIP3   OH233855   1.362   1.853   7.998 -0.2898  0.2579  0.5767
 4099TIP3    H133856   1.398   1.778   7.951 -0.6255  1.1540 -1.2017
 4099TIP3    H233857   1.333   1.913   7.929 -0.6130  1.7476  1.9422
 4100TIP3   OH233858   0.657   4.340   1.453 -0.0441 -0.2465 -0.2031
 4100TIP3    H133859   0.575   4.321   1.498 -1.3616  1.3619 -1.7735
 4100TIP3    H233860   0.659   4.278   1.379  0.1540 -0.2620 -0.1866
 4101TIP3   OH233861   3.573   3.012   8.613 -0.3818 -0.4264  0.1531
 4101TIP3    H133862   3.528   2.993   8.530 -0.1126  0.8824 -0.3151
 4101TIP3    H233863   3.663   2.982   8.598 -0.7620 -1.9074  0.6558
 4102TIP3   OH233864   4.373   3.723   2.513 -0.0480 -0.3099  0.1245
 4102TIP3    H133865   4.411   3.675   2.587  0.1833  0.8807  0.8025
 4102TIP3    H233866   4.284   3.687   2.504 -0.5715  0.4228  1.8653
 4103TIP3   OH233867   1.509   1.575   0.451  0.4760 -0.1949 -0.4358
 4103TIP3    H133868   1.535   1.620   0.532  1.9577 -0.0622 -0.9484
 4103TIP3    H233869   1.507   1.644   0.385 -1.3342 -0.1977 -0.4226
 4104TIP3   OH233870   5.704   0.642   0.943 -0.0852  0.2653  0.1417
 4104TIP3    H133871   5.779   0.701   0.942 -0.4262  0.8313  2.3670
 4104TIP3    H233872   5.731   0.569   1.000  0.3165 -1.8193 -2.5094
 4105TIP3   OH233873   1.308   5.811   2.135 -0.6686  0.0841  0.3160
 4105TIP3    H133874   1.317   5.897   2.095  0.4298  0.2534  0.8808
 4105TIP3    H233875   1.341   5.750   2.069 -1.2250  0.1072  0.0085
 4106TIP3   OH233876   5.902   1.287   2.406 -0.0059 -0.2944  0.1274
 4106TIP3    H133877   5.890   1.307   2.313 -0.6537 -1.3636 -0.0403
 4106TIP3    H233878   5.814   1.271   2.439  0.4041 -2.8279  0.1997
 4107TIP3   OH233879   4.251   2.140   1.795 -0.4356 -0.0004 -0.8016
 4107TIP3    H133880   4.206   2.212   1.751 -0.3971  0.5507  0.0227
 4107TIP3    H233881   4.198   2.123   1.873  0.1993 -0.0478 -0.3668
 4108TIP3   OH233882   4.084   0.041   1.321  0.0194  0.0757 -0.6897
 4108TIP3    H133883   4.090  -0.019   1.247 -2.1829 -0.6207 -0.3768
 4108TIP3    H233884   4.055  -0.014   1.394  1.4794  0.8781  0.5556
 4109TIP3   OH233885   6.811   5.747   1.850  0.2982 -0.1963  0.4908
 4109TIP3    H133886   6.877   5.771   1.915 -0.2931  0.9133  0.6996
 4109TIP3    H233887   6.860   5.699   1.782  1.2687  0.4020  0.7574
 4110TIP3   OH233888   4.832   2.551   3.309 -0.0296 -0.7983  0.4487
 4110TIP3    H133889   4.776   2.481   3.342  0.1789 -1.1918 -0.0157
 4110TIP3    H233890   4.797   2.630   3.350  1.2007 -1.4194  2.8818
 4111TIP3   OH233891   5.535   3.739   0.709 -0.2246  0.5053 -0.2276
 4111TIP3    H133892   5.441   3.729   0.721  0.2951 -1.2528  4.7326
 4111TIP3    H233893   5.566   3.650   0.689  0.4100  1.1719 -2.4069
 4112TIP3   OH233894   5.830   1.344   1.880 -0.2026  0.4421  0.0296
 4112TIP3    H133895   5.770   1.321   1.809 -0.1683  1.1711 -0.2378
 4112TIP3    H233896   5.863   1.431   1.857 -1.2267  1.2966  1.5904
 4113TIP3   OH233897   6.019   2.372   7.625  0.0045 -0.3235  0.2267
 4113TIP3    H133898   6.073   2.411   7.556  1.4376 -1.6804  0.5197
 4113TIP3    H233899   5.941   2.427   7.628  1.0377  1.2932 -0.7229
 4114TIP3   OH233900   2.918   0.258   1.794 -0.2009 -0.5123 -0.3100
 4114TIP3    H133901   3.007   0.254   1.759 -0.3764  0.0352 -0.8297
 4114TIP3    H233902   2.926   0.223   1.883  0.5351 -0.4439 -0.3410
 4115TIP3   OH233903   0.708   5.785   0.071 -0.4008  0.7107 -0.8570
 4115TIP3    H133904   0.676   5.831   0.149 -0.2424 -1.1213  0.3553
 4115TIP3    H233905   0.635   5.790   0.009 -2.2485 -1.3469  0.9707
 4116TIP3   OH233906   4.492   3.362   3.447  0.2047  0.1724 -0.3015
 4116TIP3    H133907   4.550   3.398   3.513  1.1480 -0.3544 -0.8271
 4116TIP3    H233908   4.431   3.434   3.427  0.9289  0.8722 -0.0377
 4117TIP3   OH233909   2.808   4.347   0.250 -0.1807  0.4819  0.0738
 4117TIP3    H133910   2.880   4.338   0.311 -0.7215 -0.7790  0.5637
 4117TIP3    H233911   2.840   4.408   0.184  2.1515 -1.5567 -0.8745
 4118TIP3   OH233912   0.264   1.730   3.142 -0.5838  0.0036 -0.2532
 4118TIP3    H133913   0.189   1.710   3.198 -0.5596  2.4801  0.7768
 4118TIP3    H233914   0.336   1.679   3.179 -1.3463 -1.0094 -0.1428
 4119TIP3   OH233915   4.333   5.755   0.774  0.0934  0.0358 -0.1737
 4119TIP3    H133916   4.277   5.677   0.772 -0.1886  0.2279  0.1961
 4119TIP3    H233917   4.419   5.723   0.743  0.7345 -1.0296  2.4626
 4120TIP3   OH233918   6.188   4.651   1.155 -0.1780 -0.2726  0.4616
 4120TIP3    H133919   6.103   4.683   1.126 -0.3279 -1.0598  0.0161
 4120TIP3    H233920   6.174   4.559   1.177  0.8307 -0.7763 -0.8814
 4121TIP3   OH233921   1.096   6.282   7.989 -0.7410  0.1298  0.2220
 4121TIP3    H133922   1.013   6.254   7.949 -0.0799 -0.0488 -1.0932
 4121TIP3    H233923   1.131   6.201   8.027  0.2695 -0.5398 -1.9416
 4122TIP3   OH233924   2.280   0.099   3.034  0.4978 -0.9341  0.3113
 4122TIP3    H133925   2.322   0.163   3.090 -0.1972  0.2846 -0.5228
 4122TIP3    H233926   2.241   0.150   2.963  0.1480 -2.2944 -0.5241
 4123TIP3   OH233927   3.320   4.526   0.599  0.1250  0.0671  0.4639
 4123TIP3    H133928   3.350   4.551   0.512 -0.4060 -0.8033  0.0133
 4123TIP3    H233929   3.396   4.539   0.656 -0.5196  4.2025  0.6386
 4124TIP3   OH233930   0.977   4.826   0.385  0.5539  1.1703  0.1110
 4124TIP3    H133931   1.026   4.847   0.464 -0.3509  1.3083  0.6527
 4124TIP3    H233932   0.938   4.909   0.358  2.2288  1.5023 -1.4842
 4125TIP3   OH233933   1.638   2.699   2.640 -0.0943  0.4138 -1.0273
 4125TIP3    H133934   1.571   2.766   2.652 -0.9138 -0.5761  0.1242
 4125TIP3    H233935   1.590   2.622   2.609  0.2850 -0.6577  0.8851
 4126TIP3   OH233936   1.631   2.410   2.023  0.2912  0.1163 -0.1470
 4126TIP3    H133937   1.693   2.430   1.952  0.0880  3.1889  0.3882
 4126TIP3    H233938   1.687   2.394   2.099  0.4541 -0.6491 -0.4144
 4127TIP3   OH233939   2.551   2.334   1.965 -0.6463 -0.6474  0.1517
 4127TIP3    H133940   2.519   2.424   1.955 -0.4193 -0.4200  1.2998
 4127TIP3    H233941   2.490   2.294   2.027 -0.1481 -0.9661  0.4411
 4128TIP3   OH233942   5.624   3.246   8.394  0.2907  0.4597  0.2059
 4128TIP3    H133943   5.599   3.190   8.467 -1.3239  2.3195  1.1781
 4128TIP3    H233944   5.561   3.225   8.325  2.9981 -2.7534 -1.6240
 4129TIP3   OH233945   0.825   6.324   1.932  0.0343  0.1360 -0.8551
 4129TIP3    H133946   0.743   6.298   1.889 -1.8729  0.2659  2.3855
 4129TIP3    H233947   0.829   6.270   2.011  1.0677  2.7356  1.0076
 4130TIP3   OH233948   3.815   5.996   0.188 -0.6219 -0.0780  0.1722
 4130TIP3    H133949   3.790   6.029   0.102 -0.4276 -1.3304 -0.3812
 4130TIP3    H233950   3.882   6.058   0.218  0.0419 -0.1724 -1.0264
 4131TIP3   OH233951   4.195   4.307   1.926 -0.2213  0.1055 -0.4992
 4131TIP3    H133952   4.150   4.255   1.993  1.4925  0.9432  1.4529
 4131TIP3    H233953   4.279   4.328   1.967  0.7469  1.0026 -2.8284
 4132TIP3   OH233954   4.988   2.614   1.136 -0.1353  0.1628  0.7989
 4132TIP3    H133955   4.912   2.568   1.172  0.4298 -0.6053  1.0411
 4132TIP3    H233956   4.980   2.604   1.041  1.2854 -2.7015  0.8703
 4133TIP3   OH233957   4.478   4.869   2.759 -0.3539  0.0322 -0.2266
 4133TIP3    H133958   4.472   4.787   2.809  1.1445  1.1027  1.8767
 4133TIP3    H233959   4.565   4.867   2.721 -0.2087  0.7355  0.0491
 4134TIP3   OH233960   3.790   6.266   1.494 -0.0024 -0.3905 -0.1887
 4134TIP3    H133961   3.717   6.232   1.546 -0.5511  0.5680 -0.2996
 4134TIP3    H233962   3.749   6.329   1.435  1.0851  1.0690  0.5745
 4135TIP3   OH233963   5.975   0.047   2.473  0.1626 -0.1676  0.4162
 4135TIP3    H133964   6.068   0.048   2.494  0.9588  0.5570 -2.7360
 4135TIP3    H233965   5.933   0.083   2.552  2.8049  2.2705  0.8858
 4136TIP3   OH233966   0.568   2.409   0.740 -0.1198 -0.1536 -0.2293
 4136TIP3    H133967   0.641   2.393   0.800 -1.5106 -2.8088  0.9258
 4136TIP3    H233968   0.497   2.441   0.796 -0.5700  0.1609 -0.9642
 4137TIP3   OH233969   2.731   4.856   1.777 -0.3363  0.0696 -0.1767
 4137TIP3    H133970   2.749   4.899   1.860 -1.7938 -0.9256  0.7064
 4137TIP3    H233971   2.635   4.853   1.771 -0.2690 -1.0312 -1.2697
 4138TIP3   OH233972   4.133   5.281   0.931 -0.9701  0.0266 -0.1997
 4138TIP3    H133973   4.047   5.244   0.953 -0.2217 -2.3558 -0.9573
 4138TIP3    H233974   4.129   5.371   0.963 -3.5464 -0.1732  0.2663
 4139TIP3   OH233975   1.101   2.516   8.601  0.1850 -0.5493  0.0489
 4139TIP3    H133976   1.049   2.533   8.522  0.6515  1.6038  0.1478
 4139TIP3    H233977   1.181   2.566   8.588  0.1134  0.1530  2.0359
 4140TIP3   OH233978   1.546   3.568   1.107 -0.1570 -0.6386 -0.6033
 4140TIP3    H133979   1.591   3.513   1.171  1.7030  0.7977 -0.5955
 4140TIP3    H233980   1.572   3.532   1.022  0.2268 -0.3984 -0.5878
 4141TIP3   OH233981   2.257   4.215   1.363 -0.9183  0.2646 -0.3179
 4141TIP3    H133982   2.347   4.236   1.340 -0.5028 -1.7509 -0.7175
 4141TIP3    H233983   2.217   4.299   1.384  1.4327  1.0740  1.2879
 4142TIP3   OH233984   6.871   6.439   2.098  0.0536  0.2642 -0.4210
 4142TIP3    H133985   6.939   6.421   2.034  0.6731  1.6863 -0.1863
 4142TIP3    H233986   6.898   6.520   2.141  0.2422 -1.1454  2.4053
 4143TIP3   OH233987   5.759   3.992   8.489 -0.1391 -0.1871 -0.6706
 4143TIP3    H133988   5.751   3.969   8.397  0.5852 -1.2700 -0.4880
 4143TIP3    H233989   5.798   3.914   8.530 -1.5301 -0.1911  0.7600
 4144TIP3   OH233990   1.689   2.140   3.759 -0.1158 -0.2625  0.0611
 4144TIP3    H133991   1.776   2.141   3.717  0.5094  0.5495  1.3193
 4144TIP3    H233992   1.672   2.047   3.776  0.9319 -0.3674  0.6312
 4145TIP3   OH233993   0.872   2.178   4.153  0.5582  0.2352 -0.1023
 4145TIP3    H133994   0.898   2.142   4.068  1.4409 -0.0396  0.2738
 4145TIP3    H233995   0.781   2.205   4.141  0.7229  0.3331 -1.1760
 4146TIP3   OH233996   6.856   3.759   1.474  0.0346 -0.2814  0.2731
 4146TIP3    H133997   6.828   3.782   1.563  0.4750  0.7569  0.1524
 4146TIP3    H233998   6.948   3.734   1.483  0.4626  1.1051 -0.0782
 4147TIP3   OH233999   1.349   6.380   7.959 -0.2474  0.2885 -0.0710
 4147TIP3    H134000   1.377   6.470   7.943  0.3729 -0.3088 -2.9766
 4147TIP3    H234001   1.253   6.385   7.964 -0.1522  1.2471  1.1387
 4148TIP3   OH234002   2.610   0.191   0.426 -0.2262 -0.3789  0.3241
 4148TIP3    H134003   2.585   0.117   0.482 -0.9565 -0.3489  0.0439
 4148TIP3    H234004   2.533   0.207   0.372  0.9344 -1.3170 -1.7051
 4149TIP3   OH234005   6.138   4.007   3.295  0.4388  0.2715 -0.2274
 4149TIP3    H134006   6.183   3.936   3.343  1.9527  1.2878 -0.0651
 4149TIP3    H234007   6.067   4.033   3.353  0.9371  0.0460  0.5079
 4150TIP3   OH234008   2.157   6.300   2.084 -0.1885  0.1022  0.2837
 4150TIP3    H134009   2.207   6.263   2.011 -1.2738 -0.3476 -0.2518
 4150TIP3    H234010   2.222   6.311   2.153  0.5610 -0.9491 -0.2142
 4151TIP3   OH234011   0.546   5.381   0.923 -0.1913  0.4138 -0.5274
 4151TIP3    H134012   0.616   5.438   0.956  1.5494 -0.8257 -1.8342
 4151TIP3    H234013   0.565   5.295   0.962 -2.5166  0.5611  1.0901
 4152TIP3   OH234014   2.397   3.550   1.724  0.0801 -0.4983 -0.1430
 4152TIP3    H134015   2.466   3.615   1.738  1.4800 -1.7633 -0.7437
 4152TIP3    H234016   2.359   3.572   1.639  1.1195 -0.9068 -0.7377
 4153TIP3   OH234017   2.026   6.277   0.458 -0.0010  0.3963 -0.0161
 4153TIP3    H134018   2.033   6.187   0.488  0.8286  0.8665  1.2918
 4153TIP3    H234019   2.068   6.329   0.527  1.2359  1.6288 -1.6103
 4154TIP3   OH234020   1.667   6.307   1.382  0.2309 -0.0237  0.0059
 4154TIP3    H134021   1.584   6.349   1.360  0.6398  0.9053  0.2141
 4154TIP3    H234022   1.643   6.235   1.441 -0.5459 -0.5447 -0.9167
 4155TIP3   OH234023   6.754   4.732   3.189  0.1465  0.4837  0.1998
 4155TIP3    H134024   6.751   4.809   3.245 -0.4523  0.0301  0.8120
 4155TIP3    H234025   6.679   4.679   3.218 -0.4626  0.4501 -1.3439
 4156TIP3   OH234026   5.468   5.328   0.279  0.0850  0.5962 -0.5177
 4156TIP3    H134027   5.522   5.358   0.206  0.0297 -0.5932 -1.0696
 4156TIP3    H234028   5.530   5.294   0.344  0.0483 -0.3913 -0.9773
 4157TIP3   OH234029   3.503   6.371   7.607  0.4666 -0.2465 -0.0711
 4157TIP3    H134030   3.478   6.285   7.640 -0.1792 -1.0054 -2.3802
 4157TIP3    H234031   3.585   6.356   7.560  1.3269  0.7817  1.0534
 4158TIP3   OH234032   1.990   0.588   3.294  0.5048  0.0743  0.2856
 4158TIP3    H134033   2.059   0.572   3.230  0.3302 -0.9955  0.3414
 4158TIP3    H234034   1.997   0.515   3.356 -0.7753 -0.1599  0.1924
 4159TIP3   OH234035   5.258   2.347   1.860  0.3721  0.1602 -0.8590
 4159TIP3    H134036   5.233   2.294   1.936  2.6015  1.7199  1.0842
 4159TIP3    H234037   5.179   2.397   1.839 -1.6045 -3.2104 -2.3528
 4160TIP3   OH234038   3.799   3.977   8.602  0.0197  0.5703  0.1430
 4160TIP3    H134039   3.712   3.963   8.639 -0.7924  1.2692 -1.3765
 4160TIP3    H234040   3.813   3.902   8.544  0.8551 -0.0234  1.0878
 4161TIP3   OH234041   2.980   0.184   1.505  0.3232  0.3817 -0.1550
 4161TIP3    H134042   2.950   0.271   1.479  2.9070  0.7103 -2.5670
 4161TIP3    H234043   3.020   0.196   1.591 -1.7953  0.9227  0.8090
 4162TIP3   OH234044   4.754   5.466   3.422 -0.4778  0.2995  0.5552
 4162TIP3    H134045   4.842   5.504   3.418  0.1454 -1.1352 -0.4918
 4162TIP3    H234046   4.770   5.371   3.426 -1.9899  0.0127  0.1885
 4163TIP3   OH234047   2.121   2.684   2.419  0.1785 -0.2722  0.1030
 4163TIP3    H134048   2.126   2.768   2.373 -0.5720  0.0848  0.6501
 4163TIP3    H234049   2.110   2.708   2.511 -0.7940 -0.9584  0.1805
 4164TIP3   OH234050   5.363   6.397   2.071 -0.4862 -0.2630 -0.1365
 4164TIP3    H134051   5.284   6.387   2.018  0.4289 -1.8339 -1.3062
 4164TIP3    H234052   5.430   6.426   2.009  0.3583 -1.0881  0.3691
 4165TIP3   OH234053   5.559   4.335   1.385  0.4536 -0.0404  0.0412
 4165TIP3    H134054   5.524   4.373   1.465 -1.6325  0.3279 -0.9828
 4165TIP3    H234055   5.623   4.400   1.355 -1.4607  1.7257 -0.5062
 4166TIP3   OH234056   6.462   4.000   1.873 -0.3917  0.4024  0.2955
 4166TIP3    H134057   6.484   4.028   1.784 -0.1055  0.1152  0.2756
 4166TIP3    H234058   6.530   4.039   1.928 -2.2983  3.2978  0.8315
 4167TIP3   OH234059   5.400   5.478   2.593  0.1426  0.4027  0.6386
 4167TIP3    H134060   5.340   5.436   2.654 -1.1236 -0.5299 -1.1537
 4167TIP3    H234061   5.372   5.570   2.592  0.9626  0.7044  2.3051
 4168TIP3   OH234062   3.972   6.094   3.113  0.5935 -0.2488 -0.2215
 4168TIP3    H134063   4.036   6.153   3.074  0.2686  0.8717  0.8771
 4168TIP3    H234064   4.016   6.058   3.190  0.8974 -1.7174 -1.0454
 4169TIP3   OH234065   0.236   4.292   2.720  0.0999 -0.2547 -0.2095
 4169TIP3    H134066   0.239   4.387   2.723 -1.0888 -0.2224  2.2744
 4169TIP3    H234067   0.314   4.267   2.671  0.8918  1.9550 -0.1719
 4170TIP3   OH234068   3.678   2.627   2.263  0.1443 -0.1827 -0.2520
 4170TIP3    H134069   3.740   2.602   2.194  1.7479  1.5820  0.4848
 4170TIP3    H234070   3.660   2.719   2.246 -3.6816 -0.9583 -1.4404
 4171TIP3   OH234071   3.983   2.523   2.587 -0.0143 -1.1188  0.4481
 4171TIP3    H134072   4.023   2.445   2.548  0.2032 -1.0341  0.5007
 4171TIP3    H234073   3.906   2.490   2.633  0.1663 -1.3234  0.6042
 4172TIP3   OH234074   3.914   5.050   0.866  0.4281 -0.5205 -0.3648
 4172TIP3    H134075   3.868   4.971   0.838  1.8017 -1.2902 -0.5837
 4172TIP3    H234076   3.849   5.120   0.860 -0.0605 -1.0988 -3.0655
 4173TIP3   OH234077   6.310   1.096   7.988 -0.2788 -0.3375  0.4401
 4173TIP3    H134078   6.271   1.076   7.903  0.4136 -3.8342  0.7772
 4173TIP3    H234079   6.330   1.189   7.985 -1.3432 -0.1135 -2.7511
 4174TIP3   OH234080   0.595   5.218   2.898  0.4520 -0.7700  0.0410
 4174TIP3    H134081   0.539   5.227   2.820  1.0551 -0.2412 -0.3306
 4174TIP3    H234082   0.664   5.158   2.870 -1.0145 -3.1358  1.1163
 4175TIP3   OH234083   2.583   1.755   3.706 -0.1767  0.5389 -0.2670
 4175TIP3    H134084   2.576   1.850   3.712 -2.1103  0.4812 -0.8708
 4175TIP3    H234085   2.512   1.722   3.760 -0.3185 -0.5298 -1.0618
 4176TIP3   OH234086   5.334   2.867   1.309 -0.0683  0.3556  0.2444
 4176TIP3    H134087   5.271   2.805   1.346  0.1227 -0.5406 -0.8971
 4176TIP3    H234088   5.323   2.946   1.362  2.8161 -1.9239  4.8279
 4177TIP3   OH234089   5.680   5.235   1.533  0.7348 -0.3823  0.8633
 4177TIP3    H134090   5.715   5.298   1.596 -1.8330  2.3136 -0.1629
 4177TIP3    H234091   5.709   5.267   1.448 -2.5644  1.0586  0.1103
 4178TIP3   OH234092   3.984   1.127   8.493  0.2381  0.1374  0.0420
 4178TIP3    H134093   3.993   1.149   8.400  0.4789  0.9272  0.2440
 4178TIP3    H234094   3.945   1.205   8.533 -0.8756 -0.6039  0.4279
 4179TIP3   OH234095   6.692   4.360   0.504 -0.0996 -0.0800  0.0248
 4179TIP3    H134096   6.686   4.266   0.520 -1.6431  0.3272  2.4488
 4179TIP3    H234097   6.786   4.378   0.502  0.2247 -1.7287 -1.0797
 4180TIP3   OH234098   2.068   3.576   2.309 -0.0895  0.6508  0.3294
 4180TIP3    H134099   2.105   3.508   2.252  1.4853  0.8788  1.0338
 4180TIP3    H234100   2.045   3.647   2.248  1.2639  0.7599 -0.0992
 4181TIP3   OH234101   3.266   1.574   1.970  0.5074  0.3068 -0.2441
 4181TIP3    H134102   3.254   1.549   2.062 -0.5430  1.4464 -0.0478
 4181TIP3    H234103   3.361   1.579   1.959  0.6729 -0.8720  0.4770
 4182TIP3   OH234104   3.180   4.310   8.614 -0.5467  0.1051 -0.4782
 4182TIP3    H134105   3.103   4.367   8.606 -0.2124  0.8644  1.1214
 4182TIP3    H234106   3.203   4.287   8.524 -2.8717 -0.4822 -0.9830
 4183TIP3   OH234107   1.448   0.294   0.668 -0.0550 -0.0400 -0.5575
 4183TIP3    H134108   1.478   0.347   0.742  0.4469 -0.9847 -0.0739
 4183TIP3    H234109   1.508   0.317   0.597 -0.1282  0.3794 -0.4865
 4184TIP3   OH234110   6.723   3.433   8.041  0.6456  0.2481  0.1230
 4184TIP3    H134111   6.667   3.423   7.964 -1.9273  2.1115  1.5805
 4184TIP3    H234112   6.758   3.521   8.033  0.6301  0.3262  0.8881
 4185TIP3   OH234113   3.574   1.253   0.671  0.1623  0.3953  0.3013
 4185TIP3    H134114   3.599   1.172   0.626 -0.7657 -0.0744  0.6059
 4185TIP3    H234115   3.491   1.279   0.630  0.2005  0.9210  0.5478
 4186TIP3   OH234116   3.041   6.202   2.133  1.1351 -0.1256  0.3170
 4186TIP3    H134117   3.009   6.185   2.221  0.6774 -1.9093 -0.1534
 4186TIP3    H234118   3.004   6.288   2.110 -0.7234 -0.7009  0.9881
 4187TIP3   OH234119   0.870   1.872   2.867  0.2516  0.0682  0.4812
 4187TIP3    H134120   0.841   1.931   2.937  1.0896  2.6256 -1.1790
 4187TIP3    H234121   0.789   1.838   2.830 -0.3051  0.6506  1.1225
 4188TIP3   OH234122   6.639   2.224   1.294  0.3102 -0.3090 -0.2097
 4188TIP3    H134123   6.662   2.302   1.243  2.0777  0.3238  1.4337
 4188TIP3    H234124   6.718   2.203   1.343  0.0003 -3.3478 -0.7776
 4189TIP3   OH234125   3.104   0.722   0.558  0.2131  0.2142 -0.5222
 4189TIP3    H134126   3.125   0.790   0.622  0.5711 -2.5715  2.5562
 4189TIP3    H234127   3.186   0.675   0.546 -0.4248 -0.7556 -1.2022
 4190TIP3   OH234128   2.343   3.080   0.151  0.1511 -0.2251 -0.2134
 4190TIP3    H134129   2.431   3.117   0.154  0.3729 -0.7372 -0.2785
 4190TIP3    H234130   2.346   3.016   0.079 -0.3970  0.0692 -0.5089
 4191TIP3   OH234131   2.878   5.232   3.845  0.6862  0.0665 -0.9653
 4191TIP3    H134132   2.876   5.322   3.877 -1.0492  0.1153 -1.1033
 4191TIP3    H234133   2.825   5.183   3.908  0.8345 -0.6754 -1.4081
 4192TIP3   OH234134   4.796   4.838   8.389  0.4000  0.1721 -1.0640
 4192TIP3    H134135   4.791   4.762   8.331 -0.9190 -0.4099 -0.2473
 4192TIP3    H234136   4.829   4.802   8.472  1.8198  0.9063 -1.2780
 4193TIP3   OH234137   2.895   5.334   0.805 -0.0819  0.0294 -0.2074
 4193TIP3    H134138   2.950   5.257   0.822 -0.0826  0.3194  1.2493
 4193TIP3    H234139   2.811   5.298   0.779 -0.3290 -0.5076  1.2460
 4194TIP3   OH234140   4.302   0.731   8.344 -0.7455  0.3104 -0.2986
 4194TIP3    H134141   4.254   0.691   8.271 -1.2289 -0.1173  0.2479
 4194TIP3    H234142   4.240   0.792   8.383 -0.7753 -0.0824  0.2766
 4195TIP3   OH234143   6.563   3.672   1.556 -0.4341  0.3395  0.6799
 4195TIP3    H134144   6.482   3.675   1.607 -0.6912 -2.3878  0.5798
 4195TIP3    H234145   6.619   3.740   1.595 -3.3087  3.6459 -0.4518
 4196TIP3   OH234146   2.810   1.225   8.108  0.2201 -0.2062 -0.0596
 4196TIP3    H134147   2.901   1.204   8.127  0.2359  0.4467  0.6289
 4196TIP3    H234148   2.806   1.321   8.111 -0.2477 -0.1721 -1.2022
 4197TIP3   OH234149   6.241   2.116   2.320  0.0956  0.4176  0.4113
 4197TIP3    H134150   6.263   2.030   2.283  0.5470  0.5958  0.2524
 4197TIP3    H234151   6.241   2.103   2.414 -4.1740 -0.8327  0.4454
 4198TIP3   OH234152   0.681   6.319   1.500 -0.8644  0.0146  0.2228
 4198TIP3    H134153   0.740   6.385   1.535  1.1580 -2.4753  1.8033
 4198TIP3    H234154   0.733   6.273   1.434 -2.1407 -0.2082 -0.6682
 4199TIP3   OH234155   0.087   2.392   3.027 -0.4074  0.3666 -0.4087
 4199TIP3    H134156   0.031   2.437   2.964  0.4532  1.6592 -0.2917
 4199TIP3    H234157   0.176   2.409   2.997 -0.0200 -2.0780 -0.8853
 4200TIP3   OH234158   5.693   3.288   3.350  0.2507 -1.0673  0.2576
 4200TIP3    H134159   5.668   3.237   3.427 -2.9571 -2.1239 -1.3373
 4200TIP3    H234160   5.669   3.234   3.275  0.1320  1.2773 -1.5350
 4201TIP3   OH234161   5.367   0.467   0.743 -0.1888 -0.4050  0.2363
 4201TIP3    H134162   5.424   0.489   0.669  0.6367 -0.7060  0.7695
 4201TIP3    H234163   5.404   0.514   0.817 -2.0125  1.2779  0.1629
 4202TIP3   OH234164   0.551   6.670   0.932 -0.0669 -0.5750  0.2623
 4202TIP3    H134165   0.587   6.740   0.879 -1.0391 -0.6021 -0.4540
 4202TIP3    H234166   0.465   6.702   0.960 -0.7801 -1.6981 -0.5626
 4203TIP3   OH234167   6.018   6.281   2.373 -0.3245 -0.1048 -0.0490
 4203TIP3    H134168   6.086   6.212   2.372  0.0286  0.2258  0.6523
 4203TIP3    H234169   6.030   6.325   2.456 -2.0354 -0.6435  0.5220
 4204TIP3   OH234170   5.041   6.621   2.113  0.2563 -0.2117 -0.3641
 4204TIP3    H134171   5.038   6.539   2.062  0.2982  0.6767 -1.8510
 4204TIP3    H234172   5.010   6.596   2.200  1.8882 -2.1609 -0.2630
 4205TIP3   OH234173   5.397   6.323   1.135  0.0115  0.0609 -0.0033
 4205TIP3    H134174   5.380   6.417   1.140 -1.5848 -0.1647 -0.5506
 4205TIP3    H234175   5.311   6.283   1.145  0.4869 -1.3008 -1.0674
 4206TIP3   OH234176   0.256   1.620   3.571 -0.0247  0.6674 -0.3015
 4206TIP3    H134177   0.309   1.681   3.519 -1.2367  1.6182 -0.4856
 4206TIP3    H234178   0.190   1.587   3.510  0.4390 -0.6147 -0.1215
 4207TIP3   OH234179   3.646   2.116   1.274 -0.1349  0.1108 -0.0722
 4207TIP3    H134180   3.602   2.186   1.226 -0.8788 -0.1665  0.1946
 4207TIP3    H234181   3.729   2.104   1.228  0.3504  1.6944  0.3421
 4208TIP3   OH234182   4.187   1.568   2.408 -0.0191 -0.3092 -0.2956
 4208TIP3    H134183   4.140   1.599   2.330 -1.1889 -1.1531  0.0610
 4208TIP3    H234184   4.124   1.574   2.479  1.4569  1.8655  0.9582
 4209TIP3   OH234185   2.469   0.009   1.979 -0.2186  0.2328  0.3536
 4209TIP3    H134186   2.408  -0.063   1.964 -1.8182  1.3277  1.2322
 4209TIP3    H234187   2.531   0.004   1.907 -0.8773 -1.4162 -0.1461
 4210TIP3   OH234188   3.836   4.829   1.562 -0.3643 -0.4358  0.0625
 4210TIP3    H134189   3.771   4.768   1.597 -0.2881 -0.2689  0.5050
 4210TIP3    H234190   3.801   4.856   1.478  0.1577 -1.9864 -0.6853
 4211TIP3   OH234191   1.566   0.257   1.868 -0.0926  0.1594  0.3222
 4211TIP3    H134192   1.487   0.207   1.889 -0.9832  0.5161 -1.9369
 4211TIP3    H234193   1.556   0.339   1.916 -0.9946  0.1178  0.2173
 4212TIP3   OH234194   4.487   4.609   2.061 -0.5947 -0.1776 -0.0440
 4212TIP3    H134195   4.499   4.646   1.973  1.0189 -0.7077 -0.0782
 4212TIP3    H234196   4.424   4.668   2.103  0.6236  1.6382 -0.6688
 4213TIP3   OH234197   0.237   2.807   1.717 -0.1171  0.1896  0.1098
 4213TIP3    H134198   0.182   2.829   1.792 -2.2016  1.5262 -1.6829
 4213TIP3    H234199   0.230   2.712   1.709 -0.3193  0.0916  1.2385
 4214TIP3   OH234200   1.716   0.262   0.196 -0.0327 -0.2729  0.2829
 4214TIP3    H134201   1.807   0.289   0.210 -0.2296 -0.2766  1.6192
 4214TIP3    H234202   1.669   0.344   0.181 -0.2454 -0.0168  2.1753
 4215TIP3   OH234203   5.241   2.459   2.291  0.6870 -0.0786 -0.3189
 4215TIP3    H134204   5.289   2.483   2.370 -1.8816  2.9801  0.5390
 4215TIP3    H234205   5.246   2.536   2.236 -1.1901 -0.5214 -1.1935
 4216TIP3   OH234206   5.471   5.304   3.409  0.2888  0.1710 -0.0575
 4216TIP3    H134207   5.491   5.256   3.489 -1.4616  1.0696  0.9681
 4216TIP3    H234208   5.398   5.360   3.432 -0.2689  0.4652 -2.2979
 4217TIP3   OH234209   0.102   2.246   2.723 -0.0951  0.2524  0.5121
 4217TIP3    H134210   0.047   2.320   2.748  0.1545  1.0593 -1.2151
 4217TIP3    H234211   0.041   2.176   2.702 -0.4228  0.7488 -0.2018
 4218TIP3   OH234212   5.563   2.580   8.555  0.1810  0.2741  0.0833
 4218TIP3    H134213   5.563   2.562   8.650  1.7772 -0.9885 -0.0944
 4218TIP3    H234214   5.574   2.494   8.515  0.6050  0.9013 -1.1998
 4219TIP3   OH234215   0.575   2.994   0.106 -0.5844 -0.4108 -0.3604
 4219TIP3    H134216   0.481   3.005   0.118 -0.5784 -1.6403  0.9500
 4219TIP3    H234217   0.588   2.900   0.098  0.3777 -0.1791 -2.2396
 4220TIP3   OH234218   5.916   2.752   1.521 -0.6806  0.5811 -0.3069
 4220TIP3    H134219   5.875   2.798   1.594 -0.4102  0.9112 -0.3603
 4220TIP3    H234220   5.844   2.727   1.464 -0.7967  1.3243 -0.4955
 4221TIP3   OH234221   5.464   1.062   0.239 -0.3541  0.1075 -0.1292
 4221TIP3    H134222   5.373   1.033   0.237 -0.0123 -1.0547 -0.1206
 4221TIP3    H234223   5.479   1.100   0.152 -0.9455  0.6618  0.0036
 4222TIP3   OH234224   1.806   2.599   1.305  0.0372 -0.0487 -0.2747
 4222TIP3    H134225   1.873   2.596   1.237  0.4028 -3.7477  0.0418
 4222TIP3    H234226   1.741   2.534   1.278 -2.1653  1.5945  0.7333
 4223TIP3   OH234227   5.282   2.709   8.659 -0.3203  0.3627  0.1758
 4223TIP3    H134228   5.346   2.736   8.594 -0.5438  0.4328 -0.0161
 4223TIP3    H234229   5.205   2.764   8.642 -0.0995  0.9506  1.0165
 4224TIP3   OH234230   6.096   5.680   0.219 -0.6006  0.4583  0.2049
 4224TIP3    H134231   6.079   5.643   0.306  1.3027  0.4072  0.5856
 4224TIP3    H234232   6.122   5.606   0.166 -0.5373  0.6844 -0.0802
 4225TIP3   OH234233   3.602   3.174   1.809  0.1517  0.0934 -0.2019
 4225TIP3    H134234   3.559   3.098   1.770 -1.7033 -0.8100  3.2041
 4225TIP3    H234235   3.689   3.142   1.835  0.1277 -0.2791 -0.5815
 4226TIP3   OH234236   6.007   4.784   1.393  0.7032  0.7429 -0.0961
 4226TIP3    H134237   5.942   4.855   1.394 -0.8406 -0.5990 -0.3910
 4226TIP3    H234238   5.998   4.745   1.306  0.0081 -1.1157  0.7705
 4227TIP3   OH234239   3.577   2.595   1.321 -0.0570  0.2317 -0.3526
 4227TIP3    H134240   3.487   2.624   1.306  0.0319  0.0387 -1.2974
 4227TIP3    H234241   3.576   2.559   1.410 -0.5923  1.4365  0.1432
 4228TIP3   OH234242   4.756   5.863   1.721  0.0548 -0.2638 -0.2373
 4228TIP3    H134243   4.755   5.772   1.748  0.5409  0.6293  3.2356
 4228TIP3    H234244   4.666   5.880   1.691 -0.2319 -1.6824 -0.2587
 4229TIP3   OH234245   2.120   3.939   1.625  0.5136 -1.2264 -0.0060
 4229TIP3    H134246   2.056   3.996   1.667 -0.6625 -0.9804 -2.0153
 4229TIP3    H234247   2.204   3.963   1.666  0.0066  1.6128 -0.4013
 4230TIP3   OH234248   4.498   2.015   1.834 -0.5403 -0.1755 -0.4644
 4230TIP3    H134249   4.563   2.076   1.870 -0.4037 -0.8609  0.4796
 4230TIP3    H234250   4.416   2.065   1.836  0.0169  0.9009 -2.2023
 4231TIP3   OH234251   6.134   3.215   0.985  0.1122  0.2773  0.2436
 4231TIP3    H134252   6.086   3.298   0.988 -1.8072 -0.6965 -1.1501
 4231TIP3    H234253   6.226   3.240   0.980 -0.4640  2.3724 -1.0107
 4232TIP3   OH234254   1.422   1.396   2.256 -0.2933  0.2535 -0.0225
 4232TIP3    H134255   1.359   1.325   2.267 -0.3444  0.4907  1.4187
 4232TIP3    H234256   1.379   1.472   2.294  0.0916  0.8849 -0.8150
 4233TIP3   OH234257   0.920   2.141   3.379 -0.3358 -0.4158 -0.1868
 4233TIP3    H134258   0.858   2.206   3.413  1.0167  0.5855  0.4153
 4233TIP3    H234259   0.932   2.079   3.451 -0.0633 -0.1993 -0.0485
 4234TIP3   OH234260   3.048   3.784   1.377  0.7979 -0.2624  0.5137
 4234TIP3    H134261   2.953   3.779   1.382  0.7915 -0.7435  0.0400
 4234TIP3    H234262   3.072   3.719   1.311  1.6041 -1.5089  1.9619
 4235TIP3   OH234263   0.495   1.187   1.839  0.5777 -0.1653 -0.1664
 4235TIP3    H134264   0.544   1.249   1.785 -0.1420  0.1102 -0.5168
 4235TIP3    H234265   0.408   1.183   1.798  0.2387 -0.4793  0.5694
 4236TIP3   OH234266   6.318   6.405   2.870  0.1328  0.7636 -0.2215
 4236TIP3    H134267   6.303   6.356   2.789  2.6882 -0.6663  0.0508
 4236TIP3    H234268   6.412   6.425   2.869  0.0503  1.5416  1.9386
 4237TIP3   OH234269   0.355   2.633   3.286  0.4259 -0.3800 -0.8644
 4237TIP3    H134270   0.395   2.700   3.230 -0.4695  0.4162 -0.5791
 4237TIP3    H234271   0.264   2.628   3.256  0.4960 -1.5421 -0.9337
 4238TIP3   OH234272   0.627   2.079   0.514 -0.5447  0.6826 -0.1750
 4238TIP3    H134273   0.592   2.052   0.598 -0.1226 -2.0679 -0.7939
 4238TIP3    H234274   0.550   2.085   0.457 -0.8151  2.4218  0.3159
 4239TIP3   OH234275   4.775   5.311   8.480 -0.0064 -0.2944  0.0215
 4239TIP3    H134276   4.700   5.370   8.482  0.3773  0.1865  0.3613
 4239TIP3    H234277   4.849   5.366   8.453  1.2639  0.4641  4.2207
 4240TIP3   OH234278   2.052   6.559   2.357  0.0508 -0.7226 -0.1398
 4240TIP3    H134279   1.980   6.511   2.317  0.1543  0.0537 -1.3291
 4240TIP3    H234280   2.078   6.623   2.290 -0.6557  1.5715  1.6312
 4241TIP3   OH234281   0.051   3.627   0.439 -0.3267 -0.1393  0.4437
 4241TIP3    H134282   0.137   3.597   0.407 -0.4332  1.7779 -1.9484
 4241TIP3    H234283   0.005   3.546   0.462  0.3705 -1.7074 -2.9759
 4242TIP3   OH234284   5.539   6.421   0.488  0.0248 -0.5137  0.1950
 4242TIP3    H134285   5.484   6.344   0.506 -2.4188  1.3538  1.4394
 4242TIP3    H234286   5.541   6.428   0.393  0.1843 -2.0128  0.0672
 4243TIP3   OH234287   1.940   5.531   1.529 -0.2625 -0.2920  0.3432
 4243TIP3    H134288   1.955   5.592   1.456  0.1242 -0.1692  0.5202
 4243TIP3    H234289   1.980   5.573   1.604  0.8580 -1.1792  0.2788
 4244TIP3   OH234290   2.396   3.086   0.696  0.0282 -0.0837 -0.2907
 4244TIP3    H134291   2.376   3.013   0.637 -0.7349  0.3270 -0.5633
 4244TIP3    H234292   2.488   3.075   0.718  0.4752  0.0298 -1.9608
 4245TIP3   OH234293   0.701   0.717   2.383  0.2095 -0.0545 -0.5979
 4245TIP3    H134294   0.637   0.781   2.414  0.3786  0.2388 -0.8527
 4245TIP3    H234295   0.779   0.768   2.364  1.2666 -0.6656  1.7422
 4246TIP3   OH234296   1.677   3.021   0.139  0.1473 -0.3565  0.3771
 4246TIP3    H134297   1.638   2.946   0.185  0.4252  0.3648  1.8646
 4246TIP3    H234298   1.620   3.034   0.063  1.5228 -3.6314 -1.4362
 4247TIP3   OH234299   3.290   6.612   7.936 -0.1414  0.0333  0.3418
 4247TIP3    H134300   3.292   6.656   7.851 -2.0814  1.6696  1.0617
 4247TIP3    H234301   3.363   6.651   7.984 -0.8184  1.3057  0.3918
 4248TIP3   OH234302   1.957   4.621   1.224 -0.2781 -0.1758 -0.0411
 4248TIP3    H134303   1.994   4.709   1.218 -0.3063 -0.0349  1.5370
 4248TIP3    H234304   1.873   4.628   1.179  0.6611  0.0129 -1.8756
 4249TIP3   OH234305   3.833   5.602   7.322 -1.0602  0.4396  0.3382
 4249TIP3    H134306   3.802   5.519   7.359  1.2754  0.0929  1.7792
 4249TIP3    H234307   3.813   5.667   7.389 -2.2074  0.9498 -0.4655
 4250TIP3   OH234308   3.789   0.532   0.868  0.2450 -0.1189 -0.5207
 4250TIP3    H134309   3.702   0.570   0.853  0.2153  0.5313  1.0915
 4250TIP3    H234310   3.791   0.455   0.811 -0.8976  0.5362 -1.5268
 4251TIP3   OH234311   3.632   0.752   7.848 -0.6696 -0.5865 -0.0934
 4251TIP3    H134312   3.621   0.845   7.870  3.2347 -0.5008  2.5427
 4251TIP3    H234313   3.691   0.754   7.772  0.5081 -0.7952  0.7759
 4252TIP3   OH234314   2.672   2.734   8.510 -0.0086  0.1837  0.0151
 4252TIP3    H134315   2.644   2.668   8.574  0.3533  0.4158  0.4145
 4252TIP3    H234316   2.704   2.683   8.436  1.8926 -0.1259  1.0019
 4253TIP3   OH234317   3.056   0.722   3.477 -0.9908  0.1126  0.7374
 4253TIP3    H134318   3.131   0.780   3.460 -1.7791  0.7385 -0.8155
 4253TIP3    H234319   3.006   0.766   3.546 -1.4894  1.2378 -0.3020
 4254TIP3   OH234320   0.532   5.307   0.650 -0.6611  0.0426  0.3669
 4254TIP3    H134321   0.546   5.227   0.701  4.5118  1.4397  1.7352
 4254TIP3    H234322   0.532   5.377   0.715  2.3631  1.5872 -1.0840
 4255TIP3   OH234323   6.326   5.849   3.419 -0.1858 -0.2814 -0.3326
 4255TIP3    H134324   6.294   5.794   3.347 -0.2625 -0.4630 -0.1597
 4255TIP3    H234325   6.404   5.802   3.451 -0.4090 -0.4277 -0.0067
 4256TIP3   OH234326   4.986   4.886   2.004  0.0287 -0.6947  0.2996
 4256TIP3    H134327   4.932   4.818   1.964 -1.6263  1.2459 -0.9382
 4256TIP3    H234328   4.950   4.895   2.093  0.7475 -1.8786  0.7414
 4257TIP3   OH234329   4.180   1.033   2.555 -0.1861 -0.4411  0.3311
 4257TIP3    H134330   4.116   1.041   2.626 -0.1591 -0.9512  0.4110
 4257TIP3    H234331   4.204   1.124   2.535  0.4468 -0.3187  1.5404
 4258TIP3   OH234332   6.721   5.171   1.722  0.0767  0.3212  0.0709
 4258TIP3    H134333   6.713   5.261   1.691  1.0215  0.6783  0.8087
 4258TIP3    H234334   6.714   5.178   1.817  2.9608  0.0107  0.3839
 4259TIP3   OH234335   0.451   3.288   0.017  0.2644 -0.2650  0.3315
 4259TIP3    H134336   0.414   3.357   0.071 -0.6971  0.0562 -0.6989
 4259TIP3    H234337   0.540   3.277   0.049  0.7265  2.0408 -0.0092
 4260TIP3   OH234338   4.327   1.314   2.253  0.2344  0.0893 -0.3559
 4260TIP3    H134339   4.368   1.384   2.304  1.7121 -0.4670 -0.6993
 4260TIP3    H234340   4.243   1.349   2.226 -0.9920  0.1297  3.0951
 4261TIP3   OH234341   1.287   1.582   1.818  0.2541 -0.0163  0.4918
 4261TIP3    H134342   1.350   1.510   1.810  2.6858  1.5263  3.4224
 4261TIP3    H234343   1.271   1.611   1.728  1.4420 -2.3286 -0.5454
 4262TIP3   OH234344   5.579   3.635   0.377  0.2029  0.3376 -0.5117
 4262TIP3    H134345   5.668   3.670   0.373 -0.0997  1.0899 -0.7529
 4262TIP3    H234346   5.561   3.605   0.288  0.2495  0.1012 -0.4414
 4263TIP3   OH234347   4.230   3.685   3.162  0.3407 -0.2682 -0.1934
 4263TIP3    H134348   4.281   3.665   3.241  0.6801 -0.3001 -0.4184
 4263TIP3    H234349   4.231   3.603   3.112 -0.2042 -0.3655 -0.0544
 4264TIP3   OH234350   6.131   0.361   3.135  0.2921  0.4867 -0.3057
 4264TIP3    H134351   6.191   0.315   3.194 -1.3482  0.0480  1.1055
 4264TIP3    H234352   6.071   0.293   3.104  0.1566  1.0078 -1.2173
 4265TIP3   OH234353   1.027   0.121   2.875 -0.3719  0.3797  0.1523
 4265TIP3    H134354   1.026   0.064   2.952  2.6098  1.4257  1.1082
 4265TIP3    H234355   0.954   0.181   2.888 -1.1420 -0.7202  1.1140
 4266TIP3   OH234356   0.346   0.383   0.531  0.1440  0.4321  0.0118
 4266TIP3    H134357   0.295   0.425   0.600  1.0858  1.2849  0.2145
 4266TIP3    H234358   0.428   0.431   0.529  0.6797 -0.4674 -0.7742
 4267TIP3   OH234359   1.973   0.152   1.905 -0.8259 -0.3245  0.0651
 4267TIP3    H134360   1.968   0.246   1.891 -1.0677 -0.0936  1.6232
 4267TIP3    H234361   2.066   0.135   1.918 -0.7684 -0.3268 -0.3345
 4268TIP3   OH234362   3.812   0.803   2.162 -0.3166 -0.8111 -0.5549
 4268TIP3    H134363   3.850   0.861   2.227 -0.9929 -0.4846 -0.4392
 4268TIP3    H234364   3.873   0.730   2.155 -0.7721 -1.3984  1.2658
 4269TIP3   OH234365   4.627   6.277   1.084 -0.9394  0.5209 -0.0803
 4269TIP3    H134366   4.629   6.191   1.125  0.9664 -0.2631 -1.6456
 4269TIP3    H234367   4.662   6.336   1.151 -0.7591 -0.1861  0.4609
 4270TIP3   OH234368   3.097   6.411   2.513 -0.1225 -0.2346  0.4901
 4270TIP3    H134369   3.029   6.391   2.449 -0.4142 -0.1832  0.7785
 4270TIP3    H234370   3.120   6.502   2.497  2.1255 -1.0599 -1.6810
 4271TIP3   OH234371   2.097   5.681   3.335 -0.3438  0.0546 -0.3277
 4271TIP3    H134372   2.028   5.725   3.284 -0.4187  0.7199  0.3215
 4271TIP3    H234373   2.161   5.750   3.352  0.4857 -0.5661 -0.9224
 4272TIP3   OH234374   6.859   6.843   0.032  0.9183  0.1540 -0.2057
 4272TIP3    H134375   6.925   6.881  -0.026  1.3383  1.1756  0.9128
 4272TIP3    H234376   6.831   6.763  -0.013  1.2805  0.8748 -1.7662
 4273TIP3   OH234377   4.960   2.686   2.973 -0.4095 -0.6430  0.0271
 4273TIP3    H134378   4.906   2.764   2.988  0.3704 -0.3201  1.3126
 4273TIP3    H234379   5.027   2.690   3.041  0.2204 -1.9375 -0.4871
 4274TIP3   OH234380   5.699   1.103   0.367 -0.0144  0.6236  0.2515
 4274TIP3    H134381   5.653   1.153   0.434 -0.4747  1.7476 -0.8693
 4274TIP3    H234382   5.632   1.079   0.303  0.5779  0.4319 -0.3183
 4275TIP3   OH234383   4.370   0.394   1.393  0.1807  0.6002  0.2939
 4275TIP3    H134384   4.411   0.352   1.469  0.8636  0.9789  0.1455
 4275TIP3    H234385   4.329   0.323   1.345  0.1716  0.2899  0.7530
 4276TIP3   OH234386   0.351   0.093   2.978  0.2994 -0.6366  0.4482
 4276TIP3    H134387   0.271   0.117   3.026 -1.3502 -1.5541 -1.6550
 4276TIP3    H234388   0.397   0.175   2.965  0.3420 -0.2375  2.7193
 4277TIP3   OH234389   1.161   4.109   0.395  0.0678  0.0214  0.4586
 4277TIP3    H134390   1.124   4.060   0.321  0.7559 -0.6528  0.5419
 4277TIP3    H234391   1.105   4.087   0.469  0.5344 -0.9088  0.5610
 4278TIP3   OH234392   2.509   2.196   0.952  0.6415 -0.2320  0.4352
 4278TIP3    H134393   2.483   2.287   0.937 -2.1302 -0.9129  0.6181
 4278TIP3    H234394   2.491   2.181   1.045  0.5138 -1.1087  0.2788
 4279TIP3   OH234395   0.098   0.040   2.452  0.2651  0.3661 -0.3827
 4279TIP3    H134396   0.043   0.100   2.502 -0.2456 -0.3291 -0.0899
 4279TIP3    H234397   0.161   0.097   2.407  0.0255  1.0857  0.1679
 4280TIP3   OH234398   3.080   4.619   2.525 -0.6841  0.8401  0.5468
 4280TIP3    H134399   3.055   4.710   2.507  0.9337  0.9035 -2.0125
 4280TIP3    H234400   3.111   4.587   2.440  1.4957 -1.1975  2.0047
 4281TIP3   OH234401   5.511   4.156   0.396  0.2327 -0.2789  0.2515
 4281TIP3    H134402   5.487   4.070   0.363  1.3584 -1.3952  2.2010
 4281TIP3    H234403   5.501   4.150   0.491 -0.4059  1.9914  0.3951
 4282TIP3   OH234404   0.222   6.267   2.369 -0.6797 -0.1971  0.1190
 4282TIP3    H134405   0.150   6.245   2.428 -0.8032 -0.1912 -0.0328
 4282TIP3    H234406   0.194   6.237   2.283  1.4276 -4.6927  0.7361
 4283TIP3   OH234407   5.282   5.137   0.393 -0.4611  0.4407 -0.0824
 4283TIP3    H134408   5.366   5.172   0.362 -0.2301  0.1494  0.2100
 4283TIP3    H234409   5.279   5.161   0.485 -1.2293  1.4615 -0.3581
 4284TIP3   OH234410   5.372   0.332   1.494  0.4940  0.0377 -0.5523
 4284TIP3    H134411   5.368   0.427   1.482 -0.1425  0.0633 -0.1685
 4284TIP3    H234412   5.458   0.307   1.460 -0.7456  0.2235 -4.2259
 4285TIP3   OH234413   0.162   1.255   1.461  0.6167 -1.1836  0.1164
 4285TIP3    H134414   0.208   1.251   1.377  1.3704 -0.1073  0.4460
 4285TIP3    H234415   0.101   1.328   1.451 -1.3681 -2.8212 -0.4426
 4286TIP3   OH234416   6.169   3.575   2.427  0.6691  0.0483  0.6566
 4286TIP3    H134417   6.181   3.645   2.491 -0.4877 -0.7389  1.7756
 4286TIP3    H234418   6.202   3.497   2.471 -0.7600 -0.6248  0.5784
 4287TIP3   OH234419   5.714   1.112   3.506  0.5739  0.4717  0.2813
 4287TIP3    H134420   5.651   1.064   3.560  0.8585  0.5388  0.6786
 4287TIP3    H234421   5.793   1.116   3.560 -0.0402  3.1097  1.1208
 4288TIP3   OH234422   6.694   5.690   0.627 -0.0865 -0.1057 -0.2035
 4288TIP3    H134423   6.655   5.774   0.603  1.1907  0.2197 -1.2664
 4288TIP3    H234424   6.705   5.644   0.544  1.5341 -0.2600  0.0563
 4289TIP3   OH234425   3.133   5.321   2.932 -0.4602  0.3407  0.3613
 4289TIP3    H134426   3.197   5.324   2.861  1.3154  0.3723  1.8888
 4289TIP3    H234427   3.151   5.238   2.977 -1.9921  0.0045  0.4170
 4290TIP3   OH234428   2.107   2.308   0.393  0.2520 -0.1716  0.1497
 4290TIP3    H134429   2.198   2.329   0.373  0.2491  1.3351  1.5054
 4290TIP3    H234430   2.056   2.353   0.325  0.5074 -1.9067 -1.2609
 4291TIP3   OH234431   5.417   4.760   2.099 -0.0986 -0.7020  0.1741
 4291TIP3    H134432   5.390   4.696   2.166 -4.4972  0.3026 -0.3411
 4291TIP3    H234433   5.365   4.737   2.022  0.8284  1.4121 -1.1562
 4292TIP3   OH234434   4.256   5.409   2.414 -0.6444  0.6920 -0.5057
 4292TIP3    H134435   4.266   5.329   2.464  1.1329  0.7614 -0.6922
 4292TIP3    H234436   4.343   5.426   2.377 -1.2717  2.0426 -1.4713
 4293TIP3   OH234437   0.887   4.233   2.539 -0.0309 -0.0637 -0.2026
 4293TIP3    H134438   0.940   4.258   2.615  0.3297 -0.9193 -0.1550
 4293TIP3    H234439   0.938   4.262   2.463  0.8282 -1.3991 -0.1763
 4294TIP3   OH234440   0.330   2.538   3.774 -0.1498 -0.0084 -0.8740
 4294TIP3    H134441   0.235   2.535   3.784 -0.4439  1.9129 -2.3801
 4294TIP3    H234442   0.361   2.586   3.851 -0.3990 -0.5652 -0.4245
 4295TIP3   OH234443   0.780   5.685   1.926  0.3004  0.5783  0.0557
 4295TIP3    H134444   0.822   5.625   1.866 -1.9264 -0.2388 -0.8014
 4295TIP3    H234445   0.803   5.772   1.894  1.9420  0.2055  0.1326
 4296TIP3   OH234446   5.109   6.293   8.224 -0.0906  0.2329  0.4650
 4296TIP3    H134447   5.198   6.308   8.258 -0.5469  0.8799  1.4263
 4296TIP3    H234448   5.099   6.198   8.226  1.2078  0.0184 -1.3573
 4297TIP3   OH234449   6.171   5.345   1.575 -0.6223 -0.1901  0.9857
 4297TIP3    H134450   6.186   5.338   1.480 -1.0316 -1.7549  1.0120
 4297TIP3    H234451   6.239   5.290   1.614 -0.4978  0.3956  1.6054
 4298TIP3   OH234452   2.993   2.266   0.638  0.1265  0.2815 -0.0482
 4298TIP3    H134453   2.976   2.232   0.726  0.1833 -0.5719 -0.3491
 4298TIP3    H234454   2.967   2.194   0.580  0.5667  0.6398 -0.7034
 4299TIP3   OH234455   0.444   5.049   2.178 -0.2232 -0.2712  0.4700
 4299TIP3    H134456   0.379   5.039   2.107  0.5836  0.0152 -0.3311
 4299TIP3    H234457   0.416   4.987   2.245 -1.5135  0.0698  0.2844
 4300TIP3   OH234458   5.260   3.810   1.090  0.6270  0.4922 -0.9436
 4300TIP3    H134459   5.263   3.885   1.150 -0.5714  0.0558 -0.2907
 4300TIP3    H234460   5.342   3.814   1.041  2.2158  0.2524  1.5153
 4301TIP3   OH234461   4.668   2.185   2.381  0.2232 -0.2000  0.0685
 4301TIP3    H134462   4.599   2.218   2.439  0.5801 -1.8700  1.5100
 4301TIP3    H234463   4.748   2.224   2.416  0.1717  0.8623 -0.9377
 4302TIP3   OH234464   1.113   3.142   2.190  0.0022 -0.1051 -0.8487
 4302TIP3    H134465   1.108   3.095   2.107 -0.4918 -0.7147 -0.4785
 4302TIP3    H234466   1.200   3.119   2.224  0.2685  0.2702 -1.2630
 4303TIP3   OH234467   6.232   3.870   8.241  0.7954 -0.0283  0.1062
 4303TIP3    H134468   6.226   3.878   8.146 -0.3394 -1.1827  0.0397
 4303TIP3    H234469   6.148   3.905   8.273  1.5145  1.1626  0.7711
 4304TIP3   OH234470   2.146   6.221   0.938 -0.2030 -0.2705 -0.1147
 4304TIP3    H134471   2.208   6.149   0.932  1.0416  0.5769  1.6090
 4304TIP3    H234472   2.172   6.269   1.017 -2.5284  0.6256  0.1942
 4305TIP3   OH234473   2.798   2.881   8.010 -0.2947 -0.2103 -0.5228
 4305TIP3    H134474   2.853   2.946   7.965  0.6882 -0.5042  0.2098
 4305TIP3    H234475   2.732   2.932   8.055  0.3310  0.2727 -0.1427
 4306TIP3   OH234476   6.182   0.753   1.991  0.2799 -0.3857 -1.2471
 4306TIP3    H134477   6.107   0.769   2.047  0.2426 -0.6968 -1.2105
 4306TIP3    H234478   6.144   0.726   1.907  0.3301  0.2413 -1.4759
 4307TIP3   OH234479   4.282   1.501   8.068  0.0055  0.1346  0.1728
 4307TIP3    H134480   4.335   1.424   8.089 -1.2934 -0.9328 -0.2607
 4307TIP3    H234481   4.268   1.495   7.973 -1.0302  0.2696  0.3072
 4308TIP3   OH234482   2.869   0.192   0.318 -0.2748  0.1166 -0.2662
 4308TIP3    H134483   2.774   0.186   0.328 -0.2359 -0.2216 -0.0711
 4308TIP3    H234484   2.903   0.201   0.407 -0.1321  0.3925 -0.3462
 4309TIP3   OH234485   4.284   2.491   7.781 -0.2467  0.1653  0.0320
 4309TIP3    H134486   4.329   2.558   7.730 -3.4323  0.9897 -1.9146
 4309TIP3    H234487   4.218   2.538   7.831 -0.4965 -1.2172  1.0769
 4310TIP3   OH234488   2.469   0.266   3.151  0.0738  0.0075  0.2132
 4310TIP3    H134489   2.558   0.265   3.117  0.2759 -0.0122  0.7381
 4310TIP3    H234490   2.458   0.354   3.188  0.0806 -0.1843  0.6792
 4311TIP3   OH234491   0.454   0.732   1.308  0.4322 -0.0469 -0.5363
 4311TIP3    H134492   0.526   0.670   1.320  2.3986  1.8298 -1.9244
 4311TIP3    H234493   0.475   0.805   1.366 -1.3070 -0.1557  0.3093
 4312TIP3   OH234494   5.801   5.682   8.499 -0.4419 -0.2437 -0.1590
 4312TIP3    H134495   5.804   5.752   8.564  0.0720 -0.6865  0.3090
 4312TIP3    H234496   5.715   5.691   8.458 -1.4600 -0.9056  1.6819
 4313TIP3   OH234497   2.734   3.472   8.018 -0.0673  0.2294 -0.0150
 4313TIP3    H134498   2.642   3.484   8.041  0.0112  0.5356  0.1387
 4313TIP3    H234499   2.734   3.397   7.959 -0.0213 -2.1692  2.7806
 4314TIP3   OH234500   3.803   6.355   0.913 -0.5959  0.1257 -0.7721
 4314TIP3    H134501   3.758   6.304   0.981 -0.2131  1.2860  0.3737
 4314TIP3    H234502   3.888   6.312   0.904  0.8801  2.1243  2.2413
 4315TIP3   OH234503   4.826   0.891   0.072  0.4646 -0.5806  0.0941
 4315TIP3    H134504   4.731   0.889   0.063  0.5027 -0.2234 -0.4074
 4315TIP3    H234505   4.842   0.862   0.162 -0.2576  1.6640  1.0329
 4316TIP3   OH234506   2.767   4.757   7.557  0.4628 -0.4738 -0.4385
 4316TIP3    H134507   2.753   4.768   7.651 -0.3707 -0.0077 -0.6082
 4316TIP3    H234508   2.705   4.689   7.532  0.6319 -0.5447 -0.6672
 4317TIP3   OH234509   6.588   3.581   7.813 -0.0082  0.3576 -0.1918
 4317TIP3    H134510   6.576   3.636   7.736  0.2575 -0.7187 -1.0276
 4317TIP3    H234511   6.515   3.604   7.871 -1.5176 -0.3733 -1.7160
 4318TIP3   OH234512   1.758   1.979   1.546 -0.0861 -0.1148  0.1538
 4318TIP3    H134513   1.760   1.991   1.641  1.6033 -1.1002  0.2900
 4318TIP3    H234514   1.669   2.001   1.520 -0.2142  1.5037  1.7817
 4319TIP3   OH234515   5.865   0.564   2.181 -0.4999 -0.1233 -0.0672
 4319TIP3    H134516   5.813   0.513   2.243  0.9679 -2.1348 -0.4052
 4319TIP3    H234517   5.801   0.595   2.116 -1.5486 -0.8569  0.5880
 4320TIP3   OH234518   0.879   6.264   7.657 -0.5062  0.4583  0.2352
 4320TIP3    H134519   0.965   6.257   7.616 -0.6087 -1.9480  0.2914
 4320TIP3    H234520   0.827   6.315   7.595  0.2802 -0.2523 -1.0542
 4321TIP3   OH234521   5.811   2.276   8.202  0.1519  0.0096  0.0574
 4321TIP3    H134522   5.863   2.356   8.190  0.4383 -0.0249  0.9813
 4321TIP3    H234523   5.804   2.239   8.114 -0.5196  1.3616 -0.4930
 4322TIP3   OH234524   3.774   1.336   0.836  0.1876  0.3220  0.4508
 4322TIP3    H134525   3.734   1.307   0.754  0.4805  1.0103  0.0568
 4322TIP3    H234526   3.725   1.415   0.860  1.5540  1.4613 -0.2871
 4323TIP3   OH234527   0.555   4.553   2.893  0.0181 -0.0138 -0.8701
 4323TIP3    H134528   0.588   4.643   2.890  0.8808 -0.3284 -1.2260
 4323TIP3    H234529   0.501   4.550   2.972  1.6902  0.2742  0.3353
 4324TIP3   OH234530   4.438   2.358   2.155 -0.5174 -0.2273 -0.5472
 4324TIP3    H134531   4.342   2.365   2.157 -0.5372 -0.6384  0.4113
 4324TIP3    H234532   4.467   2.400   2.236 -0.0480 -2.1684  0.3416
 4325TIP3   OH234533   5.076   5.839   2.474  0.4374  0.2607  0.2742
 4325TIP3    H134534   5.148   5.839   2.411  0.3783  2.0769  0.1358
 4325TIP3    H234535   5.104   5.780   2.543  0.2690 -2.2369 -1.6530
 4326TIP3   OH234536   5.013   6.603   1.140  0.3993  0.5696 -0.0618
 4326TIP3    H134537   4.971   6.569   1.060 -0.8087  0.3614  0.6395
 4326TIP3    H234538   5.105   6.579   1.130 -0.1038 -1.4372 -0.4044
 4327TIP3   OH234539   5.530   0.043   2.724  0.3876  0.1119  0.3328
 4327TIP3    H134540   5.560   0.022   2.812  0.3692 -1.6274 -0.0416
 4327TIP3    H234541   5.441   0.008   2.719  0.3233  0.3397 -0.3335
 4328TIP3   OH234542   2.783   1.095   1.106 -0.4456 -0.1157  0.3771
 4328TIP3    H134543   2.767   1.164   1.171 -0.8058 -0.0265  0.2007
 4328TIP3    H234544   2.730   1.122   1.030  0.7205  0.2859 -0.3166
 4329TIP3   OH234545   3.650   0.178   7.488 -0.4226  0.4197  0.0070
 4329TIP3    H134546   3.561   0.212   7.499  0.0934  2.2234 -0.9405
 4329TIP3    H234547   3.689   0.234   7.420  1.6633  0.1319  0.8767
 4330TIP3   OH234548   4.835   1.488   0.235 -0.6590 -0.4709 -0.2316
 4330TIP3    H134549   4.908   1.427   0.236 -0.0605  0.2414  0.0042
 4330TIP3    H234550   4.868   1.567   0.277 -0.7109  0.8453 -2.5122
 4331TIP3   OH234551   2.389   5.258   2.141  0.3467 -0.1294  0.2746
 4331TIP3    H134552   2.375   5.169   2.174  0.5101 -0.7521 -1.2743
 4331TIP3    H234553   2.480   5.277   2.163  0.1232 -0.0638  1.2051
 4332TIP3   OH234554   1.194   5.819   8.494 -0.2574  0.1922 -0.5452
 4332TIP3    H134555   1.153   5.865   8.421 -2.0505 -0.9602 -0.3247
 4332TIP3    H234556   1.212   5.888   8.559  2.1272  1.3805 -2.2735
 4333TIP3   OH234557   3.305   2.061   0.208  0.2719  0.1396 -0.3942
 4333TIP3    H134558   3.226   2.011   0.190  1.2702 -1.5101 -0.3905
 4333TIP3    H234559   3.295   2.092   0.298 -1.5834  2.3822 -1.2651
 4334TIP3   OH234560   0.271   3.694   2.756 -0.1969 -0.5694 -0.0080
 4334TIP3    H134561   0.334   3.646   2.702 -0.1058 -1.0043  0.4766
 4334TIP3    H234562   0.188   3.647   2.742 -1.0306  1.4566 -2.5949
 4335TIP3   OH234563   4.289   6.029   8.571  0.1370  0.4089  0.7660
 4335TIP3    H134564   4.247   5.971   8.634  2.6496 -0.6091  1.6281
 4335TIP3    H234565   4.218   6.086   8.540 -1.6233 -0.5109  2.8397
 4336TIP3   OH234566   5.930   3.496   0.887 -0.0164  0.2610  0.6618
 4336TIP3    H134567   5.872   3.463   0.956  0.3200  0.0048  0.8269
 4336TIP3    H234568   5.879   3.564   0.844 -1.0685 -1.0345 -0.2298
 4337TIP3   OH234569   6.549   2.686   1.955  0.1353  0.1210 -0.7164
 4337TIP3    H134570   6.587   2.605   1.989 -2.5236 -0.6464  0.6633
 4337TIP3    H234571   6.515   2.732   2.032  0.0412  1.7324 -1.6659
 4338TIP3   OH234572   2.254   6.781   3.879 -0.5108 -0.1957 -0.1211
 4338TIP3    H134573   2.294   6.868   3.864 -1.7470  0.4125  0.0191
 4338TIP3    H234574   2.192   6.771   3.807  0.0382 -1.2482 -0.4754
 4339TIP3   OH234575   3.118   5.993   0.927 -0.4995 -0.1066 -0.2722
 4339TIP3    H134576   3.041   6.023   0.976  0.1884  0.0421  0.7338
 4339TIP3    H234577   3.083   5.926   0.867 -1.4706  0.2329 -0.1075
 4340TIP3   OH234578   5.465   6.212   2.269  0.2118  0.5732 -0.1683
 4340TIP3    H134579   5.476   6.279   2.335  0.5028 -0.0952  0.4753
 4340TIP3    H234580   5.429   6.258   2.193  0.8872  1.5370  0.0813
 4341TIP3   OH234581   5.322   6.590   1.122 -0.1976 -0.2615  0.2043
 4341TIP3    H134582   5.414   6.604   1.141 -0.1298 -1.3840  0.7918
 4341TIP3    H234583   5.306   6.638   1.041  0.4357  1.4571  1.0700
 4342TIP3   OH234584   0.999   1.505   0.609  0.2165  0.1793 -0.2785
 4342TIP3    H134585   1.041   1.538   0.689 -0.0880 -0.4291  0.1419
 4342TIP3    H234586   0.912   1.545   0.609 -0.1282 -0.5483  0.1961
 4343TIP3   OH234587   2.947   3.984   0.008 -0.0851  0.3692  0.0964
 4343TIP3    H134588   2.880   4.042   0.044 -1.0875 -0.8740  0.3342
 4343TIP3    H234589   2.898   3.919  -0.043  1.0068 -0.1225 -0.3729
 4344TIP3   OH234590   5.899   0.125   0.577 -0.0454  0.0448  0.4526
 4344TIP3    H134591   5.889   0.031   0.594 -0.0695 -0.2030 -0.8399
 4344TIP3    H234592   5.915   0.131   0.483 -1.7064  1.4575  0.2066
 4345TIP3   OH234593   2.110   3.850   8.249  0.0790  0.6474 -0.0072
 4345TIP3    H134594   2.198   3.812   8.246 -0.4589 -0.6158 -0.3819
 4345TIP3    H234595   2.117   3.930   8.196  1.0445  0.6967  0.1669
 4346TIP3   OH234596   3.549   0.730   1.584 -0.1205 -0.1000  0.0595
 4346TIP3    H134597   3.622   0.706   1.526  0.3627  0.0246  0.6100
 4346TIP3    H234598   3.571   0.692   1.668 -0.0537  1.0206  0.5689
 4347TIP3   OH234599   3.129   0.714   3.833 -0.2957 -0.3120  0.4844
 4347TIP3    H134600   3.068   0.725   3.905  0.2895  0.6704  0.8526
 4347TIP3    H234601   3.093   0.767   3.762 -0.3033 -0.3985  0.4236
 4348TIP3   OH234602   1.334   6.045   1.510 -0.2252  0.2682  0.1316
 4348TIP3    H134603   1.320   5.956   1.541 -4.3641 -0.1755 -2.3244
 4348TIP3    H234604   1.271   6.098   1.560  0.5943  1.4617 -0.0492
 4349TIP3   OH234605   3.612   3.912   2.677 -0.2182  0.2919 -0.0592
 4349TIP3    H134606   3.523   3.909   2.710 -0.6988 -0.2748 -1.3630
 4349TIP3    H234607   3.619   3.837   2.618  1.5400 -0.4628  1.0282
 4350TIP3   OH234608   4.687   1.048   8.089  0.0278  0.1447 -0.0759
 4350TIP3    H134609   4.724   0.964   8.059  0.4048  0.6100 -0.9317
 4350TIP3    H234610   4.600   1.052   8.050 -0.6428 -0.5579  1.2534
 4351TIP3   OH234611   1.008   5.741   1.523 -0.4755 -0.0185 -0.0398
 4351TIP3    H134612   1.048   5.754   1.437 -1.0552 -1.5815 -0.5748
 4351TIP3    H234613   1.004   5.646   1.534 -2.3740  0.1206  0.7938
 4352TIP3   OH234614   5.989   3.556   0.234 -0.1463  0.3764 -0.4675
 4352TIP3    H134615   5.957   3.506   0.159 -1.5918 -0.5254  0.7064
 4352TIP3    H234616   5.921   3.622   0.250  0.4049  0.9060 -0.2685
 4353TIP3   OH234617   4.177   2.197   0.654 -0.0970 -0.8047 -0.2158
 4353TIP3    H134618   4.200   2.240   0.572  1.3677 -0.3024  0.4141
 4353TIP3    H234619   4.148   2.268   0.711 -2.4726 -1.3220 -0.6921
 4354TIP3   OH234620   5.628   6.027   2.115  0.2241  0.5939  0.3189
 4354TIP3    H134621   5.652   6.069   2.032 -1.4660  0.9243 -0.0420
 4354TIP3    H234622   5.586   6.097   2.165  1.5258  0.4914  1.6376
 4355TIP3   OH234623   4.795   6.694   0.061 -0.2605  0.2567  0.7674
 4355TIP3    H134624   4.826   6.777   0.027  1.1337 -0.4525  0.2222
 4355TIP3    H234625   4.781   6.639  -0.016  0.4941 -0.5526  1.1839
 4356TIP3   OH234626   3.216   1.370   3.326  0.6562  0.2400 -0.1799
 4356TIP3    H134627   3.297   1.322   3.346  0.8802  0.4707 -0.5256
 4356TIP3    H234628   3.200   1.423   3.404  0.9874  0.3951 -0.2160
 4357TIP3   OH234629   5.851   3.925   0.508  0.1699  0.1744 -0.1855
 4357TIP3    H134630   5.913   3.997   0.494  1.5296 -0.8597  0.2293
 4357TIP3    H234631   5.772   3.967   0.541  1.4146  1.3828  1.4411
 4358TIP3   OH234632   0.522   2.829   1.650  0.4891 -0.1079  0.2939
 4358TIP3    H134633   0.518   2.895   1.581  0.0794 -1.7420 -1.3234
 4358TIP3    H234634   0.433   2.825   1.685  0.4399 -0.0291  0.1785
 4359TIP3   OH234635   2.891   6.752   1.068  0.4176  0.4510 -0.0617
 4359TIP3    H134636   2.945   6.813   1.017 -0.6283  0.4457 -1.2197
 4359TIP3    H234637   2.831   6.808   1.117 -1.5240  0.4305 -2.2159
 4360TIP3   OH234638   0.873   5.760   8.486  0.1249  0.1211  0.2725
 4360TIP3    H134639   0.820   5.749   8.566 -1.6778 -0.8000 -0.9535
 4360TIP3    H234640   0.836   5.837   8.443 -0.8385 -0.9573 -0.9649
 4361TIP3   OH234641   6.161   2.689   2.864 -0.4433  0.2679  0.1059
 4361TIP3    H134642   6.089   2.718   2.919 -1.3915 -0.0898 -0.9189
 4361TIP3    H234643   6.142   2.725   2.778 -0.3905 -1.3538 -0.6158
 4362TIP3   OH234644   4.982   5.431   2.371  0.1878  0.8442 -0.5180
 4362TIP3    H134645   4.950   5.346   2.400  0.1830  0.6422 -1.0999
 4362TIP3    H234646   5.062   5.446   2.422 -0.5952  1.1700  0.6582
 4363TIP3   OH234647   0.553   5.645   3.706  0.5433 -0.2124 -0.5734
 4363TIP3    H134648   0.596   5.562   3.724  1.5903 -0.2756 -2.9574
 4363TIP3    H234649   0.625   5.709   3.702  0.0238  0.3663 -1.0214
 4364TIP3   OH234650   6.502   5.071   2.110  0.1162 -0.6986 -0.1132
 4364TIP3    H134651   6.448   5.018   2.169  0.1069 -0.0546  0.4805
 4364TIP3    H234652   6.575   5.015   2.085  0.5481 -0.7309  1.1549
 4365TIP3   OH234653   5.363   4.698   1.700 -0.3445 -0.2412 -0.3999
 4365TIP3    H134654   5.389   4.774   1.752  0.3553  0.6808 -2.0125
 4365TIP3    H234655   5.431   4.690   1.633 -0.6537 -2.0204 -0.5706
 4366TIP3   OH234656   3.032   5.805   0.745  0.4005 -0.6630 -0.6472
 4366TIP3    H134657   2.981   5.865   0.691 -1.8353 -0.7185  1.2627
 4366TIP3    H234658   2.980   5.724   0.747  1.0311 -1.0680  0.5604
 4367TIP3   OH234659   5.055   4.921   2.340  0.1884 -0.1354 -0.4770
 4367TIP3    H134660   5.123   4.853   2.345 -0.2895 -0.5191  3.1818
 4367TIP3    H234661   5.104   5.004   2.347  0.4280 -0.4067  2.0708
 4368TIP3   OH234662   0.847   6.544   0.980 -0.0236  0.0708 -0.1499
 4368TIP3    H134663   0.838   6.528   1.073 -2.3085  1.7057  0.0110
 4368TIP3    H234664   0.765   6.586   0.955  0.4880 -0.3732 -2.9235
 4369TIP3   OH234665   1.059   2.873   3.085 -0.5637 -0.5076 -0.4257
 4369TIP3    H134666   1.100   2.956   3.061 -0.6560 -0.6156 -0.9624
 4369TIP3    H234667   1.133   2.815   3.104 -0.4679 -0.6328 -1.1619
 4370TIP3   OH234668   0.638   0.503   0.286 -0.0107 -0.2106 -0.0330
 4370TIP3    H134669   0.600   0.573   0.340 -0.6144 -1.7881  1.6985
 4370TIP3    H234670   0.717   0.477   0.334 -0.2164 -1.2317 -0.2459
 4371TIP3   OH234671   1.682   0.345   2.795  0.2282 -0.3509 -0.2994
 4371TIP3    H134672   1.771   0.310   2.791  0.6141  0.6146 -3.3554
 4371TIP3    H234673   1.643   0.321   2.711 -1.9224  0.4361  0.4049
 4372TIP3   OH234674   6.438   5.004   2.539  0.4812 -0.2213  0.2106
 4372TIP3    H134675   6.528   4.975   2.528  0.0094 -2.8623  2.2767
 4372TIP3    H234676   6.392   4.969   2.463  1.1130  1.0642 -0.8052
 4373TIP3   OH234677   3.800   5.901   1.852  0.6884  0.3699 -0.0766
 4373TIP3    H134678   3.824   5.827   1.907  1.2739 -0.1127 -0.9652
 4373TIP3    H234679   3.705   5.909   1.863  0.5761 -0.6935 -0.1914
 4374TIP3   OH234680   6.119   5.772   7.882 -1.1351 -0.6515 -0.0116
 4374TIP3    H134681   6.052   5.716   7.922 -2.0037 -0.3640 -0.9938
 4374TIP3    H234682   6.187   5.712   7.854  0.5032 -0.7079  3.5823
 4375TIP3   OH234683   6.590   1.827   2.756  0.3715  0.1545  0.9091
 4375TIP3    H134684   6.664   1.767   2.760  0.6800  0.5694  1.5337
 4375TIP3    H234685   6.557   1.818   2.666  1.3194  0.1410  0.5543
 4376TIP3   OH234686   1.441   6.111   0.779  0.2109 -1.1661  0.8504
 4376TIP3    H134687   1.470   6.053   0.849  0.5369  0.0807  1.7803
 4376TIP3    H234688   1.496   6.189   0.787 -0.5519 -0.5097 -0.0406
 4377TIP3   OH234689   5.811   0.479   0.643 -0.3697 -0.3785 -0.1479
 4377TIP3    H134690   5.852   0.414   0.701  0.3079 -1.0694 -1.3588
 4377TIP3    H234691   5.856   0.561   0.665  1.8720 -1.1298 -1.5052
 4378TIP3   OH234692   5.867   0.153   1.119 -0.1644 -0.0691  0.4123
 4378TIP3    H134693   5.946   0.117   1.160  0.3797 -1.4368 -1.6906
 4378TIP3    H234694   5.796   0.127   1.178  0.7423 -0.4780  1.3580
 4379TIP3   OH234695   1.851   6.325   1.191  0.4341 -0.1053 -0.4016
 4379TIP3    H134696   1.922   6.380   1.225  0.5027  0.2816 -1.1498
 4379TIP3    H234697   1.781   6.334   1.255  0.1940  1.3991 -0.8421
 4380TIP3   OH234698   1.331   6.219   0.536 -0.2940 -0.0922  0.2915
 4380TIP3    H134699   1.407   6.188   0.584  2.7316  2.9147 -2.0810
 4380TIP3    H234700   1.276   6.260   0.603  0.2372 -2.0070  2.0254
 4381TIP3   OH234701   2.214   4.182   3.551  0.3514  0.1908 -0.4379
 4381TIP3    H134702   2.235   4.104   3.500 -0.2228  0.6008 -1.3175
 4381TIP3    H234703   2.230   4.255   3.492 -1.5421  0.6128 -0.4739
 4382TIP3   OH234704   6.755   6.367   1.494  0.3206  0.1180  0.6364
 4382TIP3    H134705   6.828   6.422   1.463 -0.7711  1.1409 -0.2111
 4382TIP3    H234706   6.694   6.429   1.532  0.2850 -0.8352  2.2006
 4383TIP3   OH234707   5.824   5.889   1.762  0.2741 -0.9621 -0.1731
 4383TIP3    H134708   5.850   5.882   1.853 -1.8990 -1.0042  0.4929
 4383TIP3    H234709   5.825   5.798   1.729 -1.8417 -1.3609  0.7196
 4384TIP3   OH234710   1.970   0.129   7.727 -0.3267 -0.1427  0.3501
 4384TIP3    H134711   2.058   0.136   7.764  0.2198 -0.1442 -0.9029
 4384TIP3    H234712   1.946   0.037   7.740  0.3344 -0.4228 -0.3108
 4385TIP3   OH234713   0.231   1.839   2.459 -0.0224 -0.1205  0.1145
 4385TIP3    H134714   0.323   1.824   2.484  0.2767  0.8655 -0.3514
 4385TIP3    H234715   0.205   1.757   2.418  0.5670 -0.5054  0.4740
 4386TIP3   OH234716   5.450   3.829   3.488 -0.0356  0.3849  0.2247
 4386TIP3    H134717   5.372   3.884   3.481  0.4264  0.9758 -0.4512
 4386TIP3    H234718   5.522   3.885   3.460  1.1320  0.8554  3.6879
 4387TIP3   OH234719   3.598   4.828   7.896 -0.4607  0.0993 -0.0785
 4387TIP3    H134720   3.503   4.825   7.887 -0.5953 -0.0001  1.2038
 4387TIP3    H234721   3.630   4.768   7.829 -1.4698 -2.5094  1.6567
 4388TIP3   OH234722   2.551   0.075   2.243  0.3350  0.7562 -0.1254
 4388TIP3    H134723   2.483   0.093   2.178  0.3049 -2.4380 -1.1573
 4388TIP3    H234724   2.629   0.053   2.191  0.9302  0.2437  0.9450
 4389TIP3   OH234725   5.288   6.219   0.588 -0.8148 -0.0182 -0.6328
 4389TIP3    H134726   5.257   6.299   0.546 -0.4420 -0.3254 -1.5300
 4389TIP3    H234727   5.223   6.153   0.564 -0.3889 -0.2837 -1.0792
 4390TIP3   OH234728   0.221   2.526   1.664 -0.0644  0.4932  0.1206
 4390TIP3    H134729   0.138   2.493   1.628  0.3821  0.5626 -1.0015
 4390TIP3    H234730   0.256   2.452   1.714 -0.3089  0.1198 -0.2552
 4391TIP3   OH234731   0.091   1.581   3.372  0.4535 -0.1186 -0.2520
 4391TIP3    H134732   0.023   1.648   3.377  0.6259  0.1525 -1.3057
 4391TIP3    H234733   0.043   1.499   3.365  0.1652  0.2115 -2.9266
 4392TIP3   OH234734   0.087   2.300   2.290  0.2173 -0.1172 -0.1815
 4392TIP3    H134735   0.131   2.224   2.329  2.6694  0.2892 -1.8795
 4392TIP3    H234736   0.114   2.298   2.198 -2.5245  0.8755 -1.1152
 4393TIP3   OH234737   5.934   0.723   0.701 -0.2985  0.5613 -0.0009
 4393TIP3    H134738   5.961   0.813   0.716  0.6474  0.2952  0.0034
 4393TIP3    H234739   5.981   0.697   0.622 -2.0003  0.6393 -1.0673
 4394TIP3   OH234740   2.709   4.247   1.537  0.2420  0.1901 -0.2867
 4394TIP3    H134741   2.678   4.337   1.547 -1.3776 -0.4968  1.4894
 4394TIP3    H234742   2.793   4.256   1.492  0.7304  2.6856  0.9108
 4395TIP3   OH234743   6.435   5.465   0.315  0.2472 -0.2430 -0.7230
 4395TIP3    H134744   6.510   5.505   0.270  0.1650  1.5074  0.6261
 4395TIP3    H234745   6.368   5.533   0.316  0.4608  0.0345  2.5303
 4396TIP3   OH234746   0.362   0.404   0.147 -1.0815 -0.3373  0.1403
 4396TIP3    H134747   0.300   0.411   0.220 -0.6293  0.3305  0.4713
 4396TIP3    H234748   0.429   0.343   0.178 -1.6701 -1.2332 -0.3015
 4397TIP3   OH234749   5.165   1.863   1.517  0.1680 -0.1330 -0.3852
 4397TIP3    H134750   5.086   1.903   1.554 -0.5072 -1.6482 -0.1172
 4397TIP3    H234751   5.164   1.773   1.550  0.8621 -0.8125 -2.1012
 4398TIP3   OH234752   6.612   1.877   0.665 -0.1761  0.2566 -0.3682
 4398TIP3    H134753   6.648   1.788   0.663  0.4977  0.4732  1.1481
 4398TIP3    H234754   6.672   1.926   0.720 -0.2303  1.8229 -1.6429
 4399TIP3   OH234755   0.945   4.149   1.808  0.3069  0.1665  0.3125
 4399TIP3    H134756   0.855   4.141   1.775  0.0699  1.3545  0.6229
 4399TIP3    H234757   0.991   4.199   1.741  0.5619  0.1382  0.4652
 4400TIP3   OH234758   2.599   4.632   1.411  0.3456  0.2927 -0.0208
 4400TIP3    H134759   2.541   4.703   1.441  2.3149  1.2842  1.6950
 4400TIP3    H234760   2.598   4.569   1.483  0.8803  0.0219 -0.2512
 4401TIP3   OH234761   4.517   5.418   2.890  0.5227 -0.1634  0.4238
 4401TIP3    H134762   4.479   5.330   2.887  0.6620 -0.2000 -0.6814
 4401TIP3    H234763   4.465   5.469   2.829  1.9281 -0.0975 -0.7774
 4402TIP3   OH234764   4.101   4.069   2.039 -0.2447  0.2605 -0.1935
 4402TIP3    H134765   4.080   3.988   1.993 -0.1230 -1.1936  2.1133
 4402TIP3    H234766   4.022   4.090   2.090 -0.6540  2.2253 -1.5115
 4403TIP3   OH234767   0.964   2.370   1.832  0.2155  0.3098 -0.3626
 4403TIP3    H134768   0.871   2.355   1.816  0.0826  0.7281 -0.0042
 4403TIP3    H234769   0.970   2.380   1.927  0.6711 -0.0146 -0.3534
 4404TIP3   OH234770   0.565   3.888   1.641 -0.3301 -0.3441 -0.6271
 4404TIP3    H134771   0.515   3.863   1.719 -0.7441 -1.0011 -1.0889
 4404TIP3    H234772   0.656   3.873   1.665 -0.3893  0.2639  0.0130
 4405TIP3   OH234773   2.775   4.019   8.083 -0.4402  0.3433  0.6760
 4405TIP3    H134774   2.844   3.956   8.061 -0.0563  0.8918  0.2859
 4405TIP3    H234775   2.792   4.094   8.027 -1.0221  0.7130  0.9848
 4406TIP3   OH234776   0.199   5.194   2.872  0.1295 -0.0079  0.5864
 4406TIP3    H134777   0.220   5.250   2.947  1.0816 -0.1635  0.4468
 4406TIP3    H234778   0.254   5.117   2.883  2.0353  0.9302 -1.4061
 4407TIP3   OH234779   4.507   2.621   2.043  0.1483 -0.2254 -0.1871
 4407TIP3    H134780   4.469   2.643   1.958  1.4249  0.4998 -0.5937
 4407TIP3    H234781   4.480   2.531   2.059  0.8652 -0.7859 -1.9246
 4408TIP3   OH234782   0.914   4.063   3.115  0.2891 -0.1232  0.4547
 4408TIP3    H134783   0.824   4.040   3.139  0.4628 -1.5535 -0.1764
 4408TIP3    H234784   0.905   4.115   3.034  0.0307 -0.1466  0.4675
 4409TIP3   OH234785   0.431   4.496   1.112  0.5483  0.4238  0.1009
 4409TIP3    H134786   0.343   4.463   1.131 -0.4634  0.8922 -3.0702
 4409TIP3    H234787   0.459   4.539   1.192 -2.1493  0.3273  1.2033
 4410TIP3   OH234788   1.751   3.600   2.352  1.0077  0.0866 -0.8459
 4410TIP3    H134789   1.738   3.570   2.442 -1.4703 -0.5649 -1.3321
 4410TIP3    H234790   1.780   3.690   2.361  0.6871  0.0823  0.6271
 4411TIP3   OH234791   4.691   3.327   7.835  0.4798 -0.0120  1.1714
 4411TIP3    H134792   4.707   3.381   7.757  1.4764 -3.6114 -1.3752
 4411TIP3    H234793   4.610   3.281   7.816  0.9986 -1.3213  1.9692
 4412TIP3   OH234794   6.808   1.812   1.435  0.5595  0.2042 -0.3011
 4412TIP3    H134795   6.793   1.904   1.458 -0.3076  0.2202 -0.8659
 4412TIP3    H234796   6.898   1.795   1.460  1.4934  1.8613 -2.2307
 4413TIP3   OH234797   1.984   2.887   8.296 -0.0272 -0.3874  0.3566
 4413TIP3    H134798   2.024   2.946   8.232  0.2868 -0.7908  0.1738
 4413TIP3    H234799   2.056   2.863   8.355 -0.2428 -0.2715  0.6747
 4414TIP3   OH234800   4.021   6.192   0.821  0.1880  0.1641 -0.6209
 4414TIP3    H134801   4.099   6.142   0.796 -0.9152 -0.5456 -2.9212
 4414TIP3    H234802   3.949   6.147   0.777 -1.4925  1.0846  1.0426
 4415TIP3   OH234803   4.894   3.615   2.179 -0.4590  0.2795  0.0003
 4415TIP3    H134804   4.799   3.625   2.188 -0.5388 -1.0611  0.8011
 4415TIP3    H234805   4.927   3.705   2.188 -1.7603  1.1121 -2.4468
 4416TIP3   OH234806   0.399   1.101   8.466  0.0976  0.6316 -0.2411
 4416TIP3    H134807   0.423   1.024   8.518  2.7714 -0.3546 -2.6381
 4416TIP3    H234808   0.319   1.133   8.506  1.3512 -0.6004  3.7831
 4417TIP3   OH234809   2.270   1.270   2.681  0.2705  0.1376  0.1284
 4417TIP3    H134810   2.324   1.222   2.617  0.0428 -0.5780  0.4635
 4417TIP3    H234811   2.264   1.358   2.645  0.5558 -0.1244 -0.5935
 4418TIP3   OH234812   4.553   1.513   2.236  0.7460  0.0812  0.1325
 4418TIP3    H134813   4.607   1.434   2.245  5.1673  2.9208  2.1405
 4418TIP3    H234814   4.522   1.530   2.325  0.1273  0.7666 -0.2100
 4419TIP3   OH234815   2.425   1.180   0.611  0.0314 -0.8449 -0.0848
 4419TIP3    H134816   2.489   1.144   0.549  0.4757 -1.1800  0.5585
 4419TIP3    H234817   2.417   1.272   0.585 -0.0128 -1.0457 -0.8229
 4420TIP3   OH234818   1.918   6.232   2.702 -0.4372 -0.4110  0.0563
 4420TIP3    H134819   1.941   6.251   2.611 -3.5993 -1.5219 -1.1220
 4420TIP3    H234820   1.948   6.308   2.751  0.7019  0.5555 -2.0075
 4421TIP3   OH234821   3.344   0.389   1.000 -0.0412 -0.3970 -0.2959
 4421TIP3    H134822   3.295   0.352   1.074  0.4528 -1.2808 -0.3946
 4421TIP3    H234823   3.324   0.330   0.927  2.9593 -2.2330  0.1875
 4422TIP3   OH234824   5.382   0.633   1.405 -0.0283  0.4826 -0.1546
 4422TIP3    H134825   5.428   0.714   1.425 -1.1720  0.7132  1.8079
 4422TIP3    H234826   5.438   0.588   1.342  1.7912  1.6958  0.5223
 4423TIP3   OH234827   5.299   5.031   3.825  0.2662 -0.3762  0.0992
 4423TIP3    H134828   5.226   5.008   3.882  1.1568 -0.6608  1.1707
 4423TIP3    H234829   5.376   4.993   3.868  1.0344 -0.1738 -1.0471
 4424TIP3   OH234830   5.534   0.412   2.535  0.2464  0.3837  0.2130
 4424TIP3    H134831   5.630   0.421   2.541  0.2289  0.8605 -0.2082
 4424TIP3    H234832   5.501   0.462   2.610  0.3263  0.1380  0.4160
 4425TIP3   OH234833   3.028   0.044   0.884 -0.4044  0.2089 -0.7246
 4425TIP3    H134834   3.073  -0.006   0.815 -1.1260 -2.0567  0.3429
 4425TIP3    H234835   3.096   0.100   0.921  0.3450  0.3756 -2.2812
 4426TIP3   OH234836   1.219   6.589   2.818  0.5467  0.3818  0.5676
 4426TIP3    H134837   1.202   6.649   2.891  1.8299  0.8082  0.5476
 4426TIP3    H234838   1.262   6.644   2.752  0.1756 -0.1864 -0.1590
 4427TIP3   OH234839   5.469   4.190   1.697 -0.7447  0.4942  0.3200
 4427TIP3    H134840   5.477   4.272   1.648 -1.9181  1.3089  1.4091
 4427TIP3    H234841   5.496   4.212   1.786  0.1040 -0.6269  0.3593
 4428TIP3   OH234842   5.606   0.848   3.206 -0.1518  0.1471 -0.2211
 4428TIP3    H134843   5.634   0.812   3.121 -0.9145 -2.1302  0.4240
 4428TIP3    H234844   5.558   0.927   3.183 -0.1424 -0.2959 -1.9272
 4429TIP3   OH234845   1.067   6.122   0.821 -0.2071  0.4544  0.2795
 4429TIP3    H134846   0.985   6.171   0.816 -0.8421 -0.6095  0.0291
 4429TIP3    H234847   1.124   6.166   0.757 -1.2687 -0.0268 -1.0555
 4430TIP3   OH234848   0.518   1.997   0.743  0.6792 -1.0081 -0.0790
 4430TIP3    H134849   0.432   2.021   0.708  1.2472 -0.2283 -0.9799
 4430TIP3    H234850   0.523   2.042   0.828  1.0928  0.8663 -1.0428
 4431TIP3   OH234851   5.081   3.039   1.746 -0.1112  0.4394  0.1183
 4431TIP3    H134852   5.038   3.111   1.792 -1.0734  1.3247 -2.0687
 4431TIP3    H234853   5.019   3.013   1.678  1.4550 -0.5080 -0.9979
 4432TIP3   OH234854   0.781   5.393   2.151  0.2005  0.0790 -0.0315
 4432TIP3    H134855   0.794   5.309   2.106 -1.2297  0.1837 -0.6947
 4432TIP3    H234856   0.778   5.370   2.244 -0.6558 -0.6732 -0.2364
 4433TIP3   OH234857   6.593   5.232   0.348  0.5290 -0.0779 -0.2167
 4433TIP3    H134858   6.570   5.319   0.315 -3.1328 -0.1605  1.5516
 4433TIP3    H234859   6.625   5.184   0.272 -0.2890  1.9323 -1.9077
 4434TIP3   OH234860   6.730   1.488   3.156  0.0459 -0.0740 -0.2174
 4434TIP3    H134861   6.761   1.439   3.232  0.5855  1.6539  0.7313
 4434TIP3    H234862   6.808   1.499   3.102 -0.1738 -0.6274 -0.6582
 4435TIP3   OH234863   2.365   2.847   0.526  0.1987  0.0769  0.0104
 4435TIP3    H134864   2.311   2.781   0.483  1.2006 -1.0411  0.4087
 4435TIP3    H234865   2.433   2.869   0.462  0.4709 -0.0587  0.2476
 4436TIP3   OH234866   1.305   5.540   8.589  0.0446 -0.1651 -0.4089
 4436TIP3    H134867   1.369   5.612   8.593  2.0971 -1.8867 -0.7793
 4436TIP3    H234868   1.307   5.511   8.498 -0.6512 -0.8000 -0.2257
 4437TIP3   OH234869   3.832   6.826   0.766  0.2139 -0.4363  0.0067
 4437TIP3    H134870   3.748   6.813   0.723  1.3595 -1.8598 -1.9880
 4437TIP3    H234871   3.811   6.870   0.848 -2.3648  0.0136 -0.8115
 4438TIP3   OH234872   5.252   5.199   1.147 -0.3958  0.2437  0.0582
 4438TIP3    H134873   5.324   5.152   1.106  1.1495  1.8653  0.7439
 4438TIP3    H234874   5.190   5.217   1.076  0.7451  0.3451 -0.9390
 4439TIP3   OH234875   1.214   0.337   3.642  0.3608  0.4964 -0.2253
 4439TIP3    H134876   1.281   0.391   3.682 -0.0909  0.9278 -0.0418
 4439TIP3    H234877   1.254   0.251   3.633  0.0523  0.0187  2.3448
 4440TIP3   OH234878   0.454   3.984   0.624 -0.3894 -0.1533  0.0827
 4440TIP3    H134879   0.458   3.914   0.560  0.9617 -0.7594  0.7813
 4440TIP3    H234880   0.380   4.039   0.596  0.6286  0.0722 -2.4316
 4441TIP3   OH234881   6.489   0.619   1.425 -0.5545  0.0447 -0.4533
 4441TIP3    H134882   6.426   0.560   1.467 -2.5771  1.1138 -1.8320
 4441TIP3    H234883   6.486   0.597   1.332  2.1178 -0.7099 -0.4548
 4442TIP3   OH234884   1.294   2.079   1.661 -0.3741 -0.0506 -0.2701
 4442TIP3    H134885   1.228   2.146   1.643  0.6755  1.5785  1.5993
 4442TIP3    H234886   1.358   2.090   1.591 -0.1350  1.0250  0.1003
 4443TIP3   OH234887   1.994   1.417   1.013  0.0074 -0.0290  0.3784
 4443TIP3    H134888   2.084   1.402   1.042  0.2409 -1.0094 -0.7291
 4443TIP3    H234889   2.002   1.431   0.918 -1.0435 -0.6511  0.1794
 4444TIP3   OH234890   0.948   0.204   0.509  0.2069  0.4189 -0.3965
 4444TIP3    H134891   0.939   0.215   0.604 -1.1357  0.1467 -0.4807
 4444TIP3    H234892   1.020   0.142   0.500  0.0071  0.0306  0.4751
 4445TIP3   OH234893   6.810   0.113   2.842 -0.1456  0.5088  0.0343
 4445TIP3    H134894   6.868   0.052   2.796  0.5711  0.7118  0.6459
 4445TIP3    H234895   6.801   0.187   2.783  0.2976  0.5148 -0.0299
 4446TIP3   OH234896   2.602   2.160   2.313 -0.1870 -0.2025 -0.2013
 4446TIP3    H134897   2.586   2.219   2.387  2.4927 -0.5661  0.8054
 4446TIP3    H234898   2.626   2.077   2.355  2.5857 -0.0924 -1.3550
 4447TIP3   OH234899   1.217   0.367   1.772 -0.1805  0.1189  0.0202
 4447TIP3    H134900   1.134   0.373   1.819  0.5077 -2.0686  1.6967
 4447TIP3    H234901   1.273   0.313   1.829  2.3068  1.2711 -1.1623
 4448TIP3   OH234902   5.005   5.686   2.106 -0.0517  0.0589  0.4533
 4448TIP3    H134903   5.078   5.700   2.046 -0.3128 -1.2858 -0.2093
 4448TIP3    H234904   5.039   5.628   2.174 -0.4973 -0.5862  0.1339
 4449TIP3   OH234905   6.137   5.807   1.813  0.6133 -0.4284 -0.1742
 4449TIP3    H134906   6.197   5.738   1.786  0.2792 -0.0095 -2.1096
 4449TIP3    H234907   6.175   5.888   1.779  0.2483  0.1638  0.7882
 4450TIP3   OH234908   6.005   5.398   3.480  0.1461  0.0115 -0.1697
 4450TIP3    H134909   6.101   5.399   3.470  0.2300 -1.4921  0.1374
 4450TIP3    H234910   5.981   5.306   3.467 -1.3038  0.4145 -0.5356
 4451TIP3   OH234911   3.270   2.287   2.349  0.8642 -0.1541 -0.1108
 4451TIP3    H134912   3.362   2.266   2.358  1.3741  1.9017  0.1613
 4451TIP3    H234913   3.245   2.321   2.435 -0.2500 -0.9639 -0.0849
 4452TIP3   OH234914   5.116   3.779   1.779  0.4374  0.3485  0.3393
 4452TIP3    H134915   5.133   3.869   1.808 -0.4590  0.1171  1.6977
 4452TIP3    H234916   5.079   3.789   1.692  1.9057  1.1812 -0.2259
 4453TIP3   OH234917   6.860   2.593   2.295 -0.3948  0.0146 -0.1979
 4453TIP3    H134918   6.800   2.548   2.236 -0.2286 -0.1173 -0.2668
 4453TIP3    H234919   6.921   2.525   2.323  2.1649  0.8503 -3.1458
 4454TIP3   OH234920   0.367   0.111   0.639 -0.5725  0.1960 -0.1898
 4454TIP3    H134921   0.337   0.188   0.591 -1.9168  0.2353  0.6767
 4454TIP3    H234922   0.336   0.037   0.586  1.2722  0.2084 -1.3603
 4455TIP3   OH234923   0.226   1.558   1.280 -0.1481  0.1317 -0.4083
 4455TIP3    H134924   0.271   1.476   1.257  0.2805  0.2658 -0.0591
 4455TIP3    H234925   0.178   1.582   1.201 -0.4040 -0.5428 -0.4627
 4456TIP3   OH234926   6.740   5.682   0.921 -0.6408 -0.2775  0.3959
 4456TIP3    H134927   6.721   5.686   0.827  0.6163 -1.3129  0.0643
 4456TIP3    H234928   6.823   5.729   0.930  0.1718 -1.7076  0.6784
 4457TIP3   OH234929   0.335   0.343   8.553 -0.4408  0.5421 -0.2725
 4457TIP3    H134930   0.354   0.371   8.642 -0.4796  0.5735 -0.2746
 4457TIP3    H234931   0.411   0.370   8.502 -0.3203  0.3275 -0.2068
 4458TIP3   OH234932   0.378   4.564   2.263  0.0856 -0.0924  0.2533
 4458TIP3    H134933   0.363   4.565   2.169 -1.7010  1.3673  0.4946
 4458TIP3    H234934   0.353   4.476   2.291  1.9665 -1.0089 -0.7743
 4459TIP3   OH234935   0.110   5.852   3.783  0.1367  0.2258 -0.3450
 4459TIP3    H134936   0.160   5.934   3.773  2.3379 -1.0811 -0.6457
 4459TIP3    H234937   0.056   5.848   3.705 -0.3750  1.6263 -0.0880
 4460TIP3   OH234938   5.597   2.867   1.621  0.1787 -0.0123  0.5905
 4460TIP3    H134939   5.689   2.859   1.645 -0.5106 -0.6206  3.2382
 4460TIP3    H234940   5.567   2.945   1.667 -0.5870  0.4036 -0.5512
 4461TIP3   OH234941   0.309   6.424   3.176 -0.0203  0.4740  0.0678
 4461TIP3    H134942   0.341   6.463   3.258 -1.3129  1.6439  0.0443
 4461TIP3    H234943   0.218   6.401   3.194 -0.2051  0.3889 -0.9274
 4462TIP3   OH234944   5.444   1.456   2.123  0.3060 -0.3589  0.0859
 4462TIP3    H134945   5.508   1.524   2.100  0.8349 -0.7200  0.4777
 4462TIP3    H234946   5.396   1.492   2.197  1.8718 -1.1668  1.5544
 4463TIP3   OH234947   4.400   6.792   2.335  0.0689 -0.4160  0.0191
 4463TIP3    H134948   4.335   6.726   2.308  0.8103 -1.2603  0.2547
 4463TIP3    H234949   4.360   6.834   2.412  0.0253 -1.3082  0.4953
 4464TIP3   OH234950   6.026   1.590   8.129 -0.2290  0.1777  0.6076
 4464TIP3    H134951   6.119   1.607   8.139  0.0731  0.3515 -1.8082
 4464TIP3    H234952   6.021   1.510   8.076 -1.4151  0.4793  0.2092
 4465TIP3   OH234953   1.174   0.344   1.491  0.2493  0.1573 -0.0502
 4465TIP3    H134954   1.217   0.364   1.574  1.9981  1.2188 -1.1629
 4465TIP3    H234955   1.082   0.328   1.516  1.1098 -1.7618  2.3343
 4466TIP3   OH234956   5.698   1.641   2.401 -0.5137  0.1925 -0.0185
 4466TIP3    H134957   5.772   1.640   2.340 -0.0133 -0.1504  0.5786
 4466TIP3    H234958   5.621   1.639   2.345 -0.0675 -0.1517 -0.6385
 4467TIP3   OH234959   2.958   5.978   1.248 -0.7073 -0.6272  0.1323
 4467TIP3    H134960   2.916   5.896   1.223 -0.5099 -0.8270  0.4520
 4467TIP3    H234961   3.052   5.961   1.238 -0.7122  0.0025 -1.1566
 4468TIP3   OH234962   6.777   2.516   0.711 -0.2928 -0.9755 -0.4221
 4468TIP3    H134963   6.716   2.540   0.642 -1.1923  2.2738  1.3171
 4468TIP3    H234964   6.723   2.506   0.789  1.1027 -0.4210  0.6674
 4469TIP3   OH234965   5.445   1.842   8.216  0.6323  0.1781  0.0107
 4469TIP3    H134966   5.379   1.899   8.176  0.4789 -0.4635 -0.6832
 4469TIP3    H234967   5.407   1.816   8.299  0.0059 -0.1687 -0.3750
 4470TIP3   OH234968   6.533   3.388   7.561 -0.4285 -0.4914  0.6917
 4470TIP3    H134969   6.554   3.477   7.532 -0.0385 -0.6956  0.3508
 4470TIP3    H234970   6.524   3.396   7.656  0.3225 -0.2324  0.7453
 4471TIP3   OH234971   2.136   3.997   1.241 -0.6811  0.6861 -0.1496
 4471TIP3    H134972   2.218   3.974   1.196 -2.3669 -0.6002 -2.8081
 4471TIP3    H234973   2.161   4.067   1.301  2.6502 -0.6407  0.2787
 4472TIP3   OH234974   5.670   2.851   8.446  0.4033 -0.2527 -0.3412
 4472TIP3    H134975   5.575   2.861   8.453  0.4317  0.2194 -0.5526
 4472TIP3    H234976   5.699   2.933   8.406  0.8574 -0.5542 -0.6328
 4473TIP3   OH234977   5.349   6.407   0.817  0.2287 -0.3243 -0.5496
 4473TIP3    H134978   5.362   6.492   0.859 -0.0107 -0.2895 -0.5458
 4473TIP3    H234979   5.294   6.425   0.741  0.4278 -0.4316 -0.7228
 4474TIP3   OH234980   3.734   5.443   1.511  0.0349  0.3170  0.4502
 4474TIP3    H134981   3.828   5.429   1.526  0.2505  1.8131  0.6953
 4474TIP3    H234982   3.709   5.509   1.576 -0.8440  1.0093 -0.5519
 4475TIP3   OH234983   4.367   3.808   7.653  0.3785  0.4705 -0.3170
 4475TIP3    H134984   4.372   3.714   7.675 -1.0546 -0.0069 -1.8090
 4475TIP3    H234985   4.274   3.829   7.660  0.8098  2.1293  1.1321
 4476TIP3   OH234986   3.734   4.743   1.894  0.1078  0.5825  0.1365
 4476TIP3    H134987   3.724   4.709   1.983  0.6517  0.9809  0.3594
 4476TIP3    H234988   3.656   4.796   1.880  0.3558  1.1033  0.6549
 4477TIP3   OH234989   2.950   6.501   2.082  0.0327  1.1060 -0.1353
 4477TIP3    H134990   2.898   6.535   2.154  0.5391 -0.8930  1.2647
 4477TIP3    H234991   2.886   6.457   2.025 -0.0997  0.6192  0.3818
 4478TIP3   OH234992   4.159   1.816   3.342 -0.4543  0.0838 -0.1909
 4478TIP3    H134993   4.084   1.758   3.355  1.0039 -1.7829  0.3597
 4478TIP3    H234994   4.211   1.808   3.423 -0.0352  1.9466 -0.2241
 4479TIP3   OH234995   3.446   3.041   0.192  0.1830  0.1986  0.5812
 4479TIP3    H134996   3.482   3.036   0.103 -2.7678 -0.3197 -0.7218
 4479TIP3    H234997   3.398   3.124   0.193 -1.9581 -0.9725  0.7111
 4480TIP3   OH234998   3.340   0.126   1.416  0.0639  0.2764  0.3570
 4480TIP3    H134999   3.320   0.070   1.491 -0.1580  1.2753  1.0661
 4480TIP3    H235000   3.337   0.215   1.451  0.3095  0.7438 -0.7632
 4481TIP3   OH235001   5.832   1.770   2.623  0.2655 -0.3188 -0.2344
 4481TIP3    H135002   5.778   1.719   2.562 -1.8650  2.4155 -0.8113
 4481TIP3    H235003   5.908   1.796   2.571 -1.7968  2.4824 -2.1163
 4482TIP3   OH235004   5.915   5.142   0.256 -0.5891  0.4160  0.0632
 4482TIP3    H135005   5.826   5.171   0.279 -0.6236 -0.5259  1.1729
 4482TIP3    H235006   5.931   5.181   0.170 -0.7969  3.3820  1.2463
 4483TIP3   OH235007   2.117   0.767   1.236 -0.0269  0.3289  0.2233
 4483TIP3    H135008   2.112   0.677   1.269 -0.3734 -0.2767 -1.3727
 4483TIP3    H235009   2.093   0.821   1.310  1.0209 -0.8421  1.4725
 4484TIP3   OH235010   1.310   1.132   8.386  0.2703 -0.2081 -0.4045
 4484TIP3    H135011   1.348   1.087   8.312  2.2775  1.5702 -0.5443
 4484TIP3    H235012   1.264   1.207   8.348 -1.1137 -0.8255 -0.0186
 4485TIP3   OH235013   2.837   5.742   7.842  0.3452 -0.6134  1.0064
 4485TIP3    H135014   2.814   5.650   7.860 -1.0794 -0.5949 -0.4817
 4485TIP3    H235015   2.849   5.745   7.747  2.2432  0.3875  1.2252
 4486TIP3   OH235016   5.468   3.048   2.044  0.2456  0.3322 -0.1891
 4486TIP3    H135017   5.476   3.106   1.968  0.3180  1.4111  0.6338
 4486TIP3    H235018   5.529   2.976   2.025 -2.2066 -1.2779 -2.7581
 4487TIP3   OH235019   1.131   2.557   0.219  0.4929  0.6238 -0.2084
 4487TIP3    H135020   1.123   2.535   0.127  1.5218 -0.9318  0.0476
 4487TIP3    H235021   1.225   2.558   0.236  0.2973 -1.2674  1.2906
 4488TIP3   OH235022   0.273   4.826   2.697 -0.0239 -0.1228 -0.5766
 4488TIP3    H135023   0.314   4.740   2.711 -1.3999 -0.4088  2.5620
 4488TIP3    H235024   0.240   4.851   2.784  0.5952  3.7741 -1.2854
 4489TIP3   OH235025   1.850   1.574   2.578  0.1629 -0.1231 -0.0356
 4489TIP3    H135026   1.809   1.527   2.505  0.3492 -0.6062  0.1612
 4489TIP3    H235027   1.898   1.506   2.626  0.4374  0.2742  0.2602
 4490TIP3   OH235028   0.568   4.639   1.314 -0.6153 -0.5294  0.0976
 4490TIP3    H135029   0.492   4.652   1.370 -0.4913 -2.7576  0.8414
 4490TIP3    H235030   0.597   4.550   1.331  1.0082 -0.4023 -1.6132
 4491TIP3   OH235031   0.364   3.138   0.881 -0.0770  0.2479 -0.2309
 4491TIP3    H135032   0.277   3.155   0.844 -1.0323 -1.2860  1.1355
 4491TIP3    H235033   0.347   3.123   0.974  1.9458  1.9430  0.4891
 4492TIP3   OH235034   0.234   0.348   8.145 -0.3786  0.4524  0.3374
 4492TIP3    H135035   0.306   0.285   8.150 -0.0326  0.9045  1.2558
 4492TIP3    H235036   0.268   0.420   8.092 -0.4683  0.2633  0.0219
 4493TIP3   OH235037   1.442   5.636   2.626 -0.5838 -0.3263  0.1897
 4493TIP3    H135038   1.532   5.610   2.609 -0.7276 -0.2396 -0.8020
 4493TIP3    H235039   1.401   5.638   2.539 -1.6207 -0.6753  0.6472
 4494TIP3   OH235040   3.155   5.393   8.306  0.2149 -0.0817 -0.4348
 4494TIP3    H135041   3.158   5.307   8.265  0.8787 -1.9723  3.1813
 4494TIP3    H235042   3.236   5.399   8.357 -0.3386  2.1935  0.3053
 4495TIP3   OH235043   1.226   5.694   7.851 -0.3283  0.0829  0.7009
 4495TIP3    H135044   1.292   5.763   7.847  0.1365 -0.3418  1.0567
 4495TIP3    H235045   1.274   5.615   7.875 -0.5333 -0.8221 -1.6337
 4496TIP3   OH235046   4.741   0.159   0.131  0.2344 -0.5884 -0.9336
 4496TIP3    H135047   4.828   0.186   0.103  0.1429 -0.3842 -1.0256
 4496TIP3    H235048   4.755   0.114   0.214  0.2434  0.9894 -0.0443
 4497TIP3   OH235049   0.211   1.778   1.501  0.0071 -0.1149  0.0136
 4497TIP3    H135050   0.279   1.839   1.529 -0.5958  0.4700  0.2115
 4497TIP3    H235051   0.259   1.700   1.473  0.8592  0.9046 -1.4465
 4498TIP3   OH235052   5.693   1.533   1.212  0.6816 -0.1646  0.2713
 4498TIP3    H135053   5.660   1.620   1.192  1.8793 -0.2659 -2.6733
 4498TIP3    H235054   5.787   1.537   1.191  0.6940 -2.2333 -0.3679
 4499TIP3   OH235055   4.446   0.723   2.368 -0.5904  0.3696  0.7328
 4499TIP3    H135056   4.363   0.676   2.368 -0.6319  0.4363  0.3018
 4499TIP3    H235057   4.446   0.773   2.449 -0.2961 -0.7979  1.4734
 4500TIP3   OH235058   4.054   3.310   0.086  0.4984  0.0319  0.1728
 4500TIP3    H135059   4.129   3.325   0.029 -0.4332  1.2877 -0.7887
 4500TIP3    H235060   4.091   3.271   0.165  2.5421  2.7667  0.7256
 4501TIP3   OH235061   2.329   6.221   0.678  0.3399  0.1091  0.2129
 4501TIP3    H135062   2.333   6.311   0.711  0.2064  0.1485  0.1205
 4501TIP3    H235063   2.404   6.178   0.720  0.4165  0.2674  0.2418
 4502TIP3   OH235064   0.372   4.703   7.676  0.3561 -0.1049 -0.0706
 4502TIP3    H135065   0.378   4.616   7.636 -1.2370  0.3155 -1.3210
 4502TIP3    H235066   0.303   4.696   7.741  0.3077  0.2000 -0.0872
 4503TIP3   OH235067   3.797   6.126   8.622 -0.1017  1.0611 -0.5863
 4503TIP3    H135068   3.871   6.148   8.565  0.5371  0.6715  0.0827
 4503TIP3    H235069   3.731   6.192   8.601  1.6608  3.5793  1.2022
 4504TIP3   OH235070   2.808   3.818   1.560 -0.5293  0.3348 -0.2630
 4504TIP3    H135071   2.763   3.898   1.589 -1.2129 -0.4002  0.7455
 4504TIP3    H235072   2.785   3.812   1.467  0.9578  2.2298 -0.8257
 4505TIP3   OH235073   1.013   6.706   3.663 -0.3446  0.2306  0.0346
 4505TIP3    H135074   1.063   6.626   3.681 -0.4323  0.2406  0.3146
 4505TIP3    H235075   0.948   6.678   3.598 -1.4115 -0.3119  1.2916
 4506TIP3   OH235076   3.954   3.116   1.464 -0.1395  0.1510 -0.4302
 4506TIP3    H135077   3.869   3.123   1.509  0.1315  2.0974 -0.0961
 4506TIP3    H235078   3.952   3.031   1.422 -2.0964 -0.0401 -0.0693
 4507TIP3   OH235079   4.511   0.937   1.501  0.0035 -0.5135 -0.5888
 4507TIP3    H135080   4.589   0.950   1.556 -1.1427 -0.1729  1.0228
 4507TIP3    H235081   4.468   0.860   1.539 -0.2105 -1.0217 -1.7946
 4508TIP3   OH235082   1.314   4.228   2.660  0.3317  0.0509  0.3943
 4508TIP3    H135083   1.350   4.151   2.616  3.2932  1.5714 -0.0954
 4508TIP3    H235084   1.276   4.280   2.590  0.4073  0.0784  0.3729
 4509TIP3   OH235085   0.953   4.895   0.785  0.0805 -0.3585  0.7684
 4509TIP3    H135086   0.904   4.813   0.799  1.2756 -1.4199 -0.8681
 4509TIP3    H235087   1.028   4.869   0.731 -0.0758  2.0316 -0.7237
 4510TIP3   OH235088   2.729   3.046   3.175 -0.3221  0.2516  0.3334
 4510TIP3    H135089   2.770   3.069   3.258 -0.9466 -0.1848  0.7604
 4510TIP3    H235090   2.640   3.020   3.197 -0.2085 -0.7842 -0.3598
 4511TIP3   OH235091   6.126   2.494   2.305 -0.3657  0.0249  1.0306
 4511TIP3    H135092   6.086   2.580   2.301  0.7616  0.5486  0.5011
 4511TIP3    H235093   6.123   2.470   2.398 -0.3050  0.8287  1.2454
 4512TIP3   OH235094   3.189   4.654   0.971 -0.6362  0.3151 -0.2344
 4512TIP3    H135095   3.118   4.603   1.009 -0.8446  0.8961  0.1641
 4512TIP3    H235096   3.254   4.661   1.040 -0.3896  0.1785 -0.4482
 4513TIP3   OH235097   2.026   1.589   8.066  0.3415  0.4196 -0.7179
 4513TIP3    H135098   2.043   1.526   7.997  0.1491 -1.2161  0.6647
 4513TIP3    H235099   1.951   1.640   8.035  2.5998  2.3939 -3.3926
 4514TIP3   OH235100   2.584   5.756   0.589 -0.2720  0.3939  0.0752
 4514TIP3    H135101   2.541   5.694   0.530 -0.7695  1.2267 -0.4536
 4514TIP3    H235102   2.521   5.827   0.600  0.4693  1.0366  0.2907
 4515TIP3   OH235103   0.835   1.040   8.477  0.0921  0.6079  0.1346
 4515TIP3    H135104   0.902   1.083   8.425  0.2728  0.8613  0.5654
 4515TIP3    H235105   0.829   1.093   8.557  1.3116 -0.9062  1.3043
 4516TIP3   OH235106   2.978   0.561   2.090 -0.6513  0.9759  0.1384
 4516TIP3    H135107   3.060   0.590   2.129 -0.0547 -0.9898  0.4397
 4516TIP3    H235108   2.973   0.609   2.007 -0.0645  2.3726  0.8830
 4517TIP3   OH235109   0.982   4.795   1.651  0.0388  0.3116  0.2126
 4517TIP3    H135110   1.043   4.863   1.679  1.0642  0.0037 -1.1808
 4517TIP3    H235111   0.983   4.800   1.555 -0.8970 -0.7746  0.1269
 4518TIP3   OH235112   3.021   6.552   0.935 -1.1863 -0.0016  0.3263
 4518TIP3    H135113   3.042   6.571   0.844 -2.7803 -0.8344 -0.2617
 4518TIP3    H235114   2.983   6.633   0.969  0.2899  0.6188  0.5718
 4519TIP3   OH235115   1.697   2.771   0.215  0.0537  0.2088 -0.6262
 4519TIP3    H135116   1.718   2.678   0.210 -0.3352  0.1295 -0.8623
 4519TIP3    H235117   1.741   2.802   0.294 -0.2546 -0.2943 -0.2532
 4520TIP3   OH235118   6.408   2.262   1.012  0.3755 -0.1935 -0.4711
 4520TIP3    H135119   6.409   2.324   1.084 -0.8726 -0.5131 -0.1565
 4520TIP3    H235120   6.486   2.284   0.960 -0.7249  2.5283 -1.1391
 4521TIP3   OH235121   3.830   0.773   1.139 -0.2635 -0.1450  0.1622
 4521TIP3    H135122   3.840   0.759   1.233  0.4129 -0.1451  0.0962
 4521TIP3    H235123   3.838   0.867   1.128 -0.8303 -0.0971  0.1585
 4522TIP3   OH235124   6.617   0.218   1.263  0.2714 -0.2645 -0.9695
 4522TIP3    H135125   6.602   0.290   1.201 -2.1078 -0.5540 -0.8077
 4522TIP3    H235126   6.537   0.166   1.259  0.3778 -0.7593  1.7485
 4523TIP3   OH235127   4.602   5.533   2.044  0.4033  0.3950 -0.4383
 4523TIP3    H135128   4.683   5.487   2.062 -0.1090 -0.3414 -0.0058
 4523TIP3    H235129   4.533   5.468   2.055 -0.2581  1.0128 -0.7795
 4524TIP3   OH235130   2.393   5.637   3.898  0.5542 -0.1200  0.2868
 4524TIP3    H135131   2.392   5.732   3.908  1.3895  0.0100 -0.7341
 4524TIP3    H235132   2.302   5.614   3.877  0.0455  0.2657  1.8814
 4525TIP3   OH235133   1.669   2.687   8.527 -0.3332 -0.3896  0.4315
 4525TIP3    H135134   1.756   2.648   8.536 -0.4559 -1.9056 -3.1375
 4525TIP3    H235135   1.685   2.782   8.524  1.3470 -0.6709 -0.9771
 4526TIP3   OH235136   2.285   1.065   8.276 -0.5347 -0.6534  0.5465
 4526TIP3    H135137   2.277   1.002   8.348 -2.8732 -1.3633 -0.2301
 4526TIP3    H235138   2.336   1.020   8.210  0.2731 -0.6045  1.1281
 4527TIP3   OH235139   2.123   2.303   3.700  0.1125  0.2693  0.1039
 4527TIP3    H135140   2.195   2.344   3.749  0.1610 -0.5064  0.6967
 4527TIP3    H235141   2.065   2.376   3.678 -2.1259  0.3766  4.9251
 4528TIP3   OH235142   4.633   0.759   8.065  0.3808 -0.3998  0.3754
 4528TIP3    H135143   4.598   0.674   8.093 -1.2486  0.1045 -0.0199
 4528TIP3    H235144   4.700   0.737   8.001  1.5660 -1.4513  1.9031
 4529TIP3   OH235145   6.449   3.024   8.521  0.3889  0.0620  0.0786
 4529TIP3    H135146   6.372   3.010   8.575  0.7501  0.7361  0.7975
 4529TIP3    H235147   6.507   3.078   8.575  0.6452  0.9969 -1.0773
 4530TIP3   OH235148   2.302   2.729   3.521 -0.3326 -0.2369  0.3258
 4530TIP3    H135149   2.279   2.637   3.505 -3.4033  0.2780  1.1067
 4530TIP3    H235150   2.252   2.777   3.455 -0.9666  0.9747  1.6366
 4531TIP3   OH235151   0.873   5.936   2.377 -0.3109  0.2400  0.3930
 4531TIP3    H135152   0.859   6.026   2.346  1.2765  0.6802  0.8513
 4531TIP3    H235153   0.806   5.923   2.445 -1.9537  0.2789 -1.1388
 4532TIP3   OH235154   4.849   2.729   8.624 -0.1892 -0.3382 -0.2979
 4532TIP3    H135155   4.810   2.686   8.701 -0.1101  0.2404  0.0659
 4532TIP3    H235156   4.779   2.728   8.558 -0.3202 -0.6622 -0.1556
 4533TIP3   OH235157   0.252   2.662   7.981 -1.0369 -0.6252  0.1750
 4533TIP3    H135158   0.226   2.745   7.940  1.4079 -0.7920 -1.9172
 4533TIP3    H235159   0.195   2.597   7.941 -0.7138 -0.3718 -0.7200
 4534TIP3   OH235160   1.763   0.929   2.366 -0.2659  0.4265 -0.1600
 4534TIP3    H135161   1.758   1.016   2.405 -2.8935  0.3420 -0.1399
 4534TIP3    H235162   1.717   0.872   2.427 -1.1995 -0.4147 -1.5781
 4535TIP3   OH235163   3.320   4.933   2.477  0.3697 -0.3276  0.1977
 4535TIP3    H135164   3.377   4.919   2.553 -0.2023  0.0530  0.7062
 4535TIP3    H235165   3.231   4.926   2.511  0.0448 -3.1427 -1.0080
 4536TIP3   OH235166   4.767   4.544   1.716  0.0157  0.0817  0.3094
 4536TIP3    H135167   4.839   4.524   1.655 -1.0031  1.5568 -1.4918
 4536TIP3    H235168   4.717   4.463   1.721  0.8925 -0.4818  0.3302
 4537TIP3   OH235169   6.261   3.545   2.752  0.3849 -0.0764  0.0634
 4537TIP3    H135170   6.341   3.555   2.701  0.9670  0.5521  1.0581
 4537TIP3    H235171   6.206   3.486   2.701  0.2481  1.8121 -2.1236
 4538TIP3   OH235172   0.763   3.850   1.157  0.5593  0.1194 -0.2078
 4538TIP3    H135173   0.744   3.854   1.251  1.4167 -2.0941  0.1053
 4538TIP3    H235174   0.710   3.777   1.126  2.3711 -0.9521 -0.8823
 4539TIP3   OH235175   4.056   4.028   8.614  0.5587  0.0030  0.2101
 4539TIP3    H135176   3.961   4.029   8.626  0.5702  0.6379  0.3234
 4539TIP3    H235177   4.073   4.102   8.555  0.6100 -2.3450 -2.9479
 4540TIP3   OH235178   4.509   0.266   1.653 -0.0335 -0.6314  0.3466
 4540TIP3    H135179   4.580   0.217   1.611  2.1764  0.8737  2.0714
 4540TIP3    H235180   4.535   0.271   1.745 -1.2535  1.8684  0.6268
 4541TIP3   OH235181   0.942   3.432   2.382  0.4178  0.3690 -0.9303
 4541TIP3    H135182   0.879   3.497   2.413  2.4293  2.5759 -1.2443
 4541TIP3    H235183   0.975   3.468   2.300  1.1692 -1.3802 -1.4436
 4542TIP3   OH235184   1.969   3.223   0.146  0.2484 -0.6668  0.3469
 4542TIP3    H135185   1.964   3.127   0.144  1.0138 -0.7081 -0.0371
 4542TIP3    H235186   1.986   3.248   0.055  1.7406 -0.2921  0.7018
 4543TIP3   OH235187   2.752   2.660   1.828 -0.2724 -0.2820 -1.0366
 4543TIP3    H135188   2.667   2.681   1.867  0.2991  1.5773 -0.6927
 4543TIP3    H235189   2.794   2.602   1.893 -1.1124 -0.9193 -1.0435
 4544TIP3   OH235190   5.703   2.621   1.014 -0.4873  0.7186  0.3875
 4544TIP3    H135191   5.679   2.704   1.055 -0.4374  0.2212  1.4726
 4544TIP3    H235192   5.621   2.586   0.981 -0.3306  1.7870 -1.2819
 4545TIP3   OH235193   5.504   4.051   8.537  0.0917  0.0161  0.0780
 4545TIP3    H135194   5.593   4.015   8.531 -0.1361 -0.7792  1.1564
 4545TIP3    H235195   5.515   4.135   8.580  0.3105 -0.1314  0.3125
 4546TIP3   OH235196   0.753   1.783   0.542 -0.0159 -0.0069  0.4365
 4546TIP3    H135197   0.684   1.774   0.608  0.3064  2.4446  1.2099
 4546TIP3    H235198   0.713   1.750   0.462 -2.6680  2.4693  0.5540
 4547TIP3   OH235199   6.471   1.252   2.222 -0.6218 -0.0834 -0.1100
 4547TIP3    H135200   6.476   1.293   2.136  0.3179 -0.2655 -0.1453
 4547TIP3    H235201   6.410   1.179   2.210  0.3675 -0.8009 -0.9145
 4548TIP3   OH235202   0.954   4.568   2.684 -0.4326  0.2628 -0.2496
 4548TIP3    H135203   0.902   4.578   2.764  1.1785  0.2822  0.8407
 4548TIP3    H235204   0.998   4.483   2.695  0.5547  0.7047 -0.6398
 4549TIP3   OH235205   6.115   0.729   2.672  0.3283  0.4951  0.0867
 4549TIP3    H135206   6.067   0.684   2.602  1.6215 -1.3313  0.3109
 4549TIP3    H235207   6.056   0.725   2.747  0.0521 -0.0468 -0.1477
 4550TIP3   OH235208   2.670   6.629   0.328 -0.5669  0.0440 -0.0115
 4550TIP3    H135209   2.630   6.544   0.347  0.4446 -0.6709 -0.9393
 4550TIP3    H235210   2.762   6.618   0.352 -0.4899  0.9642  0.1244
 4551TIP3   OH235211   0.308   6.849   0.929 -0.1054  0.4582 -0.5662
 4551TIP3    H135212   0.287   6.848   1.022  3.1197 -0.9319  0.2567
 4551TIP3    H235213   0.334   6.939   0.911 -1.4875  0.9267 -0.3875
 4552TIP3   OH235214   0.597   5.084   1.880 -0.3111  0.5790  0.1005
 4552TIP3    H135215   0.570   5.172   1.853  0.5466  0.8491  0.0960
 4552TIP3    H235216   0.612   5.037   1.798  1.5354  1.1632  0.0625
 4553TIP3   OH235217   6.712   2.652   3.188  0.9435  0.0691 -0.4526
 4553TIP3    H135218   6.646   2.610   3.134  0.8238 -0.1724 -0.1242
 4553TIP3    H235219   6.730   2.736   3.145 -0.0939  0.4562 -0.1571
 4554TIP3   OH235220   0.152   1.131   8.622  0.0601  0.3079 -0.2541
 4554TIP3    H135221   0.091   1.059   8.611 -0.0593  0.5651 -1.4744
 4554TIP3    H235222   0.116   1.183   8.694 -0.5303 -0.1578 -0.2053
 4555TIP3   OH235223   0.172   2.485   1.199  0.6282 -0.0340  0.2989
 4555TIP3    H135224   0.168   2.568   1.152  1.8423  0.3410  0.8161
 4555TIP3    H235225   0.264   2.475   1.223  0.1782 -0.5526  1.9652
 4556TIP3   OH235226   2.199   0.489   0.013 -0.0122 -0.2664  0.4242
 4556TIP3    H135227   2.189   0.584   0.003  1.5326  0.0780  1.7291
 4556TIP3    H235228   2.281   0.469  -0.032  0.8422 -0.5875  2.0589
 4557TIP3   OH235229   2.454   5.031   1.069  0.3627 -0.2437 -0.9170
 4557TIP3    H135230   2.508   4.982   1.131  0.1409  0.9067  0.2162
 4557TIP3    H235231   2.374   5.051   1.117 -0.1339  0.0228 -1.8302
 4558TIP3   OH235232   3.599   0.952   1.272  0.3586  0.2715  0.1815
 4558TIP3    H135233   3.670   0.913   1.323 -0.2957  1.5963  2.2271
 4558TIP3    H235234   3.643   1.000   1.202  1.5083  1.0503  1.3938
 4559TIP3   OH235235   1.900   5.555   1.124 -0.2856 -1.0060 -0.3917
 4559TIP3    H135236   1.929   5.647   1.123 -0.2319 -1.0253 -0.8914
 4559TIP3    H235237   1.929   5.520   1.040 -4.4104 -0.1858 -2.4264
 4560TIP3   OH235238   3.942   1.911   1.790  0.3663  0.1940  0.7450
 4560TIP3    H135239   3.997   1.869   1.856  0.4745  0.7706  1.0269
 4560TIP3    H235240   3.996   1.913   1.711  0.0046 -1.0809  0.4485
 4561TIP3   OH235241   4.603   2.301   0.404  0.1483  0.6857  0.1151
 4561TIP3    H135242   4.591   2.395   0.391  1.2175  0.8289  0.0440
 4561TIP3    H235243   4.527   2.273   0.455  1.1589  2.1162  2.5604
 4562TIP3   OH235244   3.804   5.781   3.216 -0.2177  0.0484 -0.4499
 4562TIP3    H135245   3.741   5.711   3.236 -1.0837  0.6168 -1.1117
 4562TIP3    H235246   3.829   5.816   3.301  0.2334 -1.0590 -0.1079
 4563TIP3   OH235247   5.523   6.292   8.454  0.3848  0.0399 -0.3211
 4563TIP3    H135248   5.463   6.344   8.401  0.9027  0.3147 -0.6404
 4563TIP3    H235249   5.567   6.234   8.392 -0.5913 -1.1924  0.1031
 4564TIP3   OH235250   2.303   6.657   1.952  0.3672 -0.7933  0.0380
 4564TIP3    H135251   2.349   6.590   2.002 -1.7570 -0.9716  1.9233
 4564TIP3    H235252   2.244   6.609   1.895 -1.4717 -0.6415  1.6982
 4565TIP3   OH235253   6.641   1.973   7.446 -0.6461 -0.2228 -0.0318
 4565TIP3    H135254   6.656   1.988   7.353 -0.3838  1.0189  0.1946
 4565TIP3    H235255   6.663   1.881   7.459 -0.6785 -0.4094 -1.1922
 4566TIP3   OH235256   3.190   3.630   1.184 -0.3925 -0.1837 -0.1965
 4566TIP3    H135257   3.251   3.606   1.115 -0.9985 -3.1898  0.1917
 4566TIP3    H235258   3.245   3.663   1.255  0.5977 -0.7497 -0.6857
 4567TIP3   OH235259   1.592   2.481   0.719 -0.0930 -0.1548 -0.3472
 4567TIP3    H135260   1.582   2.391   0.748  0.2837 -0.0244  0.2001
 4567TIP3    H235261   1.574   2.534   0.797  0.9376  0.1991 -0.3326
 4568TIP3   OH235262   1.363   0.089   0.354  0.2497 -0.1573  0.0438
 4568TIP3    H135263   1.362   0.183   0.334 -0.1214 -0.1110  0.2612
 4568TIP3    H235264   1.282   0.056   0.314  0.9206 -0.5976 -1.0053
 4569TIP3   OH235265   0.060   1.998   3.187  0.3401 -0.2309  0.1756
 4569TIP3    H135266   0.140   1.946   3.193  0.7199  0.0840 -1.5738
 4569TIP3    H235267   0.091   2.089   3.177 -0.2476 -0.0140  0.2811
 4570TIP3   OH235268   2.583   0.719   1.442 -0.3179  0.6049  0.2782
 4570TIP3    H135269   2.650   0.659   1.408 -0.2080  0.4141  0.8321
 4570TIP3    H235270   2.543   0.757   1.363 -0.0768  0.1482 -0.0676
 4571TIP3   OH235271   0.226   3.535   1.219  0.4269  0.4827  0.6110
 4571TIP3    H135272   0.249   3.521   1.311  1.7620  0.6331  0.3239
 4571TIP3    H235273   0.190   3.624   1.217  1.1445  0.7895  0.8754
 4572TIP3   OH235274   0.692   0.910   2.901 -0.4419  0.0445 -0.1952
 4572TIP3    H135275   0.707   1.003   2.886 -0.2456 -0.1821 -1.6353
 4572TIP3    H235276   0.748   0.888   2.975 -0.7435  1.1375  0.3660
 4573TIP3   OH235277   4.177   4.680   8.582 -0.2322 -0.2606 -0.2347
 4573TIP3    H135278   4.149   4.659   8.493 -0.2232 -1.0692 -0.0549
 4573TIP3    H235279   4.096   4.688   8.632 -0.2217 -0.2808 -0.2147
 4574TIP3   OH235280   0.307   3.927   3.450  0.4645  0.1078 -0.1807
 4574TIP3    H135281   0.217   3.899   3.461 -0.0897  1.2566 -1.4005
 4574TIP3    H235282   0.359   3.850   3.469 -0.5762  0.0747  3.1454
 4575TIP3   OH235283   2.208   0.815   2.404  0.5108  0.3910  0.0419
 4575TIP3    H135284   2.298   0.785   2.396  0.5792 -0.3795  2.7030
 4575TIP3    H235285   2.172   0.763   2.476 -2.2906  0.1902 -1.3691
 4576TIP3   OH235286   2.939   1.323   2.979  0.2571  0.0109  0.7633
 4576TIP3    H135287   2.942   1.227   2.973 -0.2635  0.0164  0.3700
 4576TIP3    H235288   2.899   1.351   2.897  2.2739  0.6988 -0.0492
 4577TIP3   OH235289   3.317   2.752   8.326  0.1378 -0.1995 -0.4046
 4577TIP3    H135290   3.232   2.758   8.369  0.7879  1.0736  0.7967
 4577TIP3    H235291   3.374   2.708   8.389  0.8978  0.9403 -0.2453
 4578TIP3   OH235292   2.560   5.492   1.272  0.1398  0.2827  0.3196
 4578TIP3    H135293   2.496   5.438   1.318  0.7271 -0.0712  0.7474
 4578TIP3    H235294   2.643   5.444   1.283  0.3011  0.1999 -1.0860
 4579TIP3   OH235295   6.050   2.695   0.410  0.3620  0.0855 -0.1679
 4579TIP3    H135296   6.142   2.714   0.425  0.3954 -0.5850  0.5382
 4579TIP3    H235297   6.006   2.728   0.489 -0.1171  1.1155 -0.8325
 4580TIP3   OH235298   0.081   0.056   7.445  0.0772  0.1194  0.7723
 4580TIP3    H135299   0.005   0.098   7.485 -1.8168 -0.1304 -2.2827
 4580TIP3    H235300   0.136   0.128   7.415  0.0977  0.3037  1.2315
 4581TIP3   OH235301   3.445   5.004   2.057  0.0645 -0.0197 -0.1733
 4581TIP3    H135302   3.523   5.023   2.109 -0.4963  0.5417  0.4909
 4581TIP3    H235303   3.432   5.081   2.003 -1.3704  0.9553  1.4547
 4582TIP3   OH235304   6.295   3.926   2.821 -0.2621 -0.1131  0.4577
 4582TIP3    H135305   6.287   3.979   2.900  0.1961  0.7092 -0.0264
 4582TIP3    H235306   6.362   3.861   2.843  0.1581  0.3632  0.6231
 4583TIP3   OH235307   6.173   0.077   2.175  0.4103 -0.3294  0.0748
 4583TIP3    H135308   6.244   0.122   2.129  0.7336  1.4754  2.1548
 4583TIP3    H235309   6.215   0.039   2.253 -0.8277  0.7014  1.2997
 4584TIP3   OH235310   6.409   4.275   3.259  0.1925  0.0834 -0.2828
 4584TIP3    H135311   6.441   4.194   3.300  0.8196  0.4290 -0.0879
 4584TIP3    H235312   6.380   4.329   3.332 -0.8322 -0.2139 -0.4557
 4585TIP3   OH235313   3.462   0.092   2.679 -0.3628 -0.1544 -0.4642
 4585TIP3    H135314   3.470   0.117   2.771  1.4767  0.6071 -0.7682
 4585TIP3    H235315   3.506   0.008   2.673 -0.4421 -0.1835 -0.6524
 4586TIP3   OH235316   6.399   5.518   0.615  0.1853 -0.1297  0.6552
 4586TIP3    H135317   6.440   5.465   0.684  1.7155  0.3888  0.1776
 4586TIP3    H235318   6.438   5.486   0.534  1.4010  1.9115  0.3811
 4587TIP3   OH235319   4.143   4.309   8.120 -0.6136  0.1809 -0.2064
 4587TIP3    H135320   4.143   4.214   8.128  1.0361  0.2782  1.7830
 4587TIP3    H235321   4.149   4.341   8.210 -1.0121  2.1853 -0.8359
 4588TIP3   OH235322   0.508   5.884   1.372  0.2077  0.1975 -0.1696
 4588TIP3    H135323   0.556   5.813   1.329  1.0239 -0.4312  1.6919
 4588TIP3    H235324   0.454   5.840   1.437 -0.6423  1.1698 -0.1927
 4589TIP3   OH235325   3.616   4.872   0.518  0.0509  0.3917 -0.3014
 4589TIP3    H135326   3.621   4.782   0.550 -0.1442  0.7902  0.8868
 4589TIP3    H235327   3.705   4.905   0.523 -0.2323  0.9694  1.4200
 4590TIP3   OH235328   4.502   2.524   0.958 -0.1069 -0.0981  0.5329
 4590TIP3    H135329   4.535   2.486   0.877 -1.6324 -0.0166 -0.1670
 4590TIP3    H235330   4.577   2.569   0.996  1.1439 -1.8018  0.1940
 4591TIP3   OH235331   0.086   5.814   0.671  0.2463  0.0152  0.4756
 4591TIP3    H135332   0.026   5.741   0.660 -0.8284  0.6814  1.6335
 4591TIP3    H235333   0.102   5.817   0.766 -0.2126  1.6404  0.5271
 4592TIP3   OH235334   2.037   1.113   8.549 -0.1577 -0.0154  0.2635
 4592TIP3    H135335   1.948   1.099   8.580 -0.6506 -1.1051 -1.4830
 4592TIP3    H235336   2.043   1.061   8.469  1.7738  0.7450 -0.1474
 4593TIP3   OH235337   4.309   2.872   0.325  0.0135 -0.0047 -0.5077
 4593TIP3    H135338   4.307   2.920   0.242 -0.9705  1.7060  0.4529
 4593TIP3    H235339   4.217   2.856   0.346  0.2750 -0.8701  0.0186
 4594TIP3   OH235340   2.511   6.488   2.987  0.1170  0.0568  0.5029
 4594TIP3    H135341   2.473   6.568   3.024 -1.4123 -0.2789 -0.2556
 4594TIP3    H235342   2.436   6.435   2.963  0.9818  0.0477 -2.6115
 4595TIP3   OH235343   3.127   4.311   0.219  0.0841  0.3446  0.0345
 4595TIP3    H135344   3.125   4.406   0.232 -1.8918  0.3495 -0.0581
 4595TIP3    H235345   3.139   4.301   0.125  1.8945  0.4394  0.2115
 4596TIP3   OH235346   0.979   3.182   1.522  0.1884  0.1009  0.6100
 4596TIP3    H135347   0.957   3.089   1.522 -0.0199  0.1204 -0.9178
 4596TIP3    H235348   0.917   3.221   1.459 -0.5224  1.4781  2.0905
 4597TIP3   OH235349   0.732   6.691   0.091 -0.3479  0.6324  0.3557
 4597TIP3    H135350   0.816   6.660   0.059 -0.3767  0.9814 -0.0579
 4597TIP3    H235351   0.754   6.755   0.159 -0.2854 -0.7103  1.6561
 4598TIP3   OH235352   4.388   4.630   0.093 -0.3605  0.2480 -0.5500
 4598TIP3    H135353   4.348   4.563   0.149  0.3406  1.3236  1.3206
 4598TIP3    H235354   4.322   4.646   0.025 -0.0920 -3.1170 -1.8108
 4599TIP3   OH235355   2.716   0.003   0.748 -0.0019 -0.4089  0.0962
 4599TIP3    H135356   2.742  -0.002   0.840 -0.2069 -0.7120  0.1377
 4599TIP3    H235357   2.646   0.069   0.747 -0.7451 -1.1666  0.3340
 4600TIP3   OH235358   3.946   2.942   0.112 -0.0330  0.0595 -0.1900
 4600TIP3    H135359   4.012   2.977   0.052 -1.5057 -0.5050 -2.2590
 4600TIP3    H235360   3.935   3.009   0.179  3.0799 -0.1219  0.6564
 4601TIP3   OH235361   1.027   6.660   2.201 -0.1267  0.8134 -0.1348
 4601TIP3    H135362   1.046   6.754   2.202 -1.4093  1.1408 -1.6119
 4601TIP3    H235363   1.085   6.625   2.133 -0.2930  0.7036 -0.2211
 4602TIP3   OH235364   1.754   1.472   8.235 -0.0375  0.3393  0.0656
 4602TIP3    H135365   1.776   1.494   8.326  0.0328  0.7862 -0.0587
 4602TIP3    H235366   1.747   1.377   8.235 -0.1124  0.3396  0.5597
 4603TIP3   OH235367   2.098   5.754   2.586 -0.0736  0.4458 -0.1446
 4603TIP3    H135368   2.067   5.843   2.604 -0.1865  0.8489 -2.1119
 4603TIP3    H235369   2.033   5.718   2.525  0.0916 -0.9272  0.4452
 4604TIP3   OH235370   3.655   1.623   3.622 -0.4247  0.1898 -0.0840
 4604TIP3    H135371   3.652   1.592   3.531 -0.0747 -0.2726  0.0581
 4604TIP3    H235372   3.740   1.593   3.655 -0.7186  0.0064  0.5219
 4605TIP3   OH235373   2.828   0.305   0.606  0.0076  0.0410  0.2458
 4605TIP3    H135374   2.745   0.286   0.562  0.5486 -0.2849 -0.6574
 4605TIP3    H235375   2.878   0.224   0.599  1.3818  0.9847 -1.4615
 4606TIP3   OH235376   4.863   3.702   3.710 -0.0196  0.1016 -0.2502
 4606TIP3    H135377   4.891   3.624   3.757 -1.2338 -0.4315 -0.3827
 4606TIP3    H235378   4.878   3.774   3.771 -1.3353 -0.5496  0.8997
 4607TIP3   OH235379   5.915   2.654   3.800 -0.0857  0.1287 -0.4790
 4607TIP3    H135380   5.980   2.615   3.858  0.6084  0.1099 -1.2498
 4607TIP3    H235381   5.836   2.602   3.815 -0.2651  0.8347  1.2592
 4608TIP3   OH235382   2.855   6.407   2.695  0.1172  0.0434  0.7598
 4608TIP3    H135383   2.844   6.390   2.788  1.2171  0.1709  0.9335
 4608TIP3    H235384   2.945   6.381   2.676  0.0759  0.5008 -0.1527
 4609TIP3   OH235385   0.928   0.995   2.639  0.5783  0.6727  0.4824
 4609TIP3    H135386   0.841   1.001   2.600  0.4975  2.8739  0.8574
 4609TIP3    H235387   0.985   0.971   2.567 -0.2176  0.0312  0.0533
 4610TIP3   OH235388   0.999   4.756   8.490 -0.1976  0.4724 -0.2714
 4610TIP3    H135389   1.076   4.788   8.444 -0.9099  1.8797 -0.5282
 4610TIP3    H235390   0.983   4.669   8.454  0.7259  0.5444 -0.8638
 4611TIP3   OH235391   0.141   0.860   7.493 -0.3031 -0.2355  0.1924
 4611TIP3    H135392   0.225   0.874   7.450 -0.4887 -2.0435 -0.8645
 4611TIP3    H235393   0.164   0.849   7.586  0.4575  0.6425  0.1232
 4612TIP3   OH235394   0.812   6.596   1.891 -0.3871  0.4000  0.1521
 4612TIP3    H135395   0.820   6.502   1.907  0.5887 -0.0268 -2.3416
 4612TIP3    H235396   0.807   6.635   1.978 -1.7107 -1.9926  1.2551
 4613TIP3   OH235397   1.683   4.012   0.639  0.3784  0.0007 -0.0489
 4613TIP3    H135398   1.704   4.069   0.714  0.8870 -0.7285  0.3754
 4613TIP3    H235399   1.647   4.072   0.573 -1.3324  0.4770  1.2504
 4614TIP3   OH235400   6.737   3.885   1.715  0.4931  0.1186  0.6540
 4614TIP3    H135401   6.733   3.823   1.787 -2.8874 -0.0247  0.5069
 4614TIP3    H235402   6.752   3.970   1.757 -0.6561 -0.0676  1.4789
 4615TIP3   OH235403   0.279   2.670   0.933 -0.2596 -0.1746  0.2727
 4615TIP3    H135404   0.208   2.712   0.981 -0.5466 -1.0715  0.6564
 4615TIP3    H235405   0.246   2.662   0.843 -1.2525 -1.8831  0.7488
 4616TIP3   OH235406   2.250   4.665   3.024 -0.5985  0.5021 -0.3663
 4616TIP3    H135407   2.261   4.653   3.119 -0.1285  0.0834 -0.4693
 4616TIP3    H235408   2.336   4.694   2.993 -0.7930  0.7886 -0.6430
 4617TIP3   OH235409   4.873   3.059   3.558  0.5760 -0.0964  0.0877
 4617TIP3    H135410   4.947   3.000   3.546  0.3579 -0.5133  0.7603
 4617TIP3    H235411   4.825   3.055   3.475 -0.3661 -2.1632  0.6724
 4618TIP3   OH235412   4.607   2.760   8.464  0.2714  0.2257  0.1911
 4618TIP3    H135413   4.649   2.825   8.408 -0.0221  0.6782  0.4894
 4618TIP3    H235414   4.570   2.696   8.403  0.4182  0.4268 -0.1130
 4619TIP3   OH235415   5.500   6.762   2.416  0.3600  0.5451 -0.1259
 4619TIP3    H135416   5.409   6.732   2.426  0.6441  0.3842  3.3679
 4619TIP3    H235417   5.537   6.706   2.348 -2.0332  0.3798 -1.3758
 4620TIP3   OH235418   1.762   3.978   1.818  0.1229  0.3008  0.0928
 4620TIP3    H135419   1.727   3.937   1.897 -0.0894 -0.7262 -0.5065
 4620TIP3    H235420   1.851   4.003   1.841 -0.6777  2.1824  1.3779
 4621TIP3   OH235421   0.386   1.043   2.940  0.1104 -0.0159 -0.6702
 4621TIP3    H135422   0.476   1.031   2.910  0.7706 -0.9978  1.5021
 4621TIP3    H235423   0.394   1.080   3.028 -1.7318  4.0759 -1.9801
 4622TIP3   OH235424   6.727   0.581   1.564  0.1813 -0.1078  0.7498
 4622TIP3    H135425   6.728   0.664   1.613 -0.2305 -0.2415  0.9873
 4622TIP3    H235426   6.644   0.582   1.516  0.6320  0.0719 -0.0433
 4623TIP3   OH235427   1.370   3.097   1.266  0.3703 -0.1697 -0.3903
 4623TIP3    H135428   1.444   3.154   1.247  0.7944 -0.5700  0.0030
 4623TIP3    H235429   1.293   3.147   1.241  0.6480  1.0593  1.0355
 4624TIP3   OH235430   5.994   5.323   3.173 -0.1810  0.0179 -0.4272
 4624TIP3    H135431   6.078   5.349   3.211  0.7473 -1.3564 -1.4292
 4624TIP3    H235432   5.967   5.247   3.225  0.6581 -1.3202 -1.8629
 4625TIP3   OH235433   3.486   4.837   1.805  0.3487  0.2008  0.2488
 4625TIP3    H135434   3.442   4.754   1.821  1.8986 -0.2306  2.6347
 4625TIP3    H235435   3.427   4.903   1.842  0.5330 -0.1386  1.1575
 4626TIP3   OH235436   1.733   0.749   3.562  0.9829 -0.0442  0.3707
 4626TIP3    H135437   1.679   0.812   3.609  0.0809  0.5920 -1.4373
 4626TIP3    H235438   1.821   0.785   3.566  0.4423  1.5217 -0.8516
 4627TIP3   OH235439   0.272   2.089   1.265  0.1611 -0.4148  0.3327
 4627TIP3    H135440   0.227   2.125   1.342  0.3062  2.5609 -0.8357
 4627TIP3    H235441   0.202   2.052   1.212  0.1529 -3.3998  2.1993
 4628TIP3   OH235442   2.862   2.718   7.424 -0.2969  0.0754  0.1978
 4628TIP3    H135443   2.768   2.734   7.420 -0.4465 -0.6952 -4.0792
 4628TIP3    H235444   2.899   2.797   7.462 -2.5484  1.1695  0.2474
 4629TIP3   OH235445   2.954   1.784   8.429  0.4864  0.1322  0.1619
 4629TIP3    H135446   3.001   1.796   8.346 -1.5703  1.3938 -0.9100
 4629TIP3    H235447   2.960   1.690   8.447  1.0558 -0.1577 -1.3924
 4630TIP3   OH235448   5.985   4.420   0.867 -0.2258 -0.5798  0.0145
 4630TIP3    H135449   5.953   4.429   0.778  0.0947  0.2069 -0.0284
 4630TIP3    H235450   5.979   4.327   0.886 -1.8710 -0.5461 -0.2411
 4631TIP3   OH235451   0.103   6.041   1.880  0.6019 -0.2967 -0.0210
 4631TIP3    H135452   0.116   6.061   1.788  0.1688 -2.2318 -0.5452
 4631TIP3    H235453   0.019   5.996   1.884  1.1356 -1.2566  1.1506
 4632TIP3   OH235454   4.652   2.296   1.637  0.2222 -0.0013  0.2378
 4632TIP3    H135455   4.563   2.298   1.671 -0.3589  0.0041 -1.2234
 4632TIP3    H235456   4.661   2.208   1.599 -0.4446  1.1811 -2.8487
 4633TIP3   OH235457   2.470   0.805   2.344 -0.2843 -0.2717 -0.0397
 4633TIP3    H135458   2.540   0.856   2.385 -1.5069  0.9989  0.5687
 4633TIP3    H235459   2.510   0.765   2.267  0.9293  1.0242 -0.1145
 4634TIP3   OH235460   4.500   4.639   8.068 -0.2137 -0.2416 -0.7989
 4634TIP3    H135461   4.511   4.732   8.047 -2.3851  0.1686 -0.3201
 4634TIP3    H235462   4.570   4.620   8.130 -0.4545  1.4006  0.0245
 4635TIP3   OH235463   3.711   1.473   1.935 -0.4969 -0.3449 -0.4309
 4635TIP3    H135464   3.649   1.415   1.979 -0.1064  0.3129  1.0443
 4635TIP3    H235465   3.656   1.529   1.880 -1.2340  0.1264  0.7403
 4636TIP3   OH235466   1.590   4.919   0.862 -0.6163  0.3979 -0.4952
 4636TIP3    H135467   1.644   4.860   0.914 -2.2430 -1.5409 -0.8766
 4636TIP3    H235468   1.653   4.965   0.805  0.6432 -2.0729 -1.2442
 4637TIP3   OH235469   3.163   6.396   8.432 -0.1766 -0.1502 -0.4219
 4637TIP3    H135470   3.148   6.483   8.468 -0.6098 -1.2552  2.3018
 4637TIP3    H235471   3.257   6.395   8.410  0.4025  0.2447  1.8519
 4638TIP3   OH235472   3.367   2.223   3.799  0.4081  0.0303  0.3802
 4638TIP3    H135473   3.390   2.272   3.720  0.9344 -1.0174 -0.1433
 4638TIP3    H235474   3.439   2.161   3.810 -0.0714 -0.3920  1.2142
 4639TIP3   OH235475   5.923   0.629   2.469  0.0703 -0.3374  0.0748
 4639TIP3    H135476   5.865   0.625   2.544  0.5418 -0.1842  0.4535
 4639TIP3    H235477   5.928   0.539   2.437 -0.3752 -0.3497  0.0342
 4640TIP3   OH235478   0.655   1.719   0.284  0.1747 -0.0626  0.6490
 4640TIP3    H135479   0.665   1.671   0.202 -1.9140 -0.6455  0.6664
 4640TIP3    H235480   0.564   1.703   0.310  0.0857  2.0155  1.8744
 4641TIP3   OH235481   1.410   1.333   1.792  0.0621  0.2034 -0.5123
 4641TIP3    H135482   1.478   1.336   1.859 -1.8622 -2.3616  1.7939
 4641TIP3    H235483   1.421   1.247   1.751 -1.5504 -0.1266 -0.3086
 4642TIP3   OH235484   2.175   4.869   0.278  0.1125 -0.1633  0.2680
 4642TIP3    H135485   2.180   4.904   0.189  0.3387 -1.0015 -0.0598
 4642TIP3    H235486   2.227   4.789   0.275 -1.1750 -1.0514  0.7395
 4643TIP3   OH235487   1.176   2.011   3.265  0.8569 -0.2683  0.8293
 4643TIP3    H135488   1.229   2.090   3.262 -1.0010  1.0305  0.0140
 4643TIP3    H235489   1.093   2.039   3.303  0.4817 -2.0597  1.4276
 4644TIP3   OH235490   3.025   0.611   0.877 -0.1000 -1.0572 -0.2914
 4644TIP3    H135491   3.012   0.531   0.928 -1.2033 -0.1144  0.9753
 4644TIP3    H235492   3.098   0.655   0.919 -1.8860  0.4075  1.4934
 4645TIP3   OH235493   5.620   5.747   1.395 -0.0442  0.2338  0.5006
 4645TIP3    H135494   5.556   5.787   1.336 -1.5591  0.6314  2.3201
 4645TIP3    H235495   5.694   5.808   1.394 -0.6290  0.9657  0.0830
 4646TIP3   OH235496   1.952   4.632   0.451  0.1126  0.3136 -0.4541
 4646TIP3    H135497   1.939   4.655   0.359  0.0942  0.6660 -0.3620
 4646TIP3    H235498   1.903   4.698   0.500  0.0399  0.0692 -0.1911
 4647TIP3   OH235499   3.249   1.065   0.418 -0.0165 -0.6244  0.5460
 4647TIP3    H135500   3.190   0.992   0.431 -1.0431 -0.0039 -0.4670
 4647TIP3    H235501   3.202   1.141   0.454 -0.2495  0.0321 -1.0771
 4648TIP3   OH235502   4.704   4.618   8.243 -0.1999  0.2624 -0.3919
 4648TIP3    H135503   4.773   4.558   8.215 -1.7643 -1.1990 -1.3144
 4648TIP3    H235504   4.646   4.564   8.297 -0.5424  1.5079  0.5371
 4649TIP3   OH235505   2.943   5.287   8.445 -0.5423 -0.2006  0.6807
 4649TIP3    H135506   3.013   5.306   8.383 -1.9790 -0.4483 -1.0910
 4649TIP3    H235507   2.927   5.371   8.489 -0.3087  0.2918 -0.1556
 4650TIP3   OH235508   2.868   1.401   2.723 -0.4156 -0.6752  0.0622
 4650TIP3    H135509   2.809   1.366   2.657  0.6569 -1.8944 -0.2956
 4650TIP3    H235510   2.931   1.454   2.673 -1.5204  1.1639  0.5084
 4651TIP3   OH235511   3.933   2.684   3.434 -0.0193  0.1648 -0.0542
 4651TIP3    H135512   3.902   2.773   3.453 -0.2794 -0.2305  1.4948
 4651TIP3    H235513   4.010   2.697   3.379 -0.3110  1.3330 -0.2072
 4652TIP3   OH235514   4.814   1.900   2.488 -0.0988  0.3522 -0.2399
 4652TIP3    H135515   4.797   1.923   2.397  0.3171 -1.2152 -0.7414
 4652TIP3    H235516   4.763   1.821   2.503  0.0976  0.4012  0.8028
 4653TIP3   OH235517   5.889   0.953   0.490 -0.2069 -0.4479  0.0004
 4653TIP3    H135518   5.886   0.873   0.437 -0.4538 -0.1990 -0.3689
 4653TIP3    H235519   5.844   1.018   0.436 -1.1232 -0.3731  0.8387
 4654TIP3   OH235520   3.497   1.730   1.042 -0.1375 -0.7754  0.0497
 4654TIP3    H135521   3.536   1.727   1.129 -1.3774  0.5431  0.7024
 4654TIP3    H235522   3.433   1.659   1.041 -0.7849 -0.2126  0.5790
 4655TIP3   OH235523   2.027   6.511   1.273  0.3181  0.6233  0.2194
 4655TIP3    H135524   2.078   6.507   1.354  0.2914  1.3599  0.2801
 4655TIP3    H235525   2.023   6.604   1.251  0.2585  0.4439 -0.5897
 4656TIP3   OH235526   6.830   5.129   0.456  0.2401 -0.1569  0.2022
 4656TIP3    H135527   6.748   5.175   0.440  0.1318 -0.5796 -0.5104
 4656TIP3    H235528   6.859   5.099   0.370  0.0489 -1.8335  0.6713
 4657TIP3   OH235529   2.851   5.493   8.596 -0.4692  0.2013 -0.2025
 4657TIP3    H135530   2.916   5.458   8.656 -1.3060 -1.7434 -0.3606
 4657TIP3    H235531   2.850   5.587   8.614  0.8442 -0.0212  1.2723
 4658TIP3   OH235532   6.269   4.362   3.483  0.0663 -0.0756 -0.3684
 4658TIP3    H135533   6.252   4.287   3.541  2.6335 -0.7598 -0.3507
 4658TIP3    H235534   6.198   4.423   3.501 -0.1269 -0.9593  2.3355
 4659TIP3   OH235535   2.846   2.393   2.015  0.0075 -0.4797 -0.2799
 4659TIP3    H135536   2.871   2.327   2.079  1.9767 -1.3841 -1.8945
 4659TIP3    H235537   2.765   2.359   1.976 -0.2689 -0.7548  0.5171
 4660TIP3   OH235538   2.134   3.386   2.124  0.1374  0.1351 -0.0795
 4660TIP3    H135539   2.186   3.391   2.043  0.7559  1.5601  0.3608
 4660TIP3    H235540   2.199   3.375   2.193 -0.4357 -1.8080  0.1962
 4661TIP3   OH235541   1.133   5.014   7.794  0.5057 -0.6761 -0.1343
 4661TIP3    H135542   1.066   5.081   7.804 -1.0537 -2.3044  0.9197
 4661TIP3    H235543   1.151   5.012   7.700 -1.1659 -0.4007 -0.4924
 4662TIP3   OH235544   1.736   0.321   1.667 -0.3821 -0.5917  0.3589
 4662TIP3    H135545   1.689   0.301   1.747 -1.9342  0.3241 -0.2899
 4662TIP3    H235546   1.775   0.407   1.682  0.0038 -0.7759  0.4203
 4663TIP3   OH235547   5.399   1.474   1.071 -0.0994  0.2597  0.2534
 4663TIP3    H135548   5.390   1.379   1.081 -0.0086  0.2475  0.2150
 4663TIP3    H235549   5.472   1.497   1.127 -0.3625  0.3601  0.5561
 4664TIP3   OH235550   0.389   4.846   0.665  0.1482 -0.3074  0.2987
 4664TIP3    H135551   0.351   4.761   0.688 -2.0245  0.0549 -1.5536
 4664TIP3    H235552   0.479   4.826   0.639 -0.1055 -1.9493  0.5805
 4665TIP3   OH235553   4.006   4.689   2.440 -0.4358  0.1826  0.6011
 4665TIP3    H135554   3.968   4.689   2.528 -2.7562 -1.6390 -0.2826
 4665TIP3    H235555   4.002   4.597   2.412 -0.5568  0.8165 -1.6931
 4666TIP3   OH235556   2.885   0.176   3.611 -0.0427 -0.5217  0.4004
 4666TIP3    H135557   2.845   0.111   3.668  0.0284 -0.5526  0.4159
 4666TIP3    H235558   2.940   0.125   3.551 -0.8832 -0.5745 -0.3439
 4667TIP3   OH235559   2.407   2.198   8.340 -0.1314 -0.1676  0.1266
 4667TIP3    H135560   2.453   2.143   8.403 -0.0214  0.4571  0.6034
 4667TIP3    H235561   2.332   2.145   8.312 -0.0236 -0.5625  0.5688
 4668TIP3   OH235562   4.516   2.865   2.940 -0.5019  0.0808 -0.0285
 4668TIP3    H135563   4.443   2.809   2.967 -0.5990  0.4736  0.5504
 4668TIP3    H235564   4.494   2.951   2.976 -0.1189  0.3791 -0.4948
 4669TIP3   OH235565   1.060   1.234   2.339  0.3163  0.4873  0.1077
 4669TIP3    H135566   1.133   1.173   2.340  0.6921  0.9153 -0.3560
 4669TIP3    H235567   1.089   1.307   2.394 -0.3681  0.0018  1.1610
 4670TIP3   OH235568   3.024   6.249   0.452  0.2690  0.0053  0.1786
 4670TIP3    H135569   2.969   6.253   0.374 -2.4807 -0.9257  1.9190
 4670TIP3    H235570   3.010   6.161   0.487  1.7294  0.2659  1.5337
 4671TIP3   OH235571   4.794   2.059   0.090  0.8466 -0.2122  0.2189
 4671TIP3    H135572   4.828   1.974   0.118 -0.3677 -1.1915 -1.1137
 4671TIP3    H235573   4.851   2.085   0.017 -0.2017 -1.0764 -0.9509
 4672TIP3   OH235574   1.911   4.937   2.682 -0.5115 -0.9169  0.8465
 4672TIP3    H135575   1.884   5.009   2.625  2.0674  0.1253  0.8106
 4672TIP3    H235576   1.839   4.926   2.743 -1.5215  0.8096  0.0362
 4673TIP3   OH235577   1.674   2.598   3.713 -0.0185  0.2423  0.5367
 4673TIP3    H135578   1.684   2.519   3.660 -1.4799  0.6684 -0.4205
 4673TIP3    H235579   1.581   2.599   3.738 -0.0678  1.7193  0.4044
 4674TIP3   OH235580   3.713   4.778   8.155  0.5006 -0.0218  0.1174
 4674TIP3    H135581   3.804   4.770   8.126  0.5310  2.6237 -0.7802
 4674TIP3    H235582   3.664   4.798   8.076 -0.4163  1.2969  0.9809
 4675TIP3   OH235583   2.795   2.696   3.509  0.2540  0.2333  0.0964
 4675TIP3    H135584   2.857   2.630   3.478 -0.0461 -0.2449  0.4942
 4675TIP3    H235585   2.850   2.767   3.543  0.5792  0.1527 -0.2676
 4676TIP3   OH235586   0.113   3.050   2.787  0.2681 -0.2955 -0.7316
 4676TIP3    H135587   0.117   2.992   2.864 -2.3818 -0.2252 -0.4398
 4676TIP3    H235588   0.147   3.134   2.818 -0.5970 -0.3194  0.3402
 4677TIP3   OH235589   1.370   5.367   3.589 -0.8492  0.1755  0.4086
 4677TIP3    H135590   1.427   5.340   3.517 -1.7498 -0.9580  0.0809
 4677TIP3    H235591   1.415   5.441   3.629 -0.1376  0.5875 -1.0847
 4678TIP3   OH235592   1.946   2.363   0.703 -0.6408 -0.5437 -0.6122
 4678TIP3    H135593   2.002   2.440   0.714 -1.6754  0.1168  0.2545
 4678TIP3    H235594   2.007   2.289   0.698  0.2961  0.1283  0.4322
 4679TIP3   OH235595   1.942   5.149   0.496  0.3650 -0.0389  0.4835
 4679TIP3    H135596   1.999   5.225   0.496 -1.3604  1.3738 -1.3543
 4679TIP3    H235597   1.952   5.112   0.408 -2.9305  1.4936 -0.6922
 4680TIP3   OH235598   2.343   2.830   1.160  0.1804 -0.2578 -0.2518
 4680TIP3    H135599   2.311   2.846   1.071  1.2203  2.5568 -0.2368
 4680TIP3    H235600   2.270   2.856   1.216 -0.5566 -2.2436 -0.2128
 4681TIP3   OH235601   5.564   0.513   1.236  0.4238 -0.7785 -0.2678
 4681TIP3    H135602   5.587   0.433   1.283  3.0169  1.3064  2.3462
 4681TIP3    H235603   5.648   0.549   1.207 -0.4622  1.7763  0.0671
 4682TIP3   OH235604   2.151   4.774   8.116  0.1211 -0.2704 -0.2133
 4682TIP3    H135605   2.173   4.706   8.053 -0.7627 -0.9874  0.2199
 4682TIP3    H235606   2.117   4.847   8.063 -0.2460 -0.7158 -0.5953
 4683TIP3   OH235607   0.604   0.408   1.566 -0.2119  0.1676 -0.0615
 4683TIP3    H135608   0.611   0.497   1.599  0.3433  0.9896 -2.2145
 4683TIP3    H235609   0.599   0.353   1.644 -0.9631  2.0957  1.3002
 4684TIP3   OH235610   3.645   1.395   8.113  0.2476  0.0058 -0.0726
 4684TIP3    H135611   3.646   1.312   8.065  1.1288  0.2539 -0.4868
 4684TIP3    H235612   3.565   1.439   8.083 -1.3754 -1.5443  1.6623
 4685TIP3   OH235613   0.695   0.885   3.297 -0.4097 -0.0574 -0.1664
 4685TIP3    H135614   0.712   0.791   3.290  0.2908  0.1120 -0.8343
 4685TIP3    H235615   0.630   0.893   3.367 -1.1854 -1.1184 -0.7421
 4686TIP3   OH235616   1.606   2.426   1.195  0.2410 -0.5675  0.4795
 4686TIP3    H135617   1.548   2.349   1.199 -0.3029 -0.1854  0.0549
 4686TIP3    H235618   1.605   2.451   1.103 -1.3754  1.2928  0.9248
 4687TIP3   OH235619   1.198   3.002   1.962  0.3578 -0.3251  0.4270
 4687TIP3    H135620   1.264   2.942   1.928 -0.1687 -0.3123 -0.6608
 4687TIP3    H235621   1.170   3.052   1.886 -1.5960 -0.9867  0.6532
 4688TIP3   OH235622   3.755   4.160   0.287 -0.6413  0.1456 -0.1259
 4688TIP3    H135623   3.669   4.135   0.321  0.0490 -1.2100  0.7223
 4688TIP3    H235624   3.812   4.085   0.307  1.1618  1.6962  0.9323
 4689TIP3   OH235625   0.167   1.265   3.154 -0.0227 -0.0903  0.3692
 4689TIP3    H135626   0.142   1.210   3.080 -1.6210 -0.3186  1.0381
 4689TIP3    H235627   0.158   1.208   3.231  1.8349  0.0649  0.7654
 4690TIP3   OH235628   5.808   4.277   8.492  0.1756  0.0809 -0.5353
 4690TIP3    H135629   5.821   4.188   8.457 -1.3314 -0.3823 -0.0084
 4690TIP3    H235630   5.862   4.279   8.571 -0.8354 -0.9032  0.2320
 4691TIP3   OH235631   5.262   5.788   0.065  0.1472 -0.1925  0.5941
 4691TIP3    H135632   5.246   5.861   0.124  0.2471  0.9261 -0.7300
 4691TIP3    H235633   5.268   5.827  -0.022 -1.3343 -1.9273 -0.3820
 4692TIP3   OH235634   5.514   5.804   8.091  0.4448  0.2187 -0.6112
 4692TIP3    H135635   5.435   5.750   8.100 -0.0062  0.6032 -2.0719
 4692TIP3    H235636   5.566   5.759   8.024  0.4044  1.1738 -1.3004
 4693TIP3   OH235637   0.792   1.707   2.309  0.2386  0.5443 -0.2756
 4693TIP3    H135638   0.734   1.769   2.352 -0.3826 -0.6343  0.6625
 4693TIP3    H235639   0.867   1.759   2.281 -1.2028  2.1033 -1.4694
 4694TIP3   OH235640   0.568   2.827   1.366 -0.5938  0.0983 -0.3061
 4694TIP3    H135641   0.598   2.905   1.319  0.1440  1.2338  1.8969
 4694TIP3    H235642   0.477   2.816   1.336 -1.1230  2.5357  0.1244
 4695TIP3   OH235643   0.127   6.294   2.868 -0.1422 -0.1883 -0.4263
 4695TIP3    H135644   0.146   6.341   2.786 -0.2946  0.3957 -0.1357
 4695TIP3    H235645   0.140   6.360   2.936  0.2724 -0.7540  0.0418
 4696TIP3   OH235646   5.138   1.301   2.531  0.1037  0.1886 -0.0986
 4696TIP3    H135647   5.125   1.206   2.534  1.5420 -0.0500 -0.6873
 4696TIP3    H235648   5.049   1.337   2.520 -0.3617 -1.1314 -0.9052
 4697TIP3   OH235649   1.382   6.490   3.074 -0.7508  0.5920 -0.3703
 4697TIP3    H135650   1.313   6.556   3.069 -0.2613  1.0476 -1.9816
 4697TIP3    H235651   1.336   6.407   3.082 -1.4071  1.0547  0.7034
 4698TIP3   OH235652   6.795   6.143   0.971 -0.6218  0.6331 -0.3838
 4698TIP3    H135653   6.725   6.132   1.035 -1.0507 -1.1546 -1.1045
 4698TIP3    H235654   6.862   6.080   0.997  0.3257  1.6479 -0.2641
 4699TIP3   OH235655   1.067   6.277   0.004 -0.0500  0.2861 -0.4800
 4699TIP3    H135656   1.043   6.206   0.063  1.0454  0.4669  0.2211
 4699TIP3    H235657   1.010   6.350   0.030 -1.7398 -0.5286 -1.7315
 4700TIP3   OH235658   4.355   3.776   2.232  0.2235 -0.2167 -0.2603
 4700TIP3    H135659   4.318   3.864   2.228 -1.4028 -0.8338  0.2476
 4700TIP3    H235660   4.377   3.763   2.324  0.5351 -0.3105 -0.3474
 4701TIP3   OH235661   3.211   6.659   8.519  0.2340  0.1994 -0.1231
 4701TIP3    H135662   3.218   6.740   8.470 -0.3646 -0.0195 -0.5807
 4701TIP3    H235663   3.301   6.642   8.549  0.1339  1.7315  1.1592
 4702TIP3   OH235664   0.135   3.074   0.657  0.0397 -0.5595  0.7116
 4702TIP3    H135665   0.080   3.015   0.606 -0.0567 -2.2043  2.5691
 4702TIP3    H235666   0.104   3.063   0.747  0.3084  2.0580  1.2135
 4703TIP3   OH235667   2.905   1.470   2.035  0.0343 -0.2414  0.1073
 4703TIP3    H135668   2.976   1.411   2.062  0.1889 -0.4654 -0.7526
 4703TIP3    H235669   2.852   1.418   1.974 -0.8566 -0.0635  0.7153
 4704TIP3   OH235670   0.668   5.526   0.151  0.2808  0.1163 -0.2063
 4704TIP3    H135671   0.671   5.616   0.118  1.6846 -0.0610 -0.6597
 4704TIP3    H235672   0.664   5.472   0.072 -0.6352 -0.2295  0.0660
 4705TIP3   OH235673   3.509   5.019   8.481  0.2695  0.3301  0.5293
 4705TIP3    H135674   3.569   5.091   8.500 -1.9073  1.9731  1.6475
 4705TIP3    H235675   3.427   5.044   8.524 -1.5991 -1.2327 -1.8581
 4706TIP3   OH235676   4.608   1.312   2.742  0.3089  0.2209  0.0683
 4706TIP3    H135677   4.683   1.257   2.764 -0.7389 -0.7235  1.3570
 4706TIP3    H235678   4.617   1.389   2.799 -0.8414 -0.9025  1.8562
 4707TIP3   OH235679   5.553   4.873   2.931 -0.2071  0.1231  1.0556
 4707TIP3    H135680   5.595   4.882   3.017 -0.5467 -1.1848  1.3851
 4707TIP3    H235681   5.602   4.933   2.874  0.0621  0.9642  2.1336
 4708TIP3   OH235682   4.040   3.717   0.189  0.0048  0.0661  0.3609
 4708TIP3    H135683   4.105   3.731   0.121 -0.5871 -1.9847 -0.7027
 4708TIP3    H235684   3.967   3.674   0.145 -1.9650  1.8801  1.5845
 4709TIP3   OH235685   6.418   1.107   2.853 -0.3303  0.4986  0.7672
 4709TIP3    H135686   6.463   1.192   2.851 -1.0015  0.9340  2.2592
 4709TIP3    H235687   6.486   1.045   2.879 -0.0502  0.7513  0.6456
 4710TIP3   OH235688   2.500   6.194   1.093 -0.3252  0.0908  0.0637
 4710TIP3    H135689   2.474   6.283   1.066 -0.3230  0.3088  0.7633
 4710TIP3    H235690   2.584   6.207   1.138  0.2014 -0.4030 -0.7545
 4711TIP3   OH235691   0.454   2.339   2.171  0.6611  0.6830  0.6654
 4711TIP3    H135692   0.467   2.409   2.235 -0.5066  1.6570 -0.1125
 4711TIP3    H235693   0.396   2.377   2.105 -1.1808 -1.4390  0.9325
 4712TIP3   OH235694   3.323   2.701   1.300 -0.0313 -0.0150 -0.3742
 4712TIP3    H135695   3.333   2.796   1.289 -2.7871  0.7765  2.4463
 4712TIP3    H235696   3.229   2.686   1.291  0.1966 -2.2630  0.5282
 4713TIP3   OH235697   4.467   2.436   1.341 -0.4805  0.0480 -0.1170
 4713TIP3    H135698   4.478   2.352   1.297 -0.8285 -1.2390  2.1378
 4713TIP3    H235699   4.375   2.458   1.327 -0.0406  0.9253 -2.0549
 4714TIP3   OH235700   1.151   5.857   0.239 -0.3035 -0.3802  0.1263
 4714TIP3    H135701   1.186   5.930   0.289  0.0676 -0.0414 -0.6063
 4714TIP3    H235702   1.115   5.898   0.160  2.7051 -1.2242 -1.8422
 4715TIP3   OH235703   6.246   0.175   0.124 -0.0648 -0.2821 -0.0057
 4715TIP3    H135704   6.295   0.179   0.041  2.4967 -0.7932  1.3653
 4715TIP3    H235705   6.298   0.116   0.179 -0.5083  1.6706  2.6754
 4716TIP3   OH235706   4.603   1.967   8.027 -0.1890  0.2841  0.0806
 4716TIP3    H135707   4.685   1.922   8.007  0.2675  1.9897 -2.4942
 4716TIP3    H235708   4.535   1.905   8.000  0.3284 -0.1104 -0.3522
 4717TIP3   OH235709   5.788   5.227   1.101  0.2101 -0.2935 -0.9555
 4717TIP3    H135710   5.766   5.134   1.110  0.7120 -0.2610  1.0447
 4717TIP3    H235711   5.713   5.265   1.056 -0.4222 -1.4938 -0.9569
 4718TIP3   OH235712   5.126   4.688   7.689 -0.0377  0.2818  0.0643
 4718TIP3    H135713   5.146   4.767   7.638  0.6010  0.4527  0.5680
 4718TIP3    H235714   5.071   4.636   7.630  1.1024  0.2358 -1.0075
 4719TIP3   OH235715   3.555   2.411   1.575 -0.0783 -0.0641  0.3752
 4719TIP3    H135716   3.600   2.473   1.632 -0.0880 -0.4138  0.7710
 4719TIP3    H235717   3.619   2.341   1.559  0.6137  0.9288 -1.6186
 4720TIP3   OH235718   6.329   1.771   0.597  0.5404 -0.4475 -0.0925
 4720TIP3    H135719   6.412   1.817   0.586  1.6222 -2.4300 -0.6150
 4720TIP3    H235720   6.303   1.789   0.687  0.1957  2.2272 -0.6261
 4721TIP3   OH235721   3.552   3.087   2.116  0.2770 -0.0582  0.5846
 4721TIP3    H135722   3.483   3.081   2.182  0.3607 -0.5080  0.6309
 4721TIP3    H235723   3.530   3.166   2.066  0.5936  0.6801  1.5707
 4722TIP3   OH235724   5.000   3.147   0.673  0.3517 -0.5055 -0.3120
 4722TIP3    H135725   4.959   3.232   0.687  0.1824 -0.5659 -0.4468
 4722TIP3    H235726   5.051   3.132   0.754  1.0220  0.0816 -0.6103
 4723TIP3   OH235727   3.054   5.840   2.909  0.2165  0.4017  0.0476
 4723TIP3    H135728   3.087   5.891   2.983  1.0764 -2.3540  1.7047
 4723TIP3    H235729   3.059   5.900   2.835  0.2742  2.9746  1.9922
 4724TIP3   OH235730   2.332   5.251   2.880 -0.3594  0.1140  0.4390
 4724TIP3    H135731   2.310   5.159   2.891  2.0944 -0.4992  0.8216
 4724TIP3    H235732   2.385   5.273   2.957  2.6721  0.6002 -1.6079
 4725TIP3   OH235733   5.227   6.034   2.008  0.2672 -0.4000  0.2029
 4725TIP3    H135734   5.303   6.068   1.961 -0.4113  1.0085  0.0802
 4725TIP3    H235735   5.200   5.957   1.958  1.7059 -1.0341  0.3556
 4726TIP3   OH235736   4.472   1.060   1.244  0.0421 -0.3213 -0.9159
 4726TIP3    H135737   4.525   1.007   1.184 -0.2875  0.5726 -2.0348
 4726TIP3    H235738   4.469   1.009   1.325 -2.7649 -3.6027 -2.8113
 4727TIP3   OH235739   5.798   5.788   0.978  0.1560 -0.0690  0.5900
 4727TIP3    H135740   5.709   5.769   0.946  0.5263  0.2300 -0.7057
 4727TIP3    H235741   5.847   5.707   0.961  0.5531  0.3601 -0.3970
 4728TIP3   OH235742   5.592   4.246   2.611 -0.4588  0.3980 -0.4273
 4728TIP3    H135743   5.631   4.161   2.633 -1.4744  0.1184  0.3920
 4728TIP3    H235744   5.509   4.247   2.659 -0.8536  1.5095 -1.0944
 4729TIP3   OH235745   4.440   0.727   8.573  0.1928 -0.1359  0.1156
 4729TIP3    H135746   4.396   0.735   8.488 -0.4831  0.6458  0.5240
 4729TIP3    H235747   4.381   0.674   8.626  1.1593 -1.6193 -0.2455
 4730TIP3   OH235748   3.493   1.766   2.935  0.0004  0.2948 -0.4598
 4730TIP3    H135749   3.558   1.820   2.981 -0.8151  1.6490 -0.8389
 4730TIP3    H235750   3.442   1.725   3.005  0.7508 -0.1660 -0.1646
 4731TIP3   OH235751   5.035   5.181   3.142 -0.0050 -0.5137  0.2828
 4731TIP3    H135752   5.064   5.264   3.180  2.0659 -0.8540 -0.4223
 4731TIP3    H235753   4.940   5.189   3.136 -0.2455  0.4098  3.4472
 4732TIP3   OH235754   0.001   1.412   2.766  0.2683  0.2700 -0.2497
 4732TIP3    H135755   0.051   1.408   2.847 -0.4937 -0.0850  0.2184
 4732TIP3    H235756  -0.080   1.365   2.786 -0.8215  1.9261 -0.5834
 4733TIP3   OH235757   4.908   6.032   3.043  0.1901  0.2361 -0.2030
 4733TIP3    H135758   4.842   6.036   2.973 -0.5196 -1.1846  0.3333
 4733TIP3    H235759   4.887   6.106   3.100  1.3432  1.9873 -1.9055
 4734TIP3   OH235760   0.473   4.289   0.459  0.1257  0.3949  0.7200
 4734TIP3    H135761   0.562   4.324   0.446  0.0142  1.6550  2.8690
 4734TIP3    H235762   0.415   4.357   0.424 -0.0343  0.1428  0.4877
 4735TIP3   OH235763   6.550   2.982   3.136  0.0869  0.2051  0.2651
 4735TIP3    H135764   6.603   2.954   3.062 -1.3685  0.0908 -0.7744
 4735TIP3    H235765   6.576   3.072   3.153 -0.4832  0.6802 -1.2621
 4736TIP3   OH235766   0.667   0.059   2.112 -0.1912  0.2283  0.2160
 4736TIP3    H135767   0.686  -0.028   2.145 -0.6153 -0.2407 -0.7257
 4736TIP3    H235768   0.739   0.078   2.051 -0.9015 -0.1174 -0.7489
 4737TIP3   OH235769   0.320   5.806   2.124  0.3588  0.1927  0.1144
 4737TIP3    H135770   0.286   5.845   2.043  2.6584  1.1504 -0.4731
 4737TIP3    H235771   0.256   5.738   2.146 -1.2095  1.0177 -1.5609
 4738TIP3   OH235772   5.886   1.027   7.872 -0.2813  0.8066 -0.4662
 4738TIP3    H135773   5.935   1.075   7.805  0.6048  1.2743  0.5036
 4738TIP3    H235774   5.808   0.995   7.825 -0.0665  1.7687 -1.5339
 4739TIP3   OH235775   6.372   4.874   2.275  0.1175  0.1175 -0.0205
 4739TIP3    H135776   6.386   4.825   2.194  0.7665  0.6853 -0.2537
 4739TIP3    H235777   6.277   4.869   2.290 -0.0403  0.2454 -0.9619
 4740TIP3   OH235778   3.391   3.724   7.942  0.2968  0.2681  0.2193
 4740TIP3    H135779   3.350   3.643   7.971 -1.5697  1.1668  0.2438
 4740TIP3    H235780   3.318   3.782   7.922  1.5705  1.4348 -1.3084
 4741TIP3   OH235781   3.551   5.328   8.068  0.6587  0.4725  0.0381
 4741TIP3    H135782   3.645   5.347   8.077  0.2363  2.2363  1.3022
 4741TIP3    H235783   3.547   5.232   8.063  2.5515  0.3726 -0.6698
 4742TIP3   OH235784   3.550   3.966   1.718 -0.5636  0.8497 -0.5635
 4742TIP3    H135785   3.536   4.059   1.698 -0.2686  1.0466  0.1267
 4742TIP3    H235786   3.474   3.922   1.679 -2.2868  1.7014  1.6377
 4743TIP3   OH235787   0.129   2.372   3.490 -0.0333  0.1615  0.0328
 4743TIP3    H135788   0.147   2.354   3.583  1.2976  2.8302  0.3903
 4743TIP3    H235789   0.085   2.457   3.491 -0.0818  0.1777 -1.7913
 4744TIP3   OH235790   3.610   5.773   0.928 -0.2400  0.7161  0.1070
 4744TIP3    H135791   3.558   5.823   0.865 -2.0073 -0.5181  0.4933
 4744TIP3    H235792   3.623   5.688   0.886  2.1120  1.1971 -0.2543
 4745TIP3   OH235793   5.915   5.278   2.784  0.0399 -0.1420 -0.0165
 4745TIP3    H135794   5.948   5.322   2.706  0.7904  0.2342  0.5015
 4745TIP3    H235795   5.855   5.341   2.823 -3.4048 -1.7264 -2.2768
 4746TIP3   OH235796   0.241   4.142   2.133  0.4457  0.3457  0.0299
 4746TIP3    H135797   0.280   4.062   2.099 -1.1232 -0.5869  0.3390
 4746TIP3    H235798   0.152   4.117   2.158 -0.0102  2.1354  0.3441
 4747TIP3   OH235799   5.222   2.715   8.235  0.8200  0.0884  0.4285
 4747TIP3    H135800   5.148   2.760   8.194  2.3414  1.6948 -0.6950
 4747TIP3    H235801   5.250   2.650   8.170  0.3243 -0.6362  0.9228
 4748TIP3   OH235802   2.579   6.665   8.288  0.1913 -0.0854 -0.1082
 4748TIP3    H135803   2.645   6.596   8.280  1.6108  0.9266  1.7450
 4748TIP3    H235804   2.499   6.627   8.254  0.5758 -3.1321  2.0160
 4749TIP3   OH235805   1.952   1.784   2.337  0.1098  0.4477  0.1892
 4749TIP3    H135806   1.867   1.740   2.344  0.0397  0.5416 -0.0956
 4749TIP3    H235807   1.961   1.831   2.421  0.1032  0.0416  0.4202
 4750TIP3   OH235808   5.618   1.174   2.443  0.3050  0.0710  0.4966
 4750TIP3    H135809   5.545   1.235   2.457 -1.1225 -1.4829  0.0865
 4750TIP3    H235810   5.624   1.165   2.348  1.8634  1.0958  0.4582
 4751TIP3   OH235811   2.131   1.934   1.241 -0.0722 -0.2875 -0.1879
 4751TIP3    H135812   2.069   1.919   1.313 -0.2549  1.4386  0.0736
 4751TIP3    H235813   2.217   1.918   1.280 -0.3009 -2.6226 -0.5291
 4752TIP3   OH235814   5.950   4.459   1.869 -0.3329  0.1770  0.8093
 4752TIP3    H135815   6.019   4.393   1.863  1.1277  1.5501  1.6301
 4752TIP3    H235816   5.942   4.476   1.963  0.0093  1.8156  0.5731
 4753TIP3   OH235817   0.627   0.505   0.954 -0.0940  0.3736 -0.4052
 4753TIP3    H135818   0.592   0.431   0.904 -1.7146 -1.0502  2.5633
 4753TIP3    H235819   0.555   0.532   1.011  0.6668  3.9095 -0.8911
 4754TIP3   OH235820   0.760   6.853   1.077  0.0810 -0.0607 -0.3217
 4754TIP3    H135821   0.667   6.865   1.059  0.2342 -0.8853 -1.7880
 4754TIP3    H235822   0.804   6.916   1.020  0.4437  0.1668  0.1997
 4755TIP3   OH235823   3.413   5.403   0.751  0.6663  0.6661  0.0378
 4755TIP3    H135824   3.325   5.426   0.724  0.5115 -0.0558 -0.1054
 4755TIP3    H235825   3.401   5.337   0.820  1.0863 -0.2496 -0.7312
 4756TIP3   OH235826   2.718   6.321   1.991  0.3728 -0.3121  0.2216
 4756TIP3    H135827   2.718   6.226   1.988  0.1671 -0.3372  0.7758
 4756TIP3    H235828   2.656   6.348   1.924 -0.8616 -0.6331  1.1857
 4757TIP3   OH235829   4.742   3.283   3.662 -0.3203  0.1812  0.3640
 4757TIP3    H135830   4.783   3.210   3.617 -0.0686  0.3368  0.3417
 4757TIP3    H235831   4.649   3.275   3.640 -0.4347 -0.6487  1.0699
 4758TIP3   OH235832   1.439   4.424   3.125  0.1611 -0.1102  0.5672
 4758TIP3    H135833   1.382   4.371   3.182 -1.9170  0.3405 -0.9702
 4758TIP3    H235834   1.429   4.385   3.038  0.7340  1.1622 -0.0880
 4759TIP3   OH235835   2.096   0.377   0.913  0.0409 -0.0664 -0.9611
 4759TIP3    H135836   2.030   0.374   0.983  2.7117  0.7826  1.8166
 4759TIP3    H235837   2.125   0.468   0.912  2.5851 -0.8139 -0.6011
 4760TIP3   OH235838   5.184   3.061   1.416 -0.1104  0.0735 -0.8647
 4760TIP3    H135839   5.093   3.046   1.442 -0.5748  0.1404 -2.3411
 4760TIP3    H235840   5.181   3.142   1.366  0.5506 -0.5608 -1.9594
 4761TIP3   OH235841   4.721   3.237   0.329  0.2909  0.0931  0.0034
 4761TIP3    H135842   4.714   3.141   0.333 -0.0118  0.1553  1.3322
 4761TIP3    H235843   4.810   3.255   0.359  0.7222  0.1969 -1.2599
 4762TIP3   OH235844   6.375   2.000   1.132 -0.0843 -0.1766  0.1008
 4762TIP3    H135845   6.395   2.089   1.101 -0.3708  0.3808  1.4730
 4762TIP3    H235846   6.436   1.985   1.204 -0.5505 -0.7992  0.3742
 4763TIP3   OH235847   5.703   4.300   2.262 -0.2404 -0.3122  0.1500
 4763TIP3    H135848   5.616   4.301   2.303 -0.7607 -1.1659 -0.8474
 4763TIP3    H235849   5.751   4.232   2.309  0.0062  0.3709  0.9049
 4764TIP3   OH235850   6.235   2.441   1.971  0.1633  0.0415  0.0733
 4764TIP3    H135851   6.220   2.452   1.878  1.0245  0.5037 -0.0231
 4764TIP3    H235852   6.179   2.507   2.013  0.6639  0.6470 -0.1884
 4765TIP3   OH235853   1.728   6.211   0.450  0.5207  0.3873 -0.1763
 4765TIP3    H135854   1.755   6.119   0.456 -1.3061 -0.1647  0.2468
 4765TIP3    H235855   1.742   6.246   0.538 -3.8677 -1.0930  1.3870
 4766TIP3   OH235856   0.966   2.204   0.879  0.7274 -0.3760  0.5669
 4766TIP3    H135857   1.051   2.160   0.881  0.7308 -0.6213 -1.8728
 4766TIP3    H235858   0.925   2.172   0.799 -0.6752  1.5747  0.4477
 4767TIP3   OH235859   5.819   0.382   2.449 -0.0064  0.2851 -0.4283
 4767TIP3    H135860   5.798   0.310   2.390 -1.2959  0.4514 -0.1953
 4767TIP3    H235861   5.804   0.347   2.537 -0.5267  0.7914 -0.3079
 4768TIP3   OH235862   0.225   4.313   7.826 -0.2270 -0.3366 -0.3330
 4768TIP3    H135863   0.300   4.355   7.783  0.3584 -0.7610  0.2392
 4768TIP3    H235864   0.161   4.383   7.837  0.3538  0.1929 -0.2529
 4769TIP3   OH235865   6.846   2.013   8.054  0.0886  0.3315  0.5176
 4769TIP3    H135866   6.870   1.959   7.979 -1.4076  0.5531 -0.1563
 4769TIP3    H235867   6.883   1.967   8.130  1.2514 -0.1166 -0.3009
 4770TIP3   OH235868   5.514   5.557   0.647 -0.4571  0.4898 -0.1350
 4770TIP3    H135869   5.445   5.575   0.584  0.9415  0.3918 -1.7773
 4770TIP3    H235870   5.512   5.462   0.660 -0.3415  0.4277 -0.5550
 4771TIP3   OH235871   3.466   6.666   8.121 -0.1181  0.1290  0.2570
 4771TIP3    H135872   3.505   6.598   8.176  2.3733 -1.0726 -2.7325
 4771TIP3    H235873   3.500   6.748   8.158  1.7578 -0.6582  0.4129
 4772TIP3   OH235874   2.594   2.733   7.449 -0.0442 -0.1481 -0.1940
 4772TIP3    H135875   2.573   2.820   7.413  0.9574  0.7602  1.3186
 4772TIP3    H235876   2.522   2.715   7.509 -0.6803 -0.7642 -1.1164
 4773TIP3   OH235877   4.440   4.488   2.487  0.6906 -0.1440 -1.1389
 4773TIP3    H135878   4.380   4.535   2.429  0.3321  1.0663  0.1668
 4773TIP3    H235879   4.409   4.397   2.486 -2.2001  0.6847  0.6807
 4774TIP3   OH235880   5.090   6.288   3.048  0.3446  0.0970  0.4190
 4774TIP3    H135881   5.152   6.216   3.036  0.7535  0.6196 -0.6897
 4774TIP3    H235882   5.078   6.293   3.143  0.5943 -1.1875  0.5389
 4775TIP3   OH235883   2.872   0.598   1.122  0.3791 -0.8065  0.3082
 4775TIP3    H135884   2.841   0.572   1.208 -2.0984  0.8836  0.0368
 4775TIP3    H235885   2.830   0.537   1.061  0.9843 -1.1180  0.1994
 4776TIP3   OH235886   2.226   6.339   1.180 -0.2392 -0.2595  0.3480
 4776TIP3    H135887   2.253   6.295   1.261  1.4686 -0.5332 -0.3349
 4776TIP3    H235888   2.154   6.396   1.207 -0.3506 -1.0568  1.8649
 4777TIP3   OH235889   1.389   5.524   2.020 -0.0870 -0.6446  0.0984
 4777TIP3    H135890   1.322   5.469   2.062  1.0975 -1.9008  0.4243
 4777TIP3    H235891   1.462   5.526   2.083  0.6963 -0.3877 -0.7904
 4778TIP3   OH235892   6.607   0.537   1.188 -0.1231  0.2846 -0.8235
 4778TIP3    H135893   6.697   0.563   1.170 -0.7152  1.4736 -2.1962
 4778TIP3    H235894   6.557   0.563   1.110 -1.9378  1.0728  0.5259
 4779TIP3   OH235895   4.460   3.555   7.847  0.7905 -0.0883 -0.2670
 4779TIP3    H135896   4.494   3.612   7.916 -0.6987 -0.0512  0.4795
 4779TIP3    H235897   4.472   3.466   7.881  1.4492 -0.1478 -0.6398
 4780TIP3   OH235898   4.883   0.079   8.507  0.0966  0.5353 -0.2579
 4780TIP3    H135899   4.935   0.009   8.468 -0.6133  0.9852 -2.1291
 4780TIP3    H235900   4.947   0.133   8.553  0.8594 -0.4795 -0.0658
 4781TIP3   OH235901   6.132   2.578   3.944 -0.1863  0.4465 -0.8069
 4781TIP3    H135902   6.112   2.489   3.916  0.7277  0.7115 -2.4401
 4781TIP3    H235903   6.224   2.574   3.973 -0.8762  0.3500  1.5935
 4782TIP3   OH235904   3.261   0.740   2.827  0.1589  0.5470  0.3511
 4782TIP3    H135905   3.328   0.736   2.895 -0.1339  0.2858  0.6245
 4782TIP3    H235906   3.300   0.794   2.758  1.5703 -1.4317 -0.4978
 4783TIP3   OH235907   2.803   4.035   3.894  0.0202  0.3345  0.1738
 4783TIP3    H135908   2.874   4.043   3.830 -0.8002  2.2106 -0.5389
 4783TIP3    H235909   2.818   4.106   3.956 -1.4702  1.0367 -0.2362
 4784TIP3   OH235910   0.660   4.636   8.369  0.4289 -0.0183  0.3585
 4784TIP3    H135911   0.659   4.714   8.425  1.3835  1.0151 -0.9835
 4784TIP3    H235912   0.647   4.671   8.280  1.7978 -1.2754 -0.3793
 4785TIP3   OH235913   1.744   4.401   1.084  0.3824 -0.3653  0.0133
 4785TIP3    H135914   1.711   4.491   1.092  1.0832 -0.1068  0.0660
 4785TIP3    H235915   1.668   4.346   1.105 -0.0609  0.2115 -0.0458
 4786TIP3   OH235916   1.626   2.246   1.715 -0.3835 -0.2593 -0.2726
 4786TIP3    H135917   1.659   2.332   1.739 -2.2519  0.8008 -1.1879
 4786TIP3    H235918   1.628   2.246   1.619 -1.8527 -0.5664 -0.3375
 4787TIP3   OH235919   2.404   4.550   1.988  0.0324  0.3066 -0.1243
 4787TIP3    H135920   2.385   4.493   1.914  0.4619  0.0616 -0.0500
 4787TIP3    H235921   2.445   4.493   2.053 -2.8373 -0.1406  1.4917
 4788TIP3   OH235922   2.418   1.101   1.770 -0.2478  0.3281 -0.2393
 4788TIP3    H135923   2.396   1.026   1.715 -0.0207 -1.1251  1.5459
 4788TIP3    H235924   2.340   1.114   1.825 -0.4588  1.7265 -0.8241
 4789TIP3   OH235925   1.855   3.882   8.041 -0.4226  0.2839 -0.2045
 4789TIP3    H135926   1.924   3.826   8.006 -0.0573  1.3093 -1.1890
 4789TIP3    H235927   1.824   3.836   8.119  1.1548 -0.3432  0.0835
 4790TIP3   OH235928   4.625   2.051   0.924  0.1988  0.5524 -0.0340
 4790TIP3    H135929   4.646   2.103   1.002  1.7947  1.3351 -0.9149
 4790TIP3    H235930   4.633   1.960   0.953 -0.1190  0.8141  0.9194
 4791TIP3   OH235931   0.603   1.901   2.398  0.1147 -0.1764  0.1059
 4791TIP3    H135932   0.539   1.944   2.341  0.3584 -0.6596 -0.5494
 4791TIP3    H235933   0.620   1.964   2.467  0.7353  0.9260 -1.0196
 4792TIP3   OH235934   6.592   0.899   1.406 -0.3174 -0.5672  0.0707
 4792TIP3    H135935   6.539   0.925   1.481 -0.4368  1.0568 -0.5205
 4792TIP3    H235936   6.562   0.811   1.383 -1.6444 -0.3057  0.7213
 4793TIP3   OH235937   5.499   5.491   2.925 -0.3265  0.1056 -0.0762
 4793TIP3    H135938   5.591   5.465   2.912 -0.0234  0.7967  0.5915
 4793TIP3    H235939   5.449   5.428   2.874  0.6226  0.8291 -1.9916
 4794TIP3   OH235940   4.567   0.476   2.683  0.2831 -0.0695 -0.3211
 4794TIP3    H135941   4.520   0.402   2.719  1.0385  0.2795  1.4676
 4794TIP3    H235942   4.595   0.527   2.759  0.7780  1.4317 -1.4570
 4795TIP3   OH235943   2.239   3.245   7.985 -0.2130  0.5913 -0.3070
 4795TIP3    H135944   2.169   3.252   7.921  0.5412  1.6673 -1.0414
 4795TIP3    H235945   2.291   3.170   7.955 -1.5400 -0.8231  0.7780
 4796TIP3   OH235946   0.788   3.325   1.054 -0.0181 -0.6339  0.2035
 4796TIP3    H135947   0.751   3.387   1.117  0.6831 -0.2023  0.2055
 4796TIP3    H235948   0.720   3.316   0.987  0.3401  1.1341 -0.4627
 4797TIP3   OH235949   2.168   6.744   1.601 -0.2512  0.4326  0.1161
 4797TIP3    H135950   2.262   6.755   1.589 -0.0629  0.2869  1.3370
 4797TIP3    H235951   2.138   6.702   1.520  0.9190 -0.5378  0.1600
 4798TIP3   OH235952   4.362   5.551   8.193  0.5005 -0.4903 -0.0093
 4798TIP3    H135953   4.349   5.595   8.110  0.6740 -0.3284  0.0479
 4798TIP3    H235954   4.457   5.544   8.202  0.5043  0.0532  0.4634
 4799TIP3   OH235955   2.665   6.620   0.774  0.5908  0.6564  0.2139
 4799TIP3    H135956   2.717   6.584   0.702 -0.8591  0.3876 -0.7402
 4799TIP3    H235957   2.687   6.713   0.775 -1.8373  1.4569 -2.9274
 4800TIP3   OH235958   3.722   2.949   1.616 -0.5373 -0.4549  0.4837
 4800TIP3    H135959   3.637   2.987   1.591 -0.4490  0.2591  1.2312
 4800TIP3    H235960   3.709   2.918   1.705 -0.6179 -2.2753 -0.1158
 4801TIP3   OH235961   6.319   2.481   2.616 -0.0088  0.2473  0.4767
 4801TIP3    H135962   6.248   2.427   2.580  0.0175  0.9534 -0.7144
 4801TIP3    H235963   6.376   2.498   2.541  0.9191  0.4727  1.2160
 4802TIP3   OH235964   1.086   0.796   0.717  0.4541 -0.2259 -0.3183
 4802TIP3    H135965   1.055   0.721   0.667  0.6876 -0.7594  0.3139
 4802TIP3    H235966   1.157   0.761   0.771 -1.0104 -0.1362  1.7774
 4803TIP3   OH235967   5.044   2.374   8.622 -0.4793  0.3726 -0.6289
 4803TIP3    H135968   5.094   2.295   8.601  1.5405  1.8968 -1.9032
 4803TIP3    H235969   5.098   2.420   8.686 -2.0551  0.3827  0.7871
 4804TIP3   OH235970   4.486   6.615   0.168  0.3900 -0.1129 -0.1159
 4804TIP3    H135971   4.518   6.573   0.248 -1.9514 -0.0093  0.9598
 4804TIP3    H235972   4.533   6.698   0.163  0.7909 -0.2566  1.0039
 4805TIP3   OH235973   6.151   4.007   0.765  0.2481 -0.2756 -0.5554
 4805TIP3    H135974   6.090   4.036   0.833  1.7664  0.3969  0.5755
 4805TIP3    H235975   6.122   3.919   0.742 -1.0542 -0.0246  0.0243
 4806TIP3   OH235976   4.689   3.493   2.356 -0.3816  0.7966  0.1587
 4806TIP3    H135977   4.728   3.407   2.340  0.2917  1.1302 -0.0599
 4806TIP3    H235978   4.601   3.487   2.321 -1.2361 -0.5864  2.3540
 4807TIP3   OH235979   2.417   3.559   7.968 -0.0922 -0.1162 -0.2094
 4807TIP3    H135980   2.460   3.483   7.928 -0.2190 -1.3822  1.9146
 4807TIP3    H235981   2.440   3.632   7.911  1.7899 -1.3797 -1.1678
 4808TIP3   OH235982   5.531   4.812   0.538 -0.0542 -0.1564  0.4101
 4808TIP3    H135983   5.607   4.799   0.482  0.8555 -2.4106  2.0322
 4808TIP3    H235984   5.559   4.879   0.600  0.0650  0.0634  0.1243
 4809TIP3   OH235985   6.860   3.658   2.466  0.4858  0.5516  0.4506
 4809TIP3    H135986   6.954   3.666   2.484  0.6489 -0.1587 -0.0424
 4809TIP3    H235987   6.850   3.689   2.376  0.0715  1.6654  0.8715
 4810TIP3   OH235988   3.676   6.426   3.107 -0.1725 -0.4813 -0.4021
 4810TIP3    H135989   3.590   6.411   3.145 -0.3550  0.3953 -0.4537
 4810TIP3    H235990   3.703   6.512   3.141  1.0619 -1.1153  0.3213
 4811TIP3   OH235991   2.551   2.632   3.464  0.4476 -0.1665  0.0213
 4811TIP3    H135992   2.478   2.677   3.506  0.5832 -1.1737  1.3696
 4811TIP3    H235993   2.628   2.686   3.484  0.2525  0.3052 -0.4704
 4812TIP3   OH235994   4.907   2.288   2.484 -0.0835  0.0059  0.0337
 4812TIP3    H135995   4.987   2.241   2.459  0.5479  0.2982  1.3704
 4812TIP3    H235996   4.880   2.245   2.565 -1.4720 -0.2738 -0.5536
 4813TIP3   OH235997   1.053   5.634   0.102 -0.1183 -0.1666  0.6927
 4813TIP3    H135998   1.092   5.682   0.175 -3.1402 -0.4275  2.6433
 4813TIP3    H235999   1.024   5.551   0.140 -0.4733 -0.9704 -1.1796
 4814TIP3   OH236000   0.456   6.423   1.802  0.6208 -0.1498 -0.7040
 4814TIP3    H136001   0.502   6.503   1.827  0.8487 -0.9241  1.5732
 4814TIP3    H236002   0.525   6.360   1.783  0.4446 -0.1594 -1.3413
 4815TIP3   OH236003   1.751   3.866   3.861 -0.8935 -0.1960 -0.0163
 4815TIP3    H136004   1.800   3.795   3.902  1.1037  1.4703  0.5976
 4815TIP3    H236005   1.662   3.858   3.897  0.0733 -0.5197  2.4565
 4816TIP3   OH236006   0.263   3.734   8.613 -0.0680  0.0850 -0.4725
 4816TIP3    H136007   0.341   3.693   8.576 -0.4765  0.0431 -1.2990
 4816TIP3    H236008   0.213   3.661   8.651 -0.3753 -0.0830 -1.1798
 4817TIP3   OH236009   2.902   6.826   1.389  0.0007  0.3893  0.3692
 4817TIP3    H136010   2.812   6.808   1.416 -0.1797 -0.1164 -0.5151
 4817TIP3    H236011   2.931   6.897   1.447 -1.3938  1.4313 -0.1509
 4818TIP3   OH236012   4.687   0.744   8.465  0.4066 -0.3645  0.3386
 4818TIP3    H136013   4.603   0.740   8.512 -0.2529 -2.6191 -0.8462
 4818TIP3    H236014   4.716   0.834   8.475 -0.4700 -0.2992  3.6452
 4819TIP3   OH236015   5.325   3.739   0.407  0.1108 -0.0142  0.1798
 4819TIP3    H136016   5.279   3.723   0.489  0.7678  3.0640  1.2943
 4819TIP3    H236017   5.412   3.702   0.421 -0.0026 -0.1256  0.6097
 4820TIP3   OH236018   5.461   0.702   3.772  0.5698 -0.1947 -0.5333
 4820TIP3    H136019   5.538   0.661   3.733  1.1107 -0.3522  0.6614
 4820TIP3    H236020   5.484   0.794   3.781  0.2114 -0.0386 -1.1201
 4821TIP3   OH236021   4.771   6.164   0.339  0.2966  0.1070 -0.0092
 4821TIP3    H136022   4.784   6.214   0.420  0.2286 -1.3471  0.9519
 4821TIP3    H236023   4.732   6.226   0.278  0.0564  1.1684  1.1794
 4822TIP3   OH236024   1.967   2.425   8.066  0.0672  0.5601 -0.5505
 4822TIP3    H136025   2.033   2.356   8.076  0.2081  0.5124 -1.7179
 4822TIP3    H236026   2.017   2.502   8.039 -0.2055  0.8731 -0.1705
 4823TIP3   OH236027   3.348   1.589   7.422  0.1386  0.2684  0.1843
 4823TIP3    H136028   3.282   1.540   7.373 -1.3213  1.0158  1.3180
 4823TIP3    H236029   3.431   1.545   7.401 -0.6711 -0.5893 -1.4158
 4824TIP3   OH236030   2.780   0.395   1.606 -0.1326 -0.0637 -0.5050
 4824TIP3    H136031   2.719   0.333   1.566 -2.3118  1.7680 -0.2303
 4824TIP3    H236032   2.820   0.347   1.678 -2.2765 -0.9919  0.1484
 4825TIP3   OH236033   0.596   5.295   3.163 -0.2538 -0.6280 -0.5279
 4825TIP3    H136034   0.615   5.302   3.069  2.0800  1.3722 -0.0085
 4825TIP3    H236035   0.669   5.340   3.206 -2.3371  0.4449  2.1728
 4826TIP3   OH236036   6.536   4.597   3.307  0.3344 -0.3251  0.1451
 4826TIP3    H136037   6.452   4.624   3.271 -0.6103 -1.8343  1.0983
 4826TIP3    H236038   6.523   4.597   3.402  0.7277 -2.5475  0.2476
 4827TIP3   OH236039   4.627   4.781   0.837  0.1918  0.0723 -0.8244
 4827TIP3    H136040   4.615   4.823   0.752 -1.4630  0.7877 -0.2896
 4827TIP3    H236041   4.550   4.724   0.846 -1.0672  1.9211  1.2146
 4828TIP3   OH236042   1.818   2.636   3.366 -0.5298 -0.2087  0.3779
 4828TIP3    H136043   1.764   2.557   3.375 -0.0539 -0.6120 -0.2006
 4828TIP3    H236044   1.883   2.613   3.300  0.3829  0.2623  1.0918
 4829TIP3   OH236045   6.301   3.884   0.982 -0.4436 -0.4591 -0.1368
 4829TIP3    H136046   6.268   3.801   0.946  2.5722 -1.7334 -0.3035
 4829TIP3    H236047   6.283   3.948   0.913 -1.2721 -1.3391 -0.7814
 4830TIP3   OH236048   4.854   0.366   2.879  0.4568  0.4199 -0.6243
 4830TIP3    H136049   4.923   0.309   2.913 -0.3772  0.4900  1.3366
 4830TIP3    H236050   4.858   0.444   2.935 -0.9979  0.5458 -0.6504
 4831TIP3   OH236051   0.729   4.960   0.093 -0.2291  0.3059  0.3476
 4831TIP3    H136052   0.816   4.956   0.054 -0.8549  0.0674 -1.1196
 4831TIP3    H236053   0.729   5.041   0.144  0.4281  1.0353 -0.7447
 4832TIP3   OH236054   6.348   6.845   0.294 -0.3390  0.5044  0.5478
 4832TIP3    H136055   6.308   6.845   0.381 -1.1338 -0.6879  0.2058
 4832TIP3    H236056   6.371   6.754   0.278 -1.3623  0.4830 -0.9933
 4833TIP3   OH236057   0.634   2.896   2.402  0.5088 -0.6975  0.1147
 4833TIP3    H136058   0.702   2.913   2.467  0.2982  0.8549 -0.0239
 4833TIP3    H236059   0.679   2.906   2.318 -0.0253  1.2224  0.0077
 4834TIP3   OH236060   5.908   1.028   2.493 -0.0334 -0.1133 -0.0433
 4834TIP3    H136061   5.925   1.121   2.475 -1.0668 -0.1062 -1.1355
 4834TIP3    H236062   5.987   0.983   2.462 -0.2810  0.2527 -1.2705
 4835TIP3   OH236063   3.811   1.441   0.495 -0.5397 -0.7052  0.2708
 4835TIP3    H136064   3.716   1.448   0.491 -0.6542 -0.7938  2.1074
 4835TIP3    H236065   3.827   1.369   0.556  0.7081  0.1021  0.9279
 4836TIP3   OH236066   1.559   6.140   2.876 -0.9795  0.2814  0.1832
 4836TIP3    H136067   1.556   6.046   2.894  2.6392 -0.0482 -0.3622
 4836TIP3    H236068   1.632   6.172   2.929  0.9411  1.8310 -3.1066
 4837TIP3   OH236069   3.775   5.495   1.222  0.2309 -0.1426  0.5519
 4837TIP3    H136070   3.738   5.476   1.309 -2.7904  1.0977 -0.3520
 4837TIP3    H236071   3.809   5.584   1.229 -2.5058  1.0448 -0.1720
 4838TIP3   OH236072   6.380   3.311   7.807  0.0380  0.1881  0.0973
 4838TIP3    H136073   6.361   3.390   7.857  0.2255  0.0486  0.3919
 4838TIP3    H236074   6.294   3.282   7.776 -0.3187 -0.6721  1.7897
 4839TIP3   OH236075   3.387   6.857   2.313 -0.3796  0.1844 -0.3618
 4839TIP3    H136076   3.468   6.848   2.263 -0.0376  3.1940 -0.5216
 4839TIP3    H236077   3.320   6.816   2.258  0.4929  0.6494 -1.8142
 4840TIP3   OH236078   1.351   3.870   3.560 -0.3148 -0.3730  0.0028
 4840TIP3    H136079   1.302   3.937   3.513  1.2243  1.7783  1.2901
 4840TIP3    H236080   1.409   3.833   3.494 -0.2837  0.4804 -0.4629
 4841TIP3   OH236081   5.881   6.041   2.555  0.4424 -0.3482 -0.1225
 4841TIP3    H136082   5.914   6.094   2.482  1.5032 -0.3720  0.3202
 4841TIP3    H236083   5.959   6.003   2.594  0.0035  0.4441  1.6409
 4842TIP3   OH236084   4.266   1.072   2.112 -0.6003 -0.2089 -0.7610
 4842TIP3    H136085   4.262   1.121   2.030 -0.6780  1.0969  0.0097
 4842TIP3    H236086   4.308   1.131   2.174  0.3391 -1.5261 -0.0873
 4843TIP3   OH236087   1.137   3.452   4.089 -0.5744  0.4616 -0.2758
 4843TIP3    H136088   1.218   3.403   4.102  0.1298  1.8292  0.9203
 4843TIP3    H236089   1.082   3.395   4.036  1.2934 -0.3709 -1.4296
 4844TIP3   OH236090   3.679   3.965   2.364  0.3975 -0.0726  0.5876
 4844TIP3    H136091   3.755   3.919   2.398  0.7752  0.1846  0.1030
 4844TIP3    H236092   3.604   3.910   2.387  0.7003 -0.1724  1.3325
 4845TIP3   OH236093   1.244   1.793   1.578 -0.2588 -0.3624  0.3508
 4845TIP3    H136094   1.181   1.839   1.522  0.9811 -0.8091 -1.5325
 4845TIP3    H236095   1.308   1.861   1.601 -0.4682 -0.3045  0.7617
 4846TIP3   OH236096   4.334   4.087   2.188 -0.0669 -0.4009  0.6541
 4846TIP3    H136097   4.246   4.091   2.148  0.3661  1.0871 -0.2434
 4846TIP3    H236098   4.384   4.154   2.141  0.7910  0.7041  2.9800
 4847TIP3   OH236099   6.598   1.319   1.944 -0.2878 -0.0201 -0.0703
 4847TIP3    H136100   6.683   1.349   1.979  0.9049 -2.9706 -0.1695
 4847TIP3    H236101   6.599   1.347   1.853  0.0633  0.9353  0.2061
 4848TIP3   OH236102   1.958   3.907   8.528 -0.2574  0.0277 -0.3275
 4848TIP3    H136103   1.915   3.868   8.451  0.1385  1.2180 -1.1972
 4848TIP3    H236104   2.027   3.963   8.491 -0.1884  0.7877  0.8890
 4849TIP3   OH236105   4.621   5.296   2.423  0.1627  0.2956 -0.6116
 4849TIP3    H136106   4.689   5.256   2.369  0.6707  1.9188 -1.2093
 4849TIP3    H236107   4.648   5.387   2.434 -0.1486  0.1538  2.0136
 4850TIP3   OH236108   5.940   3.878   2.482  0.0921  0.4027 -0.0404
 4850TIP3    H136109   5.956   3.790   2.449  1.2451  0.2540  0.8356
 4850TIP3    H236110   6.005   3.890   2.552 -2.0670  0.7364  2.0715
 4851TIP3   OH236111   4.088   3.740   7.607  0.4694 -0.1774  0.3355
 4851TIP3    H136112   4.018   3.784   7.655  0.3206 -0.8010  0.6975
 4851TIP3    H236113   4.127   3.680   7.670  0.7022 -0.5314 -0.1374
 4852TIP3   OH236114   3.950   0.536   7.384  0.1587 -0.5197 -0.2947
 4852TIP3    H136115   3.971   0.584   7.464 -1.8845  0.6978 -0.4226
 4852TIP3    H236116   3.930   0.447   7.414  1.4581 -0.6527  0.2557
 4853TIP3   OH236117   1.434   6.700   1.454  0.3734  0.4640 -0.3971
 4853TIP3    H136118   1.511   6.757   1.459  2.4432 -2.0382 -1.4210
 4853TIP3    H236119   1.416   6.676   1.545  0.5882  1.3066 -0.1225
 4854TIP3   OH236120   0.126   3.971   3.176  0.1536  0.5810  0.5447
 4854TIP3    H136121   0.053   3.951   3.118  0.6820 -0.5854  0.2412
 4854TIP3    H236122   0.099   3.938   3.261  1.2200 -2.0744 -0.0585
 4855TIP3   OH236123   2.835   1.427   7.545  0.1835  0.2635  0.1338
 4855TIP3    H136124   2.814   1.338   7.516  1.2635 -0.1993  0.6941
 4855TIP3    H236125   2.822   1.425   7.639 -0.4400  0.9086  0.0690
 4856TIP3   OH236126   6.092   6.525   3.163 -0.3449 -0.5925 -0.8366
 4856TIP3    H136127   6.000   6.505   3.182 -0.5905  0.0145 -1.3578
 4856TIP3    H236128   6.116   6.462   3.095 -0.7710  0.0838 -1.6353
 4857TIP3   OH236129   3.644   3.711   3.084 -0.1001  0.1588  0.6306
 4857TIP3    H136130   3.726   3.661   3.087 -0.1467 -0.0147 -0.4224
 4857TIP3    H236131   3.654   3.779   3.151  1.7920  1.4671 -0.8721
 4858TIP3   OH236132   6.304   5.954   2.616 -0.2692  0.3843  0.6409
 4858TIP3    H136133   6.330   6.031   2.666 -1.0880  2.4827 -1.9254
 4858TIP3    H236134   6.217   5.932   2.649 -0.3500  1.0374  0.8725
 4859TIP3   OH236135   2.288   6.751   0.560 -0.0432  0.2361  0.0025
 4859TIP3    H136136   2.374   6.794   0.564 -0.3985  0.9015  0.7813
 4859TIP3    H236137   2.235   6.810   0.506 -0.0392 -0.1346 -0.4111
 4860TIP3   OH236138   2.471   5.738   3.172 -0.1371  0.5935  0.1306
 4860TIP3    H136139   2.487   5.651   3.208 -1.0361  0.4600  0.2373
 4860TIP3    H236140   2.485   5.798   3.245  0.5681  0.5568  0.0350
 4861TIP3   OH236141   3.023   1.507   8.249 -0.3729 -0.1016  0.1552
 4861TIP3    H136142   3.100   1.562   8.236 -0.4050  0.4172  1.8786
 4861TIP3    H236143   3.053   1.435   8.305 -1.0568 -0.0426  0.6176
 4862TIP3   OH236144   6.748   3.937   3.075  0.4247 -0.6247  0.1189
 4862TIP3    H136145   6.732   3.987   2.994  2.6288 -0.5817 -0.3756
 4862TIP3    H236146   6.661   3.911   3.105 -0.5164 -0.0705 -1.9030
 4863TIP3   OH236147   0.258   5.969   1.174 -0.1416 -0.4651 -0.9253
 4863TIP3    H136148   0.255   6.060   1.145  0.2973 -0.8854 -2.3598
 4863TIP3    H236149   0.348   5.956   1.206 -0.2320 -0.3810 -0.6293
 4864TIP3   OH236150   4.489   3.304   0.215 -0.3708  0.2060  0.3034
 4864TIP3    H136151   4.573   3.285   0.257  0.8431 -0.4705 -2.2112
 4864TIP3    H236152   4.510   3.307   0.121 -3.3958 -1.5032 -0.5440
 4865TIP3   OH236153   5.936   2.072   0.639  0.4148 -0.4675  0.2577
 4865TIP3    H136154   6.021   2.035   0.663  1.1743  0.7270 -0.5054
 4865TIP3    H236155   5.889   2.080   0.722  1.7126  0.4806  0.9360
 4866TIP3   OH236156   2.308   4.628   2.428  0.9289 -0.0604  0.3337
 4866TIP3    H136157   2.299   4.596   2.518  1.2799  0.4769  0.5677
 4866TIP3    H236158   2.279   4.555   2.373 -0.6612  0.0879  0.9199
 4867TIP3   OH236159   2.033   2.653   1.992  0.2684  0.2600 -0.3707
 4867TIP3    H136160   2.033   2.688   2.082  0.9797  0.5724 -0.4856
 4867TIP3    H236161   2.055   2.560   2.003  0.1593  0.2529 -0.2039
 4868TIP3   OH236162   0.285   4.329   0.826 -0.2000  0.0435 -0.4577
 4868TIP3    H136163   0.259   4.237   0.826 -1.1571  0.2390  1.8115
 4868TIP3    H236164   0.294   4.351   0.919  0.6900  2.0606 -0.9746
 4869TIP3   OH236165   1.092   4.361   1.246 -0.0105  0.2958  0.6516
 4869TIP3    H136166   1.084   4.406   1.162 -0.0031  0.0038  0.4941
 4869TIP3    H236167   1.089   4.431   1.311  1.9858  0.7288  0.3273
 4870TIP3   OH236168   0.856   0.224   3.105 -0.2277 -0.4114 -0.5079
 4870TIP3    H136169   0.815   0.262   3.182 -1.5171 -2.6107 -0.0297
 4870TIP3    H236170   0.822   0.275   3.032  1.7429  2.3523  0.2901
 4871TIP3   OH236171   6.035   3.366   0.639  0.6863 -0.2605  0.0102
 4871TIP3    H136172   5.964   3.428   0.628  0.9441 -0.2106 -1.6554
 4871TIP3    H236173   6.098   3.411   0.696 -0.6946 -0.4357  1.7866
 4872TIP3   OH236174   5.139   5.364   1.611  0.6197 -0.0367  0.4470
 4872TIP3    H136175   5.228   5.392   1.588  0.5110 -0.1031 -0.0821
 4872TIP3    H236176   5.147   5.328   1.699  1.2811 -0.7787  0.1013
 4873TIP3   OH236177   1.758   2.848   3.638 -0.0350 -0.3779  0.4274
 4873TIP3    H136178   1.841   2.833   3.593  0.5715  1.6534  0.7573
 4873TIP3    H236179   1.738   2.764   3.679  1.5192 -1.0979 -0.1743
 4874TIP3   OH236180   4.897   2.699   8.325  0.1694 -0.5886  0.5577
 4874TIP3    H136181   4.949   2.734   8.253  0.2498 -0.6442  0.5895
 4874TIP3    H236182   4.845   2.774   8.356 -0.0451 -0.6244  0.2852
 4875TIP3   OH236183   4.216   5.938   0.350  0.4591 -0.4556  0.2978
 4875TIP3    H136184   4.161   5.962   0.424  0.8952  1.0977  0.1639
 4875TIP3    H236185   4.186   5.995   0.279  3.1978  1.6951  0.6429
 4876TIP3   OH236186   3.314   3.556   8.206  0.4342 -0.0118  0.5778
 4876TIP3    H136187   3.269   3.580   8.287 -0.4261 -1.5757  0.5959
 4876TIP3    H236188   3.247   3.563   8.138 -0.1465 -3.0220  0.7035
 4877TIP3   OH236189   1.642   1.016   0.883  0.0758  0.1842  0.2339
 4877TIP3    H136190   1.708   1.081   0.909  1.0554 -0.2289 -1.0838
 4877TIP3    H236191   1.693   0.939   0.857 -0.9541 -0.3692 -0.2159
 4878TIP3   OH236192   0.532   4.088   2.927 -0.1899 -0.1945  0.0147
 4878TIP3    H136193   0.605   4.150   2.920 -0.0555 -0.2475  0.8755
 4878TIP3    H236194   0.563   4.011   2.878  0.0560  0.0294 -0.1907
 4879TIP3   OH236195   3.805   5.080   1.788  0.6211  0.4717  0.5090
 4879TIP3    H136196   3.716   5.115   1.792 -0.1794 -1.2305 -1.1710
 4879TIP3    H236197   3.861   5.158   1.793 -0.8771  1.5043  2.5792
 4880TIP3   OH236198   0.605   6.867   0.352  0.0962  0.8671 -0.2674
 4880TIP3    H136199   0.572   6.816   0.426 -1.2833  2.0610 -0.0143
 4880TIP3    H236200   0.594   6.958   0.379  1.0155  1.3177 -1.3441
 4881TIP3   OH236201   2.341   4.232   2.982 -0.2457  0.3861 -0.0026
 4881TIP3    H136202   2.252   4.255   2.957 -0.2619 -0.8389 -1.2047
 4881TIP3    H236203   2.334   4.198   3.072 -0.8706  0.9597  0.1635
 4882TIP3   OH236204   3.629   0.105   8.618 -0.9031  0.3600  0.3847
 4882TIP3    H136205   3.659   0.054   8.693  0.1867 -0.9907 -0.9030
 4882TIP3    H236206   3.708   0.148   8.585 -0.7371 -1.3649 -1.6578
 4883TIP3   OH236207   4.198   3.798   8.097 -0.3453  0.5681 -0.5547
 4883TIP3    H136208   4.259   3.778   8.027  0.0104  1.3518 -0.4744
 4883TIP3    H236209   4.239   3.869   8.146 -1.0959  0.7811 -0.2133
 4884TIP3   OH236210   6.032   3.012   3.211 -0.7009 -0.3290  0.1837
 4884TIP3    H136211   6.043   3.020   3.305  0.0186 -0.9916  0.1650
 4884TIP3    H236212   5.953   2.960   3.201 -0.5343 -0.6305  0.4285
 4885TIP3   OH236213   6.718   4.861   0.855 -0.2991 -0.6394 -0.0925
 4885TIP3    H136214   6.802   4.882   0.814 -0.1072 -1.4148 -0.1140
 4885TIP3    H236215   6.656   4.923   0.815  0.6149  1.4803  1.5474
 4886TIP3   OH236216   6.509   2.986   1.186  0.0363 -0.0344 -0.4025
 4886TIP3    H136217   6.430   2.956   1.140  1.0735 -2.3135 -0.8536
 4886TIP3    H236218   6.478   3.006   1.275 -1.1377 -0.5292 -0.6679
 4887TIP3   OH236219   6.453   2.968   2.686  0.3423  0.2907 -0.1095
 4887TIP3    H136220   6.367   3.009   2.692 -0.8799 -1.9971 -0.5012
 4887TIP3    H236221   6.438   2.877   2.714  2.0852 -0.8393 -2.4773
 4888TIP3   OH236222   1.371   2.508   7.647  0.0890 -0.2871 -0.5471
 4888TIP3    H136223   1.431   2.539   7.714  0.7608  0.4022 -1.4534
 4888TIP3    H236224   1.368   2.578   7.582 -3.2473  0.6546  0.3718
 4889TIP3   OH236225   4.521   3.629   0.302  0.3865 -0.1172 -0.4186
 4889TIP3    H136226   4.472   3.570   0.360 -1.2263  1.1120 -0.4430
 4889TIP3    H236227   4.494   3.604   0.214 -0.1388  0.4662 -0.4373
 4890TIP3   OH236228   6.173   6.060   2.419  0.1032 -0.8142  0.4405
 4890TIP3    H136229   6.242   6.067   2.353 -0.2243  0.1227  0.1840
 4890TIP3    H236230   6.208   5.999   2.483  1.2468 -0.2514  0.3872
 4891TIP3   OH236231   0.894   5.884   1.194  0.3360 -0.5657  0.2320
 4891TIP3    H136232   0.950   5.962   1.198 -0.0502 -0.1752 -1.2197
 4891TIP3    H236233   0.956   5.812   1.180  0.5831 -0.2992 -0.0885
 4892TIP3   OH236234   6.078   1.599   2.776 -0.5383  0.1113  0.0488
 4892TIP3    H136235   6.114   1.518   2.812  1.1379  0.5927 -0.4486
 4892TIP3    H236236   6.060   1.579   2.684 -0.4886  0.1909  0.0214
 4893TIP3   OH236237   6.739   1.189   2.215 -0.5091 -0.1717  0.1313
 4893TIP3    H136238   6.742   1.107   2.166 -0.3604  0.9768 -1.8820
 4893TIP3    H236239   6.646   1.212   2.219 -0.5228 -0.2711  0.4234
 4894TIP3   OH236240   1.117   1.585   8.371 -0.1726  0.4813 -0.0221
 4894TIP3    H136241   1.134   1.623   8.285  1.7984 -0.8618 -0.2819
 4894TIP3    H236242   1.076   1.656   8.420 -2.7973  0.8229 -2.4710
 4895TIP3   OH236243   1.636   4.287   0.791  0.7806  0.1190  0.2356
 4895TIP3    H136244   1.550   4.328   0.800  1.2221  0.9079  1.0480
 4895TIP3    H236245   1.645   4.232   0.869  0.6710 -0.6158 -0.2675
 4896TIP3   OH236246   5.079   4.034   1.839  0.0259  0.3657 -0.0086
 4896TIP3    H136247   4.989   4.025   1.810  0.1445 -0.3765 -0.1757
 4896TIP3    H236248   5.117   4.101   1.783 -1.0702  2.4829  1.6490
 4897TIP3   OH236249   2.551   1.821   2.093  0.3908 -0.4885 -0.1961
 4897TIP3    H136250   2.639   1.858   2.102  0.3754 -0.2573 -0.9209
 4897TIP3    H236251   2.546   1.793   2.002  0.0048 -1.2758  0.0562
 4898TIP3   OH236252   4.778   2.736   0.819  0.2251 -0.5415 -0.3731
 4898TIP3    H136253   4.799   2.812   0.874 -2.3200  0.5667 -0.7827
 4898TIP3    H236254   4.706   2.766   0.764 -0.3929 -3.0687 -1.0438
 4899TIP3   OH236255   3.554   1.265   8.555 -0.5568  0.4066  0.5474
 4899TIP3    H136256   3.560   1.171   8.540  0.1237  0.7027 -1.2351
 4899TIP3    H236257   3.490   1.274   8.627  0.8592 -1.4938  2.1456
 4900TIP3   OH236258   6.834   0.185   0.454 -0.1227  0.2400 -0.4897
 4900TIP3    H136259   6.769   0.145   0.398 -0.0091 -1.1436  0.3031
 4900TIP3    H236260   6.914   0.135   0.438 -0.2231 -0.5791  1.2564
 4901TIP3   OH236261   4.123   1.065   0.958 -0.1145 -0.3737 -0.0411
 4901TIP3    H136262   4.079   1.150   0.957  0.1768 -0.0743  2.8480
 4901TIP3    H236263   4.184   1.069   0.885 -3.1228  0.0885 -2.7572
 4902TIP3   OH236264   0.724   5.521   1.049  0.4201  0.3243 -0.4976
 4902TIP3    H136265   0.730   5.616   1.065 -1.0046  0.3116  0.3325
 4902TIP3    H236266   0.814   5.493   1.038  1.1191  1.3580  1.8986
 4903TIP3   OH236267   2.893   2.168   1.824 -0.1222 -0.2658  0.6343
 4903TIP3    H136268   2.822   2.126   1.873  1.3715 -2.1700  1.2684
 4903TIP3    H236269   2.894   2.122   1.739 -0.7852  1.0072 -0.0949
 4904TIP3   OH236270   4.655   3.455   0.524 -0.0219 -0.0202 -0.1005
 4904TIP3    H136271   4.572   3.435   0.567 -1.5364  1.1571 -2.3121
 4904TIP3    H236272   4.652   3.407   0.442  1.9664 -0.7370  0.1990
 4905TIP3   OH236273   5.739   3.077   3.993  0.0389 -0.4637 -0.6426
 4905TIP3    H136274   5.790   3.150   4.029  0.7924 -2.0272  1.7026
 4905TIP3    H236275   5.650   3.111   3.986  0.5460  0.9535 -0.4581
 4906TIP3   OH236276   0.419   3.172   1.141 -0.2020 -0.1867 -0.2201
 4906TIP3    H136277   0.411   3.163   1.236 -0.0672  1.3130 -0.0433
 4906TIP3    H236278   0.498   3.124   1.118 -1.3927 -2.4344  0.0883
 4907TIP3   OH236279   3.513   5.070   3.007  0.5377  0.0484 -0.3727
 4907TIP3    H136280   3.545   5.086   3.096  0.3048  1.3149 -0.5012
 4907TIP3    H236281   3.592   5.071   2.953  0.5150  1.0947 -0.4087
 4908TIP3   OH236282   2.483   3.315   3.800 -0.6165  0.2373  0.3513
 4908TIP3    H136283   2.400   3.274   3.774 -1.3334  0.5245  2.0378
 4908TIP3    H236284   2.486   3.397   3.751 -0.4508 -0.5809 -1.0549
 4909TIP3   OH236285   0.381   2.320   0.543 -0.0507  0.3863 -0.9217
 4909TIP3    H136286   0.462   2.302   0.591  0.0743 -1.3480 -1.7089
 4909TIP3    H236287   0.373   2.416   0.545  2.2173  0.6459 -1.1505
 4910TIP3   OH236288   3.260   4.950   1.043  0.4696 -0.0960  0.6622
 4910TIP3    H136289   3.324   4.891   1.083  2.2941  0.6342 -0.9964
 4910TIP3    H236290   3.215   4.897   0.978  0.4529 -0.2607  0.8094
 4911TIP3   OH236291   2.294   1.978   2.472  0.4517 -0.0782  0.1381
 4911TIP3    H136292   2.278   1.970   2.378 -0.5164  0.1886  0.2684
 4911TIP3    H236293   2.279   2.071   2.491  1.1819 -0.0237  0.4623
 4912TIP3   OH236294   6.697   0.955   2.074  0.3503 -0.2390 -0.0588
 4912TIP3    H136295   6.767   0.895   2.051  0.5163  0.0890 -0.4149
 4912TIP3    H236296   6.623   0.927   2.020  0.4021 -0.1771 -0.1625
 4913TIP3   OH236297   3.760   6.210   8.204 -0.1397  0.6952 -0.0893
 4913TIP3    H136298   3.744   6.292   8.250 -2.5654 -1.2050  2.8581
 4913TIP3    H236299   3.681   6.195   8.153  0.2855  0.1769 -0.6140
 4914TIP3   OH236300   4.114   5.880   2.398 -0.3717  0.4850 -0.4753
 4914TIP3    H136301   4.120   5.791   2.364 -2.0423  0.6486 -1.3192
 4914TIP3    H236302   4.189   5.889   2.457 -0.0284 -1.3803 -0.5738
 4915TIP3   OH236303   3.863   4.925   3.157 -0.2747  0.2770  0.2552
 4915TIP3    H136304   3.896   4.868   3.227 -0.5634 -0.4631 -0.2016
 4915TIP3    H236305   3.838   5.006   3.201 -2.5449 -0.9549  1.3749
 4916TIP3   OH236306   1.995   2.053   3.040  0.3612  0.6401  0.4986
 4916TIP3    H136307   1.919   2.066   2.984 -0.6614 -0.0364  1.6647
 4916TIP3    H236308   1.966   1.990   3.106  1.8659  0.5370  1.1234
 4917TIP3   OH236309   3.221   1.582   2.869  0.2289 -0.2507  0.3735
 4917TIP3    H136310   3.265   1.618   2.791 -1.2174  2.6665  0.7667
 4917TIP3    H236311   3.128   1.589   2.849 -0.1632 -2.5715  1.1347
 4918TIP3   OH236312   3.488   4.135   1.460  0.3996 -0.5676 -0.0415
 4918TIP3    H136313   3.401   4.136   1.500  0.4293 -1.8435  0.1135
 4918TIP3    H236314   3.477   4.085   1.379  0.8124  0.0167 -0.4681
 4919TIP3   OH236315   2.796   0.596   3.791 -0.4084 -0.0756 -0.3089
 4919TIP3    H136316   2.780   0.666   3.728 -1.1979 -0.4054 -0.4825
 4919TIP3    H236317   2.819   0.641   3.872 -0.2553  0.3685 -0.6000
 4920TIP3   OH236318   3.705   0.375   8.285 -0.1877  0.6188  0.5029
 4920TIP3    H136319   3.624   0.349   8.241 -1.3538  1.0665  2.2988
 4920TIP3    H236320   3.766   0.394   8.213 -1.7866  0.6799 -0.9010
 4921TIP3   OH236321   1.719   3.762   2.710 -0.4890 -0.4010  0.1857
 4921TIP3    H136322   1.714   3.675   2.669  0.1001 -0.4422  0.1909
 4921TIP3    H236323   1.738   3.744   2.802  0.4977 -0.2613  0.0292
 4922TIP3   OH236324   6.265   1.688   8.518  0.2081 -0.0726  0.0364
 4922TIP3    H136325   6.343   1.734   8.489  0.3752  0.3802  1.1604
 4922TIP3    H236326   6.249   1.720   8.607 -0.4766 -1.1521  0.3279
 4923TIP3   OH236327   6.156   1.747   2.006  0.2860  0.8839 -0.1300
 4923TIP3    H136328   6.105   1.824   2.032 -2.3153 -0.7734  0.0656
 4923TIP3    H236329   6.136   1.736   1.913  2.1685  1.4625 -0.6493
 4924TIP3   OH236330   5.294   6.758   2.795  0.2519  0.1134  0.0591
 4924TIP3    H136331   5.219   6.738   2.740  0.7708 -1.2930 -0.1832
 4924TIP3    H236332   5.257   6.809   2.868 -0.8083  0.0348 -0.3998
 4925TIP3   OH236333   1.325   4.260   0.557  0.4021 -0.0860 -0.5336
 4925TIP3    H136334   1.290   4.187   0.505 -2.1729 -0.4394  1.5166
 4925TIP3    H236335   1.272   4.335   0.531  0.5866  0.2310  0.0025
 4926TIP3   OH236336   1.532   1.469   3.654 -0.3315 -0.0752  0.0521
 4926TIP3    H136337   1.607   1.448   3.711  0.7439 -0.3069 -1.4005
 4926TIP3    H236338   1.481   1.388   3.652  0.6387 -0.6969 -0.7776
 4927TIP3   OH236339   0.134   6.348   0.124 -0.2541 -0.1113 -0.0109
 4927TIP3    H136340   0.074   6.348   0.050  0.4447  2.6126 -0.6484
 4927TIP3    H236341   0.104   6.420   0.180  2.3485  1.3359 -0.3421
 4928TIP3   OH236342   5.934   4.385   2.146 -0.0904  0.2900  0.1232
 4928TIP3    H136343   5.989   4.307   2.137 -1.3434 -0.9479  2.1966
 4928TIP3    H236344   5.847   4.350   2.167 -0.8076  2.2378  0.6005
 4929TIP3   OH236345   2.398   1.466   0.001  0.0271 -0.0485 -0.0114
 4929TIP3    H136346   2.426   1.424  -0.080 -0.3481  1.0771 -0.7314
 4929TIP3    H236347   2.308   1.435   0.014  0.0528 -0.1490 -0.0719
 4930TIP3   OH236348   3.992   4.680   0.159  0.3892 -0.4659 -0.6377
 4930TIP3    H136349   3.899   4.660   0.155  0.0246  0.6744  1.2555
 4930TIP3    H236350   4.026   4.624   0.228  0.7926  0.2360 -0.2597
 4931TIP3   OH236351   5.915   6.193   0.416  0.1925  0.5490  0.1949
 4931TIP3    H136352   5.899   6.287   0.405 -1.1166  0.1841 -1.4438
 4931TIP3    H236353   5.910   6.158   0.327 -0.7046 -1.2686  0.9135
 4932TIP3   OH236354   1.811   4.002   1.531  0.4937 -0.2769  0.5716
 4932TIP3    H136355   1.830   4.095   1.525  2.0273 -0.4607  2.0512
 4932TIP3    H236356   1.792   3.987   1.624  1.1607 -1.5919  0.5118
 4933TIP3   OH236357   1.124   5.006   1.794 -0.3648  0.0236 -0.7746
 4933TIP3    H136358   1.207   5.048   1.814 -1.2347  0.8557  1.4413
 4933TIP3    H236359   1.120   4.932   1.855 -1.2562 -0.0069 -0.8618
 4934TIP3   OH236360   0.863   1.187   2.984 -0.2428  0.6291 -0.1008
 4934TIP3    H136361   0.913   1.268   2.981  1.0266 -0.1436 -0.8035
 4934TIP3    H236362   0.893   1.143   3.064  0.1487  0.2050 -0.4745
 4935TIP3   OH236363   5.479   2.240   7.629  0.3125 -0.0812  0.6278
 4935TIP3    H136364   5.392   2.278   7.643  0.6669  0.3729  1.7429
 4935TIP3    H236365   5.535   2.285   7.693  1.4050 -0.2422 -0.1920
 4936TIP3   OH236366   5.357   1.611   0.161  0.1701 -0.4190 -0.5090
 4936TIP3    H136367   5.354   1.705   0.179  0.0021  0.1732 -3.3120
 4936TIP3    H236368   5.272   1.591   0.123 -0.2498 -2.0144  1.1066
 4937TIP3   OH236369   0.708   3.929   8.278 -0.1907 -0.1773 -0.3804
 4937TIP3    H136370   0.757   3.864   8.228  1.6568 -0.9803  2.2377
 4937TIP3    H236371   0.740   4.013   8.245  1.1883 -0.6811 -0.4010
 4938TIP3   OH236372   2.699   5.372   1.498  0.1192 -0.2894  0.1862
 4938TIP3    H136373   2.761   5.413   1.557  1.4579 -0.5853 -0.9665
 4938TIP3    H236374   2.707   5.278   1.515  0.4928 -0.3752 -0.4328
 4939TIP3   OH236375   0.962   6.222   8.388  0.0870  0.2929 -0.4376
 4939TIP3    H136376   0.972   6.235   8.482 -0.4897  0.5591 -0.4098
 4939TIP3    H236377   1.021   6.285   8.348  0.7323 -0.1805 -0.2561
 4940TIP3   OH236378   6.289   6.820   1.776  0.3786  0.7583  0.6636
 4940TIP3    H136379   6.200   6.849   1.755  0.1913 -0.2190  0.0366
 4940TIP3    H236380   6.283   6.787   1.865 -0.6618 -2.1060 -0.3261
 4941TIP3   OH236381   2.150   2.538   0.702  0.2009  0.2793  0.8370
 4941TIP3    H136382   2.226   2.535   0.760 -0.1711 -0.2317  1.3122
 4941TIP3    H236383   2.174   2.481   0.628 -0.0334 -0.5518  1.3881
 4942TIP3   OH236384   2.471   3.310   3.131  0.2812 -0.3659  0.1328
 4942TIP3    H136385   2.449   3.402   3.144 -0.0914 -0.4238 -0.0494
 4942TIP3    H236386   2.523   3.286   3.207  0.6266  0.0714  0.0384
 4943TIP3   OH236387   2.260   6.487   2.552 -0.1570  0.7830  0.4818
 4943TIP3    H136388   2.206   6.468   2.629 -0.3468 -0.7269  0.0096
 4943TIP3    H236389   2.197   6.515   2.486 -0.7533 -2.5869 -0.6133
 4944TIP3   OH236390   4.906   1.498   1.613 -0.0532  0.2956  0.2417
 4944TIP3    H136391   4.980   1.554   1.635  1.7979 -2.6972  2.3601
 4944TIP3    H236392   4.835   1.529   1.669  1.2935 -0.1341  2.2830
 4945TIP3   OH236393   1.624   1.124   3.316  0.5045 -0.0925 -0.2141
 4945TIP3    H136394   1.633   1.175   3.396  1.3884  1.5834 -1.3015
 4945TIP3    H236395   1.554   1.061   3.334 -0.5559  1.4288  1.2751
 4946TIP3   OH236396   3.602   5.030   3.321 -0.8064 -0.3291 -0.4669
 4946TIP3    H136397   3.582   5.032   3.415 -1.5391 -1.0061 -0.6034
 4946TIP3    H236398   3.679   5.087   3.312  0.2285 -1.4626  0.7661
 4947TIP3   OH236399   6.225   4.011   7.729  0.0349  0.3186  0.1029
 4947TIP3    H136400   6.240   4.074   7.658 -0.7614 -0.3129 -0.6398
 4947TIP3    H236401   6.284   3.939   7.711  0.0101  0.2660  0.2262
 4948TIP3   OH236402   6.408   4.999   1.125 -0.5562  0.0465 -0.0033
 4948TIP3    H136403   6.370   5.009   1.212  0.8307 -3.6748  1.2311
 4948TIP3    H236404   6.357   4.930   1.084  0.0092  0.4326 -1.4420
 4949TIP3   OH236405   2.891   3.993   0.476  0.0730  0.5652 -0.5061
 4949TIP3    H136406   2.955   4.046   0.428 -0.8943  2.8748  0.6113
 4949TIP3    H236407   2.813   4.047   0.479 -1.3868 -1.4631 -0.2933
 4950TIP3   OH236408   6.274   2.014   2.620  0.4611  0.1201 -0.1538
 4950TIP3    H136409   6.266   2.043   2.711 -0.5997 -0.7040  0.0373
 4950TIP3    H236410   6.365   1.989   2.610  0.4598 -0.3202  0.8512
 4951TIP3   OH236411   2.061   4.432   1.404  0.2807 -0.1736  0.3221
 4951TIP3    H136412   2.035   4.480   1.325  0.6400  0.4517  0.5702
 4951TIP3    H236413   2.069   4.500   1.471  0.4468 -0.6346  0.7736
 4952TIP3   OH236414   6.335   2.328   7.872 -0.7365 -0.0118  0.4440
 4952TIP3    H136415   6.396   2.351   7.942 -0.3280  0.0858  0.0626
 4952TIP3    H236416   6.390   2.321   7.794 -1.1440 -0.3996  0.1874
 4953TIP3   OH236417   1.483   5.407   1.071 -0.5307 -0.2179  0.3746
 4953TIP3    H136418   1.441   5.386   0.988 -2.4465 -1.2589  1.5230
 4953TIP3    H236419   1.444   5.491   1.097  1.6726  1.2474 -0.7198
 4954TIP3   OH236420   4.577   0.082   2.187 -0.5441  0.6817  0.4372
 4954TIP3    H136421   4.528   0.023   2.244  1.6732 -2.3064 -0.5509
 4954TIP3    H236422   4.533   0.075   2.102 -0.8365  1.2125  0.5410
 4955TIP3   OH236423   3.209   2.971   1.764  0.4926  0.0388  0.3833
 4955TIP3    H136424   3.161   3.049   1.795 -0.0051 -0.7646  1.7097
 4955TIP3    H236425   3.175   2.957   1.676  0.2538  1.0615  0.2900
 4956TIP3   OH236426   2.471   2.011   3.448 -0.2802  0.0748  0.4112
 4956TIP3    H136427   2.390   2.058   3.470 -0.5944  0.5645 -1.6258
 4956TIP3    H236428   2.518   2.005   3.531 -2.8150 -1.0819  1.8836
 4957TIP3   OH236429   5.589   0.860   2.178 -0.4566  0.0540 -0.0247
 4957TIP3    H136430   5.667   0.877   2.124 -0.9945  1.6902 -0.3582
 4957TIP3    H236431   5.623   0.856   2.267 -0.0644  1.8166 -0.0466
 4958TIP3   OH236432   1.305   4.727   8.638 -0.9536  0.2351  0.3228
 4958TIP3    H136433   1.275   4.800   8.691  0.1343  0.3921  0.7482
 4958TIP3    H236434   1.399   4.721   8.656 -0.8135 -0.5443 -0.5764
 4959TIP3   OH236435   1.004   1.081   3.215 -0.6747  0.0102  0.5940
 4959TIP3    H136436   1.084   1.104   3.262  0.0312  0.6950 -0.8709
 4959TIP3    H236437   0.933   1.101   3.276  0.2738 -1.8280  2.4224
 4960TIP3   OH236438   3.435   6.385   8.376  0.0768 -0.2188 -0.1592
 4960TIP3    H136439   3.443   6.331   8.297 -0.4347  0.3496 -0.6078
 4960TIP3    H236440   3.507   6.448   8.369  1.1082 -1.2433  0.7120
 4961TIP3   OH236441   0.034   0.583   3.327 -0.1129  0.0521 -0.0681
 4961TIP3    H136442  -0.057   0.584   3.300 -0.2976 -0.5354  0.5007
 4961TIP3    H236443   0.031   0.605   3.420 -0.1222 -3.9661  1.0803
 4962TIP3   OH236444   5.750   3.430   1.368 -0.3456  0.0071 -0.3217
 4962TIP3    H136445   5.801   3.511   1.374 -0.2707 -0.1409  1.5094
 4962TIP3    H236446   5.666   3.451   1.410 -1.1985 -0.2343 -1.8378
 4963TIP3   OH236447   1.322   4.994   2.664 -0.4579 -0.0936  0.3274
 4963TIP3    H136448   1.411   4.977   2.631 -0.0641  1.0726  0.7297
 4963TIP3    H236449   1.334   5.060   2.733 -1.6408  0.1257  0.3484
 4964TIP3   OH236450   5.808   3.582   7.871 -1.0514 -0.3163 -0.1295
 4964TIP3    H136451   5.868   3.516   7.835 -0.1390  0.3531  0.1081
 4964TIP3    H236452   5.738   3.588   7.807  0.4847  0.7792 -1.8278
 4965TIP3   OH236453   4.878   0.427   2.390 -0.6975 -0.7894  0.0402
 4965TIP3    H136454   4.833   0.361   2.444 -0.0372  0.2195  1.9074
 4965TIP3    H236455   4.815   0.498   2.382 -0.6957 -0.8267 -0.3299
 4966TIP3   OH236456   3.716   4.226   0.024  0.2433  0.1496  0.0935
 4966TIP3    H136457   3.764   4.144   0.016 -0.9923 -0.6741  0.7855
 4966TIP3    H236458   3.718   4.246   0.118 -3.0528 -1.3983  0.6225
 4967TIP3   OH236459   4.724   5.175   2.664  0.4479 -0.3006  0.1531
 4967TIP3    H136460   4.732   5.242   2.732  2.2060 -0.4282  0.1175
 4967TIP3    H236461   4.703   5.224   2.584  3.3034  0.5117 -0.2329
 4968TIP3   OH236462   0.645   0.078   3.288  0.0708  0.0799  0.5327
 4968TIP3    H136463   0.621   0.170   3.280 -0.1039  0.2015  2.1145
 4968TIP3    H236464   0.660   0.065   3.381 -0.0218 -1.5238  0.3557
 4969TIP3   OH236465   6.645   5.436   1.629 -0.5843 -0.2885 -0.0150
 4969TIP3    H136466   6.615   5.526   1.618 -1.3647 -0.5652 -0.2598
 4969TIP3    H236467   6.691   5.415   1.548 -2.3142 -0.8143 -0.9096
 4970TIP3   OH236468   1.402   2.440   2.954  0.5496  0.1542 -0.2379
 4970TIP3    H136469   1.412   2.534   2.937  1.0208 -0.0471 -1.2140
 4970TIP3    H236470   1.482   2.416   3.001  0.3260  0.2839  0.2078
 4971TIP3   OH236471   0.460   5.202   2.426  0.0351 -0.0566  0.5934
 4971TIP3    H136472   0.472   5.178   2.334  2.5992  3.0407 -0.0751
 4971TIP3    H236473   0.500   5.130   2.475  0.8679 -0.6204 -0.8566
 4972TIP3   OH236474   1.191   3.113   2.774 -0.1580  0.4134  0.3965
 4972TIP3    H136475   1.170   3.206   2.781  1.4620  0.6884  3.4439
 4972TIP3    H236476   1.181   3.079   2.863 -0.0505 -2.2223 -0.4923
 4973TIP3   OH236477   5.928   1.233   8.608  0.5830 -0.0694  0.2708
 4973TIP3    H136478   5.839   1.255   8.581  0.7610  0.4415  0.1025
 4973TIP3    H236479   5.984   1.289   8.555  0.9370  0.8359  1.5533
 4974TIP3   OH236480   5.035   2.616   0.274  0.3744  0.5242 -0.1614
 4974TIP3    H136481   5.057   2.691   0.329 -0.6669  1.3211 -0.7853
 4974TIP3    H236482   4.950   2.639   0.235 -1.3633 -2.1059  1.7236
 4975TIP3   OH236483   4.155   4.915   3.458  0.1329  0.6764  0.4388
 4975TIP3    H136484   4.153   4.985   3.523  1.5057 -0.2608  1.5500
 4975TIP3    H236485   4.236   4.930   3.410  0.7228 -0.4321  1.0492
 4976TIP3   OH236486   3.341   0.451   3.145  0.2254  0.0435 -0.6149
 4976TIP3    H136487   3.435   0.446   3.126  1.1014  2.5628  2.3078
 4976TIP3    H236488   3.331   0.405   3.228 -0.3139  2.8954  1.0282
 4977TIP3   OH236489   0.701   5.722   1.291 -0.1213  0.4839  0.0428
 4977TIP3    H136490   0.767   5.684   1.350  0.2285  1.3718  0.2433
 4977TIP3    H236491   0.746   5.796   1.250 -0.1165 -0.5713 -1.9370
 4978TIP3   OH236492   0.679   3.032   1.196 -0.2731  0.0797  0.1025
 4978TIP3    H136493   0.698   3.094   1.266  2.3437 -0.9632  0.4135
 4978TIP3    H236494   0.764   3.013   1.157 -1.0262 -2.8440 -0.3539
 4979TIP3   OH236495   0.608   0.014   0.816  0.5458 -0.4949  0.3307
 4979TIP3    H136496   0.677   0.044   0.757 -0.6827 -0.2669 -1.0521
 4979TIP3    H236497   0.543   0.085   0.814  1.2805  0.4407  3.4993
 4980TIP3   OH236498   6.234   3.022   0.046  0.3277  0.4064  0.2971
 4980TIP3    H136499   6.186   3.104   0.058 -0.8785  0.1137 -1.9280
 4980TIP3    H236500   6.177   2.956   0.085 -0.8594  0.1425 -1.7596
 4981TIP3   OH236501   4.092   2.695   3.904 -0.1167 -0.1183  0.3555
 4981TIP3    H136502   4.135   2.729   3.826 -1.4239  2.2393  0.5589
 4981TIP3    H236503   4.164   2.671   3.962  0.8719 -1.1971 -1.2379
 4982TIP3   OH236504   2.164   6.070   0.228 -0.6710 -0.0997  0.2862
 4982TIP3    H136505   2.101   5.999   0.217 -1.0068  0.3186 -0.6245
 4982TIP3    H236506   2.152   6.098   0.319 -1.4770 -0.3354  0.2645
 4983TIP3   OH236507   5.188   1.611   1.585  0.2297  0.2962  0.0071
 4983TIP3    H136508   5.268   1.614   1.533  0.3463 -3.1453 -0.2534
 4983TIP3    H236509   5.179   1.519   1.610 -2.7945  0.8452  1.4123
 4984TIP3   OH236510   5.451   4.597   0.410  0.0804  0.3246 -0.0300
 4984TIP3    H136511   5.412   4.633   0.330  1.2028  0.0910 -0.7079
 4984TIP3    H236512   5.478   4.675   0.460 -0.7511  0.4734  0.2020
 4985TIP3   OH236513   1.209   0.902   8.500  0.1268 -0.5236 -0.0756
 4985TIP3    H136514   1.212   0.965   8.428  0.2323 -0.5107 -0.0599
 4985TIP3    H236515   1.256   0.944   8.572 -1.3378  0.1305  0.5425
 4986TIP3   OH236516   5.248   2.501   8.460 -0.5200  0.2570 -0.2007
 4986TIP3    H136517   5.247   2.568   8.392 -0.9190 -1.6860 -2.2206
 4986TIP3    H236518   5.288   2.544   8.536  2.5380  1.7292 -2.4681
 4987TIP3   OH236519   2.846   4.679   2.244 -0.0438  0.0410  0.0449
 4987TIP3    H136520   2.784   4.668   2.315 -0.7330 -0.4419 -0.6108
 4987TIP3    H236521   2.795   4.716   2.172  1.3058  3.7351  0.7975
 4988TIP3   OH236522   6.034   2.536   3.252 -0.4937 -0.0127 -0.3272
 4988TIP3    H136523   6.092   2.525   3.177  0.8267 -0.6265  0.7317
 4988TIP3    H236524   5.958   2.481   3.233 -0.0962 -0.2970 -1.1227
 4989TIP3   OH236525   5.077   0.716   2.495 -0.2113  0.4228  0.4926
 4989TIP3    H136526   5.116   0.634   2.467  1.1290  1.2975 -0.3159
 4989TIP3    H236527   5.007   0.732   2.432 -0.1780  0.1339  0.3817
 4990TIP3   OH236528   5.452   2.769   2.444 -0.6437 -0.0590 -0.2079
 4990TIP3    H136529   5.439   2.766   2.349 -0.4941 -1.3294 -0.2005
 4990TIP3    H236530   5.546   2.754   2.455 -0.3392  1.8734  0.0749
 4991TIP3   OH236531   0.011   0.116   8.417 -0.5268  0.3150 -0.3126
 4991TIP3    H136532   0.066   0.094   8.342 -1.0428 -0.3585 -0.5037
 4991TIP3    H236533  -0.018   0.032   8.451 -3.0052  0.6177 -1.3998
 4992TIP3   OH236534   4.674   6.023   8.115  0.1613 -0.3153 -0.0452
 4992TIP3    H136535   4.662   6.096   8.054  1.0125 -1.5431 -1.7981
 4992TIP3    H236536   4.649   5.946   8.064  2.6541 -1.5818  0.5011
 4993TIP3   OH236537   2.579   4.645   0.257  0.3023  0.3507  0.7093
 4993TIP3    H136538   2.588   4.571   0.197 -0.3762  2.1424 -1.7644
 4993TIP3    H236539   2.484   4.658   0.264  0.4276  1.5294  0.3580
 4994TIP3   OH236540   6.174   2.316   0.709  0.0454 -0.3928  0.2007
 4994TIP3    H136541   6.178   2.307   0.614  1.3150 -1.6459  0.3429
 4994TIP3    H236542   6.081   2.325   0.729 -0.2533 -0.4183 -1.1312
 4995TIP3   OH236543   2.398   4.649   8.649  0.4443  0.5546  0.2334
 4995TIP3    H136544   2.481   4.611   8.617 -0.8471 -0.8370 -1.7331
 4995TIP3    H236545   2.391   4.733   8.604  0.1364  0.0161 -0.7607
 4996TIP3   OH236546   5.044   4.510   0.097 -0.3058 -0.3448  0.7046
 4996TIP3    H136547   5.091   4.586   0.131 -0.4156 -1.2781  3.1144
 4996TIP3    H236548   5.103   4.475   0.030  1.1493  0.1717  1.6478
 4997TIP3   OH236549   1.627   5.087   2.689 -1.3237 -0.2607 -0.2414
 4997TIP3    H136550   1.652   5.129   2.771  0.1964 -0.8840 -0.3373
 4997TIP3    H236551   1.579   5.154   2.641  1.2593  1.5474 -0.5082
 4998TIP3   OH236552   4.457   4.361   1.041 -0.6849 -0.1618  0.7513
 4998TIP3    H136553   4.409   4.288   1.079  0.4624 -0.2297  2.1726
 4998TIP3    H236554   4.489   4.410   1.116  1.0342  0.1453 -0.1287
 4999TIP3   OH236555   4.853   6.506   0.307  0.2473 -1.1877 -0.1614
 4999TIP3    H136556   4.845   6.568   0.235  1.0414 -1.7049 -0.7130
 4999TIP3    H236557   4.767   6.506   0.348  0.7999  2.0303  1.3539
 5000TIP3   OH236558   6.059   2.970   1.382  0.2879  0.2234  0.1048
 5000TIP3    H136559   6.049   2.878   1.405 -1.3287 -0.2796 -2.2975
 5000TIP3    H236560   5.981   3.012   1.417 -0.9858 -0.1140 -2.1847
 5001TIP3   OH236561   1.945   5.963   2.629 -0.7484  0.1830 -0.0688
 5001TIP3    H136562   1.882   5.972   2.557 -2.1709  1.8288  1.2666
 5001TIP3    H236563   1.933   6.043   2.681  1.9038  0.1702  0.7233
 5002TIP3   OH236564   4.645   3.732   8.353  0.1743 -0.0473 -0.2623
 5002TIP3    H136565   4.604   3.810   8.392  0.5040  0.9045 -1.7445
 5002TIP3    H236566   4.737   3.756   8.342  0.7718 -1.4585  1.2376
 5003TIP3   OH236567   4.525   4.084   1.802  0.3460 -0.3148 -0.4300
 5003TIP3    H136568   4.543   4.131   1.883  2.2528 -0.6535 -0.5936
 5003TIP3    H236569   4.519   3.992   1.828  0.9474 -0.4229 -0.6472
 5004TIP3   OH236570   4.417   0.058   0.624 -0.4567  0.8318  0.2471
 5004TIP3    H136571   4.376   0.140   0.650  1.2170  1.3073  1.5936
 5004TIP3    H236572   4.401  -0.001   0.698 -1.1439  0.1075 -0.4590
 5005TIP3   OH236573   3.828   0.926   0.324  0.5504 -0.5068  0.0009
 5005TIP3    H136574   3.754   0.957   0.376 -0.3099 -1.1878 -0.7700
 5005TIP3    H236575   3.844   0.997   0.261  0.1700 -0.5943 -0.1980
 5006TIP3   OH236576   4.306   4.002   8.254 -0.7888  0.2757 -0.0783
 5006TIP3    H136577   4.339   4.018   8.166 -0.2423 -0.9209 -0.1027
 5006TIP3    H236578   4.304   4.089   8.295  1.5700  0.5227 -0.3752
 5007TIP3   OH236579   3.780   2.533   1.131  0.7474 -0.2461 -0.6441
 5007TIP3    H136580   3.723   2.544   1.207  0.5359  1.0218 -0.9546
 5007TIP3    H236581   3.720   2.514   1.058  0.7957  0.1679 -0.7954
 5008TIP3   OH236582   1.056   0.452   0.839 -0.0621  0.2453  0.1873
 5008TIP3    H136583   1.086   0.367   0.808  0.9179  0.7383 -0.2698
 5008TIP3    H236584   1.028   0.499   0.760 -0.1325  0.5222  0.3731
 5009TIP3   OH236585   6.015   5.336   0.593  0.6651  0.5407 -0.2135
 5009TIP3    H136586   6.004   5.309   0.685 -1.9532 -0.6540 -0.7914
 5009TIP3    H236587   5.939   5.391   0.575  0.8333  0.2800 -1.8398
 5010TIP3   OH236588   5.150   3.210   2.982 -0.2232 -0.3712  0.0410
 5010TIP3    H136589   5.146   3.115   2.987  0.9433 -0.4249  0.2057
 5010TIP3    H236590   5.078   3.235   2.924 -0.7123 -1.3266  0.2270
 5011TIP3   OH236591   3.278   4.445   1.613 -0.2347  0.4409 -0.3454
 5011TIP3    H136592   3.306   4.533   1.592  0.4636 -0.0641 -1.6417
 5011TIP3    H236593   3.195   4.433   1.566  0.8142 -0.3422 -2.0660
 5012TIP3   OH236594   4.989   5.203   2.844  0.0128  0.0837  0.2870
 5012TIP3    H136595   4.981   5.169   2.934 -1.0374 -0.9924 -0.1789
 5012TIP3    H236596   4.916   5.264   2.835 -1.3051 -1.5132 -0.5097
 5013TIP3   OH236597   5.067   2.886   1.125  0.2167  0.1496 -0.7643
 5013TIP3    H136598   5.056   2.797   1.158 -0.4650  0.6099  0.2892
 5013TIP3    H236599   5.131   2.878   1.054  1.3011 -0.9385  0.3115
 5014TIP3   OH236600   2.024   0.371   0.233  0.0944 -0.2365 -0.0446
 5014TIP3    H136601   2.000   0.462   0.248  0.7309  0.0377 -0.6321
 5014TIP3    H236602   2.112   0.375   0.195  0.3916 -1.1259  0.4958
 5015TIP3   OH236603   2.515   0.518   0.298 -0.1340  0.5345 -0.1840
 5015TIP3    H136604   2.530   0.598   0.249 -1.8012  1.0015 -0.0061
 5015TIP3    H236605   2.491   0.453   0.232  0.9403  0.2433 -0.2999
 5016TIP3   OH236606   0.213   0.706   8.547  0.1374  0.4709  0.0659
 5016TIP3    H136607   0.235   0.778   8.488 -0.4297  0.2486 -0.4204
 5016TIP3    H236608   0.200   0.631   8.489 -2.0252  0.6068  0.3039
 5017TIP3   OH236609   0.834   4.276   0.276 -0.5473  0.0749  0.0519
 5017TIP3    H136610   0.813   4.236   0.360  2.1537  0.0345  0.8070
 5017TIP3    H236611   0.794   4.363   0.279 -0.5178  0.0502  1.3705
 5018TIP3   OH236612   5.095   6.323   1.283 -0.2037  0.0676 -0.3062
 5018TIP3    H136613   5.023   6.295   1.226  1.3031 -0.8932 -1.8375
 5018TIP3    H236614   5.115   6.246   1.336 -0.8868  0.6273  0.8018
 5019TIP3   OH236615   3.921   1.510   1.773  0.5657 -0.6751  0.2040
 5019TIP3    H136616   3.861   1.486   1.844 -0.8080  1.1688 -0.2681
 5019TIP3    H236617   3.866   1.513   1.695  1.5831 -0.3976 -0.5216
 5020TIP3   OH236618   0.310   0.216   7.412  0.2907 -0.2245 -0.3844
 5020TIP3    H136619   0.298   0.306   7.381  0.4227 -0.7714 -2.1003
 5020TIP3    H236620   0.373   0.225   7.484  1.7328  0.8962 -1.6897
 5021TIP3   OH236621   2.942   4.215   1.368  0.1148  0.1556 -0.1312
 5021TIP3    H136622   2.977   4.172   1.290  2.2135 -1.2366  1.4646
 5021TIP3    H236623   2.906   4.297   1.336  1.8691  0.1410 -2.4205
 5022TIP3   OH236624   2.917   4.009   2.278  0.2675 -0.3298 -0.2998
 5022TIP3    H136625   2.957   4.095   2.267 -2.2083  0.9507  0.0166
 5022TIP3    H236626   2.911   3.974   2.189  0.5047  0.2007 -0.5266
 5023TIP3   OH236627   3.646   1.928   3.127 -0.0328  0.0588  0.4426
 5023TIP3    H136628   3.738   1.952   3.132 -0.0632  0.0280  1.4836
 5023TIP3    H236629   3.622   1.907   3.218 -1.0664  0.0992  0.1941
 5024TIP3   OH236630   3.880   4.876   8.551  0.1467  0.6331  0.1858
 5024TIP3    H136631   3.939   4.893   8.625 -1.3227 -0.6629  1.7432
 5024TIP3    H236632   3.915   4.798   8.510 -0.3789 -0.0866  1.0599
 5025TIP3   OH236633   6.383   1.422   7.670 -0.1127 -0.6795  0.6067
 5025TIP3    H136634   6.396   1.332   7.641  0.1452 -1.4212  2.7881
 5025TIP3    H236635   6.470   1.462   7.668 -0.3420 -0.2172 -1.0622
 5026TIP3   OH236636   5.997   0.516   1.043 -0.2711 -0.0908  0.1680
 5026TIP3    H136637   6.069   0.480   0.991  0.7870  0.1331  1.4231
 5026TIP3    H236638   5.932   0.446   1.045  0.8697 -1.1638  0.8633
 5027TIP3   OH236639   3.612   3.890   1.977  0.1146 -0.3276  0.3210
 5027TIP3    H136640   3.533   3.922   2.019  1.3705  0.6338  2.0370
 5027TIP3    H236641   3.602   3.914   1.885 -1.3562  0.2179  0.6066
 5028TIP3   OH236642   3.754   6.165   3.536  0.6204  0.1543  0.1051
 5028TIP3    H136643   3.660   6.149   3.537  0.4371  1.1513  0.5969
 5028TIP3    H236644   3.793   6.081   3.513 -0.4029 -0.1866 -0.4330
 5029TIP3   OH236645   5.212   2.252   2.135  0.1009 -0.3645  0.0627
 5029TIP3    H136646   5.205   2.172   2.188  0.8958 -1.0688 -0.8476
 5029TIP3    H236647   5.205   2.323   2.198  1.0705 -1.1707  1.1196
 5030TIP3   OH236648   1.663   1.271   3.100 -0.4035 -0.3055 -0.3826
 5030TIP3    H136649   1.754   1.249   3.076  0.8260  1.7545  1.8940
 5030TIP3    H236650   1.653   1.239   3.189 -1.6489  0.2057 -0.3199
 5031TIP3   OH236651   6.011   4.535   8.331  0.3820  0.1158  0.1524
 5031TIP3    H136652   6.087   4.593   8.335  0.7537 -0.4311  1.5042
 5031TIP3    H236653   6.019   4.491   8.246 -0.0913  2.2278 -1.0724
 5032TIP3   OH236654   5.314   3.368   1.253 -0.2359  0.2933  0.1388
 5032TIP3    H136655   5.380   3.375   1.184 -0.1879 -0.3490  0.1123
 5032TIP3    H236656   5.345   3.427   1.322  0.2025  0.2360 -0.0043
 5033TIP3   OH236657   2.205   4.388   2.292 -0.1225 -0.5932  0.4100
 5033TIP3    H136658   2.180   4.380   2.200  1.4071  1.4854 -0.2618
 5033TIP3    H236659   2.124   4.372   2.341 -1.3647 -0.0692 -1.3737
 5034TIP3   OH236660   3.340   2.240   1.546  0.0629 -0.0686  0.0533
 5034TIP3    H136661   3.270   2.292   1.509  0.4047  0.7755  0.5684
 5034TIP3    H236662   3.412   2.301   1.559  0.9693 -0.9443 -0.6124
 5035TIP3   OH236663   6.393   6.598   0.481 -0.1457 -0.0653  0.0694
 5035TIP3    H136664   6.438   6.634   0.557 -1.6875  2.7735 -0.2306
 5035TIP3    H236665   6.455   6.606   0.409  0.4748 -0.5098  0.5531
 5036TIP3   OH236666   1.887   1.610   1.581  0.2461  0.6604 -0.0848
 5036TIP3    H136667   1.975   1.580   1.604 -0.3286 -0.7985  0.2913
 5036TIP3    H236668   1.860   1.663   1.657  0.9330  1.4771 -0.3858
 5037TIP3   OH236669   4.098   5.603   2.317  0.1895  0.3899  1.1124
 5037TIP3    H136670   4.021   5.552   2.292 -0.4363  1.6901  0.3183
 5037TIP3    H236671   4.158   5.538   2.354  0.0798 -1.2482 -1.3184
 5038TIP3   OH236672   1.237   4.756   1.068  0.4213 -0.1268 -0.2926
 5038TIP3    H136673   1.309   4.817   1.049  0.9595 -0.3670  0.8775
 5038TIP3    H236674   1.167   4.812   1.102  1.4577 -0.2601  2.2456
 5039TIP3   OH236675   0.627   5.221   0.183 -0.1008 -0.1712  0.3667
 5039TIP3    H136676   0.626   5.200   0.276  0.3221  0.7040  0.5818
 5039TIP3    H236677   0.627   5.316   0.179  0.8872 -0.1790 -0.5013
 5040TIP3   OH236678   5.884   0.832   1.658 -0.0028 -0.1058  0.2353
 5040TIP3    H136679   5.876   0.767   1.728 -1.1579 -1.3657 -1.0112
 5040TIP3    H236680   5.967   0.877   1.676 -0.0436 -0.7100  2.1262
 5041TIP3   OH236681   6.290   2.945   2.012 -0.0198  0.0486 -0.2742
 5041TIP3    H136682   6.230   3.019   2.007  0.8362  0.7224 -0.9076
 5041TIP3    H236683   6.336   2.957   2.095  1.4330  1.3108 -1.2012
 5042TIP3   OH236684   2.718   4.869   3.153  0.4767 -0.3409  0.1117
 5042TIP3    H136685   2.634   4.910   3.172  0.9361  0.2617  0.9141
 5042TIP3    H236686   2.697   4.795   3.095 -0.5638 -0.0477  0.1042
 5043TIP3   OH236687   6.823   0.749   1.053  0.3304 -0.4036 -0.1499
 5043TIP3    H136688   6.866   0.736   1.138  0.5934 -1.5289 -0.4400
 5043TIP3    H236689   6.888   0.721   0.989  0.1790  0.5602 -0.7454
 5044TIP3   OH236690   4.070   6.659   0.744 -0.2825 -0.6483  0.1426
 5044TIP3    H136691   4.034   6.582   0.787 -1.7515  0.7820  1.6405
 5044TIP3    H236692   3.994   6.713   0.724  0.4704 -0.5708 -3.0817
 5045TIP3   OH236693   1.843   5.122   1.446 -0.5117  0.1906  0.6928
 5045TIP3    H136694   1.798   5.199   1.411  0.4154  0.4050 -0.0452
 5045TIP3    H236695   1.845   5.136   1.541  1.0642  1.8776  0.4523
 5046TIP3   OH236696   3.537   6.146   2.468  0.6707  0.0288  0.2612
 5046TIP3    H136697   3.550   6.091   2.391 -0.4220  0.3273 -0.1491
 5046TIP3    H236698   3.589   6.103   2.536  1.8331 -0.1144 -0.6779
 5047TIP3   OH236699   0.614   3.222   8.459 -0.1069 -0.0982 -0.1156
 5047TIP3    H136700   0.548   3.256   8.519  0.1763 -0.0418  0.1626
 5047TIP3    H236701   0.632   3.133   8.491 -2.1244 -1.2223 -1.8509
 5048TIP3   OH236702   6.201   3.491   1.881 -0.6807  0.3096 -0.2572
 5048TIP3    H136703   6.143   3.566   1.869  0.2130  1.0919  0.2027
 5048TIP3    H236704   6.284   3.519   1.842 -0.1908 -0.2494  0.3654
 5049TIP3   OH236705   5.846   6.427   0.648  0.0573 -0.2214  0.2847
 5049TIP3    H136706   5.870   6.427   0.555 -0.1299 -0.0460  0.2341
 5049TIP3    H236707   5.753   6.404   0.648 -0.2244  0.8637  0.3489
 5050TIP3   OH236708   5.441   2.532   3.268  0.3040  0.2732  0.1148
 5050TIP3    H136709   5.450   2.439   3.290  1.5997 -0.3759 -2.7155
 5050TIP3    H236710   5.466   2.578   3.348 -0.2064 -1.7684  1.5422
 5051TIP3   OH236711   4.555   0.549   1.755  0.4339  0.0260  0.5502
 5051TIP3    H136712   4.473   0.500   1.757  0.9627 -0.8708  1.8457
 5051TIP3    H236713   4.620   0.487   1.789  1.1426  1.5654  2.1400
 5052TIP3   OH236714   2.827   5.469   1.045 -0.0922  0.8000 -0.0426
 5052TIP3    H136715   2.854   5.424   1.125 -0.4149  1.2074  0.3029
 5052TIP3    H236716   2.855   5.411   0.974 -0.1075  0.2709  0.3754
 5053TIP3   OH236717   6.803   1.677   2.903 -0.3048  0.0941  0.2721
 5053TIP3    H136718   6.882   1.627   2.921 -2.6055 -3.0109  2.6958
 5053TIP3    H236719   6.790   1.731   2.981  1.0042  3.1466 -1.4540
 5054TIP3   OH236720   3.280   2.986   0.769  0.3872  0.3770  0.5459
 5054TIP3    H136721   3.282   3.029   0.684  2.6162  0.1539  0.4314
 5054TIP3    H236722   3.191   2.951   0.776  0.0590  0.6567 -1.5388
 5055TIP3   OH236723   2.568   2.252   2.560  0.4429  0.1354  0.0691
 5055TIP3    H136724   2.485   2.296   2.541  1.1257  1.5927  0.3856
 5055TIP3    H236725   2.550   2.199   2.638 -0.2619  0.2223 -0.0280
 5056TIP3   OH236726   0.337   2.367   0.963  0.2148 -0.3564 -0.6109
 5056TIP3    H136727   0.279   2.439   0.937 -1.0697 -1.5884 -1.2824
 5056TIP3    H236728   0.393   2.406   1.030 -1.2617  0.9657 -0.0542
 5057TIP3   OH236729   0.119   2.711   2.829  0.4087  0.1380  0.1738
 5057TIP3    H136730   0.135   2.729   2.736  0.3353  1.9098  0.4637
 5057TIP3    H236731   0.024   2.724   2.839  0.1729 -1.4509  0.2419
 5058TIP3   OH236732   6.800   0.247   2.568 -0.0526  0.0859  0.9567
 5058TIP3    H136733   6.813   0.339   2.547 -0.1874 -0.2144 -0.5607
 5058TIP3    H236734   6.728   0.219   2.512  1.7460 -1.6017 -0.6632
 5059TIP3   OH236735   6.248   5.307   3.554 -0.2689  0.1243 -0.5361
 5059TIP3    H136736   6.254   5.350   3.639  1.5773 -1.0835  0.0073
 5059TIP3    H236737   6.332   5.262   3.544  0.1254  1.2836 -3.5952
 5060TIP3   OH236738   6.289   5.622   1.658  0.2530  0.2782 -0.2249
 5060TIP3    H136739   6.312   5.694   1.599 -0.9742  0.5097 -0.4405
 5060TIP3    H236740   6.245   5.558   1.602 -0.5638  0.3208  0.3455
 5061TIP3   OH236741   0.012   4.590   0.609  0.3524 -0.0551 -0.3172
 5061TIP3    H136742  -0.038   4.627   0.537  0.2893  0.2464 -0.1190
 5061TIP3    H236743  -0.054   4.558   0.671  0.2523  3.2352  1.5119
 5062TIP3   OH236744   2.077   0.410   3.502 -0.7554 -0.3158  0.0201
 5062TIP3    H136745   2.072   0.319   3.531  0.4500 -0.0554  1.1208
 5062TIP3    H236746   2.160   0.442   3.536 -0.6372  0.8834 -1.3092
 5063TIP3   OH236747   2.813   0.142   2.424 -0.3333 -0.2879 -0.0864
 5063TIP3    H136748   2.845   0.145   2.514 -0.0288  2.7567 -0.1989
 5063TIP3    H236749   2.721   0.116   2.432 -0.1456 -0.6417  1.0376
 5064TIP3   OH236750   2.586   3.008   2.927 -0.0972  0.1811 -0.3793
 5064TIP3    H136751   2.650   3.039   2.991  1.4576 -0.4457 -1.5471
 5064TIP3    H236752   2.525   3.081   2.917  0.2382  0.6855  1.0115
 5065TIP3   OH236753   4.251   1.037   8.091 -1.1159 -0.1911 -0.2857
 5065TIP3    H136754   4.315   0.979   8.133 -0.8687 -1.6701 -2.5421
 5065TIP3    H236755   4.303   1.092   8.032 -1.7584 -0.5584 -1.2259
 5066TIP3   OH236756   4.528   1.998   0.202 -0.1758 -0.2370 -0.2453
 5066TIP3    H136757   4.621   2.005   0.182  0.0907 -2.8250 -0.2417
 5066TIP3    H236758   4.522   2.013   0.296  0.2859 -0.4031 -0.1909
 5067TIP3   OH236759   4.844   5.437   0.161  0.5209 -0.1508  0.2394
 5067TIP3    H136760   4.906   5.413   0.093  0.0531 -0.1715 -0.1827
 5067TIP3    H236761   4.780   5.494   0.117 -2.0949 -3.2433 -0.3989
 5068TIP3   OH236762   4.208   5.870   1.677 -0.3398  0.2639 -0.1168
 5068TIP3    H136763   4.271   5.921   1.626  0.1288 -0.2003 -0.0129
 5068TIP3    H236764   4.253   5.855   1.760 -0.2335 -0.8271 -0.3652
 5069TIP3   OH236765   3.556   2.509   0.940 -0.4737  0.0277  0.7646
 5069TIP3    H136766   3.482   2.561   0.970  0.8760  2.2052  0.5210
 5069TIP3    H236767   3.544   2.503   0.845 -2.1730 -2.7376  1.0464
 5070TIP3   OH236768   4.361   0.516   1.143 -0.1574  0.6037 -0.0219
 5070TIP3    H136769   4.386   0.513   1.235 -0.1793  2.4148  0.0802
 5070TIP3    H236770   4.348   0.424   1.119  0.2480  0.0640  1.6554
 5071TIP3   OH236771   3.699   6.163   2.941 -0.4499 -0.1688  0.1704
 5071TIP3    H136772   3.608   6.177   2.967 -0.8338  0.0776 -1.2166
 5071TIP3    H236773   3.740   6.249   2.948  0.2920 -0.6474  2.8545
 5072TIP3   OH236774   6.069   0.835   7.655  0.1022 -0.4164 -0.9536
 5072TIP3    H136775   5.976   0.854   7.652  0.1188 -0.3234 -0.8578
 5072TIP3    H236776   6.110   0.917   7.680  0.1117 -0.7490  0.1681
 5073TIP3   OH236777   4.232   4.711   1.557 -0.0206 -0.2376  0.2326
 5073TIP3    H136778   4.214   4.786   1.614 -0.5131  0.0621 -0.3108
 5073TIP3    H236779   4.188   4.732   1.475  1.5347 -0.1849 -0.6281
 5074TIP3   OH236780   3.988   3.919   1.533 -0.1481 -0.1838  0.4171
 5074TIP3    H136781   3.917   3.870   1.575 -0.8197  0.4680  0.0627
 5074TIP3    H236782   3.986   4.005   1.575  0.0477  0.0282 -0.0057
 5075TIP3   OH236783   0.876   2.131   0.330  0.1955 -0.2110  0.4372
 5075TIP3    H136784   0.872   2.147   0.424 -1.8783  0.9960  0.2071
 5075TIP3    H236785   0.809   2.065   0.314  0.0960  0.0499 -0.2613
 5076TIP3   OH236786   4.272   6.113   1.033  0.3688  0.6098  0.2557
 5076TIP3    H136787   4.227   6.124   1.116 -0.2433  1.4103 -0.1635
 5076TIP3    H236788   4.318   6.029   1.041  1.5856  1.3938  1.9520
 5077TIP3   OH236789   6.737   1.717   1.138  0.2577  0.2247 -0.4696
 5077TIP3    H136790   6.746   1.767   1.218  0.3319 -0.2668 -0.1657
 5077TIP3    H236791   6.682   1.771   1.081 -1.5713 -0.3216  0.6922
 5078TIP3   OH236792   5.346   5.589   0.442  0.2083  0.0447 -0.2162
 5078TIP3    H136793   5.274   5.649   0.422  0.3928  0.9026  1.5428
 5078TIP3    H236794   5.318   5.505   0.405 -1.6706  0.3681  0.3835
 5079TIP3   OH236795   4.803   4.876   2.236 -0.0760  1.1110  0.0198
 5079TIP3    H136796   4.784   4.782   2.237 -1.1247  1.3181  1.3071
 5079TIP3    H236797   4.889   4.883   2.278 -0.8823  0.8745  1.7975
 5080TIP3   OH236798   0.163   5.567   1.536 -0.1555  0.0072 -0.1597
 5080TIP3    H136799   0.148   5.541   1.627  0.2531 -1.2775 -0.4429
 5080TIP3    H236800   0.075   5.583   1.501 -0.5208 -1.8294 -0.1836
 5081TIP3   OH236801   1.265   4.038   1.579 -0.2002 -0.1126  0.8392
 5081TIP3    H136802   1.345   3.997   1.609 -1.3678 -0.6594  3.4934
 5081TIP3    H236803   1.262   4.122   1.624 -0.7302  0.2838  0.0995
 5082TIP3   OH236804   3.602   4.340   1.786  0.2549  0.5775  0.3155
 5082TIP3    H136805   3.520   4.375   1.819 -0.7264 -1.4134  0.1714
 5082TIP3    H236806   3.639   4.291   1.860  0.7028  0.4838  0.0358
 5083TIP3   OH236807   4.910   3.275   2.828 -0.1568 -0.3522  0.0500
 5083TIP3    H136808   4.957   3.347   2.786 -1.4383 -0.1922 -1.1972
 5083TIP3    H236809   4.910   3.204   2.764 -0.8692 -0.6438  0.3517
 5084TIP3   OH236810   1.814   6.523   0.720 -0.2289  0.2078 -0.0068
 5084TIP3    H136811   1.872   6.481   0.784 -0.6432  2.6582  2.1455
 5084TIP3    H236812   1.874   6.560   0.655  0.4167  0.2013  0.5715
 5085TIP3   OH236813   4.111   2.184   8.546 -0.1307 -0.1064 -0.2517
 5085TIP3    H136814   4.197   2.223   8.561 -0.4565  0.6939 -0.4714
 5085TIP3    H236815   4.057   2.255   8.512 -2.0301  0.5604  3.6248
 5086TIP3   OH236816   5.377   2.472   2.525  0.0871 -0.1997  0.2103
 5086TIP3    H136817   5.457   2.495   2.571  0.2851 -1.6844  0.6568
 5086TIP3    H236818   5.312   2.457   2.594 -0.1517 -0.4971 -0.0708
 5087TIP3   OH236819   6.761   2.916   1.267  0.0148  0.0447  0.6997
 5087TIP3    H136820   6.667   2.928   1.258 -0.0425 -0.5005  0.5426
 5087TIP3    H236821   6.792   2.997   1.308 -0.2829  0.9215 -0.7470
 5088TIP3   OH236822   4.510   4.957   1.013 -0.3483  0.9798 -0.0691
 5088TIP3    H136823   4.561   4.898   0.958  1.8564  0.3424  2.3931
 5088TIP3    H236824   4.474   4.901   1.082 -3.4520  1.6430 -1.0156
 5089TIP3   OH236825   0.424   2.738   8.194 -0.6586  0.2026 -0.1425
 5089TIP3    H136826   0.435   2.824   8.153  0.5018  0.1899  0.1173
 5089TIP3    H236827   0.380   2.685   8.128 -0.3112  0.6645 -0.7462
 5090TIP3   OH236828   4.428   3.575   0.017 -0.1124 -0.3575  0.3296
 5090TIP3    H136829   4.486   3.564  -0.058 -0.0013 -0.1013  0.3762
 5090TIP3    H236830   4.372   3.649  -0.007 -0.4493 -0.6297  0.2669
 5091TIP3   OH236831   1.636   5.799   3.254 -0.2868 -0.9076 -1.3150
 5091TIP3    H136832   1.677   5.885   3.261  1.2827 -1.7348  0.7252
 5091TIP3    H236833   1.692   5.750   3.194 -0.3770 -0.9379 -1.3755
 5092TIP3   OH236834   1.930   6.417   1.825  0.4574 -0.1602  0.3101
 5092TIP3    H136835   1.980   6.496   1.846 -1.8458  1.1979  1.0414
 5092TIP3    H236836   1.916   6.422   1.730  1.1029 -0.1954  0.2089
 5093TIP3   OH236837   0.232   1.681   1.762 -0.0804 -0.6169  0.0630
 5093TIP3    H136838   0.302   1.746   1.763  1.2641 -2.0017 -0.1020
 5093TIP3    H236839   0.186   1.696   1.680 -0.8575  1.1741  0.7850
 5094TIP3   OH236840   4.947   5.941   1.233 -0.1795 -0.3786 -0.3969
 5094TIP3    H136841   5.043   5.939   1.242 -0.3338 -0.3247  1.8915
 5094TIP3    H236842   4.917   5.986   1.312 -2.0464  1.0666 -1.8518
 5095TIP3   OH236843   1.766   3.746   0.283  0.2065  0.2209 -0.3741
 5095TIP3    H136844   1.726   3.831   0.298 -0.3684 -0.1868  0.4903
 5095TIP3    H236845   1.808   3.723   0.366 -1.8020 -1.4407  0.2598
 5096TIP3   OH236846   1.144   5.026   1.159 -0.1696  0.3636  0.2172
 5096TIP3    H136847   1.215   5.016   1.095 -0.6688  0.6441 -0.3971
 5096TIP3    H236848   1.074   5.069   1.110  0.4778  3.3726  1.7220
 5097TIP3   OH236849   1.776   0.599   1.692  0.0652 -0.4086 -0.3573
 5097TIP3    H136850   1.837   0.672   1.684  0.7507 -0.5907  2.1973
 5097TIP3    H236851   1.718   0.607   1.617  1.6580  1.2842 -1.4715
 5098TIP3   OH236852   6.404   0.414   1.796 -0.2633 -0.3369  0.1138
 5098TIP3    H136853   6.488   0.458   1.808 -0.8633  0.8710  0.0976
 5098TIP3    H236854   6.416   0.327   1.833  0.8737 -0.0448  0.4560
 5099TIP3   OH236855   5.231   3.733   2.960  0.0229 -0.7001  1.3808
 5099TIP3    H136856   5.267   3.788   3.030 -0.2288 -0.3551  1.2457
 5099TIP3    H236857   5.136   3.742   2.970 -0.0732  1.3874 -0.5240
 5100TIP3   OH236858   5.779   5.007   0.898 -0.1242  0.2395 -0.1932
 5100TIP3    H136859   5.833   4.937   0.862  1.3186  0.3316  1.6458
 5100TIP3    H236860   5.794   5.003   0.993 -0.6151  2.5374  0.0411
 5101TIP3   OH236861   0.580   6.859   8.595  0.2803  0.3610  0.2839
 5101TIP3    H136862   0.506   6.821   8.547 -0.7619  0.3327  1.8573
 5101TIP3    H236863   0.623   6.784   8.636  1.3272  0.3558 -0.7663
 5102TIP3   OH236864   1.334   3.375   3.098 -0.7046 -0.5860  0.1122
 5102TIP3    H136865   1.266   3.435   3.070  1.5929  1.1596 -2.2029
 5102TIP3    H236866   1.329   3.376   3.194 -1.5185  2.4435  0.1276
 5103TIP3   OH236867   1.004   2.432   0.409  0.0975 -0.4716 -0.8169
 5103TIP3    H136868   1.048   2.471   0.334  2.1199  0.7428  0.8847
 5103TIP3    H236869   1.048   2.348   0.422  0.1614 -0.4103 -0.6332
 5104TIP3   OH236870   2.612   0.213   4.276  0.3814 -0.1521  0.8868
 5104TIP3    H136871   2.614   0.303   4.245  2.0119 -0.6559 -0.6149
 5104TIP3    H236872   2.537   0.174   4.232 -0.2447  0.4004  1.4331
 5105TIP3   OH236873   5.126   4.545   2.095 -0.1398 -0.0940 -0.1926
 5105TIP3    H136874   5.035   4.570   2.112  0.2461  4.2565 -2.9688
 5105TIP3    H236875   5.128   4.524   2.002  1.3809 -2.3586  0.2873
 5106TIP3   OH236876   2.237   2.142   3.483 -0.2151  0.0919  0.2492
 5106TIP3    H136877   2.168   2.085   3.448 -0.0908 -0.9008  1.5631
 5106TIP3    H236878   2.191   2.199   3.545  0.1344 -0.6409  1.2059
 5107TIP3   OH236879   1.930   1.009   8.251 -0.6534 -0.0755  0.5305
 5107TIP3    H136880   1.967   0.927   8.286 -0.3831 -0.2966 -0.2516
 5107TIP3    H236881   2.000   1.045   8.197 -1.4002 -0.2561 -0.5908
 5108TIP3   OH236882   1.732   5.590   2.614 -0.3453 -0.7049 -0.4679
 5108TIP3    H136883   1.797   5.585   2.545  0.1932  0.0896 -0.0262
 5108TIP3    H236884   1.737   5.505   2.658  1.9626  0.0886  0.9492
 5109TIP3   OH236885   3.901   2.477   0.697  0.2275 -0.0191  0.7791
 5109TIP3    H136886   3.830   2.470   0.633 -0.1991  1.1228  1.1152
 5109TIP3    H236887   3.952   2.552   0.669 -0.4858  1.0755  2.2588
 5110TIP3   OH236888   3.980   4.707   8.325  0.6186  0.3822  0.1489
 5110TIP3    H136889   3.951   4.616   8.325  1.1984  0.1759  1.3645
 5110TIP3    H236890   4.060   4.707   8.272  0.3328  0.2893 -0.2842
 5111TIP3   OH236891   1.614   1.282   7.992  0.9164 -0.3828 -0.2873
 5111TIP3    H136892   1.655   1.223   8.055  1.2012  1.2407  1.1016
 5111TIP3    H236893   1.593   1.226   7.917 -1.0673 -2.7535  1.8975
 5112TIP3   OH236894   0.608   0.553   0.628  0.0119 -0.4157 -0.2975
 5112TIP3    H136895   0.571   0.585   0.711  0.5961 -1.0247  0.2152
 5112TIP3    H236896   0.674   0.619   0.605  0.3450 -0.6018  0.1036
 5113TIP3   OH236897   4.861   2.314   0.186 -0.3374 -0.1356  0.6782
 5113TIP3    H136898   4.921   2.289   0.115 -3.2232  0.1279 -2.0457
 5113TIP3    H236899   4.815   2.233   0.207 -0.3806  0.0719  1.3828
 5114TIP3   OH236900   2.731   1.318   0.384  0.7733  0.0670 -0.1966
 5114TIP3    H136901   2.664   1.265   0.427  0.5740  1.5798  1.4657
 5114TIP3    H236902   2.691   1.343   0.300 -0.1854 -0.1680  0.1736
 5115TIP3   OH236903   1.346   1.308   2.740  0.3241  0.2199 -0.2448
 5115TIP3    H136904   1.292   1.299   2.819  1.0588  1.6977  0.4535
 5115TIP3    H236905   1.428   1.264   2.763 -0.7800 -2.8661 -1.6305
 5116TIP3   OH236906   0.624   3.403   8.215  0.4725 -0.1903 -0.5610
 5116TIP3    H136907   0.603   3.363   8.299  0.9541  0.0065 -0.3435
 5116TIP3    H236908   0.656   3.490   8.237  2.5152 -0.8315 -0.7792
 5117TIP3   OH236909   2.233   2.469   0.158 -0.3779  0.0096 -0.0389
 5117TIP3    H136910   2.227   2.555   0.116 -0.2173  0.4883  0.8798
 5117TIP3    H236911   2.143   2.448   0.184 -0.2375  0.5636  0.9742
 5118TIP3   OH236912   1.251   2.738   3.232 -0.0969  0.5360 -0.0137
 5118TIP3    H136913   1.330   2.790   3.246 -0.5451  1.4721 -0.8208
 5118TIP3    H236914   1.274   2.650   3.262  1.6039  0.5310 -1.2259
 5119TIP3   OH236915   6.599   2.833   3.710  0.0543  0.1070 -0.3593
 5119TIP3    H136916   6.535   2.888   3.756 -0.4060 -0.3523 -0.4448
 5119TIP3    H236917   6.565   2.824   3.622 -0.0012 -0.5106 -0.2825
 5120TIP3   OH236918   3.044   3.909   2.495  0.0207  0.1661 -0.3930
 5120TIP3    H136919   3.043   3.992   2.542 -0.9668  0.3360 -0.6859
 5120TIP3    H236920   2.995   3.927   2.415 -3.0305 -1.4813  0.9582
 5121TIP3   OH236921   5.516   5.770   7.587  0.1810 -0.0905  0.3745
 5121TIP3    H136922   5.594   5.808   7.625 -1.2105  1.9431  1.3969
 5121TIP3    H236923   5.445   5.830   7.612 -1.7802 -2.0553 -0.1267
 5122TIP3   OH236924   1.002   3.571   2.147  0.2154  0.1771 -0.1607
 5122TIP3    H136925   1.075   3.632   2.150 -0.0948  0.5417 -0.0035
 5122TIP3    H236926   0.928   3.623   2.116 -0.4373  0.2874  1.4868
 5123TIP3   OH236927   0.361   5.130   3.326 -0.0297  0.0276  0.2040
 5123TIP3    H136928   0.271   5.126   3.356 -0.0948  1.1385  0.2099
 5123TIP3    H236929   0.363   5.205   3.266  0.8256 -0.1394  0.0060
 5124TIP3   OH236930   2.880   1.611   1.132 -0.3316  0.3335  0.4240
 5124TIP3    H136931   2.958   1.588   1.182  0.4071  0.9841 -0.4025
 5124TIP3    H236932   2.910   1.617   1.042 -1.7673 -1.4287 -0.2231
 5125TIP3   OH236933   3.407   5.971   0.060 -0.3972 -0.7279  0.1085
 5125TIP3    H136934   3.391   5.960   0.154 -0.0858  0.0577  0.2660
 5125TIP3    H236935   3.430   6.064   0.051  1.0115 -1.1187 -0.5354
 5126TIP3   OH236936   6.187   3.223   1.897  0.2862 -0.3247 -0.3522
 5126TIP3    H136937   6.170   3.221   1.992  0.6064  0.1891 -0.2768
 5126TIP3    H236938   6.140   3.301   1.866  1.0060  0.0921 -0.4361
 5127TIP3   OH236939   0.796   2.723   0.927  0.1141  0.4722 -0.0590
 5127TIP3    H136940   0.704   2.708   0.943  0.0475  3.4858  4.0838
 5127TIP3    H236941   0.839   2.640   0.948 -1.4446  0.0333  1.6619
 5128TIP3   OH236942   3.187   2.579   0.031  0.1599  0.1809  0.2858
 5128TIP3    H136943   3.255   2.522   0.067  0.2382  0.5982  0.8059
 5128TIP3    H236944   3.232   2.662   0.014 -0.1516  0.3630  0.3466
 5129TIP3   OH236945   1.069   5.685   1.169  0.3656  0.0622 -0.1847
 5129TIP3    H136946   1.144   5.694   1.229  1.8441  0.4750 -2.0006
 5129TIP3    H236947   1.069   5.592   1.146 -1.4885 -0.5450  1.9514
 5130TIP3   OH236948   1.012   3.900   1.029  0.3412  0.2312  0.1627
 5130TIP3    H136949   0.966   3.982   1.010 -0.4139 -0.1879  0.1541
 5130TIP3    H236950   0.958   3.857   1.095  0.8756 -0.1416  0.3646
 5131TIP3   OH236951   0.987   5.173   3.895  0.0120  0.3050 -0.0917
 5131TIP3    H136952   1.049   5.246   3.894 -0.0331  0.3656  0.6414
 5131TIP3    H236953   0.938   5.181   3.813  0.3904  0.7590 -0.2771
 5132TIP3   OH236954   1.325   4.339   0.831 -0.0597 -0.3006 -0.0298
 5132TIP3    H136955   1.327   4.252   0.869  0.8431 -0.6490 -0.8455
 5132TIP3    H236956   1.325   4.324   0.736  1.8174  0.5869 -0.2095
 5133TIP3   OH236957   3.740   1.570   2.222 -0.3251 -0.5742  0.2124
 5133TIP3    H136958   3.802   1.643   2.222  0.5773 -1.2359  2.6966
 5133TIP3    H236959   3.716   1.559   2.130  2.4580  0.3914 -0.7483
 5134TIP3   OH236960   2.851   5.766   8.642  0.4337  0.1357  0.5883
 5134TIP3    H136961   2.798   5.837   8.607  1.4856 -0.0432 -1.5488
 5134TIP3    H236962   2.938   5.805   8.655  0.2346  0.0142  2.4359
 5135TIP3   OH236963   6.449   2.700   0.860 -0.4139 -0.4156 -0.2772
 5135TIP3    H136964   6.461   2.610   0.829  0.6329 -0.5834  0.5638
 5135TIP3    H236965   6.374   2.696   0.919 -0.5037 -0.6903 -0.4077
 5136TIP3   OH236966   4.797   3.020   0.058 -0.0515  0.5634 -0.1252
 5136TIP3    H136967   4.754   3.035   0.142  0.4531 -0.0174  0.2378
 5136TIP3    H236968   4.890   3.020   0.078  0.1248  1.6046 -0.8789
 5137TIP3   OH236969   6.780   2.273   8.030 -0.0116  0.0899 -0.0917
 5137TIP3    H136970   6.759   2.325   8.107 -1.1040 -0.7777  0.2225
 5137TIP3    H236971   6.800   2.186   8.064  1.3577  0.1616 -0.6435
 5138TIP3   OH236972   2.951   0.071   0.584  0.2785  0.3295  0.2751
 5138TIP3    H136973   3.004  -0.001   0.551 -0.9879 -0.6677  0.3583
 5138TIP3    H236974   2.909   0.037   0.663 -1.1321  0.7920 -0.2432
 5139TIP3   OH236975   3.378   3.097   2.323  0.0281  0.3028 -0.8629
 5139TIP3    H136976   3.373   3.009   2.360  3.5268 -0.1469 -1.0961
 5139TIP3    H236977   3.405   3.153   2.396  0.4023  0.6802 -1.2791
 5140TIP3   OH236978   5.262   6.136   2.478  0.3803 -0.3981  0.6270
 5140TIP3    H136979   5.203   6.074   2.520  0.3054 -0.4340  0.4691
 5140TIP3    H236980   5.270   6.104   2.388 -1.5777  1.1490 -0.1740
 5141TIP3   OH236981   0.880   3.016   1.913  0.2232 -0.5799  0.2454
 5141TIP3    H136982   0.866   2.924   1.893 -1.0056 -0.2804 -0.3724
 5141TIP3    H236983   0.933   3.048   1.840 -0.1120 -0.6015 -0.0101
 5142TIP3   OH236984   0.026   3.898   0.397 -0.0398 -0.4440 -0.5522
 5142TIP3    H136985   0.073   3.820   0.425  1.1164  0.6144  0.6162
 5142TIP3    H236986   0.091   3.951   0.352 -0.6160  0.1811 -0.6676
 5143TIP3   OH236987   4.668   1.363   1.212  0.0646  0.3285  0.3393
 5143TIP3    H136988   4.710   1.445   1.239  0.4403 -0.1660  1.3305
 5143TIP3    H236989   4.705   1.298   1.272 -1.8208 -0.1991  0.9763
 5144TIP3   OH236990   4.728   0.862   2.749  0.1812  0.2370 -0.3022
 5144TIP3    H136991   4.764   0.913   2.676  0.2354 -0.5458 -0.8376
 5144TIP3    H236992   4.772   0.898   2.827 -0.3441  1.5035 -0.5651
 5145TIP3   OH236993   2.641   3.555   2.923 -0.4654  0.3736  0.6382
 5145TIP3    H136994   2.569   3.543   2.861  1.2245 -0.2614 -1.3083
 5145TIP3    H236995   2.601   3.539   3.008 -2.5116 -0.5402 -0.4054
 5146TIP3   OH236996   2.789   0.455   0.237  0.1774  0.9347 -0.3088
 5146TIP3    H136997   2.823   0.367   0.252  0.5862  1.0101 -0.7513
 5146TIP3    H236998   2.694   0.446   0.245  0.0180 -0.0300 -2.5528
 5147TIP3   OH236999   1.921   3.182   1.404 -1.1099  0.2059 -0.4786
 5147TIP3    H137000   1.962   3.200   1.489 -1.3860 -0.6352 -0.1599
 5147TIP3    H237001   1.932   3.264   1.355  2.7119 -0.5202 -1.1389
 5148TIP3   OH237002   4.015   0.463   0.205 -0.1499 -0.5553 -0.3409
 5148TIP3    H137003   3.973   0.471   0.119 -2.0577 -0.7591  0.5069
 5148TIP3    H237004   4.066   0.383   0.199  0.1600 -0.2912 -1.4445
 5149TIP3   OH237005   1.072   5.385   2.399  0.3793  0.0630  0.0204
 5149TIP3    H137006   0.992   5.435   2.414 -0.8346 -1.4837 -1.0301
 5149TIP3    H237007   1.064   5.308   2.455  1.4186  0.1597  0.3292
 5150TIP3   OH237008   6.388   5.057   0.450  0.2375  0.7497 -0.6157
 5150TIP3    H137009   6.455   5.125   0.439  0.2261  0.7377 -0.7571
 5150TIP3    H237010   6.309   5.095   0.413  0.3278  0.5036 -1.0687
 5151TIP3   OH237011   1.060   6.433   8.257  0.9296 -0.1372  0.5482
 5151TIP3    H137012   1.141   6.483   8.251  1.4724 -1.0488 -0.1060
 5151TIP3    H237013   1.057   6.383   8.175  0.5305 -1.3165  1.2615
 5152TIP3   OH237014   4.200   4.145   0.345  0.4279  0.4192 -0.5349
 5152TIP3    H137015   4.210   4.069   0.288  1.2735  0.0169  0.1240
 5152TIP3    H237016   4.272   4.137   0.408 -2.0089 -0.7046  2.3663
 5153TIP3   OH237017   0.965   1.774   2.009  0.2229  0.5880  0.4839
 5153TIP3    H137018   1.051   1.748   1.976  0.3894  0.9105  0.6606
 5153TIP3    H237019   0.920   1.691   2.027  1.1531  0.3765  2.1005
 5154TIP3   OH237020   1.378   2.514   3.496  0.1671 -0.0686  0.5580
 5154TIP3    H137021   1.410   2.490   3.409  1.0576 -0.3674  0.9509
 5154TIP3    H237022   1.436   2.585   3.524 -1.0363  1.0397  0.3265
 5155TIP3   OH237023   2.721   0.408   2.678 -0.3504 -0.0025  0.0456
 5155TIP3    H137024   2.772   0.340   2.634 -1.0279 -1.0338  0.7831
 5155TIP3    H237025   2.705   0.372   2.765 -0.4432  1.2670  0.5596
 5156TIP3   OH237026   0.494   6.009   1.645 -0.3697 -0.9103 -0.2048
 5156TIP3    H137027   0.499   5.914   1.658  2.9607 -0.8684 -0.1682
 5156TIP3    H237028   0.497   6.020   1.550 -2.1870 -0.8322 -0.2715
 5157TIP3   OH237029   4.413   5.461   1.018 -0.0787  0.8251 -0.5137
 5157TIP3    H137030   4.329   5.474   0.974 -0.9959  1.3170  1.2762
 5157TIP3    H237031   4.391   5.457   1.111  1.9836  2.0889  0.1025
 5158TIP3   OH237032   5.424   1.025   8.607 -0.0741  0.1833  0.6138
 5158TIP3    H137033   5.439   0.930   8.610 -0.0795  0.1508 -0.0813
 5158TIP3    H237034   5.426   1.046   8.513 -3.3954  0.3270  0.4609
 5159TIP3   OH237035   4.438   4.313   0.014  0.0457  0.2891 -0.7773
 5159TIP3    H137036   4.379   4.352   0.078  2.5281 -0.1756  1.9683
 5159TIP3    H237037   4.488   4.386  -0.021 -0.2698  0.3513 -1.1168
 5160TIP3   OH237038   6.778   2.439   2.819  0.0464  0.2106  0.6787
 5160TIP3    H137039   6.688   2.408   2.830 -0.5698  0.4503 -2.5936
 5160TIP3    H237040   6.768   2.531   2.796  1.3730  0.9665  2.9150
 5161TIP3   OH237041   0.008   1.136   1.094  0.0534 -0.3413 -0.2008
 5161TIP3    H137042  -0.064   1.116   1.154 -0.4696  2.8428  0.4395
 5161TIP3    H237043   0.087   1.128   1.147 -0.1415 -0.4669  0.0749
 5162TIP3   OH237044   5.041   5.378   0.421 -0.2861 -0.2828 -0.0966
 5162TIP3    H137045   4.963   5.430   0.437  0.6584  1.0486  0.3656
 5162TIP3    H237046   5.074   5.356   0.509 -0.4638 -1.3555 -0.2860
 5163TIP3   OH237047   6.318   3.227   3.123 -0.1135  0.2394 -0.0392
 5163TIP3    H137048   6.332   3.313   3.162  1.0263 -0.4864  1.2379
 5163TIP3    H237049   6.332   3.166   3.194  2.1503 -1.1618 -1.5477
 5164TIP3   OH237050   3.291   4.643   3.054  0.1672 -0.1435  0.4703
 5164TIP3    H137051   3.207   4.683   3.076  0.5754  1.2759 -0.3791
 5164TIP3    H237052   3.354   4.689   3.110  0.4798 -0.5889  0.4885
 5165TIP3   OH237053   2.326   2.231   0.237 -0.2890 -0.0762  0.0272
 5165TIP3    H137054   2.322   2.324   0.216  1.7171  0.4874  1.7357
 5165TIP3    H237055   2.318   2.187   0.152  0.0664  1.7057 -0.9849
 5166TIP3   OH237056   0.554   4.364   8.631 -0.4438  0.3101  0.0167
 5166TIP3    H137057   0.505   4.282   8.631 -2.3124  1.3489  1.3167
 5166TIP3    H237058   0.645   4.338   8.649 -0.6887 -1.5640 -1.1432
 5167TIP3   OH237059   1.654   1.370   0.613 -0.2353  0.0830  0.2597
 5167TIP3    H137060   1.748   1.367   0.592 -0.1987  0.8627  0.2903
 5167TIP3    H237061   1.631   1.462   0.607 -1.5932 -0.3432 -2.3084
 5168TIP3   OH237062   3.535   1.031   1.936  0.0750 -0.3936 -0.2973
 5168TIP3    H137063   3.618   0.985   1.923  1.3101  2.0894 -2.2479
 5168TIP3    H237064   3.491   1.024   1.851 -0.6222  0.2365  0.0061
 5169TIP3   OH237065   6.245   3.493   1.587 -0.1315  0.0113  0.0205
 5169TIP3    H137066   6.192   3.465   1.661  1.2161  0.1998  1.0833
 5169TIP3    H237067   6.335   3.472   1.612  0.4957  1.4212 -0.9314
 5170TIP3   OH237068   6.337   4.291   2.046 -0.0962  0.3272 -0.1093
 5170TIP3    H137069   6.401   4.347   2.089  0.4393 -0.1064 -0.3189
 5170TIP3    H237070   6.362   4.202   2.072 -0.7425  0.1693 -0.0243
 5171TIP3   OH237071   5.893   4.112   7.969  0.2010  0.4164 -0.1218
 5171TIP3    H137072   5.814   4.163   7.948  1.2949  1.7893 -1.1285
 5171TIP3    H237073   5.882   4.031   7.920 -0.4476  0.7178 -0.5007
 5172TIP3   OH237074   1.857   3.528   1.128 -0.2817  0.6014 -0.0714
 5172TIP3    H137075   1.937   3.502   1.175 -1.6312 -2.2425  0.8579
 5172TIP3    H237076   1.856   3.473   1.050 -0.0120  2.5990 -1.5685
 5173TIP3   OH237077   6.555   3.291   1.950  0.0549 -0.0393 -0.2756
 5173TIP3    H137078   6.499   3.326   2.020  0.3598 -0.7199  0.3118
 5173TIP3    H237079   6.604   3.221   1.991  1.1931  0.4002 -0.8488
 5174TIP3   OH237080   1.279   0.621   2.381  0.4841  0.0864 -0.2423
 5174TIP3    H137081   1.286   0.691   2.446  0.4760  0.6453 -0.8262
 5174TIP3    H237082   1.302   0.541   2.428  1.9486  0.6697  0.0785
 5175TIP3   OH237083   0.777   1.674   3.129  0.0323 -0.6508  0.1015
 5175TIP3    H137084   0.734   1.734   3.191 -0.0872 -0.4683 -0.1538
 5175TIP3    H237085   0.741   1.698   3.044  2.4932  1.2681 -0.5217
 5176TIP3   OH237086   6.340   5.632   0.981  0.1672 -0.0931 -0.0350
 5176TIP3    H137087   6.424   5.668   1.011 -0.8752  0.4987  2.4389
 5176TIP3    H237088   6.307   5.697   0.918  0.1761  1.2999  1.3299
 5177TIP3   OH237089   4.476   3.407   8.110  0.0198 -0.5764 -0.3948
 5177TIP3    H137090   4.433   3.323   8.122 -1.1738  0.0590 -0.0754
 5177TIP3    H237091   4.558   3.400   8.159 -0.4791 -1.2462  0.3435
 5178TIP3   OH237092   2.645   1.920   2.414  0.3179 -0.3821  0.2396
 5178TIP3    H137093   2.670   1.929   2.506  0.4967 -1.2359  0.2862
 5178TIP3    H237094   2.567   1.864   2.416 -1.6210  2.1534  0.0808
 5179TIP3   OH237095   2.467   3.734   0.923  0.3785  0.0034 -0.2749
 5179TIP3    H137096   2.478   3.646   0.960  1.7339  0.5367  0.6330
 5179TIP3    H237097   2.446   3.718   0.831  1.2145 -1.2636 -0.2683
 5180TIP3   OH237098   0.341   2.291   2.579  0.2969 -0.4548  0.0695
 5180TIP3    H137099   0.302   2.225   2.522 -0.4788 -0.1318  0.2171
 5180TIP3    H237100   0.279   2.300   2.651  0.7106 -0.0273  0.3716
 5181TIP3   OH237101   2.914   5.167   1.799  0.3488  0.1431  0.2548
 5181TIP3    H137102   2.912   5.088   1.853 -2.3377  0.3445  0.6334
 5181TIP3    H237103   2.822   5.192   1.791  0.9915  2.3598 -1.1682
 5182TIP3   OH237104   0.472   3.432   1.126 -0.4033 -0.5039 -0.5760
 5182TIP3    H137105   0.398   3.468   1.174  0.8169 -2.2719  2.9309
 5182TIP3    H237106   0.447   3.341   1.107  1.8162 -2.2336  3.5569
 5183TIP3   OH237107   2.307   2.421   3.435  1.1271  0.0735 -0.1052
 5183TIP3    H137108   2.348   2.418   3.522  2.2319  1.2603 -0.5635
 5183TIP3    H237109   2.278   2.331   3.419 -0.3077  0.0758  2.0516
 5184TIP3   OH237110   4.243   1.963   0.847  0.9103 -0.8788 -0.1268
 5184TIP3    H137111   4.229   1.991   0.937 -2.5185 -1.5675 -0.2929
 5184TIP3    H237112   4.225   2.040   0.794  0.3078 -1.1222 -0.2852
 5185TIP3   OH237113   4.213   0.579   2.449  0.1998  0.0313  0.0485
 5185TIP3    H137114   4.159   0.515   2.495 -1.6511  2.3470  1.2970
 5185TIP3    H237115   4.188   0.570   2.357  0.2808 -1.2515  0.1274
 5186TIP3   OH237116   4.884   4.432   1.025 -0.0890  0.2470  0.0328
 5186TIP3    H137117   4.935   4.501   0.982  1.1571 -0.9224 -0.4315
 5186TIP3    H237118   4.822   4.403   0.957  0.9282 -0.6277 -0.5555
 5187TIP3   OH237119   2.591   1.381   3.158  0.1422  0.3589  0.1035
 5187TIP3    H137120   2.562   1.351   3.244  1.8491 -0.5542  0.3985
 5187TIP3    H237121   2.528   1.342   3.097 -0.0144 -0.5053  0.7990
 5188TIP3   OH237122   3.141   4.874   1.813  0.8177 -0.1719 -0.0917
 5188TIP3    H137123   3.135   4.960   1.771  0.5677  0.8031  1.8143
 5188TIP3    H237124   3.143   4.894   1.907 -1.2084 -2.3125  0.5066
 5189TIP3   OH237125   1.823   2.038   2.272 -0.4879 -0.0115 -0.5449
 5189TIP3    H137126   1.756   2.018   2.207  0.4165 -3.4698 -0.6107
 5189TIP3    H237127   1.800   1.986   2.348  1.5769 -0.5983 -0.2523
 5190TIP3   OH237128   0.872   0.635   0.981  0.5889  0.4170 -0.7436
 5190TIP3    H137129   0.957   0.591   0.975 -0.0190 -0.6595 -2.0997
 5190TIP3    H237130   0.810   0.573   0.942 -0.8033  1.2397  0.0669
 5191TIP3   OH237131   2.096   3.199   2.497 -0.8749 -0.0052 -0.2228
 5191TIP3    H137132   2.060   3.268   2.553  1.0519 -0.4427  1.6753
 5191TIP3    H237133   2.020   3.151   2.465 -2.0536 -0.1185  2.5566
 5192TIP3   OH237134   6.287   6.368   0.665 -0.1808 -0.5377 -0.0990
 5192TIP3    H137135   6.335   6.397   0.587  2.9182 -1.3526  1.3474
 5192TIP3    H237136   6.302   6.274   0.669  0.5417 -0.3849  1.9277
 5193TIP3   OH237137   3.265   0.704   1.042 -0.1630 -0.9519  0.6394
 5193TIP3    H137138   3.327   0.772   1.015 -1.2710 -1.0242 -2.5061
 5193TIP3    H237139   3.319   0.626   1.054  0.6340 -0.4761  0.2236
 5194TIP3   OH237140   6.399   3.266   0.954  0.0731 -0.6538 -0.3416
 5194TIP3    H137141   6.415   3.172   0.954 -1.4809 -0.9536  0.6742
 5194TIP3    H237142   6.391   3.289   1.047  0.2748  0.4523 -0.5861
 5195TIP3   OH237143   5.543   2.690   2.845  0.2377  0.1753  0.4201
 5195TIP3    H137144   5.572   2.609   2.803  2.3268  0.6535  0.8496
 5195TIP3    H237145   5.621   2.745   2.847  0.0222  0.5409  4.0672
 5196TIP3   OH237146   1.191   0.854   2.088 -0.3760  0.5946 -0.5944
 5196TIP3    H137147   1.103   0.893   2.081  0.5837  2.7749 -1.3730
 5196TIP3    H237148   1.251   0.927   2.076  1.5942 -0.7753  0.2976
 5197TIP3   OH237149   2.448   5.322   3.140  0.5929  0.2320  0.0210
 5197TIP3    H137150   2.388   5.350   3.208 -0.1970 -2.0799  0.3336
 5197TIP3    H237151   2.527   5.375   3.155 -0.8355  2.3789  0.4026
 5198TIP3   OH237152   3.758   2.827   7.657 -0.3678 -0.4719 -0.0496
 5198TIP3    H137153   3.853   2.830   7.654 -0.3714 -0.2628  0.0519
 5198TIP3    H237154   3.730   2.895   7.596 -0.4575 -1.0669 -0.6955
 5199TIP3   OH237155   1.799   0.951   0.385  0.1748 -0.2472 -0.3716
 5199TIP3    H137156   1.751   0.931   0.466 -0.3614 -0.1080 -0.6527
 5199TIP3    H237157   1.799   1.047   0.381 -0.0855 -0.2610 -0.7062
 5200TIP3   OH237158   2.687   0.500   0.907  0.5815  0.6546 -0.1653
 5200TIP3    H137159   2.706   0.545   0.824  0.4663  1.4132  0.2138
 5200TIP3    H237160   2.594   0.479   0.901  0.7442  0.0299 -0.5485
 5201TIP3   OH237161   3.144   1.257   1.768 -0.4279 -0.2890 -0.2020
 5201TIP3    H137162   3.068   1.273   1.712  0.4695  0.6380 -1.2216
 5201TIP3    H237163   3.218   1.292   1.718  0.3947  0.8456  1.6938
 5202TIP3   OH237164   6.479   3.531   0.862  0.4486  0.3589 -0.0962
 5202TIP3    H137165   6.480   3.568   0.950  0.5810  0.4191 -0.1234
 5202TIP3    H237166   6.431   3.448   0.871  1.3966 -0.1638  0.2376
 5203TIP3   OH237167   6.849   0.986   3.126 -0.9099  0.0703  0.0093
 5203TIP3    H137168   6.878   0.979   3.217 -1.9670 -2.6209  0.2396
 5203TIP3    H237169   6.917   1.037   3.083 -0.3032  1.2966  2.2469
 5204TIP3   OH237170   2.694   3.930   0.241 -0.4838 -0.2471  0.2938
 5204TIP3    H137171   2.651   3.968   0.165  0.6535 -0.3584 -0.4284
 5204TIP3    H237172   2.694   4.000   0.306  0.6696  0.6900 -0.6660
 5205TIP3   OH237173   6.288   3.327   8.099  0.1022  0.1531 -0.1640
 5205TIP3    H137174   6.196   3.345   8.080  0.0307  0.0510  0.0813
 5205TIP3    H237175   6.334   3.405   8.070 -0.0518  0.1664 -0.3751
 5206TIP3   OH237176   4.464   4.741   3.035 -0.5054 -0.1100  0.5100
 5206TIP3    H137177   4.405   4.816   3.022 -0.1528  0.1849  0.6163
 5206TIP3    H237178   4.406   4.664   3.029 -0.5797  0.0273 -1.7810
 5207TIP3   OH237179   3.516   0.466   2.860  0.0250 -0.0581  0.2420
 5207TIP3    H137180   3.539   0.558   2.847 -1.1429  0.1061 -0.8914
 5207TIP3    H237181   3.560   0.441   2.941  0.8699  1.3181  0.2314
 5208TIP3   OH237182   4.930   0.652   2.736 -0.1357 -0.5942 -0.0760
 5208TIP3    H137183   4.977   0.665   2.654  0.7008  2.4222  0.7339
 5208TIP3    H237184   4.838   0.665   2.713  0.1297  0.6992 -0.5146
 5209TIP3   OH237185   5.563   3.906   1.923 -0.2600  0.3673 -0.1668
 5209TIP3    H137186   5.580   3.812   1.923  0.5593  0.5043 -0.9131
 5209TIP3    H237187   5.549   3.927   1.830 -0.3781  0.9918 -0.0101
 5210TIP3   OH237188   5.783   0.401   0.325  0.0254  0.0688 -0.5896
 5210TIP3    H137189   5.793   0.487   0.367 -1.8297 -0.1334  0.3749
 5210TIP3    H237190   5.757   0.422   0.235 -1.1965  0.5487 -0.1454
 5211TIP3   OH237191   2.857   1.098   3.734  0.2253  0.1360  0.6214
 5211TIP3    H137192   2.937   1.096   3.682  0.2206 -2.3355  0.5939
 5211TIP3    H237193   2.828   1.189   3.730  1.6222  0.5505 -1.5258
 5212TIP3   OH237194   1.148   6.342   1.531 -0.3072 -0.1428 -0.0392
 5212TIP3    H137195   1.156   6.413   1.595 -1.3959 -1.3906  1.5374
 5212TIP3    H237196   1.088   6.280   1.571 -0.1513 -1.5060 -1.8157
 5213TIP3   OH237197   1.398   4.822   3.667 -0.1717 -0.3225  0.7035
 5213TIP3    H137198   1.305   4.842   3.655 -0.3624 -1.7131 -0.4883
 5213TIP3    H237199   1.444   4.895   3.626 -0.7701 -0.3356 -0.0090
 5214TIP3   OH237200   0.970   2.915   1.484  0.0708 -0.0457 -0.5511
 5214TIP3    H137201   0.969   2.832   1.532  1.7994 -0.3458 -0.9884
 5214TIP3    H237202   0.918   2.898   1.406 -1.1952 -0.1126  0.2666
 5215TIP3   OH237203   2.318   1.548   8.358  0.4116 -0.1857  0.0890
 5215TIP3    H137204   2.395   1.492   8.361  1.0523  0.5939 -1.0076
 5215TIP3    H237205   2.333   1.605   8.283 -0.5796  0.9409  0.7175
 5216TIP3   OH237206   0.795   2.104   3.098 -0.1716 -0.3892  0.0050
 5216TIP3    H137207   0.708   2.085   3.132  0.6747 -0.2618  2.4358
 5216TIP3    H237208   0.854   2.081   3.169  1.6260  1.7186 -0.6848
 5217TIP3   OH237209   6.082   5.371   2.600 -0.2138 -0.2758  0.4136
 5217TIP3    H137210   6.137   5.450   2.595  2.0864 -1.4045  4.1905
 5217TIP3    H237211   6.121   5.311   2.537  0.9827  0.0285  0.8370
 5218TIP3   OH237212   5.383   4.675   0.157  0.1706  0.1018 -0.0340
 5218TIP3    H137213   5.352   4.755   0.114 -0.5914  0.2015  0.6671
 5218TIP3    H237214   5.437   4.632   0.091 -3.6797 -1.5332 -2.4854
 5219TIP3   OH237215   1.068   3.678   0.426 -0.0239 -0.1310  0.1758
 5219TIP3    H137216   1.145   3.723   0.392  0.6148  0.7995  2.6375
 5219TIP3    H237217   1.067   3.594   0.381  2.3432 -0.0963 -0.0366
 5220TIP3   OH237218   2.476   3.295   1.668 -0.2136 -0.3516 -0.5134
 5220TIP3    H137219   2.448   3.384   1.689  0.7797 -0.5473  1.9712
 5220TIP3    H237220   2.411   3.238   1.710  0.6215 -0.7753  0.2389
 5221TIP3   OH237221   1.032   6.223   0.493  0.1968 -0.0003  0.4208
 5221TIP3    H137222   1.069   6.298   0.540 -0.1482 -0.4426  1.4249
 5221TIP3    H237223   1.104   6.192   0.437  0.8332  0.1527  1.1278
 5222TIP3   OH237224   0.005   5.366   1.182  0.0540 -0.0600 -0.7047
 5222TIP3    H137225  -0.052   5.389   1.108  0.4586  3.2086 -0.1455
 5222TIP3    H237226   0.093   5.384   1.151  0.4492 -0.9384 -0.1432
 5223TIP3   OH237227   4.884   1.186   0.284  0.2897 -0.3566  1.0320
 5223TIP3    H137228   4.802   1.162   0.242 -0.0838  0.0589  1.4977
 5223TIP3    H237229   4.868   1.170   0.377  0.8128 -0.4827  1.1007
 5224TIP3   OH237230   4.928   2.916   1.554 -0.4192  0.0657  0.5177
 5224TIP3    H137231   4.868   2.881   1.487 -1.2727 -2.7041  2.5372
 5224TIP3    H237232   4.984   2.842   1.577  0.4320  1.1744  2.2398
 5225TIP3   OH237233   6.580   6.326   0.920  0.0895  0.2042  0.1863
 5225TIP3    H137234   6.612   6.267   0.852 -0.0091  2.0486 -1.5395
 5225TIP3    H237235   6.614   6.288   1.002 -0.0584 -2.2527 -0.7981
 5226TIP3   OH237236   3.356   6.394   3.253 -0.2391 -0.5077  0.0084
 5226TIP3    H137237   3.310   6.466   3.211 -2.8842 -1.3452  1.2667
 5226TIP3    H237238   3.327   6.316   3.205 -4.7292 -1.7274  3.9698
 5227TIP3   OH237239   4.550   0.059   1.063  0.4252  0.0766 -0.3714
 5227TIP3    H137240   4.571   0.009   0.984  0.4791 -1.3337  0.4999
 5227TIP3    H237241   4.633   0.064   1.111 -0.2972 -2.3938  1.3651
 5228TIP3   OH237242   3.886   6.124   0.538 -0.0737  0.0938  0.1909
 5228TIP3    H137243   3.833   6.049   0.566 -1.1627  0.6240 -0.3552
 5228TIP3    H237244   3.824   6.198   0.538  0.4129  0.5470 -1.4028
 5229TIP3   OH237245   6.330   0.267   2.831  0.4806  0.1868  0.6036
 5229TIP3    H137246   6.270   0.206   2.874  1.1770 -0.1142  1.1710
 5229TIP3    H237247   6.408   0.215   2.814  0.8598  0.7683  0.5517
 5230TIP3   OH237248   3.230   0.279   1.216  0.4170 -0.3848 -0.5896
 5230TIP3    H137249   3.135   0.271   1.221  0.4616 -0.9863 -0.5844
 5230TIP3    H237250   3.261   0.243   1.299  0.6129  0.5602 -0.2473
 5231TIP3   OH237251   0.549   5.824   8.526  0.3194  0.0729 -0.7252
 5231TIP3    H137252   0.604   5.891   8.485  0.1991  1.3388  1.0512
 5231TIP3    H237253   0.460   5.856   8.515  0.3999  2.0650  2.9509
 5232TIP3   OH237254   4.680   5.972   2.357 -0.3512  0.4347  0.1543
 5232TIP3    H137255   4.657   6.057   2.320  0.5955  0.3846 -0.5920
 5232TIP3    H237256   4.686   5.914   2.281 -2.6467 -0.7304  0.7892
 5233TIP3   OH237257   1.463   6.333   8.191  0.0276 -0.5251  0.5289
 5233TIP3    H137258   1.440   6.412   8.240 -0.5039 -0.8708  0.8471
 5233TIP3    H237259   1.422   6.346   8.106  0.3336 -0.2502  0.4225
 5234TIP3   OH237260   5.472   2.574   1.273 -0.6192 -0.4970  0.6855
 5234TIP3    H137261   5.459   2.667   1.252  0.8896 -0.5512 -0.6524
 5234TIP3    H237262   5.383   2.538   1.276 -1.2742  1.0902  1.8980
 5235TIP3   OH237263   0.713   4.045   2.378  0.4902  0.0551 -0.0429
 5235TIP3    H137264   0.692   4.056   2.285 -2.9735  2.7874  0.8546
 5235TIP3    H237265   0.740   4.132   2.407 -0.4632 -0.2508  1.9048
 5236TIP3   OH237266   5.405   6.076   8.154 -0.0150  0.2221  0.5421
 5236TIP3    H137267   5.487   6.123   8.173 -0.2704  0.6799  0.5187
 5236TIP3    H237268   5.433   5.990   8.123  0.4812  0.7876 -0.6090
 5237TIP3   OH237269   3.899   5.962   8.072  0.0603 -0.5943 -0.1846
 5237TIP3    H137270   3.870   6.051   8.055  0.3086 -0.8493 -2.2296
 5237TIP3    H237271   3.968   5.947   8.008  0.4209 -2.0613  0.5113
 5238TIP3   OH237272   0.722   1.536   0.779 -0.7021  0.0863 -0.3209
 5238TIP3    H137273   0.653   1.471   0.786 -1.1211  0.6612  1.3925
 5238TIP3    H237274   0.682   1.609   0.732 -1.4005  0.5294  0.9008
 5239TIP3   OH237275   4.928   4.414   0.323  0.0743  0.2352 -0.1426
 5239TIP3    H137276   4.875   4.493   0.332 -0.4877 -0.0342 -1.0549
 5239TIP3    H237277   4.956   4.413   0.232  0.3974 -0.4287 -0.0450
 5240TIP3   OH237278   3.659   4.162   1.116 -0.0660 -0.2863 -0.0875
 5240TIP3    H137279   3.623   4.106   1.185 -0.3287 -1.6878 -1.3183
 5240TIP3    H237280   3.663   4.249   1.156 -1.0303 -0.8829  1.4050
 5241TIP3   OH237281   1.177   5.783   2.372  0.1956 -0.6704 -0.3134
 5241TIP3    H137282   1.093   5.819   2.344  0.2948  0.3977  0.6980
 5241TIP3    H237283   1.220   5.758   2.290 -1.1168 -1.3035 -0.8419
 5242TIP3   OH237284   0.894   0.995   1.453  0.5830  0.2382  0.8034
 5242TIP3    H137285   0.910   1.083   1.420  0.6071  0.0941  0.4279
 5242TIP3    H237286   0.816   1.004   1.508  0.2967  0.3995  0.3734
 5243TIP3   OH237287   3.435   1.916   2.285  0.9357  0.0433  0.3304
 5243TIP3    H137288   3.349   1.903   2.325  1.4169 -0.3514  1.2615
 5243TIP3    H237289   3.421   1.898   2.192  0.2450 -1.1014  0.6359
 5244TIP3   OH237290   4.769   4.241   2.334 -0.1082  0.1067  0.2921
 5244TIP3    H137291   4.848   4.246   2.388  0.6084 -2.0055 -0.4758
 5244TIP3    H237292   4.742   4.149   2.338 -0.9264  0.2064 -1.6664
 5245TIP3   OH237293   4.871   3.612   1.155 -0.1341 -0.0222  0.2754
 5245TIP3    H137294   4.939   3.567   1.105  1.4508  1.0069  1.4289
 5245TIP3    H237295   4.883   3.583   1.245 -0.2449  1.2902  0.7428
 5246TIP3   OH237296   1.087   3.213   3.573 -0.4173 -0.4743 -0.7286
 5246TIP3    H137297   0.999   3.229   3.608  0.1076  1.9597 -0.3050
 5246TIP3    H237298   1.084   3.251   3.485  0.2883  0.0092 -0.5551
 5247TIP3   OH237299   2.936   1.776   4.155 -0.2017  0.6730  0.1059
 5247TIP3    H137300   2.912   1.869   4.148  0.5841  0.8383 -0.5982
 5247TIP3    H237301   2.894   1.735   4.079  1.5343  0.9448 -1.0743
 5248TIP3   OH237302   0.285   0.817   3.515 -0.0351  0.4044  0.3964
 5248TIP3    H137303   0.372   0.779   3.524  0.3629  1.3893  0.9355
 5248TIP3    H237304   0.235   0.784   3.590 -0.0307  0.0818  0.2564
 5249TIP3   OH237305   5.458   1.594   2.800  0.3724 -0.2444 -0.0763
 5249TIP3    H137306   5.466   1.645   2.881 -0.8356  0.1490 -0.1718
 5249TIP3    H237307   5.387   1.532   2.818 -1.3196  1.1821 -1.4532
 5250TIP3   OH237308   3.448   5.052   0.596  0.1955  0.3181  0.4336
 5250TIP3    H137309   3.479   5.139   0.568 -0.1026  1.1810  2.5599
 5250TIP3    H237310   3.508   4.991   0.554  0.4463  1.5481 -1.1041
 5251TIP3   OH237311   1.940   3.588   2.883 -0.4200 -0.4210  0.1947
 5251TIP3    H137312   1.950   3.551   2.795 -1.0710  1.2391 -0.6176
 5251TIP3    H237313   2.026   3.575   2.924  0.2356 -0.2922 -1.0721
 5252TIP3   OH237314   3.048   0.360   2.385  0.1964  0.6615  0.1381
 5252TIP3    H137315   2.963   0.349   2.342  1.0317  1.6374 -1.9162
 5252TIP3    H237316   3.041   0.444   2.430 -0.9049 -0.6607  2.5980
 5253TIP3   OH237317   3.568   2.034   0.177  0.0254  0.5128 -0.4579
 5253TIP3    H137318   3.551   1.943   0.150 -0.0762  0.0822  0.9620
 5253TIP3    H237319   3.481   2.070   0.195  0.1885  0.1487  1.1854
 5254TIP3   OH237320   5.920   2.088   2.535  0.7525  0.5910 -0.3977
 5254TIP3    H137321   5.979   2.019   2.504 -0.2047 -0.0357 -0.8534
 5254TIP3    H237322   5.906   2.143   2.458  1.6255  1.4097 -0.0022
 5255TIP3   OH237323   1.402   3.211   2.198  0.0654  0.8444  0.2290
 5255TIP3    H137324   1.483   3.259   2.217 -0.0417  0.5319  1.5671
 5255TIP3    H237325   1.419   3.168   2.115  1.0487  1.2764  0.1863
 5256TIP3   OH237326   5.530   2.302   1.953 -0.1975  0.0574 -0.5707
 5256TIP3    H137327   5.586   2.372   1.920 -0.9035  2.5634  3.0399
 5256TIP3    H237328   5.442   2.325   1.925 -0.5134  1.0314  1.1289
 5257TIP3   OH237329   2.760   4.620   2.945  0.1929  0.4128 -0.5152
 5257TIP3    H137330   2.694   4.604   3.013  0.7300 -2.7421 -0.5719
 5257TIP3    H237331   2.714   4.605   2.863  0.5461 -0.1813 -0.6159
 5258TIP3   OH237332   2.268   0.846   3.275  0.2731 -0.1147  0.0389
 5258TIP3    H137333   2.313   0.922   3.312 -0.6733  0.6144 -0.2663
 5258TIP3    H237334   2.182   0.846   3.318 -0.2990 -0.1149 -1.0771
 5259TIP3   OH237335   4.710   4.763   1.131  1.0496  0.2011 -0.1471
 5259TIP3    H137336   4.684   4.745   1.041 -0.3471  0.7629  0.1036
 5259TIP3    H237337   4.659   4.702   1.183  0.9002  0.7163  0.3244
 5260TIP3   OH237338   4.387   5.980   1.332 -0.3990 -0.4494 -0.1362
 5260TIP3    H137339   4.408   5.954   1.422 -3.7266  0.7848  1.1638
 5260TIP3    H237340   4.332   5.909   1.299 -1.8513  0.5381  0.0591
 5261TIP3   OH237341   2.736   1.545   1.403  0.3445 -0.2626  0.5363
 5261TIP3    H137342   2.712   1.636   1.384  0.8310 -0.1411  0.5049
 5261TIP3    H237343   2.652   1.502   1.419  0.1018  0.1686  0.4536
 5262TIP3   OH237344   4.890   0.339   1.861  0.3042 -0.3445  0.1114
 5262TIP3    H137345   4.983   0.316   1.868  0.1643 -1.3114 -0.9934
 5262TIP3    H237346   4.852   0.309   1.944  1.1733  1.2171  1.1372
 5263TIP3   OH237347   4.769   1.069   2.258  0.3127  0.4236 -0.2132
 5263TIP3    H137348   4.802   0.984   2.288  1.1889  0.1817 -1.7647
 5263TIP3    H237349   4.712   1.099   2.329 -1.7287 -2.4201 -0.4466
 5264TIP3   OH237350   3.537   3.199   2.838 -0.0345  0.5379 -0.4763
 5264TIP3    H137351   3.559   3.120   2.888  0.1362 -0.3837 -1.9570
 5264TIP3    H237352   3.444   3.212   2.854 -0.2795 -0.5216 -0.9580
 5265TIP3   OH237353   6.577   2.550   0.505  0.5395 -1.0946 -0.0071
 5265TIP3    H137354   6.514   2.506   0.563 -0.0570  0.2766  0.4160
 5265TIP3    H237355   6.553   2.642   0.509  3.2194 -0.3477  0.9662
 5266TIP3   OH237356   6.063   6.488   2.856  0.6416 -0.2276 -0.0566
 5266TIP3    H137357   6.013   6.409   2.879  0.9040  0.0628  1.6414
 5266TIP3    H237358   6.154   6.465   2.876  0.8569  0.1393 -0.5998
 5267TIP3   OH237359   4.843   6.321   2.636 -0.1803  0.2075 -0.1198
 5267TIP3    H137360   4.905   6.341   2.566  0.4355  1.7470  0.8135
 5267TIP3    H237361   4.759   6.353   2.604  0.1640  1.2211 -0.0393
 5268TIP3   OH237362   5.681   0.850   1.194  0.6618  0.4238 -0.3325
 5268TIP3    H137363   5.586   0.852   1.177  0.4388 -2.1552  0.1805
 5268TIP3    H237364   5.689   0.872   1.287  0.8329  2.9052 -0.8729
 5269TIP3   OH237365   5.873   1.559   8.360 -0.3810  1.2630  0.5635
 5269TIP3    H137366   5.926   1.569   8.281  0.7711 -1.1521  0.9438
 5269TIP3    H237367   5.926   1.597   8.430  1.1886 -1.5273  1.0148
 5270TIP3   OH237368   5.268   4.574   1.044 -0.0036  0.2667 -0.5761
 5270TIP3    H137369   5.276   4.581   1.140 -0.0917  2.5258 -0.6850
 5270TIP3    H237370   5.229   4.487   1.030  2.3978 -1.2692  1.2677
 5271TIP3   OH237371   4.674   0.324   0.443 -0.0811  0.0102 -0.6418
 5271TIP3    H137372   4.616   0.253   0.417 -1.2673  0.8954 -0.4946
 5271TIP3    H237373   4.706   0.299   0.530 -2.2688  0.6738  0.4124
 5272TIP3   OH237374   2.350   3.061   2.244 -0.2253 -0.3946 -0.2987
 5272TIP3    H137375   2.412   3.039   2.313 -0.1658  1.0632  0.1462
 5272TIP3    H237376   2.308   3.141   2.274  0.4050  0.7638 -2.3179
 5273TIP3   OH237377   1.223   4.591   1.954  0.2561 -0.0305  0.4229
 5273TIP3    H137378   1.136   4.616   1.922 -0.3357  0.6972  2.4020
 5273TIP3    H237379   1.227   4.496   1.941 -0.5478  0.0293 -0.3567
 5274TIP3   OH237380   0.855   5.041   3.132  0.2408 -0.6799 -0.1202
 5274TIP3    H137381   0.902   5.121   3.108  0.1942 -1.4005 -2.8987
 5274TIP3    H237382   0.882   5.025   3.223  1.1298  1.8355  0.1489
 5275TIP3   OH237383   0.234   4.357   1.965  0.1674 -0.7941 -0.7659
 5275TIP3    H137384   0.317   4.352   1.917  1.4265  1.0786  1.0402
 5275TIP3    H237385   0.244   4.295   2.037  1.3207  1.4458  1.1507
 5276TIP3   OH237386   2.157   6.123   1.661 -0.0192  0.2518 -0.5289
 5276TIP3    H137387   2.183   6.061   1.593 -0.9359 -1.1394  0.3395
 5276TIP3    H237388   2.076   6.087   1.697 -0.7676  2.1429 -0.2014
 5277TIP3   OH237389   4.638   6.139   1.903  0.0112  0.0935  0.0667
 5277TIP3    H137390   4.711   6.149   1.841  1.3668  1.4586  1.7694
 5277TIP3    H237391   4.667   6.072   1.964 -0.6601 -0.1601  0.1163
 5278TIP3   OH237392   5.012   1.339   1.824  0.0554 -0.3793  0.1094
 5278TIP3    H137393   5.008   1.406   1.755  0.9222  0.8892  1.2564
 5278TIP3    H237394   5.103   1.311   1.825 -0.2750 -1.5241 -0.2764
 5279TIP3   OH237395   6.665   6.019   2.073 -0.2331  0.0604 -0.3599
 5279TIP3    H137396   6.577   6.025   2.036  0.6207  0.3138 -2.4685
 5279TIP3    H237397   6.681   6.105   2.111 -1.5805 -0.5710  1.8542
 5280TIP3   OH237398   3.441   1.203   7.908 -0.1104  0.3504  0.1985
 5280TIP3    H137399   3.401   1.242   7.830  0.2849 -0.7251 -0.5589
 5280TIP3    H237400   3.527   1.173   7.878 -0.8447 -2.1732  0.4219
 5281TIP3   OH237401   5.796   4.819   2.624  0.6253 -0.5017 -0.1665
 5281TIP3    H137402   5.802   4.911   2.648  1.2067 -0.6581  0.3243
 5281TIP3    H237403   5.827   4.816   2.533  0.8717 -0.2459 -0.0920
 5282TIP3   OH237404   1.635   6.558   3.037 -0.6926 -0.3636  0.2414
 5282TIP3    H137405   1.542   6.537   3.028 -0.1624 -1.7968 -3.6080
 5282TIP3    H237406   1.652   6.625   2.972  1.1372 -0.7791  0.2356
 5283TIP3   OH237407   4.251   1.371   8.339  0.1854  0.0649 -0.2448
 5283TIP3    H137408   4.253   1.374   8.434 -0.8153  0.3033 -0.2154
 5283TIP3    H237409   4.333   1.328   8.314 -0.2660 -1.4779  0.7909
 5284TIP3   OH237410   1.991   3.783   2.119  0.3313  0.2037 -0.0204
 5284TIP3    H137411   1.928   3.724   2.078 -1.3832  1.4034  0.7451
 5284TIP3    H237412   2.042   3.818   2.046  0.6309 -1.3478 -0.5831
 5285TIP3   OH237413   5.406   5.567   1.029  0.1074 -0.5529  0.0064
 5285TIP3    H137414   5.440   5.545   1.116  0.8628  0.2149 -0.0789
 5285TIP3    H237415   5.318   5.601   1.045 -0.2228 -1.5376  0.3439
 5286TIP3   OH237416   3.784   3.229   0.079 -0.3526  0.6568 -0.2881
 5286TIP3    H137417   3.879   3.232   0.064 -0.1107  1.1149  1.1529
 5286TIP3    H237418   3.751   3.171   0.011  1.0553 -0.0825 -0.3881
 5287TIP3   OH237419   3.759   1.312   2.225  0.1425 -0.0551  0.1649
 5287TIP3    H137420   3.736   1.403   2.245 -1.2377 -0.4347  0.4210
 5287TIP3    H237421   3.682   1.277   2.181  1.2595 -0.6636 -1.4012
 5288TIP3   OH237422   5.591   3.440   3.806 -0.3002 -0.0173  0.4580
 5288TIP3    H137423   5.644   3.392   3.743 -1.1284 -0.9411  0.4333
 5288TIP3    H237424   5.594   3.531   3.777  2.5168  0.2799  1.3386
 5289TIP3   OH237425   1.381   4.988   1.027 -0.1522  0.4809 -0.2943
 5289TIP3    H137426   1.433   5.019   1.101 -0.6151 -2.7580  1.5594
 5289TIP3    H237427   1.445   4.965   0.960  0.4074  1.4232 -0.1065
 5290TIP3   OH237428   0.384   5.481   2.058 -0.5537 -0.6185 -0.4120
 5290TIP3    H137429   0.456   5.465   1.997  0.8656  1.9213  0.4646
 5290TIP3    H237430   0.426   5.486   2.144 -2.0887 -1.0528  0.3996
 5291TIP3   OH237431   4.558   3.045   1.477 -0.2341  0.9343 -0.4077
 5291TIP3    H137432   4.508   2.984   1.531  1.9089 -0.5413  0.0649
 5291TIP3    H237433   4.605   3.100   1.539  1.5500 -0.1796 -0.6773
 5292TIP3   OH237434   1.977   2.536   8.433 -1.1963 -0.2461 -0.3517
 5292TIP3    H137435   2.051   2.476   8.423 -0.8792  0.2183 -0.8614
 5292TIP3    H237436   1.901   2.486   8.404 -0.9809 -0.5113 -0.4613
 5293TIP3   OH237437   0.337   5.419   7.772 -0.2120 -0.3109  0.0993
 5293TIP3    H137438   0.324   5.335   7.814 -0.5610 -1.5295 -2.2568
 5293TIP3    H237439   0.384   5.399   7.691 -1.1190  1.6003 -1.0015
 5294TIP3   OH237440   5.136   3.559   1.088 -0.2947  0.1821  0.4032
 5294TIP3    H137441   5.194   3.634   1.106 -1.2957  1.0401  0.1432
 5294TIP3    H237442   5.143   3.504   1.166 -0.5874  1.2318  1.1877
 5295TIP3   OH237443   4.843   4.786   1.364  0.1687 -1.2278 -0.3641
 5295TIP3    H137444   4.798   4.771   1.281 -0.2585 -1.2463 -0.1296
 5295TIP3    H237445   4.922   4.734   1.358  0.9370 -0.0162 -1.4141
 5296TIP3   OH237446   0.054   5.709   3.092 -0.0900 -0.2132  0.6871
 5296TIP3    H137447  -0.000   5.744   3.021 -0.2706  1.3188  1.5414
 5296TIP3    H237448   0.116   5.779   3.111  0.0725 -0.6822  1.9294
 5297TIP3   OH237449   2.137   0.763   0.411  0.5219 -0.4479 -0.3189
 5297TIP3    H137450   2.065   0.788   0.469 -2.1435 -1.7412 -2.7967
 5297TIP3    H237451   2.160   0.844   0.365  0.9965  0.0742  0.8190
 5298TIP3   OH237452   3.267   2.074   1.298  0.2891  0.3032 -0.0699
 5298TIP3    H137453   3.294   2.051   1.387  0.4367 -0.6702 -0.3579
 5298TIP3    H237454   3.230   1.994   1.262  0.7366  0.5264 -1.0716
 5299TIP3   OH237455   1.735   6.284   3.052 -0.2220  0.3727  0.0524
 5299TIP3    H137456   1.664   6.267   3.114  0.1233  1.3307  0.7364
 5299TIP3    H237457   1.742   6.380   3.049 -0.2497  0.3530 -1.5044
 5300TIP3   OH237458   1.964   6.842   2.823  0.4379 -0.1398 -1.3238
 5300TIP3    H137459   1.975   6.820   2.730 -0.8268 -0.8184 -1.3414
 5300TIP3    H237460   2.026   6.786   2.869 -0.9079 -1.9368 -1.5801
 5301TIP3   OH237461   6.770   3.428   8.486 -0.1537  0.3872  0.2566
 5301TIP3    H137462   6.784   3.414   8.580  0.5379 -1.6541 -0.1111
 5301TIP3    H237463   6.847   3.479   8.458  0.3801 -0.2457  0.5451
 5302TIP3   OH237464   6.144   6.758   0.014  0.1574 -0.2795 -0.2608
 5302TIP3    H137465   6.230   6.779  -0.024  0.5796 -1.9583 -0.3254
 5302TIP3    H237466   6.141   6.806   0.097  1.6597 -1.1056  0.2994
 5303TIP3   OH237467   6.732   0.081   3.654  1.3699 -0.1300 -0.0877
 5303TIP3    H137468   6.796   0.149   3.629 -0.0628  1.1068 -0.5306
 5303TIP3    H237469   6.778   0.029   3.720  2.2410  1.8205  0.9320
 5304TIP3   OH237470   0.265   6.697   0.503  0.3498  0.1424 -0.0362
 5304TIP3    H137471   0.223   6.727   0.584 -0.5030  0.9661 -0.7541
 5304TIP3    H237472   0.358   6.694   0.525  0.5079  3.0862  0.2331
 5305TIP3   OH237473   4.892   3.566   0.444  0.3436 -0.2593 -0.1666
 5305TIP3    H137474   4.800   3.551   0.468  0.0373 -0.7380 -1.5345
 5305TIP3    H237475   4.896   3.659   0.420  0.2856 -0.1666  0.1805
 5306TIP3   OH237476   5.896   2.334   0.699 -0.1281  0.1321 -0.8548
 5306TIP3    H137477   5.813   2.316   0.742 -0.2597 -0.7413 -1.4530
 5306TIP3    H237478   5.901   2.270   0.628  1.4582 -0.4399 -0.2807
 5307TIP3   OH237479   4.274   0.672   0.685  0.4072 -0.0808 -0.1662
 5307TIP3    H137480   4.331   0.622   0.743  1.0881 -0.3011 -1.0070
 5307TIP3    H237481   4.259   0.614   0.610  2.1807  1.3287 -1.7324
 5308TIP3   OH237482   1.753   1.923   2.498  0.7782  0.2630 -0.2050
 5308TIP3    H137483   1.659   1.913   2.515  0.6779  1.0466 -0.2700
 5308TIP3    H237484   1.795   1.905   2.583  0.7116 -1.7671 -0.5466
 5309TIP3   OH237485   6.274   2.602   3.079  0.6894  0.1945  0.0228
 5309TIP3    H137486   6.289   2.692   3.109 -0.9639  0.2913  0.7045
 5309TIP3    H237487   6.222   2.613   2.999 -1.6528 -0.1085  1.4034
 5310TIP3   OH237488   5.586   2.086   0.041 -0.0339 -0.3167 -0.0495
 5310TIP3    H137489   5.561   2.003   0.000 -1.6783 -0.1932  0.6166
 5310TIP3    H237490   5.587   2.067   0.135 -0.9674  0.5277  0.1491
 5311TIP3   OH237491   4.715   5.107   8.313 -0.6793 -0.3225 -0.1441
 5311TIP3    H137492   4.735   5.039   8.378  2.7776 -0.0175 -0.6925
 5311TIP3    H237493   4.723   5.189   8.362 -1.5501 -0.1988 -0.2057
 5312TIP3   OH237494   4.704   5.778   2.138 -0.7513 -0.6041  0.1345
 5312TIP3    H137495   4.660   5.695   2.118 -0.1894 -0.5423 -1.5613
 5312TIP3    H237496   4.796   5.762   2.120 -0.7564  0.6412 -1.2799
 5313TIP3   OH237497   6.007   3.792   2.120  0.5644 -0.0031  0.5552
 5313TIP3    H137498   5.958   3.725   2.168  1.6119 -0.7522  0.6190
 5313TIP3    H237499   5.946   3.865   2.111  0.2396  0.0430  2.7601
 5314TIP3   OH237500   5.908   2.068   3.453 -0.0898 -0.0628  0.1891
 5314TIP3    H137501   5.949   2.085   3.537 -0.5713 -0.0813  0.4323
 5314TIP3    H237502   5.959   1.997   3.415 -0.2081 -0.4318  0.7131
 5315TIP3   OH237503   1.506   6.460   2.771  0.6570 -0.0229 -0.7044
 5315TIP3    H137504   1.430   6.491   2.821  0.3901  2.4949 -2.4733
 5315TIP3    H237505   1.577   6.457   2.835 -0.0546  1.4505  0.2066
 5316TIP3   OH237506   3.889   3.398   0.481  0.2889 -0.1775 -0.3218
 5316TIP3    H137507   3.935   3.354   0.410  0.5196  1.2322 -1.0842
 5316TIP3    H237508   3.924   3.487   0.481 -1.2567  0.4700  0.1360
 5317TIP3   OH237509   5.111   2.696   1.437  0.2485 -0.2948 -0.3277
 5317TIP3    H137510   5.106   2.610   1.478 -0.5902 -1.0244 -1.8591
 5317TIP3    H237511   5.040   2.695   1.373 -1.1803  2.3586  1.0668
 5318TIP3   OH237512   0.952   1.366   1.152 -0.2076 -0.0059  0.4639
 5318TIP3    H137513   0.972   1.397   1.064 -1.8689 -1.9207 -0.6604
 5318TIP3    H237514   1.014   1.295   1.168  0.4001  0.6341  1.0860
 5319TIP3   OH237515   6.478   1.282   1.122  0.6566  0.1409 -0.0005
 5319TIP3    H137516   6.428   1.274   1.203  1.6512  0.3699  0.6523
 5319TIP3    H237517   6.530   1.201   1.119  1.8905  0.8876  0.4913
 5320TIP3   OH237518   0.877   2.109   1.663  0.0683  0.1175 -0.8299
 5320TIP3    H137519   0.820   2.186   1.663  0.4136  0.3710 -0.4729
 5320TIP3    H237520   0.951   2.134   1.608  1.1662  0.7775  0.8736
 5321TIP3   OH237521   3.306   2.972   8.095  0.2536  0.3878 -0.1997
 5321TIP3    H137522   3.329   3.064   8.083  0.6876  0.1440 -1.3047
 5321TIP3    H237523   3.306   2.960   8.190 -0.7350  1.7547  0.0060
 5322TIP3   OH237524   3.078   2.340   3.909 -0.6332 -0.1755  0.5054
 5322TIP3    H137525   3.119   2.406   3.854 -1.4508 -0.6519 -0.7119
 5322TIP3    H237526   3.004   2.385   3.949 -0.1422  0.1212  1.1001
 5323TIP3   OH237527   3.386   0.709   0.055 -0.9007  0.5642  0.0370
 5323TIP3    H137528   3.438   0.778   0.096 -0.9110 -0.3779  1.7574
 5323TIP3    H237529   3.416   0.707  -0.036  0.8227  1.2331  0.5374
 5324TIP3   OH237530   5.143   6.566   1.788 -0.1263  0.2729  0.4519
 5324TIP3    H137531   5.210   6.630   1.811  0.6607 -0.9258  1.6106
 5324TIP3    H237532   5.074   6.580   1.853  0.5958 -0.8424  1.4992
 5325TIP3   OH237533   4.742   1.430   0.593 -0.5121  0.4338  0.3624
 5325TIP3    H137534   4.836   1.421   0.610 -0.6675  0.8164  1.5525
 5325TIP3    H237535   4.714   1.343   0.566  0.0635  0.1371  0.7022
 5326TIP3   OH237536   5.745   2.960   2.544 -0.4422  0.2760 -0.1643
 5326TIP3    H137537   5.723   2.909   2.466  0.2667  0.4628 -0.4933
 5326TIP3    H237538   5.840   2.947   2.556 -0.7131 -0.6196  1.2902
 5327TIP3   OH237539   6.561   2.380   2.514  0.3547  0.1623  0.5781
 5327TIP3    H137540   6.569   2.312   2.447 -1.2158 -0.4009  0.9357
 5327TIP3    H237541   6.590   2.338   2.595 -2.7423 -0.8834  1.2548
 5328TIP3   OH237542   6.725   0.612   0.228  0.1936  0.0541  0.3171
 5328TIP3    H137543   6.746   0.541   0.289 -2.2734 -0.0593  1.1759
 5328TIP3    H237544   6.752   0.691   0.274  1.1333 -0.2007  0.2190
 5329TIP3   OH237545   2.252   1.780   2.633 -0.0665  0.1278 -0.0378
 5329TIP3    H137546   2.276   1.838   2.562  1.1314  0.5019  0.6344
 5329TIP3    H237547   2.252   1.836   2.711  2.9308 -1.0393  0.9257
 5330TIP3   OH237548   0.219   6.453   1.926  0.6306 -0.4127  0.4309
 5330TIP3    H137549   0.177   6.477   1.843 -0.2145  1.2373  1.2834
 5330TIP3    H237550   0.311   6.441   1.903  0.0825 -2.1311 -1.1173
 5331TIP3   OH237551   6.294   1.441   1.329  0.5673  0.0172  0.1183
 5331TIP3    H137552   6.303   1.427   1.423  1.7459  1.3876  0.2385
 5331TIP3    H237553   6.330   1.528   1.313  0.3069 -0.1377 -1.5967
 5332TIP3   OH237554   1.579   0.704   3.344  0.3069 -0.3682 -0.2663
 5332TIP3    H137555   1.655   0.709   3.402  0.4592 -1.5475 -0.3381
 5332TIP3    H237556   1.535   0.788   3.355  0.9711 -0.1276  0.6774
 5333TIP3   OH237557   0.868   1.741   7.389 -0.3022 -0.0770  1.0033
 5333TIP3    H137558   0.879   1.830   7.355  1.0318 -0.4689  0.3742
 5333TIP3    H237559   0.816   1.696   7.323  0.9395 -0.3844  0.2041
 5334TIP3   OH237560   2.130   4.089   3.794 -0.1921 -0.2191  0.1225
 5334TIP3    H137561   2.175   4.132   3.721 -1.3525  0.3317 -0.3021
 5334TIP3    H237562   2.196   4.034   3.835  0.7357  0.2289 -0.7448
 5335TIP3   OH237563   0.327   3.421   2.077 -0.1303  0.3063 -0.8152
 5335TIP3    H137564   0.374   3.369   2.143 -0.2698  0.4729 -0.5862
 5335TIP3    H237565   0.395   3.474   2.036  0.3062 -1.1831 -2.1461
 5336TIP3   OH237566   1.387   4.412   3.581 -0.8660  0.2708 -0.3781
 5336TIP3    H137567   1.393   4.482   3.646  0.0697 -0.0737 -0.0824
 5336TIP3    H237568   1.410   4.332   3.629 -3.0345 -0.4428 -0.4196
 5337TIP3   OH237569   4.364   3.219   1.352  0.0632 -0.0671  1.0392
 5337TIP3    H137570   4.410   3.147   1.396 -0.1626 -0.4358  0.6803
 5337TIP3    H237571   4.311   3.259   1.421  3.1172  2.2963  2.2503
 5338TIP3   OH237572   3.243   3.717   2.403 -0.4163 -0.7430 -0.2056
 5338TIP3    H137573   3.203   3.778   2.465 -1.3007 -1.8584  0.3648
 5338TIP3    H237574   3.195   3.635   2.417  0.3011 -1.3850 -1.4077
 5339TIP3   OH237575   5.172   6.536   1.455 -0.3991  0.2962 -0.2943
 5339TIP3    H137576   5.138   6.500   1.374  0.5767 -0.2161 -0.5002
 5339TIP3    H237577   5.129   6.486   1.524  0.1883 -0.6009 -0.5559
 5340TIP3   OH237578   4.529   5.263   3.667  0.1537  0.2945  0.0418
 5340TIP3    H137579   4.467   5.332   3.689 -0.2213  0.8254 -2.4144
 5340TIP3    H237580   4.614   5.299   3.691 -0.1496  1.1267 -0.1039
 5341TIP3   OH237581   1.103   5.527   3.363  0.1350 -0.1420  0.4299
 5341TIP3    H137582   1.053   5.608   3.367  0.6433  0.1502  1.2533
 5341TIP3    H237583   1.044   5.460   3.397 -0.7907 -0.4203 -1.5660
 5342TIP3   OH237584   0.878   6.561   3.468 -0.0560  0.2072 -0.3885
 5342TIP3    H137585   0.900   6.489   3.527 -1.2670 -0.6897 -0.9896
 5342TIP3    H237586   0.787   6.544   3.443  0.3011  0.7849 -2.1731
 5343TIP3   OH237587   2.666   3.223   2.089 -0.1861 -0.0412 -0.0206
 5343TIP3    H137588   2.735   3.202   2.151 -0.2744  0.6000  0.3056
 5343TIP3    H237589   2.614   3.143   2.083  2.2013 -1.5654 -2.4972
 5344TIP3   OH237590   5.271   0.552   3.612  0.1113 -0.1369  0.1472
 5344TIP3    H137591   5.311   0.569   3.527 -0.8592 -0.8082 -0.4524
 5344TIP3    H237592   5.319   0.609   3.672  2.1699 -1.1042 -0.4785
 5345TIP3   OH237593   0.961   4.611   1.868  0.7797 -0.2790  0.0409
 5345TIP3    H137594   0.964   4.657   1.784  0.3045  1.8847  1.1470
 5345TIP3    H237595   0.885   4.553   1.860  0.6893 -0.0554 -0.9861
 5346TIP3   OH237596   0.513   5.681   1.791 -0.3447  0.2681 -0.0133
 5346TIP3    H137597   0.453   5.730   1.847  0.8497  1.1604  0.5274
 5346TIP3    H237598   0.592   5.671   1.844 -0.3662 -1.8035 -0.3206
 5347TIP3   OH237599   2.028   1.592   8.336 -0.5271  0.2556  0.1251
 5347TIP3    H137600   2.013   1.574   8.243  0.5555  0.5260 -0.1113
 5347TIP3    H237601   2.112   1.551   8.356 -0.6441  0.3856  0.9359
 5348TIP3   OH237602   3.699   1.751   0.458  0.1843  0.4408  0.0816
 5348TIP3    H137603   3.653   1.835   0.468 -1.6209 -0.3520 -1.0047
 5348TIP3    H237604   3.631   1.689   0.433  1.6328 -1.1665 -0.0974
 5349TIP3   OH237605   5.002   6.045   0.299  0.0185  1.1354  0.7187
 5349TIP3    H137606   5.040   6.016   0.382 -0.2091 -1.9970 -0.1329
 5349TIP3    H237607   4.924   6.095   0.324 -1.7294 -2.1558  2.5513
 5350TIP3   OH237608   3.392   1.648   0.580  0.3888 -0.3214  0.7866
 5350TIP3    H137609   3.345   1.671   0.500 -0.3270 -1.1418  0.9613
 5350TIP3    H237610   3.327   1.655   0.650  0.8212 -0.3226  1.1957
 5351TIP3   OH237611   4.378   2.138   1.559  0.2501 -0.7397  0.0090
 5351TIP3    H137612   4.349   2.228   1.544  0.2776 -0.6424  0.5040
 5351TIP3    H237613   4.334   2.112   1.640 -1.1171 -1.7777 -1.0269
 5352TIP3   OH237614   3.115   1.029   2.215  0.4199  0.3710  0.2391
 5352TIP3    H137615   3.207   1.034   2.244  0.3539  1.8414  0.2903
 5352TIP3    H237616   3.065   1.055   2.293  0.1926  3.4592 -0.7885
 5353TIP3   OH237617   4.476   4.686   0.348 -0.7359 -0.1115 -0.3103
 5353TIP3    H137618   4.475   4.724   0.260 -3.6305 -1.7825 -1.1378
 5353TIP3    H237619   4.445   4.757   0.404  1.4221  1.0689 -0.5081
 5354TIP3   OH237620   6.510   4.762   1.597  0.0248 -0.4125 -0.1700
 5354TIP3    H137621   6.532   4.673   1.568  3.8897  0.3888 -0.2246
 5354TIP3    H237622   6.534   4.764   1.689  2.5278  1.1778 -0.7698
 5355TIP3   OH237623   1.106   6.175   2.441 -0.0843  0.2139 -0.1299
 5355TIP3    H137624   1.177   6.138   2.493 -1.6960 -1.1822  1.2011
 5355TIP3    H237625   1.127   6.269   2.435  0.9394  0.1561  1.7915
 5356TIP3   OH237626   5.528   5.244   2.158 -0.3448 -0.0553 -0.4008
 5356TIP3    H137627   5.585   5.242   2.082  0.9500 -1.1970  0.5444
 5356TIP3    H237628   5.583   5.213   2.230 -1.6164  0.6586  0.9380
 5357TIP3   OH237629   3.167   6.330   1.011 -0.7095  0.1927  0.4901
 5357TIP3    H137630   3.128   6.418   1.010  0.2111  0.7163  3.0608
 5357TIP3    H237631   3.256   6.344   1.044 -0.1222 -1.5931 -0.2446
 5358TIP3   OH237632   6.290   5.699   1.320  0.0039  0.0659  0.2899
 5358TIP3    H137633   6.326   5.620   1.360 -1.3808 -0.7026  0.0883
 5358TIP3    H237634   6.288   5.680   1.226 -0.1657  0.4041  0.2214
 5359TIP3   OH237635   3.131   1.901   0.050 -0.2797  0.1304 -0.1353
 5359TIP3    H137636   3.186   1.829   0.022 -0.0143  0.8627 -1.5546
 5359TIP3    H237637   3.087   1.931  -0.029  1.0420  2.7350  0.0096
 5360TIP3   OH237638   0.335   6.718   7.933 -0.3064 -0.2977 -0.0278
 5360TIP3    H137639   0.346   6.808   7.903 -0.6245  0.5490  2.2074
 5360TIP3    H237640   0.278   6.678   7.867 -1.1128  1.4690 -0.4806
 5361TIP3   OH237641   3.021   0.079   3.313  0.0295 -0.0524 -0.3464
 5361TIP3    H137642   3.114   0.098   3.301  0.2062 -1.0734 -0.6246
 5361TIP3    H237643   3.017  -0.014   3.331 -1.0236 -0.2270 -1.3322
 5362TIP3   OH237644   0.569   5.476   2.420 -0.3955 -0.4142 -0.0553
 5362TIP3    H137645   0.551   5.487   2.513  4.6475 -1.1277  1.3142
 5362TIP3    H237646   0.547   5.385   2.401 -0.6194 -0.5154  0.6748
 5363TIP3   OH237647   6.344   6.353   0.066  0.1855  0.2066 -0.1663
 5363TIP3    H137648   6.269   6.292   0.069  0.7660 -0.5778 -0.9882
 5363TIP3    H237649   6.325   6.411  -0.008 -0.5447  1.3012  0.8413
 5364TIP3   OH237650   3.633   3.802   8.012  0.9528 -0.3142 -0.3345
 5364TIP3    H137651   3.551   3.783   7.967  0.6211 -1.9990  0.8995
 5364TIP3    H237652   3.648   3.895   7.996 -0.3727 -0.3218 -1.8808
 5365TIP3   OH237653   5.167   4.865   3.237  0.2353 -0.0198  0.0444
 5365TIP3    H137654   5.085   4.869   3.287 -1.5684  1.9025 -2.7106
 5365TIP3    H237655   5.211   4.947   3.258 -0.6686  0.9343 -1.5368
 5366TIP3   OH237656   6.787   6.579   8.637  0.0130 -0.5383  0.1588
 5366TIP3    H137657   6.847   6.580   8.563 -0.5272  2.3449 -0.3689
 5366TIP3    H237658   6.709   6.532   8.606 -0.2197  0.6655 -1.1518
 5367TIP3   OH237659   2.288   6.313   2.927  0.3246  0.3236 -0.0783
 5367TIP3    H137660   2.198   6.343   2.916  0.0239  0.2700  1.8967
 5367TIP3    H237661   2.292   6.230   2.880 -0.7821  0.1240  0.1647
 5368TIP3   OH237662   5.942   0.208   0.042  0.5815 -0.2927  0.3125
 5368TIP3    H137663   5.932   0.298   0.011 -1.5715 -0.5109  0.2147
 5368TIP3    H237664   6.030   0.205   0.080  0.3686  2.0993  1.1275
 5369TIP3   OH237665   6.315   0.331   2.462  0.7618  0.4733 -0.0480
 5369TIP3    H137666   6.396   0.346   2.414  0.4779  2.3419 -0.0136
 5369TIP3    H237667   6.251   0.387   2.419 -0.0451  0.4771  1.1147
 5370TIP3   OH237668   4.177   5.798   2.734  0.3676 -0.3006 -0.3545
 5370TIP3    H137669   4.083   5.786   2.725  0.1720  0.5146  0.4885
 5370TIP3    H237670   4.188   5.846   2.816  1.6221 -1.7569  0.3737
 5371TIP3   OH237671   0.981   6.563   0.006 -0.2218  0.0617 -0.7199
 5371TIP3    H137672   1.051   6.623  -0.021  0.2343 -0.1278  0.0084
 5371TIP3    H237673   0.927   6.553  -0.072  1.3789 -0.9221 -1.7777
 5372TIP3   OH237674   3.288   0.076   3.245 -0.4710 -0.2985  0.0584
 5372TIP3    H137675   3.333  -0.005   3.219 -1.4162 -0.7520 -0.2024
 5372TIP3    H237676   3.312   0.140   3.178 -0.9989 -0.8093 -0.6332
 5373TIP3   OH237677   5.097   2.439   7.701 -0.4862 -0.2911  0.3216
 5373TIP3    H137678   5.129   2.508   7.642 -0.2113 -0.6415  0.0523
 5373TIP3    H237679   5.014   2.472   7.734 -1.4617 -0.7601 -1.5266
 5374TIP3   OH237680   3.817   3.738   3.479  0.0005 -0.2290 -0.0347
 5374TIP3    H137681   3.895   3.792   3.466  0.3807 -0.4616  1.1232
 5374TIP3    H237682   3.744   3.792   3.448  0.5504  0.2737 -0.4567
 5375TIP3   OH237683   0.678   2.250   2.346 -0.0045 -1.0168  0.0673
 5375TIP3    H137684   0.585   2.246   2.324 -0.0303  0.1382 -0.0936
 5375TIP3    H237685   0.682   2.310   2.420  0.5262 -1.7866  0.6840
 5376TIP3   OH237686   1.769   0.547   3.141 -0.1236 -0.0139  0.2064
 5376TIP3    H137687   1.841   0.568   3.201 -0.2669  0.2162  0.2981
 5376TIP3    H237688   1.705   0.616   3.155 -0.3589 -0.2115  0.1154
 5377TIP3   OH237689   0.929   3.840   2.448  0.2482 -0.3123  0.3353
 5377TIP3    H137690   0.896   3.818   2.361 -2.3284 -1.6296  1.5462
 5377TIP3    H237691   0.881   3.919   2.473  1.5578  0.5311  0.2987
 5378TIP3   OH237692   2.350   5.969   3.031 -0.0340 -0.5215  0.3164
 5378TIP3    H137693   2.415   6.038   3.043  0.1187 -0.6535  0.2450
 5378TIP3    H237694   2.392   5.906   2.972 -0.6546 -0.0268 -0.6916
 5379TIP3   OH237695   1.632   2.466   0.055  0.0704  0.3288  0.1309
 5379TIP3    H137696   1.638   2.535  -0.010 -1.2696  1.2062  0.9022
 5379TIP3    H237697   1.671   2.389   0.013  1.8715  1.6024 -0.6260
 5380TIP3   OH237698   4.182   5.410   2.017  0.3542 -0.1656  0.0838
 5380TIP3    H137699   4.129   5.479   1.976  0.4317 -0.8714 -1.2519
 5380TIP3    H237700   4.143   5.400   2.104 -0.5345  0.6065 -0.1974
 5381TIP3   OH237701   3.105   3.783   1.986  0.5539 -0.1640 -0.1215
 5381TIP3    H137702   3.082   3.734   2.065 -1.8650  1.3849  0.2582
 5381TIP3    H237703   3.069   3.732   1.914  0.4025 -0.2486  0.0140
 5382TIP3   OH237704   0.648   0.447   2.152 -0.2696 -0.5271  0.4741
 5382TIP3    H137705   0.591   0.423   2.079  1.7026  1.8099 -2.1106
 5382TIP3    H237706   0.608   0.526   2.188  0.6467  0.4789 -0.6232
 5383TIP3   OH237707   6.537   4.539   3.573 -0.5889 -0.0450 -0.1340
 5383TIP3    H137708   6.515   4.448   3.591 -1.3004  0.1293 -0.0929
 5383TIP3    H237709   6.488   4.589   3.638  1.2688  0.2761  1.0877
 5384TIP3   OH237710   3.919   4.680   1.003  0.2339  0.0284 -0.2570
 5384TIP3    H137711   3.915   4.753   1.065  1.3976 -0.1723  0.0751
 5384TIP3    H237712   3.870   4.712   0.927 -0.8550  0.4348  0.5824
 5385TIP3   OH237713   0.541   1.873   8.141  0.2646 -0.2792 -0.2646
 5385TIP3    H137714   0.506   1.872   8.052 -0.2247  0.2907 -0.0851
 5385TIP3    H237715   0.617   1.932   8.136 -0.3627  0.5585 -0.0942
 5386TIP3   OH237716   1.911   5.790   0.243 -0.6626 -0.1059 -0.5493
 5386TIP3    H137717   1.892   5.798   0.149 -0.4546  0.1490 -0.5707
 5386TIP3    H237718   1.958   5.707   0.250  0.3105  0.4089 -0.8353
 5387TIP3   OH237719   4.098   3.838   2.774  0.2210 -0.0186  0.3867
 5387TIP3    H137720   4.163   3.866   2.710  1.3778 -0.8194  1.1747
 5387TIP3    H237721   4.083   3.916   2.828 -1.7713  1.0916 -1.5804
 5388TIP3   OH237722   0.146   5.147   1.393  0.1311  0.5365 -0.1155
 5388TIP3    H137723   0.190   5.098   1.462  1.6958  1.7544 -0.1946
 5388TIP3    H237724   0.126   5.081   1.326 -1.3267 -0.6446  1.3707
 5389TIP3   OH237725   1.121   2.588   3.000  0.0570  0.1592  0.4281
 5389TIP3    H137726   1.130   2.504   3.045  1.7958  0.3956  0.6031
 5389TIP3    H237727   1.176   2.648   3.051  0.4885  0.9001 -0.8636
 5390TIP3   OH237728   1.543   2.465   2.541 -0.4151  0.0940  0.1678
 5390TIP3    H137729   1.468   2.437   2.592 -0.3712 -0.0613  0.1490
 5390TIP3    H237730   1.607   2.394   2.552 -0.4458  0.0087 -0.1864
 5391TIP3   OH237731   0.471   6.579   1.514  0.1744  0.2693  0.5288
 5391TIP3    H137732   0.506   6.541   1.594  0.4267 -0.7024 -0.0364
 5391TIP3    H237733   0.547   6.592   1.458 -0.0149  0.8531  0.3985
 5392TIP3   OH237734   5.969   1.717   8.552 -0.4150 -0.3559 -0.0741
 5392TIP3    H137735   5.992   1.798   8.507 -0.5552  0.0050  0.4983
 5392TIP3    H237736   6.002   1.728   8.641  1.0627 -1.6116 -0.4251
 5393TIP3   OH237737   6.145   6.529   0.201 -0.2225  0.1351 -1.0619
 5393TIP3    H137738   6.132   6.577   0.120  0.5488 -0.1517 -1.3676
 5393TIP3    H237739   6.205   6.458   0.178 -1.6187 -1.2280 -0.7106
 5394TIP3   OH237740   3.297   6.345   7.927  0.0358 -0.0548  0.4329
 5394TIP3    H137741   3.296   6.441   7.928 -1.7445 -0.0305  0.0535
 5394TIP3    H237742   3.361   6.322   7.860  1.3955  0.8293  1.3832
 5395TIP3   OH237743   2.826   3.266   2.885 -0.3610  0.0247  0.5900
 5395TIP3    H137744   2.743   3.225   2.911  0.3259 -1.8491  0.0157
 5395TIP3    H237745   2.848   3.225   2.801  0.3265  1.7321 -0.1028
 5396TIP3   OH237746   4.516   2.090   2.156  0.0106 -0.8819  0.0166
 5396TIP3    H137747   4.560   2.135   2.228  0.8597 -1.0998 -0.3594
 5396TIP3    H237748   4.440   2.049   2.197  0.9927 -1.7995  1.0016
 5397TIP3   OH237749   3.271   3.482   2.939  0.0969 -0.4244 -0.1869
 5397TIP3    H137750   3.266   3.390   2.913  0.4512 -1.1016  1.9320
 5397TIP3    H237751   3.357   3.511   2.908 -0.7595 -0.1996 -2.5243
 5398TIP3   OH237752   0.376   1.204   2.609 -0.4151  0.3353  0.0254
 5398TIP3    H137753   0.391   1.289   2.651  0.2892  0.2033  0.0538
 5398TIP3    H237754   0.457   1.155   2.625 -0.2600  0.1618 -1.2181
 5399TIP3   OH237755   0.272   4.262   3.014 -0.1513 -0.0154  0.4203
 5399TIP3    H137756   0.291   4.332   3.076 -0.8969 -1.2040  2.0882
 5399TIP3    H237757   0.244   4.306   2.935  1.7248  1.5929  0.5774
 5400TIP3   OH237758   0.812   5.927   0.361  0.1179  0.8537  0.3051
 5400TIP3    H137759   0.894   5.907   0.406  0.7450  1.3400 -0.5890
 5400TIP3    H237760   0.756   5.851   0.378  0.6016  0.6912  1.2543
 5401TIP3   OH237761   3.426   0.832   3.048 -0.4161  0.2095  0.0510
 5401TIP3    H137762   3.389   0.877   3.124  0.4340 -0.9828  1.2330
 5401TIP3    H237763   3.458   0.901   2.991 -0.4362  1.1274  1.1303
 5402TIP3   OH237764   4.221   2.720   7.500 -0.3754 -0.7995 -0.4979
 5402TIP3    H137765   4.250   2.778   7.430 -1.2136 -0.1998 -0.3644
 5402TIP3    H237766   4.301   2.690   7.542  0.0581  0.5730 -0.3110
 5403TIP3   OH237767   1.820   2.558   0.334  0.3110  0.2921  0.2570
 5403TIP3    H137768   1.766   2.479   0.345 -0.4930  0.7478 -0.3332
 5403TIP3    H237769   1.823   2.597   0.421 -0.9819  0.6809  0.1446
 5404TIP3   OH237770   0.991   1.159   8.291 -0.0381 -0.5002 -0.1356
 5404TIP3    H137771   1.046   1.094   8.248  1.6704 -0.4294  1.8113
 5404TIP3    H237772   1.031   1.243   8.267  0.0342 -0.3841  0.3971
 5405TIP3   OH237773   2.014   3.562   8.206 -0.4111 -0.3315 -0.0374
 5405TIP3    H137774   2.010   3.579   8.112 -0.7571 -0.1871  0.0022
 5405TIP3    H237775   2.103   3.586   8.231 -0.3772 -0.1888 -0.2931
 5406TIP3   OH237776   3.877   1.038   1.096  0.1085 -0.0177  0.3615
 5406TIP3    H137777   3.891   1.088   1.177  0.2934 -1.5786  1.3457
 5406TIP3    H237778   3.965   1.022   1.062  0.1357 -0.6564  0.7049
 5407TIP3   OH237779   6.222   1.320   0.372 -0.2778 -0.1682  0.0188
 5407TIP3    H137780   6.220   1.237   0.325 -0.4096 -0.0887 -0.1170
 5407TIP3    H237781   6.155   1.373   0.330 -0.3309 -0.0626  0.2354
 5408TIP3   OH237782   4.456   1.408   1.708  0.3889  0.1561 -0.1682
 5408TIP3    H137783   4.363   1.403   1.685  0.7169 -0.4418 -1.4929
 5408TIP3    H237784   4.499   1.354   1.642  1.5712 -0.5277  1.1324
 5409TIP3   OH237785   4.184   1.945   0.228  0.2907 -0.2290  0.1387
 5409TIP3    H137786   4.111   1.887   0.205 -0.9020  0.0338  2.8714
 5409TIP3    H237787   4.262   1.889   0.222 -0.5470 -1.4614  0.3808
 5410TIP3   OH237788   3.905   3.943   0.341  0.7787  0.0504  0.4321
 5410TIP3    H137789   3.952   3.896   0.273  1.0224  1.9523 -0.7962
 5410TIP3    H237790   3.867   3.875   0.396  2.6895 -1.5477 -0.1111
 5411TIP3   OH237791   0.878   2.697   0.321 -0.1058 -1.0689  0.1363
 5411TIP3    H137792   0.960   2.668   0.279 -0.4256 -0.5797 -0.8627
 5411TIP3    H237793   0.867   2.637   0.395  0.8802 -1.4806 -0.0265
 5412TIP3   OH237794   4.113   6.801   1.095 -1.0373  0.1282 -0.3422
 5412TIP3    H137795   4.154   6.855   1.027 -0.4727 -0.7668 -0.7270
 5412TIP3    H237796   4.110   6.713   1.057  0.7942 -0.7548  1.3839
 5413TIP3   OH237797   0.849   0.848   1.211 -0.4809 -0.1225  0.0929
 5413TIP3    H137798   0.937   0.881   1.230 -0.8950  1.9629 -1.3035
 5413TIP3    H237799   0.861   0.790   1.136 -0.0330 -1.6278  1.2824
 5414TIP3   OH237800   3.049   4.933   2.624 -0.1972 -0.1634 -0.0619
 5414TIP3    H137801   2.989   4.908   2.695  0.6619  0.8587  1.0594
 5414TIP3    H237802   3.001   4.911   2.544 -0.9853 -1.8316  0.8098
 5415TIP3   OH237803   3.198   4.161   1.508 -0.3586 -0.0933 -0.1630
 5415TIP3    H137804   3.108   4.138   1.484  0.1061 -0.4424 -1.6440
 5415TIP3    H237805   3.188   4.235   1.568 -1.6414 -0.4033  0.0397
 5416TIP3   OH237806   0.802   1.341   8.570  0.0528  0.5307  0.4768
 5416TIP3    H137807   0.755   1.382   8.497 -0.2761 -0.9459 -0.1843
 5416TIP3    H237808   0.736   1.285   8.612  0.6915  0.0348  0.8361
 5417TIP3   OH237809   6.054   6.492   2.113  0.8535  0.2586 -0.0892
 5417TIP3    H137810   6.047   6.402   2.145 -0.8926  0.6631  0.7582
 5417TIP3    H237811   5.967   6.529   2.125  1.4134  1.9346 -0.8753
 5418TIP3   OH237812   4.781   3.235   2.297 -0.1274 -0.0888  0.4947
 5418TIP3    H137813   4.871   3.242   2.328 -0.2950  0.7070  0.8086
 5418TIP3    H237814   4.786   3.176   2.221  0.6350 -0.1253  0.5708
 5419TIP3   OH237815   4.474   5.986   1.618  0.2185 -0.2624 -0.4582
 5419TIP3    H137816   4.499   6.079   1.625 -2.1472  0.3799  0.4795
 5419TIP3    H237817   4.489   5.951   1.706 -1.1338 -0.1130 -0.1506
 5420TIP3   OH237818   3.602   5.108   2.490  0.0677 -0.1433 -0.6875
 5420TIP3    H137819   3.658   5.156   2.551 -0.9456  1.7085 -1.1414
 5420TIP3    H237820   3.539   5.061   2.546  0.3903 -0.0708 -0.2622
 5421TIP3   OH237821   2.398   0.451   2.572 -0.1460  0.0407  0.2269
 5421TIP3    H137822   2.426   0.388   2.638  1.2254 -1.1771 -1.4152
 5421TIP3    H237823   2.440   0.421   2.491 -0.8222  2.1195 -0.9720
 5422TIP3   OH237824   6.399   3.988   2.560 -0.6207  0.0037 -0.2572
 5422TIP3    H137825   6.401   3.904   2.513 -0.3802 -0.1123 -0.0402
 5422TIP3    H237826   6.406   3.964   2.652 -2.6869  0.1298 -0.0234
 5423TIP3   OH237827   5.843   3.084   1.043 -0.3418 -0.0096 -0.4299
 5423TIP3    H137828   5.914   3.055   1.101 -0.1572  0.9784 -0.1554
 5423TIP3    H237829   5.781   3.011   1.044 -0.0362 -0.2695  0.5043
 5424TIP3   OH237830   0.174   4.390   1.111 -0.1780 -0.5487 -0.8124
 5424TIP3    H137831   0.119   4.327   1.064 -0.1353 -0.7060 -0.6553
 5424TIP3    H237832   0.157   4.372   1.204  0.8823 -1.2869 -0.7349
 5425TIP3   OH237833   6.792   3.402   2.199 -0.0605 -0.0454 -0.5142
 5425TIP3    H137834   6.868   3.376   2.148  1.1304  0.5042  0.8989
 5425TIP3    H237835   6.772   3.491   2.170  1.6143  0.8952  0.9976
 5426TIP3   OH237836   3.740   0.342   0.198 -0.2425 -0.1272  0.2196
 5426TIP3    H137837   3.812   0.405   0.198  1.0086 -1.4815  0.3660
 5426TIP3    H237838   3.780   0.261   0.166 -1.7533 -0.8855  0.1714
 5427TIP3   OH237839   3.535   2.167   3.512 -0.6325 -0.0325 -0.4662
 5427TIP3    H137840   3.457   2.125   3.551  0.0341  0.0355  0.9979
 5427TIP3    H237841   3.563   2.231   3.577  0.5996  0.0166 -1.0196
 5428TIP3   OH237842   3.205   1.975   4.065 -0.4909  0.2132 -0.3146
 5428TIP3    H137843   3.262   1.905   4.095 -1.5354 -0.5243 -0.0097
 5428TIP3    H237844   3.118   1.935   4.058 -0.6163  0.7585 -2.7915
 5429TIP3   OH237845   0.260   5.311   1.082 -0.5728 -0.2588  0.0215
 5429TIP3    H137846   0.345   5.325   1.123 -0.9176  0.4812  0.5064
 5429TIP3    H237847   0.258   5.218   1.058  1.1441  0.0913 -1.7261
 5430TIP3   OH237848   1.928   3.578   7.936 -1.3153  0.1411 -0.4109
 5430TIP3    H137849   1.984   3.635   7.885  0.6871 -1.8495 -0.5652
 5430TIP3    H237850   1.840   3.612   7.922 -0.5277  1.3921 -2.8449
 5431TIP3   OH237851   3.038   6.813   1.849 -0.1809  0.0943  0.5860
 5431TIP3    H137852   3.036   6.868   1.771  0.5378 -0.2447  0.3202
 5431TIP3    H237853   2.980   6.857   1.911  0.8041  1.4701  0.5768
 5432TIP3   OH237854   6.614   5.611   0.191 -0.3432 -0.0810 -0.4115
 5432TIP3    H137855   6.603   5.691   0.140  0.1902 -0.9845 -2.0152
 5432TIP3    H237856   6.703   5.615   0.224 -0.9525  0.8919  1.1834
 5433TIP3   OH237857   0.024   1.999   0.091  0.1635  0.0154  0.1334
 5433TIP3    H137858   0.054   1.944   0.163  1.4337  2.0328  1.2375
 5433TIP3    H237859   0.104   2.039   0.057 -0.6996  1.0375 -0.7366
 5434TIP3   OH237860   3.379   4.585   0.108  0.3483 -0.1822  0.5008
 5434TIP3    H137861   3.319   4.553   0.175 -0.8786 -0.5016 -0.6907
 5434TIP3    H237862   3.455   4.617   0.156 -0.0768 -1.2700  1.9724
 5435TIP3   OH237863   2.643   5.332   0.249  0.3398 -0.4939  0.0434
 5435TIP3    H137864   2.734   5.362   0.254  0.2953 -0.5068  1.1226
 5435TIP3    H237865   2.600   5.398   0.195  0.9378 -0.3579 -0.2817
 5436TIP3   OH237866   1.791   0.798   0.866 -0.0798  0.1348 -0.4353
 5436TIP3    H137867   1.884   0.785   0.880 -0.1940 -0.4545 -0.1651
 5436TIP3    H237868   1.749   0.733   0.922 -0.6548  0.4689 -0.4704
 5437TIP3   OH237869   4.575   1.831   1.635  0.3448 -0.3441 -0.0823
 5437TIP3    H137870   4.561   1.904   1.695 -0.1632 -0.7133  0.2509
 5437TIP3    H237871   4.622   1.870   1.561  2.0835 -0.1105  1.0768
 5438TIP3   OH237872   6.004   3.299   3.894 -0.2146 -0.1594  0.2704
 5438TIP3    H137873   5.977   3.229   3.835  0.4556  0.6068 -0.9773
 5438TIP3    H237874   6.045   3.364   3.837  2.8880 -0.5564  1.8586
 5439TIP3   OH237875   1.222   1.797   3.115  0.4936  0.2424  0.1022
 5439TIP3    H137876   1.306   1.769   3.150  0.2576  0.5901  0.9730
 5439TIP3    H237877   1.199   1.875   3.166  0.5216  1.2639 -1.3689
 5440TIP3   OH237878   0.603   3.016   2.770  0.5652  0.2453  0.1372
 5440TIP3    H137879   0.669   3.010   2.700 -0.1475 -0.7046 -0.4801
 5440TIP3    H237880   0.551   2.936   2.760 -0.9079  1.1515  0.3771
 5441TIP3   OH237881   4.247   1.250   0.245  0.0716 -0.2826  0.2301
 5441TIP3    H137882   4.245   1.191   0.320  0.4087 -0.3105  0.2166
 5441TIP3    H237883   4.339   1.276   0.237  0.0068 -0.1409 -0.0648
 5442TIP3   OH237884   1.823   1.872   3.223  0.1877  0.0233  0.3962
 5442TIP3    H137885   1.736   1.861   3.183 -0.1190  0.4113  0.9445
 5442TIP3    H237886   1.834   1.795   3.278 -0.4161  0.6556  1.4210
 5443TIP3   OH237887   2.433   2.669   2.450  0.2641  0.3245 -0.2741
 5443TIP3    H137888   2.522   2.671   2.484  0.2284  0.5059 -0.1917
 5443TIP3    H237889   2.378   2.700   2.522  0.3436  2.2195 -0.9630
 5444TIP3   OH237890   6.631   1.310   0.710 -0.2525 -0.2766  0.1069
 5444TIP3    H137891   6.578   1.254   0.653  0.1266 -0.1640 -0.3596
 5444TIP3    H237892   6.678   1.248   0.767  0.3915 -0.4612 -0.6040
 5445TIP3   OH237893   5.203   5.355   0.168  0.3344 -0.1548 -0.3940
 5445TIP3    H137894   5.285   5.362   0.217 -0.4457  0.5097  0.8557
 5445TIP3    H237895   5.137   5.331   0.233 -0.3188 -1.6123 -1.5443
 5446TIP3   OH237896   5.219   0.954   0.220  0.2409  0.0445  0.4962
 5446TIP3    H137897   5.209   0.988   0.309  0.7948  0.4888  0.3904
 5446TIP3    H237898   5.171   0.870   0.222  1.0641 -0.4365  1.4845
 5447TIP3   OH237899   3.158   2.998   1.470  0.1170 -0.5111  0.3151
 5447TIP3    H137900   3.091   3.057   1.436  0.0260 -0.4148  0.6578
 5447TIP3    H237901   3.202   2.964   1.392  0.5010  0.3994  0.1203
 5448TIP3   OH237902   0.252   6.104   3.746 -0.9911  0.4079 -0.2539
 5448TIP3    H137903   0.217   6.143   3.667  0.4619 -1.3695 -1.8770
 5448TIP3    H237904   0.313   6.169   3.781  1.6822 -0.3587 -3.0924
 5449TIP3   OH237905   5.298   4.650   3.396 -0.2868 -0.5713 -0.3265
 5449TIP3    H137906   5.298   4.745   3.406 -1.2297 -0.5184 -0.7315
 5449TIP3    H237907   5.206   4.627   3.382  0.1463 -1.2797 -2.5444
 5450TIP3   OH237908   4.577   0.778   3.400 -0.3452 -0.6002 -0.3189
 5450TIP3    H137909   4.651   0.838   3.403 -0.1094 -0.8851 -0.4286
 5450TIP3    H237910   4.600   0.714   3.332 -1.0417 -0.2212 -0.9210
 5451TIP3   OH237911   4.420   4.855   1.238  0.4554  0.0601 -0.2297
 5451TIP3    H137912   4.487   4.862   1.305  0.1269 -1.7290  0.3318
 5451TIP3    H237913   4.380   4.943   1.235  0.1688  0.0895  2.2427
 5452TIP3   OH237914   5.932   2.674   3.035  0.1075  0.0637 -0.6174
 5452TIP3    H137915   5.971   2.678   3.122 -0.7892  0.6278 -0.2343
 5452TIP3    H237916   5.918   2.580   3.019  0.3950 -0.0510 -0.2118
 5453TIP3   OH237917   2.951   5.386   7.331 -0.3344 -0.0549 -0.3468
 5453TIP3    H137918   2.880   5.336   7.373  0.3939 -1.5686 -0.8418
 5453TIP3    H237919   3.022   5.384   7.395 -0.2477  0.2524 -0.4337
 5454TIP3   OH237920   3.617   6.721   1.229 -0.3040 -0.0214 -0.2530
 5454TIP3    H137921   3.614   6.707   1.134 -0.0890 -2.4703  0.0480
 5454TIP3    H237922   3.708   6.745   1.246 -0.8049  2.6223 -0.8561
 5455TIP3   OH237923   3.078   3.530   0.040 -0.6762 -0.4859 -0.3896
 5455TIP3    H137924   3.080   3.625   0.051  0.4661 -0.5814  0.3791
 5455TIP3    H237925   3.159   3.509  -0.006 -0.2392 -1.2210  0.6731
 5456TIP3   OH237926   2.430   5.076   1.642 -0.3029 -0.4504 -0.5813
 5456TIP3    H137927   2.371   5.013   1.601 -1.0180  0.7485 -1.4337
 5456TIP3    H237928   2.376   5.122   1.706  0.0050 -0.1434 -0.5366
 5457TIP3   OH237929   5.043   0.443   1.253 -0.2528  0.3590 -0.0640
 5457TIP3    H137930   5.000   0.453   1.338  0.8343 -2.4570  0.9382
 5457TIP3    H237931   4.973   0.457   1.189 -1.6856  0.0850  1.3748
 5458TIP3   OH237932   6.083   2.406   7.882 -0.1153  0.0624 -0.5957
 5458TIP3    H137933   6.179   2.401   7.885 -0.0915  0.4223 -0.6702
 5458TIP3    H237934   6.062   2.392   7.789 -0.1464 -0.2016 -0.5487
 5459TIP3   OH237935   5.060   1.461   1.300 -0.9880 -0.2298 -0.2545
 5459TIP3    H137936   5.000   1.499   1.235 -0.6771  0.0243 -0.3969
 5459TIP3    H237937   5.085   1.534   1.355  0.7240  0.1022 -1.3862
 5460TIP3   OH237938   0.422   2.092   0.984 -0.6286 -0.1664  0.0943
 5460TIP3    H137939   0.375   2.175   0.987  0.2039  0.2952  1.2140
 5460TIP3    H237940   0.471   2.089   1.067  1.5668 -0.4376 -1.1268
 5461TIP3   OH237941   0.481   3.933   2.194 -0.2872  0.3629  0.3794
 5461TIP3    H137942   0.550   3.987   2.157  0.3492  0.5714  1.8033
 5461TIP3    H237943   0.488   3.946   2.289 -0.9546 -1.2080  0.6772
 5462TIP3   OH237944   5.174   4.360   3.273 -0.3958  0.0499  0.6746
 5462TIP3    H137945   5.124   4.286   3.308  0.0142 -0.5281  0.0626
 5462TIP3    H237946   5.145   4.435   3.325 -2.3919 -0.1266 -0.0876
 5463TIP3   OH237947   1.559   3.303   8.496 -0.4537  0.2093  0.7376
 5463TIP3    H137948   1.633   3.309   8.557  1.7129 -0.6342 -1.6115
 5463TIP3    H237949   1.585   3.359   8.422 -1.9231 -0.5566 -0.3985
 5464TIP3   OH237950   6.137   5.294   2.927 -0.6942  0.0649 -0.3572
 5464TIP3    H137951   6.110   5.334   3.009  0.4926 -0.9797  0.6006
 5464TIP3    H237952   6.060   5.299   2.870 -2.1945 -0.9466  1.4880
 5465TIP3   OH237953   1.859   1.001   7.935  0.0061  0.4547 -0.2974
 5465TIP3    H137954   1.872   0.919   7.982 -1.1285 -0.0623 -0.8595
 5465TIP3    H237955   1.923   1.061   7.974  1.1917 -0.8132 -0.2073
 5466TIP3   OH237956   2.895   0.334   0.904  0.3360  0.0347  0.4311
 5466TIP3    H137957   2.825   0.389   0.869  0.2540 -1.1958 -1.5205
 5466TIP3    H237958   2.850   0.260   0.944  0.5052  0.0279  0.6157
 5467TIP3   OH237959   5.641   2.824   2.011  0.4020  0.5044  0.6751
 5467TIP3    H137960   5.702   2.814   1.938 -0.0900  2.1905 -0.0127
 5467TIP3    H237961   5.611   2.735   2.029  1.6808 -0.1345 -0.1572
 5468TIP3   OH237962   3.981   2.901   2.146  0.3947 -0.0790  0.0642
 5468TIP3    H137963   3.976   2.815   2.103  2.0705 -2.2639  3.6869
 5468TIP3    H237964   3.893   2.918   2.177  0.1280 -0.6844 -0.3456
 5469TIP3   OH237965   2.181   0.845   8.009  0.0092  0.3851  0.1341
 5469TIP3    H137966   2.264   0.859   8.054 -1.5629  1.3657  2.9800
 5469TIP3    H237967   2.165   0.926   7.961  1.6411 -0.6254 -2.3360
 5470TIP3   OH237968   2.212   2.692   8.661 -0.0151  0.3853  0.0004
 5470TIP3    H137969   2.214   2.664   8.570  1.3523  0.4146  0.0016
 5470TIP3    H237970   2.268   2.770   8.663 -0.9094  1.0265  0.6628
 5471TIP3   OH237971   2.113   1.782   1.937  0.0494  0.4487  0.5017
 5471TIP3    H137972   2.030   1.791   1.983  0.0698  0.2165  0.5811
 5471TIP3    H237973   2.089   1.764   1.846 -0.1407 -5.3955  1.3408
 5472TIP3   OH237974   2.944   6.802   7.815  0.3530  0.0823 -0.1584
 5472TIP3    H137975   2.966   6.760   7.899 -1.6614 -1.8405 -0.5083
 5472TIP3    H237976   2.916   6.730   7.759  0.5346  1.4861 -2.1488
 5473TIP3   OH237977   5.411   5.404   1.876  0.3405 -0.0812 -0.0393
 5473TIP3    H137978   5.323   5.366   1.885 -0.5576  2.2797  2.6547
 5473TIP3    H237979   5.399   5.481   1.822  0.6834  0.4215  0.5914
 5474TIP3   OH237980   0.430   4.196   2.560  0.4300  0.0677  0.0265
 5474TIP3    H137981   0.472   4.110   2.546 -0.5935 -0.5054  0.4086
 5474TIP3    H237982   0.503   4.257   2.563  1.1095 -0.5128 -2.1596
 5475TIP3   OH237983   4.709   0.788   1.744  0.2477 -0.2881 -0.0738
 5475TIP3    H137984   4.658   0.707   1.737 -1.8079  1.0633 -2.7841
 5475TIP3    H237985   4.662   0.840   1.810  1.2328 -1.0339  1.2452
 5476TIP3   OH237986   3.472   3.248   2.562  0.4728 -0.3307 -0.5411
 5476TIP3    H137987   3.530   3.323   2.549 -2.9808  2.9500  1.2922
 5476TIP3    H237988   3.507   3.204   2.640  0.1564  2.0606  1.0358
 5477TIP3   OH237989   2.964   6.048   2.396 -0.0046  0.3088  0.1514
 5477TIP3    H137990   3.050   6.007   2.387 -0.2290  0.1838 -2.2235
 5477TIP3    H237991   2.904   5.987   2.352 -0.9592  1.3303 -0.0095
 5478TIP3   OH237992   3.623   3.355   0.438 -0.3787  0.3059  0.1339
 5478TIP3    H137993   3.708   3.371   0.478 -0.6942  2.4859  0.0285
 5478TIP3    H237994   3.613   3.424   0.373 -1.8883 -0.4069 -0.4513
 5479TIP3   OH237995   5.277   0.625   0.366  0.1990  0.1356 -0.9116
 5479TIP3    H137996   5.261   0.646   0.274 -0.0248  3.5871 -0.2323
 5479TIP3    H237997   5.352   0.679   0.391  0.1407 -0.5669  0.9992
 5480TIP3   OH237998   4.159   0.906   8.511  0.0463 -0.4167 -0.2928
 5480TIP3    H137999   4.091   0.974   8.505  0.1073 -0.3871 -0.6520
 5480TIP3    H238000   4.141   0.862   8.594  0.2435  0.2980  0.1428
 5481TIP3   OH238001   6.313   5.368   7.997  0.1018 -0.1101 -0.3411
 5481TIP3    H138002   6.266   5.428   8.053  0.9480  0.0802  0.1918
 5481TIP3    H238003   6.392   5.345   8.047  0.0241 -1.2958 -0.7222
 5482TIP3   OH238004   2.832   2.668   0.735 -0.8286  0.1244  0.1741
 5482TIP3    H138005   2.741   2.695   0.730 -1.3927 -1.5581  0.7354
 5482TIP3    H238006   2.830   2.583   0.779  1.0041  0.0257  0.1619
 5483TIP3   OH238007   2.679   3.162   2.656  0.5958 -0.0683 -0.2132
 5483TIP3    H138008   2.589   3.158   2.690  0.7188  1.3670  0.3349
 5483TIP3    H238009   2.690   3.079   2.610 -0.1315 -1.4641  1.9244
 5484TIP3   OH238010   6.627   4.142   0.335 -0.3966  0.4507  0.3918
 5484TIP3    H138011   6.563   4.076   0.307 -0.5547  0.1306  1.4441
 5484TIP3    H238012   6.584   4.226   0.322 -0.2537  0.3542 -0.8149
 5485TIP3   OH238013   5.679   1.406   8.492 -0.2372  0.6029  0.5034
 5485TIP3    H138014   5.652   1.478   8.549 -0.2364  1.4352 -0.5135
 5485TIP3    H238015   5.752   1.443   8.442  0.7710 -0.6062  1.0280
 5486TIP3   OH238016   3.089   1.821   8.176 -0.3719 -0.5816  0.8901
 5486TIP3    H138017   3.077   1.864   8.091  1.0453  1.4334  1.6423
 5486TIP3    H238018   3.176   1.782   8.172 -0.0290  0.0785  1.6216
 5487TIP3   OH238019   3.645   1.067   0.930 -0.1087 -0.1853  0.0258
 5487TIP3    H138020   3.675   1.080   0.840  0.9613 -1.4536  0.1771
 5487TIP3    H238021   3.725   1.072   0.983 -0.8397  1.5550  1.0550
 5488TIP3   OH238022   6.655   1.119   1.261  1.1769 -0.6099 -0.1174
 5488TIP3    H138023   6.614   1.033   1.276  1.5221 -0.6716  0.4927
 5488TIP3    H238024   6.664   1.157   1.348  0.7780  0.1734 -0.4041
 5489TIP3   OH238025   6.776   0.610   3.594 -0.1277  0.4765 -0.3836
 5489TIP3    H138026   6.687   0.585   3.615  0.3597  0.7906  2.6015
 5489TIP3    H238027   6.796   0.680   3.657  1.9317  1.0182 -1.5475
 5490TIP3   OH238028   0.831   6.589   0.460  0.7784  0.0049 -0.2131
 5490TIP3    H138029   0.887   6.538   0.402 -0.2579 -0.8473 -0.4978
 5490TIP3    H238030   0.778   6.524   0.506 -0.3681  0.7976 -0.3601
 5491TIP3   OH238031   0.344   2.528   2.402 -0.0794 -0.3022 -0.3193
 5491TIP3    H138032   0.327   2.454   2.461 -1.4120 -0.1086 -0.4323
 5491TIP3    H238033   0.414   2.577   2.445 -0.1161 -0.8947  0.4344
 5492TIP3   OH238034   6.182   5.025   1.656 -0.4776 -0.0136  0.4335
 5492TIP3    H138035   6.249   5.050   1.592 -2.0166  2.8660 -0.2393
 5492TIP3    H238036   6.214   5.060   1.739 -0.0977 -0.6991  0.5838
 5493TIP3   OH238037   5.383   5.999   1.531  0.1223 -0.8027 -0.5589
 5493TIP3    H138038   5.366   5.950   1.451  1.4068 -0.0405 -1.3399
 5493TIP3    H238039   5.477   5.986   1.548 -0.2959 -1.7149  1.3644
 5494TIP3   OH238040   5.206   4.879   1.353  0.2519  0.4386 -0.0631
 5494TIP3    H138041   5.230   4.898   1.443  1.3992  1.0699 -0.4812
 5494TIP3    H238042   5.118   4.914   1.343  0.1073  0.3387  0.8148
 5495TIP3   OH238043   3.300   1.790   0.366  0.1830 -0.3745  0.5113
 5495TIP3    H138044   3.352   1.783   0.286  1.7649  0.6707  1.3843
 5495TIP3    H238045   3.209   1.787   0.336  0.7204 -1.8696 -1.1152
 5496TIP3   OH238046   2.610   5.789   2.510  0.7216 -0.0463  0.2134
 5496TIP3    H138047   2.527   5.748   2.485  1.3579 -0.4639 -1.3429
 5496TIP3    H238048   2.637   5.741   2.588  0.7069 -1.6030 -0.7049
 5497TIP3   OH238049   1.441   5.780   1.815  0.3331 -0.5634 -0.2313
 5497TIP3    H138050   1.437   5.769   1.720  1.2910  0.4158 -0.3933
 5497TIP3    H238051   1.409   5.696   1.850 -0.3489 -0.8086 -1.4037
 5498TIP3   OH238052   2.694   2.575   0.071 -0.0401 -0.7209 -0.4812
 5498TIP3    H138053   2.692   2.576   0.167 -1.1250 -2.0735 -0.4626
 5498TIP3    H238054   2.781   2.542   0.049  0.3516 -0.0495  0.0186
 5499TIP3   OH238055   2.867   6.112   8.251  0.0624  0.3809 -0.3037
 5499TIP3    H138056   2.893   6.204   8.257 -0.7623  0.5269  2.6617
 5499TIP3    H238057   2.772   6.114   8.245  0.0298 -0.2727 -0.0970
 5500TIP3   OH238058   5.871   0.370   3.339 -0.1575  0.6420  0.3078
 5500TIP3    H138059   5.926   0.444   3.362 -0.6920  1.2480 -0.3179
 5500TIP3    H238060   5.898   0.301   3.400 -1.0081  1.9291  2.2692
 5501TIP3   OH238061   2.666   1.637   8.394  0.5011 -0.1997  0.3461
 5501TIP3    H138062   2.601   1.707   8.387  0.4687 -0.2213  0.4419
 5501TIP3    H238063   2.618   1.558   8.370 -0.2858 -0.6887  3.1683
 5502TIP3   OH238064   0.172   1.406   8.540 -0.2404  0.5104  0.3483
 5502TIP3    H138065   0.136   1.319   8.557 -1.2152  0.7489 -0.4417
 5502TIP3    H238066   0.133   1.462   8.607  0.8740  0.2432  1.2535
 5503TIP3   OH238067   1.368   6.099   2.106 -0.4906  0.1139  0.0600
 5503TIP3    H138068   1.339   6.091   2.015  0.1187 -2.4065  0.0171
 5503TIP3    H238069   1.341   6.187   2.132 -2.5895  0.1283 -1.8821
 5504TIP3   OH238070   4.348   2.619   0.082  0.3279 -0.5514 -0.1835
 5504TIP3    H138071   4.265   2.665   0.096  0.9671  0.8363 -0.7989
 5504TIP3    H238072   4.358   2.617  -0.013  2.2297  1.6795 -0.1243
 5505TIP3   OH238073   1.558   1.093   0.152 -0.0263 -0.3807 -0.3769
 5505TIP3    H138074   1.520   1.173   0.188 -0.5356 -0.6963 -0.1920
 5505TIP3    H238075   1.547   1.028   0.222  1.0410 -0.4370 -0.2464
 5506TIP3   OH238076   4.668   0.024   2.481  0.0916 -0.3643  0.1830
 5506TIP3    H138077   4.605  -0.017   2.422  3.1392 -4.3324 -0.7127
 5506TIP3    H238078   4.684   0.110   2.443 -0.3126 -1.6048 -3.1361
 5507TIP3   OH238079   5.995   2.741   2.341 -0.9892  0.0252  0.2797
 5507TIP3    H138080   6.008   2.757   2.435 -0.4557  0.6326  0.1115
 5507TIP3    H238081   5.908   2.775   2.323 -0.6662  0.9049  0.3435
 5508TIP3   OH238082   5.203   1.466   2.830 -0.4087 -0.6549  0.1349
 5508TIP3    H138083   5.144   1.433   2.763 -1.4266 -1.7737  1.5182
 5508TIP3    H238084   5.201   1.399   2.899  1.8760 -0.3635  0.5848
 5509TIP3   OH238085   5.202   6.666   2.434  0.4308 -0.4913 -0.4722
 5509TIP3    H138086   5.248   6.584   2.417  1.9760  0.1308  0.4291
 5509TIP3    H238087   5.120   6.640   2.476  0.1684 -1.6202 -1.6159
 5510TIP3   OH238088   5.636   4.417   1.676  0.1029  0.0288 -0.3303
 5510TIP3    H138089   5.724   4.451   1.668  0.9904 -0.8971  3.6185
 5510TIP3    H238090   5.593   4.472   1.741 -0.1164 -2.9473  2.3137
 5511TIP3   OH238091   2.184   6.052   0.513  0.5211 -0.3939 -0.0042
 5511TIP3    H138092   2.227   6.121   0.564 -1.0991  0.4275  0.3296
 5511TIP3    H238093   2.223   5.971   0.544  1.0574  0.2444  1.0392
 5512TIP3   OH238094   6.251   1.141   1.282 -0.1307 -0.2535 -0.0931
 5512TIP3    H138095   6.200   1.140   1.201 -1.5007  1.2458  0.6966
 5512TIP3    H238096   6.268   1.233   1.299  1.4639 -0.6387  0.5444
 5513TIP3   OH238097   6.719   1.589   0.824 -1.1180 -1.0946 -0.2081
 5513TIP3    H138098   6.769   1.559   0.900 -3.1080  0.3789  1.8096
 5513TIP3    H238099   6.668   1.512   0.798  0.3786 -1.9308 -0.8295
 5514TIP3   OH238100   6.091   3.965   8.537  0.3295  0.0491  0.0984
 5514TIP3    H138101   6.056   4.054   8.534  1.1966  0.4182  0.5587
 5514TIP3    H238102   6.072   3.929   8.451 -0.3246  0.5646  0.0199
 5515TIP3   OH238103   5.997   2.851   8.522  0.0509 -0.1399  0.0960
 5515TIP3    H138104   6.058   2.876   8.453 -0.6594  1.9096  0.1535
 5515TIP3    H238105   5.968   2.934   8.561 -1.8935 -1.0844  0.8288
 5516TIP3   OH238106   0.464   5.005   8.248  0.0629  0.3205  0.5827
 5516TIP3    H138107   0.550   4.993   8.207 -0.1224  1.9029 -0.3732
 5516TIP3    H238108   0.404   4.952   8.195  0.3610 -0.4735  1.0163
 5517TIP3   OH238109   2.346   5.418   0.065 -0.4732 -0.4550  0.4380
 5517TIP3    H138110   2.338   5.342   0.124  1.0343 -1.4511 -0.5642
 5517TIP3    H238111   2.440   5.425   0.049 -0.7502  0.5706 -0.8676
 5518TIP3   OH238112   2.955   2.758   0.111 -0.1640  0.4364 -0.2884
 5518TIP3    H138113   3.018   2.764   0.039  0.2669 -0.6259 -0.0070
 5518TIP3    H238114   2.934   2.665   0.118  0.6581  0.3576  1.6726
 5519TIP3   OH238115   3.681   6.444   1.300 -0.1165  0.0066  0.3410
 5519TIP3    H138116   3.625   6.521   1.287  0.6267  0.6480  0.8299
 5519TIP3    H238117   3.769   6.475   1.281  0.1757 -0.7717  0.3899
 5520TIP3   OH238118   5.003   6.837   1.942 -0.0255 -0.1474  0.1290
 5520TIP3    H138119   4.963   6.910   1.989  0.5298  0.0199  0.3439
 5520TIP3    H238120   4.995   6.763   2.003 -2.0778 -0.7089 -0.7134
 5521TIP3   OH238121   2.556   6.672   2.795 -0.1662  0.2384 -0.4501
 5521TIP3    H138122   2.567   6.610   2.723  1.5585  0.2747 -0.2652
 5521TIP3    H238123   2.528   6.618   2.869 -0.9811  0.0573 -0.8730
 5522TIP3   OH238124   0.167   5.501   3.245 -0.0341 -0.2563 -0.4526
 5522TIP3    H138125   0.104   5.566   3.214 -0.4758  0.3315  1.5265
 5522TIP3    H238126   0.252   5.545   3.239 -0.1554 -0.0251 -0.4825
 5523TIP3   OH238127   5.575   2.192   2.747 -0.5001  0.1772 -0.2750
 5523TIP3    H138128   5.533   2.207   2.661 -0.6213 -0.8867 -0.4086
 5523TIP3    H238129   5.588   2.098   2.751  1.4653  0.4172 -0.0147
 5524TIP3   OH238130   1.345   6.263   2.628  0.2886 -0.1734 -0.1640
 5524TIP3    H138131   1.360   6.186   2.683  0.4115  0.4353  0.6785
 5524TIP3    H238132   1.402   6.330   2.665 -1.2252  0.8951  0.3567
 5525TIP3   OH238133   3.353   6.238   2.074 -0.2127  0.2612 -0.1672
 5525TIP3    H138134   3.301   6.166   2.039 -1.4851  0.4613  1.2263
 5525TIP3    H238135   3.325   6.247   2.165  0.8262  1.7040  0.0587
 5526TIP3   OH238136   0.964   4.562   0.039  0.4655  0.2843  0.0870
 5526TIP3    H138137   0.933   4.488  -0.014 -1.7400  1.0132  0.2501
 5526TIP3    H238138   1.003   4.623  -0.024  0.1768  0.0150 -0.3549
 5527TIP3   OH238139   2.589   3.755   2.001 -0.0227  0.2457 -0.2262
 5527TIP3    H138140   2.576   3.664   2.028 -0.4892  0.0761 -1.0148
 5527TIP3    H238141   2.683   3.761   1.982  0.0224 -0.0474 -0.1001
 5528TIP3   OH238142   4.937   0.310   7.815 -0.1032  0.0229  0.1350
 5528TIP3    H138143   4.852   0.318   7.858 -0.1911  1.3156 -0.2488
 5528TIP3    H238144   4.922   0.245   7.746 -0.7994  0.2583  0.0510
 5529TIP3   OH238145   0.524   3.657   0.621 -0.5432  0.4263 -0.1608
 5529TIP3    H138146   0.591   3.649   0.554  1.7361  0.8009  1.9211
 5529TIP3    H238147   0.519   3.751   0.640 -1.2279  0.3425  0.0941
 5530TIP3   OH238148   0.517   3.892   8.457 -0.1455  0.3882  0.7522
 5530TIP3    H138149   0.590   3.921   8.403  1.6059 -0.5412  2.4896
 5530TIP3    H238150   0.516   3.797   8.447 -1.4627  0.4369  0.3476
 5531TIP3   OH238151   1.396   6.696   2.186  0.3063  0.7248 -0.7386
 5531TIP3    H138152   1.420   6.787   2.169  1.3451  0.9720  1.5687
 5531TIP3    H238153   1.474   6.646   2.162  0.2939  0.6195 -0.5621
 5532TIP3   OH238154   3.904   2.435   2.233 -0.3333  0.1270  0.1708
 5532TIP3    H138155   3.922   2.381   2.310  0.7625 -0.0183 -0.1637
 5532TIP3    H238156   3.865   2.376   2.170  1.0654 -0.3671 -0.2766
 5533TIP3   OH238157   2.198   4.798   7.673  0.1237  0.6713 -0.1551
 5533TIP3    H138158   2.180   4.885   7.638 -1.4472 -0.3977 -2.2328
 5533TIP3    H238159   2.278   4.770   7.627  0.1945  0.7329 -0.0681
 5534TIP3   OH238160   2.651   1.730   1.201 -0.1920  0.2893  0.2535
 5534TIP3    H138161   2.671   1.824   1.193 -0.8742  0.2905 -2.9532
 5534TIP3    H238162   2.730   1.686   1.173 -0.9320  0.0405 -1.5690
 5535TIP3   OH238163   3.377   2.045   2.721 -0.3164  0.4152 -0.1011
 5535TIP3    H138164   3.328   2.110   2.671 -0.0593 -0.2681 -1.3086
 5535TIP3    H238165   3.420   2.094   2.791  1.2622  1.8714 -1.9723
 5536TIP3   OH238166   1.167   2.579   2.425 -0.8646  0.3815 -0.9953
 5536TIP3    H138167   1.212   2.530   2.356 -0.6573 -0.4863 -0.2798
 5536TIP3    H238168   1.181   2.671   2.403  0.0224  0.1242 -1.5775
 5537TIP3   OH238169   6.192   6.011   7.705 -0.5561 -0.0902  0.2931
 5537TIP3    H138170   6.187   5.920   7.733  2.3993 -0.9039 -1.3749
 5537TIP3    H238171   6.135   6.059   7.766  0.3821 -2.5560  3.3390
 5538TIP3   OH238172   3.621   6.024   3.227 -0.5716  0.0214 -0.7482
 5538TIP3    H138173   3.648   6.064   3.310 -0.0377  1.7256 -1.6835
 5538TIP3    H238174   3.527   6.007   3.238 -0.2540 -1.0173  0.6455
 5539TIP3   OH238175   2.677   6.132   2.232  0.4643  0.3985  0.4649
 5539TIP3    H138176   2.603   6.140   2.292  0.5285 -0.6252  0.7109
 5539TIP3    H238177   2.717   6.219   2.230 -0.9165  1.0347  0.0938
 5540TIP3   OH238178   4.054   5.221   2.617 -0.5234 -0.5193 -0.0787
 5540TIP3    H138179   4.072   5.314   2.635 -2.6103  0.0942 -0.8611
 5540TIP3    H238180   4.083   5.175   2.695 -0.7243  0.9588  0.9006
 5541TIP3   OH238181   3.384   5.718   1.261  0.6343 -0.0246 -0.1637
 5541TIP3    H138182   3.447   5.790   1.262 -1.0725  1.5583  0.9826
 5541TIP3    H238183   3.351   5.715   1.171  1.3444  0.0026 -0.4337
 5542TIP3   OH238184   1.614   5.631   8.518 -0.4718 -0.0350  0.3665
 5542TIP3    H138185   1.551   5.644   8.447 -0.8873  0.0214  0.7399
 5542TIP3    H238186   1.611   5.713   8.568  0.8578  0.4964 -0.3479
 5543TIP3   OH238187   6.135   1.198   2.969  0.0675  0.1720  0.7043
 5543TIP3    H138188   6.163   1.115   2.930 -0.5159 -0.0030  0.6551
 5543TIP3    H238189   6.201   1.261   2.940  0.6750 -0.3240  0.9752
 5544TIP3   OH238190   0.242   0.841   2.710 -0.2899 -0.0638  0.2971
 5544TIP3    H138191   0.161   0.878   2.677  0.4306  0.8327 -0.5258
 5544TIP3    H238192   0.289   0.916   2.748  0.8263 -0.2639 -0.6266
 5545TIP3   OH238193   0.364   4.747   1.473  0.2510 -0.0694 -0.3180
 5545TIP3    H138194   0.336   4.832   1.505  0.4435 -0.6038  1.3632
 5545TIP3    H238195   0.299   4.724   1.407  0.8255  1.8512 -1.6439
 5546TIP3   OH238196   5.407   6.692   0.841 -0.2931  0.1295 -0.4223
 5546TIP3    H138197   5.324   6.687   0.795  0.2889  0.1478 -1.5021
 5546TIP3    H238198   5.395   6.760   0.907 -1.4228 -0.5192  0.0599
 5547TIP3   OH238199   2.067   0.107   0.148  0.0392  0.3120 -0.1206
 5547TIP3    H138200   2.044   0.198   0.165 -1.7986  0.1356 -1.3193
 5547TIP3    H238201   2.014   0.083   0.072  1.4333 -1.3952 -0.6090
 5548TIP3   OH238202   1.524   6.099   2.351  0.3722 -0.1403  0.3295
 5548TIP3    H138203   1.546   6.154   2.427 -1.5643  0.6399  0.3960
 5548TIP3    H238204   1.483   6.159   2.289  1.3093 -0.9005 -1.0904
 5549TIP3   OH238205   5.650   2.417   8.361  0.4880  0.3718  0.4245
 5549TIP3    H138206   5.712   2.349   8.337  0.3398 -0.1993  1.5678
 5549TIP3    H238207   5.599   2.433   8.282 -0.6643 -2.1201  0.5819
 5550TIP3   OH238208   1.407   0.125   3.294 -0.5735  0.0768  0.3411
 5550TIP3    H138209   1.344   0.055   3.282 -0.4637  0.2157 -1.1539
 5550TIP3    H238210   1.415   0.134   3.389 -1.9711 -0.6754  0.5490
 5551TIP3   OH238211   0.726   4.888   1.728 -0.4512  0.0237  0.0085
 5551TIP3    H138212   0.816   4.857   1.728 -0.5074 -0.2012 -1.8229
 5551TIP3    H238213   0.673   4.809   1.712 -0.9950  0.1449  1.0904
 5552TIP3   OH238214   1.890   6.867   8.073  0.0706  1.0168  0.2842
 5552TIP3    H138215   1.907   6.857   8.167 -1.7271 -1.4663  0.4436
 5552TIP3    H238216   1.934   6.792   8.033 -1.8586  0.2190 -0.4322
 5553TIP3   OH238217   5.263   5.437   2.359 -0.1083  0.2293  0.7436
 5553TIP3    H138218   5.244   5.344   2.370  1.4999 -0.6940 -2.7017
 5553TIP3    H238219   5.331   5.455   2.424  1.1706 -1.6893  0.0517
 5554TIP3   OH238220   2.646   0.038   1.765  0.0106  0.5718 -0.0061
 5554TIP3    H138221   2.708  -0.035   1.763 -0.2839  0.2540  1.3455
 5554TIP3    H238222   2.693   0.108   1.811  0.0585  1.0165 -0.7219
 5555TIP3   OH238223   1.337   2.478   8.225  0.2803  0.3995  0.3721
 5555TIP3    H138224   1.261   2.434   8.263  0.5399 -1.3347 -0.9995
 5555TIP3    H238225   1.299   2.543   8.165 -0.0972  0.7552  0.9812
 5556TIP3   OH238226   5.201   3.976   1.510 -0.6288  0.1849  0.0917
 5556TIP3    H138227   5.158   4.056   1.538  0.0218 -0.1467  2.1573
 5556TIP3    H238228   5.130   3.915   1.491 -1.1001  0.8606 -0.3167
 5557TIP3   OH238229   6.160   6.249   3.100 -0.6286 -0.0268 -0.1436
 5557TIP3    H138230   6.203   6.261   3.184  0.4054 -2.1199 -0.3160
 5557TIP3    H238231   6.075   6.211   3.122 -0.2334 -0.8759 -0.0115
 5558TIP3   OH238232   2.661   5.917   8.105  0.4314  0.3858 -0.1870
 5558TIP3    H138233   2.579   5.867   8.100  0.3794  0.5588 -1.3675
 5558TIP3    H238234   2.637   5.998   8.150  0.1756  0.0373  0.3269
 5559TIP3   OH238235   3.650   0.394   1.228 -0.2943  0.0291  0.3256
 5559TIP3    H138236   3.608   0.310   1.212 -0.7240  0.4383 -0.8338
 5559TIP3    H238237   3.598   0.456   1.177  2.4342  0.3924 -2.2330
 5560TIP3   OH238238   3.012   4.723   0.500  0.3411 -0.2621  0.4054
 5560TIP3    H138239   2.926   4.687   0.477  0.5233 -0.0221 -0.7211
 5560TIP3    H238240   3.018   4.714   0.595 -1.1465  0.1946  0.5602
 5561TIP3   OH238241   5.236   6.593   0.601 -0.2893  0.3067 -0.4539
 5561TIP3    H138242   5.263   6.665   0.544  1.0186 -0.4081 -0.7708
 5561TIP3    H238243   5.206   6.525   0.541  2.4633 -1.0213 -0.4767
 5562TIP3   OH238244   6.005   4.241   3.558 -0.3604  0.1407 -0.4750
 5562TIP3    H138245   5.958   4.171   3.512  0.1939 -0.0198 -0.8066
 5562TIP3    H238246   6.089   4.201   3.583  0.0068  0.7187 -0.7727
 5563TIP3   OH238247   1.878   5.490   0.531 -0.5430 -0.8001  0.2204
 5563TIP3    H138248   1.929   5.429   0.583  1.1182  0.9738  0.7975
 5563TIP3    H238249   1.942   5.530   0.472 -0.8364  2.5549  1.9388
 5564TIP3   OH238250   0.275   5.726   0.356 -0.1018 -0.2464 -0.3030
 5564TIP3    H138251   0.334   5.758   0.425 -2.3195  1.8334  0.8085
 5564TIP3    H238252   0.218   5.665   0.402 -0.7659  0.1606 -0.5763
 5565TIP3   OH238253   3.972   5.164   1.244 -0.1898 -0.4310  0.7721
 5565TIP3    H138254   3.907   5.163   1.315  0.2767  1.8546  1.3172
 5565TIP3    H238255   3.932   5.217   1.175  0.6607  0.1459  0.6988
 5566TIP3   OH238256   4.994   3.524   0.190 -0.2435  0.1908 -0.6335
 5566TIP3    H138257   5.065   3.587   0.207 -0.9425  1.4796 -2.2117
 5566TIP3    H238258   4.943   3.523   0.271  0.3405  0.9242 -0.2412
 5567TIP3   OH238259   3.726   4.662   2.156  0.5073  0.3766  0.2058
 5567TIP3    H138260   3.688   4.593   2.210 -0.5599  0.8309  0.0628
 5567TIP3    H238261   3.810   4.681   2.196  0.9126 -1.1491  0.1227
 5568TIP3   OH238262   1.915   2.147   2.594 -0.4441 -0.0671 -0.1693
 5568TIP3    H138263   1.981   2.163   2.527 -1.3781  2.4052 -0.5939
 5568TIP3    H238264   1.866   2.072   2.562 -0.6179  0.8125 -2.1109
 5569TIP3   OH238265   4.399   6.376   2.119 -0.0525 -0.1126 -0.3021
 5569TIP3    H138266   4.378   6.425   2.039  0.1669 -0.1888 -0.4065
 5569TIP3    H238267   4.359   6.427   2.189  0.9661  0.7402 -0.3107
 5570TIP3   OH238268   4.917   6.265   3.465 -0.2060 -0.4992  0.2012
 5570TIP3    H138269   4.908   6.330   3.534 -1.5024 -1.2729  0.8162
 5570TIP3    H238270   4.910   6.314   3.384  3.2378  0.7020  0.4839
 5571TIP3   OH238271   1.309   6.181   1.295 -0.9766  0.6557  0.3946
 5571TIP3    H138272   1.335   6.271   1.312  1.7846 -0.3838  2.4633
 5571TIP3    H238273   1.331   6.134   1.376  0.1633 -2.3429 -1.4743
 5572TIP3   OH238274   2.334   1.803   1.690 -0.5764  0.1133  0.1845
 5572TIP3    H138275   2.422   1.784   1.723 -1.2161 -2.6335  0.5417
 5572TIP3    H238276   2.306   1.879   1.741  0.7703 -0.3132  1.6508
 5573TIP3   OH238277   0.512   4.079   0.286 -0.2345  0.3460 -0.4973
 5573TIP3    H138278   0.554   4.144   0.230 -0.3417 -0.4924 -1.5741
 5573TIP3    H238279   0.503   4.123   0.371  0.3357  1.4785 -1.0043
 5574TIP3   OH238280   3.422   6.011   2.783 -0.0715 -0.0005  0.2068
 5574TIP3    H138281   3.350   5.996   2.721  0.7931 -0.1079 -0.7944
 5574TIP3    H238282   3.395   6.088   2.833 -1.3196 -0.6088  0.5131
 5575TIP3   OH238283   0.983   2.695   7.967 -0.1177  0.0665  0.2127
 5575TIP3    H138284   0.953   2.748   7.893 -0.7999 -0.8985 -0.2136
 5575TIP3    H238285   0.905   2.684   8.021 -0.4477 -1.9604 -0.5956
 5576TIP3   OH238286   5.644   0.292   1.409 -0.4461 -0.1238  0.2580
 5576TIP3    H138287   5.675   0.226   1.470  0.9587  0.6036  0.3719
 5576TIP3    H238288   5.683   0.374   1.441 -1.6981  0.6841 -0.1898
 5577TIP3   OH238289   3.835   5.482   7.080  0.2391  0.0212  0.0775
 5577TIP3    H138290   3.890   5.520   7.149  0.0493  0.7703 -0.1734
 5577TIP3    H238291   3.747   5.513   7.100 -0.0571 -0.9497  0.3181
 5578TIP3   OH238292   5.683   4.561   2.200  0.0851 -0.0692 -0.4245
 5578TIP3    H138293   5.723   4.479   2.230  0.4539  0.3360  0.2349
 5578TIP3    H238294   5.589   4.547   2.210  0.1411 -0.4351 -0.3803
 5579TIP3   OH238295   0.152   6.192   0.353 -0.1447  0.2974 -0.0149
 5579TIP3    H138296   0.102   6.235   0.423 -1.1368 -0.0425 -0.4976
 5579TIP3    H238297   0.120   6.233   0.272  0.0466 -0.2390 -0.3639
 5580TIP3   OH238298   4.090   2.676   7.920 -0.2611 -0.0419  0.0480
 5580TIP3    H138299   4.031   2.601   7.928 -1.4670  0.8784  0.0759
 5580TIP3    H238300   4.032   2.752   7.921  1.0031  0.9461  1.0201
 5581TIP3   OH238301   0.854   0.955   2.370  0.0234 -0.1690  0.5544
 5581TIP3    H138302   0.821   1.044   2.384 -0.9927 -0.3742 -0.4004
 5581TIP3    H238303   0.925   0.965   2.307  0.0958 -0.0119  0.6587
 5582TIP3   OH238304   5.489   6.097   2.616  0.2404 -0.4337  0.5563
 5582TIP3    H138305   5.422   6.133   2.558 -1.1479  1.1996  3.0082
 5582TIP3    H238306   5.545   6.045   2.559 -0.6249  1.5820 -2.3252
 5583TIP3   OH238307   3.628   2.610   1.738  0.2432 -0.3314  0.0756
 5583TIP3    H138308   3.570   2.670   1.690 -2.8260 -2.0378  1.3170
 5583TIP3    H238309   3.637   2.651   1.825 -2.0607 -1.5895  1.0081
 5584TIP3   OH238310   1.064   1.941   0.273 -0.5112  0.4304  0.1398
 5584TIP3    H138311   1.083   1.956   0.180 -0.4798 -0.9444 -0.1099
 5584TIP3    H238312   1.009   2.015   0.299 -1.0813  0.4979 -1.1595
 5585TIP3   OH238313   4.897   1.122   1.711 -0.3192  0.3959 -0.0659
 5585TIP3    H138314   4.906   1.212   1.744 -0.0312  0.7925 -1.1811
 5585TIP3    H238315   4.832   1.082   1.769  1.4062  0.4899  2.0702
 5586TIP3   OH238316   3.227   3.004   1.196  0.0140 -0.0966  0.7223
 5586TIP3    H138317   3.274   3.087   1.183  0.2691 -0.3103  0.2496
 5586TIP3    H238318   3.153   3.008   1.136  0.6751 -0.6948 -0.1532
 5587TIP3   OH238319   3.405   1.502   7.987 -0.2639 -0.3504 -0.5176
 5587TIP3    H138320   3.333   1.451   7.950 -0.3824 -0.8088  0.3314
 5587TIP3    H238321   3.362   1.563   8.046 -0.0553  0.2499 -0.9758
 5588TIP3   OH238322   3.702   3.965   1.364  0.2083  0.5194  0.0125
 5588TIP3    H138323   3.634   3.978   1.431 -0.0442 -1.5549  0.2284
 5588TIP3    H238324   3.780   4.007   1.401 -0.3660  0.8988  0.8229
 5589TIP3   OH238325   3.856   4.102   0.939 -0.1888  0.5264 -0.1952
 5589TIP3    H138326   3.802   4.113   1.017  0.3908  1.9281  0.0440
 5589TIP3    H238327   3.827   4.019   0.901 -2.7429  1.3648 -0.2655
 5590TIP3   OH238328   4.762   1.781   8.465 -0.0649 -0.5753 -0.3199
 5590TIP3    H138329   4.780   1.696   8.424 -1.9770 -0.9010 -0.5770
 5590TIP3    H238330   4.745   1.760   8.557 -2.9289 -0.8850 -0.8278
 5591TIP3   OH238331   0.904   5.078   0.358  0.0213  0.1063 -0.1264
 5591TIP3    H138332   0.841   5.149   0.371 -0.6338 -0.5132  0.2322
 5591TIP3    H238333   0.971   5.114   0.301 -0.3729  0.9663 -0.0541
 5592TIP3   OH238334   5.512   3.933   1.631 -0.9058 -0.5460  0.0040
 5592TIP3    H138335   5.494   4.023   1.656  1.2833 -0.3654  1.2040
 5592TIP3    H238336   5.499   3.931   1.536  0.4357  1.4404 -0.2788
 5593TIP3   OH238337   3.638   4.951   1.045  0.6875 -0.0301 -1.0774
 5593TIP3    H138338   3.567   4.911   0.996  1.7099  0.0598 -2.7391
 5593TIP3    H238339   3.649   5.037   1.005  2.6677 -0.6056 -1.9170
 5594TIP3   OH238340   0.945   5.204   2.610 -0.2974  0.4218  0.0463
 5594TIP3    H138341   0.969   5.131   2.667  0.4270  0.2684 -0.4344
 5594TIP3    H238342   0.934   5.278   2.669  0.2410  0.2184  0.4105
 5595TIP3   OH238343   6.591   3.552   3.379 -0.3008 -0.3712  0.2698
 5595TIP3    H138344   6.539   3.589   3.450 -0.5163  0.4442 -0.2937
 5595TIP3    H238345   6.665   3.612   3.370  0.2480 -1.0066  0.4430
 5596TIP3   OH238346   3.258   1.458   0.323  0.2293 -0.0823 -0.0146
 5596TIP3    H138347   3.223   1.413   0.399  0.6651 -2.4388 -1.1162
 5596TIP3    H238348   3.186   1.512   0.291  0.1609  1.2632  2.2177
 5597TIP3   OH238349   1.329   1.298   3.196 -0.1640 -0.2132 -0.5570
 5597TIP3    H138350   1.282   1.230   3.242  0.2699  0.4852  0.9669
 5597TIP3    H238351   1.353   1.361   3.263  1.1838  0.4540 -1.6095
 5598TIP3   OH238352   3.806   3.603   2.689 -0.0985  0.1147 -0.5260
 5598TIP3    H138353   3.771   3.564   2.769  0.3381  0.2065 -0.2866
 5598TIP3    H238354   3.893   3.564   2.679 -0.1028  0.1927 -0.8912
 5599TIP3   OH238355   4.293   1.561   2.710  0.0575 -0.4690  0.1124
 5599TIP3    H138356   4.220   1.602   2.663  0.2442 -1.5929 -1.2361
 5599TIP3    H238357   4.351   1.634   2.732 -1.7819  0.5664  1.9200
 5600TIP3   OH238358   3.575   3.022   3.019 -0.4482 -0.4239  0.4885
 5600TIP3    H138359   3.615   2.947   3.063 -0.0374 -0.2203  0.4704
 5600TIP3    H238360   3.535   3.073   3.089  0.3059 -0.0382  0.6485
 5601TIP3   OH238361   3.112   5.580   3.047  0.0892  0.2427  0.2013
 5601TIP3    H138362   3.066   5.640   2.989  0.5199  0.2762 -0.1071
 5601TIP3    H238363   3.121   5.500   2.996  1.5743  0.6725 -0.2508
 5602TIP3   OH238364   2.594   0.679   2.128  0.3002  0.5818  0.1607
 5602TIP3    H138365   2.659   0.682   2.059  0.3736 -0.2983  0.1708
 5602TIP3    H238366   2.528   0.616   2.096  0.2796  0.2483  0.8307
 5603TIP3   OH238367   3.108   5.485   0.945  0.3319 -0.2438  0.1752
 5603TIP3    H138368   3.058   5.491   0.864  3.2514 -0.0508 -1.7552
 5603TIP3    H238369   3.108   5.391   0.966  1.9743 -0.7573 -1.8009
 5604TIP3   OH238370   2.804   2.386   3.864 -0.2317  0.4160 -0.3605
 5604TIP3    H138371   2.782   2.450   3.932 -0.5533 -0.0191 -0.0450
 5604TIP3    H238372   2.724   2.335   3.853  0.5080 -1.0424  0.6361
 5605TIP3   OH238373   2.485   1.938   8.458 -0.3524  0.0320 -0.3494
 5605TIP3    H138374   2.416   1.883   8.495  0.6552 -1.2439 -0.2777
 5605TIP3    H238375   2.486   1.916   8.365 -1.1289  1.2775 -0.6654
 5606TIP3   OH238376   3.910   4.144   1.701 -0.1250  0.3107  0.1256
 5606TIP3    H138377   3.839   4.139   1.765 -0.0538 -1.4791  0.0943
 5606TIP3    H238378   3.982   4.187   1.748 -0.3317 -0.3006  1.0105
 5607TIP3   OH238379   1.927   4.276   0.718 -0.2596  0.7047 -0.9079
 5607TIP3    H138380   1.998   4.298   0.778  0.5059 -1.5548 -0.8821
 5607TIP3    H238381   1.847   4.300   0.767  0.4120  1.6741 -0.2413
 5608TIP3   OH238382   3.828   1.438   1.515  0.2382 -0.5395 -0.6872
 5608TIP3    H138383   3.820   1.354   1.561 -1.0025 -1.3077 -2.1927
 5608TIP3    H238384   3.917   1.439   1.482  0.3658 -1.1281 -0.3830
 5609TIP3   OH238385   0.752   0.530   1.901  0.3708 -0.2952 -0.1780
 5609TIP3    H138386   0.773   0.558   1.990 -0.9781  0.4872 -0.0815
 5609TIP3    H238387   0.770   0.606   1.846 -1.7953  0.3255 -0.1222
 5610TIP3   OH238388   0.905   6.811   0.273  0.2073  0.4050 -0.3310
 5610TIP3    H138389   0.886   6.743   0.337  0.8431 -0.4980 -1.0805
 5610TIP3    H238390   0.898   6.893   0.323  2.4190 -0.3283  1.3660
 5611TIP3   OH238391   1.594   3.944   0.322 -0.2782  0.2069  0.1100
 5611TIP3    H138392   1.513   3.897   0.342 -0.0524  0.0867  0.7680
 5611TIP3    H238393   1.575   4.035   0.343 -0.0736  0.0960  0.7965
 5612TIP3   OH238394   5.427   2.300   0.385  0.0631  0.2828  0.1715
 5612TIP3    H138395   5.411   2.211   0.416  0.8617 -0.2665 -0.9242
 5612TIP3    H238396   5.346   2.347   0.406 -0.7680 -0.9491 -0.1446
 5613TIP3   OH238397   5.016   1.777   2.174  0.2078 -0.1020  0.5249
 5613TIP3    H138398   4.940   1.834   2.178 -0.4035 -0.8394 -0.1007
 5613TIP3    H238399   5.091   1.836   2.162 -0.4401  0.5453 -0.4885
 5614TIP3   OH238400   4.792   1.472   2.953  0.1906 -0.0525  0.5788
 5614TIP3    H138401   4.835   1.451   3.035  0.8723 -0.5113  0.1191
 5614TIP3    H238402   4.729   1.541   2.975  0.4647 -0.0745  1.4487
 5615TIP3   OH238403   4.280   5.841   1.068 -0.4894 -0.3003 -0.5706
 5615TIP3    H138404   4.299   5.763   1.119 -1.2818 -0.7984 -1.0052
 5615TIP3    H238405   4.246   5.807   0.985  1.3832  0.4620 -1.7171
 5616TIP3   OH238406   2.945   3.186   3.643 -0.1982 -0.1480  0.2557
 5616TIP3    H138407   2.968   3.278   3.639 -0.0113 -0.2471 -2.1526
 5616TIP3    H238408   2.877   3.181   3.711  0.1918  1.6277  0.8217
 5617TIP3   OH238409   5.602   3.983   0.648  0.8331 -0.3848 -0.2578
 5617TIP3    H138410   5.548   4.013   0.722  0.0393  1.1477 -1.4030
 5617TIP3    H238411   5.561   3.901   0.621 -0.5598  0.4143 -0.6727
 5618TIP3   OH238412   6.055   4.069   1.212 -0.1769 -0.2516  0.0536
 5618TIP3    H138413   6.004   4.016   1.273  0.3471  0.1027  0.8070
 5618TIP3    H238414   6.127   4.104   1.264 -0.7147  1.5228 -0.3109
 5619TIP3   OH238415   1.924   5.764   3.529 -0.0755 -0.0554  0.1310
 5619TIP3    H138416   1.829   5.756   3.518  0.0079  0.7165 -1.4742
 5619TIP3    H238417   1.961   5.724   3.451  0.8341  1.3567 -0.1970
 5620TIP3   OH238418   1.579   6.059   1.824  0.5412 -0.3729  0.2510
 5620TIP3    H138419   1.613   6.066   1.735  3.2095 -1.8583  1.0414
 5620TIP3    H238420   1.503   6.001   1.817  0.8376 -0.6286 -1.0072
 5621TIP3   OH238421   5.423   2.367   1.639 -0.1186 -0.4016  0.1430
 5621TIP3    H138422   5.406   2.460   1.621 -1.4815 -0.9332 -1.6603
 5621TIP3    H238423   5.362   2.344   1.709 -0.9848 -0.2715 -0.5339
 5622TIP3   OH238424   4.566   6.479   3.570  0.3541  0.1433  0.3155
 5622TIP3    H138425   4.659   6.503   3.566  0.0904  1.1009 -0.5245
 5622TIP3    H238426   4.566   6.386   3.592  1.5847 -0.2783 -1.2691
 5623TIP3   OH238427   6.438   4.813   8.590  0.2340 -0.3265 -0.2535
 5623TIP3    H138428   6.370   4.787   8.527  2.0591 -3.3341 -1.2385
 5623TIP3    H238429   6.394   4.873   8.650 -3.3147 -2.0958 -0.7923
 5624TIP3   OH238430   5.534   3.002   2.755  0.2352  0.3085 -0.8311
 5624TIP3    H138431   5.594   3.021   2.826 -0.2011  0.3476 -0.4709
 5624TIP3    H238432   5.588   2.960   2.688  0.1079 -2.5990  0.7427
 5625TIP3   OH238433   5.810   1.792   1.159  1.0943  0.2385  0.3435
 5625TIP3    H138434   5.736   1.845   1.129  1.2916  0.7010  0.6685
 5625TIP3    H238435   5.790   1.772   1.250  0.9635 -0.3465  0.1854
 5626TIP3   OH238436   4.388   6.262   1.856  0.0508  0.0095 -0.2919
 5626TIP3    H138437   4.345   6.272   1.941  1.7794 -0.3349  0.6707
 5626TIP3    H238438   4.451   6.192   1.869 -0.9216 -1.3694 -2.4343
 5627TIP3   OH238439   1.747   3.495   1.532 -0.2579  0.0540  0.2411
 5627TIP3    H138440   1.687   3.501   1.606 -0.8342  2.5720 -0.3367
 5627TIP3    H238441   1.737   3.405   1.500 -2.5110 -0.0616  1.1158
 5628TIP3   OH238442   1.579   4.966   3.488 -0.2202  0.4220  0.4726
 5628TIP3    H138443   1.666   4.949   3.451 -0.7506 -0.1497 -0.5808
 5628TIP3    H238444   1.553   5.050   3.450 -0.3840  0.2829  0.2736
 5629TIP3   OH238445   5.512   5.497   7.582 -0.1568 -0.0989 -0.4172
 5629TIP3    H138446   5.425   5.515   7.617  0.1015 -0.4024  0.3989
 5629TIP3    H238447   5.554   5.583   7.579  0.9419 -0.3250  3.1349
 5630TIP3   OH238448   0.376   3.835   2.994  0.2968  0.4556 -0.3223
 5630TIP3    H138449   0.319   3.795   2.928 -0.7989  0.9735  0.2803
 5630TIP3    H238450   0.465   3.820   2.962 -0.2097  0.9984 -2.0998
 5631TIP3   OH238451   5.522   4.411   0.214 -0.0623  0.7269  0.1274
 5631TIP3    H138452   5.540   4.478   0.281  2.1459  0.3224  0.0088
 5631TIP3    H238453   5.531   4.328   0.261 -0.0808  0.4722 -0.3221
 5632TIP3   OH238454   5.518   0.220   3.373  0.4172  0.2253 -0.3951
 5632TIP3    H138455   5.427   0.196   3.393  0.3108  0.9931  0.0787
 5632TIP3    H238456   5.561   0.137   3.355  0.0115 -0.3199  0.9846
 5633TIP3   OH238457   6.659   4.125   1.254 -0.8834  0.2788  0.0725
 5633TIP3    H138458   6.727   4.074   1.297  0.3644  1.3445 -0.5607
 5633TIP3    H238459   6.636   4.193   1.318  0.6296  1.5713 -0.6951
 5634TIP3   OH238460   3.246   2.870   8.643  0.0869 -0.0480 -0.2138
 5634TIP3    H138461   3.188   2.898   8.572  1.0630 -0.5249 -1.2244
 5634TIP3    H238462   3.292   2.949   8.670 -0.6065  0.2225  0.2177
 5635TIP3   OH238463   2.108   5.196   0.786  0.2867  0.8499  0.0994
 5635TIP3    H138464   2.122   5.102   0.787 -1.2650  0.5966 -0.1963
 5635TIP3    H238465   2.069   5.215   0.872 -1.9979  0.7604 -0.8606
 5636TIP3   OH238466   4.560   5.481   3.173 -0.2115  0.4102  0.4844
 5636TIP3    H138467   4.626   5.504   3.108  0.4266  2.2575  1.7102
 5636TIP3    H238468   4.608   5.474   3.255 -1.4884  1.7187  1.3918
 5637TIP3   OH238469   1.665   0.998   8.480 -0.5225  0.4820 -0.4990
 5637TIP3    H138470   1.685   0.905   8.487  0.4129  0.6062 -1.3233
 5637TIP3    H238471   1.719   1.039   8.548  0.5196  0.5969 -1.3612
 5638TIP3   OH238472   3.619   4.442   2.339 -0.4604 -0.0107 -0.0572
 5638TIP3    H138473   3.660   4.376   2.395  0.5315  0.0804 -0.6569
 5638TIP3    H238474   3.540   4.468   2.387  0.4365  0.1824  1.3732
 5639TIP3   OH238475   1.547   4.144   3.359 -0.3132 -0.3340 -0.3960
 5639TIP3    H138476   1.583   4.224   3.321 -0.4135 -0.6393 -1.1477
 5639TIP3    H238477   1.491   4.108   3.291 -0.9158 -0.6177  0.2389
 5640TIP3   OH238478   1.916   2.063   3.398 -0.2910 -0.3035 -0.0703
 5640TIP3    H138479   1.885   2.048   3.488  1.2288 -0.6721  0.4245
 5640TIP3    H238480   1.878   1.990   3.348  0.2348 -1.0827  0.6344
 5641TIP3   OH238481   4.901   0.531   0.050  0.1887  0.3564 -0.2297
 5641TIP3    H138482   4.888   0.521   0.145 -1.0743  0.6419 -0.3673
 5641TIP3    H238483   4.815   0.550   0.015  0.8207  1.3463 -1.3182
 5642TIP3   OH238484   5.627   0.927   7.851  0.0591 -0.1138  0.0069
 5642TIP3    H138485   5.564   0.948   7.920 -0.5741 -1.6904 -0.0334
 5642TIP3    H238486   5.573   0.913   7.773  0.1995 -3.0005  0.3161
 5643TIP3   OH238487   1.298   1.109   2.333 -0.6461 -0.1926  0.1626
 5643TIP3    H138488   1.312   1.068   2.419 -1.2308  1.8399  1.2874
 5643TIP3    H238489   1.362   1.066   2.275  1.0104 -0.3733  2.0205
 5644TIP3   OH238490   1.752   1.457   1.875 -0.2821 -0.4846 -0.2603
 5644TIP3    H138491   1.797   1.522   1.930 -0.5028 -0.0586 -0.5811
 5644TIP3    H238492   1.676   1.431   1.927  0.2115 -1.0540  0.1956
 5645TIP3   OH238493   6.015   2.414   3.012 -0.4968 -0.6840 -0.1037
 5645TIP3    H138494   5.983   2.365   2.936  0.1760  0.0900 -0.9123
 5645TIP3    H238495   6.065   2.350   3.063  0.0797 -0.9320 -0.9644
 5646TIP3   OH238496   2.201   6.164   8.486  0.1734  0.2143  0.2384
 5646TIP3    H138497   2.276   6.107   8.474 -2.2106 -3.4662  1.0434
 5646TIP3    H238498   2.209   6.197   8.576 -0.1440 -1.8427  1.0627
 5647TIP3   OH238499   6.041   4.885   2.316  0.5608 -0.6109 -0.3397
 5647TIP3    H138500   5.969   4.823   2.306  0.4707 -0.8383  1.3753
 5647TIP3    H238501   6.023   4.954   2.253 -3.3670  1.3727  2.5349
 5648TIP3   OH238502   5.171   0.700   2.881 -0.4645 -0.4978 -0.4952
 5648TIP3    H138503   5.089   0.696   2.832  0.2359  0.0601 -1.7603
 5648TIP3    H238504   5.168   0.784   2.927 -0.7266 -0.6096 -0.3089
 5649TIP3   OH238505   0.616   1.530   1.276  0.1989 -0.0925  0.4759
 5649TIP3    H138506   0.633   1.456   1.217 -0.8576  0.2523 -0.3074
 5649TIP3    H238507   0.693   1.535   1.332  0.9002 -0.9128 -0.3840
 5650TIP3   OH238508   3.329   1.993   3.589  0.1051 -0.7427  0.1533
 5650TIP3    H138509   3.255   2.015   3.646 -0.7745 -1.7762 -0.5515
 5650TIP3    H238510   3.371   1.920   3.634 -0.9655 -1.9831 -0.7798
 5651TIP3   OH238511   4.447   2.522   2.415  0.1732 -0.1900 -0.7647
 5651TIP3    H138512   4.403   2.471   2.482 -0.2533 -1.4840 -1.9938
 5651TIP3    H238513   4.437   2.613   2.443 -0.5406 -0.6664  0.5738
 5652TIP3   OH238514   0.041   6.620   3.646 -0.0436 -0.7372 -0.0110
 5652TIP3    H138515  -0.049   6.647   3.666  0.1938 -1.1663  1.8571
 5652TIP3    H238516   0.095   6.668   3.709  1.0355 -0.6214 -0.9872
 5653TIP3   OH238517   6.436   5.448   0.000 -0.1626 -0.7292 -0.3281
 5653TIP3    H138518   6.464   5.517   0.061 -0.9278 -1.6853  1.1594
 5653TIP3    H238519   6.347   5.472  -0.024 -0.4041 -1.1590  0.1363
 5654TIP3   OH238520   1.460   6.802   0.817 -0.4612  0.4081  0.4572
 5654TIP3    H138521   1.545   6.806   0.861 -0.8982  0.0451  1.3691
 5654TIP3    H238522   1.407   6.869   0.861 -0.8969  0.0642  0.4683
 5655TIP3   OH238523   1.206   1.041   2.648  0.0352  0.4083 -0.2512
 5655TIP3    H138524   1.125   1.037   2.700  0.0200 -0.1068 -0.3123
 5655TIP3    H238525   1.236   1.131   2.657  0.4084  0.1598  1.2369
 5656TIP3   OH238526   6.612   2.293   7.772  0.1572  1.1583 -0.0143
 5656TIP3    H138527   6.600   2.372   7.825 -0.5213  0.6417  0.6368
 5656TIP3    H238528   6.674   2.240   7.823 -0.5343  0.6380  0.3080
 5657TIP3   OH238529   5.864   6.060   0.167  0.0020 -0.1744  0.1703
 5657TIP3    H138530   5.825   6.034   0.083  1.8611  0.0221 -0.8182
 5657TIP3    H238531   5.846   5.987   0.225  0.4683 -1.2760 -1.0169
 5658TIP3   OH238532   5.646   6.013   1.589 -0.2248  0.0210  0.1203
 5658TIP3    H138533   5.710   5.959   1.636  0.6146  1.5885  0.8366
 5658TIP3    H238534   5.680   6.102   1.594 -2.6872  1.0259  0.9834
 5659TIP3   OH238535   5.588   5.248   7.649  0.0522 -0.3497  0.2420
 5659TIP3    H138536   5.622   5.199   7.574  0.1707 -1.9809  1.3101
 5659TIP3    H238537   5.567   5.334   7.614  1.1099 -0.7251 -1.4212
 5660TIP3   OH238538   4.759   3.707   1.892 -0.0386  0.2318 -0.5221
 5660TIP3    H138539   4.665   3.706   1.875 -0.1260 -2.0752 -0.2078
 5660TIP3    H238540   4.791   3.626   1.853  2.0160  1.4476 -1.4956
 5661TIP3   OH238541   1.679   6.862   1.736 -0.3154 -0.2647  0.3967
 5661TIP3    H138542   1.589   6.831   1.739 -0.8383  0.9474 -1.4132
 5661TIP3    H238543   1.677   6.947   1.780  0.1889 -0.6766  1.2601
 5662TIP3   OH238544   6.632   6.583   1.145  0.1650  0.1582 -0.2334
 5662TIP3    H138545   6.665   6.493   1.149  1.0199  0.5141  1.7061
 5662TIP3    H238546   6.641   6.608   1.053  0.4832 -1.5205 -0.6866
 5663TIP3   OH238547   4.077   1.835   1.094  0.2346 -0.0237 -0.3313
 5663TIP3    H138548   4.148   1.898   1.089  0.0875  0.1465 -0.2801
 5663TIP3    H238549   4.084   1.798   1.182  0.6968 -0.5249 -0.5701
 5664TIP3   OH238550   0.861   0.512   2.467  0.6180  1.0211  0.1735
 5664TIP3    H138551   0.794   0.561   2.420 -0.9291 -1.1337  0.0022
 5664TIP3    H238552   0.922   0.483   2.399  0.0076  0.4057 -0.1249
 5665TIP3   OH238553   4.844   6.147   1.740 -0.2588 -0.2937  0.0861
 5665TIP3    H138554   4.828   6.094   1.663  2.5931  0.2129 -0.9761
 5665TIP3    H238555   4.884   6.088   1.803 -0.6297 -0.2213  0.4011
 5666TIP3   OH238556   1.483   2.776   8.232 -0.0866  0.6580 -0.3854
 5666TIP3    H138557   1.459   2.763   8.140  2.5940  0.4749 -1.1371
 5666TIP3    H238558   1.576   2.798   8.230  0.1085  0.4294  2.3153
 5667TIP3   OH238559   3.534   1.439   0.469 -0.4319  0.3101  0.5829
 5667TIP3    H138560   3.486   1.410   0.392 -0.4055  0.2738  0.5798
 5667TIP3    H238561   3.471   1.492   0.519 -1.3212 -1.8434  1.8913
 5668TIP3   OH238562   6.426   4.342   8.589 -0.1209  0.0046  0.7074
 5668TIP3    H138563   6.454   4.420   8.636 -0.3473  0.5607 -0.0549
 5668TIP3    H238564   6.362   4.374   8.525  0.1391 -0.7291  0.0603
 5669TIP3   OH238565   2.610   4.250   1.062 -0.3750 -0.1347  0.0675
 5669TIP3    H138566   2.582   4.263   0.971  1.3218  0.9548 -0.3447
 5669TIP3    H238567   2.701   4.218   1.054  0.1696  1.0166  1.3841
 5670TIP3   OH238568   5.152   5.690   1.088 -0.4469 -0.3898 -0.0083
 5670TIP3    H138569   5.104   5.667   1.167  1.0685  0.4351  1.2182
 5670TIP3    H238570   5.140   5.784   1.079  1.4299 -0.0278  0.7460
 5671TIP3   OH238571   0.638   5.202   1.548  0.1941  0.1667  0.7888
 5671TIP3    H138572   0.723   5.159   1.560 -0.7437 -2.1550 -0.3154
 5671TIP3    H238573   0.650   5.257   1.470 -0.0545 -2.5221 -1.2947
 5672TIP3   OH238574   2.303   1.919   2.200 -0.6953  0.2581 -0.2438
 5672TIP3    H138575   2.244   1.868   2.144  1.7907 -2.1676 -0.8643
 5672TIP3    H238576   2.390   1.885   2.180  1.0120  3.6966  0.5681
 5673TIP3   OH238577   4.781   6.097   2.796  0.8120  0.5707  0.6666
 5673TIP3    H138578   4.822   6.061   2.717 -0.7288  1.0468 -0.4040
 5673TIP3    H238579   4.790   6.192   2.787  1.7013  0.5980  1.6893
 5674TIP3   OH238580   6.589   0.862   0.095  0.4292  0.0407  0.3363
 5674TIP3    H138581   6.530   0.802   0.141  0.4510 -1.0222 -0.9311
 5674TIP3    H238582   6.566   0.949   0.127 -0.1674 -0.5703  1.6330
 5675TIP3   OH238583   4.449   0.520   0.870  0.3065  0.9311  0.1658
 5675TIP3    H138584   4.520   0.569   0.830  0.7872  0.2518  0.1623
 5675TIP3    H238585   4.463   0.528   0.964  0.8400  0.1641  0.1574
 5676TIP3   OH238586   5.989   0.150   3.468 -0.5257 -0.1865 -0.2212
 5676TIP3    H138587   6.063   0.136   3.528 -0.1735 -0.7390 -0.7720
 5676TIP3    H238588   5.931   0.075   3.483 -0.7852  0.0404 -0.0763
 5677TIP3   OH238589   2.817   3.340   0.096  0.0918 -0.1719  0.2553
 5677TIP3    H138590   2.759   3.412   0.119  0.9313  0.6917 -0.2540
 5677TIP3    H238591   2.894   3.353   0.151 -0.3168 -1.5198  1.2044
 5678TIP3   OH238592   6.543   5.968   1.365 -0.0794  0.9071  0.0561
 5678TIP3    H138593   6.607   5.964   1.293 -1.2202 -0.0622 -0.9351
 5678TIP3    H238594   6.597   5.980   1.443  1.2372  1.4303 -0.8838
 5679TIP3   OH238595   2.461   3.466   2.688 -0.5836 -1.0020  0.4242
 5679TIP3    H138596   2.420   3.544   2.652 -0.3510 -1.5166 -1.0261
 5679TIP3    H238597   2.507   3.427   2.614  0.4253 -1.7914  1.4306
 5680TIP3   OH238598   3.218   5.702   2.128  0.3860 -0.0176  0.0675
 5680TIP3    H138599   3.310   5.685   2.107  0.7598  1.5806  0.2619
 5680TIP3    H238600   3.193   5.633   2.189  1.4028 -0.5736 -0.1342
 5681TIP3   OH238601   2.156   4.796   2.620  0.1552  0.0225 -0.9794
 5681TIP3    H138602   2.161   4.842   2.536 -1.4292 -0.1905 -1.2243
 5681TIP3    H238603   2.086   4.841   2.668 -0.8382 -1.5372 -0.8865
 5682TIP3   OH238604   5.412   2.194   2.484  0.8126  0.6846  0.1109
 5682TIP3    H138605   5.398   2.287   2.466  0.7469  0.6203 -0.1585
 5682TIP3    H238606   5.473   2.165   2.416 -0.6823  0.0538 -1.0022
 5683TIP3   OH238607   2.858   2.401   2.928 -0.6317  0.3762  0.1659
 5683TIP3    H138608   2.785   2.463   2.930 -0.5348  0.6150 -1.8133
 5683TIP3    H238609   2.816   2.315   2.935 -1.0112  0.5626  0.2215
 5684TIP3   OH238610   1.593   6.422   3.270 -0.2097  0.1167  0.4352
 5684TIP3    H138611   1.509   6.409   3.314 -1.4910 -0.8692 -2.1370
 5684TIP3    H238612   1.571   6.445   3.180  2.1968 -2.5491 -1.0132
 5685TIP3   OH238613   1.118   5.556   8.318  0.8504 -0.0959  0.2443
 5685TIP3    H138614   1.123   5.587   8.228  1.4779 -0.9591 -0.0254
 5685TIP3    H238615   1.197   5.503   8.330  0.6083 -0.2591  1.1959
 5686TIP3   OH238616   4.172   3.160   2.811 -0.2279  0.6083  0.0144
 5686TIP3    H138617   4.138   3.124   2.893 -0.2148 -0.4205 -0.4176
 5686TIP3    H238618   4.210   3.085   2.766 -1.1280  0.9618 -1.3948
 5687TIP3   OH238619   5.530   2.067   3.155 -0.2503  0.1082  0.2893
 5687TIP3    H138620   5.569   2.003   3.216  1.2860 -0.9174 -1.6468
 5687TIP3    H238621   5.606   2.112   3.117 -1.0374 -0.3914 -2.0036
 5688TIP3   OH238622   0.331   1.927   2.732  0.7182  0.0060 -0.0343
 5688TIP3    H138623   0.294   2.013   2.749  0.3135 -0.2043  0.1771
 5688TIP3    H238624   0.420   1.944   2.700  1.2473  0.4512  1.5669
 5689TIP3   OH238625   0.682   5.629   0.397 -0.0685 -0.0820  0.2848
 5689TIP3    H138626   0.601   5.679   0.409 -0.0431  0.0364 -0.0211
 5689TIP3    H238627   0.669   5.583   0.315  0.6439  0.8570 -0.3731
 5690TIP3   OH238628   1.908   4.167   3.565 -0.1027  0.6763 -0.2015
 5690TIP3    H138629   1.895   4.134   3.654  0.2229 -0.9735 -0.7298
 5690TIP3    H238630   2.002   4.161   3.550 -0.0438  1.8045 -0.3547
 5691TIP3   OH238631   3.274   5.358   1.157 -0.0254 -0.1475 -0.2451
 5691TIP3    H138632   3.344   5.421   1.139  2.5058 -2.8530 -0.6238
 5691TIP3    H238633   3.219   5.401   1.223  1.6525  2.3382 -0.3313
 5692TIP3   OH238634   5.457   0.938   8.113 -0.5014  0.0059  0.1400
 5692TIP3    H138635   5.374   0.910   8.074 -0.6592 -1.4980  1.4590
 5692TIP3    H238636   5.431   0.989   8.190 -0.2332 -0.8870  0.8384
 5693TIP3   OH238637   5.695   6.828   3.340  0.4278 -0.5209  0.2858
 5693TIP3    H138638   5.774   6.783   3.369 -0.2172 -0.9543  1.4199
 5693TIP3    H238639   5.625   6.793   3.396 -0.4919  0.1694 -0.4022
 5694TIP3   OH238640   1.235   6.056   1.811  0.0064 -0.0106  0.0098
 5694TIP3    H138641   1.207   5.965   1.825  0.5246 -0.3806 -1.2427
 5694TIP3    H238642   1.154   6.104   1.795 -0.1952 -0.4301 -0.2337
 5695TIP3   OH238643   6.794   4.111   0.558 -0.6789 -0.2066  0.3939
 5695TIP3    H138644   6.789   4.072   0.471 -3.6404  0.2410  0.2533
 5695TIP3    H238645   6.769   4.040   0.617 -2.2946  0.3968  0.4832
 5696TIP3   OH238646   3.781   6.469   2.836 -0.1651 -0.1497 -0.0307
 5696TIP3    H138647   3.756   6.489   2.926  1.6879 -1.1386  0.7587
 5696TIP3    H238648   3.698   6.455   2.791 -1.1521  0.8656  1.3764
 5697TIP3   OH238649   2.800   6.421   2.982  0.5848  0.5436  0.0375
 5697TIP3    H138650   2.705   6.426   2.991  0.2676 -1.5322 -1.3745
 5697TIP3    H238651   2.824   6.339   3.025  1.0652 -1.2087 -3.2393
 5698TIP3   OH238652   1.258   0.423   2.941 -0.1265  0.4456  0.1856
 5698TIP3    H138653   1.260   0.429   2.846 -0.3418  0.7264  0.1989
 5698TIP3    H238654   1.327   0.483   2.970 -0.6769  1.0661  0.2355
 5699TIP3   OH238655   2.505   1.864   3.009  0.0169  0.2877  0.3849
 5699TIP3    H138656   2.595   1.835   2.996  0.2995  1.4433 -0.3688
 5699TIP3    H238657   2.453   1.805   2.955  0.2981 -0.4213  0.8684
 5700TIP3   OH238658   6.703   3.415   2.479  0.9081 -0.0723  0.2708
 5700TIP3    H138659   6.733   3.397   2.389  0.2404  0.5982 -0.0937
 5700TIP3    H238660   6.756   3.489   2.507  0.6743  0.1184  0.2035
 5701TIP3   OH238661   6.712   0.039   1.438  0.5895 -1.0635 -0.6435
 5701TIP3    H138662   6.638   0.086   1.400 -0.6270 -3.0771 -0.9141
 5701TIP3    H238663   6.768   0.018   1.364 -0.1131 -2.1183 -0.8990
 5702TIP3   OH238664   3.353   2.010   1.012  0.2826  0.3978  0.2995
 5702TIP3    H138665   3.270   1.963   1.003  0.3611  0.3287 -0.0882
 5702TIP3    H238666   3.409   1.951   1.061  0.8563 -0.5518 -1.4104
 5703TIP3   OH238667   3.389   2.566   7.774 -0.0364  0.0558  0.5007
 5703TIP3    H138668   3.380   2.590   7.866  0.3921 -1.1490  0.8800
 5703TIP3    H238669   3.314   2.607   7.730  0.1519  1.2446  1.2441
 5704TIP3   OH238670   0.605   5.124   8.486 -0.2766 -0.2425  0.6739
 5704TIP3    H138671   0.689   5.081   8.501  0.5600  0.7937 -0.8048
 5704TIP3    H238672   0.575   5.089   8.402 -1.4031 -0.7093  1.2577
 5705TIP3   OH238673   6.135   2.503   0.238 -1.0727  0.6730  0.2533
 5705TIP3    H138674   6.129   2.540   0.150 -0.5235  1.5192  0.5653
 5705TIP3    H238675   6.101   2.571   0.295  0.8143  1.0919  0.9301
 5706TIP3   OH238676   4.708   0.042   1.859 -0.6115 -0.5129  0.3423
 5706TIP3    H138677   4.784   0.043   1.917  0.8770 -0.2434 -1.5316
 5706TIP3    H238678   4.729  -0.023   1.792 -1.4824  0.3870 -0.8625
 5707TIP3   OH238679   4.549   6.174   2.215  0.0754 -0.3788  0.4794
 5707TIP3    H138680   4.478   6.123   2.254 -0.0477  0.4444  1.3805
 5707TIP3    H238681   4.504   6.236   2.157  0.2090 -1.1189 -0.4383
 5708TIP3   OH238682   5.113   6.292   8.653 -0.0339  0.2732  0.4494
 5708TIP3    H138683   5.156   6.372   8.623  0.8583 -0.3022  0.1369
 5708TIP3    H238684   5.020   6.308   8.639  0.1874  0.9634 -0.3333
 5709TIP3   OH238685   2.504   5.328   2.448 -0.2943 -1.0543  0.5705
 5709TIP3    H138686   2.486   5.238   2.478  0.4305 -0.6898  2.2021
 5709TIP3    H238687   2.465   5.384   2.515 -2.1343 -0.0454 -1.2083
 5710TIP3   OH238688   1.531   5.862   8.639  0.0657 -0.1602 -0.8894
 5710TIP3    H138689   1.447   5.903   8.662  0.2155  0.4315 -1.3703
 5710TIP3    H238690   1.595   5.932   8.647  0.4201 -0.4544 -1.1383
 5711TIP3   OH238691   6.765   4.931   1.579 -0.4555 -0.2852  0.5288
 5711TIP3    H138692   6.696   4.871   1.608 -0.8376 -0.0525  0.1095
 5711TIP3    H238693   6.769   4.997   1.648 -1.4161  0.3128  0.0339
 5712TIP3   OH238694   6.841   1.779   2.235  0.4435 -0.1853  0.3432
 5712TIP3    H138695   6.783   1.703   2.229 -0.2002  0.2917  0.3724
 5712TIP3    H238696   6.929   1.743   2.225  0.0452 -0.6063 -2.4958
 5713TIP3   OH238697   3.602   6.413   2.416  0.4946 -0.2848  0.8364
 5713TIP3    H138698   3.511   6.433   2.435  0.0223  1.0635 -2.2499
 5713TIP3    H238699   3.609   6.318   2.428 -1.7859 -0.6763 -0.5007
 5714TIP3   OH238700   3.008   5.757   1.950  0.7040  0.0324  0.3095
 5714TIP3    H138701   3.034   5.705   1.874 -1.6631 -1.8872  0.7196
 5714TIP3    H238702   3.064   5.725   2.021  2.7333  1.6472 -0.4317
 5715TIP3   OH238703   0.856   3.954   0.745  0.2557  0.5241  0.4507
 5715TIP3    H138704   0.809   3.878   0.779  1.4341 -0.4542 -0.0319
 5715TIP3    H238705   0.827   4.027   0.800 -1.9639  0.0380  0.0536
 5716TIP3   OH238706   5.689   2.885   8.002  0.2849  0.0793 -0.1384
 5716TIP3    H138707   5.743   2.964   8.003  0.9121 -0.3327  0.9885
 5716TIP3    H238708   5.599   2.917   8.004  0.5206  0.7674 -0.5072
 5717TIP3   OH238709   1.574   4.722   8.658  0.0852 -0.1654 -0.3425
 5717TIP3    H138710   1.627   4.712   8.579  0.3537  1.4799 -0.4081
 5717TIP3    H238711   1.630   4.692   8.729  0.4656 -0.0801 -0.6028
 5718TIP3   OH238712   3.259   4.883   2.215 -0.9155 -0.5622  0.1985
 5718TIP3    H138713   3.245   4.918   2.303 -2.5064  0.7784 -0.5256
 5718TIP3    H238714   3.344   4.916   2.188  0.1504 -1.9825  1.6393
 5719TIP3   OH238715   0.433   1.182   2.349  0.2859 -0.1761  0.0576
 5719TIP3    H138716   0.404   1.204   2.438 -0.8126  1.7676 -0.7268
 5719TIP3    H238717   0.505   1.242   2.331  1.0540 -1.1119 -0.1130
 5720TIP3   OH238718   5.140   2.670   3.226 -0.4871 -0.1419  0.3668
 5720TIP3    H138719   5.157   2.686   3.318  1.6188 -0.9558  0.1758
 5720TIP3    H238720   5.227   2.669   3.185 -1.2821 -0.8991 -1.4266
 5721TIP3   OH238721   6.827   1.787   0.340  0.2994  0.2049  0.2465
 5721TIP3    H138722   6.748   1.841   0.334 -0.3113 -0.7521 -0.7223
 5721TIP3    H238723   6.872   1.819   0.419 -1.0246  0.7922  0.7944
 5722TIP3   OH238724   0.368   0.691   1.660 -0.6547 -0.2794 -0.5711
 5722TIP3    H138725   0.460   0.671   1.676 -0.7184 -0.0448  0.0955
 5722TIP3    H238726   0.370   0.760   1.594 -0.3828 -0.8750 -1.2070
 5723TIP3   OH238727   5.996   3.416   7.789 -0.7506  0.0397 -0.7382
 5723TIP3    H138728   6.052   3.473   7.737  0.4505  0.9101  1.3569
 5723TIP3    H238729   6.052   3.340   7.808 -0.8919  0.0962 -0.0815
 5724TIP3   OH238730   1.060   4.959   2.722 -0.4974 -0.1998 -0.1277
 5724TIP3    H138731   1.027   4.875   2.691  0.8685 -1.4978  1.6755
 5724TIP3    H238732   1.150   4.962   2.690 -0.1535 -0.0237  0.8204
 5725TIP3   OH238733   6.308   1.867   2.237  0.5597  0.2030  0.0112
 5725TIP3    H138734   6.242   1.803   2.264  1.2252 -0.3670  0.3361
 5725TIP3    H238735   6.362   1.820   2.174  0.1726  0.9262 -0.8899
 5726TIP3   OH238736   0.500   3.188   3.167 -0.5027 -0.3970 -0.0852
 5726TIP3    H138737   0.438   3.242   3.216 -0.0577 -0.1083  0.1583
 5726TIP3    H238738   0.558   3.151   3.233 -0.9777 -1.4215 -0.2090
 5727TIP3   OH238739   3.648   6.215   1.099  0.0692 -0.4347 -0.0351
 5727TIP3    H138740   3.597   6.142   1.136  0.6441 -0.8112  0.0291
 5727TIP3    H238741   3.657   6.277   1.172  1.9476 -1.5703  0.7624
 5728TIP3   OH238742   4.693   3.521   3.213 -0.2695  0.5316 -0.4973
 5728TIP3    H138743   4.706   3.545   3.121 -0.1469  2.3642 -0.0330
 5728TIP3    H238744   4.689   3.604   3.260  1.0343 -0.3807  1.3701
 5729TIP3   OH238745   2.796   1.752   1.968 -0.2865  0.3805 -0.4187
 5729TIP3    H138746   2.794   1.668   2.014  1.1227 -0.0120 -1.0036
 5729TIP3    H238747   2.867   1.742   1.904 -1.4287  1.3085 -1.8999
 5730TIP3   OH238748   0.350   1.448   7.891  0.0751  0.0916 -0.0913
 5730TIP3    H138749   0.356   1.531   7.937 -2.3793  0.5314 -0.4197
 5730TIP3    H238750   0.350   1.471   7.798 -0.9360 -0.2047 -0.1804
 5731TIP3   OH238751   0.423   1.571   0.346 -0.4524  0.2052  1.0975
 5731TIP3    H138752   0.368   1.608   0.277  1.3410 -0.7903 -0.9888
 5731TIP3    H238753   0.391   1.481   0.356 -0.1331  0.0633  0.8768
 5732TIP3   OH238754   0.553   3.370   7.611 -0.6068  0.3847  0.2201
 5732TIP3    H138755   0.494   3.305   7.573  1.5485 -1.1575 -0.7021
 5732TIP3    H238756   0.552   3.443   7.549 -1.1007  0.1202 -0.0867
 5733TIP3   OH238757   6.499   4.756   7.916  0.5674 -0.2200  0.5263
 5733TIP3    H138758   6.546   4.691   7.968 -0.5305 -0.8423  0.7815
 5733TIP3    H238759   6.520   4.840   7.957 -0.3791 -0.7071  2.1186
 5734TIP3   OH238760   3.182   0.254   8.195  0.3848 -0.5501 -0.7836
 5734TIP3    H138761   3.225   0.170   8.180  0.5962 -1.1065  2.3343
 5734TIP3    H238762   3.104   0.250   8.140  1.9514 -1.4000 -3.1063
 5735TIP3   OH238763   4.264   4.388   1.274  0.1357  0.0768  0.3759
 5735TIP3    H138764   4.299   4.469   1.237  0.3447 -0.2378 -0.1262
 5735TIP3    H238765   4.268   4.401   1.369 -2.6577  1.9010  0.3844
 5736TIP3   OH238766   4.615   4.459   0.649  0.3235 -0.0514  0.4361
 5736TIP3    H138767   4.550   4.492   0.711 -0.9656 -1.3079 -0.2098
 5736TIP3    H238768   4.580   4.481   0.563  1.1555 -0.0332  0.0910
 5737TIP3   OH238769   1.800   5.117   1.718 -0.1465 -0.0476 -0.6031
 5737TIP3    H138770   1.875   5.094   1.774  0.5121  1.0604 -0.9839
 5737TIP3    H238771   1.726   5.069   1.756  0.7535 -1.2131 -0.2389
 5738TIP3   OH238772   3.736   1.213   1.639 -0.6312  0.6940 -0.1462
 5738TIP3    H138773   3.698   1.181   1.721 -0.3959 -2.1230 -0.9992
 5738TIP3    H238774   3.664   1.209   1.577 -0.2207  0.3410 -0.6080
 5739TIP3   OH238775   6.771   3.989   0.996 -0.1534 -0.4981 -0.3874
 5739TIP3    H138776   6.739   3.971   0.907 -0.9128  1.4662 -0.5413
 5739TIP3    H238777   6.694   4.020   1.044  0.8464  1.3777  0.0864
 5740TIP3   OH238778   5.903   3.631   2.325 -0.0019 -0.4089  0.4889
 5740TIP3    H138779   5.998   3.623   2.337  0.0024 -0.5659  0.3701
 5740TIP3    H238780   5.867   3.560   2.378 -0.0905  0.0298  1.0242
 5741TIP3   OH238781   1.950   3.570   3.224  0.5987  0.1598 -0.0760
 5741TIP3    H138782   1.875   3.568   3.164  1.4764  1.5167 -1.3101
 5741TIP3    H238783   1.995   3.487   3.210  1.0359  0.6217 -1.7081
 5742TIP3   OH238784   6.189   4.995   2.069  0.0726  0.2317 -0.1057
 5742TIP3    H138785   6.186   4.921   2.008  0.6602  0.4399 -0.3899
 5742TIP3    H238786   6.108   5.043   2.051 -0.0283 -0.0185 -0.3302
 5743TIP3   OH238787   3.011   5.616   0.419  0.1775 -0.2738  0.7819
 5743TIP3    H138788   2.984   5.556   0.349  0.3648 -0.9834  1.2944
 5743TIP3    H238789   2.942   5.682   0.422  0.5708  0.2375 -0.5987
 5744TIP3   OH238790   2.974   5.032   8.619  0.1332  0.3819 -0.0986
 5744TIP3    H138791   2.956   5.113   8.570 -3.7535  1.0065  1.9195
 5744TIP3    H238792   2.914   4.968   8.581 -0.1433 -0.1853  1.2515
 5745TIP3   OH238793   3.409   3.795   0.728  0.1924  0.7704  0.2388
 5745TIP3    H138794   3.348   3.786   0.655 -1.0298 -1.4242  1.4090
 5745TIP3    H238795   3.461   3.873   0.707 -0.1988  0.3274 -2.8490
 5746TIP3   OH238796   3.134   6.122   1.762  0.2226  0.1588 -0.2289
 5746TIP3    H138797   3.207   6.098   1.819  0.1665  1.6050  0.4878
 5746TIP3    H238798   3.056   6.108   1.815  0.1595  1.3312  0.0063
 5747TIP3   OH238799   3.729   0.420   0.449  0.2060 -0.0574  0.4127
 5747TIP3    H138800   3.709   0.514   0.449 -0.7159 -0.2337 -0.6364
 5747TIP3    H238801   3.706   0.391   0.361  0.5676 -1.2576  0.7047
 5748TIP3   OH238802   5.383   6.708   8.224 -0.3522  0.1935  0.3914
 5748TIP3    H138803   5.385   6.799   8.193 -1.5347 -0.4006 -1.6450
 5748TIP3    H238804   5.296   6.676   8.198  0.0515 -1.5215  1.0500
 5749TIP3   OH238805   1.921   4.990   0.263 -0.1755 -0.3764 -0.2862
 5749TIP3    H138806   1.838   4.943   0.262 -0.8787  0.8088 -0.1289
 5749TIP3    H238807   1.987   4.923   0.246 -1.2817 -1.1158 -1.9359
 5750TIP3   OH238808   1.239   6.796   3.340  0.4757  0.2240 -1.1749
 5750TIP3    H138809   1.175   6.857   3.376  0.4185 -0.2660 -0.4246
 5750TIP3    H238810   1.253   6.732   3.410 -0.0163 -1.0601 -2.2124
 5751TIP3   OH238811   3.603   3.086   0.396 -0.2570 -0.1284 -0.2356
 5751TIP3    H138812   3.609   3.181   0.390  0.3931 -0.1930 -0.6158
 5751TIP3    H238813   3.547   3.061   0.322  0.8739 -0.1779 -1.0882
 5752TIP3   OH238814   3.318   6.238   2.356  0.3915 -0.3577  0.2099
 5752TIP3    H138815   3.285   6.298   2.424 -2.3572 -0.5303 -0.8472
 5752TIP3    H238816   3.401   6.205   2.391  0.7999  2.1771  1.9130
 5753TIP3   OH238817   1.972   5.502   3.027 -0.0510 -0.1053 -0.8150
 5753TIP3    H138818   1.953   5.420   3.073  1.7220  0.0973  0.3733
 5753TIP3    H238819   2.031   5.476   2.956  1.3390  0.2440  0.1845
 5754TIP3   OH238820   0.750   0.880   2.006  0.0079  0.2695  0.0670
 5754TIP3    H138821   0.778   0.881   1.915 -0.4468  2.2936 -0.0980
 5754TIP3    H238822   0.829   0.898   2.056  0.3440 -1.2585  0.1539
 5755TIP3   OH238823   5.169   1.008   2.569 -0.0908  0.0726 -0.1552
 5755TIP3    H138824   5.143   0.917   2.557 -1.9290  0.3017  1.5801
 5755TIP3    H238825   5.261   1.003   2.595  0.1891 -1.1738 -1.2662
 5756TIP3   OH238826   4.344   5.560   2.751 -0.0495 -0.3129  0.0873
 5756TIP3    H138827   4.330   5.652   2.728  0.8246 -0.5385 -1.5601
 5756TIP3    H238828   4.257   5.521   2.746 -1.0739  0.9682  4.0994
 5757TIP3   OH238829   4.281   4.172   1.115 -0.5963  0.0838  0.5701
 5757TIP3    H138830   4.187   4.157   1.107 -0.9438  2.5507 -1.2853
 5757TIP3    H238831   4.289   4.238   1.184 -0.6265  2.1648 -1.2978
 5758TIP3   OH238832   2.342   6.211   2.273 -0.0307 -0.0584 -0.2868
 5758TIP3    H138833   2.370   6.130   2.317 -0.2102  0.4110  0.7118
 5758TIP3    H238834   2.409   6.275   2.296 -0.2179  0.2437 -0.5721
 5759TIP3   OH238835   6.733   2.029   7.169 -0.0500 -0.2475 -0.3420
 5759TIP3    H138836   6.740   1.946   7.121  1.7271 -0.0928 -0.4057
 5759TIP3    H238837   6.823   2.059   7.179 -0.5856  1.1380  0.6603
 5760TIP3   OH238838   0.708   2.533   0.156  0.3085  0.0246 -0.2674
 5760TIP3    H138839   0.663   2.497   0.232  0.1879  1.6339  0.4641
 5760TIP3    H238840   0.738   2.620   0.184  1.3503  0.1638 -1.6614
 5761TIP3   OH238841   1.701   3.391   7.698 -0.4462 -0.0093 -0.2172
 5761TIP3    H138842   1.680   3.457   7.632  1.8408  1.2384  0.2055
 5761TIP3    H238843   1.679   3.432   7.782  1.4820  0.4982  0.0869
 5762TIP3   OH238844   2.715   1.627   3.110 -0.2696  0.0789 -0.2232
 5762TIP3    H138845   2.773   1.646   3.184 -0.8065 -0.3609  0.3226
 5762TIP3    H238846   2.680   1.540   3.129  0.2210 -0.3939 -1.4193
 5763TIP3   OH238847   5.139   2.232   1.067 -0.3931 -0.0485  0.0055
 5763TIP3    H138848   5.103   2.173   1.133 -2.0773 -0.7075 -1.4267
 5763TIP3    H238849   5.063   2.264   1.019  0.6907  1.3851 -0.8470
 5764TIP3   OH238850   3.848   4.180   2.210 -0.1022  0.4925  0.0351
 5764TIP3    H138851   3.848   4.241   2.283 -1.3574  0.9819 -0.3383
 5764TIP3    H238852   3.829   4.095   2.250  0.7556  0.4869  0.4482
 5765TIP3   OH238853   6.306   0.604   0.757  0.1112  0.0147 -0.0598
 5765TIP3    H138854   6.346   0.565   0.680  1.1735 -0.6875  0.8148
 5765TIP3    H238855   6.213   0.582   0.750  0.1362  0.2176 -1.2632
 5766TIP3   OH238856   3.363   0.216   2.947 -0.2680  0.4209  0.6344
 5766TIP3    H138857   3.445   0.258   2.973  0.0702  0.5698 -0.6207
 5766TIP3    H238858   3.310   0.288   2.913  0.2691 -0.1016 -1.4337
 5767TIP3   OH238859   1.260   2.021   0.010 -0.6346  0.2687 -0.5497
 5767TIP3    H138860   1.165   2.009   0.008 -0.6137 -0.6921  1.5782
 5767TIP3    H238861   1.295   1.949  -0.042 -1.0272 -0.7544  0.5675
 5768TIP3   OH238862   1.063   4.588   0.296  0.0806  0.2601  0.3580
 5768TIP3    H138863   1.023   4.578   0.210 -0.5523  1.8613  0.4319
 5768TIP3    H238864   1.036   4.675   0.325  1.1646  0.1761  1.7203
 5769TIP3   OH238865   0.824   4.083   2.848 -0.1836 -0.4323  0.1621
 5769TIP3    H138866   0.760   4.071   2.777 -0.2709 -0.1549  0.1902
 5769TIP3    H238867   0.810   4.174   2.876  2.5775  0.8981 -2.2052
 5770TIP3   OH238868   2.308   1.333   1.589  0.2741 -0.1120 -0.0874
 5770TIP3    H138869   2.300   1.301   1.679 -1.4941 -1.1215 -0.5556
 5770TIP3    H238870   2.278   1.260   1.535 -0.5372  1.1267 -1.3817
 5771TIP3   OH238871   5.467   0.244   0.328  0.2669 -0.3919  0.3396
 5771TIP3    H138872   5.412   0.235   0.405  1.0329 -0.6629  0.8739
 5771TIP3    H238873   5.544   0.292   0.360 -0.3499  1.4073 -0.7343
 5772TIP3   OH238874   4.106   5.129   2.366  0.3576  0.2492  0.2647
 5772TIP3    H138875   4.201   5.127   2.374  0.3634 -2.9106  0.6642
 5772TIP3    H238876   4.076   5.175   2.445  1.4984 -0.4920  1.1544
 5773TIP3   OH238877   1.317   6.335   2.209  0.2814  0.3675 -0.0774
 5773TIP3    H138878   1.334   6.421   2.249  0.0537  1.1978 -1.6732
 5773TIP3    H238879   1.221   6.328   2.207  0.2618  0.6521 -1.0324
 5774TIP3   OH238880   0.406   1.413   1.650 -0.1041  0.1558 -0.2485
 5774TIP3    H138881   0.443   1.366   1.575 -0.4840 -0.6947  0.0826
 5774TIP3    H238882   0.422   1.506   1.631 -0.3625 -0.0328 -1.4784
 5775TIP3   OH238883   0.434   5.306   1.705  0.1940 -0.1310 -0.0590
 5775TIP3    H138884   0.494   5.333   1.774  1.6399 -0.3103 -1.2102
 5775TIP3    H238885   0.490   5.288   1.630 -1.2604 -0.8124 -1.0220
 5776TIP3   OH238886   3.417   4.115   3.048  0.2111  0.1233  0.2940
 5776TIP3    H138887   3.347   4.174   3.076 -0.3732  0.3727 -1.5483
 5776TIP3    H238888   3.372   4.034   3.022  0.7076 -0.0746  0.0364
 5777TIP3   OH238889   2.466   1.968   0.127  0.3217  0.0195  0.1084
 5777TIP3    H138890   2.519   2.001   0.054  1.8017 -0.8592  0.7399
 5777TIP3    H238891   2.465   1.873   0.114 -1.7933  0.0548 -0.3096
 5778TIP3   OH238892   3.226   4.698   1.475 -0.2054 -0.3697  0.0362
 5778TIP3    H138893   3.226   4.789   1.504 -0.4013 -0.3818  0.0781
 5778TIP3    H238894   3.160   4.694   1.406  0.2633 -0.3424 -0.4143
 5779TIP3   OH238895   3.599   5.695   1.562  0.3262  0.5726 -0.2413
 5779TIP3    H138896   3.672   5.722   1.506 -0.5546  1.0516 -1.1902
 5779TIP3    H238897   3.544   5.772   1.568  0.4380  0.5543  1.3894
 5780TIP3   OH238898   5.995   5.594   2.215 -0.7944 -0.3112  0.1174
 5780TIP3    H138899   5.938   5.524   2.248  1.2479 -2.0858  0.1396
 5780TIP3    H238900   6.048   5.619   2.291  1.6203 -2.0466 -0.8724
 5781TIP3   OH238901   1.771   3.640   2.064 -0.4224  0.7608 -0.2438
 5781TIP3    H138902   1.714   3.717   2.074 -2.3089 -0.2917 -1.9882
 5781TIP3    H238903   1.737   3.577   2.127 -0.8441  0.3338 -0.8842
 5782TIP3   OH238904   3.604   6.647   0.361  0.4106 -0.7911  0.1369
 5782TIP3    H138905   3.613   6.674   0.452  1.2358  0.2793 -0.2461
 5782TIP3    H238906   3.685   6.674   0.320  0.3291 -1.8679 -0.7892
 5783TIP3   OH238907   0.502   2.099   3.093  0.6326  0.5207 -0.3091
 5783TIP3    H138908   0.488   2.031   3.027 -2.2722  0.4411  0.2780
 5783TIP3    H238909   0.496   2.182   3.044  0.6548  0.4288 -0.4693
 5784TIP3   OH238910   0.569   0.726   2.132  0.1643  0.1274 -0.2455
 5784TIP3    H138911   0.584   0.771   2.216 -0.5346  1.2037 -0.6732
 5784TIP3    H238912   0.641   0.755   2.076  0.4687 -0.3636 -0.1134
 5785TIP3   OH238913   0.610   4.744   8.115 -0.0171  0.7301 -0.2933
 5785TIP3    H138914   0.633   4.834   8.093 -0.8174  1.1269  0.4245
 5785TIP3    H238915   0.547   4.718   8.048  1.2552  0.1970 -1.3238
 5786TIP3   OH238916   6.502   0.069   2.785 -0.1289 -0.5379  0.5788
 5786TIP3    H138917   6.580   0.073   2.841  1.6171  0.7717 -1.7397
 5786TIP3    H238918   6.508  -0.016   2.741  1.5098  0.5425 -1.4622
 5787TIP3   OH238919   6.113   1.127   0.595  0.6444 -0.4258  0.7591
 5787TIP3    H138920   6.099   1.034   0.577  1.0734 -0.0875 -1.5871
 5787TIP3    H238921   6.153   1.162   0.516  0.5017  1.7829  1.5748
 5788TIP3   OH238922   1.265   1.465   2.501 -0.5164 -0.5215 -0.5322
 5788TIP3    H138923   1.290   1.415   2.579 -2.0417 -0.2751  0.1580
 5788TIP3    H238924   1.203   1.530   2.534 -0.9450 -0.2136 -1.9095
 5789TIP3   OH238925   0.971   5.727   2.622 -0.5892  0.0501 -0.4875
 5789TIP3    H138926   0.919   5.668   2.569  1.1362 -1.8945 -0.1353
 5789TIP3    H238927   1.032   5.768   2.561  0.0006 -0.6046 -0.3531
 5790TIP3   OH238928   2.586   6.438   2.651  0.4946 -0.1012  0.1716
 5790TIP3    H138929   2.550   6.364   2.700 -0.2946  1.0586  1.3939
 5790TIP3    H238930   2.681   6.421   2.650  0.2010 -1.9262 -0.9663
 5791TIP3   OH238931   0.266   5.761   8.188  0.1770  0.1556 -0.5933
 5791TIP3    H138932   0.253   5.744   8.095  1.1798 -0.5780 -0.6188
 5791TIP3    H238933   0.336   5.826   8.191  0.1160  0.2109 -0.3540
 5792TIP3   OH238934   2.742   0.974   3.961 -0.2276  0.1730  0.6760
 5792TIP3    H138935   2.698   1.057   3.982  2.5288  1.4069  2.1886
 5792TIP3    H238936   2.775   0.987   3.872 -1.7904 -0.3084 -0.0159
 5793TIP3   OH238937   0.771   3.288   1.389  0.0995 -0.2821  0.4563
 5793TIP3    H138938   0.686   3.288   1.432 -1.5802 -0.4304 -2.6013
 5793TIP3    H238939   0.781   3.377   1.354  1.4305 -0.1339  1.1584
 5794TIP3   OH238940   4.269   3.852   0.018 -0.1273  0.0372  0.1035
 5794TIP3    H138941   4.207   3.912  -0.023 -1.2610 -0.2134  1.3840
 5794TIP3    H238942   4.347   3.906   0.034 -0.4531  0.6803 -0.4206
 5795TIP3   OH238943   3.923   2.875   3.133 -0.1081 -0.0970  0.1454
 5795TIP3    H138944   3.975   2.854   3.211  0.1096  2.0926  0.6340
 5795TIP3    H238945   3.832   2.863   3.161 -0.0262  0.5432  0.7019
 5796TIP3   OH238946   0.296   5.602   1.196  0.1516 -0.1587 -0.6178
 5796TIP3    H138947   0.296   5.525   1.253  2.7567 -1.0993 -1.7685
 5796TIP3    H238948   0.226   5.657   1.232 -0.1213 -1.8966  1.8054
 5797TIP3   OH238949   2.611   3.501   1.029 -0.1625 -0.0429  0.1000
 5797TIP3    H138950   2.663   3.571   1.070 -0.0840 -0.2063  0.2813
 5797TIP3    H238951   2.555   3.469   1.099  0.5204 -0.8490  0.2964
 5798TIP3   OH238952   5.248   2.464   1.157 -0.6669  0.3068  0.2525
 5798TIP3    H138953   5.207   2.381   1.133  1.0958 -0.4204 -0.3630
 5798TIP3    H238954   5.174   2.522   1.176 -1.9985 -0.7596 -1.3639
 5799TIP3   OH238955   0.237   3.708   2.255  0.0884 -0.2322  0.0598
 5799TIP3    H138956   0.258   3.654   2.331 -0.1925 -0.9330 -0.3604
 5799TIP3    H238957   0.145   3.691   2.238 -0.5461  1.8027  1.0641
 5800TIP3   OH238958   4.509   6.041   7.768 -0.6754  0.7460 -0.2423
 5800TIP3    H138959   4.574   5.999   7.712 -0.8129 -0.2528  0.3195
 5800TIP3    H238960   4.556   6.115   7.808  0.2091 -0.1107  0.3515
 5801TIP3   OH238961   3.652   3.615   1.786 -0.1756  0.4214  0.2424
 5801TIP3    H138962   3.660   3.586   1.877 -0.4488  3.8702  1.5218
 5801TIP3    H238963   3.608   3.542   1.742  1.5868 -2.1349  2.3653
 5802TIP3   OH238964   0.425   5.900   3.593  0.1154 -0.1005  0.4527
 5802TIP3    H138965   0.378   5.937   3.668 -0.5472 -0.4380  0.2019
 5802TIP3    H238966   0.457   5.816   3.624 -2.4518 -1.5022 -0.4353
 5803TIP3   OH238967   6.352   6.315   8.310 -0.4145 -0.4979 -0.6446
 5803TIP3    H138968   6.418   6.251   8.283  0.8376  0.4628 -0.0033
 5803TIP3    H238969   6.273   6.263   8.324  0.7377 -2.0416  0.5700
 5804TIP3   OH238970   1.946   2.053   0.112  0.0739  0.1425  0.2772
 5804TIP3    H138971   1.946   1.962   0.082  1.3520  0.3004 -0.2699
 5804TIP3    H238972   2.039   2.076   0.119 -0.2009  1.8069 -0.8648
 5805TIP3   OH238973   2.516   3.735   0.339  0.4598 -0.2242  0.5628
 5805TIP3    H138974   2.581   3.795   0.302  0.3723  1.0937  2.3979
 5805TIP3    H238975   2.478   3.783   0.413 -1.1194 -1.7691  0.8236
 5806TIP3   OH238976   0.804   5.854   7.825 -0.1069  0.3363  0.2219
 5806TIP3    H138977   0.720   5.900   7.816  0.9612  2.2265 -0.6876
 5806TIP3    H238978   0.792   5.773   7.776 -1.3011  0.7190 -0.1611
 5807TIP3   OH238979   2.460   1.506   1.420 -0.7190  0.5986  0.3948
 5807TIP3    H138980   2.405   1.440   1.463  0.3595 -0.2541  0.5083
 5807TIP3    H238981   2.410   1.533   1.343  0.5316 -3.4693 -2.1215
 5808TIP3   OH238982   2.237   6.529   1.439 -0.1634  1.2942  0.2361
 5808TIP3    H138983   2.323   6.571   1.432 -0.4047  2.3239  2.4090
 5808TIP3    H238984   2.229   6.508   1.532 -1.4976 -0.5217 -0.2443
 5809TIP3   OH238985   0.875   6.204   2.579  0.4774  0.0100  0.4572
 5809TIP3    H138986   0.954   6.189   2.527  0.0968  1.2022 -0.4964
 5809TIP3    H238987   0.898   6.276   2.637  0.5686 -0.6535  1.2725
 5810TIP3   OH238988   3.813   4.512   1.768 -0.3401  0.1070 -0.3864
 5810TIP3    H138989   3.788   4.576   1.836  0.3113  0.3734 -0.3926
 5810TIP3    H238990   3.739   4.452   1.764 -1.1801  1.1202 -0.6934
 5811TIP3   OH238991   0.042   5.153   7.935  0.2210 -0.9084 -0.7723
 5811TIP3    H138992   0.011   5.141   7.846 -2.6612  2.6082 -0.4573
 5811TIP3    H238993  -0.037   5.150   7.989  1.2108  1.7617  1.0193
 5812TIP3   OH238994   5.253   3.149   0.832  0.2610 -0.1996 -0.6988
 5812TIP3    H138995   5.259   3.243   0.814 -0.4129 -0.3045 -1.5194
 5812TIP3    H238996   5.325   3.111   0.782  1.6134  0.0284  0.9775
 5813TIP3   OH238997   3.838   5.295   1.050  0.1982  0.3084 -0.2926
 5813TIP3    H138998   3.797   5.373   1.088 -2.0452 -1.5091  1.2703
 5813TIP3    H238999   3.779   5.269   0.979 -0.2475 -1.1001  0.5547
 5814TIP3   OH239000   0.148   4.890   0.869  0.4314 -0.3639  0.4160
 5814TIP3    H139001   0.118   4.899   0.779 -1.2205 -2.1756  0.7182
 5814TIP3    H239002   0.147   4.796   0.885  0.4652 -0.0618  2.4005
 5815TIP3   OH239003   0.383   5.086   0.130 -0.0354  0.0193  0.4840
 5815TIP3    H139004   0.410   5.051   0.215 -0.9553 -1.3292  0.2590
 5815TIP3    H239005   0.465   5.111   0.087  0.5786 -0.7870  1.1435
 5816TIP3   OH239006   1.757   2.589   4.261  0.1391  0.1811 -0.6396
 5816TIP3    H139007   1.732   2.562   4.173  0.0203 -0.1040 -0.5200
 5816TIP3    H239008   1.683   2.642   4.291  0.3476  0.6072 -0.8525
 5817TIP3   OH239009   6.147   6.551   1.860  0.3514  0.3547 -0.9223
 5817TIP3    H139010   6.129   6.549   1.954  0.6882  2.0152 -0.7974
 5817TIP3    H239011   6.129   6.462   1.830 -1.9988  0.3584  0.2940
 5818TIP3   OH239012   6.273   5.424   2.101  0.5409  0.2246 -0.2833
 5818TIP3    H139013   6.299   5.480   2.028  0.4219  2.4587  1.3078
 5818TIP3    H239014   6.178   5.412   2.090  0.5850  0.2258 -0.6778
 5819TIP3   OH239015   1.667   5.860   2.665  0.1256  0.4675 -0.3134
 5819TIP3    H139016   1.619   5.873   2.583  0.4576 -0.3228 -0.6393
 5819TIP3    H239017   1.721   5.783   2.649  1.1751  1.0791  0.2015
 5820TIP3   OH239018   5.441   3.964   2.859  0.1019 -0.3223  0.0922
 5820TIP3    H139019   5.469   3.874   2.880 -0.9105 -0.4706  0.9158
 5820TIP3    H239020   5.513   4.019   2.889  0.2063 -0.7932  0.7435
 5821TIP3   OH239021   5.408   1.359   2.540  0.1360 -0.2579  0.0750
 5821TIP3    H139022   5.405   1.448   2.504  1.2312 -0.1219  0.2697
 5821TIP3    H239023   5.318   1.340   2.566 -0.0520  0.9207  0.3453
 5822TIP3   OH239024   4.875   5.396   1.573 -0.0525 -0.2125 -0.3624
 5822TIP3    H139025   4.868   5.372   1.666 -1.7428 -2.1814 -0.9043
 5822TIP3    H239026   4.968   5.387   1.553  0.3806  0.5115  1.1907
 5823TIP3   OH239027   3.661   2.160   2.552  0.1472 -0.6299 -0.4081
 5823TIP3    H139028   3.588   2.156   2.614  0.1497 -2.7456 -0.4761
 5823TIP3    H239029   3.656   2.248   2.514 -0.2175  0.5315  2.1177
 5824TIP3   OH239030   4.767   5.219   3.112  0.1875 -0.5142  0.4871
 5824TIP3    H139031   4.768   5.315   3.103  2.2074 -0.5718 -0.4522
 5824TIP3    H239032   4.696   5.191   3.054 -0.0689  0.3836  0.3386
 5825TIP3   OH239033   2.993   1.261   0.103  0.6610  0.2750  0.4402
 5825TIP3    H139034   2.981   1.348   0.064  0.2086 -0.4607 -1.1087
 5825TIP3    H239035   2.912   1.246   0.152 -0.1273 -0.0673 -0.9171
 5826TIP3   OH239036   5.720   4.011   2.631  0.0556  0.1279 -0.3337
 5826TIP3    H139037   5.752   3.956   2.560  1.5549  1.1504 -0.5025
 5826TIP3    H239038   5.775   3.990   2.705  0.0360  0.7256 -0.1399
 5827TIP3   OH239039   6.352   4.155   1.220  0.1541  0.5837 -0.5028
 5827TIP3    H139040   6.313   4.155   1.307 -0.4860 -0.6230 -0.7649
 5827TIP3    H239041   6.374   4.063   1.203  0.3781  0.8178 -1.5618
 5828TIP3   OH239042   0.586   4.677   1.647 -0.3567 -0.4775 -0.2650
 5828TIP3    H139043   0.563   4.619   1.719  0.0921 -2.0866 -1.3667
 5828TIP3    H239044   0.502   4.699   1.606 -0.5241 -0.4166  0.1085
 5829TIP3   OH239045   6.166   1.398   8.487 -0.0680 -0.3729 -0.1671
 5829TIP3    H139046   6.241   1.365   8.440 -0.7816 -1.5503 -0.5086
 5829TIP3    H239047   6.186   1.491   8.503  1.9310 -0.9213  0.7553
 5830TIP3   OH239048   0.772   4.659   0.475 -1.1134 -0.2520  0.3107
 5830TIP3    H139049   0.839   4.701   0.421 -2.1676 -0.8036 -1.5387
 5830TIP3    H239050   0.696   4.716   0.468 -1.8619 -1.3043 -0.3974
 5831TIP3   OH239051   6.676   6.390   1.870  0.4040  0.0832  0.1002
 5831TIP3    H139052   6.583   6.375   1.891  0.4528 -1.3925 -0.6332
 5831TIP3    H239053   6.717   6.406   1.955 -0.6682  1.6810  0.3455
 5832TIP3   OH239054   2.617   3.165   8.130 -0.1999  0.1188  0.0561
 5832TIP3    H139055   2.627   3.188   8.223 -0.4068 -1.0887  0.3981
 5832TIP3    H239056   2.524   3.142   8.122  0.0709 -0.9258 -0.1650
 5833TIP3   OH239057   3.201   6.579   2.193  0.0806 -0.1891  0.5502
 5833TIP3    H139058   3.140   6.521   2.147  1.9260 -1.1845 -0.7282
 5833TIP3    H239059   3.198   6.661   2.145 -0.1743 -0.2657  0.4347
 5834TIP3   OH239060   4.922   4.132   1.335 -0.1293  0.1769 -0.0559
 5834TIP3    H139061   4.918   4.061   1.271 -0.1464 -0.2390  0.4043
 5834TIP3    H239062   4.914   4.089   1.420  1.3715  0.5617  0.3120
 5835TIP3   OH239063   6.103   2.643   2.078 -0.4155  0.2865  0.8900
 5835TIP3    H139064   6.020   2.596   2.081 -0.4386  0.2822  0.3616
 5835TIP3    H239065   6.093   2.714   2.142 -0.9286  0.4483  0.6381
 5836TIP3   OH239066   1.767   6.098   0.711  0.7204  0.1495  0.1343
 5836TIP3    H139067   1.847   6.049   0.733  2.1777  2.2108 -0.3141
 5836TIP3    H239068   1.734   6.129   0.795  0.1557 -0.9796  0.3547
 5837TIP3   OH239069   5.424   2.745   3.070  0.3452  0.1890 -0.0006
 5837TIP3    H139070   5.405   2.667   3.121 -0.6641 -0.3894 -1.1912
 5837TIP3    H239071   5.478   2.714   2.997  0.5202  0.7337 -0.1103
 5838TIP3   OH239072   3.688   2.582   3.408  0.1445 -1.1112 -0.2657
 5838TIP3    H139073   3.774   2.605   3.443  0.1475 -1.8978  0.2740
 5838TIP3    H239074   3.641   2.665   3.403  0.7313 -0.7577 -0.0087
 5839TIP3   OH239075   1.874   4.564   2.748  0.0438  0.4360 -0.2728
 5839TIP3    H139076   1.962   4.530   2.765 -0.2842 -0.3697 -0.0859
 5839TIP3    H239077   1.882   4.614   2.667  0.2321 -1.5254 -1.5283
 5840TIP3   OH239078   6.142   5.572   0.495  0.1585 -0.2014 -0.1590
 5840TIP3    H139079   6.110   5.483   0.507 -0.0251  0.1555  2.3292
 5840TIP3    H239080   6.216   5.580   0.555 -0.2114  1.5272  0.1192
 5841TIP3   OH239081   0.921   2.084   1.201  0.5376  0.6094  0.2299
 5841TIP3    H139082   0.837   2.051   1.233  1.8139 -1.2723  1.9329
 5841TIP3    H239083   0.940   2.029   1.124  0.5406  0.5228  0.2918
 5842TIP3   OH239084   2.168   1.581   1.644  0.0896  0.6392  0.6797
 5842TIP3    H139085   2.182   1.487   1.635  0.7590  0.8096 -0.2286
 5842TIP3    H239086   2.239   1.611   1.702  1.7670  1.0211 -1.4451
 5843TIP3   OH239087   5.833   6.719   0.592 -0.5479  0.2882  0.7784
 5843TIP3    H139088   5.894   6.671   0.536 -0.8855 -0.0169  0.6678
 5843TIP3    H239089   5.748   6.676   0.578 -1.0263  1.4065  0.0751
 5844TIP3   OH239090   2.750   1.891   0.332  0.3361 -0.1608 -0.2141
 5844TIP3    H139091   2.665   1.851   0.313 -0.0516  1.0061 -1.0439
 5844TIP3    H239092   2.759   1.961   0.267  0.4394  1.8859  1.8456
 5845TIP3   OH239093   5.262   0.282   0.138  0.7254 -0.3271 -0.2715
 5845TIP3    H139094   5.317   0.287   0.060  0.2017  0.7562 -0.5830
 5845TIP3    H239095   5.324   0.285   0.211  1.3029 -2.3939 -0.6081
 5846TIP3   OH239096   2.076   5.909   3.173  0.0112 -0.2137 -0.7539
 5846TIP3    H139097   2.131   5.912   3.251 -1.5767 -1.3032  0.4744
 5846TIP3    H239098   2.136   5.925   3.101  1.3656  2.0522  0.7159
 5847TIP3   OH239099   3.235   1.881   3.339  0.0378 -0.4472 -0.2894
 5847TIP3    H139100   3.302   1.908   3.402 -1.1756 -1.8209  1.6945
 5847TIP3    H239101   3.263   1.794   3.310 -0.7963 -0.9839  0.4710
 5848TIP3   OH239102   4.887   1.950   8.308  0.1459  0.6468 -0.0848
 5848TIP3    H139103   4.827   1.887   8.347  4.6553 -2.0088  3.5710
 5848TIP3    H239104   4.943   1.897   8.250  1.8841  1.9294  0.3360
 5849TIP3   OH239105   3.050   2.231   3.092  0.1552 -0.6480 -0.7727
 5849TIP3    H139106   3.024   2.298   3.156  0.1739 -1.7429  0.4305
 5849TIP3    H239107   2.989   2.242   3.019 -3.2089 -2.4660  1.5082
 5850TIP3   OH239108   4.993   5.033   8.388 -0.0321  0.0672  0.1737
 5850TIP3    H139109   4.979   5.087   8.466 -0.6462 -0.0982  0.1794
 5850TIP3    H239110   4.918   4.974   8.385 -0.5433  0.7161 -1.0666
 5851TIP3   OH239111   5.159   2.839   2.500  0.4929  0.3216  0.2413
 5851TIP3    H139112   5.253   2.828   2.505  0.5424  0.0329 -1.0436
 5851TIP3    H239113   5.146   2.914   2.441 -0.0825  0.2580  0.2731
 5852TIP3   OH239114   0.590   4.490   7.892  0.4169 -0.0016  0.4147
 5852TIP3    H139115   0.525   4.551   7.928  0.6713 -0.0605  0.9741
 5852TIP3    H239116   0.674   4.531   7.911  0.5493  0.2241 -0.5787
 5853TIP3   OH239117   0.172   2.042   0.839  0.3428  0.0058  0.2565
 5853TIP3    H139118   0.085   2.079   0.824 -0.0757 -1.1520 -0.2899
 5853TIP3    H239119   0.174   2.021   0.933  0.5137  1.1859  0.5292
 5854TIP3   OH239120   5.547   1.281   0.043  0.0981  0.5327 -0.4831
 5854TIP3    H139121   5.581   1.330   0.117  0.7381  0.0813 -0.4713
 5854TIP3    H239122   5.604   1.302  -0.030  1.4833 -1.4967 -0.0739
 5855TIP3   OH239123   3.665   2.549   2.785  0.1198  0.4467 -0.0114
 5855TIP3    H139124   3.708   2.463   2.789  0.9560  0.8207 -0.7470
 5855TIP3    H239125   3.581   2.535   2.829  0.8129 -0.4072  1.1261
 5856TIP3   OH239126   1.639   3.378   2.231 -0.2957 -0.5844  0.0757
 5856TIP3    H139127   1.660   3.464   2.268 -2.3874 -0.0644  0.1490
 5856TIP3    H239128   1.724   3.335   2.222  0.5146 -0.4240  4.6104
 5857TIP3   OH239129   1.872   4.713   0.200  0.1765  0.4373 -0.0094
 5857TIP3    H139130   1.799   4.652   0.193 -0.5945  1.2303  0.9059
 5857TIP3    H239131   1.888   4.741   0.109 -0.5773  0.1653 -0.2347
 5858TIP3   OH239132   6.505   1.943   2.475  0.3113 -0.2803  0.9602
 5858TIP3    H139133   6.439   1.922   2.409  0.2527 -0.5571  1.1037
 5858TIP3    H239134   6.582   1.969   2.425 -0.0949  0.6492  0.7921
 5859TIP3   OH239135   0.416   0.146   1.626 -0.0958  0.7326 -0.7160
 5859TIP3    H139136   0.484   0.178   1.685  0.1559 -0.3641 -0.3817
 5859TIP3    H239137   0.464   0.090   1.564 -0.3769  1.7406 -1.8816
 5860TIP3   OH239138   2.275   2.938   2.008  0.2099  0.7572  0.4558
 5860TIP3    H139139   2.181   2.921   2.000  0.5704 -0.9244 -0.7390
 5860TIP3    H239140   2.285   2.977   2.095 -1.8376  3.0942 -0.2327
 5861TIP3   OH239141   0.738   0.120   3.847  0.0352 -0.1378  0.2396
 5861TIP3    H139142   0.709   0.033   3.872 -0.7921 -0.4082 -1.4664
 5861TIP3    H239143   0.832   0.111   3.831  0.1217 -0.4883  0.9140
 5862TIP3   OH239144   0.695   4.903   2.103  0.4738  0.5354  0.5138
 5862TIP3    H139145   0.695   4.939   2.014 -0.8778  1.3940  0.8333
 5862TIP3    H239146   0.672   4.977   2.159  0.3214 -0.2196  1.4797
 5863TIP3   OH239147   5.096   1.078   0.986 -0.2626  0.3948 -0.2071
 5863TIP3    H139148   5.066   0.987   0.986  2.3595 -0.6203  1.5063
 5863TIP3    H239149   5.038   1.122   1.048 -0.0456 -0.7723  0.8821
 5864TIP3   OH239150   6.120   0.584   7.697  0.3412 -0.4007  0.7096
 5864TIP3    H139151   6.089   0.672   7.678  0.2723 -0.4734  0.4850
 5864TIP3    H239152   6.173   0.560   7.621 -1.3834 -1.3759 -0.2342
 5865TIP3   OH239153   6.458   2.364   2.240 -0.6186  0.2304 -0.3759
 5865TIP3    H139154   6.544   2.326   2.259 -0.9637  0.2257  1.3910
 5865TIP3    H239155   6.467   2.457   2.263 -1.6070 -0.1606  1.9370
 5866TIP3   OH239156   5.426   4.735   7.653 -0.2351  0.1379 -0.1969
 5866TIP3    H139157   5.465   4.691   7.577 -2.3280 -1.0783 -0.6176
 5866TIP3    H239158   5.500   4.781   7.693  1.6152 -1.9346 -1.0194
 5867TIP3   OH239159   6.644   0.115   0.648 -0.1776  0.3299  0.6971
 5867TIP3    H139160   6.681   0.147   0.730  0.3980 -0.4740  0.7573
 5867TIP3    H239161   6.713   0.126   0.583 -0.4292  0.4262  0.4398
 5868TIP3   OH239162   4.931   0.880   8.246 -0.7811 -0.2229 -0.1685
 5868TIP3    H139163   5.017   0.850   8.276 -1.7171 -2.1751  0.7465
 5868TIP3    H239164   4.943   0.899   8.153  1.0766  1.4346  0.3424
 5869TIP3   OH239165   2.369   4.369   1.778  0.6553  0.0663 -0.3974
 5869TIP3    H139166   2.284   4.341   1.743  0.2227  1.3776 -0.4167
 5869TIP3    H239167   2.425   4.292   1.766 -0.1297 -0.3405 -1.7179
 5870TIP3   OH239168   6.361   1.370   7.990  0.1392 -0.1916  0.2271
 5870TIP3    H139169   6.311   1.452   7.993 -1.0533 -0.7531 -2.2050
 5870TIP3    H239170   6.407   1.373   7.907 -0.6410 -2.3662 -0.3340
 5871TIP3   OH239171   4.034   0.438   3.587 -0.3376  0.0569 -0.2949
 5871TIP3    H139172   4.114   0.490   3.576 -1.2032  1.3118 -0.9669
 5871TIP3    H239173   4.036   0.411   3.679  1.0508 -0.3002 -0.3946
 5872TIP3   OH239174   2.807   0.374   2.161  0.4627  1.0839  0.1045
 5872TIP3    H139175   2.788   0.408   2.249  2.2187  0.6867  0.6652
 5872TIP3    H239176   2.860   0.442   2.120 -0.4513  1.3163 -0.7135
 5873TIP3   OH239177   5.820   3.677   2.841 -0.2696 -0.3689 -0.0365
 5873TIP3    H139178   5.869   3.757   2.857 -1.4680  0.4468 -0.3755
 5873TIP3    H239179   5.769   3.695   2.762 -1.1519 -1.1870  0.3266
 5874TIP3   OH239180   4.906   0.840   0.325 -0.0776 -0.3083  0.5511
 5874TIP3    H139181   4.888   0.761   0.376  1.1345  0.3009  2.0046
 5874TIP3    H239182   4.895   0.911   0.388 -0.2979  0.6245 -0.5188
 5875TIP3   OH239183   2.720   5.025   2.297 -0.1570  0.5677 -0.5853
 5875TIP3    H139184   2.646   4.983   2.342  1.4282 -0.1303  1.4808
 5875TIP3    H239185   2.750   5.092   2.357  0.8487  0.8999 -1.4430
 5876TIP3   OH239186   4.975   1.427   3.190  0.1323 -0.0371  0.3888
 5876TIP3    H139187   5.059   1.471   3.206  0.0987  0.5167 -0.8639
 5876TIP3    H239188   4.957   1.380   3.272  0.8750  1.1287  1.2647
 5877TIP3   OH239189   4.143   1.333   1.352 -0.5344 -0.8592  0.0132
 5877TIP3    H139190   4.203   1.355   1.281  1.1913  0.6787  1.8282
 5877TIP3    H239191   4.195   1.281   1.413 -1.0498  0.3397  1.5441
 5878TIP3   OH239192   0.056   6.601   2.756  0.9115 -0.3114  0.1225
 5878TIP3    H139193   0.126   6.666   2.767 -0.4634  1.0269  1.5126
 5878TIP3    H239194   0.013   6.598   2.841  0.8421 -3.0387  0.0634
 5879TIP3   OH239195   1.834   2.059   1.793  0.8470 -0.4646 -0.0928
 5879TIP3    H139196   1.749   2.102   1.799  0.7333 -0.2708 -2.2470
 5879TIP3    H239197   1.898   2.130   1.796  0.8652 -0.4879  0.0965
 5880TIP3   OH239198   4.748   5.189   0.245  0.8166 -0.3580  0.1380
 5880TIP3    H139199   4.834   5.149   0.253  1.3525  0.1526 -2.1648
 5880TIP3    H239200   4.761   5.280   0.271  0.5395 -0.6905  1.4835
 5881TIP3   OH239201   4.768   4.110   1.596 -0.3843  0.4128 -0.4116
 5881TIP3    H139202   4.775   4.079   1.686  0.3991  1.9981  0.1144
 5881TIP3    H239203   4.725   4.195   1.604 -0.2258  0.6053 -1.5224
 5882TIP3   OH239204   1.838   4.371   8.095 -0.5254 -0.4790 -0.3617
 5882TIP3    H139205   1.919   4.335   8.058 -1.0315 -0.8907 -1.0974
 5882TIP3    H239206   1.857   4.464   8.108  0.5994 -0.8719  1.0002
 5883TIP3   OH239207   3.922   3.289   7.216  0.3199 -0.3854  0.2738
 5883TIP3    H139208   3.901   3.359   7.278  0.5415 -1.2110  1.3008
 5883TIP3    H239209   3.921   3.209   7.268  0.1806 -1.1462 -0.8633
 5884TIP3   OH239210   1.333   6.801   2.648 -0.2151  0.0464  0.5862
 5884TIP3    H139211   1.262   6.788   2.585  0.7672  0.7063 -0.7119
 5884TIP3    H239212   1.390   6.726   2.635 -0.4248 -0.2483  1.3102
 5885TIP3   OH239213   1.267   1.185   0.364  0.5446 -0.2653 -0.7549
 5885TIP3    H139214   1.306   1.201   0.451 -0.9640 -0.6008  0.0182
 5885TIP3    H239215   1.262   1.272   0.324 -1.5056  0.4046  0.7578
 5886TIP3   OH239216   3.607   2.100   2.026  0.0885  0.1398 -0.5308
 5886TIP3    H139217   3.687   2.137   1.989  0.7234 -1.1786 -0.5634
 5886TIP3    H239218   3.625   2.094   2.120  0.2051 -0.5138 -0.5847
 5887TIP3   OH239219   3.730   5.742   3.827  0.0855 -0.2272  0.2491
 5887TIP3    H139220   3.696   5.814   3.879 -1.0812 -1.3050  1.0392
 5887TIP3    H239221   3.698   5.759   3.739 -2.3406 -1.0396  0.9134
 5888TIP3   OH239222   4.256   4.706   8.234  0.0064  0.3507  0.2474
 5888TIP3    H139223   4.346   4.738   8.244  0.4142 -0.9377  0.8768
 5888TIP3    H239224   4.233   4.726   8.144  1.0394  0.4105 -0.0141
 5889TIP3   OH239225   1.003   5.853   0.572 -0.0916  0.0585  0.0940
 5889TIP3    H139226   1.018   5.759   0.578 -1.4822 -0.1797  0.2574
 5889TIP3    H239227   1.086   5.893   0.598  0.5933 -1.1138 -0.2185
 5890TIP3   OH239228   5.862   1.602   0.895  0.3113 -0.1406 -0.0236
 5890TIP3    H139229   5.856   1.694   0.923 -2.6448 -0.3245  0.2362
 5890TIP3    H239230   5.884   1.608   0.802  1.6660  0.7318  0.3099
 5891TIP3   OH239231   5.247   4.869   2.826  0.5465 -0.0975 -0.1468
 5891TIP3    H139232   5.263   4.775   2.823 -0.3814 -0.2787  0.0766
 5891TIP3    H239233   5.299   4.900   2.900 -0.7580 -0.8023  1.1195
 5892TIP3   OH239234   0.007   1.531   0.562 -0.1227 -0.0982 -0.4566
 5892TIP3    H139235   0.011   1.604   0.501 -2.7785 -0.2604 -0.9221
 5892TIP3    H239236  -0.009   1.571   0.647  0.0081 -0.0584 -0.4508
 5893TIP3   OH239237   6.472   3.200   1.442 -0.1107  0.2152 -0.1749
 5893TIP3    H139238   6.526   3.263   1.489 -0.5527 -0.0823  0.7646
 5893TIP3    H239239   6.392   3.194   1.494  0.4926 -2.2017  0.6249
 5894TIP3   OH239240   0.855   5.196   2.004  0.0682 -0.4375 -0.1339
 5894TIP3    H139241   0.905   5.136   2.060 -0.3773 -0.4931  0.2106
 5894TIP3    H239242   0.790   5.140   1.961 -0.1649 -0.2473 -0.0280
 5895TIP3   OH239243   0.781   5.509   1.495  0.1619  0.5653  0.0840
 5895TIP3    H139244   0.845   5.442   1.473  1.4875  2.0585 -0.8316
 5895TIP3    H239245   0.708   5.494   1.435 -0.0521 -0.6949  0.6354
 5896TIP3   OH239246   3.719   6.006   2.698  0.2162  0.0313  0.1491
 5896TIP3    H139247   3.627   5.988   2.717  0.0134 -0.7013 -1.3856
 5896TIP3    H239248   3.750   6.054   2.775 -1.4892  0.4618  0.6214
 5897TIP3   OH239249   0.289   4.936   2.946  0.5185  0.0461  0.3229
 5897TIP3    H139250   0.255   4.871   3.007  1.3579  0.6363  1.4595
 5897TIP3    H239251   0.378   4.953   2.976  0.8846  0.5216 -0.9439
 5898TIP3   OH239252   5.169   6.155   1.501  0.0842 -0.3721  0.0604
 5898TIP3    H139253   5.103   6.089   1.522  1.3778 -1.0819  2.3048
 5898TIP3    H239254   5.252   6.114   1.524  1.0810  1.4334 -0.0988
 5899TIP3   OH239255   3.963   5.431   1.703 -0.6537  0.0654 -0.1864
 5899TIP3    H139256   4.054   5.415   1.679 -0.4300 -0.7057  1.1525
 5899TIP3    H239257   3.960   5.526   1.719  0.3133 -0.1336  1.3495
 5900TIP3   OH239258   3.437   1.295   2.368  0.1400  0.0174  0.1941
 5900TIP3    H139259   3.356   1.295   2.420  0.2664  0.4477  0.4018
 5900TIP3    H239260   3.471   1.384   2.378  1.7810 -0.7211  1.8941
 5901TIP3   OH239261   1.687   3.536   3.105 -0.2726 -0.3799 -1.1138
 5901TIP3    H139262   1.635   3.527   3.025 -0.6379  0.2341 -0.9555
 5901TIP3    H239263   1.694   3.447   3.140 -3.5477 -0.2097  0.3041
 5902TIP3   OH239264   5.337   1.703   0.965  0.6108  0.5177  0.6970
 5902TIP3    H139265   5.425   1.718   0.933 -0.0973 -0.5177 -1.9932
 5902TIP3    H239266   5.343   1.619   1.011  0.9619  0.3088  0.2733
 5903TIP3   OH239267   4.818   6.796   2.935  0.2877  0.1479  0.3734
 5903TIP3    H139268   4.816   6.717   2.989  0.1813 -0.0284  0.1132
 5903TIP3    H239269   4.854   6.864   2.993 -0.3812  0.1032  0.8541
 5904TIP3   OH239270   3.039   5.515   2.346 -0.5071  0.1702 -0.2370
 5904TIP3    H139271   3.071   5.425   2.352  1.4014  0.6614 -1.7786
 5904TIP3    H239272   2.975   5.513   2.274  0.6112  0.2642 -1.2707
 5905TIP3   OH239273   2.590   1.256   0.172  0.1876 -0.1020  0.2300
 5905TIP3    H139274   2.547   1.279   0.090  0.8315 -0.2247 -0.1510
 5905TIP3    H239275   2.630   1.170   0.156  0.3418 -0.1177  0.6596
 5906TIP3   OH239276   2.100   6.756   8.618  0.2455 -0.1496  0.4373
 5906TIP3    H139277   2.148   6.763   8.536  0.6567 -1.9375  0.4834
 5906TIP3    H239278   2.008   6.749   8.591  0.3214 -0.1031  0.1619
 5907TIP3   OH239279   1.937   2.713   8.619  0.5779  0.2424  0.0057
 5907TIP3    H139280   1.942   2.658   8.540 -0.5605  1.3828 -0.9140
 5907TIP3    H239281   2.019   2.697   8.665  0.9515 -1.0245 -1.0268
 5908TIP3   OH239282   1.753   2.786   1.974  0.0366 -0.5293  0.2354
 5908TIP3    H139283   1.811   2.710   1.961 -1.0743 -1.1118 -1.6131
 5908TIP3    H239284   1.741   2.790   2.069 -1.1629 -3.7093  0.3392
 5909TIP3   OH239285   2.022   4.345   2.496 -0.3489 -0.1185  0.1825
 5909TIP3    H139286   2.083   4.302   2.556 -0.7610 -1.2625 -0.2010
 5909TIP3    H239287   1.940   4.297   2.506 -0.7497  0.4145 -0.4533
 5910TIP3   OH239288   6.540   4.136   2.266  0.3801  0.2994  0.1270
 5910TIP3    H139289   6.599   4.150   2.192 -1.8736  1.9059 -1.5046
 5910TIP3    H239290   6.472   4.078   2.232  0.1303 -0.2222  1.4465
 5911TIP3   OH239291   4.548   4.544   2.795 -0.5541 -0.1531 -0.4236
 5911TIP3    H139292   4.567   4.469   2.850  1.0380  0.8899  0.5407
 5911TIP3    H239293   4.475   4.516   2.740 -1.0129 -1.8556  0.9556
 5912TIP3   OH239294   1.552   0.055   0.149 -0.1397  0.5462  0.2559
 5912TIP3    H139295   1.598   0.139   0.154 -0.8962  0.9248  1.2414
 5912TIP3    H239296   1.496   0.053   0.227  0.4254 -1.2221  0.6746
 5913TIP3   OH239297   2.033   2.804   3.544  0.2804  0.0795  0.4779
 5913TIP3    H139298   2.044   2.709   3.536 -0.9525 -0.0700  0.4280
 5913TIP3    H239299   2.087   2.828   3.619  0.9870 -0.5799  0.1937
 5914TIP3   OH239300   5.435   1.568   1.843  0.3601  0.5012 -0.1358
 5914TIP3    H139301   5.451   1.502   1.776 -1.0563  0.1237 -0.1347
 5914TIP3    H239302   5.355   1.538   1.888 -2.2325  3.7155 -2.1202
 5915TIP3   OH239303   0.370   2.694   2.089  0.1780 -0.0905 -0.4915
 5915TIP3    H139304   0.306   2.690   2.160  1.0733  0.2475  0.3660
 5915TIP3    H239305   0.409   2.781   2.097  1.3158 -0.5856 -0.4695
 5916TIP3   OH239306   3.696   0.751   3.448 -0.2311 -0.5206  0.7015
 5916TIP3    H139307   3.684   0.730   3.355 -0.9106  1.1259  0.3905
 5916TIP3    H239308   3.607   0.751   3.484 -0.0076 -0.7289  1.2665
 5917TIP3   OH239309   5.840   3.292   8.184  0.9288 -0.5585 -0.0245
 5917TIP3    H139310   5.831   3.208   8.231  1.3030 -0.7444 -0.2877
 5917TIP3    H239311   5.749   3.317   8.165  0.7021 -0.0393  1.5648
 5918TIP3   OH239312   4.561   2.895   0.035  0.5863 -0.3614 -0.2936
 5918TIP3    H139313   4.558   2.863  -0.055 -0.5988 -2.1984  0.3404
 5918TIP3    H239314   4.650   2.927   0.046  0.1566  2.0761 -2.7812
 5919TIP3   OH239315   3.286   6.823   7.721 -0.3584  0.7404  0.1593
 5919TIP3    H139316   3.272   6.776   7.639 -0.9903  0.8344  0.2065
 5919TIP3    H239317   3.352   6.889   7.700  2.1278 -1.4283  0.5823
 5920TIP3   OH239318   4.448   3.371   3.161 -0.5515  0.5646  0.4026
 5920TIP3    H139319   4.522   3.432   3.168  0.2720 -0.3796  0.2389
 5920TIP3    H239320   4.395   3.389   3.238  0.0923  0.9692  0.7641
 5921TIP3   OH239321   1.573   0.598   0.137  0.0040 -0.6104 -0.3866
 5921TIP3    H139322   1.650   0.609   0.082  0.4114 -1.8046 -0.0786
 5921TIP3    H239323   1.562   0.683   0.181  0.2685  0.0207 -1.5195
 5922TIP3   OH239324   1.224   6.213   3.245 -0.1664  0.2462 -0.4321
 5922TIP3    H139325   1.147   6.157   3.234  1.1337 -1.4296 -1.5916
 5922TIP3    H239326   1.204   6.267   3.321 -1.2308 -2.3132  1.2402
 5923TIP3   OH239327   4.604   4.498   3.523 -0.2970 -0.0700  0.3080
 5923TIP3    H139328   4.685   4.549   3.527 -0.1507 -0.3096  0.4471
 5923TIP3    H239329   4.552   4.541   3.455  0.5031 -0.6939 -0.7476
 5924TIP3   OH239330   5.166   2.004   0.673  0.1791 -0.3498  0.0559
 5924TIP3    H139331   5.148   1.917   0.710 -1.2465  0.6111  1.7980
 5924TIP3    H239332   5.249   2.029   0.714 -0.0808 -0.3604  0.6029
 5925TIP3   OH239333   1.679   2.817   1.226  0.0153  0.1340 -0.1684
 5925TIP3    H139334   1.719   2.737   1.258  1.8150  1.6888  1.7343
 5925TIP3    H239335   1.618   2.844   1.295  0.2362  0.9434 -0.2727
 5926TIP3   OH239336   3.873   5.697   1.662  0.1580 -0.0952 -0.3075
 5926TIP3    H139337   3.927   5.730   1.734 -0.7135  0.8653 -0.0736
 5926TIP3    H239338   3.817   5.771   1.638  0.7025 -0.2644 -2.2644
 5927TIP3   OH239339   3.068   4.403   2.687  0.0260  0.0707  0.1681
 5927TIP3    H139340   3.056   4.437   2.776 -2.6772 -1.7817  0.6399
 5927TIP3    H239341   3.062   4.480   2.631 -3.4244  0.8560  1.3321
 5928TIP3   OH239342   6.145   1.668   0.435  0.5083 -0.0438 -0.2469
 5928TIP3    H139343   6.175   1.715   0.357  1.7429 -0.4029 -0.0063
 5928TIP3    H239344   6.179   1.718   0.509 -0.3007  0.0616  0.0715
 5929TIP3   OH239345   6.633   3.117   2.191 -0.1944 -0.6337  0.1539
 5929TIP3    H139346   6.677   3.197   2.221 -0.6266 -0.4898  0.4138
 5929TIP3    H239347   6.697   3.048   2.204  0.0298 -0.3953  0.3327
 5930TIP3   OH239348   5.236   1.343   1.624  0.1581  0.3307  0.2071
 5930TIP3    H139349   5.266   1.339   1.533  1.1674 -2.4434  0.5814
 5930TIP3    H239350   5.311   1.313   1.675 -0.6925  0.9730  1.9030
 5931TIP3   OH239351   3.161   6.363   0.673 -0.3595 -0.0838  0.3045
 5931TIP3    H139352   3.096   6.359   0.743 -0.7534 -1.9465 -0.0957
 5931TIP3    H239353   3.116   6.325   0.597  0.9704 -0.8088 -0.1568
 5932TIP3   OH239354   3.267   0.884   2.014  0.0703  0.4200 -0.0280
 5932TIP3    H139355   3.202   0.948   2.042 -0.4929 -0.4738  0.7580
 5932TIP3    H239356   3.350   0.918   2.046 -0.4443 -0.1352  2.0302
 5933TIP3   OH239357   2.048   2.668   2.743 -0.4783  0.1443  0.7095
 5933TIP3    H139358   1.985   2.597   2.729  0.1509 -0.7885  2.3160
 5933TIP3    H239359   1.996   2.738   2.785 -1.1773  0.8398 -1.1971
 5934TIP3   OH239360   6.288   1.404   1.587  0.2118  0.5059 -0.7093
 5934TIP3    H139361   6.291   1.489   1.631 -1.7037  0.4086 -0.3324
 5934TIP3    H239362   6.366   1.358   1.619 -0.7677  0.6516  2.2111
 5935TIP3   OH239363   0.265   5.437   3.959  0.2779 -0.3730 -0.3436
 5935TIP3    H139364   0.297   5.527   3.961  0.1120 -0.3165 -0.2076
 5935TIP3    H239365   0.337   5.385   3.997 -0.4751 -0.0334  1.6971
 5936TIP3   OH239366   5.598   5.200   3.014  0.7529  0.4241  0.5807
 5936TIP3    H139367   5.613   5.203   3.108 -1.1879  1.7020  0.9221
 5936TIP3    H239368   5.510   5.164   3.005  1.6301 -1.4892 -0.8919
 5937TIP3   OH239369   5.216   5.483   7.810 -0.3923 -0.1249  0.2238
 5937TIP3    H139370   5.171   5.555   7.854  3.3154  1.4946  1.7991
 5937TIP3    H239371   5.201   5.499   7.717  0.9343  3.3120  0.4475
 5938TIP3   OH239372   4.024   6.054   2.053  0.1016 -0.4404 -0.3623
 5938TIP3    H139373   3.966   5.994   2.101  0.6109 -0.5550  0.1149
 5938TIP3    H239374   4.034   6.129   2.111 -0.8850  0.3228 -1.1402
 5939TIP3   OH239375   6.235   0.493   2.921 -0.0570 -0.0032 -0.1728
 5939TIP3    H139376   6.217   0.451   3.005 -1.1758 -0.6994 -0.7355
 5939TIP3    H239377   6.248   0.420   2.860 -0.5454  0.4630 -0.8582
 5940TIP3   OH239378   4.912   4.441   2.779  1.4196  0.0600  0.5572
 5940TIP3    H139379   4.905   4.346   2.766  2.1300  0.0726  0.0697
 5940TIP3    H239380   4.837   4.462   2.835  0.4125 -0.5570 -0.5182
 5941TIP3   OH239381   0.668   3.232   2.935  0.3283 -0.1757 -0.4244
 5941TIP3    H139382   0.670   3.145   2.895 -2.0574 -0.5803  0.1770
 5941TIP3    H239383   0.607   3.224   3.008  0.4379  1.8806 -0.0299
 5942TIP3   OH239384   6.214   2.041   0.792  0.3177  0.0743 -0.1853
 5942TIP3    H139385   6.261   1.984   0.852 -2.4368 -1.6581  0.4971
 5942TIP3    H239386   6.186   2.115   0.845 -2.2575 -1.5320  0.9177
 5943TIP3   OH239387   2.918   0.215   8.447 -0.0038  0.0744 -0.1404
 5943TIP3    H139388   2.845   0.194   8.505 -1.2355  3.2885 -0.3249
 5943TIP3    H239389   2.880   0.209   8.359 -0.1376  1.8919 -0.2332
 5944TIP3   OH239390   6.136   5.938   8.514  0.3242 -0.3352 -0.4354
 5944TIP3    H139391   6.093   5.909   8.433  1.1505 -0.7705 -0.7300
 5944TIP3    H239392   6.209   5.992   8.483  0.9787 -0.9626 -0.0039
 5945TIP3   OH239393   3.666   6.493   8.226  0.0039 -0.1446  0.0563
 5945TIP3    H139394   3.706   6.461   8.146  0.7067  1.9489 -0.4941
 5945TIP3    H239395   3.728   6.558   8.260 -0.6123 -0.4450  1.9191
 5946TIP3   OH239396   4.750   0.214   3.183 -0.1784 -0.1140 -0.6567
 5946TIP3    H139397   4.795   0.278   3.238  1.9829 -1.0989 -1.1429
 5946TIP3    H239398   4.821   0.160   3.147 -1.8171 -2.1129 -1.0914
 5947TIP3   OH239399   4.204   5.630   1.255  0.3800  0.5591 -0.1152
 5947TIP3    H139400   4.214   5.538   1.278  1.0549  0.2764 -1.4572
 5947TIP3    H239401   4.157   5.669   1.330  0.9306 -0.6558  0.8884
 5948TIP3   OH239402   4.927   4.220   8.290  0.3920  0.0146 -0.0431
 5948TIP3    H139403   4.838   4.186   8.284  0.7558 -0.8286 -0.9977
 5948TIP3    H239404   4.916   4.310   8.321 -0.8172  0.0877 -0.6137
 5949TIP3   OH239405   2.620   6.229   2.832 -0.2465  0.0615  0.2323
 5949TIP3    H139406   2.602   6.222   2.926 -1.3957 -0.0437  0.0160
 5949TIP3    H239407   2.677   6.154   2.813 -0.8764 -0.5366  0.6496
 5950TIP3   OH239408   4.457   6.850   2.843  0.1551  0.2326 -0.3723
 5950TIP3    H139409   4.440   6.766   2.801  0.3982  0.1932 -0.3951
 5950TIP3    H239410   4.546   6.841   2.877  0.8675  1.1232 -1.9162
 5951TIP3   OH239411   4.888   1.759   0.711  0.5274 -0.3250  0.2223
 5951TIP3    H139412   4.959   1.695   0.719  0.2894 -0.7428 -0.9218
 5951TIP3    H239413   4.857   1.750   0.621 -1.2465 -0.4307  0.8102
 5952TIP3   OH239414   1.114   3.176   0.569 -0.4937  0.0449  0.4507
 5952TIP3    H139415   1.036   3.195   0.621 -0.3163  0.0519  0.7189
 5952TIP3    H239416   1.115   3.243   0.501 -0.9923 -0.2564  0.1412
 5953TIP3   OH239417   1.288   5.905   1.170  0.6990  0.2930 -0.0452
 5953TIP3    H139418   1.212   5.897   1.112 -0.3617 -0.8251  1.4289
 5953TIP3    H239419   1.284   5.996   1.202  0.5781  0.5402 -0.7439
 5954TIP3   OH239420   1.622   1.688   3.463 -0.2824  0.0358  0.0464
 5954TIP3    H139421   1.709   1.648   3.465 -0.7399 -1.0408 -1.0836
 5954TIP3    H239422   1.583   1.663   3.547  0.6181  0.8705  0.7482
 5955TIP3   OH239423   2.069   0.136   8.422  0.1659  0.1845 -0.0554
 5955TIP3    H139424   2.020   0.127   8.505  0.4512  0.8499  0.1905
 5955TIP3    H239425   2.085   0.046   8.395 -0.3070 -0.0467  0.3930
 5956TIP3   OH239426   2.907   1.851   0.741  0.0597 -0.1347 -0.3128
 5956TIP3    H139427   2.827   1.894   0.770  0.6671  0.9301 -0.1672
 5956TIP3    H239428   2.956   1.919   0.697 -0.0306 -1.2736 -2.3065
 5957TIP3   OH239429   0.536   5.143   1.130 -0.0228 -0.0304 -0.3651
 5957TIP3    H139430   0.548   5.119   1.222  3.3863 -1.8701 -1.1403
 5957TIP3    H239431   0.492   5.067   1.092  1.1436 -0.5252 -0.7606
 5958TIP3   OH239432   4.416   5.366   1.300  0.0544  0.2472  0.1810
 5958TIP3    H139433   4.413   5.434   1.367  0.6472  0.8789 -0.4277
 5958TIP3    H239434   4.490   5.311   1.325  0.4749  0.6680 -0.1294
 5959TIP3   OH239435   3.262   0.042   8.428  0.1489  0.2655  1.0355
 5959TIP3    H139436   3.255   0.137   8.420  0.7196  0.1894 -0.6797
 5959TIP3    H239437   3.356   0.026   8.438  0.2287 -0.1989 -0.3220
 5960TIP3   OH239438   3.486   0.565   7.996 -0.3448 -0.4889  0.4885
 5960TIP3    H139439   3.538   0.630   7.948 -0.5007 -1.0329 -0.4448
 5960TIP3    H239440   3.548   0.496   8.019 -0.6093 -1.0558 -0.4739
 5961TIP3   OH239441   3.581   5.059   8.037  0.0946  0.6073  0.8232
 5961TIP3    H139442   3.570   4.974   7.994  1.1437 -0.2546  2.1987
 5961TIP3    H239443   3.515   5.059   8.107  0.1646  0.8807  0.8916
 5962TIP3   OH239444   0.188   3.378   0.710 -0.3836 -0.3769  0.1465
 5962TIP3    H139445   0.142   3.408   0.632 -0.9420 -1.2497  0.1284
 5962TIP3    H239446   0.145   3.296   0.734  0.1774 -0.4346  1.0179
 5963TIP3   OH239447   0.088   5.940   2.699  0.2841  0.4745 -0.0798
 5963TIP3    H139448   0.149   6.006   2.665 -0.4239  2.2050  1.7367
 5963TIP3    H239449   0.039   5.987   2.767  0.7735 -2.3523  2.4176
 5964TIP3   OH239450   3.054   0.140   7.633  0.0742 -0.0407  0.1930
 5964TIP3    H139451   3.134   0.159   7.682  0.8254 -0.4182 -0.8530
 5964TIP3    H239452   3.001   0.086   7.693 -0.4102  2.0437  1.7375
 5965TIP3   OH239453   1.566   1.891   0.813 -0.2574  0.1570 -0.5635
 5965TIP3    H139454   1.611   1.908   0.896  0.2286  0.9094 -0.9707
 5965TIP3    H239455   1.473   1.907   0.832 -0.1517  0.2983 -0.1586
 5966TIP3   OH239456   0.110   1.877   0.595  0.4072 -0.0674  0.6646
 5966TIP3    H139457   0.123   1.878   0.690  2.9792 -0.8674  0.3731
 5966TIP3    H239458   0.171   1.942   0.561  0.5671 -0.8081 -0.5407
 5967TIP3   OH239459   0.390   6.360   0.059 -0.1634  0.1244  0.0895
 5967TIP3    H139460   0.299   6.365   0.088 -0.2325 -0.3913 -0.0302
 5967TIP3    H239461   0.434   6.432   0.104 -0.4242 -0.2124  0.8951
 5968TIP3   OH239462   5.883   3.041   8.296  0.4626 -0.4081  0.2899
 5968TIP3    H139463   5.956   2.990   8.261  1.3879 -0.2282  1.8384
 5968TIP3    H239464   5.893   3.035   8.391 -0.1052  1.6371  0.5354
 5969TIP3   OH239465   5.273   4.845   0.434  0.3582 -0.4044  0.7685
 5969TIP3    H139466   5.348   4.841   0.492  1.8322  0.0936 -0.9884
 5969TIP3    H239467   5.280   4.931   0.391 -1.9755  0.2283  1.4759
 5970TIP3   OH239468   5.779   0.238   1.754 -0.3103 -0.0641  0.0906
 5970TIP3    H139469   5.773   0.229   1.849 -0.3363 -0.0806  0.0874
 5970TIP3    H239470   5.706   0.185   1.720  0.1298 -0.6372  0.0337
 5971TIP3   OH239471   4.679   6.666   2.067 -0.7626 -0.4964 -0.0158
 5971TIP3    H139472   4.604   6.714   2.031  0.6237  3.2298  1.5602
 5971TIP3    H239473   4.651   6.641   2.155  0.3469  2.9880  1.5221
 5972TIP3   OH239474   1.631   1.871   8.138  0.2673 -0.3081  0.1097
 5972TIP3    H139475   1.538   1.849   8.131  0.5725 -1.3124 -1.0443
 5972TIP3    H239476   1.676   1.803   8.089  1.3891  1.9315 -2.2291
 5973TIP3   OH239477   5.146   1.034   1.311 -0.3377 -0.2243  0.0960
 5973TIP3    H139478   5.190   0.963   1.263 -0.7639 -0.6865  0.3875
 5973TIP3    H239479   5.091   0.990   1.374  1.5635  0.3659  2.3006
 5974TIP3   OH239480   3.228   1.151   0.873  0.0041 -0.2182  0.0470
 5974TIP3    H139481   3.203   1.117   0.958 -0.0415 -0.1549  0.0586
 5974TIP3    H239482   3.276   1.231   0.892  0.4736 -0.4945  0.0405
 5975TIP3   OH239483   0.967   6.170   1.663  0.2194  0.4981  0.4727
 5975TIP3    H139484   0.904   6.221   1.714 -1.7907 -0.1760 -1.1900
 5975TIP3    H239485   0.915   6.101   1.623  2.4901 -1.6571  0.9953
 5976TIP3   OH239486   0.065   0.421   1.861  0.7657 -0.3893 -0.0331
 5976TIP3    H139487   0.103   0.507   1.881 -1.2003  0.3820  0.7591
 5976TIP3    H239488   0.051   0.381   1.947  1.1862 -1.2899 -0.3768
 5977TIP3   OH239489   5.523   4.288   8.635  0.1789 -0.2416  0.5202
 5977TIP3    H139490   5.592   4.340   8.594  1.6544 -1.3994  1.4325
 5977TIP3    H239491   5.519   4.321   8.725  0.3597 -0.9504  0.7916
 5978TIP3   OH239492   5.879   4.449   3.476  0.1810  0.2330  0.0510
 5978TIP3    H139493   5.911   4.365   3.508  0.0298 -0.0496 -0.5262
 5978TIP3    H239494   5.944   4.513   3.505  0.8711 -0.2358 -0.4608
 5979TIP3   OH239495   1.125   0.570   8.010 -0.3188  0.1549 -0.6017
 5979TIP3    H139496   1.186   0.505   8.044 -1.8110 -1.3935 -0.7512
 5979TIP3    H239497   1.175   0.652   8.009  0.7286 -0.3011  2.4628
 5980TIP3   OH239498   6.116   2.689   0.837 -0.4999 -0.0787 -0.2626
 5980TIP3    H139499   6.174   2.703   0.762  1.5580  0.6164  1.3721
 5980TIP3    H239500   6.068   2.772   0.845  1.9029  1.2742  1.2743
 5981TIP3   OH239501   3.225   2.283   2.884  0.5194 -0.2694  0.3945
 5981TIP3    H139502   3.259   2.360   2.929 -1.6274  1.1609 -0.3114
 5981TIP3    H239503   3.214   2.218   2.954 -1.2528  1.3807  1.7579
 5982TIP3   OH239504   4.442   2.515   0.326 -0.0426 -0.7784 -0.6329
 5982TIP3    H139505   4.414   2.539   0.237 -0.7105  2.0643  0.2334
 5982TIP3    H239506   4.469   2.598   0.366 -0.5071 -1.8272  2.0928
 5983TIP3   OH239507   4.515   5.377   0.650  0.1204  0.3030  0.0652
 5983TIP3    H139508   4.538   5.326   0.728 -1.3244 -0.9691 -0.2971
 5983TIP3    H239509   4.589   5.437   0.638  2.9439 -2.9970 -0.6203
 5984TIP3   OH239510   1.954   0.377   1.174  0.5251  0.2830 -0.7714
 5984TIP3    H139511   2.042   0.409   1.193  0.0863  0.2250  1.7024
 5984TIP3    H239512   1.897   0.428   1.233 -1.3857  1.6918 -3.6233
 5985TIP3   OH239513   5.348   0.078   8.107  0.1071  0.2400  0.1358
 5985TIP3    H139514   5.310   0.127   8.180 -1.0537 -0.8715  0.3126
 5985TIP3    H239515   5.285   0.086   8.036  0.1771 -0.5063 -0.0205
 5986TIP3   OH239516   0.930   1.328   3.758 -0.0572  0.2617 -0.1145
 5986TIP3    H139517   0.848   1.310   3.713 -0.3652  0.3216  0.4155
 5986TIP3    H239518   0.913   1.406   3.811 -0.4412 -1.1237  1.9222
 5987TIP3   OH239519   0.349   1.316   1.237  0.2690 -0.4264  0.0256
 5987TIP3    H139520   0.431   1.318   1.285  0.1855 -0.5166  0.1735
 5987TIP3    H239521   0.369   1.269   1.156 -0.2079 -2.6846  1.1477
 5988TIP3   OH239522   2.143   4.363   0.100 -0.3113 -0.9085  0.0883
 5988TIP3    H139523   2.119   4.304   0.172 -0.4608  0.1376  0.9277
 5988TIP3    H239524   2.064   4.371   0.048  0.0029 -2.2493 -0.6355
 5989TIP3   OH239525   1.152   3.599   2.476 -0.6744  0.2101 -0.2373
 5989TIP3    H139526   1.062   3.581   2.503 -0.1063  1.6661  3.1679
 5989TIP3    H239527   1.145   3.674   2.418 -1.6095  1.6599  1.6333
 5990TIP3   OH239528   6.047   6.190   0.900  0.0398  0.0673  0.3036
 5990TIP3    H139529   6.123   6.133   0.911 -1.4229 -1.8034  1.6779
 5990TIP3    H239530   6.016   6.173   0.811 -0.3726 -1.3931  0.6929
 5991TIP3   OH239531   0.653   2.419   2.541  0.4545 -0.5457 -0.3883
 5991TIP3    H139532   0.731   2.459   2.502 -0.4296 -0.0266 -1.6910
 5991TIP3    H239533   0.594   2.492   2.558 -0.8375 -1.1407 -2.0059
 5992TIP3   OH239534   0.573   3.782   3.405  0.4939 -0.3635 -0.1958
 5992TIP3    H139535   0.605   3.783   3.495 -1.4425  0.6832  0.5393
 5992TIP3    H239536   0.525   3.700   3.397 -0.3784  0.1032  0.1437
 5993TIP3   OH239537   3.521   5.349   8.652  0.0155 -0.1090  0.2961
 5993TIP3    H139538   3.532   5.272   8.709  2.0265 -0.9823 -1.1689
 5993TIP3    H239539   3.605   5.394   8.657 -0.9479  1.7428  0.6772
 5994TIP3   OH239540   0.827   2.243   2.089  0.3861 -0.4536 -0.0990
 5994TIP3    H139541   0.786   2.213   2.170 -0.8875 -0.2490 -0.6439
 5994TIP3    H239542   0.870   2.165   2.053 -1.5758 -1.3208 -0.7158
 5995TIP3   OH239543   5.767   4.772   2.360 -0.1693 -0.1564  0.0816
 5995TIP3    H139544   5.729   4.713   2.295  0.1409  0.5727 -0.7841
 5995TIP3    H239545   5.724   4.856   2.345  1.1482  0.4647 -0.3448
 5996TIP3   OH239546   1.614   2.353   3.104 -0.1885 -0.0039 -0.7473
 5996TIP3    H139547   1.685   2.351   3.040  0.1404  1.4237 -0.4507
 5996TIP3    H239548   1.610   2.263   3.138  0.0046 -0.6484 -2.3277
 5997TIP3   OH239549   1.364   0.114   1.002 -0.5139  0.3799 -0.2495
 5997TIP3    H139550   1.405   0.106   1.088  0.6124  0.1338 -0.7936
 5997TIP3    H239551   1.376   0.206   0.979  0.8467  0.0657 -0.9205
 5998TIP3   OH239552   3.845   6.237   0.279  0.3096  0.2260 -0.5135
 5998TIP3    H139553   3.849   6.314   0.222  1.0249  0.1000 -0.6434
 5998TIP3    H239554   3.756   6.204   0.268  0.2247  0.6096 -1.0245
 5999TIP3   OH239555   5.332   5.069   0.903  0.0957 -0.2497  0.1203
 5999TIP3    H139556   5.395   5.009   0.862  0.2912  0.4158 -0.5758
 5999TIP3    H239557   5.354   5.154   0.866 -2.0200 -0.1770 -1.0879
 6000TIP3   OH239558   5.111   0.743   0.976 -0.3642  0.5300  0.4075
 6000TIP3    H139559   5.110   0.651   0.951 -1.8230  0.7121 -0.3211
 6000TIP3    H239560   5.131   0.743   1.069 -2.2120 -0.6737  0.8499
 6001TIP3   OH239561   2.746   6.802   7.452  0.3037  0.2348  0.0065
 6001TIP3    H139562   2.729   6.882   7.502  0.3910  1.0754 -1.2641
 6001TIP3    H239563   2.817   6.826   7.392  0.4026 -0.8328 -0.3294
 6002TIP3   OH239564   6.755   4.742   2.719 -0.3374 -0.1987 -0.7979
 6002TIP3    H139565   6.838   4.699   2.697 -0.2963 -1.2016  1.0752
 6002TIP3    H239566   6.717   4.686   2.787 -0.4584  2.5203  1.5681
 6003TIP3   OH239567   1.137   4.945   3.751  0.2484  0.1791 -0.4160
 6003TIP3    H139568   1.140   5.025   3.697 -0.4248 -1.1308 -2.4902
 6003TIP3    H239569   1.166   4.974   3.838  1.7401  2.3236 -1.5403
 6004TIP3   OH239570   2.093   0.847   8.386  0.5698 -0.2956 -0.3184
 6004TIP3    H139571   2.165   0.857   8.449  0.0755 -0.2118  0.2385
 6004TIP3    H239572   2.077   0.753   8.384 -1.2965 -0.1128  1.8577
 6005TIP3   OH239573   1.156   0.880   1.167  0.1814  0.8098 -0.2357
 6005TIP3    H139574   1.153   0.785   1.155  1.1834  0.5773  1.0933
 6005TIP3    H239575   1.148   0.916   1.079  0.6284 -0.5307 -0.8506
 6006TIP3   OH239576   4.163   6.765   2.566  0.4261  0.3430  0.7825
 6006TIP3    H139577   4.161   6.850   2.521  0.2385 -0.0617  0.0098
 6006TIP3    H239578   4.145   6.786   2.658  0.9181  1.1991  0.6935
 6007TIP3   OH239579   6.791   1.874   0.907 -0.0444  0.0760 -0.4377
 6007TIP3    H139580   6.731   1.800   0.901  0.1882 -0.3284  1.6223
 6007TIP3    H239581   6.878   1.836   0.894 -0.0588  0.3305 -1.3511
 6008TIP3   OH239582   6.655   0.570   2.152 -0.1185  0.6374  0.5250
 6008TIP3    H139583   6.566   0.577   2.187 -0.5671  0.3870 -0.5269
 6008TIP3    H239584   6.707   0.631   2.205 -0.4514 -0.7377  2.5423
 6009TIP3   OH239585   4.320   5.100   8.254  0.2213  0.2356  0.0270
 6009TIP3    H139586   4.246   5.065   8.303 -1.5825  0.1364 -2.5876
 6009TIP3    H239587   4.293   5.188   8.228  1.4747  0.6065 -0.1160
 6010TIP3   OH239588   0.682   2.607   3.429 -0.1212 -0.0186  0.0703
 6010TIP3    H139589   0.753   2.617   3.366 -0.6541  0.1786 -0.5119
 6010TIP3    H239590   0.713   2.539   3.489  2.2367  2.7032  2.2254
 6011TIP3   OH239591   4.079   5.732   1.448  0.3821 -0.2259  0.3816
 6011TIP3    H139592   4.085   5.823   1.479 -0.4070 -0.2067  0.4939
 6011TIP3    H239593   4.022   5.689   1.512 -0.8421 -0.3213 -0.7489
 6012TIP3   OH239594   2.585   4.560   3.124  0.5976 -0.8216  0.1258
 6012TIP3    H139595   2.564   4.467   3.116  1.4164 -1.1233  1.1515
 6012TIP3    H239596   2.551   4.585   3.210  1.8645 -0.6183  0.5940
 6013TIP3   OH239597   3.927   1.674   0.246 -0.4326 -0.7362 -0.5078
 6013TIP3    H139598   3.997   1.652   0.185 -0.3210  1.0918 -1.0769
 6013TIP3    H239599   3.866   1.728   0.195 -0.3564  0.8179  0.9578
 6014TIP3   OH239600   4.741   6.593   8.105  0.6344 -0.1864  0.6832
 6014TIP3    H139601   4.665   6.603   8.048  0.9079 -1.3287  0.0836
 6014TIP3    H239602   4.709   6.617   8.192  0.4314  2.4590 -0.0275
 6015TIP3   OH239603   1.737   5.161   0.714 -0.1918 -0.4112  0.4282
 6015TIP3    H139604   1.800   5.162   0.643 -0.0126  0.5173  0.5813
 6015TIP3    H239605   1.788   5.182   0.792 -0.0979 -2.9386  1.1217
 6016TIP3   OH239606   0.909   5.883   2.852  0.5510  0.2764 -0.5623
 6016TIP3    H139607   0.927   5.824   2.779 -1.3363 -0.2716 -0.6449
 6016TIP3    H239608   0.843   5.944   2.818  0.7564  0.9619  0.2370
 6017TIP3   OH239609   2.213   4.613   3.292  0.6841  0.4878  0.0976
 6017TIP3    H139610   2.156   4.665   3.348  0.0905  0.8462 -0.8143
 6017TIP3    H239611   2.243   4.542   3.348 -0.5816  0.3470  0.6436
 6018TIP3   OH239612   0.793   4.246   8.540 -0.1424 -0.6879 -0.0728
 6018TIP3    H139613   0.792   4.151   8.547  0.3217 -0.6531  0.6201
 6018TIP3    H239614   0.880   4.267   8.506 -0.3266 -0.5239 -0.4457
 6019TIP3   OH239615   3.153   1.306   8.422 -0.1259  0.3392  0.0618
 6019TIP3    H139616   3.235   1.353   8.438  0.6497 -1.3205  1.3509
 6019TIP3    H239617   3.097   1.330   8.496 -1.2081  2.1746 -1.2773
 6020TIP3   OH239618   1.602   1.807   3.104  0.2824 -0.7366 -1.0138
 6020TIP3    H139619   1.571   1.809   3.014  0.7778 -0.3166 -1.1716
 6020TIP3    H239620   1.529   1.767   3.153 -0.1767 -0.5173 -1.5151
 6021TIP3   OH239621   3.693   2.034   7.908  0.8590 -0.3517  0.4228
 6021TIP3    H139622   3.709   2.128   7.908  0.0155 -0.1884  1.8034
 6021TIP3    H239623   3.777   1.996   7.934  1.0667  0.0409  0.3359
 6022TIP3   OH239624   2.063   3.426   1.298 -0.2595  0.3562  0.1158
 6022TIP3    H139625   2.069   3.518   1.323 -1.9398  1.0068 -1.6208
 6022TIP3    H239626   2.102   3.423   1.210  0.9542 -0.8744  0.6651
 6023TIP3   OH239627   1.850   2.845   2.500 -0.6215 -0.4875  0.4843
 6023TIP3    H139628   1.778   2.813   2.554 -1.3615  0.6688  0.2177
 6023TIP3    H239629   1.912   2.882   2.563 -1.4629  0.8202  0.5783
 6024TIP3   OH239630   1.981   2.422   0.172  0.0404 -0.0990  0.1827
 6024TIP3    H139631   1.928   2.455   0.245 -0.9904 -0.4683 -0.3754
 6024TIP3    H239632   1.941   2.461   0.094  0.0044 -1.1193 -0.3255
 6025TIP3   OH239633   6.406   6.436   8.031 -0.1965  0.1850  0.0392
 6025TIP3    H139634   6.444   6.452   7.945 -1.5427  0.2862 -0.5590
 6025TIP3    H239635   6.389   6.342   8.033  3.3802 -0.6163  1.7468
 6026TIP3   OH239636   2.749   5.843   1.656  0.5808 -0.4491 -0.2553
 6026TIP3    H139637   2.800   5.924   1.644  0.4874 -0.3125  0.2481
 6026TIP3    H239638   2.773   5.789   1.582  0.0854  0.3340 -1.0074
 6027TIP3   OH239639   1.981   6.458   0.154  0.3988  0.6805  0.3782
 6027TIP3    H139640   1.980   6.433   0.061 -0.5463  0.6588  0.3919
 6027TIP3    H239641   2.031   6.540   0.155 -3.4049  3.3087 -0.8786
 6028TIP3   OH239642   5.475   4.235   1.959 -0.1773 -0.8845  0.1576
 6028TIP3    H139643   5.441   4.148   1.978 -0.1504 -0.7671  0.7874
 6028TIP3    H239644   5.450   4.287   2.036 -0.1712 -0.3471 -0.2014
 6029TIP3   OH239645   5.152   3.750   3.555 -0.5931  0.1497 -0.4003
 6029TIP3    H139646   5.151   3.753   3.650 -0.4557  0.0926 -0.3963
 6029TIP3    H239647   5.177   3.839   3.528  1.6736 -0.4039 -0.3238
 6030TIP3   OH239648   4.684   3.275   8.356 -0.6471 -0.9328  0.3847
 6030TIP3    H139649   4.762   3.272   8.410 -0.5997  2.6184  0.7448
 6030TIP3    H239650   4.717   3.274   8.266  0.3438  3.6636  0.4498
 6031TIP3   OH239651   2.873   1.953   2.269 -0.4448  0.0079 -0.3033
 6031TIP3    H139652   2.886   1.858   2.271  2.4525  0.2660  2.7468
 6031TIP3    H239653   2.791   1.967   2.317  0.2891 -0.9130  1.2859
 6032TIP3   OH239654   1.662   6.195   2.603  0.8763  0.7057 -0.6020
 6032TIP3    H139655   1.752   6.175   2.628  0.4133 -0.8118 -0.0593
 6032TIP3    H239656   1.615   6.202   2.687  0.1443 -0.3458 -0.8996
 6033TIP3   OH239657   4.936   4.833   0.625  0.5934 -0.2649  0.1784
 6033TIP3    H139658   4.986   4.912   0.648  1.5500 -0.3089 -1.5696
 6033TIP3    H239659   4.851   4.866   0.596  0.6683  0.0447  0.3038
 6034TIP3   OH239660   5.091   5.687   0.334  0.2380  0.0563 -0.4077
 6034TIP3    H139661   5.022   5.640   0.381  1.0486 -1.3360 -0.5643
 6034TIP3    H239662   5.043   5.748   0.277 -0.8633 -0.7383 -0.3709
 6035TIP3   OH239663   3.547   2.737   0.489  0.6626 -0.0352 -0.1769
 6035TIP3    H139664   3.521   2.826   0.466 -0.8995  0.8445  4.1460
 6035TIP3    H239665   3.482   2.681   0.446  1.1945  0.8474 -2.2778
 6036TIP3   OH239666   3.973   1.201   0.544 -0.0229  0.4480 -0.2470
 6036TIP3    H139667   3.952   1.114   0.579 -0.5751  0.0706 -1.4553
 6036TIP3    H239668   4.059   1.190   0.503 -0.3935  0.2683 -1.0044
 6037TIP3   OH239669   6.546   0.462   3.094 -0.1317  0.7770 -0.5751
 6037TIP3    H139670   6.534   0.521   3.020  0.0922  2.8551  0.9662
 6037TIP3    H239671   6.578   0.518   3.165  0.5040 -1.2766  0.8664
 6038TIP3   OH239672   3.655   0.304   2.278 -0.3831  0.7389  0.3301
 6038TIP3    H139673   3.586   0.299   2.344  0.4155 -2.2912  1.1060
 6038TIP3    H239674   3.642   0.226   2.224  0.1779  2.1319 -1.9121
 6039TIP3   OH239675   5.959   1.041   3.664  0.2889 -0.7419  0.0856
 6039TIP3    H139676   6.039   1.000   3.632  0.0588 -1.0694 -0.0800
 6039TIP3    H239677   5.989   1.110   3.722  0.7355  0.2749 -1.2999
 6040TIP3   OH239678   4.217   2.077   1.113  0.1127 -0.0188  0.2516
 6040TIP3    H139679   4.274   2.148   1.082  0.2701  1.1018  2.8283
 6040TIP3    H239680   4.145   2.123   1.157 -0.2594 -1.4732  1.1994
 6041TIP3   OH239681   5.048   3.239   2.383  0.2560  0.5398  0.6307
 6041TIP3    H139682   5.109   3.201   2.320 -1.2461  0.4585 -0.8212
 6041TIP3    H239683   5.086   3.218   2.469  1.9173 -0.0478 -0.2125
 6042TIP3   OH239684   4.552   4.869   2.385  0.4704 -0.5601 -0.2168
 6042TIP3    H139685   4.598   4.826   2.313  2.2608  1.6319 -0.4794
 6042TIP3    H239686   4.616   4.874   2.456  0.0229  0.7566  0.1365
 6043TIP3   OH239687   6.501   0.573   8.587 -0.5475  0.1403  0.7127
 6043TIP3    H139688   6.597   0.562   8.585 -0.5835 -0.2020 -1.0426
 6043TIP3    H239689   6.486   0.658   8.547 -1.0287 -0.4585 -0.4239
 6044TIP3   OH239690   0.080   0.118   2.021 -0.6982  0.3420 -0.1385
 6044TIP3    H139691   0.073   0.193   2.081 -0.9950  1.1060 -1.1070
 6044TIP3    H239692   0.166   0.126   1.982  0.1111 -1.0144  1.2589
 6045TIP3   OH239693   4.027   5.707   0.482 -0.7878  0.7319 -0.3208
 6045TIP3    H139694   3.996   5.719   0.392 -0.0105 -1.7286 -1.0181
 6045TIP3    H239695   4.122   5.696   0.473 -0.7752 -0.1334  0.6907
 6046TIP3   OH239696   5.171   6.810   1.599  0.3805  0.3935  0.1450
 6046TIP3    H139697   5.165   6.715   1.600 -0.9421  0.3856  3.7068
 6046TIP3    H239698   5.126   6.836   1.518 -3.8514 -1.9092  1.4590
 6047TIP3   OH239699   2.076   3.737   1.289 -0.0478  0.2835 -0.6709
 6047TIP3    H139700   2.105   3.827   1.300 -1.7650  0.7158  0.7217
 6047TIP3    H239701   1.985   3.737   1.316 -0.6590 -1.5091 -2.4389
 6048TIP3   OH239702   0.150   5.782   0.963 -0.6673 -0.1899 -0.0828
 6048TIP3    H139703   0.222   5.722   0.942 -0.4621  0.5495 -1.6281
 6048TIP3    H239704   0.185   5.836   1.034  0.1197 -0.1791 -0.4598
 6049TIP3   OH239705   5.148   0.452   1.706  0.3554 -0.3294 -0.1079
 6049TIP3    H139706   5.218   0.458   1.771  0.6328  1.0767 -0.4967
 6049TIP3    H239707   5.166   0.371   1.659  1.3299 -0.3433  0.2554
 6050TIP3   OH239708   4.140   6.189   0.175  0.4481  0.0957  0.1011
 6050TIP3    H139709   4.050   6.194   0.207  0.5315 -1.9544  0.8321
 6050TIP3    H239710   4.143   6.108   0.124  1.5693  0.7895 -0.9824
 6051TIP3   OH239711   3.510   2.819   7.923  0.1168 -0.1049 -0.2998
 6051TIP3    H139712   3.522   2.907   7.889 -1.4816 -0.1626 -1.1066
 6051TIP3    H239713   3.439   2.828   7.988  0.8237 -0.5869  0.5672
 6052TIP3   OH239714   2.574   3.814   8.049  0.2473 -0.1098 -0.1883
 6052TIP3    H139715   2.632   3.766   8.109  0.7578 -0.3687 -0.8734
 6052TIP3    H239716   2.616   3.899   8.039 -1.3086  1.0077  2.0182
 6053TIP3   OH239717   2.840   4.801   2.731  0.1900 -0.2340  0.0888
 6053TIP3    H139718   2.771   4.853   2.691  0.9147  1.4126  0.8585
 6053TIP3    H239719   2.808   4.782   2.819  0.8573  0.9191  0.6055
 6054TIP3   OH239720   1.123   6.508   2.416  0.0002  0.3191  0.4071
 6054TIP3    H139721   1.057   6.486   2.482 -0.1976  1.1175  0.4871
 6054TIP3    H239722   1.081   6.485   2.332  0.0691 -0.2485  0.5228
 6055TIP3   OH239723   3.526   5.896   1.883 -0.4159  0.2279 -0.0656
 6055TIP3    H139724   3.516   5.809   1.922 -1.8152  1.2950  2.1793
 6055TIP3    H239725   3.496   5.886   1.793  2.2724 -2.2092 -0.8345
 6056TIP3   OH239726   5.175   2.082   0.364 -0.3249 -0.6279  0.3613
 6056TIP3    H139727   5.148   2.059   0.453 -1.2234  0.0692  0.2828
 6056TIP3    H239728   5.106   2.139   0.332 -0.4675 -1.5685 -1.1084
 6057TIP3   OH239729   0.275   3.172   2.997  0.5040 -0.4672 -0.2704
 6057TIP3    H139730   0.370   3.183   3.007  0.3369 -0.0102  0.9729
 6057TIP3    H239731   0.258   3.083   3.027  0.3491  0.0167  1.1820
 6058TIP3   OH239732   4.332   0.257   0.003 -0.0894  0.1494 -0.1795
 6058TIP3    H139733   4.325   0.174   0.051 -0.6196 -0.1764 -0.7981
 6058TIP3    H239734   4.416   0.293   0.029  0.7335 -1.2012 -0.8474
 6059TIP3   OH239735   5.589   3.742   2.387  0.0501  0.5925 -0.5128
 6059TIP3    H139736   5.650   3.679   2.347  0.4772  1.4375 -1.2139
 6059TIP3    H239737   5.510   3.734   2.335 -0.7382 -1.0002  0.8129
 6060TIP3   OH239738   3.532   3.437   7.573 -0.0488  0.6119 -0.0411
 6060TIP3    H139739   3.530   3.358   7.625  0.6870  1.9672  2.1788
 6060TIP3    H239740   3.446   3.477   7.585 -0.7862 -0.2548 -1.9594
 6061TIP3   OH239741   1.646   3.663   7.635 -0.3718  0.3520  0.6818
 6061TIP3    H139742   1.654   3.636   7.727 -0.2303  0.5453  0.7274
 6061TIP3    H239743   1.708   3.735   7.626 -1.3904  1.2605  0.7874
 6062TIP3   OH239744   3.597   3.676   0.051 -0.0852  0.0251 -0.0042
 6062TIP3    H139745   3.593   3.628  -0.032 -1.5619  1.1527 -0.6368
 6062TIP3    H239746   3.578   3.767   0.027 -1.3438  0.2572  1.6601
 6063TIP3   OH239747   4.912   6.067   0.826  0.1459 -0.2717  0.1476
 6063TIP3    H139748   4.937   5.978   0.851  0.4410  0.4605  2.7955
 6063TIP3    H239749   4.817   6.064   0.821 -0.0824 -0.2260  2.9092
 6064TIP3   OH239750   0.414   1.611   8.287  0.2835  0.1665  0.2283
 6064TIP3    H139751   0.342   1.649   8.338  0.4890 -0.9674  1.3969
 6064TIP3    H239752   0.391   1.519   8.276  1.5977 -0.2514  0.7338
 6065TIP3   OH239753   2.230   0.180   2.018  0.9681 -0.1558  0.0696
 6065TIP3    H139754   2.207   0.225   2.099  1.0981  2.5417 -1.2809
 6065TIP3    H239755   2.312   0.135   2.037  0.9425  0.3533  1.4453
 6066TIP3   OH239756   6.262   6.582   2.506  0.3373 -0.6825 -0.2021
 6066TIP3    H139757   6.168   6.564   2.512  0.3627 -1.2288 -1.2088
 6066TIP3    H239758   6.304   6.497   2.516  0.7145 -0.4790 -0.0163
 6067TIP3   OH239759   4.190   2.849   1.375 -0.0329 -0.1579  0.3792
 6067TIP3    H139760   4.215   2.875   1.286 -1.2768  1.4628  0.4519
 6067TIP3    H239761   4.099   2.877   1.383 -0.5274 -1.9270  1.5642
 6068TIP3   OH239762   2.878   0.485   3.004  0.0341 -0.3502 -0.2519
 6068TIP3    H139763   2.891   0.432   3.082  1.8510 -2.4030 -1.8184
 6068TIP3    H239764   2.966   0.502   2.971 -0.6200  1.7875 -1.0424
 6069TIP3   OH239765   4.927   5.075   1.302  0.2635  0.4243 -0.3246
 6069TIP3    H139766   4.972   5.159   1.301  0.0280  0.5526 -0.3245
 6069TIP3    H239767   4.955   5.031   1.222  0.6092  0.3814 -0.1830
 6070TIP3   OH239768   4.642   5.784   1.185  0.8265 -0.3584 -0.0444
 6070TIP3    H139769   4.685   5.743   1.260 -2.9142 -2.0269  1.4206
 6070TIP3    H239770   4.638   5.877   1.208 -0.8025 -0.9205  2.2212
 6071TIP3   OH239771   2.524   5.926   2.814  0.0970 -0.2164 -0.7205
 6071TIP3    H139772   2.572   5.942   2.733  1.3031  1.0982  0.2063
 6071TIP3    H239773   2.588   5.888   2.873 -0.3161  0.3903  0.1464
 6072TIP3   OH239774   4.378   2.102   3.466 -0.4967  0.1118  0.1597
 6072TIP3    H139775   4.311   2.037   3.489 -0.8978  1.2995  2.7609
 6072TIP3    H239776   4.418   2.068   3.386 -1.9002 -2.3876  0.4064
 6073TIP3   OH239777   6.202   4.989   3.667 -0.3307  0.2471 -0.2579
 6073TIP3    H139778   6.243   5.056   3.612 -0.3754  0.9052  0.4862
 6073TIP3    H239779   6.132   4.953   3.613 -0.7926  1.3355 -0.4138
 6074TIP3   OH239780   4.358   0.358   2.316 -0.2164  0.0272  0.3885
 6074TIP3    H139781   4.373   0.374   2.223 -0.2948  0.0947  0.3873
 6074TIP3    H239782   4.267   0.383   2.331  0.2248  1.4947  0.8037
 6075TIP3   OH239783   2.761   1.986   8.533  0.4238 -0.4935 -0.5602
 6075TIP3    H139784   2.814   1.918   8.490 -1.3190 -1.3964 -1.3723
 6075TIP3    H239785   2.671   1.957   8.521 -0.4085  2.0287 -1.0434
 6076TIP3   OH239786   6.289   6.615   1.387 -0.6964 -0.2845 -0.2202
 6076TIP3    H139787   6.274   6.605   1.293  0.4418 -0.6915 -0.3685
 6076TIP3    H239788   6.286   6.525   1.421  2.7268 -0.6327 -0.4955
 6077TIP3   OH239789   4.622   6.646   0.935 -0.2864  0.2817 -0.4141
 6077TIP3    H139790   4.600   6.558   0.903 -0.8005 -0.2083  1.1488
 6077TIP3    H239791   4.579   6.650   1.021 -1.0780  2.4227 -0.8630
 6078TIP3   OH239792   0.375   5.600   0.945 -0.3033 -0.0398 -0.6885
 6078TIP3    H139793   0.401   5.511   0.920  0.0094 -0.6852  1.6914
 6078TIP3    H239794   0.397   5.606   1.037 -1.5439  2.0857 -0.4730
 6079TIP3   OH239795   5.230   1.031   1.927  0.2543  0.0135  0.3104
 6079TIP3    H139796   5.167   0.984   1.981  0.3423 -2.2666 -1.4277
 6079TIP3    H239797   5.315   1.005   1.963  0.2841 -0.5738 -0.1704
 6080TIP3   OH239798   1.347   2.473   2.187  0.3024  0.1010 -0.3501
 6080TIP3    H139799   1.330   2.380   2.199 -0.6228  0.2179 -0.6542
 6080TIP3    H239800   1.364   2.482   2.093 -0.8303  0.4026 -0.5435
 6081TIP3   OH239801   5.437   5.064   2.449 -0.6739 -0.1653 -0.1049
 6081TIP3    H139802   5.455   4.986   2.501 -1.3190 -0.3688 -0.1805
 6081TIP3    H239803   5.489   5.133   2.490 -1.9514 -0.0810  1.4429
 6082TIP3   OH239804   1.947   6.603   2.619  0.2077  0.4170  0.4423
 6082TIP3    H139805   1.861   6.642   2.606 -0.2983 -0.7118  0.2626
 6082TIP3    H239806   1.982   6.590   2.530 -0.0209 -0.3556  0.4576
 6083TIP3   OH239807   5.322   4.932   3.552 -0.1409 -0.0157  0.0885
 6083TIP3    H139808   5.345   5.006   3.608  0.6090  0.8054 -1.2478
 6083TIP3    H239809   5.269   4.875   3.608  0.3366  0.8969  1.5277
 6084TIP3   OH239810   5.377   6.319   2.795 -0.8652  0.0610  0.3361
 6084TIP3    H139811   5.436   6.287   2.727 -0.5016  1.5897 -0.0979
 6084TIP3    H239812   5.314   6.374   2.749 -0.5777  1.1724  1.2217
 6085TIP3   OH239813   2.693   1.312   2.517  0.2373 -0.4765  0.3984
 6085TIP3    H139814   2.724   1.243   2.458  1.0568  0.3274 -0.1483
 6085TIP3    H239815   2.613   1.344   2.475  0.6929 -0.0632 -0.1762
 6086TIP3   OH239816   0.558   3.317   0.566 -0.4954  0.4092 -0.6517
 6086TIP3    H139817   0.538   3.362   0.648 -2.1360 -2.3219  0.6114
 6086TIP3    H239818   0.475   3.317   0.518 -0.3215 -0.5288 -0.9689
 6087TIP3   OH239819   1.118   5.880   0.943 -0.0725 -0.6826 -0.6204
 6087TIP3    H139820   1.186   5.855   0.880  1.6080  0.0146  0.8443
 6087TIP3    H239821   1.081   5.961   0.907  0.5032 -0.5654 -0.9558
 6088TIP3   OH239822   4.536   0.058   0.365  0.0777  0.3490  0.4599
 6088TIP3    H139823   4.489   0.025   0.441 -1.1198  0.0326 -0.3767
 6088TIP3    H239824   4.628   0.047   0.387 -0.2540 -1.0269  1.3146
 6089TIP3   OH239825   0.336   2.474   3.002 -0.4942 -0.0481  0.5331
 6089TIP3    H139826   0.400   2.501   2.936 -1.5217 -0.0962 -0.5206
 6089TIP3    H239827   0.387   2.465   3.083  0.7374  0.3327 -0.1715
 6090TIP3   OH239828   3.252   5.287   3.363 -0.1273  0.0377  0.2224
 6090TIP3    H139829   3.173   5.233   3.360 -0.2739  0.2570  0.0950
 6090TIP3    H239830   3.323   5.224   3.374 -0.4700 -0.0489  2.3972
 6091TIP3   OH239831   1.368   5.913   2.767 -0.0649  0.0137 -0.0266
 6091TIP3    H139832   1.390   5.957   2.685 -0.0487 -0.0103 -0.0349
 6091TIP3    H239833   1.440   5.851   2.781 -1.4195 -1.9652 -1.4078
 6092TIP3   OH239834   3.133   0.225   0.221  0.4076 -0.3291 -0.6047
 6092TIP3    H139835   3.050   0.220   0.269  0.1169  0.4042 -1.0166
 6092TIP3    H239836   3.107   0.216   0.129  0.7338  0.3058 -0.7650
 6093TIP3   OH239837   1.575   3.179   3.345  0.3755  0.0701 -0.7273
 6093TIP3    H139838   1.579   3.119   3.420  0.2223  0.5072 -0.3652
 6093TIP3    H239839   1.503   3.239   3.367 -0.3557 -0.4299 -1.6967
 6094TIP3   OH239840   3.677   2.229   0.836  0.4033 -0.5557 -0.2204
 6094TIP3    H139841   3.759   2.183   0.853 -0.0651 -0.7627  1.7335
 6094TIP3    H239842   3.703   2.316   0.807  1.3063 -0.9540 -0.6324
 6095TIP3   OH239843   5.787   1.839   0.485  0.5183  0.5723  0.3485
 6095TIP3    H139844   5.697   1.832   0.517  0.2942  1.7807  0.0093
 6095TIP3    H239845   5.827   1.907   0.539  1.2664 -0.0101  0.5457
 6096TIP3   OH239846   0.779   2.815   2.864  0.7242  0.3769  0.0465
 6096TIP3    H139847   0.828   2.811   2.945 -2.5729  1.6921  2.3620
 6096TIP3    H239848   0.759   2.724   2.842  2.7693 -0.0651 -0.1006
 6097TIP3   OH239849   2.107   5.299   1.473 -0.3410 -0.3917 -0.1974
 6097TIP3    H139850   2.028   5.328   1.518 -1.4580 -1.9864 -1.0526
 6097TIP3    H239851   2.145   5.379   1.437 -0.6969  0.6054  1.4987
 6098TIP3   OH239852   3.015   6.533   1.793 -0.4818 -0.3185 -0.3485
 6098TIP3    H139853   3.039   6.510   1.883 -0.8460 -0.3543 -0.2602
 6098TIP3    H239854   3.047   6.623   1.781  2.1424 -1.2722 -1.1265
 6099TIP3   OH239855   4.913   6.547   2.346  0.4369  0.1365 -0.1961
 6099TIP3    H139856   4.829   6.546   2.301 -0.1419  0.5973  0.8405
 6099TIP3    H239857   4.936   6.455   2.357  0.0119  0.0077 -0.3877
 6100TIP3   OH239858   5.488   5.872   2.878  0.2656 -0.6951  0.0687
 6100TIP3    H139859   5.534   5.881   2.795 -0.4345 -1.2525 -0.3874
 6100TIP3    H239860   5.474   5.962   2.907 -1.6277 -0.3427 -1.6441
 6101TIP3   OH239861   0.652   3.944   3.199 -0.5642  0.2248 -0.6570
 6101TIP3    H139862   0.629   3.871   3.256 -0.4379  0.2763 -0.5427
 6101TIP3    H239863   0.571   3.996   3.194 -0.7462 -0.0821 -0.9776
 6102TIP3   OH239864   4.081   2.764   2.613  0.2453 -0.1086  0.1685
 6102TIP3    H139865   4.050   2.676   2.590 -0.1630  0.3861 -1.2925
 6102TIP3    H239866   4.034   2.822   2.554  0.5950  1.0967  1.0390
 6103TIP3   OH239867   4.356   1.957   8.297 -0.5266 -0.2359 -0.6331
 6103TIP3    H139868   4.428   2.017   8.316 -0.7530  0.0754 -0.7607
 6103TIP3    H239869   4.375   1.880   8.351  0.0075 -0.2383 -0.8133
 6104TIP3   OH239870   1.835   2.333   2.209 -0.1724  0.3672  0.3497
 6104TIP3    H139871   1.845   2.245   2.244  2.8451  0.3034 -0.3979
 6104TIP3    H239872   1.866   2.390   2.279 -1.8443  0.8795  0.7231
 6105TIP3   OH239873   3.014   4.926   8.332  0.8593 -0.1076  0.3971
 6105TIP3    H139874   2.946   4.883   8.385  0.5352  1.0627  0.9556
 6105TIP3    H239875   2.984   4.918   8.242 -0.0884  0.5103  0.6522
 6106TIP3   OH239876   6.162   3.784   2.627  0.7887  0.2207  0.0833
 6106TIP3    H139877   6.202   3.848   2.687  1.0300  0.3274 -0.1907
 6106TIP3    H239878   6.147   3.706   2.681  0.3305  0.5636  0.4667
 6107TIP3   OH239879   5.706   0.046   0.133  0.2151 -0.1796 -0.1063
 6107TIP3    H139880   5.771   0.110   0.105 -0.6470  0.3996 -0.8413
 6107TIP3    H239881   5.631   0.098   0.161 -0.0040 -0.8413  0.5971
 6108TIP3   OH239882   0.507   6.403   1.066  0.0042 -0.1268 -0.2945
 6108TIP3    H139883   0.528   6.494   1.044  0.6756 -0.5917 -1.6665
 6108TIP3    H239884   0.411   6.400   1.064  0.0044  0.1291 -2.1475
 6109TIP3   OH239885   6.374   1.511   0.534 -0.3210 -0.2570  0.2065
 6109TIP3    H139886   6.316   1.478   0.465  0.7778  0.6678 -1.2227
 6109TIP3    H239887   6.339   1.598   0.555  0.3250  0.1761 -0.4439
 6110TIP3   OH239888   4.235   3.792   1.087  0.2053 -0.2065  0.0315
 6110TIP3    H139889   4.311   3.771   1.141 -1.2035 -2.3728  1.3151
 6110TIP3    H239890   4.185   3.855   1.138  0.9503  1.0519 -0.7196
 6111TIP3   OH239891   5.747   3.371   1.060  0.3542  0.6046  0.8056
 6111TIP3    H139892   5.751   3.398   1.152  1.1960 -1.7370  1.5242
 6111TIP3    H239893   5.789   3.285   1.058 -1.1865 -0.2009 -1.4797
 6112TIP3   OH239894   3.915   6.748   1.493  0.0230  0.5250 -0.6370
 6112TIP3    H139895   3.933   6.696   1.571  0.7128  0.7079 -0.6689
 6112TIP3    H239896   3.883   6.832   1.526 -0.7978  0.2002 -0.5801
 6113TIP3   OH239897   0.485   1.341   8.623  0.0965  0.3088  0.3069
 6113TIP3    H139898   0.395   1.308   8.613  0.5239 -0.6638 -0.4480
 6113TIP3    H239899   0.540   1.262   8.620  0.9889  0.9026  0.6746
 6114TIP3   OH239900   4.496   5.732   8.373 -0.6294 -0.7525  0.2336
 6114TIP3    H139901   4.491   5.814   8.324 -0.3922  0.1108  1.6009
 6114TIP3    H239902   4.405   5.710   8.393 -0.6686 -0.5310  0.3034
 6115TIP3   OH239903   4.066   3.323   7.878  0.1464 -0.3378 -1.0288
 6115TIP3    H139904   3.972   3.306   7.886 -0.0745  0.0980 -2.3293
 6115TIP3    H239905   4.108   3.242   7.908 -0.5979 -0.1622  0.5524
 6116TIP3   OH239906   3.274   5.889   1.420  0.2979 -0.1462 -0.6957
 6116TIP3    H139907   3.306   5.805   1.388 -0.7575 -0.0578 -2.0598
 6116TIP3    H239908   3.261   5.942   1.341 -1.5242  0.4115 -0.0771
 6117TIP3   OH239909   2.747   3.779   7.845  0.2056  0.0069 -0.0519
 6117TIP3    H139910   2.842   3.765   7.842  0.0148 -1.2629 -0.7685
 6117TIP3    H239911   2.720   3.742   7.928  0.1392 -1.1069 -0.5514
 6118TIP3   OH239912   4.975   6.345   1.984 -0.4217  0.3790 -0.6445
 6118TIP3    H139913   4.935   6.328   1.898 -0.0747  1.8071 -1.1304
 6118TIP3    H239914   4.901   6.349   2.045 -0.6400 -1.0473 -0.7828
 6119TIP3   OH239915   1.676   3.513   2.618  0.5847 -0.5489 -0.9074
 6119TIP3    H139916   1.717   3.431   2.646 -0.0289 -0.4265  0.4832
 6119TIP3    H239917   1.583   3.500   2.637  0.4307  0.3345 -1.0248
 6120TIP3   OH239918   2.079   5.410   3.333  0.8271  0.4318  0.0218
 6120TIP3    H139919   2.098   5.498   3.302  1.7193  1.1577  2.3505
 6120TIP3    H239920   2.163   5.379   3.369 -0.3836  0.4617  3.2270
 6121TIP3   OH239921   5.908   6.707   3.479  0.0794  0.0119 -0.8474
 6121TIP3    H139922   5.874   6.618   3.481  1.4106 -0.5580 -1.9072
 6121TIP3    H239923   6.003   6.697   3.491  0.0176  1.5051  1.7405
 6122TIP3   OH239924   4.503   3.295   1.073  0.1303  0.3403 -0.1562
 6122TIP3    H139925   4.408   3.291   1.085 -0.0787 -1.9413 -1.8818
 6122TIP3    H239926   4.515   3.340   0.990  0.6476  1.4832  0.5153
 6123TIP3   OH239927   5.859   4.877   0.021  0.5903  0.1372 -0.3219
 6123TIP3    H139928   5.841   4.928  -0.058 -0.8872 -0.5875 -0.4989
 6123TIP3    H239929   5.776   4.877   0.069 -0.1671 -3.7393 -1.3149
 6124TIP3   OH239930   3.537   2.051   1.598  0.0604 -0.1437 -0.0137
 6124TIP3    H139931   3.458   2.105   1.587 -0.2878 -0.6102  0.1377
 6124TIP3    H239932   3.514   1.967   1.558 -0.2470 -0.9517  1.7517
 6125TIP3   OH239933   0.431   5.566   3.277 -0.4462 -0.0388  0.1514
 6125TIP3    H139934   0.462   5.647   3.236 -1.2874  0.3386  0.2497
 6125TIP3    H239935   0.498   5.501   3.254  0.7114  0.8750  0.8442
 6126TIP3   OH239936   6.347   5.920   1.159 -0.0804  0.0186 -0.1629
 6126TIP3    H139937   6.328   5.836   1.200  2.1345 -0.3874  0.1554
 6126TIP3    H239938   6.392   5.970   1.226 -1.2798  1.4615 -0.3798
 6127TIP3   OH239939   6.625   6.575   3.719  0.3455 -0.0182 -0.0675
 6127TIP3    H139940   6.670   6.529   3.789 -0.4187 -0.5218  0.1104
 6127TIP3    H239941   6.614   6.509   3.650  3.1428  1.0414 -1.6748
 6128TIP3   OH239942   2.229   4.214   2.625 -0.4153 -0.4677  0.8696
 6128TIP3    H139943   2.311   4.247   2.661 -1.0013  0.7183  1.1860
 6128TIP3    H239944   2.249   4.196   2.533  0.0030  0.5945  0.7388
 6129TIP3   OH239945   1.834   5.464   1.936  0.2604  0.0125 -0.1942
 6129TIP3    H139946   1.808   5.528   1.869 -1.3190  0.9090  1.2148
 6129TIP3    H239947   1.860   5.518   2.011 -0.0628 -0.9965  0.6571
 6130TIP3   OH239948   4.994   0.272   0.015 -0.4708 -0.3439  0.1595
 6130TIP3    H139949   5.079   0.261   0.057 -1.5227  0.4660  2.6717
 6130TIP3    H239950   4.976   0.366   0.021 -0.3159 -0.0140 -3.0051
 6131TIP3   OH239951   0.599   6.716   7.590 -0.1538 -0.5245  0.0664
 6131TIP3    H139952   0.506   6.722   7.570  0.1495  1.3848 -0.9784
 6131TIP3    H239953   0.603   6.666   7.672 -2.4187  2.6021  2.3211
 6132TIP3   OH239954   4.109   3.104   2.254  0.4104 -0.2472 -0.1724
 6132TIP3    H139955   4.092   3.101   2.348  1.6247  0.3472  0.0881
 6132TIP3    H239956   4.081   3.019   2.221 -3.3909  0.7383  0.0900
 6133TIP3   OH239957   6.821   3.132   8.293  0.3239  0.2187  0.0099
 6133TIP3    H139958   6.909   3.103   8.269  0.5369 -1.0940  2.2022
 6133TIP3    H239959   6.785   3.062   8.347 -1.4205  1.4942  0.6178
 6134TIP3   OH239960   2.445   3.811   2.712  0.6003 -0.0700  0.2418
 6134TIP3    H139961   2.398   3.766   2.642  1.4967  1.0311 -1.1050
 6134TIP3    H239962   2.522   3.848   2.670  0.7370  1.3440  1.6395
 6135TIP3   OH239963   4.204   4.681   0.474  0.3923  0.5799  0.0428
 6135TIP3    H139964   4.210   4.587   0.457  0.6089  0.5085  0.4903
 6135TIP3    H239965   4.227   4.690   0.567  3.0271  1.3413 -0.5876
 6136TIP3   OH239966   3.437   6.135   7.717  0.1577  0.2312 -0.1792
 6136TIP3    H139967   3.450   6.077   7.792  3.0962 -1.0348 -1.4929
 6136TIP3    H239968   3.368   6.092   7.666 -0.6609  0.2006  0.9011
 6137TIP3   OH239969   6.366   4.710   3.703  0.2178  0.7590 -0.5791
 6137TIP3    H139970   6.333   4.788   3.658 -4.2832 -0.5440  0.0377
 6137TIP3    H239971   6.329   4.715   3.791  2.1541 -0.7802  0.4140
 6138TIP3   OH239972   5.443   1.322   8.098 -0.5127  0.0156  0.6669
 6138TIP3    H139973   5.475   1.323   8.008 -2.6706 -0.4026 -0.1489
 6138TIP3    H239974   5.445   1.229   8.123 -1.8155 -0.1141  0.3188
 6139TIP3   OH239975   4.614   6.622   2.312  0.0491 -0.6061  0.0125
 6139TIP3    H139976   4.614   6.581   2.399 -1.6357  1.1956  0.9371
 6139TIP3    H239977   4.547   6.690   2.318  2.5913  2.2414 -1.4231
 6140TIP3   OH239978   0.159   0.677   1.887 -0.9954 -0.4966  0.2704
 6140TIP3    H139979   0.238   0.676   1.833 -0.9706 -0.8363  0.3150
 6140TIP3    H239980   0.177   0.743   1.953 -1.7696  1.3529 -1.2517
 6141TIP3   OH239981   5.364   5.812   3.536  0.3983  0.0857  0.1147
 6141TIP3    H139982   5.354   5.717   3.545  1.6824 -0.0398  0.3159
 6141TIP3    H239983   5.453   5.830   3.565  0.2406  1.3354 -0.1231
 6142TIP3   OH239984   2.784   1.346   3.434  0.2542  0.4020  0.0243
 6142TIP3    H139985   2.842   1.414   3.400 -0.7370  1.2915  0.0243
 6142TIP3    H239986   2.784   1.359   3.529 -2.1113  2.3529 -0.1220
 6143TIP3   OH239987   0.730   5.427   3.695  0.8594  0.2502  0.2684
 6143TIP3    H139988   0.808   5.440   3.642  0.3397  0.6311 -0.4174
 6143TIP3    H239989   0.698   5.340   3.671 -1.9468  2.0427 -3.5902
 6144TIP3   OH239990   4.973   6.346   1.592  0.2006  0.3171 -0.1976
 6144TIP3    H139991   5.053   6.295   1.580 -0.1959  0.0845 -2.0883
 6144TIP3    H239992   4.908   6.283   1.624 -0.0557 -0.1969 -1.6968
 6145TIP3   OH239993   6.171   0.816   0.986 -0.5448 -0.6536 -0.4750
 6145TIP3    H139994   6.221   0.881   1.035  0.1037 -0.8799 -0.8232
 6145TIP3    H239995   6.121   0.867   0.922  0.3414 -0.5174 -1.0827
 6146TIP3   OH239996   3.606   0.334   1.598 -0.3574  0.1550  0.0514
 6146TIP3    H139997   3.562   0.360   1.517 -0.0748  0.2027 -0.0880
 6146TIP3    H239998   3.539   0.345   1.666 -0.5189  0.3654 -0.1386
 6147TIP3   OH239999   5.337   5.756   2.618  0.1099  0.3538 -0.1333
 6147TIP3    H140000   5.280   5.789   2.687  0.6908 -0.4139  0.7543
 6147TIP3    H240001   5.375   5.834   2.577  1.3444  0.8261  1.8007
 6148TIP3   OH240002   6.014   6.226   8.452  0.3633 -0.0624 -0.1809
 6148TIP3    H140003   5.947   6.169   8.487  0.9690  0.2694  1.5963
 6148TIP3    H240004   5.996   6.229   8.358 -1.2057 -1.1175  0.0538
 6149TIP3   OH240005   6.148   4.789   1.886  0.5859 -0.3092  0.5088
 6149TIP3    H140006   6.192   4.773   1.803 -0.6496 -0.4040 -0.1506
 6149TIP3    H240007   6.079   4.723   1.890  0.8989 -0.5753  1.8141
 6150TIP3   OH240008   0.479   1.641   1.503  0.0850 -0.0496 -0.5779
 6150TIP3    H140009   0.502   1.600   1.419  1.8397 -1.1544  0.3766
 6150TIP3    H240010   0.554   1.696   1.524  0.1516 -0.6027  0.7503
 6151TIP3   OH240011   1.501   2.829   0.993 -0.1672 -0.2897 -0.5000
 6151TIP3    H140012   1.581   2.799   1.038 -0.6372 -1.5909 -0.4733
 6151TIP3    H240013   1.441   2.851   1.064  0.4659  1.6171 -0.5163
 6152TIP3   OH240014   6.720   1.662   2.516  0.1750  0.5112 -0.3868
 6152TIP3    H140015   6.694   1.647   2.425  0.0857  0.4457 -0.3507
 6152TIP3    H240016   6.814   1.645   2.517  0.1086  0.1392 -0.3883
 6153TIP3   OH240017   1.948   2.084   3.687  0.1070  0.3548 -0.2227
 6153TIP3    H140018   2.009   2.016   3.660 -1.9110 -1.1611 -1.2096
 6153TIP3    H240019   2.002   2.149   3.732  2.3572 -1.0443 -0.7921
 6154TIP3   OH240020   6.765   1.963   2.402 -0.1990  0.3156 -0.7589
 6154TIP3    H140021   6.783   1.921   2.485 -1.0114 -0.8134 -1.1343
 6154TIP3    H240022   6.814   1.911   2.337  0.4168  1.1719 -1.0101
 6155TIP3   OH240023   4.674   4.911   0.232  0.0630 -0.6221 -0.2518
 6155TIP3    H140024   4.707   5.000   0.241  1.2331 -1.1241  0.6807
 6155TIP3    H240025   4.671   4.896   0.137 -0.3337  0.4612 -0.4194
 6156TIP3   OH240026   5.197   6.340   7.960  0.4683  0.2944 -0.2894
 6156TIP3    H140027   5.278   6.390   7.946  0.6815  0.1160  0.2553
 6156TIP3    H240028   5.207   6.304   8.049 -0.0159 -0.0885 -0.3882
 6157TIP3   OH240029   1.962   4.754   7.846 -0.1597 -0.1039 -0.3469
 6157TIP3    H140030   2.025   4.726   7.780 -0.2864  0.1699 -0.5819
 6157TIP3    H240031   1.995   4.838   7.877 -0.8103  0.4105 -1.0116
 6158TIP3   OH240032   2.457   0.495   3.295 -0.6900  0.1642  0.4006
 6158TIP3    H140033   2.435   0.523   3.384 -1.0984  0.9930  0.0468
 6158TIP3    H240034   2.539   0.541   3.275 -1.2399  0.9439 -0.0970
 6159TIP3   OH240035   3.630   5.679   7.961  0.0840 -0.7628 -0.0380
 6159TIP3    H140036   3.688   5.620   7.912  0.1419 -0.5560 -0.2179
 6159TIP3    H240037   3.644   5.655   8.053  0.7703 -0.4314 -0.0479
 6160TIP3   OH240038   3.229   2.932   3.017 -0.4135 -0.0077 -0.0804
 6160TIP3    H140039   3.237   2.872   2.942 -0.6460 -0.1686  0.0212
 6160TIP3    H240040   3.218   3.018   2.977 -0.0619 -0.0286 -0.2278
 6161TIP3   OH240041   6.073   2.194   3.141  0.1771  0.3545  0.3191
 6161TIP3    H140042   6.161   2.157   3.140 -0.2155 -0.8186 -2.6183
 6161TIP3    H240043   6.027   2.147   3.210  1.5434  0.2993  1.2324
 6162TIP3   OH240044   2.847   5.564   2.566  0.4438 -0.3927  0.0132
 6162TIP3    H140045   2.914   5.590   2.503  0.2341  0.3278  0.0747
 6162TIP3    H240046   2.822   5.476   2.539  2.8612 -1.5276  1.2338
 6163TIP3   OH240047   3.780   1.649   2.768  0.0033 -0.0882  0.0621
 6163TIP3    H140048   3.693   1.678   2.739  0.2709 -0.5750 -1.3021
 6163TIP3    H240049   3.825   1.730   2.792 -1.0465  0.1108  1.4834
 6164TIP3   OH240050   0.101   5.123   2.212 -0.2229  0.4785  0.3851
 6164TIP3    H140051   0.126   5.205   2.255  2.2554  1.2711 -2.2390
 6164TIP3    H240052   0.166   5.059   2.242 -0.2463  0.2916  0.0430
 6165TIP3   OH240053   4.340   1.338   7.799 -0.1766 -0.3462  0.8246
 6165TIP3    H140054   4.376   1.358   7.713 -0.4833  0.2356  0.8222
 6165TIP3    H240055   4.258   1.387   7.802 -1.2999 -2.1188  0.5951
 6166TIP3   OH240056   2.003   4.204   0.284  0.6069 -0.2713 -0.2218
 6166TIP3    H140057   1.951   4.143   0.230  0.5116 -1.7479  1.4467
 6166TIP3    H240058   2.027   4.153   0.361  0.6312  1.8034  1.2254
 6167TIP3   OH240059   5.753   5.171   2.353 -0.3253 -0.4094  0.0016
 6167TIP3    H140060   5.819   5.136   2.294 -1.6115 -1.7075 -0.7381
 6167TIP3    H240061   5.774   5.133   2.439  2.5770  2.8244  0.9153
 6168TIP3   OH240062   5.332   6.201   0.194 -0.8290 -0.1046 -0.5734
 6168TIP3    H140063   5.248   6.209   0.150 -1.3920  1.4032  0.6777
 6168TIP3    H240064   5.317   6.139   0.265 -0.2051 -1.6981 -1.7698
 6169TIP3   OH240065   5.418   0.020   1.222 -0.3414 -0.2218 -0.6407
 6169TIP3    H140066   5.360   0.094   1.203  2.1987  2.3126  0.7293
 6169TIP3    H240067   5.505   0.051   1.198  0.8767 -2.6502  0.3426
 6170TIP3   OH240068   0.240   1.728   2.148 -0.2511  0.1376 -0.2881
 6170TIP3    H140069   0.305   1.760   2.086 -1.4552  1.5998 -0.8651
 6170TIP3    H240070   0.278   1.648   2.185  1.1124  0.0250 -1.8453
 6171TIP3   OH240071   3.632   4.550   2.730  0.5207 -0.3714 -0.7495
 6171TIP3    H140072   3.704   4.568   2.669  0.9262 -1.4719 -0.6242
 6171TIP3    H240073   3.675   4.539   2.815  0.0469  0.3422 -0.4138
 6172TIP3   OH240074   6.687   2.201   4.093 -0.7089  0.4101  0.2437
 6172TIP3    H140075   6.719   2.124   4.141 -0.0195 -0.3338 -1.3281
 6172TIP3    H240076   6.739   2.273   4.128 -0.2244 -0.1037  0.6244
 6173TIP3   OH240077   0.750   0.704   1.410  0.0828  0.0947  0.7017
 6173TIP3    H140078   0.786   0.782   1.367 -1.3887  0.5298  0.2031
 6173TIP3    H240079   0.755   0.636   1.343  1.7724 -0.4037  1.2742
 6174TIP3   OH240080   2.894   5.760   7.573  0.6993  0.3834 -0.5265
 6174TIP3    H140081   2.899   5.708   7.494 -1.3734 -1.2858  0.3397
 6174TIP3    H240082   2.985   5.777   7.597  1.3745  0.7019 -3.0448
 6175TIP3   OH240083   3.327   1.043   1.314 -0.1763 -0.1685  0.1606
 6175TIP3    H140084   3.411   0.997   1.307  0.0456  0.1556  0.6881
 6175TIP3    H240085   3.276   0.989   1.375 -0.2423 -0.1958  0.0819
 6176TIP3   OH240086   2.601   5.433   0.771  0.4821  0.7185 -0.3028
 6176TIP3    H140087   2.601   5.341   0.797 -1.4625  0.7706  0.0413
 6176TIP3    H240088   2.564   5.479   0.847  2.6668  1.9884  0.0603
 6177TIP3   OH240089   6.341   6.061   0.625  0.5699 -0.0003 -0.4687
 6177TIP3    H140090   6.287   6.007   0.681  1.2344 -0.2680 -0.0822
 6177TIP3    H240091   6.282   6.088   0.554 -1.0800  2.5370  1.6638
 6178TIP3   OH240092   2.878   2.777   2.864  0.1949  0.0258 -0.5317
 6178TIP3    H140093   2.788   2.775   2.897  0.1782 -1.1032 -0.6275
 6178TIP3    H240094   2.932   2.785   2.942 -0.0168  2.3675 -0.5528
 6179TIP3   OH240095   3.248   1.682   0.809  0.1161  0.3036 -0.5630
 6179TIP3    H140096   3.264   1.637   0.892  0.5442 -0.1301 -0.8758
 6179TIP3    H240097   3.237   1.774   0.833  2.2936  0.5258 -0.2163
 6180TIP3   OH240098   1.291   5.422   1.757 -0.1522 -0.1503  0.7732
 6180TIP3    H140099   1.377   5.465   1.757 -0.5940  0.8281 -0.8858
 6180TIP3    H240100   1.240   5.472   1.821  0.0792  0.2154  0.6784
 6181TIP3   OH240101   5.270   6.747   0.367  0.2923  0.1292 -0.0636
 6181TIP3    H140102   5.350   6.782   0.328 -0.2380  1.6548  0.1913
 6181TIP3    H240103   5.275   6.652   0.350  2.7321 -0.0030  0.9968
 6182TIP3   OH240104   3.453   3.917   3.954  0.3328 -0.2518 -0.4699
 6182TIP3    H140105   3.548   3.912   3.956  0.5384  2.4311  0.0297
 6182TIP3    H240106   3.431   3.926   3.861  0.5683 -0.6651 -0.5674
 6183TIP3   OH240107   1.285   3.662   0.950  0.1324  0.0649  0.0752
 6183TIP3    H140108   1.338   3.615   1.014  1.5116 -0.0838 -1.1394
 6183TIP3    H240109   1.306   3.621   0.866 -1.8647  0.0523 -0.4666
 6184TIP3   OH240110   2.211   2.815   3.275 -0.0403  0.0226  0.6040
 6184TIP3    H140111   2.280   2.876   3.249 -0.2986 -0.3998 -1.1988
 6184TIP3    H240112   2.130   2.855   3.241  0.0221 -2.3577 -2.8189
 6185TIP3   OH240113   1.271   2.960   0.745 -0.1316 -0.0880 -0.5482
 6185TIP3    H140114   1.233   2.955   0.658  0.4673  2.5898 -1.0595
 6185TIP3    H240115   1.197   2.978   0.803 -0.0952  2.7830 -1.2252
 6186TIP3   OH240116   3.868   6.706   0.328  0.1925 -0.5429 -0.1786
 6186TIP3    H140117   3.944   6.701   0.386  0.8071  0.0683 -0.9025
 6186TIP3    H240118   3.829   6.791   0.347 -0.9611 -1.2778  0.9381
 6187TIP3   OH240119   4.597   4.511   1.254 -0.2394 -0.0224  0.1042
 6187TIP3    H140120   4.575   4.564   1.331 -2.1027 -0.0168 -0.3951
 6187TIP3    H240121   4.677   4.465   1.280  0.0035  1.0902  1.4914
 6188TIP3   OH240122   2.208   0.396   1.257 -0.2377 -0.6197  0.1659
 6188TIP3    H140123   2.270   0.431   1.193 -1.2526 -0.7171 -0.9165
 6188TIP3    H240124   2.262   0.347   1.319  0.7055 -1.2231 -1.0972
 6189TIP3   OH240125   0.084   2.864   2.581 -0.0745  0.4848  0.1889
 6189TIP3    H140126   0.026   2.893   2.511 -1.0666 -0.2291  0.6882
 6189TIP3    H240127   0.094   2.940   2.638 -1.7787  0.2088  0.9121
 6190TIP3   OH240128   3.497   2.703   8.509 -0.0400  1.0822 -0.0383
 6190TIP3    H140129   3.583   2.724   8.475 -0.0766  1.6847  0.2315
 6190TIP3    H240130   3.503   2.723   8.603 -0.5905  1.5208 -0.0922
 6191TIP3   OH240131   1.350   3.106   2.542  0.6710 -0.5740 -0.4920
 6191TIP3    H140132   1.311   3.100   2.629 -0.5281 -1.9933 -1.0831
 6191TIP3    H240133   1.317   3.189   2.506  1.2383  0.0544  0.4124
 6192TIP3   OH240134   3.253   5.077   8.518  0.3528 -0.0551  0.5771
 6192TIP3    H140135   3.170   5.064   8.472  0.8981 -1.4045 -0.0846
 6192TIP3    H240136   3.236   5.047   8.607 -0.1872  0.7909  0.7645
 6193TIP3   OH240137   5.602   0.032   2.970 -0.3708  0.1602 -0.8074
 6193TIP3    H140138   5.650  -0.051   2.971 -0.3408  0.1785 -0.1283
 6193TIP3    H240139   5.629   0.076   3.051 -1.1662  0.3763 -0.6461
 6194TIP3   OH240140   1.012   1.403   3.041 -0.3347 -0.3008 -0.4696
 6194TIP3    H140141   1.097   1.366   3.015  0.3738 -0.1610  1.4908
 6194TIP3    H240142   1.005   1.484   2.991  2.0958  1.2023  1.3380
 6195TIP3   OH240143   2.571   5.507   1.836  0.4114 -0.0178 -0.1621
 6195TIP3    H140144   2.634   5.578   1.852  1.0209 -0.8793  1.4344
 6195TIP3    H240145   2.494   5.531   1.887 -0.3730  0.7119 -1.6127
 6196TIP3   OH240146   6.064   0.804   0.123 -0.0909 -0.2877  0.9606
 6196TIP3    H140147   6.121   0.744   0.075 -0.2012 -0.7010  1.3392
 6196TIP3    H240148   6.093   0.797   0.214 -0.7250 -0.4734  1.1497
 6197TIP3   OH240149   0.959   6.483   3.102 -0.9078 -0.0410  0.0803
 6197TIP3    H140150   0.912   6.535   3.038  1.9584 -0.0871 -2.2430
 6197TIP3    H240151   0.947   6.392   3.073 -1.8626 -0.3326  1.2887
 6198TIP3   OH240152   3.271   1.353   1.433  0.8603  0.0384  0.2774
 6198TIP3    H140153   3.300   1.442   1.454 -0.6058  0.9720 -1.3869
 6198TIP3    H240154   3.311   1.335   1.348 -1.4490  0.4741 -0.9890
 6199TIP3   OH240155   3.755   2.200   1.531 -0.2588 -0.8214 -0.4746
 6199TIP3    H140156   3.696   2.134   1.568 -0.4170 -0.5759 -0.2922
 6199TIP3    H240157   3.747   2.188   1.436 -3.0071  1.2732 -0.6032
 6200TIP3   OH240158   0.888   6.186   3.009  0.0059  0.0884  0.2721
 6200TIP3    H140159   0.841   6.112   2.969 -0.4264  0.1344  0.6814
 6200TIP3    H240160   0.950   6.215   2.941 -0.2073 -0.2961 -0.0930
 6201TIP3   OH240161   3.966   3.679   8.216 -0.3886  0.1300  0.3211
 6201TIP3    H140162   3.944   3.762   8.260  1.0916  0.0379  1.3180
 6201TIP3    H240163   4.043   3.700   8.163 -0.3952 -0.4541  0.0747
 6202TIP3   OH240164   6.192   0.950   2.835 -0.3800  0.5476  0.0476
 6202TIP3    H140165   6.212   0.867   2.794  1.4141 -0.1764  2.1775
 6202TIP3    H240166   6.273   1.001   2.828 -0.8939  1.4331  0.3083
 6203TIP3   OH240167   3.458   3.137   0.936  0.3717 -0.3000  0.4097
 6203TIP3    H140168   3.408   3.211   0.970  1.5393  0.2126  1.0703
 6203TIP3    H240169   3.393   3.080   0.896 -0.6627  0.6162  0.7488
 6204TIP3   OH240170   6.799   5.173   2.008  0.2361  0.7432 -0.4563
 6204TIP3    H140171   6.844   5.154   2.090  0.8458  1.4281 -0.6244
 6204TIP3    H240172   6.781   5.267   2.011 -1.3013  0.4843 -0.3486
 6205TIP3   OH240173   2.315   6.565   7.505 -0.5767  0.0198  0.3417
 6205TIP3    H140174   2.387   6.506   7.528 -0.6713  0.0856  0.8303
 6205TIP3    H240175   2.345   6.609   7.426  1.0329  1.8577  1.8582
 6206TIP3   OH240176   2.291   6.389   1.710  0.2154  0.0328 -0.0695
 6206TIP3    H140177   2.375   6.343   1.709  0.8610  1.0119 -3.0709
 6206TIP3    H240178   2.226   6.319   1.708  1.0571 -0.7674 -0.7163
 6207TIP3   OH240179   1.220   1.391   0.171 -0.2627 -0.0980 -0.7293
 6207TIP3    H140180   1.309   1.421   0.152 -0.0018 -0.2408  0.2188
 6207TIP3    H240181   1.201   1.425   0.259  0.1846 -2.8985  0.5787
 6208TIP3   OH240182   5.021   6.811   1.367 -0.3899 -0.0609 -0.0953
 6208TIP3    H140183   4.964   6.762   1.426  0.3257 -0.6111  0.1484
 6208TIP3    H240184   5.058   6.745   1.308  0.1154  0.2652 -0.1542
 6209TIP3   OH240185   4.128   0.451   0.929  0.8293  0.3139  0.3159
 6209TIP3    H140186   4.172   0.398   0.862 -0.3282 -1.4966  0.9274
 6209TIP3    H240187   4.119   0.393   1.004 -2.1833  0.7018  0.3768
 6210TIP3   OH240188   2.988   4.761   0.793  0.7953  0.3044 -0.5046
 6210TIP3    H140189   3.069   4.722   0.827  1.2022  1.3777 -0.2070
 6210TIP3    H240190   2.936   4.780   0.872 -0.2292 -1.3281 -0.7313
 6211TIP3   OH240191   1.873   2.287   8.315 -0.0052  0.7025 -0.4521
 6211TIP3    H140192   1.822   2.227   8.261  0.2444  0.4119 -0.3638
 6211TIP3    H240193   1.957   2.296   8.270  0.5695 -0.3075  0.3797
 6212TIP3   OH240194   0.109   1.297   2.248 -0.5349 -0.2232  0.1806
 6212TIP3    H140195   0.101   1.285   2.343 -1.5741  1.4215  0.3352
 6212TIP3    H240196   0.019   1.299   2.216 -0.2016 -0.2545 -0.7830
 6213TIP3   OH240197   2.131   2.237   8.162  0.2846  0.2881  0.1015
 6213TIP3    H140198   2.208   2.286   8.190  0.0913  1.4859 -1.3186
 6213TIP3    H240199   2.165   2.151   8.136  0.9163  0.3012  0.8583
 6214TIP3   OH240200   6.731   0.513   7.681  0.1424 -0.1195  0.8434
 6214TIP3    H140201   6.805   0.538   7.736 -1.0295  1.8093  1.6475
 6214TIP3    H240202   6.728   0.581   7.613 -1.9098  0.8910  1.8656
 6215TIP3   OH240203   3.783   0.445   8.007 -0.3471 -0.1531  0.1681
 6215TIP3    H140204   3.740   0.411   7.929  1.2456 -2.1275  0.0650
 6215TIP3    H240205   3.857   0.496   7.973 -0.8715  0.7781  0.3871
 6216TIP3   OH240206   0.796   2.913   2.613  0.1701  0.2858  0.4267
 6216TIP3    H140207   0.790   2.849   2.684  0.0034 -0.4417 -0.2315
 6216TIP3    H240208   0.890   2.919   2.594  0.1925  0.2962  0.5409
 6217TIP3   OH240209   3.808   6.647   8.524 -0.2128 -0.2665 -0.8094
 6217TIP3    H140210   3.870   6.704   8.570  3.2709 -2.6665 -2.1557
 6217TIP3    H240211   3.787   6.693   8.443 -0.9334  0.9419  0.0381
 6218TIP3   OH240212   1.201   1.662   1.358 -0.3189 -0.0884 -0.1647
 6218TIP3    H140213   1.257   1.713   1.299 -0.7909 -0.0772 -0.6035
 6218TIP3    H240214   1.216   1.701   1.445 -0.6123  0.7381 -0.4792
 6219TIP3   OH240215   4.931   1.075   0.536  0.0618 -0.2282  0.3225
 6219TIP3    H140216   4.866   1.026   0.588  0.5571 -0.0562  1.1191
 6219TIP3    H240217   4.953   1.151   0.591  0.0780  0.3302 -0.4502
 6220TIP3   OH240218   0.680   3.566   2.250 -0.0842  0.5050  0.5068
 6220TIP3    H140219   0.601   3.523   2.283 -0.0318  0.9989  1.3149
 6220TIP3    H240220   0.695   3.526   2.165 -0.5787 -0.3824  0.8169
 6221TIP3   OH240221   2.878   0.114   2.049 -0.3109  0.0322 -0.0777
 6221TIP3    H140222   2.843   0.191   2.094  0.2181  0.5357 -0.5099
 6221TIP3    H240223   2.882   0.047   2.117  1.4004  1.0597  0.9168
 6222TIP3   OH240224   4.813   2.113   2.674  0.3489 -0.4399 -0.2290
 6222TIP3    H140225   4.806   2.039   2.613 -0.1068  0.6755 -1.5921
 6222TIP3    H240226   4.726   2.121   2.712  0.5286 -0.8968  0.2843
 6223TIP3   OH240227   2.530   1.404   8.308 -0.4383 -0.0967  0.1783
 6223TIP3    H140228   2.517   1.440   8.220  0.3705  1.1713  0.5535
 6223TIP3    H240229   2.547   1.311   8.293 -3.1061 -0.5334 -0.7942
 6224TIP3   OH240230   3.136   2.537   0.598 -0.1590  0.2523  0.0516
 6224TIP3    H140231   3.109   2.457   0.644 -0.9410  0.5107  0.0663
 6224TIP3    H240232   3.116   2.608   0.660 -0.5054  0.5433 -0.3869
 6225TIP3   OH240233   0.359   2.903   0.669 -0.3793  0.5044  0.1920
 6225TIP3    H140234   0.297   2.972   0.695  0.2050  1.5780 -1.1280
 6225TIP3    H240235   0.445   2.943   0.682  0.0880 -0.9713  2.0045
 6226TIP3   OH240236   3.635   2.798   0.727 -0.6305  0.5236  0.3808
 6226TIP3    H140237   3.579   2.768   0.799  0.2657 -0.4162  0.7205
 6226TIP3    H240238   3.589   2.771   0.648 -0.8555  0.1406  0.6395
 6227TIP3   OH240239   0.474   0.196   2.289  0.1581  0.2362 -0.2435
 6227TIP3    H140240   0.556   0.162   2.251 -0.1946  0.0164 -0.8294
 6227TIP3    H240241   0.433   0.242   2.216  0.0708  0.9128  0.2313
 6228TIP3   OH240242   2.303   1.471   0.784  0.2138  0.6289 -0.0444
 6228TIP3    H140243   2.286   1.517   0.702 -0.9725  1.1243  0.4516
 6228TIP3    H240244   2.264   1.527   0.851 -0.3036 -0.5652  0.6896
 6229TIP3   OH240245   6.146   2.082   8.192 -0.4058  0.1016  0.9442
 6229TIP3    H140246   6.162   2.166   8.235 -0.5376 -0.6424  2.5255
 6229TIP3    H240247   6.086   2.102   8.121  1.0622  1.6293  0.0656
 6230TIP3   OH240248   4.672   5.005   3.796  0.0932  0.3750 -0.6291
 6230TIP3    H140249   4.654   5.077   3.857 -0.0770 -0.4328  0.2966
 6230TIP3    H240250   4.591   4.954   3.795  0.1583  0.2837 -1.4056
 6231TIP3   OH240251   4.868   5.689   0.755  0.2498 -0.3660 -0.0194
 6231TIP3    H140252   4.954   5.653   0.774 -0.3329 -1.2236  1.0655
 6231TIP3    H240253   4.843   5.736   0.835 -1.0206 -1.6071  0.3369
 6232TIP3   OH240254   4.058   0.320   2.541  0.6219 -0.3144  0.1654
 6232TIP3    H140255   3.979   0.372   2.556  1.6412  1.3584 -0.0018
 6232TIP3    H240256   4.028   0.230   2.543 -1.6215  0.2945 -1.6990
 6233TIP3   OH240257   0.277   5.604   7.959 -0.0918 -0.0251  0.3328
 6233TIP3    H140258   0.280   5.569   7.870  1.9700  1.4875 -0.2616
 6233TIP3    H240259   0.224   5.541   8.008 -0.0376 -1.6705 -1.6101
 6234TIP3   OH240260   2.644   5.101   1.280 -0.3862 -0.1471  0.0840
 6234TIP3    H140261   2.635   5.024   1.223  1.5133  1.4676 -2.6163
 6234TIP3    H240262   2.677   5.066   1.363  1.6948 -2.1716 -1.4694
 6235TIP3   OH240263   6.173   5.965   2.061  0.6440  0.3854 -0.4649
 6235TIP3    H140264   6.116   5.951   1.985  0.5892 -0.3845 -0.2839
 6235TIP3    H240265   6.159   5.889   2.117  1.7985  0.2032 -0.3820
 6236TIP3   OH240266   5.892   0.851   0.987  0.6451  0.1971  0.0355
 6236TIP3    H140267   5.870   0.915   0.919  0.4731 -0.0783 -0.1674
 6236TIP3    H240268   5.832   0.871   1.059 -1.1651 -1.3322 -0.9714
 6237TIP3   OH240269   5.881   6.192   1.390  0.0018 -0.2104 -0.1121
 6237TIP3    H140270   5.940   6.132   1.344 -2.6461 -0.7753 -3.1953
 6237TIP3    H240271   5.794   6.152   1.380 -1.2925  1.8730  1.8082
 6238TIP3   OH240272   5.677   1.270   1.152  0.3622 -0.0974 -0.3223
 6238TIP3    H140273   5.678   1.363   1.176 -0.3035  0.0156 -0.6952
 6238TIP3    H240274   5.652   1.224   1.232  2.9246 -0.1896  0.5023
 6239TIP3   OH240275   4.669   3.045   0.905 -0.2582  0.0418 -0.1454
 6239TIP3    H140276   4.712   3.130   0.912  1.0428 -0.7164  2.3743
 6239TIP3    H240277   4.630   3.030   0.991 -0.8647 -1.7030 -0.6691
 6240TIP3   OH240278   1.909   5.762   3.904  0.2676 -0.8798 -0.1621
 6240TIP3    H140279   1.868   5.813   3.975 -1.4786 -0.3102 -1.5051
 6240TIP3    H240280   1.836   5.716   3.863  1.6790 -4.0217  0.5525
 6241TIP3   OH240281   1.800   2.302   4.205  0.3104  0.3885 -0.2269
 6241TIP3    H140282   1.819   2.379   4.259  0.0619 -0.2423  0.8088
 6241TIP3    H240283   1.885   2.264   4.186  0.3381 -0.2751  1.1123
 6242TIP3   OH240284   4.370   2.009   3.183  0.0619  0.0350  0.0850
 6242TIP3    H140285   4.275   1.999   3.190  0.1373  0.0705  1.5890
 6242TIP3    H240286   4.394   1.960   3.105 -1.2347  0.3195 -0.5115
 6243TIP3   OH240287   2.516   1.160   7.445  0.3226 -0.5299  0.2913
 6243TIP3    H140288   2.447   1.217   7.410  0.3795 -0.6657 -0.0426
 6243TIP3    H240289   2.494   1.073   7.412  1.9044 -0.2356 -1.7324
 6244TIP3   OH240290   6.712   5.168   0.118  0.4636  0.4304  0.4365
 6244TIP3    H140291   6.769   5.103   0.078 -0.8823 -0.1252 -0.6881
 6244TIP3    H240292   6.640   5.178   0.056 -1.0627  0.5216  2.1345
 6245TIP3   OH240293   4.170   1.430   1.679  0.3530  0.3285  0.1038
 6245TIP3    H140294   4.203   1.496   1.618  1.1020  0.3384  0.5064
 6245TIP3    H240295   4.084   1.462   1.705  0.4441  0.8245 -0.1950
 6246TIP3   OH240296   4.480   0.868   2.627  0.1671  0.0320  0.3750
 6246TIP3    H140297   4.563   0.865   2.675 -0.7226  1.5238  2.1413
 6246TIP3    H240298   4.474   0.959   2.598 -0.4362 -0.2949 -0.5510
 6247TIP3   OH240299   5.546   4.933   1.487 -0.0102  0.4370 -0.1111
 6247TIP3    H140300   5.523   4.960   1.398  1.5455  1.8172 -0.1400
 6247TIP3    H240301   5.598   5.006   1.522 -1.1801  0.2550  2.1999
 6248TIP3   OH240302   3.436   6.561   8.646 -0.4332  0.0018 -0.2418
 6248TIP3    H140303   3.405   6.569   8.736  0.9257  1.0135  0.1668
 6248TIP3    H240304   3.492   6.484   8.646 -0.3345  0.0742 -0.2001
 6249TIP3   OH240305   1.274   0.772   2.616 -0.1926  0.1278 -0.0718
 6249TIP3    H140306   1.220   0.724   2.678  0.4211  0.8520  1.0622
 6249TIP3    H240307   1.248   0.863   2.626  0.4168  0.3434 -0.3577
 6250TIP3   OH240308   3.820   3.590   1.396 -0.1345 -0.3696 -0.3609
 6250TIP3    H140309   3.788   3.658   1.456  3.3216  2.0547 -0.9857
 6250TIP3    H240310   3.820   3.632   1.310 -0.1083 -2.0107 -1.1996
 6251TIP3   OH240311   2.893   2.224   1.462  0.0065 -0.0532  0.0537
 6251TIP3    H140312   2.967   2.201   1.518  0.0502  0.4191  0.1921
 6251TIP3    H240313   2.880   2.317   1.477 -0.3637 -0.0519 -0.2733
 6252TIP3   OH240314   5.665   0.778   8.252  0.0946 -0.2248  0.3912
 6252TIP3    H140315   5.754   0.769   8.218 -0.1455 -3.0213  0.2484
 6252TIP3    H240316   5.624   0.843   8.195  1.4279 -0.5134 -0.9684
 6253TIP3   OH240317   4.089   1.698   1.892 -0.1267  0.5497 -0.0571
 6253TIP3    H140318   4.165   1.698   1.832  0.2023 -0.2681  0.3454
 6253TIP3    H240319   4.029   1.635   1.853 -0.1390  0.4069  0.1973
 6254TIP3   OH240320   0.125   1.014   3.366  0.1138  0.1236 -0.1485
 6254TIP3    H140321   0.177   0.998   3.445 -0.1711  1.9407  0.4588
 6254TIP3    H240322   0.041   1.045   3.399 -1.1050 -1.9185 -1.1390
 6255TIP3   OH240323   4.587   6.243   1.583 -0.3406 -0.9061 -0.0691
 6255TIP3    H140324   4.675   6.220   1.612  0.1275 -0.6530 -1.2397
 6255TIP3    H240325   4.560   6.313   1.642  0.4078 -0.6927  0.0265
 6256TIP3   OH240326   1.705   1.205   7.578  0.3039 -0.6385 -0.1081
 6256TIP3    H140327   1.720   1.280   7.636 -1.4201 -1.0431  0.9360
 6256TIP3    H240328   1.673   1.136   7.636  1.9960 -2.2677 -1.0158
 6257TIP3   OH240329   2.275   2.174   2.704  0.0302  0.6205  0.3726
 6257TIP3    H140330   2.255   2.235   2.775 -0.8094  0.7404  0.0378
 6257TIP3    H240331   2.295   2.230   2.629  1.1084  0.4976  0.5426
 6258TIP3   OH240332   6.404   6.816   1.544  0.0063 -0.0065  0.6514
 6258TIP3    H140333   6.355   6.739   1.516  1.2257 -0.5386 -0.1462
 6258TIP3    H240334   6.364   6.842   1.627 -0.4102 -1.5383  0.9652
 6259TIP3   OH240335   5.133   4.299   1.309  0.2838  1.1872  0.1844
 6259TIP3    H140336   5.046   4.259   1.317  0.9535 -1.0062 -2.0776
 6259TIP3    H240337   5.154   4.330   1.397 -2.1232  0.3426  1.1258
 6260TIP3   OH240338   2.091   2.900   2.263  0.2943  0.0690 -0.1562
 6260TIP3    H140339   2.051   2.924   2.180  0.1738  0.4666  0.0130
 6260TIP3    H240340   2.166   2.959   2.271 -1.5000  2.3015  1.5099
 6261TIP3   OH240341   5.896   2.266   1.815 -0.3003  0.2853  0.0365
 6261TIP3    H140342   5.942   2.212   1.750 -0.0549  0.8229 -0.2400
 6261TIP3    H240343   5.891   2.353   1.775  0.4539  0.7951  1.0270
 6262TIP3   OH240344   3.310   0.582   2.044  0.1849 -0.5802  0.2226
 6262TIP3    H140345   3.403   0.591   2.062  0.5258  0.6660 -1.8715
 6262TIP3    H240346   3.276   0.672   2.047 -0.7950 -0.9332  0.1488
 6263TIP3   OH240347   6.264   1.972   3.231  0.0360  0.1510  0.1766
 6263TIP3    H140348   6.238   1.887   3.267 -2.2819  0.9744  0.6494
 6263TIP3    H240349   6.321   1.951   3.158  1.2163 -1.7247  1.5534
 6264TIP3   OH240350   3.111   4.424   0.760 -0.0222  0.5242 -0.2942
 6264TIP3    H140351   3.091   4.501   0.813 -2.8050  0.1418 -0.6577
 6264TIP3    H240352   3.170   4.457   0.692  0.8076  1.7597  0.9548
 6265TIP3   OH240353   6.604   0.658   3.288 -0.6094 -0.5588  0.0642
 6265TIP3    H140354   6.577   0.715   3.215  0.0304  0.5402  0.6531
 6265TIP3    H240355   6.612   0.718   3.363  0.6189 -1.3244  0.5745
 6266TIP3   OH240356   3.774   6.379   0.646  0.3424 -0.2780 -0.2049
 6266TIP3    H140357   3.769   6.356   0.739 -1.5759 -0.4237 -0.2966
 6266TIP3    H240358   3.719   6.457   0.638 -0.3553 -0.8538 -1.3532
 6267TIP3   OH240359   3.562   0.172   0.571 -0.2547  0.1196 -0.5804
 6267TIP3    H140360   3.520   0.237   0.515 -1.6849  0.0251  0.3407
 6267TIP3    H240361   3.496   0.149   0.636  1.0497 -0.4248  0.6222
 6268TIP3   OH240362   1.213   4.889   0.197 -1.0503 -0.4298 -0.0734
 6268TIP3    H140363   1.297   4.909   0.238 -1.0449  2.5151 -1.2910
 6268TIP3    H240364   1.194   4.799   0.224  2.3941 -1.1566  0.3451
 6269TIP3   OH240365   4.994   1.219   1.201 -0.5579 -0.0374 -0.4606
 6269TIP3    H140366   5.036   1.153   1.257 -1.0014 -0.4461 -0.5978
 6269TIP3    H240367   5.023   1.303   1.236 -1.8357 -0.2454  1.2109
 6270TIP3   OH240368   3.914   5.413   0.488 -0.3744  0.5608  0.0832
 6270TIP3    H140369   3.989   5.355   0.501  0.0512  0.5683 -1.9613
 6270TIP3    H240370   3.947   5.500   0.509  0.7968  0.8153 -2.4013
 6271TIP3   OH240371   3.096   5.156   0.860 -0.2529  0.2386 -0.7404
 6271TIP3    H140372   3.063   5.090   0.799 -0.7722  1.0854 -1.3955
 6271TIP3    H240373   3.190   5.140   0.863 -0.4417 -0.9659 -0.3507
 6272TIP3   OH240374   4.615   1.760   0.034  0.5636 -0.4872  0.3577
 6272TIP3    H140375   4.556   1.835   0.033  0.1149 -0.8230  0.6607
 6272TIP3    H240376   4.671   1.775   0.111  0.6453 -0.3374  0.2693
 6273TIP3   OH240377   4.594   0.120   8.449  0.1879  0.4424  0.2239
 6273TIP3    H140378   4.566   0.186   8.386  2.3447  0.7879 -0.4614
 6273TIP3    H240379   4.682   0.147   8.475  0.1737 -0.8569  1.7988
 6274TIP3   OH240380   6.678   4.746   8.230  0.2939  0.2445 -0.0943
 6274TIP3    H140381   6.685   4.678   8.163  0.2540  0.6903 -0.5574
 6274TIP3    H240382   6.671   4.828   8.181  1.3553  0.6931  0.4657
 6275TIP3   OH240383   4.894   6.805   8.210  0.0846  0.0691 -0.4928
 6275TIP3    H140384   4.856   6.825   8.124  0.4531  4.0668  0.0879
 6275TIP3    H240385   4.820   6.807   8.270  0.1030 -0.6110 -0.4477
 6276TIP3   OH240386   3.746   2.455   1.995  0.4025 -0.1679  0.7492
 6276TIP3    H140387   3.690   2.458   1.918 -0.8159  1.2819  1.6404
 6276TIP3    H240388   3.783   2.367   1.994 -1.3683 -0.9504 -0.2351
 6277TIP3   OH240389   3.801   2.252   8.301 -0.3374 -0.3444  0.2111
 6277TIP3    H140390   3.797   2.347   8.307  0.9809 -0.2575  0.1925
 6277TIP3    H240391   3.724   2.221   8.348 -2.4243  0.7424 -2.2730
 6278TIP3   OH240392   1.330   1.447   8.512  0.2492  0.1520  0.4096
 6278TIP3    H140393   1.269   1.376   8.531  0.2240 -0.0298 -0.3215
 6278TIP3    H240394   1.287   1.498   8.443  0.8449  0.1216  0.0089
 6279TIP3   OH240395   5.092   3.760   2.425 -0.1265 -0.4454  0.3026
 6279TIP3    H140396   5.118   3.672   2.399 -1.6816 -1.0673  0.6938
 6279TIP3    H240397   5.063   3.750   2.516  1.0462  0.7835  0.8477
 6280TIP3   OH240398   6.629   2.889   1.524 -0.0592  0.3748  0.4069
 6280TIP3    H140399   6.658   2.979   1.512 -1.5544  0.7503 -0.6695
 6280TIP3    H240400   6.560   2.895   1.591  0.2162 -0.0555  0.7348
 6281TIP3   OH240401   1.386   0.453   2.664  0.5878 -0.2814  0.4300
 6281TIP3    H140402   1.436   0.407   2.596 -0.9169  0.1053 -1.0211
 6281TIP3    H240403   1.298   0.414   2.659 -0.7242  2.5267 -0.7909
 6282TIP3   OH240404   3.834   4.072   3.401  0.5268  0.0138  0.6174
 6282TIP3    H140405   3.913   4.022   3.421 -0.3551 -1.1252  1.4328
 6282TIP3    H240406   3.825   4.134   3.473  1.2695  0.9282 -0.0587
 6283TIP3   OH240407   1.364   2.817   2.138  0.0386  0.3266 -0.3263
 6283TIP3    H140408   1.423   2.781   2.204 -0.8426  0.9557  0.8432
 6283TIP3    H240409   1.423   2.849   2.069  0.9570 -0.7276 -0.0615
 6284TIP3   OH240410   2.458   5.021   3.187  0.6720 -0.3994  0.0282
 6284TIP3    H140411   2.391   5.061   3.243 -1.8815 -0.0618 -3.0235
 6284TIP3    H240412   2.496   5.094   3.139 -0.9609 -1.0483 -2.4242
 6285TIP3   OH240413   2.513   0.442   1.403 -0.5289  0.8421 -0.0671
 6285TIP3    H140414   2.533   0.361   1.449  1.6640  1.4855  0.2050
 6285TIP3    H240415   2.468   0.496   1.467 -0.3798  0.5142  0.3159
 6286TIP3   OH240416   1.882   2.094   0.388 -0.1988  0.6144 -0.1359
 6286TIP3    H140417   1.916   2.067   0.303 -1.4528  0.0828 -0.4898
 6286TIP3    H240418   1.939   2.166   0.415 -0.0824  1.1212 -1.6474
 6287TIP3   OH240419   2.743   6.361   7.764  0.3868  0.4857  0.1077
 6287TIP3    H140420   2.721   6.268   7.754  2.8386 -0.1506  0.1582
 6287TIP3    H240421   2.821   6.361   7.819 -0.6747  2.7334  1.7779
 6288TIP3   OH240422   4.157   3.602   2.118  0.0744  0.3076  0.0017
 6288TIP3    H140423   4.222   3.661   2.155  1.8995 -1.4473 -0.2487
 6288TIP3    H240424   4.124   3.552   2.192 -0.6442  0.8175  0.0455
 6289TIP3   OH240425   1.999   4.427   0.988 -0.2625 -0.1484 -0.4324
 6289TIP3    H140426   1.918   4.393   1.025  0.0585  0.7933  1.2407
 6289TIP3    H240427   1.971   4.484   0.917 -0.9989 -0.7457 -0.6273
 6290TIP3   OH240428   1.198   4.125   2.233  0.1614  0.1205 -0.3380
 6290TIP3    H140429   1.193   4.118   2.328 -0.1027  2.7364 -0.0789
 6290TIP3    H240430   1.289   4.148   2.215  0.7713 -2.5213 -0.9781
 6291TIP3   OH240431   0.205   1.362   0.619 -0.4499 -0.1061 -0.3713
 6291TIP3    H140432   0.131   1.417   0.595 -0.1100  0.1132 -0.9180
 6291TIP3    H240433   0.196   1.350   0.714 -0.1535  1.4470 -0.1210
 6292TIP3   OH240434   1.880   3.782   1.043 -0.1613 -0.2202 -0.1837
 6292TIP3    H140435   1.964   3.808   1.006 -0.3420  1.0747  0.2615
 6292TIP3    H240436   1.886   3.687   1.052  1.1883 -0.1622 -0.3134
 6293TIP3   OH240437   1.071   4.054   0.629  0.2691 -0.0149  0.6358
 6293TIP3    H140438   0.990   4.009   0.651  0.6846 -1.4277 -0.5079
 6293TIP3    H240439   1.077   4.126   0.692 -1.3053 -0.5348  1.4339
 6294TIP3   OH240440   1.516   1.380   0.256 -0.1551 -0.5055  0.1345
 6294TIP3    H140441   1.523   1.435   0.334 -0.6126 -0.6692  0.2948
 6294TIP3    H240442   1.555   1.432   0.186 -0.9431  0.1911  0.2057
 6295TIP3   OH240443   4.328   0.037   3.086  0.0782 -0.3853  0.2508
 6295TIP3    H140444   4.297  -0.049   3.114  0.8090 -0.8014 -0.1792
 6295TIP3    H240445   4.357   0.024   2.996 -1.0223  0.6264 -0.2732
 6296TIP3   OH240446   0.754   0.740   2.688  0.0160  0.5691  0.0244
 6296TIP3    H140447   0.739   0.761   2.596 -2.3816  1.5944  0.5523
 6296TIP3    H240448   0.730   0.820   2.735 -3.6917 -1.3120  1.7841
 6297TIP3   OH240449   2.649   4.689   3.691 -0.4517 -0.2466 -0.1649
 6297TIP3    H140450   2.684   4.685   3.781 -0.6561  0.3031 -0.0583
 6297TIP3    H240451   2.603   4.606   3.680  1.4788 -1.3315 -0.5578
 6298TIP3   OH240452   3.123   3.378   1.953 -0.1441 -0.2081  0.6032
 6298TIP3    H140453   3.094   3.287   1.938 -1.9197  0.6313 -1.7401
 6298TIP3    H240454   3.151   3.408   1.867  1.6825  1.1155  1.5964
 6299TIP3   OH240455   3.877   5.566   0.921 -0.3859 -0.0645  0.0133
 6299TIP3    H140456   3.809   5.509   0.887 -0.9270  0.7725 -0.3347
 6299TIP3    H240457   3.848   5.589   1.009 -0.3464 -0.0295  0.0175
 6300TIP3   OH240458   1.917   6.193   8.376 -0.7352  0.3201 -0.8020
 6300TIP3    H140459   1.990   6.144   8.339 -0.0060  1.5168 -1.0090
 6300TIP3    H240460   1.844   6.176   8.317 -0.7385 -1.1489 -0.4155
 6301TIP3   OH240461   3.058   1.303   7.403 -0.2330 -0.2080 -0.1114
 6301TIP3    H140462   3.000   1.348   7.465  1.2532  1.6668  0.0184
 6301TIP3    H240463   3.054   1.211   7.429 -0.9166  0.2904  1.7044
 6302TIP3   OH240464   5.767   6.432   2.101  0.2493  0.0529  0.2667
 6302TIP3    H140465   5.773   6.406   2.009  0.0912 -0.6921  0.4612
 6302TIP3    H240466   5.769   6.349   2.150 -1.2227  0.3207  0.8471
 6303TIP3   OH240467   4.280   1.729   0.719  0.2398 -0.2845 -0.2004
 6303TIP3    H140468   4.342   1.761   0.653 -1.9927  0.4409 -2.1168
 6303TIP3    H240469   4.257   1.807   0.769 -0.5018 -0.1229 -0.7633
 6304TIP3   OH240470   1.641   3.533   1.815  0.4145  0.0507  0.0113
 6304TIP3    H140471   1.574   3.531   1.884  0.6403 -0.3422  0.2244
 6304TIP3    H240472   1.708   3.593   1.849  1.1834 -1.1778  0.7729
 6305TIP3   OH240473   0.577   2.488   3.153  0.7093 -0.2121  0.4856
 6305TIP3    H140474   0.670   2.483   3.176  0.4840  0.2970  1.5502
 6305TIP3    H240475   0.542   2.556   3.210 -0.1265  0.2788 -0.5853
 6306TIP3   OH240476   1.761   6.771   0.894 -0.3752  0.0461 -0.5365
 6306TIP3    H140477   1.788   6.700   0.836 -1.8474 -0.1005 -1.0823
 6306TIP3    H240478   1.810   6.757   0.975  1.8181  0.3083 -1.7332
 6307TIP3   OH240479   2.927   1.069   8.553 -0.4808 -0.0242  0.3252
 6307TIP3    H140480   3.017   1.075   8.523 -1.1379  1.0511 -1.6300
 6307TIP3    H240481   2.909   1.153   8.594 -0.4953 -0.3686  1.0361
 6308TIP3   OH240482   2.288   0.470   2.281 -0.0153  0.4331  0.3629
 6308TIP3    H140483   2.219   0.404   2.275 -0.8552  1.2081  1.1635
 6308TIP3    H240484   2.365   0.422   2.310 -0.3489 -0.3531 -0.0283
 6309TIP3   OH240485   5.730   2.649   1.310  0.0462  0.6368 -0.1355
 6309TIP3    H140486   5.641   2.614   1.310  0.3953 -0.2821  0.6391
 6309TIP3    H240487   5.750   2.665   1.217 -0.6239  0.0841 -0.3760
 6310TIP3   OH240488   3.492   4.867   0.811  0.2306 -0.7254 -0.2434
 6310TIP3    H140489   3.469   4.777   0.788  1.4056 -1.3776  0.9510
 6310TIP3    H240490   3.463   4.920   0.736  0.9845 -2.3020 -1.7131
 6311TIP3   OH240491   4.969   4.198   2.524 -0.2644  0.0275 -0.0997
 6311TIP3    H140492   4.927   4.180   2.608  1.2870  2.0691  1.2055
 6311TIP3    H240493   5.057   4.160   2.532 -0.2169 -0.0638 -0.9442
 6312TIP3   OH240494   5.513   1.755   1.228  0.7686 -0.2752  0.0020
 6312TIP3    H140495   5.476   1.752   1.140  3.1998  0.3389 -1.1354
 6312TIP3    H240496   5.495   1.843   1.259  0.9990 -0.0698 -0.4311
 6313TIP3   OH240497   0.210   4.093   1.667  0.5366 -0.3776 -0.1275
 6313TIP3    H140498   0.166   4.178   1.658 -1.6954 -1.5165 -0.6661
 6313TIP3    H240499   0.236   4.089   1.759 -1.0205  0.1291  0.3619
 6314TIP3   OH240500   1.243   4.322   1.902 -0.2608 -0.3531  0.3976
 6314TIP3    H140501   1.307   4.304   1.833 -0.6542  0.7064 -0.2844
 6314TIP3    H240502   1.274   4.273   1.977  0.3088 -1.3666 -0.4708
 6315TIP3   OH240503   5.836   4.558   0.097  0.2903  0.2107 -0.6424
 6315TIP3    H140504   5.842   4.642   0.144  0.2665  0.3663 -0.9136
 6315TIP3    H240505   5.785   4.579   0.018 -1.3496 -0.4433  0.1866
 6316TIP3   OH240506   0.905   3.816   2.894 -0.0191 -0.0396 -0.3362
 6316TIP3    H140507   0.988   3.802   2.848 -0.2334  1.9906 -1.4443
 6316TIP3    H240508   0.890   3.910   2.888 -1.6635 -0.1635  1.1853
 6317TIP3   OH240509   1.173   1.381   0.961 -0.5264 -0.1637  0.0777
 6317TIP3    H140510   1.118   1.422   0.895 -2.0090 -3.3052 -0.8233
 6317TIP3    H240511   1.219   1.311   0.914  1.3621 -0.0421  1.6233
 6318TIP3   OH240512   6.609   0.573   1.861  0.3144  0.3516  0.4427
 6318TIP3    H140513   6.636   0.566   1.953 -0.3201  3.0437  0.9248
 6318TIP3    H240514   6.654   0.651   1.829  0.9391 -0.8337 -1.7479
 6319TIP3   OH240515   4.882   4.413   0.615 -0.1527 -0.0893 -0.5927
 6319TIP3    H140516   4.901   4.466   0.692  1.0106  0.5528 -1.2860
 6319TIP3    H240517   4.787   4.404   0.614 -0.1727 -0.2974  1.0221
 6320TIP3   OH240518   1.412   4.551   0.983 -0.0264 -0.7134 -0.1623
 6320TIP3    H140519   1.373   4.473   0.944 -0.0569 -0.4603 -0.6413
 6320TIP3    H240520   1.339   4.596   1.027  0.0789 -1.1959  0.5249
 6321TIP3   OH240521   0.956   4.431   2.343  0.0350 -0.3146 -0.1645
 6321TIP3    H140522   0.884   4.494   2.342 -0.8120 -1.2460  0.3656
 6321TIP3    H240523   0.957   4.394   2.254 -0.5638 -0.7522  0.0060
 6322TIP3   OH240524   5.968   1.171   0.212  0.4060 -0.4886  0.0636
 6322TIP3    H140525   5.885   1.148   0.254 -0.0962  3.4092  1.7203
 6322TIP3    H240526   5.945   1.185   0.120 -0.5629 -0.5305  0.2838
 6323TIP3   OH240527   5.684   6.154   1.871  0.1026 -0.4099 -0.2003
 6323TIP3    H140528   5.674   6.195   1.785  1.1954 -0.7692 -0.5142
 6323TIP3    H240529   5.771   6.113   1.868  0.5195  0.2947  1.3663
 6324TIP3   OH240530   1.028   3.865   1.897 -0.0065  0.7528 -0.5034
 6324TIP3    H140531   1.038   3.810   1.819  1.0226  1.1922 -0.6983
 6324TIP3    H240532   0.969   3.935   1.870 -1.9027 -0.5813 -0.0544
 6325TIP3   OH240533   4.401   6.631   2.640 -0.1019 -0.6402 -0.3020
 6325TIP3    H140534   4.339   6.664   2.575  0.1999 -2.3610 -1.5356
 6325TIP3    H240535   4.345   6.591   2.707 -0.3802  0.2510  0.0209
 6326TIP3   OH240536   4.645   3.308   1.979 -0.0298  0.6494 -0.4477
 6326TIP3    H140537   4.628   3.374   2.046  0.2890  1.1829 -0.8883
 6326TIP3    H240538   4.587   3.235   2.003 -0.3559  1.0644  0.0655
 6327TIP3   OH240539   6.051   4.900   0.209 -0.1669  0.1034 -0.7080
 6327TIP3    H140540   6.020   4.985   0.239  0.4495  1.0906 -2.7060
 6327TIP3    H240541   5.994   4.878   0.135  0.5050 -0.5981 -1.0351
 6328TIP3   OH240542   6.552   1.203   8.418 -0.9377  0.8221  0.2163
 6328TIP3    H140543   6.618   1.159   8.364 -0.7375  0.8637  0.4235
 6328TIP3    H240544   6.503   1.257   8.357 -1.2996  0.1844 -0.0737
 6329TIP3   OH240545   0.456   0.304   0.838 -0.2664  0.0197  0.3844
 6329TIP3    H140546   0.401   0.381   0.848  0.1845  0.4193 -0.1434
 6329TIP3    H240547   0.448   0.281   0.745  0.9610  0.4808  0.1487
 6330TIP3   OH240548   4.616   1.017   1.882  0.4831  0.5249  0.4233
 6330TIP3    H140549   4.594   1.103   1.916 -0.4173  0.2232  0.6314
 6330TIP3    H240550   4.532   0.972   1.873  1.0938 -1.3188  2.8911
 6331TIP3   OH240551   4.188   0.111   2.417 -0.6229  0.1757 -0.0039
 6331TIP3    H140552   4.128   0.083   2.348 -0.9863  0.7136  0.0859
 6331TIP3    H240553   4.228   0.191   2.383 -0.3863  0.1357  0.1761
 6332TIP3   OH240554   4.017   0.202   0.746  0.3209  1.0157  0.4159
 6332TIP3    H140555   4.044   0.260   0.675  0.3974  1.6910  0.9837
 6332TIP3    H240556   3.924   0.217   0.756  0.1997  0.5055  0.0920
 6333TIP3   OH240557   0.122   0.792   2.147  0.1761 -0.3902  0.4153
 6333TIP3    H140558   0.140   0.880   2.181 -2.4659  1.0001 -1.4447
 6333TIP3    H240559   0.076   0.748   2.219  0.5732  0.1037  0.9808
 6334TIP3   OH240560   3.957   1.339   0.239  0.0218 -0.8251  0.2537
 6334TIP3    H140561   4.051   1.351   0.224  0.0306  2.1347  1.9059
 6334TIP3    H240562   3.948   1.345   0.334 -1.9700  0.1141  0.0385
 6335TIP3   OH240563   1.120   0.270   3.162  0.2380  0.5782  0.4759
 6335TIP3    H140564   1.107   0.253   3.255  0.4869 -0.6818  0.2872
 6335TIP3    H240565   1.036   0.248   3.122  0.2325  0.8151  0.3516
 6336TIP3   OH240566   1.134   6.661   1.564  0.0076  0.4096 -0.0488
 6336TIP3    H140567   1.201   6.656   1.496  0.3831 -0.5745  0.3710
 6336TIP3    H240568   1.160   6.736   1.618  0.2893  0.5590 -0.3896
 6337TIP3   OH240569   1.473   5.420   1.390  0.0208  0.7926 -0.1229
 6337TIP3    H140570   1.443   5.330   1.378  0.8604  0.4867  0.0416
 6337TIP3    H240571   1.562   5.412   1.424  0.3958  1.6837 -0.8479
 6338TIP3   OH240572   5.855   2.244   2.298 -0.0584  0.1205  0.0676
 6338TIP3    H140573   5.924   2.285   2.247 -0.4271  2.0126  1.0223
 6338TIP3    H240574   5.824   2.172   2.242  0.3541  1.3564 -1.8333
 6339TIP3   OH240575   1.318   5.157   1.653  0.1974  0.1023  0.0883
 6339TIP3    H140576   1.254   5.147   1.583  0.5814 -0.8201 -0.1434
 6339TIP3    H240577   1.315   5.250   1.675  0.6635  0.6048 -1.7335
 6340TIP3   OH240578   4.544   3.221   8.624  0.1160 -0.0152  0.2872
 6340TIP3    H140579   4.598   3.265   8.558  1.9554 -0.5730  1.3630
 6340TIP3    H240580   4.573   3.130   8.622 -0.0291 -0.1048  1.6201
 6341TIP3   OH240581   2.657   5.003   2.785 -0.0251 -0.2599 -0.1044
 6341TIP3    H140582   2.611   5.054   2.718 -1.0671 -0.7343  0.2328
 6341TIP3    H240583   2.666   5.062   2.859  0.6027  0.0739 -0.4326
 6342TIP3   OH240584   0.016   3.040   0.208  0.3863 -0.0781 -0.5842
 6342TIP3    H140585   0.022   3.003   0.296  1.0251  1.0694 -0.1252
 6342TIP3    H240586   0.106   3.037   0.175  0.3871  0.7255 -0.6686
 6343TIP3   OH240587   5.439   1.835   1.731 -0.1615  0.5624 -0.0318
 6343TIP3    H140588   5.440   1.740   1.742  0.5472  0.5173 -0.4617
 6343TIP3    H240589   5.380   1.850   1.656  0.7878  0.3571 -0.8370
 6344TIP3   OH240590   0.817   2.644   2.228  0.2762  0.3326 -0.4391
 6344TIP3    H140591   0.868   2.724   2.217  1.6180 -0.2107  1.2775
 6344TIP3    H240592   0.832   2.620   2.320 -0.5066 -1.6066 -0.7901
 6345TIP3   OH240593   4.065   5.036   1.696  0.3286 -0.0918 -0.1515
 6345TIP3    H140594   4.116   5.097   1.749 -1.3927  2.1428 -0.9402
 6345TIP3    H240595   4.095   5.051   1.606 -1.8220  1.4881 -0.6735
 6346TIP3   OH240596   5.368   2.104   2.954 -0.6079  0.4706 -0.4542
 6346TIP3    H140597   5.439   2.137   2.899  1.0155 -2.9753 -0.7007
 6346TIP3    H240598   5.410   2.081   3.037 -1.4193 -1.2708 -0.4649
 6347TIP3   OH240599   0.191   5.227   1.752 -0.0606  0.6103 -0.2000
 6347TIP3    H140600   0.154   5.308   1.788  1.5139 -0.0111  3.2265
 6347TIP3    H240601   0.277   5.252   1.720  0.5688  0.3080  1.1780
 6348TIP3   OH240602   0.700   2.608   1.547  0.3787  0.4104  0.0554
 6348TIP3    H140603   0.783   2.625   1.591  0.5158  0.2563 -0.1440
 6348TIP3    H240604   0.647   2.685   1.566  0.2290  0.0892  0.9756
 6349TIP3   OH240605   1.388   5.912   7.842 -0.1721 -0.0161  0.7569
 6349TIP3    H140606   1.473   5.954   7.856 -0.4720  0.0793  2.5100
 6349TIP3    H240607   1.375   5.915   7.747  0.1745  3.1374  0.7035
 6350TIP3   OH240608   4.715   2.749   2.810  0.0843 -0.0630 -0.0325
 6350TIP3    H140609   4.699   2.783   2.722  0.9102 -1.9389 -0.9586
 6350TIP3    H240610   4.643   2.784   2.862 -0.4664  1.0418 -1.4458
 6351TIP3   OH240611   5.122   5.897   3.118 -0.0216  0.5025  0.6136
 6351TIP3    H140612   5.045   5.936   3.077  0.7865 -0.1993 -1.7107
 6351TIP3    H240613   5.101   5.897   3.212 -2.6970  0.6412  0.1074
 6352TIP3   OH240614   6.301   4.958   0.107  0.0383 -0.4875  0.3831
 6352TIP3    H140615   6.310   5.052   0.122  0.5290 -0.4286 -0.2614
 6352TIP3    H240616   6.218   4.935   0.150 -2.4479  1.0565 -3.1152
 6353TIP3   OH240617   4.284   1.294   0.577 -0.3161 -0.3071  0.7706
 6353TIP3    H140618   4.363   1.271   0.529 -0.0877 -1.1695  1.5313
 6353TIP3    H240619   4.313   1.300   0.669 -1.3753 -1.9191  1.2363
 6354TIP3   OH240620   1.349   1.442   1.186 -0.6973 -1.0403 -0.4491
 6354TIP3    H140621   1.291   1.484   1.248 -0.2262 -1.3673  0.2227
 6354TIP3    H240622   1.292   1.414   1.114 -1.1559 -0.1492 -0.4423
 6355TIP3   OH240623   6.158   3.069   2.703 -0.0390  0.1494 -0.2738
 6355TIP3    H140624   6.163   3.071   2.799  1.0350  2.6147 -0.3195
 6355TIP3    H240625   6.103   2.993   2.684  1.6077 -1.8242  2.1815
 6356TIP3   OH240626   1.173   4.874   0.630 -0.5262  0.3415 -0.1202
 6356TIP3    H140627   1.179   4.952   0.686 -1.3179 -0.3635  0.9856
 6356TIP3    H240628   1.248   4.820   0.656 -1.7256 -0.6648  1.3712
 6357TIP3   OH240629   4.784   0.852   7.794 -0.6771 -0.0328 -0.1339
 6357TIP3    H140630   4.855   0.875   7.854 -1.5903 -0.3497  1.0988
 6357TIP3    H240631   4.817   0.776   7.746 -0.0079  0.1131  0.0832
 6358TIP3   OH240632   0.717   0.437   0.031  0.6687  0.1408  0.5502
 6358TIP3    H140633   0.727   0.353   0.076 -0.4123 -0.3598 -0.0928
 6358TIP3    H240634   0.688   0.498   0.098  0.1314 -0.3367  0.7594
 6359TIP3   OH240635   1.911   6.727   1.462  0.7939  0.1807  0.1403
 6359TIP3    H140636   1.944   6.817   1.461 -0.0788  0.5023 -0.2634
 6359TIP3    H240637   1.825   6.733   1.502  1.4222 -0.7372  1.7132
 6360TIP3   OH240638   5.823   4.817   1.632  0.1744 -0.5949  0.2659
 6360TIP3    H140639   5.866   4.741   1.592  0.6307  1.1939 -3.0411
 6360TIP3    H240640   5.744   4.782   1.672  0.9241 -2.9488 -0.1860
 6361TIP3   OH240641   4.722   6.852   0.725  0.0453 -0.0848 -0.1686
 6361TIP3    H140642   4.715   6.777   0.784  1.7849  0.0815  0.3040
 6361TIP3    H240643   4.761   6.817   0.645 -1.7932 -0.1962 -1.0891
 6362TIP3   OH240644   1.099   4.457   0.539  0.4314  0.3534  0.1433
 6362TIP3    H140645   1.098   4.492   0.450  0.8188  1.0611  0.4054
 6362TIP3    H240646   1.139   4.527   0.592  0.1053 -0.0099  0.8883
 6363TIP3   OH240647   6.785   1.367   8.312  0.6344  0.0934  0.2767
 6363TIP3    H140648   6.737   1.429   8.366  1.6040  1.3418 -0.2187
 6363TIP3    H240649   6.753   1.384   8.223 -0.7710 -1.7673  0.3736
 6364TIP3   OH240650   0.661   1.167   2.801  0.2305  0.6521 -0.6195
 6364TIP3    H140651   0.680   1.178   2.708  0.7457 -0.2439 -0.6298
 6364TIP3    H240652   0.744   1.186   2.845 -0.2600  2.0691 -0.2524
 6365TIP3   OH240653   1.020   6.605   0.779 -0.2630 -0.2906 -0.2336
 6365TIP3    H140654   1.100   6.625   0.828  0.3428 -1.9348 -0.4862
 6365TIP3    H240655   0.957   6.580   0.847 -0.3849  0.4101 -0.0808
 6366TIP3   OH240656   5.770   4.544   8.489 -0.0637 -0.1313  0.0097
 6366TIP3    H140657   5.859   4.578   8.475  0.0590  0.2484  1.5115
 6366TIP3    H240658   5.776   4.451   8.469  1.0626 -0.4174  1.5036
 6367TIP3   OH240659   2.564   1.666   2.497 -0.1042  0.5060  0.4693
 6367TIP3    H140660   2.599   1.619   2.422 -1.6687 -0.7221  0.4499
 6367TIP3    H240661   2.630   1.656   2.565  1.0546  1.1172 -0.5287
 6368TIP3   OH240662   0.814   5.953   1.567 -0.4205 -0.5910 -0.3402
 6368TIP3    H140663   0.787   5.993   1.485  0.7993 -1.3331 -1.1286
 6368TIP3    H240664   0.833   5.862   1.545 -0.1349 -0.8232  0.7790
 6369TIP3   OH240665   4.785   4.206   8.605 -0.0702 -0.7184  0.1802
 6369TIP3    H140666   4.834   4.198   8.686  1.2859  2.3243 -0.1787
 6369TIP3    H240667   4.727   4.281   8.619  0.8037  0.4475 -1.8419
 6370TIP3   OH240668   5.864   3.198   1.457 -0.0773  0.0626 -0.7242
 6370TIP3    H140669   5.796   3.264   1.471  0.5564  0.7707 -0.9110
 6370TIP3    H240670   5.887   3.207   1.364 -0.0147 -0.4591 -0.7646
 6371TIP3   OH240671   6.460   2.078   2.869  0.6505 -1.1453 -0.0179
 6371TIP3    H140672   6.505   1.994   2.864 -0.5696 -1.8531  0.4105
 6371TIP3    H240673   6.376   2.058   2.909  0.0717  0.1909 -0.5034
 6372TIP3   OH240674   5.476   6.129   2.993  0.0483  0.3121  0.6541
 6372TIP3    H140675   5.422   6.135   3.072  0.4882  0.2563  0.9707
 6372TIP3    H240676   5.454   6.206   2.942 -1.8431 -0.7557 -0.2252
 6373TIP3   OH240677   5.614   5.917   3.622 -0.2237  0.1039 -0.2500
 6373TIP3    H140678   5.655   5.962   3.696 -0.7477 -0.1065  0.1718
 6373TIP3    H240679   5.686   5.868   3.581 -0.1129 -0.5200  0.6725
 6374TIP3   OH240680   3.659   3.311   1.063 -0.3517 -0.0021 -0.1371
 6374TIP3    H140681   3.714   3.285   1.137  0.3409  0.5110 -0.4627
 6374TIP3    H240682   3.656   3.407   1.068 -1.1599 -0.0128 -0.1699
 6375TIP3   OH240683   4.182   5.438   8.370 -0.1998 -0.0184  0.1193
 6375TIP3    H140684   4.120   5.373   8.336  1.9515 -2.5944  0.8104
 6375TIP3    H240685   4.244   5.452   8.299  0.5796 -0.4192  0.7033
 6376TIP3   OH240686   0.139   0.686   1.261 -0.2512  0.4383 -0.1504
 6376TIP3    H140687   0.232   0.702   1.275  0.1321  1.3586 -3.0547
 6376TIP3    H240688   0.133   0.591   1.246  0.1605  0.3294  0.3539
 6377TIP3   OH240689   3.960   5.447   8.562 -0.6277 -0.0235 -0.0230
 6377TIP3    H140690   4.041   5.438   8.613 -0.8390  0.1490  0.3443
 6377TIP3    H240691   3.969   5.383   8.491 -0.8306 -1.0738  0.8754
 6378TIP3   OH240692   1.943   6.092   2.981 -0.1130  0.1688 -0.5373
 6378TIP3    H140693   1.876   6.153   2.951 -2.4873 -1.3540  1.3202
 6378TIP3    H240694   1.904   6.005   2.970  1.5472 -0.7977  0.5968
 6379TIP3   OH240695   2.190   2.083   0.992  0.5068  0.0215 -0.5726
 6379TIP3    H140696   2.180   2.045   1.079  0.1029 -2.2810 -1.5486
 6379TIP3    H240697   2.284   2.081   0.974  0.5146 -0.2237 -0.4972
 6380TIP3   OH240698   3.376   6.571   1.209 -0.0636 -0.5570 -0.1496
 6380TIP3    H140699   3.310   6.626   1.251 -0.5576 -0.5890 -0.8551
 6380TIP3    H240700   3.454   6.627   1.203 -0.8057  0.3899 -1.5914
 6381TIP3   OH240701   2.407   4.827   2.715 -0.6955  0.2927 -0.5409
 6381TIP3    H140702   2.314   4.820   2.695 -0.8808 -2.2600  0.8140
 6381TIP3    H240703   2.412   4.899   2.777 -1.7155  0.6777 -0.8821
 6382TIP3   OH240704   4.858   1.032   2.567 -0.0316  0.4558 -0.0416
 6382TIP3    H140705   4.876   1.079   2.648 -0.7270  1.9053 -0.7075
 6382TIP3    H240706   4.939   1.038   2.517  0.4108 -0.4713  0.5343
 6383TIP3   OH240707   6.715   4.456   0.054  0.5253  0.0871 -0.5735
 6383TIP3    H140708   6.669   4.450   0.138 -0.0535  1.1949 -0.7958
 6383TIP3    H240709   6.789   4.514   0.071  1.3062 -0.9168 -0.4600
 6384TIP3   OH240710   6.619   1.284   2.448 -0.0900 -0.0739 -0.7073
 6384TIP3    H140711   6.559   1.255   2.379 -0.4975 -0.5997 -0.1417
 6384TIP3    H240712   6.658   1.364   2.414 -2.4367  1.3040 -0.4006
 6385TIP3   OH240713   4.013   4.310   1.206  0.7704 -1.1489  0.0264
 6385TIP3    H140714   4.084   4.371   1.228 -0.6256  0.5429  0.0851
 6385TIP3    H240715   3.993   4.265   1.288  1.4584 -1.3079  0.1137
 6386TIP3   OH240716   3.559   1.857   1.375  0.1453 -0.3322 -0.0850
 6386TIP3    H140717   3.564   1.940   1.327 -0.3472 -0.4105 -0.2751
 6386TIP3    H240718   3.645   1.816   1.361  0.7570  0.5711  0.8039
 6387TIP3   OH240719   5.570   4.188   3.037 -0.0467 -0.2534  0.5963
 6387TIP3    H140720   5.645   4.245   3.024  0.1282 -0.4398  0.7891
 6387TIP3    H240721   5.497   4.235   2.996  0.0819  0.1363  0.8105
 6388TIP3   OH240722   5.097   3.323   3.327 -0.3695  0.0500 -0.0292
 6388TIP3    H140723   5.166   3.314   3.393 -1.2672  0.3724  1.0027
 6388TIP3    H240724   5.099   3.240   3.279  1.5592  0.5511 -0.8952
 6389TIP3   OH240725   0.285   1.698   2.864 -0.5868  0.3543 -0.4408
 6389TIP3    H140726   0.333   1.750   2.799  2.8521 -1.5582  0.3362
 6389TIP3    H240727   0.282   1.755   2.942  2.3895 -0.1038  0.1369
 6390TIP3   OH240728   5.743   6.121   8.572  0.0378  0.7449  0.4044
 6390TIP3    H140729   5.699   6.199   8.537 -0.1512  0.0609 -0.9401
 6390TIP3    H240730   5.701   6.048   8.528  1.0356 -0.0533  0.7421
 6391TIP3   OH240731   4.814   4.081   0.875  0.3755 -0.4661  0.1927
 6391TIP3    H140732   4.783   4.010   0.932  1.3259 -0.3829  0.8535
 6391TIP3    H240733   4.745   4.147   0.880 -0.5922 -1.3944 -0.5513
 6392TIP3   OH240734   3.608   6.858   8.238 -0.0834  0.4241  0.2405
 6392TIP3    H140735   3.703   6.850   8.234 -0.0742  0.0578  0.9248
 6392TIP3    H240736   3.586   6.832   8.328 -0.9096 -0.4220 -0.1807
 6393TIP3   OH240737   0.935   3.761   8.454 -0.1454  0.3926 -0.0282
 6393TIP3    H140738   0.931   3.713   8.370 -2.5949  0.8007 -0.2223
 6393TIP3    H240739   0.911   3.695   8.519 -0.6551  0.6386  0.0399
 6394TIP3   OH240740   3.115   0.279   8.624 -0.1778  0.4259  0.2418
 6394TIP3    H140741   3.042   0.253   8.568  0.4296 -1.2660  0.1668
 6394TIP3    H240742   3.193   0.271   8.568  0.1558  1.3259  0.5690
 6395TIP3   OH240743   2.077   5.862   3.718  0.4034  0.5450 -0.7433
 6395TIP3    H140744   2.018   5.825   3.783 -0.5845  2.3993 -0.5096
 6395TIP3    H240745   2.039   5.837   3.634 -0.4715  1.3158 -0.5911
 6396TIP3   OH240746   0.763   1.065   0.266  0.2993  0.0463 -0.0300
 6396TIP3    H140747   0.681   1.038   0.307 -0.8388 -0.8032 -2.6644
 6396TIP3    H240748   0.821   0.990   0.275  0.6200  0.4246  1.2909
 6397TIP3   OH240749   3.369   3.741   1.373  0.6170 -0.0856 -0.8727
 6397TIP3    H140750   3.429   3.667   1.374 -0.2442 -0.7999  0.2216
 6397TIP3    H240751   3.353   3.760   1.465 -0.9727 -0.0574 -1.1288
 6398TIP3   OH240752   1.804   4.804   2.309 -0.1171 -0.2697  0.7023
 6398TIP3    H140753   1.872   4.872   2.304  0.4211 -0.8525 -0.3132
 6398TIP3    H240754   1.848   4.729   2.348 -0.5369 -0.2421  1.2341
 6399TIP3   OH240755   5.998   3.040   1.701  0.6976 -0.0341  0.1448
 6399TIP3    H140756   5.961   3.076   1.782  0.9251  0.4949  0.0227
 6399TIP3    H240757   6.088   3.073   1.700  0.1606  1.4942 -1.2153
 6400TIP3   OH240758   5.547   5.718   2.225 -0.0201 -0.3230 -0.0600
 6400TIP3    H140759   5.459   5.679   2.232 -0.5574  0.6584 -0.9719
 6400TIP3    H240760   5.556   5.738   2.132  0.2344  1.6499  0.3400
 6401TIP3   OH240761   3.854   0.494   2.247  0.6024  0.3521  0.3656
 6401TIP3    H140762   3.808   0.554   2.305 -1.4024  0.0626 -0.8631
 6401TIP3    H240763   3.809   0.410   2.257  0.6109  0.1419 -1.1459
 6402TIP3   OH240764   1.961   2.951   2.734 -0.0917  0.0519 -0.1225
 6402TIP3    H140765   2.016   2.910   2.800 -0.7348 -0.1204  0.3140
 6402TIP3    H240766   1.911   3.017   2.782  0.0561  0.5236 -0.5986
 6403TIP3   OH240767   6.432   2.455   0.734 -0.3644 -0.4844  0.2164
 6403TIP3    H140768   6.352   2.412   0.762 -0.4266 -0.3021  0.3137
 6403TIP3    H240769   6.501   2.392   0.754 -0.5733 -1.0174 -0.6944
 6404TIP3   OH240770   6.098   2.587   1.618 -0.1242  0.4108 -0.8989
 6404TIP3    H140771   6.039   2.635   1.559 -0.3298  0.8073 -0.3791
 6404TIP3    H240772   6.119   2.650   1.687  0.4941  0.1027 -0.8011
 6405TIP3   OH240773   5.913   2.057   1.029  0.4124  0.0814 -0.2974
 6405TIP3    H140774   5.965   1.978   1.036  0.9471  0.4748  0.2545
 6405TIP3    H240775   5.977   2.128   1.023  0.0428  0.3234 -3.5234
 6406TIP3   OH240776   5.400   0.623   2.700  0.1220  0.2309 -0.6482
 6406TIP3    H140777   5.401   0.713   2.666 -0.2250  1.0360  1.2989
 6406TIP3    H240778   5.341   0.628   2.776  2.0674 -1.0170  1.0601
 6407TIP3   OH240779   4.321   5.556   1.544 -0.1221 -0.3253 -1.8483
 6407TIP3    H140780   4.391   5.563   1.608  0.6287 -1.1099 -2.5576
 6407TIP3    H240781   4.292   5.646   1.529 -0.1783 -0.1181 -0.5688
 6408TIP3   OH240782   0.493   5.514   2.970 -0.2251 -0.1247 -0.6163
 6408TIP3    H140783   0.430   5.584   2.955  0.8626  1.1497  0.5979
 6408TIP3    H240784   0.503   5.472   2.884 -2.5617 -0.2823 -0.8919
 6409TIP3   OH240785   3.188   0.251   0.816 -0.7282  0.0119  0.1070
 6409TIP3    H140786   3.211   0.216   0.730 -1.0349  1.3918 -0.5671
 6409TIP3    H240787   3.093   0.264   0.812 -0.6415  0.7938  0.3633
 6410TIP3   OH240788   4.157   1.943   2.421 -0.0469  0.4072 -0.6286
 6410TIP3    H140789   4.093   1.922   2.353 -0.6929  0.6186 -0.0938
 6410TIP3    H240790   4.133   2.031   2.450 -0.0685  0.1401  0.1927
 6411TIP3   OH240791   1.411   1.457   3.393  0.0764 -0.3594 -0.3151
 6411TIP3    H140792   1.477   1.474   3.326  0.2278 -1.5585 -0.4963
 6411TIP3    H240793   1.458   1.468   3.476  0.3757 -0.6580 -0.4384
 6412TIP3   OH240794   3.409   5.932   2.262 -0.0132 -0.6001 -0.3769
 6412TIP3    H140795   3.419   5.840   2.238 -0.0971 -0.8816  0.6130
 6412TIP3    H240796   3.488   5.974   2.227  0.2117 -1.1148 -0.5012
 6413TIP3   OH240797   1.387   6.827   8.606 -0.0127  0.5517  0.4311
 6413TIP3    H140798   1.433   6.876   8.674  1.6299  0.5320 -0.6271
 6413TIP3    H240799   1.436   6.845   8.526 -0.6768 -1.0788 -0.3835
 6414TIP3   OH240800   5.619   3.146   3.139 -0.0609  0.5394 -0.2354
 6414TIP3    H140801   5.592   3.056   3.153  2.3954 -0.0499  1.2840
 6414TIP3    H240802   5.668   3.145   3.057  0.1005  0.4723 -0.1370
 6415TIP3   OH240803   2.391   4.055   1.552  0.2666 -0.5852 -0.1468
 6415TIP3    H140804   2.320   4.081   1.493 -0.3572  0.9256  1.1607
 6415TIP3    H240805   2.470   4.089   1.511 -0.0952  0.0271 -0.3610
 6416TIP3   OH240806   5.873   5.081   2.569  0.1020  0.5384 -0.0775
 6416TIP3    H140807   5.812   5.092   2.641  0.2690 -0.5354  0.2512
 6416TIP3    H240808   5.954   5.122   2.598  1.1200 -2.3763  1.6404
 6417TIP3   OH240809   2.576   5.169   0.844 -0.1827  0.4172 -0.1069
 6417TIP3    H140810   2.580   5.144   0.752 -1.3245 -0.1537 -0.0133
 6417TIP3    H240811   2.564   5.086   0.891  1.5540  0.5633  0.6680
 6418TIP3   OH240812   2.509   5.527   3.350  0.5655 -0.0602  0.2696
 6418TIP3    H140813   2.492   5.471   3.426  0.0425  0.4594  0.5491
 6418TIP3    H240814   2.592   5.571   3.370 -0.6812  1.8044  1.6277
 6419TIP3   OH240815   1.121   6.484   1.293 -0.1323  0.1273 -0.4572
 6419TIP3    H140816   1.185   6.554   1.279  0.7530 -0.4521  0.5854
 6419TIP3    H240817   1.139   6.452   1.381 -0.9900 -0.9459 -0.6509
 6420TIP3   OH240818   1.536   0.287   8.069 -0.3275  0.2615  0.1698
 6420TIP3    H140819   1.547   0.257   7.979 -1.4657 -0.7437  0.3442
 6420TIP3    H240820   1.596   0.233   8.120 -0.8635 -0.3118  0.2094
 6421TIP3   OH240821   6.501   2.346   0.290  0.8053  0.2029 -0.2689
 6421TIP3    H140822   6.538   2.400   0.360  0.9898  0.3416 -0.4707
 6421TIP3    H240823   6.440   2.288   0.335  0.9664  0.2475  0.0167
 6422TIP3   OH240824   1.603   4.201   8.107 -0.9816  0.5387  0.4442
 6422TIP3    H140825   1.681   4.255   8.109  0.6993 -1.7021 -0.3726
 6422TIP3    H240826   1.549   4.233   8.180  0.3714  2.5603  0.6195
 6423TIP3   OH240827   3.297   1.642   3.137  0.0883  0.3689 -0.0547
 6423TIP3    H140828   3.267   1.608   3.052  0.1121  1.6233 -0.5828
 6423TIP3    H240829   3.364   1.580   3.165 -0.8734 -0.8150 -0.2897
 6424TIP3   OH240830   0.043   4.601   0.199 -0.1066  0.9798  0.4575
 6424TIP3    H140831   0.115   4.664   0.189  1.8492 -0.8888  1.7713
 6424TIP3    H240832   0.083   4.517   0.179 -2.4638  0.0467 -0.5559
 6425TIP3   OH240833   1.203   5.339   2.130  0.3106  0.3116 -0.2572
 6425TIP3    H140834   1.162   5.322   2.215  1.3157  2.2978  0.6776
 6425TIP3    H240835   1.134   5.378   2.077  0.0909  0.5368  0.1891
 6426TIP3   OH240836   5.339   3.499   2.756  0.1702 -0.0410 -0.1241
 6426TIP3    H140837   5.244   3.492   2.750  0.0215  0.8653  0.9803
 6426TIP3    H240838   5.369   3.409   2.767 -0.6366 -0.2337  0.5531
 6427TIP3   OH240839   2.303   4.911   0.513  0.2279 -0.2918  0.0139
 6427TIP3    H140840   2.260   4.902   0.428  0.5617  1.4190 -0.3689
 6427TIP3    H240841   2.231   4.913   0.576 -0.2690  1.8156 -0.5545
 6428TIP3   OH240842   0.989   6.398   3.679  0.1332 -0.2873 -0.4498
 6428TIP3    H140843   1.075   6.367   3.650 -0.2728 -0.8787 -1.0425
 6428TIP3    H240844   0.972   6.349   3.759  0.1935 -0.4284 -0.5231
 6429TIP3   OH240845   5.745   2.899   0.812 -0.0120 -0.7543  0.5139
 6429TIP3    H140846   5.705   2.872   0.729  1.9756 -4.0711  0.4643
 6429TIP3    H240847   5.693   2.974   0.840 -0.4188  0.9736 -3.9837
 6430TIP3   OH240848   3.368   5.964   0.326  0.1356  0.7874  0.7764
 6430TIP3    H140849   3.326   5.891   0.372 -0.5004  0.4131 -0.3580
 6430TIP3    H240850   3.424   6.005   0.392  0.9109 -1.0306  1.2937
 6431TIP3   OH240851   5.550   6.387   0.202  0.6234 -0.5257 -0.2924
 6431TIP3    H140852   5.462   6.350   0.195  0.2205  0.2506  0.4057
 6431TIP3    H240853   5.548   6.464   0.145  0.4475  0.1867  0.6491
 6432TIP3   OH240854   5.437   2.264   3.315  0.4634 -0.2581 -0.4578
 6432TIP3    H140855   5.448   2.206   3.240  0.3365 -2.4480  1.0954
 6432TIP3    H240856   5.517   2.250   3.367 -0.9597 -1.5731  1.5115
 6433TIP3   OH240857   1.043   3.733   1.411 -0.5411  0.5096  0.3027
 6433TIP3    H140858   1.069   3.787   1.486  2.5248 -0.7772  0.3096
 6433TIP3    H240859   1.060   3.643   1.440 -0.1658 -0.0752 -1.6329
 6434TIP3   OH240860   5.534   6.594   2.651 -0.2002  0.6749  0.1639
 6434TIP3    H140861   5.480   6.659   2.696  0.3017  1.3233 -0.1589
 6434TIP3    H240862   5.555   6.634   2.567 -1.0885 -0.5115 -0.6414
 6435TIP3   OH240863   1.158   0.630   1.409 -0.2637 -0.1551 -0.3375
 6435TIP3    H140864   1.168   0.547   1.455 -0.6244  0.5555  1.0863
 6435TIP3    H240865   1.075   0.623   1.363  0.2456 -0.9927 -1.1461
 6436TIP3   OH240866   0.295   2.070   0.595 -0.3003 -0.1833  0.2319
 6436TIP3    H140867   0.256   2.076   0.683 -1.9285  0.8011 -0.4997
 6436TIP3    H240868   0.331   2.157   0.579  1.2581 -0.7568  0.4325
 6437TIP3   OH240869   5.244   5.899   2.263  0.0574  0.4468  0.3310
 6437TIP3    H140870   5.326   5.851   2.248 -0.1275  0.1171  0.3613
 6437TIP3    H240871   5.223   5.936   2.178  1.0789  1.8832  0.6711
 6438TIP3   OH240872   6.660   3.080   2.890 -0.8786 -0.4231  0.0401
 6438TIP3    H140873   6.713   3.148   2.848 -1.0522  1.8604  3.1359
 6438TIP3    H240874   6.587   3.066   2.830  1.3431 -1.1072 -2.6839
 6439TIP3   OH240875   0.177   1.721   0.842  0.3987 -0.1603 -0.4190
 6439TIP3    H140876   0.192   1.628   0.826 -0.0007 -0.7183  2.0761
 6439TIP3    H240877   0.227   1.741   0.920  2.2553  2.3406 -2.0810
 6440TIP3   OH240878   2.746   2.396   0.553 -0.2735  0.2307 -0.1298
 6440TIP3    H140879   2.821   2.368   0.605  0.9840  0.4615 -1.7382
 6440TIP3    H240880   2.670   2.375   0.607  0.9150 -0.4515  1.3471
 6441TIP3   OH240881   2.985   0.193   2.989 -0.3957  0.1956  0.2528
 6441TIP3    H140882   2.953   0.200   3.079  0.3899  1.4582  0.4518
 6441TIP3    H240883   3.048   0.264   2.980  0.7268 -0.8951 -0.8116
 6442TIP3   OH240884   1.842   2.973   1.099 -0.1165 -0.5281 -0.1916
 6442TIP3    H140885   1.781   2.912   1.139 -0.0142 -3.0543 -3.4953
 6442TIP3    H240886   1.789   3.026   1.040  0.0922  1.5000  1.3151
 6443TIP3   OH240887   5.813   3.504   8.378 -0.3031  0.1696 -0.1425
 6443TIP3    H140888   5.820   3.441   8.307 -0.1408  0.8099 -0.6956
 6443TIP3    H240889   5.891   3.560   8.370  0.2242 -0.3332  1.1137
 6444TIP3   OH240890   3.421   3.979   1.209  0.3724 -0.1373  0.1856
 6444TIP3    H140891   3.360   3.978   1.135  0.9869 -1.8572 -0.3438
 6444TIP3    H240892   3.402   3.899   1.258 -0.2916  1.1598  2.1669
 6445TIP3   OH240893   5.633   2.929   1.181  0.0772  0.2873 -0.5457
 6445TIP3    H140894   5.612   2.922   1.274 -0.5605  0.4229 -0.6776
 6445TIP3    H240895   5.554   2.964   1.141  0.0481 -0.5744 -1.2676
 6446TIP3   OH240896   2.291   0.877   2.977 -0.1268  0.0545 -0.6175
 6446TIP3    H140897   2.283   0.836   3.063  0.4980 -0.0387 -0.5989
 6446TIP3    H240898   2.255   0.812   2.917  2.0116 -1.1261 -0.7353
 6447TIP3   OH240899   4.405   6.192   0.128  0.4351 -0.4381 -0.0914
 6447TIP3    H140900   4.420   6.125   0.060 -3.3479 -1.8349  0.2362
 6447TIP3    H240901   4.313   6.182   0.152  0.6495  2.5503  2.6204
 6448TIP3   OH240902   0.690   1.019   1.702  0.1052 -0.1206  0.3330
 6448TIP3    H140903   0.646   1.079   1.762  1.0737  0.8948  0.0605
 6448TIP3    H240904   0.619   0.974   1.657 -0.6499  0.9913  0.3837
 6449TIP3   OH240905   2.665   2.314   7.900 -0.9260  0.2625 -0.5622
 6449TIP3    H140906   2.586   2.274   7.937 -0.4731 -0.4255 -0.3292
 6449TIP3    H240907   2.664   2.288   7.808 -1.0025  0.3151 -0.5769
 6450TIP3   OH240908   0.471   4.893   1.059 -0.5248 -0.2032 -0.2482
 6450TIP3    H140909   0.535   4.898   1.129  0.7271  0.6607 -1.3867
 6450TIP3    H240910   0.490   4.811   1.014  0.3510  0.4292 -1.0702
 6451TIP3   OH240911   2.816   4.202   8.460  0.1099 -0.3090  0.3575
 6451TIP3    H140912   2.743   4.159   8.416  0.9387 -1.5281  0.1124
 6451TIP3    H240913   2.788   4.211   8.551 -0.3293 -0.8140  0.2754
 6452TIP3   OH240914   1.419   5.229   2.214 -0.0127 -0.3436 -0.2287
 6452TIP3    H140915   1.380   5.152   2.257  0.1105 -0.9265 -1.1401
 6452TIP3    H240916   1.351   5.260   2.154 -0.1513  0.4151  0.3076
 6453TIP3   OH240917   5.575   4.916   8.316 -0.1771 -0.0843  0.2558
 6453TIP3    H140918   5.533   4.959   8.391 -1.6840 -1.0624  0.0337
 6453TIP3    H240919   5.508   4.918   8.247 -0.6716 -3.3885  0.4638
 6454TIP3   OH240920   0.094   5.383   0.479 -0.2786 -0.1563  0.0216
 6454TIP3    H140921   0.023   5.342   0.528 -0.9034  0.2940 -0.5081
 6454TIP3    H240922   0.051   5.436   0.412  0.5637 -0.9503 -1.1888
 6455TIP3   OH240923   4.034   6.182   8.472  0.5501  0.6906 -0.4294
 6455TIP3    H140924   4.037   6.238   8.394 -0.9011  0.6387 -0.5534
 6455TIP3    H240925   4.021   6.094   8.437 -0.0626  0.6624 -0.1431
 6456TIP3   OH240926   1.793   4.903   2.920 -0.2196  0.1463  0.1938
 6456TIP3    H140927   1.708   4.919   2.962  0.2491 -0.3458  1.3865
 6456TIP3    H240928   1.855   4.902   2.993  0.3694 -2.7488 -0.2334
 6457TIP3   OH240929   5.074   4.122   0.821  0.1436 -0.0990  0.2625
 6457TIP3    H140930   4.983   4.104   0.844  0.0238  0.3321  0.1331
 6457TIP3    H240931   5.086   4.079   0.736 -0.0825  0.2529  0.0501
 6458TIP3   OH240932   6.780   1.802   3.160 -0.7443 -0.3321 -0.0855
 6458TIP3    H140933   6.752   1.776   3.247 -1.2780  0.9262  0.1432
 6458TIP3    H240934   6.830   1.883   3.174  0.9391 -1.1922 -0.7428
 6459TIP3   OH240935   5.720   2.087   1.919 -0.3373  0.3562  0.1945
 6459TIP3    H140936   5.789   2.134   1.872  0.8261  0.4403  1.9131
 6459TIP3    H240937   5.681   2.153   1.976 -0.3470 -0.1986  0.8380
 6460TIP3   OH240938   0.369   1.938   1.706 -0.1670  0.1805 -0.4537
 6460TIP3    H140939   0.291   1.990   1.719  0.7489  1.9451 -1.6659
 6460TIP3    H240940   0.437   2.001   1.682  1.5229 -1.3368  0.0836
 6461TIP3   OH240941   6.459   3.543   2.565 -0.1668  0.0933 -0.1018
 6461TIP3    H140942   6.465   3.616   2.504  1.3417 -0.0086 -0.1107
 6461TIP3    H240943   6.507   3.472   2.522  0.9068  0.0126  1.1716
 6462TIP3   OH240944   3.400   5.017   8.212  0.0710 -0.1632  0.2463
 6462TIP3    H140945   3.306   5.036   8.212 -0.2135 -1.4798  0.3602
 6462TIP3    H240946   3.424   5.014   8.305  0.2667  0.3260  0.2142
 6463TIP3   OH240947   1.651   4.603   8.215  0.3444  0.1482 -0.1460
 6463TIP3    H140948   1.721   4.649   8.168  1.3048 -0.7479  0.3641
 6463TIP3    H240949   1.697   4.551   8.280 -0.9604  1.5105  1.9566
 6464TIP3   OH240950   6.420   2.630   1.451  0.3987 -0.0190 -0.5989
 6464TIP3    H140951   6.445   2.636   1.544  2.0361 -0.8729 -0.9454
 6464TIP3    H240952   6.366   2.708   1.436 -2.0054 -1.0889  1.6399
 6465TIP3   OH240953   1.889   3.307   0.959 -0.0796 -1.2599  0.2828
 6465TIP3    H140954   1.980   3.302   0.931 -0.9070 -1.2368 -2.7506
 6465TIP3    H240955   1.850   3.225   0.928 -1.3224 -0.7558  0.4699
 6466TIP3   OH240956   0.862   3.589   3.783 -0.3202  0.6366  0.8293
 6466TIP3    H140957   0.777   3.592   3.827 -0.7453 -0.5566  0.1374
 6466TIP3    H240958   0.904   3.510   3.817 -0.6110 -0.2450 -0.7849
 6467TIP3   OH240959   3.563   2.171   8.438  0.0758 -0.1738  0.5835
 6467TIP3    H140960   3.519   2.159   8.355  1.6912  0.9624 -0.5118
 6467TIP3    H240961   3.513   2.119   8.501 -0.7957 -1.5898 -1.2125
 6468TIP3   OH240962   1.677   2.117   0.559 -0.2525 -0.2696  0.1581
 6468TIP3    H140963   1.646   2.029   0.577  1.1980 -0.7786  0.2980
 6468TIP3    H240964   1.739   2.106   0.487 -0.7059  0.7632 -0.4082
 6469TIP3   OH240965   2.581   3.868   3.332  0.2745 -0.8964 -0.1252
 6469TIP3    H140966   2.615   3.779   3.342  2.8822  0.1073  0.8818
 6469TIP3    H240967   2.626   3.903   3.255 -0.8931 -0.4781 -0.6507
 6470TIP3   OH240968   5.417   6.358   1.435 -0.0682  0.0147 -0.1867
 6470TIP3    H140969   5.322   6.365   1.440 -0.1284 -0.1194 -1.0861
 6470TIP3    H240970   5.446   6.445   1.409 -0.0656 -0.3362 -1.4016
 6471TIP3   OH240971   2.844   5.288   2.122 -0.0757  0.5216  0.1441
 6471TIP3    H140972   2.811   5.377   2.111 -0.6350  0.1143 -2.0351
 6471TIP3    H240973   2.844   5.274   2.217 -5.0808  0.9945  0.4778
 6472TIP3   OH240974   6.149   0.882   2.387 -0.3413 -0.6001  0.2536
 6472TIP3    H140975   6.134   0.823   2.461  0.9838 -0.0808  0.9500
 6472TIP3    H240976   6.232   0.854   2.350  0.5068  1.0607  0.8337
 6473TIP3   OH240977   2.951   0.250   1.213  0.2510  0.1815  0.3188
 6473TIP3    H140978   2.891   0.289   1.150  2.2984  0.2463 -1.7429
 6473TIP3    H240979   2.906   0.172   1.244 -1.3115  0.7826 -0.3392
 6474TIP3   OH240980   6.624   4.555   2.848 -0.8595  0.1084  0.1074
 6474TIP3    H140981   6.583   4.518   2.770  2.2351 -2.6874 -0.3876
 6474TIP3    H240982   6.568   4.525   2.920 -1.9289 -0.0774 -0.7660
 6475TIP3   OH240983   1.254   3.520   0.724  0.0602 -1.0175  0.0512
 6475TIP3    H140984   1.267   3.426   0.741  0.1877 -1.2906 -1.3891
 6475TIP3    H240985   1.291   3.533   0.637 -0.8720  0.1741 -0.1888
 6476TIP3   OH240986   5.052   2.409   3.190  0.1240 -0.0346  0.2472
 6476TIP3    H140987   4.957   2.416   3.198 -0.0246 -2.2819  1.1187
 6476TIP3    H240988   5.084   2.498   3.209 -1.8118  1.0637 -1.2566
 6477TIP3   OH240989   6.240   1.686   3.206  0.3387 -0.0993 -0.1193
 6477TIP3    H140990   6.327   1.649   3.220 -0.1394 -0.6569  1.6621
 6477TIP3    H240991   6.182   1.609   3.205 -0.5067  0.4344  2.2548
 6478TIP3   OH240992   2.307   6.263   0.065  0.4156  0.2057 -0.6732
 6478TIP3    H140993   2.252   6.212   0.126 -2.0393  1.1944 -1.9084
 6478TIP3    H240994   2.336   6.338   0.117 -0.3928  0.2613 -0.2735
 6479TIP3   OH240995   0.173   1.788   1.116 -0.0144  0.3443 -0.4723
 6479TIP3    H140996   0.118   1.865   1.102 -0.3649  0.1237 -0.3183
 6479TIP3    H240997   0.244   1.820   1.172 -1.0680  0.1869  1.0252
 6480TIP3   OH240998   4.234   0.175   1.574 -0.0258 -0.1887 -0.8142
 6480TIP3    H140999   4.236   0.096   1.520  2.1170  1.0115 -2.6289
 6480TIP3    H241000   4.300   0.160   1.642  0.2226 -0.0517 -1.0247
 6481TIP3   OH241001   3.580   5.879   1.205  0.2625  0.0994 -0.0460
 6481TIP3    H141002   3.609   5.849   1.119  0.6282 -1.4675  0.5970
 6481TIP3    H241003   3.656   5.866   1.262 -0.0707  0.8388  0.5826
 6482TIP3   OH241004   6.492   1.859   1.604  0.5965 -0.1307 -0.0128
 6482TIP3    H141005   6.429   1.923   1.636  0.0839  0.0175 -1.2606
 6482TIP3    H241006   6.454   1.774   1.627 -0.1675 -0.0469 -0.9059
 6483TIP3   OH241007   5.566   5.259   2.594  0.1867  0.0353  0.6638
 6483TIP3    H141008   5.643   5.312   2.574  0.7094 -1.3730 -1.3573
 6483TIP3    H241009   5.493   5.322   2.592  1.0315  1.0513  0.6587
 6484TIP3   OH241010   6.385   5.296   1.096  0.4005 -0.4657 -0.2150
 6484TIP3    H141011   6.445   5.301   1.022 -0.6164 -0.2090 -1.0489
 6484TIP3    H241012   6.437   5.258   1.167  1.6183  0.0332 -0.8128
 6485TIP3   OH241013   3.956   4.333   2.787 -0.5936 -0.0973 -0.4499
 6485TIP3    H141014   3.899   4.257   2.772 -1.7233  0.5858  0.2582
 6485TIP3    H241015   4.040   4.307   2.749 -1.2195 -1.3370 -1.0633
 6486TIP3   OH241016   1.712   6.164   0.972  0.0394  0.1278 -0.1925
 6486TIP3    H141017   1.650   6.092   0.985  0.9546 -0.7148 -0.3632
 6486TIP3    H241018   1.720   6.204   1.059  0.4921 -0.8045  0.2234
 6487TIP3   OH241019   5.439   0.904   1.070 -0.0179  0.3924  0.8731
 6487TIP3    H141020   5.398   0.841   1.011  2.2974 -1.0647  0.6906
 6487TIP3    H241021   5.503   0.949   1.016  0.5162  0.6977  1.7489
 6488TIP3   OH241022   1.681   3.459   0.570  0.0087  0.1899  0.1674
 6488TIP3    H141023   1.648   3.496   0.488  1.1873  1.2981  0.1581
 6488TIP3    H241024   1.753   3.402   0.544  0.7770  1.0048  0.4446
 6489TIP3   OH241025   5.708   6.837   0.859 -0.2746 -0.8163 -0.0968
 6489TIP3    H141026   5.743   6.756   0.895 -0.1110 -2.3222 -3.3223
 6489TIP3    H241027   5.687   6.817   0.768 -2.7969  2.0381 -0.3434
 6490TIP3   OH241028   1.093   6.453   3.346  0.1276  0.6723  0.6721
 6490TIP3    H141029   1.054   6.450   3.258  1.3156 -0.5553  0.1534
 6490TIP3    H241030   1.028   6.499   3.399 -0.9332  0.8215 -0.6912
 6491TIP3   OH241031   1.096   4.615   3.388 -0.1513  0.3405  0.3397
 6491TIP3    H141032   1.081   4.552   3.458  0.0985 -0.5591 -0.3938
 6491TIP3    H241033   1.074   4.700   3.427 -2.3478 -0.3694  0.7775
 6492TIP3   OH241034   5.552   1.770   7.586 -0.2192 -0.1645 -0.5140
 6492TIP3    H141035   5.505   1.720   7.519  0.5578 -0.8804 -0.5475
 6492TIP3    H241036   5.543   1.718   7.666  0.4104 -0.2601 -0.4978
 6493TIP3   OH241037   6.622   1.316   7.793 -0.3110  0.0252  0.4037
 6493TIP3    H141038   6.638   1.277   7.707 -1.0043  1.6275 -0.4982
 6493TIP3    H241039   6.632   1.410   7.779  0.3375  0.2757  2.2739
 6494TIP3   OH241040   2.848   3.175   2.290  0.0099  0.2312  0.4698
 6494TIP3    H141041   2.943   3.180   2.282 -0.0028 -0.4031 -0.1608
 6494TIP3    H241042   2.828   3.082   2.284 -0.5779  0.2671  1.5894
 6495TIP3   OH241043   1.183   4.916   8.384  0.3746 -0.0867 -0.4111
 6495TIP3    H141044   1.277   4.927   8.398  0.5749 -1.0414 -0.9092
 6495TIP3    H241045   1.148   5.005   8.383  1.4931  0.3691 -1.7349
 6496TIP3   OH241046   2.646   2.307   1.332  0.3111  0.1008 -0.3874
 6496TIP3    H141047   2.725   2.263   1.364 -0.6304 -0.9912  0.5334
 6496TIP3    H241048   2.659   2.399   1.354  1.3156 -0.0686 -0.2167
 6497TIP3   OH241049   5.807   1.109   1.465  0.1160  0.4419  0.0519
 6497TIP3    H141050   5.790   1.018   1.491  0.4505  0.2417 -0.4050
 6497TIP3    H241051   5.742   1.127   1.398  0.0058  0.5646  0.1911
 6498TIP3   OH241052   4.092   5.904   0.072 -0.5214  0.0772 -0.1517
 6498TIP3    H141053   4.070   5.830   0.128 -1.1480 -0.9758 -1.6982
 6498TIP3    H241054   4.036   5.893  -0.005 -0.3216  1.9411 -0.6132
 6499TIP3   OH241055   2.105   1.145   2.412 -0.7112 -0.1166 -0.5522
 6499TIP3    H141056   2.069   1.099   2.488 -0.1048 -0.7714 -0.6441
 6499TIP3    H241057   2.053   1.225   2.405 -0.9058 -0.1435  0.4276
 6500TIP3   OH241058   0.556   0.235   7.795 -0.2687  0.4709 -0.3131
 6500TIP3    H141059   0.472   0.189   7.789  0.5497 -1.3746  1.2270
 6500TIP3    H241060   0.617   0.169   7.829  1.3648  2.2930  0.4786
 6501TIP3   OH241061   2.182   3.234   1.834  0.0972 -0.2853  0.3118
 6501TIP3    H141062   2.224   3.151   1.814  0.6175 -0.3415  1.5350
 6501TIP3    H241063   2.240   3.275   1.899 -0.1187  1.0535 -0.2925
 6502TIP3   OH241064   2.455   3.881   8.457 -0.0664  0.2938 -0.5372
 6502TIP3    H141065   2.461   3.816   8.527  1.7928  0.9262 -0.0513
 6502TIP3    H241066   2.403   3.839   8.389 -0.2298 -1.0882  0.4072
 6503TIP3   OH241067   2.561   4.538   1.652  0.6013  0.0851 -0.0729
 6503TIP3    H141068   2.639   4.551   1.707  0.5942 -0.1970  0.0082
 6503TIP3    H241069   2.503   4.483   1.705  0.0382  0.8873  0.1469
 6504TIP3   OH241070   2.775   5.194   2.528 -0.3890  0.3943 -0.1320
 6504TIP3    H141071   2.696   5.247   2.540 -0.6091  0.0223  0.1128
 6504TIP3    H241072   2.813   5.188   2.615 -0.1973  0.4088 -0.2151
 6505TIP3   OH241073   1.011   2.341   2.449  0.2238  0.1038  0.1396
 6505TIP3    H141074   1.061   2.422   2.462 -0.4222  0.5933 -0.3459
 6505TIP3    H241075   1.055   2.297   2.377  0.5586  0.0291  0.3847
 6506TIP3   OH241076   0.688   1.351   1.076  0.2483  0.4135  0.1043
 6506TIP3    H141077   0.660   1.267   1.040 -0.6174  0.4980  0.5387
 6506TIP3    H241078   0.784   1.348   1.074  0.2791  0.8014 -3.0110
 6507TIP3   OH241079   0.776   5.947   1.856 -0.0729  0.5839  0.3089
 6507TIP3    H141080   0.777   5.961   1.761 -0.2551 -1.5069 -0.0318
 6507TIP3    H241081   0.690   5.978   1.884 -0.1977  0.7740 -0.2693
 6508TIP3   OH241082   3.952   6.023   1.514 -0.4863 -0.5232  0.2102
 6508TIP3    H141083   4.002   6.029   1.596  1.9618 -0.0289 -1.2055
 6508TIP3    H241084   3.905   6.106   1.508  0.3284 -0.0300  0.5282
 6509TIP3   OH241085   2.067   0.245   8.058  0.3710 -0.0281 -0.0699
 6509TIP3    H141086   2.150   0.255   8.104  0.5931 -1.2759 -0.1651
 6509TIP3    H241087   2.087   0.187   7.984 -0.8011 -1.3433  0.5921
 6510TIP3   OH241088   0.365   3.013   2.479  0.1686  0.1603 -0.0291
 6510TIP3    H141089   0.443   2.960   2.466 -0.7493 -1.1052 -0.5715
 6510TIP3    H241090   0.292   2.956   2.454 -0.8598  1.6878 -0.7158
 6511TIP3   OH241091   1.640   0.322   1.404  0.0279  0.5784 -0.3356
 6511TIP3    H141092   1.668   0.314   1.495 -0.0791  0.8293 -0.2798
 6511TIP3    H241093   1.664   0.412   1.380 -1.4625  1.0794 -0.0310
 6512TIP3   OH241094   3.955   2.927   7.922 -0.7922  0.1208 -0.1842
 6512TIP3    H141095   3.875   2.969   7.892 -0.7772  0.3315  0.0665
 6512TIP3    H241096   4.024   2.992   7.905 -0.6436 -0.1457 -0.6048
 6513TIP3   OH241097   4.255   5.445   0.714  0.3144  0.1660 -0.4904
 6513TIP3    H141098   4.350   5.437   0.726  0.0808 -0.5544  1.2050
 6513TIP3    H241099   4.219   5.429   0.801 -1.3208  1.5222 -0.8644
 6514TIP3   OH241100   1.307   5.685   3.682 -0.3777  0.2325 -0.0788
 6514TIP3    H141101   1.328   5.685   3.588  2.2586 -0.8799  0.4252
 6514TIP3    H241102   1.334   5.771   3.713  0.8926 -0.1881  0.0343
 6515TIP3   OH241103   4.351   0.279   2.627  0.2197 -0.6746  0.0239
 6515TIP3    H141104   4.397   0.312   2.550  0.4706  0.4476  0.6427
 6515TIP3    H241105   4.259   0.275   2.600 -0.0617  1.9625  0.3671
 6516TIP3   OH241106   3.782   1.642   8.501  0.0102  0.0435 -0.5522
 6516TIP3    H141107   3.792   1.579   8.430 -2.5208  0.8115 -1.6931
 6516TIP3    H241108   3.831   1.719   8.471 -1.7927  0.7028 -2.0067
 6517TIP3   OH241109   0.626   5.353   1.885  0.4488  0.5921  0.1854
 6517TIP3    H141110   0.654   5.408   1.813  0.1675  1.0175  0.3958
 6517TIP3    H241111   0.668   5.391   1.963 -2.0491  2.3593  0.7949
 6518TIP3   OH241112   5.800   0.516   3.100  0.4402  0.4375 -0.4659
 6518TIP3    H141113   5.709   0.489   3.116  0.6784 -0.2653 -0.2588
 6518TIP3    H241114   5.852   0.460   3.158  0.8154  3.3563  2.3505
 6519TIP3   OH241115   3.053   2.753   1.218  1.0021  0.5921  0.6000
 6519TIP3    H141116   2.985   2.819   1.207 -1.5883 -1.9511 -0.0638
 6519TIP3    H241117   3.018   2.693   1.284  1.8103 -1.6849 -0.9255
 6520TIP3   OH241118   3.933   3.841   2.197 -0.3797  0.1650  0.2553
 6520TIP3    H141119   3.949   3.827   2.104 -0.4115  0.5144  0.1937
 6520TIP3    H241120   3.854   3.790   2.216  0.1151 -0.6001  0.2888
 6521TIP3   OH241121   0.991   4.024   1.527  0.0245  0.2918  0.6716
 6521TIP3    H141122   1.086   4.022   1.543  0.1080  2.0647  0.5828
 6521TIP3    H241123   0.983   4.031   1.432 -0.2292 -0.6271  0.6172
 6522TIP3   OH241124   3.162   5.991   2.653  0.1103  0.3952  0.0628
 6522TIP3    H141125   3.205   6.076   2.649 -0.0195  0.4310 -0.7058
 6522TIP3    H241126   3.169   5.956   2.564 -0.4743 -0.0787  0.1953
 6523TIP3   OH241127   6.360   6.342   1.978 -0.4217 -0.3962  0.6065
 6523TIP3    H141128   6.283   6.346   1.922 -0.8193 -0.8162  1.1222
 6523TIP3    H241129   6.374   6.249   1.993  1.0623 -0.4229 -0.6813
 6524TIP3   OH241130   6.314   2.980   0.982  0.1996 -0.2833 -0.0031
 6524TIP3    H141131   6.316   2.884   0.981  1.5055 -0.2894 -1.9386
 6524TIP3    H241132   6.223   3.002   0.962 -0.3776 -1.0774  1.5773
 6525TIP3   OH241133   2.905   1.037   0.420  0.1285  0.2196 -0.0677
 6525TIP3    H141134   2.861   0.990   0.491 -0.1644  0.0530 -0.3565
 6525TIP3    H241135   2.843   1.032   0.347 -0.2104  1.6411  0.0969
 6526TIP3   OH241136   4.952   5.090   1.824 -0.3033 -0.1818  0.7546
 6526TIP3    H141137   4.983   5.012   1.871  2.0008 -0.8566 -1.6184
 6526TIP3    H241138   4.933   5.058   1.736  0.1757  1.8330 -0.1309
 6527TIP3   OH241139   2.021   3.893   3.257  0.3812 -0.6818 -0.3787
 6527TIP3    H141140   1.987   3.871   3.171  1.2211 -0.9756 -0.6454
 6527TIP3    H241141   1.943   3.906   3.311 -0.1740  0.5202 -1.4233
 6528TIP3   OH241142   0.751   2.692   7.669 -0.2703 -0.2283  0.0652
 6528TIP3    H141143   0.691   2.687   7.744 -0.7050  0.8571 -0.1816
 6528TIP3    H241144   0.818   2.754   7.696  0.7954 -1.4683  0.3515
 6529TIP3   OH241145   1.392   4.570   8.270  0.8438 -0.0429  0.6765
 6529TIP3    H141146   1.368   4.577   8.178  0.1283  1.0527  0.9230
 6529TIP3    H241147   1.488   4.567   8.270  0.8208 -1.3619 -0.1594
 6530TIP3   OH241148   3.173   0.193   1.725 -0.0830  0.4051 -0.3014
 6530TIP3    H141149   3.226   0.254   1.777  2.5081 -0.0779 -2.2174
 6530TIP3    H241150   3.230   0.118   1.710 -1.8745 -0.8424 -1.2413
 6531TIP3   OH241151   5.382   2.857   8.415  0.2942 -0.4483 -0.0748
 6531TIP3    H141152   5.354   2.780   8.366 -2.1472  0.9717 -1.0435
 6531TIP3    H241153   5.374   2.930   8.353  0.5058  0.8989  1.4215
 6532TIP3   OH241154   6.494   5.916   8.155  0.4606  0.1967  0.2614
 6532TIP3    H141155   6.453   5.980   8.097  1.2298  0.9452  0.5320
 6532TIP3    H241156   6.576   5.957   8.183  0.7936 -0.7536  0.7300
 6533TIP3   OH241157   5.457   5.159   1.707  0.6810 -0.0579  0.0603
 6533TIP3    H141158   5.414   5.238   1.738  1.8112  0.7152 -0.2996
 6533TIP3    H241159   5.533   5.190   1.659  1.1306 -1.3674 -0.1129
 6534TIP3   OH241160   3.630   4.372   1.485 -0.8809 -0.1115  0.0146
 6534TIP3    H141161   3.621   4.381   1.580  1.3530 -1.4499  0.4408
 6534TIP3    H241162   3.584   4.291   1.464  1.9445 -2.0686  0.7259
 6535TIP3   OH241163   2.066   2.355   1.414 -0.4601 -0.5431 -0.0962
 6535TIP3    H141164   2.143   2.368   1.359 -0.6077 -1.0988 -0.4427
 6535TIP3    H241165   2.009   2.298   1.362  0.0966 -2.4489  1.2986
 6536TIP3   OH241166   5.751   1.721   1.946  0.6039  0.7627 -0.0314
 6536TIP3    H141167   5.711   1.793   1.897  0.9717  0.0515 -1.4268
 6536TIP3    H241168   5.801   1.672   1.880  0.6453 -0.5668  0.9544
 6537TIP3   OH241169   2.096   4.486   1.995  0.4116  0.4501  0.0428
 6537TIP3    H141170   2.153   4.559   2.017 -2.3185  2.5314  0.8690
 6537TIP3    H241171   2.007   4.521   2.008 -1.0552 -3.0682  0.6320
 6538TIP3   OH241172   6.349   3.407   2.106  0.6268  0.0752  0.8135
 6538TIP3    H141173   6.274   3.437   2.055  0.7727  0.3291  0.7451
 6538TIP3    H241174   6.312   3.383   2.191  0.5318  0.6336  0.9329
 6539TIP3   OH241175   2.679   0.964   8.490  0.4406  0.1545  0.1072
 6539TIP3    H141176   2.774   0.975   8.491  0.3995  1.9411 -2.6028
 6539TIP3    H241177   2.649   1.030   8.428 -2.5866 -0.4554  0.7795
 6540TIP3   OH241178   0.631   1.354   2.567  0.4325 -0.4016 -0.0259
 6540TIP3    H141179   0.570   1.417   2.529 -0.0588 -0.6365  0.3488
 6540TIP3    H241180   0.716   1.398   2.567  0.0215  0.4220  0.6225
 6541TIP3   OH241181   5.573   4.694   3.366 -0.0542  0.2883  0.0620
 6541TIP3    H141182   5.579   4.775   3.315 -1.9952  0.6474  0.3463
 6541TIP3    H241183   5.479   4.678   3.375  0.2883 -1.7315  0.4594
 6542TIP3   OH241184   5.813   4.725   2.011  0.7079  0.4966  0.0198
 6542TIP3    H141185   5.799   4.639   2.050 -1.0096 -0.8323 -3.2041
 6542TIP3    H241186   5.769   4.786   2.071  1.3304 -0.8819  1.9901
 6543TIP3   OH241187   6.425   0.883   1.608 -0.2352  0.2909 -0.0904
 6543TIP3    H141188   6.409   0.940   1.683 -0.8212 -0.0128  0.0233
 6543TIP3    H241189   6.437   0.796   1.646 -0.8695  0.0749 -0.3592
 6544TIP3   OH241190   3.939   0.153   0.037 -0.1044  0.0173  0.7881
 6544TIP3    H141191   3.953   0.211  -0.037 -0.9357  0.3179  0.8509
 6544TIP3    H241192   3.996   0.078   0.020  1.0536  0.8730  0.7543
 6545TIP3   OH241193   2.452   6.836   1.488  0.7219 -0.1922  0.5580
 6545TIP3    H141194   2.416   6.805   1.405  0.1732  1.2320  0.2437
 6545TIP3    H241195   2.542   6.803   1.488  1.6592  1.9949 -1.8867
 6546TIP3   OH241196   1.688   2.265   8.548 -0.1043  0.1613 -0.2154
 6546TIP3    H141197   1.600   2.265   8.510 -0.1848  1.1473 -0.0496
 6546TIP3    H241198   1.747   2.271   8.473 -0.0230 -2.9062 -0.5447
 6547TIP3   OH241199   2.893   0.973   1.339  0.1373  0.5587  0.0635
 6547TIP3    H141200   2.847   1.026   1.273  2.2488  2.6050  0.0852
 6547TIP3    H241201   2.958   0.924   1.288 -1.7019 -2.0619  0.0661
 6548TIP3   OH241202   6.389   5.454   1.412 -0.0290  0.1495  0.4592
 6548TIP3    H141203   6.419   5.431   1.501  0.0346 -2.0646 -0.0602
 6548TIP3    H241204   6.411   5.377   1.360  2.0572  2.2539 -2.0443
 6549TIP3   OH241205   6.266   2.260   7.442  0.0128  0.4992  0.5053
 6549TIP3    H141206   6.236   2.337   7.490 -0.0933 -0.7651  2.5799
 6549TIP3    H241207   6.358   2.250   7.467  0.0238 -0.0542  0.2712
 6550TIP3   OH241208   2.983   6.379   7.924 -0.3108  0.1326 -0.6597
 6550TIP3    H141209   3.075   6.355   7.915 -0.1218  1.3222 -2.6725
 6550TIP3    H241210   2.985   6.469   7.956 -0.7365  0.3180 -1.1357
 6551TIP3   OH241211   6.500   1.819   8.481  0.3682  0.2681  0.5008
 6551TIP3    H141212   6.529   1.849   8.395 -1.3285  0.2167 -0.1237
 6551TIP3    H241213   6.541   1.881   8.542 -1.0791  2.4492 -0.5799
 6552TIP3   OH241214   1.908   1.094   1.195 -0.0670 -0.1694  0.0182
 6552TIP3    H141215   1.840   1.067   1.133 -0.3441  0.5341  0.0028
 6552TIP3    H241216   1.964   1.153   1.145 -0.6885  0.9523  0.6031
 6553TIP3   OH241217   3.810   5.410   1.923 -0.4059 -0.0724 -0.6506
 6553TIP3    H141218   3.854   5.412   1.837 -0.7854 -0.3380 -0.8544
 6553TIP3    H241219   3.730   5.360   1.907 -0.1521 -0.7102  0.0132
 6554TIP3   OH241220   2.970   3.130   1.934 -0.3734  0.2587 -0.1803
 6554TIP3    H141221   2.901   3.190   1.964  1.8108  2.4932  0.7520
 6554TIP3    H241222   2.922   3.054   1.900 -3.2252  0.5701  2.6220
 6555TIP3   OH241223   5.756   3.153   2.230 -0.1397  0.5319  0.1401
 6555TIP3    H141224   5.808   3.222   2.273 -0.4273  0.5503  0.4682
 6555TIP3    H241225   5.667   3.186   2.233 -0.8742 -1.3271  3.4513
 6556TIP3   OH241226   0.585   2.660   7.931  0.2480 -0.5108  0.5039
 6556TIP3    H141227   0.627   2.688   8.011  1.8584  1.2987 -0.8859
 6556TIP3    H241228   0.525   2.731   7.908  0.7144 -0.4227 -0.5182
 6557TIP3   OH241229   6.193   1.201   3.523 -0.4034  0.1483  0.5320
 6557TIP3    H141230   6.126   1.216   3.456 -1.1291 -1.3309  0.8882
 6557TIP3    H241231   6.201   1.106   3.529  0.0427  0.2483  2.1514
 6558TIP3   OH241232   5.572   5.751   0.344 -0.0464  0.6776 -0.2081
 6558TIP3    H141233   5.514   5.700   0.400  1.5428 -1.1329 -0.1517
 6558TIP3    H241234   5.550   5.723   0.255 -0.1265  0.9484 -0.2762
 6559TIP3   OH241235   6.813   4.759   1.375  0.3898  0.0391 -0.0151
 6559TIP3    H141236   6.793   4.821   1.445 -1.2661 -0.3001 -0.1427
 6559TIP3    H241237   6.757   4.787   1.302  0.2708 -1.0544 -0.3650
 6560TIP3   OH241238   2.650   2.366   3.490 -0.3046 -0.2196 -0.0444
 6560TIP3    H141239   2.573   2.382   3.544  0.6933  2.3967  0.7517
 6560TIP3    H241240   2.662   2.447   3.440  0.8811 -1.2531 -1.5492
 6561TIP3   OH241241   0.904   0.421   1.562 -0.2277 -0.3757  0.4447
 6561TIP3    H141242   0.811   0.417   1.540  0.6602 -0.8335 -4.3802
 6561TIP3    H241243   0.916   0.355   1.630 -3.5053  0.5321  2.1291
 6562TIP3   OH241244   5.427   5.897   1.295 -0.0512  0.7157 -0.0539
 6562TIP3    H141245   5.334   5.881   1.311 -0.3578  2.0291 -0.4337
 6562TIP3    H241246   5.433   5.916   1.201  1.0469 -2.1930 -0.6817
 6563TIP3   OH241247   3.542   0.117   1.217 -0.0319 -0.2066  0.2000
 6563TIP3    H141248   3.476   0.143   1.282  0.6347 -0.1705  0.8646
 6563TIP3    H241249   3.566   0.028   1.241  0.5404 -0.0337  0.2643
 6564TIP3   OH241250   2.397   5.317   1.028 -0.2729 -0.2430 -0.8973
 6564TIP3    H141251   2.446   5.245   0.988  0.9650  0.5514 -0.8626
 6564TIP3    H241252   2.381   5.287   1.118  1.5780  0.1119 -0.4111
 6565TIP3   OH241253   5.648   3.718   2.652  0.2493  0.7189  0.1072
 6565TIP3    H141254   5.569   3.738   2.703 -0.7958 -0.8010 -0.8561
 6565TIP3    H241255   5.626   3.744   2.562  1.7266  2.4591  0.1793
 6566TIP3   OH241256   2.082   6.429   0.679  0.0076 -0.3882  0.1904
 6566TIP3    H141257   2.174   6.422   0.702  0.0974  0.5711  0.1608
 6566TIP3    H241258   2.037   6.441   0.762  0.1595  1.4065  0.0488
 6567TIP3   OH241259   1.454   1.625   8.282 -0.5436  0.0783  0.7910
 6567TIP3    H141260   1.547   1.605   8.286 -0.8422 -1.1330  3.4407
 6567TIP3    H241261   1.419   1.560   8.221  0.5463  2.0387 -2.1961
 6568TIP3   OH241262   1.724   2.473   8.001  0.3265 -0.7973  0.4292
 6568TIP3    H141263   1.689   2.385   7.984 -1.2043 -0.2408  0.4840
 6568TIP3    H241264   1.816   2.459   8.024 -0.2203 -2.5332  1.8252
 6569TIP3   OH241265   6.741   0.249   3.290  0.0399  0.3912  0.6174
 6569TIP3    H141266   6.733   0.204   3.374  1.6218 -2.0107 -0.4077
 6569TIP3    H241267   6.651   0.254   3.257 -0.4605  0.2977  1.9116
 6570TIP3   OH241268   5.370   2.677   1.616 -0.0394 -0.1350 -0.0226
 6570TIP3    H141269   5.440   2.741   1.607  0.2903 -0.3532  0.9317
 6570TIP3    H241270   5.295   2.717   1.570  0.5690  0.2905 -0.6630
 6571TIP3   OH241271   3.014   5.644   8.097 -0.4870  0.0329  0.1907
 6571TIP3    H141272   2.974   5.563   8.129 -0.4190 -0.1278 -0.1263
 6571TIP3    H241273   3.082   5.665   8.160 -1.3349  0.5326  0.9726
 6572TIP3   OH241274   4.795   1.882   0.474  0.0399 -0.4647 -0.3274
 6572TIP3    H141275   4.840   1.966   0.481  0.3030 -0.5171 -1.3101
 6572TIP3    H241276   4.703   1.903   0.489 -0.0246  0.1593 -1.5349
 6573TIP3   OH241277   0.177   6.119   2.144  0.1542  0.2378 -0.8846
 6573TIP3    H141278   0.146   6.035   2.176 -1.6660  1.7719  1.7593
 6573TIP3    H241279   0.131   6.132   2.061 -1.8898 -0.0851  0.1489
 6574TIP3   OH241280   6.726   0.280   0.166 -0.0582  0.4962 -0.6823
 6574TIP3    H141281   6.687   0.195   0.186  1.2728  0.2243  1.0626
 6574TIP3    H241282   6.743   0.277   0.072  1.4704 -1.9014 -0.4222
 6575TIP3   OH241283   1.549   1.150   3.862 -0.5374 -0.1863  0.0121
 6575TIP3    H141284   1.615   1.215   3.887  0.1028 -0.6445 -0.4597
 6575TIP3    H241285   1.478   1.201   3.823  0.3990  0.1689 -1.2911
 6576TIP3   OH241286   1.592   6.288   8.478 -0.1916 -0.2960 -1.1434
 6576TIP3    H141287   1.519   6.297   8.539  1.0857 -2.1104  0.7908
 6576TIP3    H241288   1.566   6.215   8.422 -0.0264 -0.7235 -0.6714
 6577TIP3   OH241289   0.383   1.814   3.435  0.3359 -0.3472  0.0855
 6577TIP3    H141290   0.400   1.749   3.367  0.8510  0.0130 -0.1433
 6577TIP3    H241291   0.381   1.897   3.388 -1.0611 -0.2570  0.2624
 6578TIP3   OH241292   5.979   2.487   2.752 -0.7073 -0.1186  0.0352
 6578TIP3    H141293   6.009   2.569   2.712  0.4482 -0.9518 -0.8523
 6578TIP3    H241294   6.018   2.488   2.839  0.0209 -0.1121 -0.2812
 6579TIP3   OH241295   3.728   0.378   2.629  0.5284 -0.2985 -0.1771
 6579TIP3    H141296   3.667   0.395   2.701  0.4790 -0.5600 -0.1569
 6579TIP3    H241297   3.707   0.444   2.563  0.8033  0.1636  0.1920
 6580TIP3   OH241298   6.024   4.935   3.873  0.6968  0.6572 -0.0546
 6580TIP3    H141299   6.105   4.950   3.824  0.7362  0.0787 -0.1768
 6580TIP3    H241300   5.954   4.958   3.811  0.7362 -0.4650 -0.5445
 6581TIP3   OH241301   3.589   6.113   0.463  0.5873  0.2515 -0.2497
 6581TIP3    H141302   3.569   6.062   0.541  2.5619  3.7058  2.8328
 6581TIP3    H241303   3.516   6.173   0.454 -0.0553 -0.6909 -1.7120
 6582TIP3   OH241304   0.930   1.972   3.610 -0.1659 -0.4807  0.1618
 6582TIP3    H141305   1.021   1.955   3.635 -0.2508  0.5065  1.2007
 6582TIP3    H241306   0.911   2.060   3.643 -0.6492  0.5017 -2.4875
 6583TIP3   OH241307   3.272   0.889   3.465  0.1101  0.5794 -0.1359
 6583TIP3    H141308   3.332   0.841   3.522 -0.3497  1.9312  1.5546
 6583TIP3    H241309   3.328   0.931   3.400  0.6956 -0.5214 -0.3705
 6584TIP3   OH241310   3.711   4.912   0.169 -0.1922  0.0017  0.2774
 6584TIP3    H141311   3.736   4.833   0.217 -1.8776 -1.7028 -1.4242
 6584TIP3    H241312   3.651   4.880   0.101 -0.6395  2.7247 -0.7366
 6585TIP3   OH241313   0.684   0.158   0.125  0.3908  0.0700 -0.2170
 6585TIP3    H141314   0.645   0.111   0.199  0.3665 -0.3868 -0.5174
 6585TIP3    H241315   0.629   0.134   0.051 -1.2280  2.5959  0.0582
 6586TIP3   OH241316   3.842   3.189   1.952  0.2132  0.2674  0.2661
 6586TIP3    H141317   3.926   3.211   1.993  0.8132 -1.0488 -0.2062
 6586TIP3    H241318   3.781   3.178   2.026  0.8363 -0.2613  0.7129
 6587TIP3   OH241319   4.263   4.024   2.603 -0.1264  0.3527 -0.3196
 6587TIP3    H141320   4.207   3.990   2.534  0.5526  0.4102 -0.9107
 6587TIP3    H241321   4.319   4.089   2.560  0.3767  0.3180  0.2544
 6588TIP3   OH241322   3.307   5.765   0.689 -0.2237 -1.0671 -0.2814
 6588TIP3    H141323   3.312   5.742   0.596  0.2113  0.9833 -0.8150
 6588TIP3    H241324   3.213   5.767   0.708 -0.6459  2.5877 -1.8847
 6589TIP3   OH241325   5.862   1.640   0.300 -0.0626  0.3351 -0.1395
 6589TIP3    H141326   5.951   1.618   0.329  0.0821 -0.1565 -0.9502
 6589TIP3    H241327   5.838   1.715   0.355  0.2475 -0.4894  1.1750
 6590TIP3   OH241328   5.189   4.307   1.026  0.4255  0.1784  0.1362
 6590TIP3    H141329   5.156   4.297   1.116 -0.1613  0.1933 -0.0752
 6590TIP3    H241330   5.136   4.247   0.974  0.9557 -0.0418 -0.1597
 6591TIP3   OH241331   4.105   5.379   1.338  0.3305  0.4431  0.3915
 6591TIP3    H141332   4.130   5.350   1.425 -0.1649  1.2603  0.8155
 6591TIP3    H241333   4.050   5.308   1.304  0.9782 -0.1260  0.5168
 6592TIP3   OH241334   4.590   3.550   1.179  0.1588 -0.2223 -0.2112
 6592TIP3    H141335   4.582   3.473   1.124  0.6592 -0.7075  0.3720
 6592TIP3    H241336   4.684   3.570   1.178  0.1031  0.0574  0.0583
 6593TIP3   OH241337   0.240   3.094   1.785  0.1177 -0.5019 -0.1696
 6593TIP3    H141338   0.236   3.023   1.722 -0.7774 -1.6746  1.1413
 6593TIP3    H241339   0.328   3.129   1.776 -0.4369  0.3922 -3.0894
 6594TIP3   OH241340   2.394   5.068   3.790  0.3083  0.2098 -0.6991
 6594TIP3    H141341   2.399   4.998   3.854  1.4047  0.7041 -0.2136
 6594TIP3    H241342   2.300   5.079   3.772 -0.0674  0.4478  1.2408
 6595TIP3   OH241343   3.301   1.620   8.235  0.4286 -0.7228  0.7360
 6595TIP3    H141344   3.336   1.556   8.298  1.8238  0.3463  1.0915
 6595TIP3    H241345   3.339   1.704   8.262  1.2596 -0.2493 -1.6406
 6596TIP3   OH241346   3.775   4.617   7.715 -0.2656  0.1052 -0.2120
 6596TIP3    H141347   3.831   4.651   7.646 -0.9801  1.6621 -0.0602
 6596TIP3    H241348   3.810   4.655   7.795 -0.3648 -0.4819  0.1152
 6597TIP3   OH241349   5.192   4.059   3.742 -0.0634  0.3274  0.5520
 6597TIP3    H141350   5.173   3.978   3.789  0.6270  0.6223  1.3793
 6597TIP3    H241351   5.166   4.128   3.803 -0.0572  0.7296  0.1050
 6598TIP3   OH241352   1.429   0.635   3.039 -0.6608 -0.3120 -0.3902
 6598TIP3    H141353   1.444   0.718   3.085  0.1324 -1.3446  1.3198
 6598TIP3    H241354   1.494   0.635   2.969  2.2564 -1.1795  2.0787
 6599TIP3   OH241355   6.242   5.405   3.220 -0.0472  0.6928  0.1857
 6599TIP3    H141356   6.211   5.489   3.253  1.0208  0.4817  1.8575
 6599TIP3    H241357   6.333   5.422   3.195  0.3246 -0.0439  0.9781
 6600TIP3   OH241358   6.542   5.528   2.427 -0.3368  0.3076 -0.2849
 6600TIP3    H141359   6.572   5.472   2.355 -0.9042 -1.3305  0.7060
 6600TIP3    H241360   6.519   5.467   2.497 -1.0349  1.7928  0.8281
 6601TIP3   OH241361   6.458   4.504   1.495 -0.3523 -0.3510  0.1130
 6601TIP3    H141362   6.379   4.478   1.542  0.6187 -1.2961  1.3033
 6601TIP3    H241363   6.505   4.422   1.479  0.3783  0.1883 -0.5847
 6602TIP3   OH241364   2.769   3.872   0.994  0.1483  0.3537  0.1705
 6602TIP3    H141365   2.690   3.824   0.969 -1.3632  2.2359  1.1018
 6602TIP3    H241366   2.807   3.902   0.912  0.2418 -1.0273 -0.3169
 6603TIP3   OH241367   2.308   1.772   8.571 -0.0436  0.3862 -0.3204
 6603TIP3    H141368   2.350   1.689   8.594 -1.6607 -0.0412  1.3150
 6603TIP3    H241369   2.218   1.748   8.547 -1.1809  1.7799  2.1444
 6604TIP3   OH241370   3.584   3.646   8.239 -0.2377  0.3575 -0.0549
 6604TIP3    H141371   3.620   3.706   8.174  0.2903 -3.0950 -3.2778
 6604TIP3    H241372   3.496   3.626   8.208  0.0287 -1.3801  0.1586
 6605TIP3   OH241373   4.619   6.342   0.136  0.4698  0.0312  0.2982
 6605TIP3    H141374   4.537   6.295   0.122 -0.3432  1.6240 -0.5516
 6605TIP3    H241375   4.599   6.433   0.111  3.0931  0.0565 -2.1335
 6606TIP3   OH241376   3.007   0.787   2.962 -0.2363 -0.1508  0.2222
 6606TIP3    H141377   3.074   0.756   2.900 -0.3882 -0.7271  0.3429
 6606TIP3    H241378   3.036   0.754   3.047  0.9405  2.1164  0.7977
 6607TIP3   OH241379   2.074   1.600   0.331  0.0609  0.3913  0.3728
 6607TIP3    H141380   2.140   1.617   0.399  0.0035  2.3795  0.0095
 6607TIP3    H241381   2.038   1.687   0.312  0.3739 -0.0281 -2.5105
 6608TIP3   OH241382   0.864   5.610   2.372  0.2196  0.0146 -0.4369
 6608TIP3    H141383   0.883   5.643   2.284 -0.4843 -1.1875 -1.0684
 6608TIP3    H241384   0.769   5.613   2.379  0.2786  0.3029  0.3806
 6609TIP3   OH241385   5.564   4.935   0.106 -0.4513 -0.3790 -0.2358
 6609TIP3    H141386   5.586   4.846   0.081 -1.2203  0.2148 -3.4222
 6609TIP3    H241387   5.469   4.941   0.096 -0.5375  0.5634  0.8839
 6610TIP3   OH241388   1.881   2.882   0.421 -0.1913  0.4140  0.2326
 6610TIP3    H141389   1.878   2.825   0.498 -0.1090  1.6578  1.1947
 6610TIP3    H241390   1.974   2.901   0.409 -0.2190  0.3598 -0.0731
 6611TIP3   OH241391   4.997   4.285   1.974 -0.1040  0.3449  0.4755
 6611TIP3    H141392   5.042   4.201   1.961 -0.0908  0.3110  0.7293
 6611TIP3    H241393   5.041   4.346   1.915  1.0171  0.5778  1.5186
 6612TIP3   OH241394   5.120   2.254   0.768  0.0007  0.2444  0.2056
 6612TIP3    H141395   5.110   2.165   0.734 -1.7414  0.0546  1.1105
 6612TIP3    H241396   5.125   2.243   0.863 -0.8228  1.1456  0.3658
 6613TIP3   OH241397   5.719   3.486   2.521 -0.2320  0.2800 -0.0872
 6613TIP3    H141398   5.739   3.413   2.580 -1.7316  0.4832  0.7376
 6613TIP3    H241399   5.695   3.558   2.580  0.1158  1.0899 -0.9140
 6614TIP3   OH241400   2.128   5.807   8.612  0.1166  0.1169 -0.2589
 6614TIP3    H141401   2.170   5.817   8.527 -1.0190  1.0104 -0.7464
 6614TIP3    H241402   2.192   5.839   8.675  1.4051 -1.5975 -0.6412
 6615TIP3   OH241403   0.984   3.463   0.903 -0.7573  0.4289 -0.0970
 6615TIP3    H141404   1.066   3.415   0.891 -0.9616 -0.3146  1.2744
 6615TIP3    H241405   0.926   3.401   0.945 -1.8749  1.1132 -0.5850
 6616TIP3   OH241406   0.756   6.142   2.171  0.4158  0.7901 -0.0189
 6616TIP3    H141407   0.710   6.195   2.236  0.9938  1.0399  0.2009
 6616TIP3    H241408   0.703   6.063   2.162 -0.9675  1.7793 -1.0251
 6617TIP3   OH241409   2.368   1.101   2.494  0.4672 -0.2031  0.2809
 6617TIP3    H141410   2.403   1.170   2.438 -0.2623  1.5892  1.9208
 6617TIP3    H241411   2.277   1.093   2.467  0.8042 -1.3367 -0.6175
 6618TIP3   OH241412   4.699   0.153   7.709 -0.6851 -0.3169  0.4760
 6618TIP3    H141413   4.621   0.204   7.686 -1.7746 -1.5340  1.3214
 6618TIP3    H241414   4.695   0.145   7.805  0.3376 -0.6276  0.5036
 6619TIP3   OH241415   6.269   3.715   2.215  0.3919  0.0497 -0.0699
 6619TIP3    H141416   6.196   3.727   2.155  0.6502 -0.0762 -0.4168
 6619TIP3    H241417   6.232   3.670   2.290 -0.4797  2.4921  1.0224
 6620TIP3   OH241418   4.094   4.237   0.824  0.0248  0.1504 -0.0338
 6620TIP3    H141419   4.072   4.318   0.870  0.2572  0.0875  0.1906
 6620TIP3    H241420   4.025   4.176   0.849 -0.1668  0.2862 -0.2253
 6621TIP3   OH241421   6.535   0.076   1.782  0.4382  0.9888  0.3079
 6621TIP3    H141422   6.546  -0.018   1.775 -0.7504  0.9248 -1.2283
 6621TIP3    H241423   6.442   0.089   1.799  0.9959  1.8271  3.4483
 6622TIP3   OH241424   1.692   4.516   0.166 -0.0311  0.4013  0.5047
 6622TIP3    H141425   1.694   4.466   0.247  1.2112 -1.7513 -0.7809
 6622TIP3    H241426   1.647   4.460   0.103  3.7092 -0.4624 -1.7197
 6623TIP3   OH241427   2.968   2.501   0.300 -0.0369 -0.1231  0.4707
 6623TIP3    H141428   2.991   2.410   0.318  1.2895  0.6113  3.0016
 6623TIP3    H241429   2.916   2.528   0.376 -1.0347  1.0752 -0.5788
 6624TIP3   OH241430   5.096   1.608   0.487  0.2688  0.0112 -0.0731
 6624TIP3    H141431   5.100   1.645   0.575 -1.3026 -0.7810  0.3678
 6624TIP3    H241432   5.145   1.526   0.494  1.5248  0.7053 -0.3841
 6625TIP3   OH241433   1.680   1.183   3.573  0.1831  0.1515 -0.0314
 6625TIP3    H141434   1.610   1.134   3.616 -0.1517 -0.1231 -0.8688
 6625TIP3    H241435   1.761   1.146   3.609 -0.0365 -1.5876 -1.2069
 6626TIP3   OH241436   0.163   4.214   8.338 -0.2843 -0.2508  0.1655
 6626TIP3    H141437   0.180   4.137   8.391  2.4881  0.6522  0.7464
 6626TIP3    H241438   0.139   4.180   8.252  1.7470 -1.8110  0.1600
 6627TIP3   OH241439   3.820   5.675   1.998 -0.6064  0.0020  0.5114
 6627TIP3    H141440   3.772   5.690   2.080 -1.5156  0.8067 -0.1490
 6627TIP3    H241441   3.777   5.599   1.959 -0.6966  0.1169  0.3886
 6628TIP3   OH241442   4.899   6.029   2.539 -0.2118 -0.4000 -0.6878
 6628TIP3    H141443   4.965   5.964   2.511 -0.7089 -1.0922 -0.2727
 6628TIP3    H241444   4.830   6.022   2.473  0.1723  0.4316 -1.2058
 6629TIP3   OH241445   6.006   4.156   0.959  0.3670  0.3691 -0.5021
 6629TIP3    H141446   5.926   4.127   1.002 -0.6861  0.9464 -1.9929
 6629TIP3    H241447   6.077   4.129   1.018 -0.8616 -0.8846  0.4443
 6630TIP3   OH241448   5.054   0.211   2.288 -0.7313 -0.1014  0.4982
 6630TIP3    H141449   5.036   0.299   2.320  1.0598 -0.2363  2.0469
 6630TIP3    H241450   5.000   0.154   2.343 -0.9128 -0.0643  0.3609
 6631TIP3   OH241451   5.584   5.331   0.954 -0.0325 -0.2817  0.4430
 6631TIP3    H141452   5.508   5.373   0.992  0.6561  0.9874  0.4545
 6631TIP3    H241453   5.561   5.318   0.862  0.0504  0.8779  0.2496
 6632TIP3   OH241454   1.800   3.737   8.279 -0.4746  0.2853  0.3059
 6632TIP3    H141455   1.739   3.705   8.345 -1.6738  0.5135 -0.6752
 6632TIP3    H241456   1.863   3.666   8.268 -2.0973 -1.0800 -0.6052
 6633TIP3   OH241457   2.511   2.608   1.979 -0.2251 -0.7754 -0.2985
 6633TIP3    H141458   2.435   2.649   1.937  0.1333  0.6888  0.4291
 6633TIP3    H241459   2.481   2.588   2.067  1.1688  3.1103  1.2557
 6634TIP3   OH241460   0.513   5.010   0.380  0.4218  0.2668 -0.5191
 6634TIP3    H141461   0.527   4.916   0.373  1.4965  0.2275  1.3932
 6634TIP3    H241462   0.569   5.037   0.453 -1.1343  2.1138  0.0702
 6635TIP3   OH241463   3.647   3.582   1.085 -0.2833  0.0152  0.4565
 6635TIP3    H141464   3.619   3.662   1.129  1.6136  0.9807  0.0090
 6635TIP3    H241465   3.685   3.612   1.002 -0.0548 -1.4056  0.0185
 6636TIP3   OH241466   6.750   6.326   8.217  0.0720  0.3737  0.4106
 6636TIP3    H141467   6.845   6.325   8.228  0.2196  1.8369 -0.3420
 6636TIP3    H241468   6.731   6.415   8.186 -1.4759 -0.0792 -0.0413
 6637TIP3   OH241469   3.938   0.611   1.963 -0.2548 -0.0253 -0.0583
 6637TIP3    H141470   3.919   0.618   1.870 -1.3467 -1.7389 -0.0103
 6637TIP3    H241471   3.913   0.521   1.986  2.0241 -0.3665  1.4353
 6638TIP3   OH241472   6.294   1.703   3.536  0.2221 -0.4485  0.0312
 6638TIP3    H141473   6.283   1.622   3.586  0.4768  0.4224  1.5347
 6638TIP3    H241474   6.355   1.679   3.466  0.6545 -1.4486  0.7201
 6639TIP3   OH241475   1.925   5.234   3.049 -0.1934 -0.3370  0.2805
 6639TIP3    H141476   1.909   5.142   3.067  0.4311 -0.7662 -1.2238
 6639TIP3    H241477   1.987   5.234   2.976  0.7751  1.2732  1.0451
 6640TIP3   OH241478   0.526   2.153   1.235 -0.4094  0.3538 -0.0530
 6640TIP3    H141479   0.577   2.107   1.301  1.4902  2.3235 -0.0183
 6640TIP3    H241480   0.441   2.168   1.275  0.0538 -0.2231  1.1692
 6641TIP3   OH241481   0.699   1.854   3.359  0.3207 -0.0754  0.3108
 6641TIP3    H141482   0.704   1.832   3.452 -0.4733 -1.6277  0.0196
 6641TIP3    H241483   0.631   1.921   3.354 -1.6144 -1.9115  0.5917
 6642TIP3   OH241484   3.874   4.549   2.917 -0.2296 -0.0678  0.7474
 6642TIP3    H141485   3.902   4.476   2.863 -0.0088 -0.3351  1.2135
 6642TIP3    H241486   3.914   4.532   3.003  0.4609  0.9841  0.6619
 6643TIP3   OH241487   4.082   0.781   0.896  0.1834 -0.2740 -0.1168
 6643TIP3    H141488   4.119   0.869   0.887  0.9263 -0.4919  0.5841
 6643TIP3    H241489   4.133   0.727   0.834  0.6719 -0.4608  0.4309
 6644TIP3   OH241490   0.339   2.363   1.853 -0.2418 -0.6081  0.2852
 6644TIP3    H141491   0.414   2.331   1.803 -1.1008 -0.5920 -1.0530
 6644TIP3    H241492   0.304   2.285   1.896  0.5045 -0.6227  0.8829
 6645TIP3   OH241493   4.464   0.653   1.522 -0.2317  0.2507  0.1034
 6645TIP3    H141494   4.499   0.627   1.607 -2.1029 -0.5475  0.6651
 6645TIP3    H241495   4.401   0.585   1.500 -2.9842  2.5995  0.1267
 6646TIP3   OH241496   3.374   1.024   2.262  0.3417 -0.5754  0.3446
 6646TIP3    H141497   3.418   0.941   2.281 -2.9410 -2.3434  0.9110
 6646TIP3    H241498   3.431   1.090   2.302  2.2283 -2.6651  1.3861
 6647TIP3   OH241499   4.592   4.966   8.607  0.2604  0.2664 -0.6326
 6647TIP3    H141500   4.505   4.939   8.577  1.3151 -1.3504 -2.4868
 6647TIP3    H241501   4.583   5.059   8.625 -1.9525  0.0686 -0.3300
 6648TIP3   OH241502   1.805   6.041   3.232 -0.3694 -0.6593 -0.5410
 6648TIP3    H141503   1.787   6.104   3.163  0.0943  1.3560  1.0564
 6648TIP3    H241504   1.888   6.001   3.208  0.1735  0.5771 -0.7718
 6649TIP3   OH241505   0.749   6.677   2.141  0.4770 -0.2729 -0.0162
 6649TIP3    H141506   0.833   6.644   2.174  0.4474  1.1728  1.6755
 6649TIP3    H241507   0.688   6.604   2.155  0.8802 -0.3639  1.4872
 6650TIP3   OH241508   3.836   5.088   0.347 -0.4149 -0.1922 -0.6072
 6650TIP3    H141509   3.770   5.062   0.284 -4.0813  0.0610  2.7015
 6650TIP3    H241510   3.844   5.183   0.335 -0.6613 -0.2258 -1.0645
 6651TIP3   OH241511   1.494   3.164   3.079 -0.1201  0.7610 -0.0343
 6651TIP3    H141512   1.551   3.177   3.154 -0.2374  1.2687 -0.0290
 6651TIP3    H241513   1.430   3.235   3.085  0.9652  1.9072 -1.6474
 6652TIP3   OH241514   1.774   5.699   1.847  0.3814 -0.8256  0.7069
 6652TIP3    H141515   1.717   5.764   1.887  0.5797 -0.3445  0.2234
 6652TIP3    H241516   1.840   5.750   1.800  1.3836 -1.3680  1.4840
 6653TIP3   OH241517   5.515   2.468   8.114 -0.1027 -0.0003 -0.1302
 6653TIP3    H141518   5.435   2.521   8.113 -0.1627  0.0862  2.3868
 6653TIP3    H241519   5.576   2.516   8.058 -1.0440  1.2581 -0.1284
 6654TIP3   OH241520   0.562   4.246   0.941 -0.1791  0.8764 -0.1988
 6654TIP3    H141521   0.555   4.295   0.859 -3.1607 -0.3775 -0.7959
 6654TIP3    H241522   0.530   4.307   1.008 -0.8260  0.8322 -0.4610
 6655TIP3   OH241523   1.578   6.502   2.222  0.0990  0.1147  0.6898
 6655TIP3    H141524   1.671   6.523   2.211 -0.5698  4.3519  1.3107
 6655TIP3    H241525   1.568   6.489   2.316  0.1686 -1.5434  0.5027
 6656TIP3   OH241526   1.382   3.390   1.751 -0.5831 -0.0512 -0.5358
 6656TIP3    H141527   1.410   3.299   1.752  0.9918  0.4055  1.2231
 6656TIP3    H241528   1.382   3.417   1.843 -1.1401  1.6932 -1.0058
 6657TIP3   OH241529   5.723   1.935   0.849 -0.0849 -0.0565  0.1061
 6657TIP3    H141530   5.682   1.978   0.773 -1.3546  0.3246  0.9699
 6657TIP3    H241531   5.763   2.006   0.898 -0.1379 -0.1638  0.3053
 6658TIP3   OH241532   5.982   0.632   2.909  0.0850 -0.1191 -0.4420
 6658TIP3    H141533   5.909   0.573   2.927  0.1583 -0.0587  0.0807
 6658TIP3    H241534   6.060   0.578   2.924  0.1570  0.2220  0.4643
 6659TIP3   OH241535   2.460   4.381   0.122  0.6841  0.3153 -0.2469
 6659TIP3    H141536   2.380   4.334   0.100  0.6121  1.2926 -2.3805
 6659TIP3    H241537   2.453   4.398   0.216 -2.0579  1.1736 -0.5141
 6660TIP3   OH241538   4.623   6.060   0.762 -0.3160 -0.0805  0.5450
 6660TIP3    H141539   4.592   5.989   0.817  0.0222 -1.3078 -0.7765
 6660TIP3    H241540   4.567   6.057   0.684 -0.3304  1.1426  0.4818
 6661TIP3   OH241541   1.671   4.373   2.677 -0.0413 -0.1476 -0.0200
 6661TIP3    H141542   1.725   4.449   2.696  0.3308  0.3089 -2.5027
 6661TIP3    H241543   1.594   4.382   2.733  0.9310  0.9524  1.1776
 6662TIP3   OH241544   5.613   2.681   7.603 -0.2718  0.6660  0.4596
 6662TIP3    H141545   5.579   2.770   7.593 -1.8632 -0.0159 -0.8004
 6662TIP3    H241546   5.550   2.638   7.661  0.5242  0.3568  1.1121
 6663TIP3   OH241547   2.078   6.728   2.142  0.1440  0.1344  0.4461
 6663TIP3    H141548   2.037   6.674   2.074  0.0171 -1.8344  1.9892
 6663TIP3    H241549   2.161   6.756   2.103 -0.4611  0.0439 -0.9451
 6664TIP3   OH241550   5.999   1.814   3.110  0.1952  0.1689  0.7766
 6664TIP3    H141551   5.991   1.866   3.030  1.2727  1.6738  1.6005
 6664TIP3    H241552   6.094   1.802   3.121  0.1553  1.1823  2.5425
 6665TIP3   OH241553   2.761   3.252   0.966  0.1990  0.0870 -0.1214
 6665TIP3    H141554   2.701   3.245   1.040  1.6265 -0.2896  1.0413
 6665TIP3    H241555   2.768   3.345   0.949  0.7385  0.2593  0.9824
 6666TIP3   OH241556   0.353   3.917   1.871 -0.4198  0.3556 -0.9434
 6666TIP3    H141557   0.265   3.924   1.909 -0.7120  2.3402 -1.8283
 6666TIP3    H241558   0.403   3.865   1.934 -2.4238 -1.6045 -0.8515
 6667TIP3   OH241559   4.005   0.655   1.508  0.1491 -0.0175 -0.0109
 6667TIP3    H141560   3.941   0.603   1.556 -0.9247  0.9107 -0.4116
 6667TIP3    H241561   4.027   0.602   1.431  0.5990 -0.7556  0.6153
 6668TIP3   OH241562   5.806   2.835   2.881 -0.2352 -0.4258  0.1140
 6668TIP3    H141563   5.862   2.824   2.804  1.2387  1.0115  0.9339
 6668TIP3    H241564   5.850   2.787   2.951 -0.7723 -0.4445  0.4527
 6669TIP3   OH241565   0.185   2.698   0.067  0.4666 -0.8280  0.8184
 6669TIP3    H141566   0.102   2.652   0.078 -0.9356  1.5084  0.7354
 6669TIP3    H241567   0.239   2.668   0.140 -1.0433 -1.2131  1.8295
 6670TIP3   OH241568   3.967   2.216   1.694  0.3855 -0.0920  0.3101
 6670TIP3    H141569   3.886   2.219   1.643  0.3801  1.0226  0.3785
 6670TIP3    H241570   4.013   2.138   1.660 -0.4540 -0.4214 -0.1021
 6671TIP3   OH241571   0.239   6.528   2.436  0.0171  0.4389 -0.3792
 6671TIP3    H141572   0.320   6.579   2.434 -0.2560  0.8624 -2.5612
 6671TIP3    H241573   0.261   6.446   2.391 -0.3335 -0.1719  0.5299
 6672TIP3   OH241574   1.952   0.421   0.694 -0.0632 -0.0901  0.3170
 6672TIP3    H141575   1.899   0.341   0.688 -1.2125  0.5556  1.2865
 6672TIP3    H241576   1.966   0.433   0.788 -0.2837  1.0736  0.2172
 6673TIP3   OH241577   4.314   1.840   2.848 -0.2337  0.4269  0.4644
 6673TIP3    H141578   4.262   1.897   2.905  0.4201  2.0192 -0.4471
 6673TIP3    H241579   4.404   1.850   2.880 -0.3289 -1.7483  1.5847
 6674TIP3   OH241580   1.772   4.547   1.701 -0.6269 -0.5951  0.0780
 6674TIP3    H141581   1.724   4.465   1.710 -1.3664 -0.5212 -2.5484
 6674TIP3    H241582   1.725   4.608   1.758 -1.4121 -1.4320  0.3471
 6675TIP3   OH241583   3.070   1.838   3.011 -0.2188 -0.3834 -0.0975
 6675TIP3    H141584   3.034   1.818   2.925 -2.7224 -1.5999  1.1222
 6675TIP3    H241585   3.117   1.759   3.036  0.1411 -0.1954 -0.1862
 6676TIP3   OH241586   5.171   5.995   1.053  0.1461 -0.5151 -0.3267
 6676TIP3    H141587   5.091   6.047   1.049  0.4542  0.1766  1.4791
 6676TIP3    H241588   5.224   6.026   0.980 -0.9399 -0.4978 -1.1192
 6677TIP3   OH241589   2.606   4.838   1.171 -0.7227 -0.6376  0.3496
 6677TIP3    H141590   2.558   4.789   1.237  1.7660  0.0814  2.9294
 6677TIP3    H241591   2.671   4.776   1.137  0.5529 -0.0117  1.5317
 6678TIP3   OH241592   2.670   3.963   3.090  0.2590  0.1761  0.1420
 6678TIP3    H141593   2.588   3.948   3.044  0.1287  2.2651 -0.4154
 6678TIP3    H241594   2.725   3.888   3.067 -0.8935 -0.3814 -0.8683
 6679TIP3   OH241595   4.271   2.907   1.626  0.0567 -0.7929 -0.3193
 6679TIP3    H141596   4.236   2.894   1.538 -0.8494  1.1579 -0.3071
 6679TIP3    H241597   4.195   2.895   1.683  0.1385  0.1772 -0.0007
 6680TIP3   OH241598   6.613   6.672   1.858 -0.3333 -0.9735  0.3269
 6680TIP3    H141599   6.684   6.672   1.922 -0.9724  0.1389  1.0613
 6680TIP3    H241600   6.634   6.599   1.800  1.8620 -0.2148  0.0345
 6681TIP3   OH241601   6.708   4.870   1.150  0.0461 -0.3632  0.4607
 6681TIP3    H141602   6.670   4.957   1.141  0.6899  0.1565  2.2468
 6681TIP3    H241603   6.740   4.848   1.063  0.0328  1.2673  0.0201
 6682TIP3   OH241604   2.745   3.272   4.106  0.2970  0.0756 -0.1393
 6682TIP3    H141605   2.816   3.328   4.138  0.9413 -0.7026 -0.1818
 6682TIP3    H241606   2.705   3.237   4.185 -0.1496  0.6261 -0.1098
 6683TIP3   OH241607   3.824   0.837   1.405 -0.4109  0.7327  0.0387
 6683TIP3    H141608   3.840   0.747   1.431 -0.9583  0.9472  1.1925
 6683TIP3    H241609   3.847   0.889   1.482 -0.7361  1.5226 -0.3755
 6684TIP3   OH241610   6.570   5.141   0.962 -0.6003  0.0833 -0.1794
 6684TIP3    H141611   6.515   5.096   1.025 -0.2181  0.8163  0.7098
 6684TIP3    H241612   6.659   5.126   0.993 -0.3585 -0.1568 -0.9642
 6685TIP3   OH241613   6.122   6.084   1.279 -0.2732  0.2410  0.0695
 6685TIP3    H141614   6.140   6.017   1.214  0.7236  0.0717  0.5051
 6685TIP3    H241615   6.106   6.163   1.228 -4.5151 -0.8304 -0.6768
 6686TIP3   OH241616   6.633   4.107   2.879 -0.4995  0.0194 -0.4828
 6686TIP3    H141617   6.688   4.140   2.808 -0.8979  0.7580 -0.4467
 6686TIP3    H241618   6.544   4.128   2.852 -0.7395 -0.7611 -0.3180
 6687TIP3   OH241619   2.322   5.971   1.486 -0.2919  0.2855 -0.1788
 6687TIP3    H141620   2.387   5.918   1.533 -0.8587 -0.5902 -0.3691
 6687TIP3    H241621   2.345   5.961   1.394  0.1196  1.0772 -0.1714
 6688TIP3   OH241622   5.579   5.796   1.970  0.7448  0.0715 -0.2797
 6688TIP3    H141623   5.580   5.889   1.993  1.3470  0.3203 -1.2525
 6688TIP3    H241624   5.576   5.795   1.875  1.0761 -0.9062 -0.2868
 6689TIP3   OH241625   6.687   1.581   1.559 -0.4375  0.8404  0.0053
 6689TIP3    H141626   6.705   1.667   1.521  1.6667  1.7683  2.7074
 6689TIP3    H241627   6.750   1.522   1.517  0.6599  1.4676  0.7070
 6690TIP3   OH241628   3.280   4.221   8.346  0.3045  0.7723 -0.1804
 6690TIP3    H141629   3.294   4.259   8.259  0.1877 -0.8447 -0.9479
 6690TIP3    H241630   3.369   4.201   8.377  0.2582 -0.6766 -0.9089
 6691TIP3   OH241631   0.627   3.161   1.787  0.8108  0.1300 -0.5810
 6691TIP3    H141632   0.644   3.103   1.861  1.0303 -0.1263 -0.8300
 6691TIP3    H241633   0.704   3.218   1.783 -0.6257  2.4147  1.4588
 6692TIP3   OH241634   4.852   6.339   8.600  0.1734  0.5814  0.0685
 6692TIP3    H141635   4.795   6.313   8.672 -0.5546  0.3069 -0.5943
 6692TIP3    H241636   4.795   6.384   8.538  1.3493  3.8475  1.1308
 6693TIP3   OH241637   0.997   6.472   0.280 -0.6885  0.1921  0.3208
 6693TIP3    H141638   1.008   6.505   0.191  0.7605 -1.7977 -0.2995
 6693TIP3    H241639   0.929   6.405   0.272  0.0462 -0.5948  0.5122
 6694TIP3   OH241640   6.527   2.943   3.448  0.5498  0.4428  0.3614
 6694TIP3    H141641   6.569   2.901   3.374  1.3094  0.5850  0.7068
 6694TIP3    H241642   6.471   3.011   3.409  2.9603  2.3403  0.0014
 6695TIP3   OH241643   4.133   1.920   3.077 -0.4985 -0.1262  0.1615
 6695TIP3    H141644   4.147   1.867   3.156 -1.6482 -1.6406 -0.6108
 6695TIP3    H241645   4.060   1.977   3.100 -0.8976 -0.6354  0.1759
 6696TIP3   OH241646   2.853   1.227   0.645 -0.2536  0.4404 -0.3815
 6696TIP3    H141647   2.792   1.269   0.706  0.4280 -0.8312  1.2371
 6696TIP3    H241648   2.799   1.207   0.569 -1.6971  0.0429  0.6902
 6697TIP3   OH241649   3.402   2.333   2.064  0.5386  0.1429 -0.2385
 6697TIP3    H141650   3.465   2.268   2.032 -0.2651 -0.5305 -0.4698
 6697TIP3    H241651   3.326   2.282   2.090  0.3541  0.8796  0.7438
 6698TIP3   OH241652   6.296   5.060   8.003  0.6362  0.3162 -0.1065
 6698TIP3    H141653   6.282   5.154   7.993 -0.7947  0.0130 -1.3817
 6698TIP3    H241654   6.390   5.051   8.021  0.8201  1.9648 -0.0860
 6699TIP3   OH241655   1.573   3.034   3.623  0.1916 -0.4696 -0.4130
 6699TIP3    H141656   1.586   3.093   3.697 -0.4100  1.5610 -1.8533
 6699TIP3    H241657   1.640   2.967   3.634  2.4629  1.7316  0.0850
 6700TIP3   OH241658   0.039   1.656   0.124 -0.0527  0.4121  0.0793
 6700TIP3    H141659   0.133   1.662   0.141  0.1745 -0.1117 -0.8991
 6700TIP3    H241660  -0.002   1.693   0.202  0.9317 -0.4915  1.0663
 6701TIP3   OH241661   0.355   5.741   2.955  0.1511 -0.1443 -0.0780
 6701TIP3    H141662   0.437   5.761   2.999 -0.1585  0.0903  0.4043
 6701TIP3    H241663   0.296   5.812   2.981  0.0588  0.2062 -1.1628
 6702TIP3   OH241664   4.561   0.718   2.107  0.4162  0.2768 -0.3736
 6702TIP3    H141665   4.484   0.712   2.050  0.6797 -0.4838 -0.6701
 6702TIP3    H241666   4.528   0.698   2.194  0.0472  1.2448 -0.2829
 6703TIP3   OH241667   2.112   0.722   2.838  0.3150  0.3906  0.3509
 6703TIP3    H141668   2.042   0.755   2.896 -0.6856  0.9983 -1.1462
 6703TIP3    H241669   2.069   0.656   2.784  1.0131  0.4735 -0.3160
 6704TIP3   OH241670   2.471   6.233   0.425 -0.4367 -0.8102 -0.0826
 6704TIP3    H141671   2.423   6.151   0.429 -1.7091 -0.0779  0.3362
 6704TIP3    H241672   2.414   6.296   0.470  0.9808  0.0715  0.5423
 6705TIP3   OH241673   6.049   3.443   8.073 -0.0589 -0.7769 -0.0440
 6705TIP3    H141674   5.979   3.388   8.108 -0.3389  0.1657  0.9465
 6705TIP3    H241675   6.013   3.479   7.992 -0.8319 -0.1065  0.5824
 6706TIP3   OH241676   1.624   3.852   1.120 -0.0431  0.1488 -0.1618
 6706TIP3    H141677   1.576   3.770   1.125  0.9535 -0.4183  0.3091
 6706TIP3    H241678   1.711   3.827   1.090 -0.0307  1.1695 -1.0655
 6707TIP3   OH241679   4.150   5.542   0.988 -0.2877  0.4913  0.1075
 6707TIP3    H141680   4.158   5.561   1.081  0.8195 -2.5364  0.7333
 6707TIP3    H241681   4.057   5.558   0.968 -0.6457  0.7511  1.8257
 6708TIP3   OH241682   1.678   1.587   7.755  0.3693  0.2161 -0.0983
 6708TIP3    H141683   1.718   1.501   7.744  1.0118  0.4504  0.3180
 6708TIP3    H241684   1.707   1.636   7.678 -0.2815 -0.0397 -0.5118
 6709TIP3   OH241685   6.138   0.370   0.827  0.0479 -0.4996  0.7749
 6709TIP3    H141686   6.220   0.320   0.823  0.5370  0.3408 -1.9157
 6709TIP3    H241687   6.070   0.308   0.801  0.7197  0.0977 -3.0944
 6710TIP3   OH241688   3.659   4.790   3.031 -0.0790 -0.1657 -0.1772
 6710TIP3    H141689   3.587   4.799   3.093  0.1182 -0.7041  0.1327
 6710TIP3    H241690   3.732   4.837   3.073  0.2904 -1.2069  0.3899
 6711TIP3   OH241691   0.837   6.763   0.680  0.3211  0.3986  0.2541
 6711TIP3    H141692   0.906   6.710   0.721  1.4385  0.5029 -1.3691
 6711TIP3    H241693   0.845   6.743   0.586  0.4488  3.0431 -0.3586
 6712TIP3   OH241694   5.769   3.585   1.707 -0.1218  0.6447 -0.0415
 6712TIP3    H141695   5.683   3.587   1.749 -0.5803  1.8738 -0.9740
 6712TIP3    H241696   5.779   3.671   1.667  1.6780  0.6336  0.2776
 6713TIP3   OH241697   0.898   6.826   3.345 -0.5458 -0.2200 -0.5629
 6713TIP3    H141698   0.810   6.863   3.345 -0.7447 -0.5924  1.3079
 6713TIP3    H241699   0.888   6.742   3.389  0.6367 -0.5840 -0.9661
 6714TIP3   OH241700   2.523   6.605   8.647  0.1266 -0.1605 -0.3199
 6714TIP3    H141701   2.531   6.697   8.673 -0.4676  0.3325 -1.7753
 6714TIP3    H241702   2.607   6.585   8.606 -0.1631  0.1028 -1.0572
 6715TIP3   OH241703   5.583   3.656   8.420 -0.1889 -0.3975  0.1207
 6715TIP3    H141704   5.668   3.612   8.413  0.5949  1.1735 -0.8467
 6715TIP3    H241705   5.541   3.641   8.336 -0.8866 -1.1678  0.5979
 6716TIP3   OH241706   4.130   4.646   2.869  0.5382  0.0662  0.4695
 6716TIP3    H141707   4.040   4.633   2.900  0.7504  0.5205  1.2917
 6716TIP3    H241708   4.183   4.589   2.924  0.5921 -1.5484 -1.1555
 6717TIP3   OH241709   0.134   2.221   2.001 -0.1673  0.4591 -0.1265
 6717TIP3    H141710   0.056   2.254   1.957 -0.7510  1.4776  1.5640
 6717TIP3    H241711   0.110   2.132   2.028 -0.0979  0.1344 -1.0998
 6718TIP3   OH241712   5.381   3.226   2.814  0.8019  0.4910 -0.2437
 6718TIP3    H141713   5.436   3.159   2.773  2.5435 -0.3787  3.1667
 6718TIP3    H241714   5.327   3.177   2.876 -0.0213  1.9693  0.2592
 6719TIP3   OH241715   2.765   6.633   1.705  0.3364 -0.1717 -0.6525
 6719TIP3    H141716   2.851   6.594   1.716 -0.2578 -1.8243 -1.5148
 6719TIP3    H241717   2.708   6.584   1.763  0.0998  1.5589  0.6704
 6720TIP3   OH241718   4.133   1.593   0.517 -0.9003  0.3741 -0.1969
 6720TIP3    H141719   4.126   1.497   0.522 -0.8312  0.3978  0.3805
 6720TIP3    H241720   4.150   1.620   0.607 -1.2412  0.9590 -0.3069
 6721TIP3   OH241721   5.247   6.867   0.054  0.3999 -0.3444  0.4084
 6721TIP3    H141722   5.271   6.934  -0.009  1.1686 -1.1649 -0.1984
 6721TIP3    H241723   5.193   6.913   0.119  0.6981  0.7902 -0.1226
 6722TIP3   OH241724   4.958   0.417   0.675 -0.2713  0.0076 -0.2612
 6722TIP3    H141725   4.878   0.369   0.698 -0.2476  0.6583  1.2831
 6722TIP3    H241726   5.022   0.349   0.656 -0.5435 -0.5756  0.8140
 6723TIP3   OH241727   3.427   0.962   1.693  0.0813  0.1665  0.3763
 6723TIP3    H141728   3.466   0.883   1.656 -0.3840  0.4913 -0.8545
 6723TIP3    H241729   3.353   0.983   1.635  0.5844  1.8662  0.2784
 6724TIP3   OH241730   4.212   1.203   1.874 -0.0239 -0.2513 -0.7370
 6724TIP3    H141731   4.244   1.126   1.827  1.3809 -0.2002  0.0928
 6724TIP3    H241732   4.191   1.266   1.804  0.9308 -0.5881 -1.3434
 6725TIP3   OH241733   1.157   3.392   8.632  0.1208 -0.0622  0.4305
 6725TIP3    H141734   1.141   3.303   8.601  0.4388  0.3873 -1.0863
 6725TIP3    H241735   1.102   3.400   8.710 -1.6665 -0.8448 -0.6733
 6726TIP3   OH241736   0.765   0.936   3.578 -0.7753 -0.0940 -0.1786
 6726TIP3    H141737   0.788   0.951   3.487 -1.8298 -1.2829 -0.6729
 6726TIP3    H241738   0.774   1.022   3.620  0.7848  0.2363 -1.1361
 6727TIP3   OH241739   2.446   2.585   1.187  0.5311  0.0481  0.1950
 6727TIP3    H141740   2.431   2.679   1.199 -0.7665  0.1468 -1.7028
 6727TIP3    H241741   2.423   2.568   1.096  3.0509 -1.7172 -0.2302
 6728TIP3   OH241742   5.330   5.874   8.467 -0.6515 -0.2276  0.5272
 6728TIP3    H141743   5.412   5.920   8.480  0.2399 -1.1659 -1.3588
 6728TIP3    H241744   5.284   5.925   8.401 -1.2568 -0.1374  1.0058
 6729TIP3   OH241745   4.026   4.677   1.750 -0.0907 -0.0292  0.0650
 6729TIP3    H141746   3.964   4.604   1.752 -0.8500  0.5668 -1.0749
 6729TIP3    H241747   4.112   4.634   1.752 -0.4422 -0.8310  3.0405
 6730TIP3   OH241748   5.994   0.797   2.179 -0.0200  0.0253  0.1077
 6730TIP3    H141749   6.050   0.815   2.255  1.9566 -1.5948 -0.8728
 6730TIP3    H241750   5.944   0.719   2.203  1.0887 -0.8822 -0.4478
 6731TIP3   OH241751   3.943   2.393   8.524 -0.3328 -0.0594 -0.1224
 6731TIP3    H141752   3.849   2.402   8.513 -0.1658  0.4679 -1.4393
 6731TIP3    H241753   3.967   2.463   8.585 -1.0540 -1.6507  2.0989
 6732TIP3   OH241754   6.423   0.634   0.999 -0.2191 -1.2214 -0.0651
 6732TIP3    H141755   6.378   0.609   0.918 -0.9063 -0.4848  0.0793
 6732TIP3    H241756   6.394   0.723   1.016  0.5346 -1.0867  0.5803
 6733TIP3   OH241757   1.913   6.423   2.134  0.9652  0.0140 -0.4947
 6733TIP3    H141758   1.862   6.347   2.164  1.1435 -0.5686 -1.6063
 6733TIP3    H241759   1.994   6.385   2.099  1.0209  0.7159 -1.1434
 6734TIP3   OH241760   3.185   6.753   1.286  0.3107 -0.1319 -0.0697
 6734TIP3    H141761   3.093   6.760   1.311 -0.1197  0.5709 -1.6561
 6734TIP3    H241762   3.225   6.834   1.318  0.4851 -0.6079  0.9517
 6735TIP3   OH241763   2.812   4.226   3.278  0.6023  0.7688 -0.3072
 6735TIP3    H141764   2.862   4.180   3.211 -0.6778 -2.4866  0.7604
 6735TIP3    H241765   2.726   4.241   3.238  0.0454 -0.6028  0.2997
 6736TIP3   OH241766   0.829   6.704   2.797  0.3034  0.1706 -0.7481
 6736TIP3    H141767   0.755   6.761   2.815 -1.0246 -1.0116 -2.2390
 6736TIP3    H241768   0.905   6.752   2.829 -1.0865  1.4151  0.8284
 6737TIP3   OH241769   1.425   4.371   2.845 -0.0819 -0.3678  0.6363
 6737TIP3    H141770   1.370   4.449   2.849 -2.4832 -2.0248  1.8606
 6737TIP3    H241771   1.380   4.312   2.784  0.8677 -1.4030  0.8970
 6738TIP3   OH241772   4.854   2.938   3.042  0.2388 -0.0846 -0.1819
 6738TIP3    H141773   4.759   2.930   3.045  0.2523 -0.0311  1.1129
 6738TIP3    H241774   4.870   3.026   3.009 -0.1379 -0.3907 -1.2025
 6739TIP3   OH241775   5.597   1.249   8.312  0.6396 -0.3295  0.1320
 6739TIP3    H141776   5.622   1.302   8.388  0.2680 -1.2484  0.9169
 6739TIP3    H241777   5.676   1.246   8.258  2.3709 -3.0752  2.4864
 6740TIP3   OH241778   6.346   0.552   7.845  0.5675 -0.5578 -0.3412
 6740TIP3    H141779   6.276   0.568   7.782 -0.6225 -2.4665  0.4107
 6740TIP3    H241780   6.410   0.621   7.828 -1.1904  0.8732 -1.4758
 6741TIP3   OH241781   2.100   5.028   2.856 -0.0801  0.0457 -0.0669
 6741TIP3    H141782   2.051   5.013   2.776  1.5810  0.2836 -1.1704
 6741TIP3    H241783   2.053   4.978   2.923 -0.8314 -1.1341 -1.4248
 6742TIP3   OH241784   2.637   4.070   8.324 -0.1157  0.7278 -0.0852
 6742TIP3    H141785   2.615   3.979   8.345  1.0991  1.0651  3.3029
 6742TIP3    H241786   2.700   4.064   8.253  0.4842 -1.1562  0.5583
 6743TIP3   OH241787   0.531   3.261   1.525  0.8528 -0.1302 -0.1752
 6743TIP3    H141788   0.528   3.216   1.610 -3.4453 -0.6082 -0.3520
 6743TIP3    H241789   0.522   3.354   1.547  2.8415  0.0813 -0.0821
 6744TIP3   OH241790   2.112   3.166   0.490 -0.0420 -0.1270 -0.2993
 6744TIP3    H141791   2.171   3.091   0.480  0.3258  0.2100 -0.7079
 6744TIP3    H241792   2.045   3.136   0.552 -0.1817 -0.9575 -0.8391
 6745TIP3   OH241793   5.438   4.533   2.592 -0.2631 -0.0745  0.3986
 6745TIP3    H141794   5.463   4.450   2.632  1.8962  1.0226  1.5259
 6745TIP3    H241795   5.353   4.554   2.631 -0.8249 -1.6960  0.1190
 6746TIP3   OH241796   2.473   4.769   1.791 -0.2299  0.2252  0.4234
 6746TIP3    H141797   2.418   4.776   1.713  0.9224  1.6173 -0.3111
 6746TIP3    H241798   2.461   4.679   1.821 -2.4845  0.3346  0.0210
 6747TIP3   OH241799   2.424   2.486   8.413  0.2857 -0.2123  0.5611
 6747TIP3    H141800   2.470   2.472   8.495  0.7521 -0.6368  0.2350
 6747TIP3    H241801   2.421   2.400   8.372 -1.1332 -0.2634  0.7381
 6748TIP3   OH241802   3.154   6.112   0.240 -0.0975  0.0265  0.2218
 6748TIP3    H141803   3.233   6.065   0.266 -0.2701  1.2090  3.2518
 6748TIP3    H241804   3.085   6.077   0.297 -1.5396 -0.0843 -1.4924
 6749TIP3   OH241805   6.827   0.554   2.572 -0.6407  0.0353 -0.6670
 6749TIP3    H141806   6.853   0.591   2.657 -1.4497  0.7086 -0.7001
 6749TIP3    H241807   6.737   0.526   2.585 -0.3073 -1.2020 -0.8932
 6750TIP3   OH241808   5.102   1.246   8.412  0.0466  0.6204 -0.0217
 6750TIP3    H141809   5.051   1.277   8.487  1.6315  1.4079  0.7785
 6750TIP3    H241810   5.086   1.310   8.343  0.4854  1.2682  0.4628
 6751TIP3   OH241811   3.255   5.101   0.143 -0.0126  0.0208  0.1775
 6751TIP3    H141812   3.222   5.050   0.217 -0.8296  0.4694  0.1356
 6751TIP3    H241813   3.340   5.133   0.172 -0.5198  0.5625  1.1039
 6752TIP3   OH241814   6.606   5.772   2.345 -0.6363 -0.1896  0.0613
 6752TIP3    H141815   6.580   5.682   2.366 -2.5124  0.1379 -0.6787
 6752TIP3    H241816   6.599   5.819   2.428  0.4978 -0.7318  0.4843
 6753TIP3   OH241817   0.089   2.774   1.092  0.1142 -0.3390  0.4761
 6753TIP3    H141818   0.038   2.835   1.039  2.0475  2.7698  1.9109
 6753TIP3    H241819   0.025   2.736   1.153 -1.0831  0.7175 -0.0851
 6754TIP3   OH241820   4.533   4.615   1.526 -0.5118  0.1761 -0.4204
 6754TIP3    H141821   4.550   4.709   1.518 -1.8376  0.5071  0.3395
 6754TIP3    H241822   4.439   4.609   1.540 -0.4974 -1.3034 -0.7977
 6755TIP3   OH241823   0.107   2.018   1.729  0.4327  0.5123  0.1411
 6755TIP3    H141824   0.081   2.037   1.820  0.4877 -1.2617  0.5676
 6755TIP3    H241825   0.042   1.956   1.698  0.0441  1.5703 -1.3006
 6756TIP3   OH241826   5.189   0.791   8.255  0.8618  0.5646 -0.2723
 6756TIP3    H141827   5.222   0.702   8.270 -0.2700 -0.0396 -1.2105
 6756TIP3    H241828   5.202   0.806   8.162 -2.2160 -0.0493 -0.8920
 6757TIP3   OH241829   1.152   0.032   2.200  0.2844 -0.4012 -0.5096
 6757TIP3    H141830   1.181   0.095   2.134 -0.0601  0.0194 -0.2664
 6757TIP3    H241831   1.227  -0.026   2.213  1.4866  1.3474  0.9458
 6758TIP3   OH241832   1.921   0.839   0.135 -0.2705 -0.2028 -0.8629
 6758TIP3    H141833   2.001   0.871   0.177 -0.4987 -0.2762 -0.3754
 6758TIP3    H241834   1.852   0.851   0.199 -0.2074 -2.5789 -0.2338
 6759TIP3   OH241835   0.626   3.040   0.610  0.3672 -0.2666  0.3448
 6759TIP3    H141836   0.675   3.017   0.531 -0.9062  0.7117 -0.7657
 6759TIP3    H241837   0.594   3.129   0.594  1.3403  0.5811  2.6175
 6760TIP3   OH241838   0.071   5.478   0.764 -0.1936  0.0618  0.7603
 6760TIP3    H141839  -0.016   5.439   0.753  0.2999 -0.4368 -2.4892
 6760TIP3    H241840   0.127   5.405   0.789 -0.3115 -0.1067  0.5429
 6761TIP3   OH241841   3.709   4.436   0.334  0.1728 -0.7480  0.0439
 6761TIP3    H141842   3.675   4.347   0.331 -2.0611 -0.0124  1.4454
 6761TIP3    H241843   3.725   4.453   0.427  1.4028  0.0337 -0.2902
 6762TIP3   OH241844   3.942   0.181   3.504 -0.2629 -0.3322 -0.3920
 6762TIP3    H141845   3.975   0.265   3.537  0.4525 -1.0899  0.9322
 6762TIP3    H241846   3.998   0.116   3.545  0.4199 -1.4128 -2.8709
 6763TIP3   OH241847   6.267   1.639   7.957 -0.2763  0.6579  0.0184
 6763TIP3    H141848   6.189   1.643   7.902  1.0819  1.4412 -1.9830
 6763TIP3    H241849   6.243   1.685   8.037 -2.1630 -0.0317 -0.1140
 6764TIP3   OH241850   0.310   4.318   2.349  0.4223 -0.5402 -0.0619
 6764TIP3    H141851   0.282   4.246   2.292 -0.9439 -1.3052  1.4989
 6764TIP3    H241852   0.355   4.275   2.421 -0.6546  0.1247  1.0360
 6765TIP3   OH241853   4.358   4.252   0.794 -0.7428  0.2093 -0.3708
 6765TIP3    H141854   4.400   4.250   0.880  0.3659 -2.0442 -0.8794
 6765TIP3    H241855   4.264   4.255   0.812 -0.5121  0.2261  0.8892
 6766TIP3   OH241856   0.308   5.684   3.885  0.4169 -0.5255 -0.2174
 6766TIP3    H141857   0.380   5.701   3.824  0.3542 -1.6876 -0.6477
 6766TIP3    H241858   0.230   5.715   3.838  0.5861  0.4417  0.1195
 6767TIP3   OH241859   3.205   4.333   3.069  0.7142  0.0884 -0.2317
 6767TIP3    H141860   3.265   4.326   3.143  2.0496 -0.8732 -1.3396
 6767TIP3    H241861   3.239   4.407   3.018  1.0345 -0.5144 -0.9106
 6768TIP3   OH241862   2.476   3.009   2.472 -0.2158 -0.3383  0.0931
 6768TIP3    H141863   2.423   2.974   2.545  0.8995 -0.9895  0.6280
 6768TIP3    H241864   2.556   2.957   2.475  1.3488  1.9536  0.6156
 6769TIP3   OH241865   1.258   1.793   1.998  0.6224 -0.1916  0.1492
 6769TIP3    H141866   1.253   1.700   1.975  0.2030  0.0087 -0.5890
 6769TIP3    H241867   1.316   1.831   1.933 -2.1869  0.7713 -2.0185
 6770TIP3   OH241868   0.465   5.285   8.173  0.0533  0.3476  0.0094
 6770TIP3    H141869   0.558   5.266   8.162  0.0089 -0.8095  1.2669
 6770TIP3    H241870   0.421   5.224   8.114  0.0724  0.3220  0.0212
 6771TIP3   OH241871   6.368   2.951   7.570 -0.2898  0.5197  0.1677
 6771TIP3    H141872   6.274   2.958   7.556 -0.2664 -0.3338 -0.4541
 6771TIP3    H241873   6.404   3.030   7.529 -0.3500 -1.2585 -3.7256
 6772TIP3   OH241874   1.834   0.554   1.393  0.0506  1.0929 -0.4938
 6772TIP3    H141875   1.901   0.522   1.453 -0.7918  1.0837  0.4621
 6772TIP3    H241876   1.766   0.592   1.449 -1.6796 -0.6359 -1.2833
 6773TIP3   OH241877   0.352   0.064   7.753  0.1576 -0.4639  0.2042
 6773TIP3    H141878   0.277   0.122   7.743 -1.0046 -2.0448 -0.7151
 6773TIP3    H241879   0.352   0.010   7.673  2.4906 -0.2947  0.0015
 6774TIP3   OH241880   6.082   1.864   2.515 -0.3759 -0.0139  0.0658
 6774TIP3    H141881   6.168   1.888   2.549  0.8777 -2.4569 -1.1121
 6774TIP3    H241882   6.100   1.802   2.444 -3.0088  1.9066 -2.5052
 6775TIP3   OH241883   2.038   2.345   3.118 -0.4541 -0.5378  0.3337
 6775TIP3    H141884   1.993   2.291   3.183  1.5507 -0.8952  1.5291
 6775TIP3    H241885   2.006   2.314   3.034 -1.9226 -1.1800  1.0973
 6776TIP3   OH241886   0.106   4.659   2.124 -0.2464  0.0816  0.2128
 6776TIP3    H141887   0.172   4.683   2.059 -1.2892  0.0242 -0.9039
 6776TIP3    H241888   0.082   4.570   2.102 -0.2889 -0.1045  0.9792
 6777TIP3   OH241889   6.384   2.000   0.257  0.1245  0.0863 -0.1755
 6777TIP3    H141890   6.474   2.011   0.287  0.2699 -0.9714 -0.1763
 6777TIP3    H241891   6.330   2.022   0.333  0.3503  1.1533 -0.3009
 6778TIP3   OH241892   4.578   3.532   1.702 -0.2021  0.4536  0.1611
 6778TIP3    H141893   4.565   3.469   1.631  0.0505 -0.2970  0.7674
 6778TIP3    H241894   4.497   3.583   1.704 -1.1982 -1.0956  0.8782
 6779TIP3   OH241895   4.007   2.746   1.780  0.5217 -0.2781  0.3223
 6779TIP3    H141896   3.987   2.699   1.861 -1.3689  1.3241  0.8871
 6779TIP3    H241897   3.977   2.835   1.797  0.0748  0.1115 -2.1297
 6780TIP3   OH241898   6.061   6.277   1.832 -0.0879  0.1194 -0.1777
 6780TIP3    H141899   6.030   6.251   1.919 -0.9045  1.3971 -0.0611
 6780TIP3    H241900   6.027   6.208   1.774 -1.4622  0.4136  0.2340
 6781TIP3   OH241901   0.152   2.193   7.773 -0.4324 -0.0209 -0.0635
 6781TIP3    H141902   0.224   2.133   7.754 -1.7200 -0.8643 -2.7978
 6781TIP3    H241903   0.075   2.149   7.736 -1.6702  2.6524 -0.8919
 6782TIP3   OH241904   3.050   4.608   1.831  0.2943 -0.3033  0.9761
 6782TIP3    H141905   3.101   4.596   1.911 -0.5047  0.3280  1.5951
 6782TIP3    H241906   3.080   4.691   1.795  0.7564 -0.6560  0.5290
 6783TIP3   OH241907   5.617   5.712   1.671  0.1563  0.2937  0.2147
 6783TIP3    H141908   5.634   5.722   1.578 -1.0903  0.7684  0.0141
 6783TIP3    H241909   5.653   5.626   1.693  3.1377  1.3754 -0.0154
 6784TIP3   OH241910   3.381   5.197   0.959  0.4395  0.1890 -0.0840
 6784TIP3    H141911   3.365   5.109   0.993  0.2269 -0.1913 -1.1334
 6784TIP3    H241912   3.344   5.255   1.025  0.4676 -0.5051  0.5621
 6785TIP3   OH241913   5.944   5.642   1.699  0.7126 -0.2125  0.2353
 6785TIP3    H141914   5.953   5.670   1.608 -1.1468  1.0935  0.3955
 6785TIP3    H241915   5.997   5.703   1.750  1.2986 -0.5956  0.0943
 6786TIP3   OH241916   2.052   6.659   7.966 -0.1158 -0.5293  0.5077
 6786TIP3    H141917   2.094   6.581   7.930 -0.3107 -0.6817  0.6086
 6786TIP3    H241918   2.067   6.726   7.901 -0.6543 -0.8587  0.0412
 6787TIP3   OH241919   2.675   1.988   1.114  0.3331 -0.0789 -0.0226
 6787TIP3    H141920   2.605   2.054   1.116  0.0162 -0.1964 -2.9562
 6787TIP3    H241921   2.751   2.032   1.152 -0.0039  1.8689 -1.4525
 6788TIP3   OH241922   3.708   4.928   2.796  0.1801 -0.3120 -0.3903
 6788TIP3    H141923   3.683   4.862   2.861  2.7334 -0.6922  0.3205
 6788TIP3    H241924   3.802   4.915   2.784  0.2313  1.4037 -2.3308
 6789TIP3   OH241925   2.803   5.741   1.013 -0.0509 -0.8740 -0.1563
 6789TIP3    H141926   2.876   5.755   1.074  0.0640  0.1760 -0.5033
 6789TIP3    H241927   2.802   5.647   0.997  1.5301 -0.8657 -0.4811
 6790TIP3   OH241928   6.034   5.833   0.549 -0.2704  0.1096  0.3114
 6790TIP3    H141929   6.076   5.747   0.556  1.5898  0.9845  0.5145
 6790TIP3    H241930   5.975   5.825   0.475 -0.7887 -1.5854  0.8562
 6791TIP3   OH241931   1.833   2.316   2.944 -0.7329 -1.0194  0.2902
 6791TIP3    H141932   1.865   2.392   2.897  1.4160 -1.2641  1.2412
 6791TIP3    H241933   1.826   2.247   2.878 -1.1033 -0.4333 -0.2800
 6792TIP3   OH241934   2.564   0.127   2.596 -1.1630  0.0213 -0.2274
 6792TIP3    H141935   2.487   0.147   2.649 -0.1277 -0.0358  1.3554
 6792TIP3    H241936   2.635   0.116   2.659  0.1088 -0.1711 -1.6265
 6793TIP3   OH241937   6.365   3.308   1.215 -0.4306  0.7383  0.0113
 6793TIP3    H141938   6.271   3.303   1.235 -0.7499  2.3763 -0.9316
 6793TIP3    H241939   6.407   3.265   1.289 -2.0186 -3.5998 -1.2633
 6794TIP3   OH241940   2.856   2.921   1.160  0.1390  0.1517  0.3017
 6794TIP3    H141941   2.791   2.877   1.105 -0.2966  2.2986 -0.9923
 6794TIP3    H241942   2.807   2.991   1.204  1.2855  0.9332  0.3752
 6795TIP3   OH241943   4.877   6.802   7.907 -0.0382  0.0947 -0.1750
 6795TIP3    H141944   4.851   6.714   7.932  1.7977  0.0767  1.9249
 6795TIP3    H241945   4.808   6.858   7.944  0.2187 -0.2892  0.9337
 6796TIP3   OH241946   5.008   6.491   2.848 -0.7513 -0.0941 -0.2009
 6796TIP3    H141947   4.961   6.546   2.911 -0.0861  0.7299 -0.4140
 6796TIP3    H241948   5.020   6.408   2.894 -0.0233  0.5855  0.8896
 6797TIP3   OH241949   3.437   0.436   0.159 -0.8553  0.2986  0.1630
 6797TIP3    H141950   3.531   0.419   0.150 -0.9514  0.2817 -1.0432
 6797TIP3    H241951   3.426   0.527   0.134 -1.2302  0.1237 -0.3363
 6798TIP3   OH241952   6.260   1.683   8.245 -0.0319  0.3001  0.2899
 6798TIP3    H141953   6.253   1.668   8.339  2.0724 -1.0599  0.2976
 6798TIP3    H241954   6.271   1.777   8.237  0.3063  0.3858  1.4752
 6799TIP3   OH241955   6.231   4.068   3.042 -0.4994  0.1071 -0.0798
 6799TIP3    H141956   6.208   4.047   3.133  0.2628 -0.3686  0.0087
 6799TIP3    H241957   6.236   4.163   3.040  2.1307  0.0648  1.0706
 6800TIP3   OH241958   4.873   2.505   2.336 -0.5354 -0.3937  0.3971
 6800TIP3    H141959   4.962   2.504   2.300 -0.1165 -0.3433  1.4065
 6800TIP3    H241960   4.877   2.448   2.413 -0.8087  1.2652  1.7005
 6801TIP3   OH241961   4.273   2.359   0.453  0.2320  0.5303  0.9900
 6801TIP3    H141962   4.258   2.312   0.372  3.4346 -1.1991  1.2514
 6801TIP3    H241963   4.344   2.420   0.433 -0.6297  1.9186  1.9207
 6802TIP3   OH241964   6.471   1.863   3.067  0.4365 -0.2573  0.2687
 6802TIP3    H141965   6.402   1.824   3.013 -0.1610  0.9732  0.1126
 6802TIP3    H241966   6.550   1.812   3.047  0.1390 -0.0647 -1.4856
 6803TIP3   OH241967   5.300   2.210   0.060  0.2598  0.4255 -0.2081
 6803TIP3    H141968   5.378   2.208   0.004  0.6283  0.9542  0.2711
 6803TIP3    H241969   5.335   2.217   0.149 -0.3245 -0.2649  0.0821
 6804TIP3   OH241970   1.442   1.705   1.014  0.2988 -0.2708 -0.0668
 6804TIP3    H141971   1.391   1.709   0.933 -1.0976  0.6670  0.8199
 6804TIP3    H241972   1.532   1.689   0.985 -0.5034 -2.2082 -1.6621
 6805TIP3   OH241973   6.515   6.456   2.310 -0.0979  0.6824 -0.4782
 6805TIP3    H141974   6.594   6.495   2.345  0.1773 -1.3244  1.3659
 6805TIP3    H241975   6.473   6.526   2.259  1.7083  2.4385  0.3426
 6806TIP3   OH241976   6.519   1.617   3.355 -0.1405 -0.1009  0.6886
 6806TIP3    H141977   6.571   1.549   3.313 -0.2508 -1.0942  2.1075
 6806TIP3    H241978   6.584   1.679   3.390 -0.0523  1.4237 -1.8931
 6807TIP3   OH241979   5.003   5.461   8.405  0.1084 -0.5854  0.0250
 6807TIP3    H141980   5.094   5.459   8.435  0.7303  3.2382 -1.1158
 6807TIP3    H241981   5.008   5.462   8.310 -1.0862  0.2148 -0.0570
 6808TIP3   OH241982   2.471   6.421   2.389 -0.0945 -0.2187 -0.6582
 6808TIP3    H141983   2.540   6.420   2.456  0.5014  0.2786 -1.2572
 6808TIP3    H241984   2.394   6.455   2.435  0.5857  1.1327 -0.4759
 6809TIP3   OH241985   3.813   3.875   0.772 -0.8775 -0.4008  0.4830
 6809TIP3    H141986   3.778   3.786   0.776  2.0315 -1.5984  2.3106
 6809TIP3    H241987   3.906   3.864   0.754 -0.6597  2.3959 -0.6544
 6810TIP3   OH241988   3.035   4.017   1.182  0.1514  0.1931  0.1765
 6810TIP3    H141989   3.114   4.004   1.129 -1.4543 -0.1864 -2.2838
 6810TIP3    H241990   3.056   3.976   1.266  2.9709  1.1618  0.0433
 6811TIP3   OH241991   0.989   3.411   0.190 -0.0477 -0.0115 -0.3002
 6811TIP3    H141992   0.915   3.382   0.243  0.3361  1.1751  0.9331
 6811TIP3    H241993   1.066   3.395   0.245  0.4463  0.4305 -0.8433
 6812TIP3   OH241994   1.308   0.241   0.057  0.3317  0.1792  0.0715
 6812TIP3    H141995   1.296   0.235  -0.038 -1.5188  2.8361  0.0188
 6812TIP3    H241996   1.255   0.169   0.093  1.7895 -1.4298 -0.8654
 6813TIP3   OH241997   5.153   2.875   0.544  0.6018 -0.0805  0.1162
 6813TIP3    H141998   5.224   2.823   0.581  1.5508  1.1945  0.1523
 6813TIP3    H241999   5.074   2.844   0.588  0.7988 -2.8432 -1.2720
 6814TIP3   OH242000   0.701   4.851   2.470  0.6244  0.3684 -0.0481
 6814TIP3    H142001   0.732   4.934   2.433 -0.3102  0.3543 -0.9006
 6814TIP3    H242002   0.781   4.804   2.492  1.2071  0.7467 -1.2653
 6815TIP3   OH242003   1.032   6.286   2.795 -0.1905 -0.0926 -0.8445
 6815TIP3    H142004   1.067   6.197   2.798 -1.0951 -0.4502 -0.5620
 6815TIP3    H242005   1.109   6.342   2.798  0.3445 -0.8490  0.0863
 6816TIP3   OH242006   1.839   1.433   0.190  0.0698 -0.6110 -0.2847
 6816TIP3    H142007   1.855   1.472   0.104 -2.0069 -1.3621 -1.0823
 6816TIP3    H242008   1.869   1.499   0.252 -0.9958  1.2042 -1.5774
 6817TIP3   OH242009   5.671   3.662   8.101  0.2855  0.9284 -0.5923
 6817TIP3    H142010   5.716   3.673   8.018 -1.4141  2.0719 -1.4325
 6817TIP3    H242011   5.641   3.571   8.100  0.8576  0.7389 -0.9127
 6818TIP3   OH242012   6.213   5.518   8.229 -0.6628  0.2116 -0.6165
 6818TIP3    H142013   6.271   5.542   8.301  0.8432  0.1576 -1.7585
 6818TIP3    H242014   6.133   5.488   8.272  0.3262 -0.1903  1.0425
 6819TIP3   OH242015   2.950   2.892   3.109  0.0874  0.7215 -0.0994
 6819TIP3    H142016   2.881   2.958   3.118 -0.8449  0.4169 -3.6416
 6819TIP3    H242017   3.031   2.942   3.107 -0.4234  1.5570 -0.5760
 6820TIP3   OH242018   5.340   1.654   8.463 -0.1096 -0.4046  0.0384
 6820TIP3    H142019   5.254   1.636   8.501 -1.3942  2.6253 -1.1072
 6820TIP3    H242020   5.335   1.617   8.375  0.8331 -2.5686  0.8295
 6821TIP3   OH242021   0.027   3.949   8.207 -0.0896  0.0522  0.3933
 6821TIP3    H142022   0.007   3.936   8.300 -0.5032  0.1219  0.3144
 6821TIP3    H242023   0.078   3.872   8.183 -1.8527 -1.1023  0.1251
 6822TIP3   OH242024   5.237   3.701   0.690  0.0594 -0.3870 -0.1899
 6822TIP3    H142025   5.173   3.772   0.679  1.8018  1.9673  3.1574
 6822TIP3    H242026   5.185   3.623   0.708 -2.0182  1.4525  2.5641
 6823TIP3   OH242027   5.712   4.487   2.647 -0.3103 -0.0638 -0.2711
 6823TIP3    H142028   5.645   4.555   2.635 -0.2441 -0.1613 -1.3053
 6823TIP3    H242029   5.672   4.408   2.610  0.6999  0.0887 -1.7935
 6824TIP3   OH242030   5.382   0.786   0.639 -0.1180 -0.2403  0.0287
 6824TIP3    H142031   5.369   0.875   0.670 -1.2358 -0.5291  0.4348
 6824TIP3    H242032   5.451   0.751   0.695 -0.2307  0.1073  0.3844
 6825TIP3   OH242033   1.070   1.223   1.411  0.2225 -0.2012 -0.1704
 6825TIP3    H142034   1.109   1.305   1.443 -1.0742  0.5463 -0.4559
 6825TIP3    H242035   1.144   1.175   1.373  0.9882  0.8882 -0.1123
 6826TIP3   OH242036   5.336   3.113   0.536 -0.0053 -0.1032  0.0485
 6826TIP3    H142037   5.298   3.196   0.564 -0.0083 -0.0473 -0.1189
 6826TIP3    H242038   5.265   3.049   0.546  0.2145 -0.2257  0.8739
 6827TIP3   OH242039   0.719   6.009   2.707  0.4577  0.1182  0.3410
 6827TIP3    H142040   0.669   5.955   2.646  3.8842 -1.4548 -1.3216
 6827TIP3    H242041   0.743   6.086   2.656  2.4704 -0.7253 -0.0607
 6828TIP3   OH242042   1.001   1.179   0.175  0.0291 -0.4730  0.1805
 6828TIP3    H142043   0.922   1.136   0.205  0.6879 -0.4113  2.1446
 6828TIP3    H242044   1.064   1.166   0.245  0.8741  1.9557 -0.0185
 6829TIP3   OH242045   0.127   6.229   0.786 -0.6935 -0.1099 -0.4036
 6829TIP3    H142046   0.205   6.193   0.745 -0.6074  0.1774 -0.4962
 6829TIP3    H242047   0.135   6.207   0.878 -0.5335 -0.1327 -0.4234
 6830TIP3   OH242048   4.758   3.548   2.919  0.9725  0.0260  0.7263
 6830TIP3    H142049   4.790   3.458   2.930 -0.0649 -0.6452 -1.2740
 6830TIP3    H242050   4.749   3.558   2.824  0.3699  2.0036  0.9653
 6831TIP3   OH242051   2.909   5.444   1.667 -0.0665 -0.0653  0.4322
 6831TIP3    H142052   3.001   5.469   1.656 -0.1350 -0.1985 -0.5624
 6831TIP3    H242053   2.912   5.359   1.711  0.3377 -0.5363 -0.4635
 6832TIP3   OH242054   6.034   4.388   1.221 -0.3133 -0.3392 -0.1418
 6832TIP3    H142055   6.034   4.293   1.217 -0.5370 -0.4361  1.5111
 6832TIP3    H242056   5.996   4.416   1.138  2.4935 -1.5670 -1.9838
 6833TIP3   OH242057   4.260   4.891   0.912 -1.3277 -0.4376  0.3550
 6833TIP3    H142058   4.188   4.890   0.976 -1.3060  1.3233  0.4561
 6833TIP3    H242059   4.311   4.969   0.935 -1.6430  0.5791 -2.1401
 6834TIP3   OH242060   5.932   4.212   0.485 -0.1032  0.8416 -0.2311
 6834TIP3    H142061   5.875   4.242   0.414 -1.6781  0.0298  0.6311
 6834TIP3    H242062   5.885   4.235   0.565  0.2018 -0.8668  0.4960
 6835TIP3   OH242063   2.119   6.046   2.320  0.3272 -0.5383  0.8746
 6835TIP3    H142064   2.192   6.095   2.280 -0.3870  1.3502  1.7394
 6835TIP3    H242065   2.066   6.017   2.247 -0.2064  1.6302  0.3394
 6836TIP3   OH242066   6.468   5.699   8.329 -0.2008 -0.4503  0.5016
 6836TIP3    H142067   6.433   5.773   8.279 -1.1115 -0.1857  1.5112
 6836TIP3    H242068   6.415   5.696   8.408  0.8305 -1.2467  1.1811
 6837TIP3   OH242069   0.403   5.356   0.361 -0.3415  0.1832 -0.1406
 6837TIP3    H142070   0.436   5.274   0.326 -1.1518 -0.0715 -0.3281
 6837TIP3    H242071   0.330   5.380   0.303 -0.6509  0.5976  0.4072
 6838TIP3   OH242072   0.225   5.287   8.609  0.5888  0.4959  0.3255
 6838TIP3    H142073   0.224   5.279   8.514 -0.0743 -0.8980  0.4255
 6838TIP3    H242074   0.288   5.221   8.638 -0.0034  0.1582  0.8864
 6839TIP3   OH242075   0.760   3.957   8.572  0.3188 -0.7460 -0.2130
 6839TIP3    H142076   0.823   3.896   8.532 -0.7970  0.2288 -3.8562
 6839TIP3    H242077   0.676   3.934   8.532 -0.7113  1.1177  0.7485
 6840TIP3   OH242078   0.801   2.785   8.609 -0.7115  0.5812 -0.2526
 6840TIP3    H142079   0.777   2.840   8.535  0.7664  0.1104 -1.1147
 6840TIP3    H242080   0.887   2.818   8.636 -0.4525 -0.3796  0.1268
 6841TIP3   OH242081   6.719   2.930   1.891 -0.3364 -0.7629 -0.3631
 6841TIP3    H142082   6.811   2.945   1.910 -0.0847 -2.5163 -0.0332
 6841TIP3    H242083   6.701   2.842   1.925 -2.2453 -0.2969 -0.0110
 6842TIP3   OH242084   0.131   0.329   0.260  0.1624  0.5799  0.5040
 6842TIP3    H142085   0.050   0.320   0.210  1.1571  0.1927 -1.1398
 6842TIP3    H242086   0.179   0.248   0.241  0.9180  0.7909  1.4737
 6843TIP3   OH242087   2.660   0.036   1.161  0.2392 -0.2156 -0.5838
 6843TIP3    H142088   2.662   0.126   1.191  1.7116 -0.0612 -1.0223
 6843TIP3    H242089   2.574   0.003   1.185 -0.5939  1.5300 -1.0930
 6844TIP3   OH242090   6.844   3.443   0.908 -0.0352  0.4996 -0.0097
 6844TIP3    H142091   6.922   3.395   0.880 -1.1119 -0.5768 -1.2822
 6844TIP3    H242092   6.772   3.403   0.860 -1.4607  1.1950  1.4432
 6845TIP3   OH242093   6.330   4.788   0.939 -0.0901  0.3104  0.3666
 6845TIP3    H142094   6.384   4.803   0.862  0.0630  2.9923  0.9243
 6845TIP3    H242095   6.260   4.730   0.908  0.5823  0.4376 -1.4929
 6846TIP3   OH242096   3.737   2.596   0.167 -0.6494  0.1852 -0.5035
 6846TIP3    H142097   3.779   2.672   0.128 -2.7515  1.3361 -0.6526
 6846TIP3    H242098   3.646   2.600   0.137 -1.4225 -0.9818  1.4694
 6847TIP3   OH242099   6.748   3.651   1.856  0.1071  0.0494  0.1107
 6847TIP3    H142100   6.719   3.615   1.940 -0.5049 -0.4912 -0.3301
 6847TIP3    H242101   6.802   3.582   1.818  2.0672  1.0502  0.9338
 6848TIP3   OH242102   4.316   2.693   1.862  0.2264 -0.0405  0.3541
 6848TIP3    H142103   4.223   2.689   1.839 -0.0859  1.1199  1.3185
 6848TIP3    H242104   4.328   2.781   1.899  2.1495  0.6451 -1.6384
 6849TIP3   OH242105   1.357   3.572   0.480  0.4008 -0.4244 -0.4161
 6849TIP3    H142106   1.410   3.571   0.401  0.2186  0.6849 -0.5750
 6849TIP3    H242107   1.336   3.665   0.493 -0.0233 -0.6538  0.6243
 6850TIP3   OH242108   3.887   0.008   3.818  0.0214 -0.2955  0.2828
 6850TIP3    H142109   3.838  -0.074   3.811  2.2608 -1.6959  0.0254
 6850TIP3    H242110   3.957   0.000   3.752  0.5028  1.6813  0.4784
 6851TIP3   OH242111   6.266   6.374   1.502 -0.0833 -0.1770  0.0588
 6851TIP3    H142112   6.308   6.398   1.584  0.3510 -0.9412  0.0724
 6851TIP3    H242113   6.252   6.279   1.509  0.1276 -0.2818 -0.8214
 6852TIP3   OH242114   0.497   2.148   1.935  0.4341  0.4706  0.6325
 6852TIP3    H142115   0.543   2.221   1.975  2.1776  0.3295 -0.9754
 6852TIP3    H242116   0.559   2.076   1.936 -0.3078 -0.2141 -0.1660
 6853TIP3   OH242117   6.779   2.909   8.446  0.2951  0.0038 -0.2432
 6853TIP3    H142118   6.748   2.826   8.411 -1.5107  0.5538 -0.0651
 6853TIP3    H242119   6.874   2.901   8.448  0.1385 -3.1020  2.2711
 6854TIP3   OH242120   4.061   1.520   3.471 -0.5532 -0.4745  0.3795
 6854TIP3    H142121   4.108   1.444   3.437  0.9051 -1.1750  3.5680
 6854TIP3    H242122   3.984   1.484   3.515 -1.5534  0.2305 -0.7487
 6855TIP3   OH242123   3.630   2.898   1.894 -0.3261 -0.8436 -0.0847
 6855TIP3    H142124   3.541   2.864   1.897 -1.4105  1.8085  1.5075
 6855TIP3    H242125   3.643   2.940   1.979  2.4446 -1.0362 -0.3042
 6856TIP3   OH242126   1.675   5.855   8.147 -0.3551 -0.1643 -0.1181
 6856TIP3    H142127   1.752   5.808   8.115 -1.0697 -1.6837  0.2732
 6856TIP3    H242128   1.643   5.800   8.219 -0.6847  1.4583  1.0243
 6857TIP3   OH242129   1.680   1.159   1.406  0.0493  0.1297 -0.5057
 6857TIP3    H142130   1.667   1.224   1.475  0.5000  0.6025 -0.8591
 6857TIP3    H242131   1.774   1.165   1.386 -0.0981  0.0604 -1.2229
 6858TIP3   OH242132   4.254   1.470   0.942 -0.4392  0.4483  0.1287
 6858TIP3    H142133   4.292   1.424   1.017 -2.1019  0.2264  0.8863
 6858TIP3    H242134   4.219   1.400   0.887  0.9696  0.5980 -1.0031
 6859TIP3   OH242135   2.777   1.170   7.517  0.0388  0.1661  0.3387
 6859TIP3    H142136   2.683   1.161   7.504  0.5850 -2.6058 -3.7479
 6859TIP3    H242137   2.802   1.092   7.565  0.4711 -0.5166 -0.9450
 6860TIP3   OH242138   6.807   5.565   1.377 -0.4396  0.3389  0.0503
 6860TIP3    H142139   6.864   5.628   1.334  1.3943  0.3497  2.3036
 6860TIP3    H242140   6.814   5.486   1.324 -1.0267  1.3295 -1.5644
 6861TIP3   OH242141   6.199   4.776   7.938  0.2782 -0.6414 -0.1859
 6861TIP3    H142142   6.289   4.755   7.916  0.4884 -0.8367  0.8119
 6861TIP3    H242143   6.205   4.860   7.984 -0.1698 -0.1468 -0.9917
 6862TIP3   OH242144   1.354   2.223   2.103 -0.1973 -0.3901  0.1464
 6862TIP3    H142145   1.348   2.139   2.147  0.8422 -0.4909  0.1287
 6862TIP3    H242146   1.440   2.221   2.059 -0.3414  0.5038 -0.1992
 6863TIP3   OH242147   4.265   6.500   1.110 -0.2862 -0.1739 -0.6641
 6863TIP3    H142148   4.353   6.538   1.111  0.1151 -1.0084  1.5105
 6863TIP3    H242149   4.259   6.455   1.026  1.7114 -0.7822 -0.5322
 6864TIP3   OH242150   1.137   4.300   3.051  0.5727  0.0589 -0.0116
 6864TIP3    H142151   1.146   4.328   3.142  1.3582 -0.7808  0.1922
 6864TIP3    H242152   1.123   4.205   3.057  0.4249  0.0274 -0.7573
 6865TIP3   OH242153   3.415   1.409   8.376 -0.1616  0.0108 -0.3559
 6865TIP3    H142154   3.442   1.389   8.287 -2.1764 -2.8690 -0.4618
 6865TIP3    H242155   3.453   1.339   8.429 -0.0919  0.9288  0.8524
 6866TIP3   OH242156   3.079   0.732   2.333 -0.6440  0.3381 -0.0940
 6866TIP3    H142157   2.994   0.759   2.297 -0.2991  1.1300 -0.3269
 6866TIP3    H242158   3.141   0.798   2.301 -0.6859  2.8166  4.1416
 6867TIP3   OH242159   4.222   0.558   0.026  0.4015  0.1306  0.2584
 6867TIP3    H142160   4.181   0.476  -0.001  2.3584 -1.5650  1.9937
 6867TIP3    H242161   4.151   0.609   0.066 -0.4092 -1.9673  1.7021
 6868TIP3   OH242162   3.168   3.150   0.468 -0.0774 -0.1983  0.0860
 6868TIP3    H142163   3.216   3.067   0.465  0.5859  0.1551  0.5187
 6868TIP3    H242164   3.079   3.126   0.493  0.4583 -0.6431  1.6524
 6869TIP3   OH242165   1.858   2.658   0.599 -0.0637 -0.0634  0.2038
 6869TIP3    H142166   1.842   2.581   0.653  2.3505  0.1574  1.3772
 6869TIP3    H242167   1.838   2.732   0.656  0.9264  0.1676  0.2681
 6870TIP3   OH242168   4.314   3.978   1.512 -0.1420  0.9676 -0.1899
 6870TIP3    H142169   4.275   4.060   1.540 -1.5346  0.5310 -0.7632
 6870TIP3    H242170   4.305   3.978   1.417 -1.1233 -0.2801 -0.1377
 6871TIP3   OH242171   2.881   6.692   2.689  0.3208  0.3478 -0.0124
 6871TIP3    H142172   2.872   6.603   2.724 -3.7251  0.1739 -1.0105
 6871TIP3    H242173   2.940   6.683   2.615 -1.2137 -1.9038 -1.0724
 6872TIP3   OH242174   6.676   0.886   2.688 -0.1697 -0.0253  0.4454
 6872TIP3    H142175   6.582   0.900   2.686 -0.2046 -0.0028  1.7582
 6872TIP3    H242176   6.691   0.826   2.761  0.9311  0.7974  0.9295
 6873TIP3   OH242177   0.807   1.407   1.445 -0.0672  0.2844 -0.3539
 6873TIP3    H142178   0.883   1.355   1.418 -0.5828 -0.5106 -0.3051
 6873TIP3    H242179   0.844   1.478   1.497  0.6829  0.1626 -0.7120
 6874TIP3   OH242180   3.968   6.097   1.781  0.8038  0.4270 -0.4845
 6874TIP3    H142181   3.896   6.045   1.818  0.0164  0.0633 -2.4132
 6874TIP3    H242182   4.028   6.110   1.855 -1.7272  1.7242  1.5363
 6875TIP3   OH242183   6.867   0.306   1.273 -0.3077 -0.1320  0.1126
 6875TIP3    H142184   6.781   0.266   1.286  0.4408 -1.6184  0.6769
 6875TIP3    H242185   6.906   0.309   1.360  1.0061 -1.4050 -0.3836
 6876TIP3   OH242186   5.190   4.685   2.302  0.2193  0.0307 -0.3332
 6876TIP3    H142187   5.265   4.645   2.346  0.9772  0.1061 -1.5013
 6876TIP3    H242188   5.179   4.633   2.222 -0.7618  0.2407 -0.3521
 6877TIP3   OH242189   1.761   2.954   8.433  0.7391 -0.0137  0.2355
 6877TIP3    H142190   1.823   2.929   8.366  0.8920  0.2381  0.2821
 6877TIP3    H242191   1.805   3.024   8.482 -0.0280  0.9966 -0.4613
 6878TIP3   OH242192   1.043   3.336   1.987 -0.5890 -0.1842  0.8530
 6878TIP3    H142193   1.014   3.414   2.033  0.7989 -0.1040  1.6469
 6878TIP3    H242194   1.050   3.269   2.055 -1.8026 -1.0444  0.1817
 6879TIP3   OH242195   0.068   4.660   0.999  0.3475  0.2435  0.0499
 6879TIP3    H142196   0.071   4.569   0.970  0.5622 -0.0318  0.8983
 6879TIP3    H242197  -0.023   4.687   0.986  0.4779  0.2152 -1.0698
 6880TIP3   OH242198   1.842   0.087   2.502  0.0129 -0.0035  0.2136
 6880TIP3    H142199   1.898   0.052   2.433 -0.0760  0.6808 -0.2215
 6880TIP3    H242200   1.753   0.076   2.468 -0.0850 -0.4830  0.6143
 6881TIP3   OH242201   3.667   6.652   2.545 -0.0976 -0.8043  0.1784
 6881TIP3    H142202   3.636   6.582   2.487 -1.7510 -1.3651  1.6535
 6881TIP3    H242203   3.589   6.679   2.593  0.5215  1.9765 -0.2048
 6882TIP3   OH242204   0.049   0.293   3.564 -0.0450  0.0484 -0.1589
 6882TIP3    H142205   0.136   0.332   3.569  0.1782 -0.4099 -0.3836
 6882TIP3    H242206  -0.010   0.367   3.551  0.4371  0.2549 -1.2913
 6883TIP3   OH242207   5.563   2.911   3.236 -0.0764  0.2493  0.4218
 6883TIP3    H142208   5.490   2.928   3.294 -2.0733 -2.6167 -0.9885
 6883TIP3    H242209   5.531   2.842   3.177  2.8563  0.7779 -2.0352
 6884TIP3   OH242210   2.155   2.325   8.568 -0.2903  0.6494 -0.2386
 6884TIP3    H142211   2.180   2.236   8.593  0.3949  0.8181 -0.2937
 6884TIP3    H242212   2.091   2.352   8.635  1.5308  1.1111  1.4169
 6885TIP3   OH242213   1.722   4.486   2.130 -0.2753 -0.0166 -0.4776
 6885TIP3    H142214   1.771   4.412   2.095  0.2401  0.0789  0.0339
 6885TIP3    H242215   1.774   4.563   2.105  0.7937 -0.0109  1.5530
 6886TIP3   OH242216   2.946   6.532   1.269 -0.3550 -0.1058  0.0027
 6886TIP3    H142217   2.922   6.579   1.349  1.8630 -1.2880  1.4510
 6886TIP3    H242218   2.973   6.600   1.208  0.9413  0.6678  1.3739
 6887TIP3   OH242219   0.201   6.460   3.848 -0.2769  0.1898 -0.1498
 6887TIP3    H142220   0.155   6.400   3.907 -0.1623  0.2063 -0.0430
 6887TIP3    H242221   0.172   6.434   3.760  0.5400 -0.6745 -0.1748
 6888TIP3   OH242222   2.997   1.684   2.776 -0.8748  0.0371 -0.0687
 6888TIP3    H142223   2.939   1.636   2.718 -2.0980  1.8902 -0.4435
 6888TIP3    H242224   3.045   1.744   2.719 -0.1669  0.0530  0.5210
 6889TIP3   OH242225   1.659   4.711   3.225 -0.4305 -0.4605  0.7053
 6889TIP3    H142226   1.732   4.729   3.284  0.0207  1.2757 -0.3089
 6889TIP3    H242227   1.701   4.679   3.145 -0.8023 -0.0725  0.3469
 6890TIP3   OH242228   1.723   5.719   0.552  0.1220  0.3470  0.1519
 6890TIP3    H142229   1.767   5.641   0.519 -1.1302  0.8363 -3.0480
 6890TIP3    H242230   1.791   5.786   0.555  0.4699  0.0555 -0.7602
 6891TIP3   OH242231   1.212   1.486   0.421  0.0590 -0.2553  0.8560
 6891TIP3    H142232   1.300   1.511   0.449 -0.3202  1.0880  0.9254
 6891TIP3    H242233   1.155   1.511   0.494 -0.8304  2.5330 -0.6216
 6892TIP3   OH242234   4.075   1.882   0.476  0.0831 -0.2348  0.2045
 6892TIP3    H142235   4.120   1.870   0.560 -0.3242  0.3774  0.5211
 6892TIP3    H242236   4.132   1.942   0.427  1.1757 -1.8829 -0.6441
 6893TIP3   OH242237   4.227   2.133   2.734  0.3250  0.0928  0.0335
 6893TIP3    H142238   4.189   2.171   2.655  1.9375  2.4680  0.2824
 6893TIP3    H242239   4.317   2.111   2.709  0.0250 -1.8264  0.4744
 6894TIP3   OH242240   1.349   3.086   7.846  1.0384  0.0702  0.3636
 6894TIP3    H142241   1.275   3.069   7.788 -1.0952  0.4572  2.7898
 6894TIP3    H242242   1.413   3.131   7.791 -0.6267 -0.0017 -1.7729
 6895TIP3   OH242243   2.386   4.810   1.342  0.4018  0.3963 -0.0702
 6895TIP3    H142244   2.362   4.829   1.252 -0.2230  1.5147  0.3212
 6895TIP3    H242245   2.310   4.764   1.378  0.9045 -0.6405 -0.2739
 6896TIP3   OH242246   5.827   6.841   2.737 -0.1816  0.6325 -0.5315
 6896TIP3    H142247   5.754   6.781   2.750  0.9029 -0.6903 -0.2108
 6896TIP3    H242248   5.787   6.927   2.726 -1.7881 -0.1318 -0.8894
 6897TIP3   OH242249   0.026   1.297   0.134 -0.2663 -0.1254 -0.3840
 6897TIP3    H142250   0.021   1.347   0.215 -1.7113  0.1583 -0.6193
 6897TIP3    H242251  -0.057   1.315   0.090  0.9581  0.7359 -2.5140
 6898TIP3   OH242252   2.622   3.245   3.396  0.1283  0.0918  0.2149
 6898TIP3    H142253   2.714   3.229   3.417 -0.0451  1.3166  2.1137
 6898TIP3    H242254   2.593   3.312   3.459 -1.7110  0.7183 -1.1837
 6899TIP3   OH242255   3.803   0.079   0.465 -0.4569  0.2398  0.1140
 6899TIP3    H142256   3.714   0.098   0.495 -1.3553 -4.5706  1.3368
 6899TIP3    H242257   3.857   0.091   0.543 -0.8944 -1.1782  0.6782
 6900TIP3   OH242258   3.160   1.973   2.355 -0.1647  0.0997  0.0723
 6900TIP3    H142259   3.110   1.947   2.432  0.5689  1.3695  1.0214
 6900TIP3    H242260   3.106   1.946   2.280 -1.1990 -0.5587  1.0314
 6901TIP3   OH242261   6.168   3.137   8.372 -0.2193  0.0710 -0.0736
 6901TIP3    H142262   6.085   3.172   8.404  0.3213  1.2161  0.1368
 6901TIP3    H242263   6.146   3.051   8.338 -1.4185  0.1889  0.3455
 6902TIP3   OH242264   1.665   4.869   1.379  0.0876 -0.1160 -0.0043
 6902TIP3    H142265   1.693   4.777   1.378  0.2785 -0.1346  2.4252
 6902TIP3    H242266   1.745   4.919   1.362  0.1648 -0.3583 -0.3700
 6903TIP3   OH242267   1.668   6.534   2.494 -0.0215  0.1289 -0.0009
 6903TIP3    H142268   1.696   6.480   2.568 -1.0133 -0.1461  0.1800
 6903TIP3    H242269   1.574   6.544   2.505 -0.1037  0.5212 -0.9430
 6904TIP3   OH242270   3.809   5.996   0.768  0.4915  0.2892  1.0077
 6904TIP3    H142271   3.727   5.967   0.727  0.2181  0.4798  1.4069
 6904TIP3    H242272   3.835   5.922   0.823  0.8097  0.0689  0.5610
 6905TIP3   OH242273   3.339   4.090   2.298  0.1720 -0.2394 -0.2328
 6905TIP3    H142274   3.284   4.034   2.352  0.2281 -1.1999 -1.1240
 6905TIP3    H242275   3.395   4.136   2.360 -0.6256 -0.3578  0.5897
 6906TIP3   OH242276   2.647   5.734   1.352 -0.2770  0.4344  0.3834
 6906TIP3    H142277   2.742   5.720   1.351 -0.5493 -1.9927  1.6332
 6906TIP3    H242278   2.610   5.652   1.319 -1.9829  1.1905  0.2908
 6907TIP3   OH242279   0.037   4.514   2.947  0.1915  0.2973 -0.6730
 6907TIP3    H142280  -0.051   4.510   2.910 -0.3601 -0.6026  0.6638
 6907TIP3    H242281   0.078   4.588   2.903 -1.5442  1.3085 -0.6938
 6908TIP3   OH242282   5.088   2.015   2.010  0.1115  0.5094 -0.2160
 6908TIP3    H142283   5.087   2.049   2.099 -1.1404 -0.5138  0.1909
 6908TIP3    H242284   5.170   2.046   1.973  0.9203  0.4773  1.4749
 6909TIP3   OH242285   3.277   5.713   0.408  0.3411  0.3034 -0.3968
 6909TIP3    H142286   3.196   5.670   0.436  0.9161  0.1393  1.1504
 6909TIP3    H242287   3.279   5.702   0.313 -0.6531 -1.1015 -0.2888
 6910TIP3   OH242288   5.635   1.255   0.602  0.6885  0.0418 -0.1672
 6910TIP3    H142289   5.675   1.307   0.672  0.9119 -1.1814  0.6319
 6910TIP3    H242290   5.548   1.233   0.636  0.1168  0.8771 -1.0102
 6911TIP3   OH242291   4.868   2.881   0.569  0.2287 -0.0607  0.0581
 6911TIP3    H142292   4.777   2.909   0.577  0.6326  1.8057 -1.3336
 6911TIP3    H242293   4.919   2.959   0.590  1.4801 -0.5759 -0.9807
 6912TIP3   OH242294   3.151   3.228   0.208  0.2471 -0.0573 -0.1956
 6912TIP3    H142295   3.092   3.152   0.207  1.6343 -1.1614 -0.8874
 6912TIP3    H242296   3.173   3.240   0.301 -1.1342  0.4496  0.0886
 6913TIP3   OH242297   5.647   0.735   0.684  0.5375  0.6844 -0.3270
 6913TIP3    H142298   5.674   0.687   0.762  2.3152  0.9504 -0.7382
 6913TIP3    H242299   5.729   0.756   0.639 -0.2638  2.7728 -0.9424
 6914TIP3   OH242300   6.847   2.216   0.717  0.8392 -0.5001 -0.2475
 6914TIP3    H142301   6.868   2.238   0.626  0.9661  0.2058 -0.0485
 6914TIP3    H242302   6.871   2.294   0.767  0.6729 -0.8475  0.3815
 6915TIP3   OH242303   5.753   6.586   0.945 -0.5715  0.0985 -0.1157
 6915TIP3    H142304   5.770   6.525   0.874 -1.9562  0.5480 -0.8530
 6915TIP3    H242305   5.695   6.539   1.004  0.3083 -0.1515  0.5828
 6916TIP3   OH242306   3.506   1.623   8.565  0.0642  0.0021 -0.6340
 6916TIP3    H142307   3.486   1.549   8.508 -0.4326  0.5431 -1.1852
 6916TIP3    H242308   3.600   1.639   8.551 -0.1504  0.4207 -1.6783
 6917TIP3   OH242309   2.381   0.513   0.829  0.1851 -0.0910  0.2655
 6917TIP3    H142310   2.348   0.490   0.742 -1.1268  0.5354  0.5753
 6917TIP3    H242311   2.435   0.591   0.815  1.0292 -0.7414 -0.1567
 6918TIP3   OH242312   4.879   1.252   7.712 -0.5613  0.1116 -0.4572
 6918TIP3    H142313   4.786   1.232   7.726 -0.2527  0.0542  1.9531
 6918TIP3    H242314   4.918   1.170   7.684 -0.6555 -0.8720  2.0400
 6919TIP3   OH242315   3.095   2.513   8.445 -0.0653  0.4003 -0.3516
 6919TIP3    H142316   3.163   2.459   8.405 -1.4169 -1.8456  0.1460
 6919TIP3    H242317   3.117   2.515   8.538 -0.3469  0.1518 -0.2752
 6920TIP3   OH242318   3.956   5.734   1.166  0.6181  0.2081  0.0296
 6920TIP3    H142319   3.979   5.819   1.129  0.2670  0.0657 -0.5253
 6920TIP3    H242320   4.039   5.697   1.195  0.8563  0.4644 -0.3181
 6921TIP3   OH242321   6.309   0.951   0.010  0.1949  0.1255  0.0266
 6921TIP3    H142322   6.256   0.954   0.090  1.7264  0.6101  1.0609
 6921TIP3    H242323   6.359   1.032   0.011  1.3133 -0.5269 -0.6741
 6922TIP3   OH242324   3.589   4.001   0.695  0.1479  0.6428  0.4293
 6922TIP3    H142325   3.576   4.078   0.750  1.7163  1.7148 -0.6448
 6922TIP3    H242326   3.672   3.964   0.726  0.3087  0.4217 -0.2624
 6923TIP3   OH242327   2.144   3.140   8.206  0.3665 -0.3631  0.4284
 6923TIP3    H142328   2.180   3.154   8.118  0.1909 -2.2137 -0.0025
 6923TIP3    H242329   2.220   3.118   8.260  0.1527 -3.1829 -0.2346
 6924TIP3   OH242330   4.588   6.232   3.727  0.1559 -0.3992 -0.3624
 6924TIP3    H142331   4.519   6.167   3.714 -0.4722 -0.0776  1.1653
 6924TIP3    H242332   4.605   6.231   3.821  0.4970  1.2822 -0.3747
 6925TIP3   OH242333   3.089   3.353   1.223  0.0392  0.7940  0.1718
 6925TIP3    H142334   3.092   3.447   1.207  0.6008  0.3383 -3.0203
 6925TIP3    H242335   3.177   3.322   1.203  0.2289 -0.3147  2.4446
 6926TIP3   OH242336   1.576   2.224   3.998  0.5974 -0.0656  0.4206
 6926TIP3    H142337   1.652   2.224   4.056  0.7290 -0.7575  0.2488
 6926TIP3    H242338   1.609   2.188   3.916  0.7474  2.0883 -0.5393
 6927TIP3   OH242339   2.399   5.379   3.908 -0.1279  0.4157 -0.2266
 6927TIP3    H142340   2.422   5.472   3.897 -2.6357  0.8538 -3.0487
 6927TIP3    H242341   2.305   5.380   3.924 -0.1268 -1.6629  0.1235
 6928TIP3   OH242342   4.623   5.767   7.963 -0.4954  0.0883  0.1410
 6928TIP3    H142343   4.699   5.717   7.932 -0.1736  0.6264  0.0368
 6928TIP3    H242344   4.554   5.702   7.974 -0.2991 -0.2785 -0.6899
 6929TIP3   OH242345   3.042   1.352   3.887  0.3600 -0.0377 -0.5871
 6929TIP3    H142346   3.100   1.276   3.886 -0.6204 -0.8081 -1.7788
 6929TIP3    H242347   2.970   1.327   3.944  0.3957  0.2834 -0.3991
 6930TIP3   OH242348   0.592   4.353   2.174 -0.0179 -0.4406  0.4950
 6930TIP3    H142349   0.642   4.424   2.134 -1.4165  0.3620  0.0633
 6930TIP3    H242350   0.541   4.396   2.243 -0.4595 -1.1240  0.6020
 6931TIP3   OH242351   5.527   6.805   1.918 -0.2264  0.1151 -0.6045
 6931TIP3    H142352   5.463   6.846   1.860 -1.0714 -1.0611 -0.5465
 6931TIP3    H242353   5.474   6.765   1.987  0.3992 -2.5111 -1.5568
 6932TIP3   OH242354   0.939   0.252   1.087 -0.2099 -0.1817  0.1512
 6932TIP3    H142355   1.029   0.259   1.119 -0.5259 -0.8751  1.2358
 6932TIP3    H242356   0.947   0.258   0.992  1.0943 -1.2280  0.1594
 6933TIP3   OH242357   6.707   3.221   0.329  0.4097  0.6629 -0.2161
 6933TIP3    H142358   6.631   3.165   0.349  0.4008  0.5878 -0.4513
 6933TIP3    H242359   6.768   3.162   0.285 -1.1610  1.5943 -4.1037
 6934TIP3   OH242360   1.802   6.658   8.617  0.4033 -0.2222  0.4815
 6934TIP3    H142361   1.827   6.572   8.650  1.1847 -0.4153 -0.5657
 6934TIP3    H242362   1.712   6.647   8.587  0.6853 -0.8382 -0.1678
 6935TIP3   OH242363   0.959   1.711   0.364  0.6618 -0.5712 -0.0778
 6935TIP3    H142364   0.907   1.754   0.431 -0.1195 -0.5015 -0.7014
 6935TIP3    H242365   1.023   1.776   0.336 -0.6314  0.2868 -1.1487
 6936TIP3   OH242366   5.391   6.414   8.260  0.5779  0.3890  0.4143
 6936TIP3    H142367   5.473   6.400   8.213  0.3608 -0.7914  0.3629
 6936TIP3    H242368   5.367   6.505   8.240  0.7836  0.1041 -1.2856
 6937TIP3   OH242369   6.550   5.334   2.200  0.4399 -0.3190 -0.5211
 6937TIP3    H142370   6.541   5.240   2.183 -1.6386 -0.3227  0.2811
 6937TIP3    H242371   6.485   5.375   2.143  0.1168  0.4590  0.3781
 6938TIP3   OH242372   6.104   1.721   0.131 -0.1317 -0.2098 -0.3462
 6938TIP3    H142373   6.088   1.627   0.134  1.1610 -0.4407  0.2757
 6938TIP3    H242374   6.199   1.729   0.143 -0.4801  1.2513  2.1383
 6939TIP3   OH242375   3.982   0.422   8.570 -0.3371  0.1669  0.4840
 6939TIP3    H142376   3.908   0.483   8.577  1.0879  2.0751 -0.5326
 6939TIP3    H242377   4.018   0.436   8.483  0.9232 -1.1232  0.7525
 6940TIP3   OH242378   1.250   4.883   1.545 -0.1199 -0.2767  0.6111
 6940TIP3    H142379   1.277   4.792   1.555 -1.3217 -0.5348  1.8526
 6940TIP3    H242380   1.265   4.922   1.632 -2.7348 -0.2182  1.1282
 6941TIP3   OH242381   0.225   0.549   2.771  0.7105 -0.2230  0.3862
 6941TIP3    H142382   0.218   0.638   2.736  0.0869 -1.0979 -1.8859
 6941TIP3    H242383   0.314   0.522   2.749  0.6241 -0.4456  0.3075
 6942TIP3   OH242384   3.857   2.019   8.166  0.2569 -0.2569 -0.0854
 6942TIP3    H142385   3.839   2.110   8.190 -2.0774 -0.6632 -0.0891
 6942TIP3    H242386   3.783   1.994   8.110  2.3542 -1.2540 -2.6367
 6943TIP3   OH242387   1.532   3.059   8.579  0.0119 -0.0682  0.0500
 6943TIP3    H142388   1.521   3.153   8.562 -1.4117  0.0330  1.3360
 6943TIP3    H242389   1.589   3.029   8.509 -2.3100  1.0714 -2.5360
 6944TIP3   OH242390   5.817   1.006   2.761 -0.2686 -0.0094  0.0065
 6944TIP3    H142391   5.842   1.010   2.668 -1.4908  0.1092 -0.3391
 6944TIP3    H242392   5.722   0.993   2.759 -0.7326  2.6749  1.2476
 6945TIP3   OH242393   0.471   1.426   0.656 -0.0930  0.1635 -0.1807
 6945TIP3    H142394   0.386   1.427   0.611 -0.0425  0.8587 -0.2752
 6945TIP3    H242395   0.467   1.501   0.715  1.2398  1.5199 -1.7024
 6946TIP3   OH242396   5.921   1.603   1.754 -0.6561 -0.4981  0.1299
 6946TIP3    H142397   5.883   1.583   1.669  0.1893  0.0326 -0.3791
 6946TIP3    H242398   6.012   1.625   1.736  0.0008 -2.0303  1.3615
 6947TIP3   OH242399   0.603   4.765   0.277  0.5479  0.5431  0.1465
 6947TIP3    H142400   0.571   4.708   0.207  0.8887 -0.4648  0.8010
 6947TIP3    H242401   0.646   4.837   0.231 -1.0602  1.0055 -0.7282
 6948TIP3   OH242402   0.357   1.333   8.268  0.0864 -0.3013  0.0989
 6948TIP3    H142403   0.420   1.327   8.340  1.3220 -0.5329 -0.9627
 6948TIP3    H242404   0.282   1.280   8.297  1.3267 -1.9343  0.4595
 6949TIP3   OH242405   1.472   3.668   2.493  0.0109 -0.2807 -0.3295
 6949TIP3    H142406   1.545   3.727   2.472 -1.1031  1.9768  1.6084
 6949TIP3    H242407   1.394   3.715   2.462 -0.9305 -0.5749  1.4485
 6950TIP3   OH242408   3.603   6.611   0.658  0.7563  0.0163 -0.4321
 6950TIP3    H142409   3.603   6.672   0.732  0.1420 -0.3873 -0.0968
 6950TIP3    H242410   3.525   6.557   0.671  0.4771  0.1325 -1.5311
 6951TIP3   OH242411   5.853   5.891   1.248 -0.4687  0.0571  0.1554
 6951TIP3    H142412   5.825   5.978   1.219  1.4249  0.3949 -0.8090
 6951TIP3    H242413   5.821   5.832   1.179 -0.9856  0.0854  0.3629
 6952TIP3   OH242414   3.277   3.350   0.915 -0.3179 -0.4732 -0.1573
 6952TIP3    H142415   3.208   3.293   0.880  0.4474 -1.4335 -0.1166
 6952TIP3    H242416   3.245   3.439   0.897 -0.5239 -0.9178 -2.2102
 6953TIP3   OH242417   2.622   2.611   0.346  0.2652 -0.8991 -0.3387
 6953TIP3    H142418   2.628   2.583   0.438  0.3381 -2.8152 -0.8775
 6953TIP3    H242419   2.626   2.706   0.350 -1.3987 -0.8303  1.7822
 6954TIP3   OH242420   6.221   2.231   8.505  0.0244  0.1286  0.3947
 6954TIP3    H142421   6.291   2.197   8.560  0.8411  2.2373  0.7640
 6954TIP3    H242422   6.264   2.251   8.422 -0.9436 -1.8873 -0.6699
 6955TIP3   OH242423   2.481   5.923   7.833  0.1503  0.5158  0.2882
 6955TIP3    H142424   2.536   5.855   7.794 -1.8953 -0.7584 -0.5605
 6955TIP3    H242425   2.443   5.883   7.911 -0.4815  0.9268  0.2050
 6956TIP3   OH242426   3.673   5.965   3.965 -0.7785 -0.0153  0.4772
 6956TIP3    H142427   3.723   6.021   4.025  0.1274  0.4017 -0.6089
 6956TIP3    H242428   3.645   6.024   3.895  0.1380 -0.8772 -0.6662
 6957TIP3   OH242429   2.445   2.230   8.042 -0.1786  0.4316 -0.0532
 6957TIP3    H142430   2.441   2.165   8.111 -2.6815  1.2635  0.7049
 6957TIP3    H242431   2.377   2.204   7.980  0.8331  0.6770 -1.3076
 6958TIP3   OH242432   1.286   4.073   8.374 -0.5837 -0.2389  0.1445
 6958TIP3    H142433   1.350   4.004   8.357 -2.9584 -2.3335 -0.8027
 6958TIP3    H242434   1.315   4.146   8.320  0.0350 -1.7638 -1.6846
 6959TIP3   OH242435   3.681   6.406   8.601  0.7770 -0.7017  0.1404
 6959TIP3    H142436   3.686   6.483   8.544  2.1979 -0.0536  1.0973
 6959TIP3    H242437   3.764   6.406   8.648  1.7655 -3.9868 -1.2969
 6960TIP3   OH242438   0.263   1.182   1.716  0.0774  0.0528  0.0408
 6960TIP3    H142439   0.264   1.266   1.672  2.6805  0.0607 -0.0319
 6960TIP3    H242440   0.248   1.118   1.646 -1.1614  0.3791 -0.0109
 6961TIP3   OH242441   5.019   3.055   2.108 -0.0155  0.2135 -0.2535
 6961TIP3    H142442   4.983   3.122   2.050  0.8990  0.3334 -0.6880
 6961TIP3    H242443   5.033   2.979   2.052  0.2606  0.1161 -0.0557
 6962TIP3   OH242444   5.243   1.537   2.376  0.1538  0.0735  0.2145
 6962TIP3    H142445   5.168   1.582   2.414 -0.5808  0.0712 -1.1711
 6962TIP3    H242446   5.231   1.445   2.401  0.2783  0.2380  0.8910
 6963TIP3   OH242447   1.153   6.020   2.904 -0.2610  0.4056  0.1294
 6963TIP3    H142448   1.212   5.960   2.857 -0.6910  1.0752 -1.3264
 6963TIP3    H242449   1.074   5.968   2.920 -0.3779  0.3659 -0.5357
 6964TIP3   OH242450   4.097   2.704   0.130 -0.1908 -0.3764  0.1886
 6964TIP3    H142451   4.034   2.774   0.141 -0.9250 -1.1628  1.1545
 6964TIP3    H242452   4.101   2.661   0.215  0.3073 -1.4605 -0.3589
 6965TIP3   OH242453   1.918   1.348   2.741 -0.4512  0.2860  0.2041
 6965TIP3    H142454   1.967   1.271   2.771 -0.0954 -0.4376 -2.0323
 6965TIP3    H242455   1.891   1.392   2.822  3.5497  0.5597  1.6378
 6966TIP3   OH242456   4.539   3.766   8.034 -0.4811  0.5393  0.2513
 6966TIP3    H142457   4.533   3.753   8.129 -1.0243 -0.2819  0.1146
 6966TIP3    H242458   4.633   3.761   8.015 -0.4889 -1.1689  0.5096
 6967TIP3   OH242459   3.150   5.326   7.489 -0.6885 -0.5837 -0.6952
 6967TIP3    H142460   3.112   5.304   7.574 -0.4370 -0.2729 -0.4985
 6967TIP3    H242461   3.161   5.242   7.444  1.9862 -1.1121  0.7471
 6968TIP3   OH242462   1.444   5.738   1.534  0.2206  0.3165 -0.1398
 6968TIP3    H142463   1.520   5.709   1.484  0.1580 -1.7578  0.8665
 6968TIP3    H242464   1.374   5.678   1.508 -0.1745  0.0947  1.3454
 6969TIP3   OH242465   2.598   1.849   0.851  0.2828 -0.1600 -0.2602
 6969TIP3    H142466   2.620   1.909   0.922  0.1666 -0.3117 -0.0947
 6969TIP3    H242467   2.526   1.891   0.804 -1.8584 -1.4633  1.6094
 6970TIP3   OH242468   5.619   1.898   2.754  0.6418  0.6314  0.9168
 6970TIP3    H142469   5.638   1.851   2.836 -0.6096 -2.2895 -0.3277
 6970TIP3    H242470   5.681   1.863   2.691  1.3353  2.5752  0.4466
 6971TIP3   OH242471   2.426   6.211   3.297 -0.2342  0.3192  0.0559
 6971TIP3    H142472   2.346   6.215   3.348  0.3318  1.9316  0.8924
 6971TIP3    H242473   2.418   6.281   3.232 -0.2377 -0.6495 -1.0270
 6972TIP3   OH242474   3.066   2.519   7.950 -0.3900  0.4799 -0.0288
 6972TIP3    H142475   3.059   2.565   7.867  1.6855 -1.9020 -1.6667
 6972TIP3    H242476   3.047   2.428   7.929  1.4432 -0.4093  1.7833
 6973TIP3   OH242477   4.446   3.390   0.840 -0.4700 -0.1077  0.3488
 6973TIP3    H142478   4.397   3.360   0.763 -1.4928 -1.2905  1.4153
 6973TIP3    H242479   4.404   3.473   0.864  0.2920  0.6142 -0.7315
 6974TIP3   OH242480   1.091   2.324   8.311 -0.0727 -0.0711 -0.0410
 6974TIP3    H142481   1.061   2.311   8.401 -1.0243  0.4319 -0.2746
 6974TIP3    H242482   1.046   2.257   8.260  1.1121 -0.9019 -0.0324
 6975TIP3   OH242483   6.541   5.866   0.476  0.2341  0.0467 -0.4506
 6975TIP3    H142484   6.583   5.909   0.402  0.6828 -0.3890 -0.4553
 6975TIP3    H242485   6.534   5.934   0.543  0.3002  0.3060 -0.7075
 6976TIP3   OH242486   2.918   1.494   0.495 -0.0875 -0.2584  1.1642
 6976TIP3    H142487   2.945   1.498   0.587 -1.3154 -1.7584  1.6486
 6976TIP3    H242488   2.856   1.421   0.492  1.4690 -1.6011 -1.2823
 6977TIP3   OH242489   1.061   2.853   2.606 -0.5398 -0.1704  0.2070
 6977TIP3    H142490   1.114   2.888   2.677  0.9335  0.2615 -1.0565
 6977TIP3    H242491   1.121   2.848   2.532 -2.4298  1.0134 -1.4956
 6978TIP3   OH242492   2.621   0.680   0.025  0.3995 -0.0316  0.1507
 6978TIP3    H142493   2.623   0.655  -0.068 -0.9406  1.6890 -0.3836
 6978TIP3    H242494   2.548   0.741   0.032  0.2882 -0.3549  2.4252
 6979TIP3   OH242495   0.469   4.695   3.251  0.1979  0.0187 -0.1907
 6979TIP3    H142496   0.491   4.788   3.257 -0.2328  0.0897  0.4834
 6979TIP3    H242497   0.476   4.663   3.341 -1.0197 -0.2685 -0.1692
 6980TIP3   OH242498   1.613   0.620   2.236  0.5543 -0.2922  0.3633
 6980TIP3    H142499   1.551   0.685   2.268  1.8365  0.7119  0.8801
 6980TIP3    H242500   1.694   0.638   2.283  1.9396 -0.0240 -1.9695
 6981TIP3   OH242501   6.314   4.310   1.601  0.0403 -0.0656 -0.0375
 6981TIP3    H142502   6.250   4.333   1.668 -0.8103  1.1812 -1.2398
 6981TIP3    H242503   6.397   4.304   1.649 -0.4434  1.3664  1.0341
 6982TIP3   OH242504   5.568   1.986   0.298  0.1547  0.1306 -0.7698
 6982TIP3    H142505   5.645   1.930   0.286  1.4702  1.7675 -0.4960
 6982TIP3    H242506   5.539   1.968   0.388 -1.8733 -2.8671 -1.9006
 6983TIP3   OH242507   2.224   5.959   3.407  0.0010 -0.6207 -0.1953
 6983TIP3    H142508   2.224   6.054   3.414 -2.9104 -0.5927  0.4144
 6983TIP3    H242509   2.287   5.930   3.474 -0.6859  0.8365  1.1417
 6984TIP3   OH242510   6.809   6.755   2.043  0.9705 -0.1705 -0.2539
 6984TIP3    H142511   6.845   6.738   2.130  0.8377  0.5923 -0.0460
 6984TIP3    H242512   6.854   6.834   2.014 -1.5504  1.7127  0.6145
 6985TIP3   OH242513   4.373   5.699   0.268 -0.1046 -0.3759 -0.2009
 6985TIP3    H142514   4.365   5.644   0.346 -1.0012  0.3998  0.2708
 6985TIP3    H242515   4.335   5.783   0.293 -2.1062 -0.6463 -2.0048
 6986TIP3   OH242516   1.131   1.686   8.130  0.4015 -0.1848  0.5277
 6986TIP3    H142517   1.217   1.719   8.103  0.4535 -0.9844 -0.3396
 6986TIP3    H242518   1.070   1.755   8.104  0.7148  0.1207  0.5965
 6987TIP3   OH242519   0.897   1.693   1.223 -0.3844 -0.7716 -0.5541
 6987TIP3    H142520   0.969   1.741   1.183  0.2900 -1.7654 -0.5919
 6987TIP3    H242521   0.911   1.602   1.196 -2.3806 -0.8179 -1.6312
 6988TIP3   OH242522   2.990   3.202   1.446 -0.0525 -0.0344 -0.0143
 6988TIP3    H142523   3.036   3.240   1.521 -1.1776  0.3584  0.5034
 6988TIP3    H242524   3.008   3.262   1.374  2.4436 -1.3046 -0.5458
 6989TIP3   OH242525   4.177   6.280   1.693 -0.6605  0.0041 -1.1046
 6989TIP3    H142526   4.255   6.259   1.745 -0.2487  0.6857 -1.4343
 6989TIP3    H242527   4.117   6.207   1.709  0.1401 -0.6492 -1.0431
 6990TIP3   OH242528   3.111   2.760   2.488 -0.4252  0.4482 -0.0530
 6990TIP3    H142529   3.131   2.689   2.427 -0.4584 -0.2033  0.6670
 6990TIP3    H242530   3.105   2.838   2.434 -2.2127 -0.3900 -1.1375
 6991TIP3   OH242531   5.910   2.849   4.064 -0.1087  0.0329  0.5690
 6991TIP3    H142532   5.858   2.921   4.099  1.6073  0.9617  1.3277
 6991TIP3    H242533   5.964   2.820   4.137 -0.6559 -1.9643  0.2349
 6992TIP3   OH242534   1.595   0.801   2.542 -0.2283 -0.1587  0.3129
 6992TIP3    H142535   1.516   0.811   2.594 -0.3721 -1.9618  0.5076
 6992TIP3    H242536   1.643   0.729   2.584  1.1101  0.3401 -0.2911
 6993TIP3   OH242537   0.364   6.776   2.173  0.2058  0.6620 -0.2922
 6993TIP3    H142538   0.270   6.772   2.186  0.1626 -0.3893 -0.7810
 6993TIP3    H242539   0.376   6.750   2.082  0.9667  0.8596 -0.2542
 6994TIP3   OH242540   3.859   0.125   2.595  0.4760 -0.5369  0.2280
 6994TIP3    H142541   3.798   0.198   2.598  2.2891  1.0476  1.0965
 6994TIP3    H242542   3.838   0.073   2.673 -0.3110 -0.5058  0.0403
 6995TIP3   OH242543   5.311   2.764   3.422 -0.1043 -0.3769  1.0649
 6995TIP3    H142544   5.397   2.733   3.447  0.6883 -0.0122 -1.0023
 6995TIP3    H242545   5.314   2.859   3.439  0.1973 -0.2430  0.3412
 6996TIP3   OH242546   1.710   4.284   1.762  0.2347  0.3358 -0.5835
 6996TIP3    H142547   1.643   4.257   1.825  0.3677  0.4240 -0.4037
 6996TIP3    H242548   1.783   4.224   1.779 -0.2505 -0.5760 -1.6143
 6997TIP3   OH242549   0.041   6.517   1.734  0.4062 -0.1562 -0.0711
 6997TIP3    H142550   0.006   6.605   1.753  0.3516  0.0888 -1.2733
 6997TIP3    H242551  -0.033   6.458   1.752 -0.6476  0.3448 -2.4485
 6998TIP3   OH242552   4.889   4.168   2.808 -0.0991 -0.3002  0.0525
 6998TIP3    H142553   4.870   4.075   2.798 -1.0417 -0.2314  0.9788
 6998TIP3    H242554   4.810   4.204   2.848  0.7203  0.6605  0.8791
 6999TIP3   OH242555   3.096   5.201   2.123  0.4115 -0.5557  0.5389
 6999TIP3    H142556   3.026   5.252   2.081  2.1256  1.4543 -0.0509
 6999TIP3    H242557   3.086   5.219   2.216  0.0664 -0.3954  0.4719
 7000TIP3   OH242558   4.154   2.710   3.629  0.3314 -0.7217  0.0337
 7000TIP3    H142559   4.136   2.760   3.549 -0.4164 -1.2515 -0.1458
 7000TIP3    H242560   4.225   2.650   3.604 -0.2457 -1.2431 -0.4060
 7001TIP3   OH242561   4.175   5.428   0.079 -0.1951  0.3971 -0.1728
 7001TIP3    H142562   4.189   5.358   0.143  0.3860  0.9386  0.2965
 7001TIP3    H242563   4.257   5.431   0.029  0.1615  1.3964  0.4510
 7002TIP3   OH242564   3.822   3.031   8.525  0.1800 -0.5101 -0.5632
 7002TIP3    H142565   3.844   3.050   8.434  0.2882 -0.3569 -0.5056
 7002TIP3    H242566   3.901   2.990   8.561  0.3544 -0.0132 -0.3714
 7003TIP3   OH242567   2.565   0.179   3.545  0.8535 -0.3984 -0.1570
 7003TIP3    H142568   2.598   0.104   3.595 -0.8112 -1.3068 -0.3588
 7003TIP3    H242569   2.583   0.254   3.601  1.4390 -1.0830  0.6067
 7004TIP3   OH242570   1.802   2.176   1.034 -0.0443 -0.5691  0.3209
 7004TIP3    H142571   1.738   2.212   0.973  0.6319  1.0810  0.5369
 7004TIP3    H242572   1.887   2.187   0.990  0.1847 -2.2293  0.2620
 7005TIP3   OH242573   2.594   2.838   1.010 -0.3231  0.0989  0.2755
 7005TIP3    H142574   2.521   2.809   0.955  0.1823 -0.5073 -0.0833
 7005TIP3    H242575   2.631   2.758   1.045 -0.0032  0.4255  0.6884
 7006TIP3   OH242576   4.184   1.042   2.853 -0.0361  0.2180  0.6404
 7006TIP3    H142577   4.128   1.023   2.927 -0.2083 -1.2145  0.1671
 7006TIP3    H242578   4.205   1.135   2.861  1.6715 -0.3088  3.6602
 7007TIP3   OH242579   5.783   4.189   0.753 -0.0529 -0.0885 -0.4146
 7007TIP3    H142580   5.709   4.131   0.737 -0.4796 -0.0353  1.2320
 7007TIP3    H242581   5.817   4.162   0.838  0.6970  1.0783 -0.3225
 7008TIP3   OH242582   5.519   0.292   2.935 -0.6492 -0.5508 -0.2967
 7008TIP3    H142583   5.561   0.206   2.936 -1.6946 -1.0850 -0.9910
 7008TIP3    H242584   5.543   0.332   3.019 -1.2556 -2.0516  0.6197
 7009TIP3   OH242585   1.079   5.830   1.769  0.0641 -0.1575 -0.1204
 7009TIP3    H142586   1.067   5.801   1.679  0.3753  1.5156 -0.7356
 7009TIP3    H242587   0.990   5.835   1.804  0.0085 -2.1651  0.1687
 7010TIP3   OH242588   0.795   3.559   2.614 -0.5200  0.1274  0.0865
 7010TIP3    H142589   0.791   3.516   2.699  1.6275  0.0406  0.1936
 7010TIP3    H242590   0.821   3.649   2.635 -0.2167  0.1682 -0.4630
 7011TIP3   OH242591   1.895   4.873   0.557  0.1530 -0.4695 -0.0423
 7011TIP3    H142592   1.964   4.865   0.623  0.2491 -0.4018 -0.1343
 7011TIP3    H242593   1.899   4.964   0.528  0.5660 -0.6617 -0.6289
 7012TIP3   OH242594   4.349   6.582   1.903 -0.5568 -0.5567 -0.3257
 7012TIP3    H142595   4.313   6.659   1.859 -1.1719 -1.7255 -1.9599
 7012TIP3    H242596   4.431   6.564   1.856 -0.3773 -0.8495  0.0959
 7013TIP3   OH242597   3.722   2.899   2.230  0.3754  0.0025 -0.3271
 7013TIP3    H142598   3.700   2.889   2.322  2.3261  0.4005  0.2274
 7013TIP3    H242599   3.663   2.967   2.198 -0.2147 -0.0373  0.6529
 7014TIP3   OH242600   5.820   6.079   1.049 -0.3932  0.2136 -0.2781
 7014TIP3    H142601   5.874   6.117   0.979 -0.5402 -0.5049 -0.7961
 7014TIP3    H242602   5.819   5.985   1.030 -0.4407  0.0085  0.6958
 7015TIP3   OH242603   1.673   3.029   1.429 -0.4569  0.5319 -0.0616
 7015TIP3    H142604   1.764   3.034   1.401 -0.0968 -1.6999  0.5098
 7015TIP3    H242605   1.674   3.066   1.518 -0.3954  1.7504 -0.5518
 7016TIP3   OH242606   4.407   4.924   3.339 -0.6618 -1.1183  0.0673
 7016TIP3    H142607   4.462   4.947   3.414  3.5620 -1.4180 -2.5678
 7016TIP3    H242608   4.420   4.830   3.328 -0.1661 -0.8759 -1.6820
 7017TIP3   OH242609   4.804   3.235   1.405 -0.2277  0.0604 -0.1474
 7017TIP3    H142610   4.854   3.183   1.343  0.1942  0.0831  0.1674
 7017TIP3    H242611   4.771   3.171   1.468 -0.0103  0.1255  0.0359
 7018TIP3   OH242612   6.701   2.238   2.324  0.2081  0.2527  0.7754
 7018TIP3    H142613   6.723   2.153   2.364  1.1496  0.4124  0.6124
 7018TIP3    H242614   6.785   2.276   2.300 -0.2926  0.4382 -0.8221
 7019TIP3   OH242615   5.623   0.050   7.754  0.1850  0.1783 -0.9836
 7019TIP3    H142616   5.546   0.004   7.721  0.0494 -1.0141  0.7991
 7019TIP3    H242617   5.587   0.123   7.805  0.1985 -0.3234 -0.2300
 7020TIP3   OH242618   1.794   1.234   0.394 -0.4719  0.0898 -0.2226
 7020TIP3    H142619   1.774   1.299   0.327  0.9152 -1.2443 -2.0104
 7020TIP3    H242620   1.716   1.234   0.450 -1.1274  2.1845 -1.0174
 7021TIP3   OH242621   5.274   4.262   0.661 -0.4935  0.3741  0.3682
 7021TIP3    H142622   5.214   4.231   0.728  0.1183 -1.3122  0.1855
 7021TIP3    H242623   5.276   4.192   0.596  0.8902  0.8192 -0.1153
 7022TIP3   OH242624   3.873   1.780   1.434  0.2644  0.2062 -0.9617
 7022TIP3    H142625   3.833   1.795   1.520 -0.6092 -0.7335 -1.1892
 7022TIP3    H242626   3.907   1.691   1.438 -1.1684 -0.4458 -2.0804
 7023TIP3   OH242627   6.370   0.770   3.750  0.7889 -0.1926 -0.5672
 7023TIP3    H142628   6.443   0.814   3.794  0.5459 -0.4566  0.1157
 7023TIP3    H242629   6.401   0.680   3.738 -0.0788 -0.8190  1.4037
 7024TIP3   OH242630   1.399   6.576   2.463 -0.9456  0.2704  0.3865
 7024TIP3    H142631   1.307   6.553   2.475 -0.8507 -0.5203 -0.3155
 7024TIP3    H242632   1.398   6.642   2.394 -0.9022 -0.7197 -0.5960
 7025TIP3   OH242633   3.310   5.678   0.962 -0.3770 -0.6836  0.3907
 7025TIP3    H142634   3.263   5.598   0.938  0.3557 -0.8138 -0.7037
 7025TIP3    H242635   3.361   5.700   0.884  2.0927 -1.0618  1.7809
 7026TIP3   OH242636   6.241   1.461   3.628  0.2916 -0.1231  0.3455
 7026TIP3    H142637   6.193   1.421   3.556  0.2657  0.3696  0.0883
 7026TIP3    H242638   6.250   1.391   3.693  0.1701 -0.5202 -0.0632
 7027TIP3   OH242639   6.645   2.419   0.941  0.2217  0.1894 -0.0328
 7027TIP3    H142640   6.731   2.377   0.936  0.6695  1.1548 -0.7923
 7027TIP3    H242641   6.647   2.467   1.024 -0.0011 -0.6456  0.4662
 7028TIP3   OH242642   4.810   0.043   0.369 -0.1145  0.6809 -0.1265
 7028TIP3    H142643   4.884   0.094   0.402  0.2046 -0.5841  1.2421
 7028TIP3    H242644   4.839  -0.048   0.377 -0.8270  0.2329 -2.0725
 7029TIP3   OH242645   6.359   4.828   3.329  0.1352  0.5364  0.1551
 7029TIP3    H142646   6.293   4.897   3.339 -0.9844 -0.5791  0.6645
 7029TIP3    H242647   6.402   4.848   3.245  0.7645  2.5950  0.9001
 7030TIP3   OH242648   3.991   3.953   8.028  0.0788  0.2981 -0.1083
 7030TIP3    H142649   4.069   3.897   8.024  0.4348  0.7164  0.5808
 7030TIP3    H242650   4.007   4.021   7.962 -0.3950 -0.4405 -1.0072
 7031TIP3   OH242651   2.897   4.194   0.997 -0.1892  0.4058  0.0537
 7031TIP3    H142652   2.849   4.162   0.921  0.5060  0.4189 -0.4009
 7031TIP3    H242653   2.936   4.115   1.036 -0.3412  0.4304  0.2619
 7032TIP3   OH242654   0.005   2.312   1.031  0.0251 -0.7988 -0.2282
 7032TIP3    H142655   0.082   2.356   1.068  0.2924 -0.3396 -1.2906
 7032TIP3    H242656   0.019   2.219   1.052 -0.4983 -0.4432  1.9506
 7033TIP3   OH242657   5.099   6.018   0.044 -0.1539  0.6099  0.3451
 7033TIP3    H142658   5.055   6.016   0.129 -1.8102 -0.2234 -0.4874
 7033TIP3    H242659   5.100   6.110   0.019  1.2000  0.9912  1.6531
 7034TIP3   OH242660   2.058   5.803   1.450  0.8663  0.0913 -0.4668
 7034TIP3    H142661   2.142   5.758   1.460  1.3247  1.0590  0.1013
 7034TIP3    H242662   2.076   5.877   1.392  1.0390  1.8662  1.7511
 7035TIP3   OH242663   4.001   6.463   1.577 -0.2906  0.0173  0.1601
 7035TIP3    H142664   4.085   6.420   1.597  0.4399  1.1101 -0.4388
 7035TIP3    H242665   3.939   6.390   1.567  0.5778 -0.8131  0.6532
 7036TIP3   OH242666   0.889   2.643   2.502 -0.3817  0.1412  0.2756
 7036TIP3    H142667   0.972   2.627   2.547  0.2799  0.0954 -0.9278
 7036TIP3    H242668   0.875   2.737   2.512 -2.1044 -0.3073  3.6436
 7037TIP3   OH242669   3.646   3.516   8.497 -0.4710 -0.3026  0.2693
 7037TIP3    H142670   3.660   3.421   8.498 -2.2187 -0.5994  0.2081
 7037TIP3    H242671   3.637   3.538   8.404  1.9889  0.3046  0.1244
 7038TIP3   OH242672   2.107   4.044   2.810  0.1258 -0.3936  0.4992
 7038TIP3    H142673   2.019   4.071   2.836  0.3769 -1.4915  2.6417
 7038TIP3    H242674   2.126   4.099   2.734 -2.1471  0.3100  0.3464
 7039TIP3   OH242675   0.618   0.846   7.774  0.1721 -0.0796 -0.0712
 7039TIP3    H142676   0.555   0.917   7.763  0.7980  0.7099  1.2314
 7039TIP3    H242677   0.631   0.840   7.868  1.2989 -0.8959 -0.2565
 7040TIP3   OH242678   0.796   6.765   8.280 -0.6357  0.3528  0.4664
 7040TIP3    H142679   0.851   6.822   8.227 -1.8450 -0.0348 -1.2858
 7040TIP3    H242680   0.733   6.824   8.322 -0.1859  0.5751  0.8314
 7041TIP3   OH242681   0.282   0.727   0.363  0.4800 -0.3502  0.2006
 7041TIP3    H142682   0.359   0.776   0.392  0.5439 -0.3273 -0.0011
 7041TIP3    H242683   0.295   0.717   0.268 -0.9489  1.8063 -0.2993
 7042TIP3   OH242684   1.566   0.093   2.691 -0.1937  0.1655  0.2573
 7042TIP3    H142685   1.480   0.051   2.680 -1.1237  2.1322 -0.3647
 7042TIP3    H242686   1.599   0.104   2.602  0.4339 -0.0293  0.4615
 7043TIP3   OH242687   0.591   0.298   1.808  0.0907  0.2013 -0.1009
 7043TIP3    H142688   0.622   0.384   1.838  0.5432 -0.7600  2.4344
 7043TIP3    H242689   0.671   0.249   1.788  0.1186 -0.7599  2.0197
 7044TIP3   OH242690   1.942   5.825   1.115 -0.0947  0.2126 -1.2340
 7044TIP3    H142691   1.946   5.899   1.175 -0.3082  0.2305 -1.2408
 7044TIP3    H242692   1.923   5.864   1.030  3.2073  0.5171 -1.9474
 7045TIP3   OH242693   4.280   3.774   1.724  0.2994 -0.1672 -0.4601
 7045TIP3    H142694   4.328   3.731   1.653  0.9902  0.3684 -0.3265
 7045TIP3    H242695   4.246   3.855   1.685  1.1308  0.3888 -0.0461
 7046TIP3   OH242696   4.547   6.610   1.211 -0.0263 -0.1244  0.1136
 7046TIP3    H142697   4.569   6.665   1.287  0.6964 -0.3930  0.1064
 7046TIP3    H242698   4.477   6.553   1.243  0.9454 -0.9183  0.8997
 7047TIP3   OH242699   3.808   1.332   8.590  0.3995 -0.0451 -0.0027
 7047TIP3    H142700   3.713   1.317   8.591  0.1021  1.2741 -1.8929
 7047TIP3    H242701   3.820   1.410   8.644  0.4866 -0.4857  0.6238
 7048TIP3   OH242702   0.124   5.277   3.787  0.1634 -0.3715  0.0034
 7048TIP3    H142703   0.131   5.192   3.831  0.7640 -0.8405 -0.9839
 7048TIP3    H242704   0.173   5.337   3.844 -0.8280 -0.5120  1.0607
 7049TIP3   OH242705   5.477   0.659   8.405  0.2157  0.2482  0.1055
 7049TIP3    H142706   5.421   0.605   8.349 -0.1873 -0.3740  1.0879
 7049TIP3    H242707   5.539   0.699   8.344  0.5367 -1.3137 -0.6628
 7050TIP3   OH242708   6.202   0.918   3.586  0.0516  0.2315 -0.3235
 7050TIP3    H142709   6.252   0.866   3.649 -1.4132 -1.0725 -0.1739
 7050TIP3    H242710   6.200   0.865   3.506 -1.4913  0.0081 -0.1658
 7051TIP3   OH242711   4.118   3.220   0.349 -0.5317 -0.1543 -0.0651
 7051TIP3    H142712   4.139   3.246   0.438 -0.8822 -2.0698  0.6216
 7051TIP3    H242713   4.040   3.165   0.357  0.5297 -1.9472 -1.2792
 7052TIP3   OH242714   4.517   3.883   2.741  0.1691 -0.0896  0.0512
 7052TIP3    H142715   4.501   3.804   2.690  1.5308  0.2398 -0.9569
 7052TIP3    H242716   4.453   3.880   2.812 -0.5497 -1.5041 -0.6254
 7053TIP3   OH242717   5.958   4.583   2.519  0.1861 -0.4432  0.1533
 7053TIP3    H142718   5.889   4.584   2.585 -1.3663 -0.5389 -1.4220
 7053TIP3    H242719   5.944   4.503   2.470  1.3059 -0.3591 -0.3466
 7054LIG     O142720   3.998   0.487   4.020 -0.3145 -0.1060 -0.3259
 7054LIG     O242721   3.735   0.432   4.014 -0.2714 -0.2175  0.3314
 7054LIG     O342722   4.091   0.205   3.953  0.1847  0.3885  0.0158
 7054LIG     O442723   3.595   0.529   3.850 -0.1789 -0.0109  0.7639
 7054LIG     O542724   3.877   0.285   3.797  0.7853 -0.4137 -0.1076
 7054LIG     O642725   3.662   0.210   3.601  0.4285 -0.0326 -0.5814
 7054LIG     O742726   3.539   0.458   3.501 -0.1972 -0.1446 -0.1113
 7054LIG     O842727   3.332   0.570   3.726 -0.0487  0.2659 -0.1051
 7054LIG     O942728   3.436   0.752   3.634  0.1116 -0.2889 -0.2357
 7054LIG      N42729   4.091   0.641   4.498  0.0528 -0.1560  0.1205
 7054LIG     C142730   3.987   0.573   4.237 -0.2949  0.3738 -0.2072
 7054LIG     C242731   3.893   0.591   4.361 -0.2369 -0.0160 -0.3570
 7054LIG     C342732   3.923   0.585   4.097  0.6500  0.1026 -0.1468
 7054LIG     C442733   3.980   0.552   4.483  0.6384 -0.3118 -0.3882
 7054LIG     C542734   4.118   0.657   4.243 -0.5221  0.4117  0.0733
 7054LIG     C642735   4.045   0.437   4.239  0.3127  0.1739  0.1205
 7054LIG     C742736   4.041   0.407   4.484 -0.1243 -0.5200  0.3559
 7054LIG     C842737   4.185   0.643   4.381  0.2777 -0.0605  0.6295
 7054LIG     C942738   3.770   0.548   4.089  0.0339  0.4769  0.5190
 7054LIG    C1042739   4.067   0.362   4.342 -1.1597  0.0686 -0.2209
 7054LIG    C1142740   3.762   0.515   4.343 -0.2413 -0.3655 -0.6493
 7054LIG    C1242741   4.038   0.388   4.112  0.2051  0.1072 -0.3611
 7054LIG    C1342742   3.709   0.494   4.220  0.9854 -0.3310 -0.2949
 7054LIG    C1442743   4.055   0.762   4.562 -0.0772 -0.2673  0.2298
 7054LIG    C1542744   4.117   0.227   4.322  0.2216  0.0292 -0.1616
 7054LIG    C1642745   4.090   0.260   4.082 -0.0846  0.7116 -0.5647
 7054LIG    C1742746   4.132   0.182   4.190  0.6744 -0.5962 -0.4521
 7054LIG    C1842747   3.722   0.461   3.877  0.4473 -0.6398  0.0637
 7054LIG    C1942748   3.738   0.333   3.800  0.3035 -0.4099  0.2675
 7054LIG    C2042749   3.688   0.343   3.652 -0.4009 -0.1466 -0.6961
 7054LIG    C2142750   3.562   0.428   3.638 -0.0694 -0.9033  0.2789
 7054LIG    C2242751   3.575   0.554   3.711 -0.1263 -0.5861 -0.8299
 7054LIG    C2342752   3.445   0.639   3.682 -0.0309  0.4148  0.3475
 7054LIG     H142753   3.869   0.699   4.367  0.7140  0.2813 -1.4997
 7054LIG     H242754   3.948   0.683   4.051 -2.8741  2.6325  2.7048
 7054LIG     H342755   3.915   0.575   4.570 -1.2122 -1.8217 -1.2666
 7054LIG     H442756   4.092   0.765   4.237 -2.1732  0.0239 -0.5424
 7054LIG     H542757   4.189   0.633   4.161 -0.3741  0.2429  0.2528
 7054LIG     H642758   3.964   0.338   4.524  0.6221 -0.3529  2.1297
 7054LIG     H742759   4.133   0.404   4.545  1.5033  2.1158 -1.7077
 7054LIG     H842760   4.255   0.557   4.382 -0.4663 -0.6952 -0.3362
 7054LIG     H942761   4.257   0.728   4.388 -0.1061  0.6707 -2.6124
 7054LIG    H1042762   3.711   0.637   4.057 -2.1229 -1.4957 -1.4203
 7054LIG    H1142763   3.727   0.458   4.430  1.0111 -0.7156 -0.3453
 7054LIG    H1242764   3.605   0.461   4.209  0.6561  0.0398  1.4415
 7054LIG    H1342765   4.050   0.749   4.673  3.6095 -1.2593  0.4036
 7054LIG    H1442766   3.953   0.801   4.542  0.1494  0.3461  0.2510
 7054LIG    H1542767   4.132   0.838   4.535 -0.7277  0.1411 -0.5293
 7054LIG    H1642768   4.137   0.169   4.411 -2.6846  0.7462  1.0712
 7054LIG    H1742769   4.175   0.087   4.165 -0.5142 -1.2861  0.0385
 7054LIG    H1842770   3.809   0.526   3.854  1.1906 -1.0908  1.5118
 7054LIG    H1942771   3.680   0.252   3.850  1.0739  0.7972  3.3283
 7054LIG    H2042772   3.771   0.386   3.592 -2.8741  0.3698 -4.0307
 7054LIG    H2142773   4.020   0.256   3.913  0.9549  0.3037 -1.5288
 7054LIG    H2242774   3.473   0.372   3.672  0.0669 -2.9100 -2.3820
 7054LIG    H2342775   3.658   0.618   3.674 -1.7173  1.6284 -0.8550
 7054LIG    H2442776   3.866   0.190   3.798  0.1785 -0.3442  0.6287
 7054LIG    H2542777   3.750   0.177   3.580  0.2945 -1.3856  0.8283
 7054LIG    H2642778   3.483   0.395   3.454  0.3374 -1.3687  0.8349
 7054LIG    H2742779   3.255   0.627   3.735 -1.6670 -1.6104 -1.0775
   6.87091   6.87091   8.66519
